Title
43134
    1CHL1    C3    1   4.823   1.777   6.592 -0.1899 -0.0522 -0.1892
    1CHL1    H3    2   4.931   1.800   6.581 -0.5197  0.7711 -2.2296
    1CHL1    O3    3   4.791   1.758   6.730  0.7362  0.3415 -0.0428
    1CHL1   H3'    4   4.811   1.666   6.745 -2.0593 -0.0096  2.4415
    1CHL1    C4    5   4.750   1.896   6.530  0.3603  0.1234  0.1403
    1CHL1   H4A    6   4.648   1.888   6.574  0.8660 -2.3250  1.0462
    1CHL1   H4B    7   4.798   1.989   6.564  0.5483  0.0006  0.2099
    1CHL1    C5    8   4.749   1.909   6.376  0.6452 -0.6412 -0.2824
    1CHL1    C6    9   4.792   2.008   6.307 -0.4121 -0.4986  0.7113
    1CHL1    H6   10   4.824   2.096   6.364 -1.6790 -0.0420  0.7460
    1CHL1    C7   11   4.801   2.012   6.159 -0.8350 -0.5579  0.3456
    1CHL1   H7A   12   4.782   2.110   6.111  0.4227 -0.1281  0.7178
    1CHL1   H7B   13   4.905   1.988   6.128  0.2777  3.4315  0.4632
    1CHL1    C8   14   4.707   1.904   6.094 -0.0079 -0.2487  0.3869
    1CHL1    H8   15   4.603   1.941   6.110  0.1927  0.3761  0.2782
    1CHL1   C14   16   4.726   1.894   5.943  0.3262 -0.1751 -0.6007
    1CHL1   H14   17   4.830   1.861   5.927  0.0860  0.1263 -3.3022
    1CHL1   C15   18   4.717   2.022   5.855  0.1534  0.0297  0.6601
    1CHL1  H15A   19   4.628   2.080   5.885  0.7945 -0.5525  4.0076
    1CHL1  H15B   20   4.802   2.091   5.872  1.2882 -0.8544 -0.9822
    1CHL1   C16   21   4.707   1.968   5.711 -0.2348 -0.3970  0.0571
    1CHL1  H16A   22   4.606   2.012   5.693 -0.9203 -0.8334  2.4484
    1CHL1  H16B   23   4.791   1.996   5.644  1.1582 -1.6249  1.2128
    1CHL1   C17   24   4.697   1.810   5.726  0.4915 -0.6447 -0.3879
    1CHL1   H17   25   4.801   1.772   5.739  1.0259  0.7009 -0.5710
    1CHL1   C13   26   4.636   1.794   5.869  0.4887 -0.4621 -0.3065
    1CHL1   C18   27   4.492   1.822   5.873  0.4862 -0.1885  0.0536
    1CHL1  H18A   28   4.469   1.904   5.802  4.6030  1.9008  0.8382
    1CHL1  H18B   29   4.436   1.735   5.831 -0.2260  1.5007 -2.7713
    1CHL1  H18C   30   4.454   1.852   5.973 -2.6927  1.8348 -1.6099
    1CHL1   C12   31   4.661   1.657   5.933  0.7574  0.3094  0.3060
    1CHL1  H12A   32   4.593   1.577   5.896  0.4274  0.3328  0.8610
    1CHL1  H12B   33   4.765   1.623   5.910  0.1496 -2.1454  0.8858
    1CHL1   C11   34   4.652   1.654   6.082 -0.4919 -0.2477 -0.0695
    1CHL1  H11A   35   4.542   1.660   6.100 -0.0748  1.3764  2.5816
    1CHL1  H11B   36   4.682   1.550   6.111 -0.0292 -0.3229 -0.7973
    1CHL1    C9   37   4.729   1.767   6.154 -0.1460  0.5578 -0.7045
    1CHL1    H9   38   4.838   1.750   6.141 -0.1621 -0.9792  0.8686
    1CHL1   C10   39   4.710   1.770   6.306  0.1234 -0.2701  0.2845
    1CHL1   C19   40   4.561   1.745   6.327  0.5593  0.4017 -0.6243
    1CHL1  H19A   41   4.503   1.810   6.258 -0.1668 -0.5514 -0.9437
    1CHL1  H19B   42   4.542   1.637   6.310 -1.2160  0.6017 -0.1524
    1CHL1  H19C   43   4.521   1.758   6.430 -0.9806 -2.6802 -0.7122
    1CHL1    C1   44   4.800   1.660   6.365 -0.3300  0.2562  0.7445
    1CHL1   H1A   45   4.777   1.558   6.327 -0.6342  0.2949  0.8275
    1CHL1   H1B   46   4.904   1.694   6.344  0.1898 -0.8824  1.3557
    1CHL1    C2   47   4.785   1.651   6.523  0.1774  0.0360  0.6452
    1CHL1   H2A   48   4.863   1.575   6.548  1.8848  0.9656 -1.4819
    1CHL1   H2B   49   4.685   1.610   6.548  0.3266 -1.7444 -1.3708
    1CHL1   C20   50   4.628   1.745   5.611  0.2181  0.1972 -0.3902
    1CHL1   H20   51   4.517   1.732   5.618  0.5621 -3.7306 -0.0560
    1CHL1   C21   52   4.670   1.599   5.614  0.1718 -0.0759 -0.5053
    1CHL1  H21A   53   4.655   1.566   5.509  1.3512  1.4454 -1.2000
    1CHL1  H21B   54   4.620   1.532   5.687  0.7546  1.4973  1.4261
    1CHL1  H21C   55   4.775   1.578   5.644  0.0956  0.0751 -0.1301
    1CHL1   C22   56   4.659   1.829   5.477  1.4235  0.1358 -0.0681
    1CHL1  H22A   57   4.601   1.923   5.490 -0.3349 -0.7523 -1.1225
    1CHL1  H22B   58   4.766   1.858   5.472  0.4417  4.7606  0.7772
    1CHL1   C23   59   4.606   1.772   5.346 -0.2711 -0.4512 -0.0458
    1CHL1  H23A   60   4.643   1.840   5.267  1.5115  0.6633  1.6722
    1CHL1  H23B   61   4.649   1.671   5.331  1.3065  0.3913 -1.4219
    1CHL1   C24   62   4.453   1.783   5.342  0.7393  0.4586  0.3327
    1CHL1  H24A   63   4.398   1.718   5.413 -0.7419  1.5337  0.2251
    1CHL1  H24B   64   4.421   1.882   5.380  0.3378  0.7261 -0.6600
    1CHL1   C25   65   4.384   1.754   5.208 -0.6640  0.9398  0.5234
    1CHL1   H25   66   4.436   1.815   5.132 -1.0838  0.3323 -0.2629
    1CHL1   C26   67   4.389   1.604   5.167 -0.1948 -0.0460  0.1879
    1CHL1  H26A   68   4.498   1.581   5.161  0.4485  2.2344  1.6069
    1CHL1  H26B   69   4.349   1.536   5.245 -1.9739 -0.0396 -0.6845
    1CHL1  H26C   70   4.341   1.584   5.069 -1.6605 -1.7438  1.1902
    1CHL1   C27   71   4.237   1.798   5.198  0.2235 -0.7803  0.3715
    1CHL1  H27A   72   4.246   1.900   5.239  0.4173 -1.1196  1.1939
    1CHL1  H27B   73   4.201   1.784   5.094  0.0101  0.1066  0.3195
    1CHL1  H27C   74   4.179   1.735   5.269  0.1393  0.4187  1.3870
    2CHL1    C3   75   6.469   1.331   6.653  0.3048 -0.2492 -0.1118
    2CHL1    H3   76   6.541   1.408   6.616  0.3449  0.2944  1.0808
    2CHL1    O3   77   6.510   1.297   6.780  0.2348 -0.2175 -0.1624
    2CHL1   H3'   78   6.504   1.202   6.786  1.5864 -0.3765 -1.0426
    2CHL1    C4   79   6.325   1.388   6.659 -0.6449 -0.4883 -0.3060
    2CHL1   H4A   80   6.258   1.314   6.706  0.7164 -1.3822  0.2709
    2CHL1   H4B   81   6.332   1.477   6.726  4.0887  0.3128 -1.5102
    2CHL1    C5   82   6.272   1.423   6.526 -0.1883  0.6110  0.6929
    2CHL1    C6   83   6.225   1.545   6.490 -0.2165  0.6267 -0.3521
    2CHL1    H6   84   6.220   1.623   6.567  0.7424 -1.1489  1.6250
    2CHL1    C7   85   6.169   1.564   6.356 -0.4318 -0.0391  0.0819
    2CHL1   H7A   86   6.079   1.629   6.355 -1.5380 -1.4763  0.8358
    2CHL1   H7B   87   6.249   1.626   6.311  0.3473 -0.4378  0.8931
    2CHL1    C8   88   6.141   1.434   6.263 -1.0997  0.1508 -0.5164
    2CHL1    H8   89   6.043   1.394   6.295 -1.6063  1.9745  0.3766
    2CHL1   C14   90   6.126   1.480   6.110 -0.0623  0.1110 -0.3002
    2CHL1   H14   91   6.220   1.534   6.084 -0.1994  0.2063 -0.6051
    2CHL1   C15   92   6.013   1.581   6.075  0.6696 -0.0143  0.7977
    2CHL1  H15A   93   5.917   1.538   6.111  0.6434 -0.9280 -0.3230
    2CHL1  H15B   94   6.017   1.688   6.107 -2.4234  0.3969  0.1991
    2CHL1   C16   95   6.010   1.566   5.920 -0.4490 -0.2977  0.3316
    2CHL1  H16A   96   5.904   1.548   5.891 -0.2039  1.1668 -1.6509
    2CHL1  H16B   97   6.047   1.656   5.866 -0.3121 -1.0856 -0.9258
    2CHL1   C17   98   6.102   1.445   5.888  0.0302  0.2690 -0.0048
    2CHL1   H17   99   6.205   1.488   5.879  0.3670 -0.4080  0.5405
    2CHL1   C13  100   6.118   1.366   6.016  0.1652 -0.5603  0.0118
    2CHL1   C18  101   5.986   1.284   6.039 -0.8016  0.5604 -0.2145
    2CHL1  H18A  102   6.007   1.175   6.039  0.6401  0.8097  0.8017
    2CHL1  H18B  103   5.949   1.304   6.142  0.7998  0.9121  0.3150
    2CHL1  H18C  104   5.914   1.320   5.963  0.2566 -1.0996 -2.1002
    2CHL1   C12  105   6.238   1.264   6.030 -0.3088  0.7869 -0.6044
    2CHL1  H12A  106   6.215   1.170   5.977 -1.5008 -0.7291  2.3451
    2CHL1  H12B  107   6.339   1.301   6.003  1.8920 -2.7554  1.9346
    2CHL1   C11  108   6.248   1.224   6.180  0.4395 -0.1774  0.3987
    2CHL1  H11A  109   6.163   1.157   6.206  0.8761 -1.4063 -1.1570
    2CHL1  H11B  110   6.342   1.165   6.182  1.4129  1.3276  0.6779
    2CHL1    C9  111   6.262   1.347   6.278 -0.6322  0.6794 -0.2368
    2CHL1    H9  112   6.358   1.395   6.249  1.0801 -0.5815  2.8385
    2CHL1   C10  113   6.283   1.302   6.427  0.3742 -0.2196  0.5099
    2CHL1   C19  114   6.173   1.197   6.474 -0.3134  0.2328 -0.0598
    2CHL1  H19A  115   6.189   1.158   6.577 -2.1498 -1.1414 -0.2495
    2CHL1  H19B  116   6.067   1.228   6.464 -0.9590 -1.3403  1.3885
    2CHL1  H19C  117   6.186   1.110   6.407  2.5205  0.4646  0.0626
    2CHL1    C1  118   6.422   1.232   6.438  0.9452 -0.1225 -0.0688
    2CHL1   H1A  119   6.396   1.137   6.387 -0.0052  0.4324 -0.6484
    2CHL1   H1B  120   6.491   1.290   6.372  2.1356 -3.1179 -1.6242
    2CHL1    C2  121   6.475   1.207   6.573  0.3780  0.6089  0.1580
    2CHL1   H2A  122   6.584   1.186   6.567  0.5371  1.2601  0.7029
    2CHL1   H2B  123   6.423   1.122   6.623 -0.3140  0.4114 -0.8543
    2CHL1   C20  124   6.058   1.366   5.761 -0.2978  0.5497  0.3963
    2CHL1   H20  125   5.951   1.341   5.773 -0.0450  0.0325  1.7717
    2CHL1   C21  126   6.120   1.229   5.739 -0.3117 -0.5361 -0.1735
    2CHL1  H21A  127   6.230   1.228   5.727 -0.3264  0.6477 -0.5330
    2CHL1  H21B  128   6.082   1.172   5.652 -0.2751 -1.3032  0.3057
    2CHL1  H21C  129   6.097   1.168   5.829 -0.7927  1.1698  0.9152
    2CHL1   C22  130   6.064   1.453   5.633 -0.5412  0.0384 -0.0168
    2CHL1  H22A  131   6.007   1.547   5.645 -0.8100 -0.1968  0.5582
    2CHL1  H22B  132   6.172   1.473   5.612 -0.9115  0.6304 -1.5060
    2CHL1   C23  133   5.995   1.380   5.520  0.0206  0.0655  0.6860
    2CHL1  H23A  134   6.057   1.294   5.485  0.8022 -0.3810  2.9926
    2CHL1  H23B  135   5.894   1.342   5.546 -0.6724 -3.0874 -4.8903
    2CHL1   C24  136   5.951   1.468   5.402 -0.4959  0.7617 -0.2755
    2CHL1  H24A  137   5.868   1.533   5.437 -0.4708  1.1990 -1.0057
    2CHL1  H24B  138   6.042   1.524   5.371  0.1021  1.3723  2.2983
    2CHL1   C25  139   5.911   1.400   5.269 -0.0852  0.4202  0.0485
    2CHL1   H25  140   6.002   1.338   5.251  0.9718  1.9809 -0.2082
    2CHL1   C26  141   5.799   1.295   5.281 -0.1174 -0.1962  0.0116
    2CHL1  H26A  142   5.795   1.240   5.184  0.1395  0.4076 -0.3399
    2CHL1  H26B  143   5.821   1.227   5.366  1.6077  0.4178  0.0993
    2CHL1  H26C  144   5.700   1.346   5.283  0.0541  0.1136  1.3600
    2CHL1   C27  145   5.891   1.502   5.160  0.0840  0.0869  0.2681
    2CHL1  H27A  146   5.987   1.556   5.145 -0.3528  0.2180 -2.5405
    2CHL1  H27B  147   5.864   1.451   5.065  2.4337  1.7005 -1.4132
    2CHL1  H27C  148   5.807   1.572   5.178  0.5737  0.8660 -0.4014
    3CHL1    C3  149   4.177   2.774   6.436  0.4442  0.0319 -0.2344
    3CHL1    H3  150   4.255   2.699   6.408  1.5511  0.7280  0.8861
    3CHL1    O3  151   4.193   2.815   6.567 -0.2260  0.3317  0.3412
    3CHL1   H3'  152   4.115   2.870   6.577 -1.2862 -0.9790 -0.4972
    3CHL1    C4  153   4.198   2.903   6.354 -0.4268 -0.1987  0.0297
    3CHL1   H4A  154   4.108   2.963   6.380 -2.1801 -2.8412  0.4940
    3CHL1   H4B  155   4.293   2.957   6.374 -0.8055  0.3782  0.2839
    3CHL1    C5  156   4.184   2.862   6.210 -0.6786  0.6536 -0.0857
    3CHL1    C6  157   4.293   2.876   6.130 -0.2362  0.0446  0.1426
    3CHL1    H6  158   4.382   2.931   6.165  0.0719  0.6651 -1.5052
    3CHL1    C7  159   4.297   2.859   5.978  0.0464 -0.1318 -0.0023
    3CHL1   H7A  160   4.347   2.945   5.930  3.4049 -2.3148 -0.7727
    3CHL1   H7B  161   4.368   2.779   5.949  0.2172  0.7831 -2.2382
    3CHL1    C8  162   4.155   2.834   5.920  0.5676 -0.1027 -0.1332
    3CHL1    H8  163   4.106   2.933   5.912 -0.4305 -0.7575 -3.9086
    3CHL1   C14  164   4.159   2.762   5.782 -0.1971 -0.0209 -0.5799
    3CHL1   H14  165   4.203   2.662   5.804 -2.3069 -0.3389  2.8691
    3CHL1   C15  166   4.246   2.829   5.673  0.2182  0.0057  0.2604
    3CHL1  H15A  167   4.224   2.937   5.664  1.5276  0.2776  0.0860
    3CHL1  H15B  168   4.357   2.829   5.677  0.2664  2.1735 -0.1632
    3CHL1   C16  169   4.204   2.749   5.541  0.1467 -0.3796 -0.6788
    3CHL1  H16A  170   4.208   2.809   5.447 -1.8983  2.9994  1.1686
    3CHL1  H16B  171   4.276   2.667   5.521  1.6694  0.4261  1.1823
    3CHL1   C17  172   4.067   2.689   5.568  0.4224  0.4885 -0.5481
    3CHL1   H17  173   4.089   2.580   5.575 -0.3703  0.3438 -0.2039
    3CHL1   C13  174   4.024   2.748   5.708 -0.3609 -0.5695 -0.6365
    3CHL1   C18  175   3.956   2.887   5.692  0.4553  0.2327  0.7225
    3CHL1  H18A  176   3.950   2.934   5.793  1.9466 -0.1555  1.0114
    3CHL1  H18B  177   4.014   2.953   5.625 -0.1559 -0.9979 -1.0779
    3CHL1  H18C  178   3.853   2.864   5.656  0.0525  0.3910  1.7218
    3CHL1   C12  179   3.952   2.639   5.795  0.8223 -0.2535 -0.4412
    3CHL1  H12A  180   3.846   2.642   5.762  0.5349 -1.9274  0.2004
    3CHL1  H12B  181   3.992   2.535   5.789  3.5797  0.5272  2.0917
    3CHL1   C11  182   3.940   2.695   5.942 -0.2106 -0.7625 -0.2989
    3CHL1  H11A  183   3.870   2.781   5.950 -1.0541 -1.2977 -1.4644
    3CHL1  H11B  184   3.908   2.608   6.003 -0.3359  0.5643  1.6087
    3CHL1    C9  185   4.069   2.739   6.012  0.2955 -0.1690  0.2014
    3CHL1    H9  186   4.124   2.643   6.017  1.6936  0.5639 -0.6053
    3CHL1   C10  187   4.055   2.795   6.160  0.2296 -0.0902  1.0272
    3CHL1   C19  188   3.929   2.893   6.166  0.0975 -0.3428  0.9787
    3CHL1  H19A  189   3.943   2.978   6.095 -1.8946  0.1805  1.1395
    3CHL1  H19B  190   3.841   2.832   6.137  0.3206 -0.5183  0.6712
    3CHL1  H19C  191   3.898   2.931   6.266 -3.1102  1.4842 -0.5592
    3CHL1    C1  192   4.022   2.682   6.258  0.1263 -0.4126  0.2646
    3CHL1   H1A  193   3.915   2.653   6.249 -0.7919  2.2106  1.6028
    3CHL1   H1B  194   4.078   2.586   6.254 -2.7731 -2.1912 -2.1881
    3CHL1    C2  195   4.037   2.719   6.410 -0.3022  0.6305  0.0376
    3CHL1   H2A  196   4.015   2.627   6.468 -2.8836  2.4274  2.0909
    3CHL1   H2B  197   3.966   2.793   6.450 -1.2230  1.2302 -2.5195
    3CHL1   C20  198   3.968   2.703   5.452  0.5392  0.0939 -0.1645
    3CHL1   H20  199   3.957   2.811   5.429 -1.2438 -0.3525 -1.6471
    3CHL1   C21  200   3.821   2.645   5.479 -1.2593  0.4865  0.6444
    3CHL1  H21A  201   3.769   2.682   5.570 -2.1819  1.4282 -0.2347
    3CHL1  H21B  202   3.834   2.536   5.490  0.1196  0.4820 -0.6884
    3CHL1  H21C  203   3.757   2.662   5.389 -1.7544 -2.6665  0.2923
    3CHL1   C22  204   4.033   2.629   5.329 -0.3683  0.5184  0.3129
    3CHL1  H22A  205   4.142   2.650   5.319  0.0488 -0.7602  1.7690
    3CHL1  H22B  206   4.014   2.520   5.342 -1.4357  0.6783  0.1051
    3CHL1   C23  207   3.953   2.666   5.205  0.8848 -0.8804 -0.0777
    3CHL1  H23A  208   3.861   2.605   5.212  0.0196  0.5544  2.6556
    3CHL1  H23B  209   3.918   2.772   5.204  1.3118 -0.7305  0.3076
    3CHL1   C24  210   4.038   2.647   5.070 -0.2301  0.9715 -0.0222
    3CHL1  H24A  211   4.108   2.733   5.062  1.1946 -0.2883 -2.2856
    3CHL1  H24B  212   4.104   2.560   5.090  2.7513  2.8016 -1.1643
    3CHL1   C25  213   3.944   2.626   4.948 -0.4363  0.0571  0.0544
    3CHL1   H25  214   3.857   2.694   4.955 -0.4614  0.3505 -2.3820
    3CHL1   C26  215   4.017   2.656   4.815  0.2607 -0.5893 -0.0542
    3CHL1  H26A  216   3.965   2.616   4.726  0.7458  0.4327 -0.8267
    3CHL1  H26B  217   4.021   2.767   4.802  1.2980 -0.1423  3.2022
    3CHL1  H26C  218   4.118   2.611   4.807  0.5371 -0.4360  2.0861
    3CHL1   C27  219   3.892   2.478   4.956 -0.2308 -0.2104 -0.0969
    3CHL1  H27A  220   3.983   2.415   4.954  1.6018  2.2440  0.6255
    3CHL1  H27B  221   3.832   2.461   5.047 -0.9458  0.7144 -0.3813
    3CHL1  H27C  222   3.820   2.464   4.872 -0.5618  0.7912  0.0071
    4CHL1    C3  223   5.690   0.804   6.552 -0.4335  0.5127 -1.1801
    4CHL1    H3  224   5.613   0.724   6.544  1.0099 -1.2832  1.3384
    4CHL1    O3  225   5.711   0.828   6.691  0.4812 -0.6385 -0.4304
    4CHL1   H3'  226   5.751   0.914   6.701  2.0286 -1.4861  1.2809
    4CHL1    C4  227   5.823   0.756   6.494 -0.0385 -0.3650 -0.1799
    4CHL1   H4A  228   5.907   0.820   6.529 -0.1987 -0.5830  0.6273
    4CHL1   H4B  229   5.857   0.658   6.534  3.2825  1.4086  1.7872
    4CHL1    C5  230   5.803   0.741   6.342 -0.7872  1.0602 -0.2624
    4CHL1    C6  231   5.831   0.622   6.280 -0.1157 -0.1089  0.5505
    4CHL1    H6  232   5.880   0.542   6.337  1.8107  0.4591 -0.2205
    4CHL1    C7  233   5.831   0.611   6.132 -0.0402 -0.1368  0.5916
    4CHL1   H7A  234   5.909   0.542   6.094  0.4217 -0.5605  2.2376
    4CHL1   H7B  235   5.729   0.572   6.109 -1.0332  1.9963  1.0546
    4CHL1    C8  236   5.831   0.757   6.056  0.2589  0.1281 -0.0593
    4CHL1    H8  237   5.931   0.804   6.072  1.3360 -2.2205  0.6073
    4CHL1   C14  238   5.812   0.738   5.910 -0.0437  0.4769  0.1998
    4CHL1   H14  239   5.723   0.674   5.890 -0.5948  2.0113 -2.9053
    4CHL1   C15  240   5.925   0.676   5.838 -0.4025 -0.1918 -0.3175
    4CHL1  H15A  241   6.018   0.712   5.888 -1.4813  1.0597  0.8558
    4CHL1  H15B  242   5.932   0.565   5.840 -0.7288 -0.2068  1.0449
    4CHL1   C16  243   5.907   0.723   5.692  0.7045 -0.5663 -0.2661
    4CHL1  H16A  244   5.998   0.784   5.673 -0.8120  2.0539  0.3336
    4CHL1  H16B  245   5.894   0.638   5.623 -4.1403 -1.6230  1.5322
    4CHL1   C17  246   5.779   0.818   5.694 -0.2569 -0.3513  0.0206
    4CHL1   H17  247   5.700   0.750   5.655 -1.5025 -0.7923  3.0752
    4CHL1   C13  248   5.769   0.868   5.841 -0.4008 -0.0054  0.2926
    4CHL1   C18  249   5.891   0.970   5.858  0.0248 -0.0094 -0.4357
    4CHL1  H18A  250   5.982   0.934   5.805 -0.0700  1.0193 -1.3553
    4CHL1  H18B  251   5.855   1.063   5.808 -1.4081 -0.5718 -0.5033
    4CHL1  H18C  252   5.913   0.981   5.966 -2.3992  0.8342  0.0457
    4CHL1   C12  253   5.639   0.921   5.897  0.1528 -0.6465 -0.0127
    4CHL1  H12A  254   5.616   1.020   5.854  2.3415  0.0232  0.2414
    4CHL1  H12B  255   5.551   0.855   5.879 -1.2171  0.3851  2.3652
    4CHL1   C11  256   5.654   0.955   6.046  0.0216 -0.1472  0.4175
    4CHL1  H11A  257   5.715   1.047   6.060 -0.0875 -0.0187  0.0613
    4CHL1  H11B  258   5.554   0.985   6.083 -0.2316  0.2304 -0.5720
    4CHL1    C9  259   5.720   0.833   6.124 -0.1220 -0.3940  0.0864
    4CHL1    H9  260   5.638   0.759   6.122 -0.6903  0.2256 -1.2515
    4CHL1   C10  261   5.747   0.866   6.272 -0.0230  0.0053  0.0207
    4CHL1   C19  262   5.858   0.976   6.284  0.5952  0.2701  0.8284
    4CHL1  H19A  263   5.933   0.948   6.207 -1.2256  0.0609 -0.9538
    4CHL1  H19B  264   5.820   1.076   6.254 -1.4650 -0.1594  1.8505
    4CHL1  H19C  265   5.896   1.000   6.385 -1.1045 -0.1666  1.6087
    4CHL1    C1  266   5.620   0.917   6.343  0.3900 -0.2716  1.0307
    4CHL1   H1A  267   5.572   1.007   6.298 -0.1022 -0.8477  0.3919
    4CHL1   H1B  268   5.543   0.838   6.337 -0.5145  0.6810 -1.0124
    4CHL1    C2  269   5.638   0.931   6.494 -0.3444 -0.8714  0.1266
    4CHL1   H2A  270   5.540   0.967   6.530  0.8040  2.4947  0.2465
    4CHL1   H2B  271   5.705   1.019   6.507 -1.7317  0.3601 -0.6944
    4CHL1   C20  272   5.787   0.918   5.580  0.2748 -0.3454  0.0233
    4CHL1   H20  273   5.887   0.965   5.582 -0.8040  2.1122 -0.0678
    4CHL1   C21  274   5.678   1.030   5.594 -0.3840 -0.2582 -0.2773
    4CHL1  H21A  275   5.701   1.090   5.684 -1.9496  0.9732 -0.6663
    4CHL1  H21B  276   5.578   0.986   5.613 -0.0674 -2.0944 -2.3984
    4CHL1  H21C  277   5.673   1.108   5.516  1.3711  0.6371  0.4500
    4CHL1   C22  278   5.777   0.854   5.440 -0.0542 -0.2560  0.0299
    4CHL1  H22A  279   5.805   0.934   5.368 -1.6786  0.4311  0.1209
    4CHL1  H22B  280   5.851   0.773   5.428  1.7291  1.4308 -0.9347
    4CHL1   C23  281   5.647   0.790   5.407  0.0000 -0.3819 -0.3523
    4CHL1  H23A  282   5.632   0.700   5.472 -0.0737  0.5138  0.8996
    4CHL1  H23B  283   5.566   0.864   5.418 -1.3994 -1.9010  0.0266
    4CHL1   C24  284   5.624   0.734   5.267  0.4364 -0.8352 -0.3474
    4CHL1  H24A  285   5.619   0.822   5.198  1.8011 -1.2421 -1.0035
    4CHL1  H24B  286   5.715   0.683   5.228  1.8157  1.3746 -0.2032
    4CHL1   C25  287   5.498   0.644   5.241 -0.1453 -0.2151 -0.2133
    4CHL1   H25  288   5.418   0.686   5.306 -0.8550  0.2470 -1.3629
    4CHL1   C26  289   5.451   0.660   5.100  0.0931 -0.2752 -0.1302
    4CHL1  H26A  290   5.342   0.639   5.090 -0.5151  2.3866  0.2153
    4CHL1  H26B  291   5.455   0.768   5.074 -1.5878 -0.2154 -0.2660
    4CHL1  H26C  292   5.508   0.611   5.018 -0.4339  0.7651 -1.1435
    4CHL1   C27  293   5.519   0.495   5.274  0.9862 -0.4699 -0.0255
    4CHL1  H27A  294   5.566   0.484   5.374  1.4304  1.1567 -0.0385
    4CHL1  H27B  295   5.417   0.452   5.287 -0.3154  2.0447 -1.3456
    4CHL1  H27C  296   5.583   0.437   5.204  0.0883  0.7483 -1.9150
    5CHL1    C3  297   4.070   2.264   6.464 -0.7957 -0.2993  0.0787
    5CHL1    H3  298   4.154   2.325   6.425 -0.1422 -1.5615 -0.5499
    5CHL1    O3  299   4.057   2.291   6.605  0.1688  0.5283 -0.6025
    5CHL1   H3'  300   3.972   2.248   6.621 -0.4599  0.6732 -3.1464
    5CHL1    C4  301   3.938   2.299   6.394 -0.7336  0.0782 -0.5199
    5CHL1   H4A  302   3.857   2.236   6.439  1.2680 -1.6246  0.9333
    5CHL1   H4B  303   3.908   2.403   6.417 -0.1897 -0.0364  0.8558
    5CHL1    C5  304   3.945   2.266   6.246 -0.2572 -0.2667 -0.8689
    5CHL1    C6  305   3.925   2.361   6.151  0.5425 -0.0542  0.0183
    5CHL1    H6  306   3.894   2.464   6.175 -0.4411  0.0297 -1.4868
    5CHL1    C7  307   3.920   2.338   5.999 -0.4091  0.8953 -0.5690
    5CHL1   H7A  308   3.829   2.390   5.960 -1.1757  1.0316  1.3352
    5CHL1   H7B  309   4.007   2.390   5.953  0.8909 -2.4643 -2.2709
    5CHL1    C8  310   3.906   2.190   5.967  0.1647 -0.5738  0.6131
    5CHL1    H8  311   3.804   2.156   5.993 -0.6601  2.1106  1.1899
    5CHL1   C14  312   3.925   2.161   5.820  0.1943  0.1243 -0.4085
    5CHL1   H14  313   4.028   2.197   5.800  0.9351  0.5439  3.3438
    5CHL1   C15  314   3.825   2.234   5.727  0.8423  0.1298 -0.5811
    5CHL1  H15A  315   3.725   2.226   5.776  1.0147  0.3413 -0.1891
    5CHL1  H15B  316   3.844   2.344   5.723 -1.1154  0.8064  3.2281
    5CHL1   C16  317   3.827   2.151   5.600 -0.7643 -0.3650 -0.3706
    5CHL1  H16A  318   3.721   2.138   5.571 -1.3837  0.0821  1.5520
    5CHL1  H16B  319   3.871   2.216   5.521 -0.3249  0.8092  0.7981
    5CHL1   C17  320   3.915   2.021   5.626  0.1632 -0.4437  0.6786
    5CHL1   H17  321   4.022   2.031   5.599  0.6752  0.6157  2.8539
    5CHL1   C13  322   3.914   2.014   5.779  0.3823  0.3949 -0.1088
    5CHL1   C18  323   3.778   1.950   5.823  0.4218 -0.0656 -0.1897
    5CHL1  H18A  324   3.772   1.844   5.788  2.7116  0.1569 -1.5095
    5CHL1  H18B  325   3.768   1.938   5.933  2.5365 -1.4245 -0.0665
    5CHL1  H18C  326   3.692   2.005   5.779  0.4983  1.0921  1.0605
    5CHL1   C12  327   4.027   1.936   5.854 -0.5711 -0.5936 -0.6559
    5CHL1  H12A  328   4.021   1.826   5.843  1.7929 -1.0851  1.9603
    5CHL1  H12B  329   4.117   1.979   5.804 -2.3016  0.4534 -3.0439
    5CHL1   C11  330   4.020   1.962   6.012  0.0752  0.5698 -0.5673
    5CHL1  H11A  331   3.933   1.900   6.043 -0.6541  0.4684 -2.6949
    5CHL1  H11B  332   4.112   1.910   6.047 -1.1523 -1.0960  0.3840
    5CHL1    C9  333   4.006   2.110   6.055 -0.7775  0.7132 -0.0914
    5CHL1    H9  334   4.107   2.155   6.045  0.2253 -1.4840 -0.3995
    5CHL1   C10  335   3.990   2.126   6.210  0.4749 -0.3826  0.2331
    5CHL1   C19  336   3.881   2.034   6.262  0.1994 -0.4499 -0.1337
    5CHL1  H19A  337   3.862   2.057   6.369  3.7682 -0.1258  0.5512
    5CHL1  H19B  338   3.796   2.037   6.190 -0.0296  2.4783  0.1375
    5CHL1  H19C  339   3.909   1.927   6.253 -0.7215 -0.6580 -0.6101
    5CHL1    C1  340   4.116   2.095   6.288  0.1030 -0.6034  0.0797
    5CHL1   H1A  341   4.134   1.986   6.277 -1.2785 -0.8465  0.1200
    5CHL1   H1B  342   4.210   2.146   6.256  0.4941  0.4620  2.6456
    5CHL1    C2  343   4.103   2.118   6.443  0.1721 -0.2931 -0.2617
    5CHL1   H2A  344   4.204   2.104   6.489 -0.1919  0.5833  0.8620
    5CHL1   H2B  345   4.037   2.038   6.482  0.6729 -1.1130 -1.0650
    5CHL1   C20  346   3.856   1.907   5.542  0.4217  0.9246  0.6061
    5CHL1   H20  347   3.754   1.880   5.574 -0.4069 -0.0690 -2.4865
    5CHL1   C21  348   3.964   1.787   5.561  0.1831 -0.3523  0.3170
    5CHL1  H21A  349   3.933   1.697   5.503  0.3895 -1.1839  1.4726
    5CHL1  H21B  350   3.973   1.761   5.668  0.0965  0.6160  0.5707
    5CHL1  H21C  351   4.064   1.823   5.529 -0.7874  0.8118 -1.6715
    5CHL1   C22  352   3.864   1.949   5.389 -0.6472 -0.3144  0.2984
    5CHL1  H22A  353   3.823   2.049   5.364  1.1889  1.1395  2.7481
    5CHL1  H22B  354   3.973   1.961   5.375 -0.6645 -0.5452 -0.0790
    5CHL1   C23  355   3.803   1.839   5.294 -0.0250 -0.6265 -0.4427
    5CHL1  H23A  356   3.832   1.734   5.319 -1.1970 -1.0152 -0.6293
    5CHL1  H23B  357   3.692   1.829   5.302 -0.4203  1.8845 -1.8698
    5CHL1   C24  358   3.831   1.873   5.146  0.4850 -0.9805  1.0835
    5CHL1  H24A  359   3.782   1.970   5.121 -1.3400 -2.3287 -0.9017
    5CHL1  H24B  360   3.939   1.891   5.124 -0.3177  0.7032 -2.0476
    5CHL1   C25  361   3.774   1.778   5.042 -1.1424  0.1016 -0.8303
    5CHL1   H25  362   3.666   1.764   5.063 -0.9793  0.5122  0.3368
    5CHL1   C26  363   3.782   1.836   4.905  0.4173 -0.6337 -0.5214
    5CHL1  H26A  364   3.736   1.770   4.829  0.7665  0.6457 -1.9044
    5CHL1  H26B  365   3.723   1.930   4.900  0.2133 -0.7610 -0.4960
    5CHL1  H26C  366   3.886   1.868   4.883  0.7456 -0.8380  0.6543
    5CHL1   C27  367   3.840   1.638   5.063  0.6558 -0.0139 -0.5924
    5CHL1  H27A  368   3.817   1.605   5.167 -0.5085  1.8493 -0.2061
    5CHL1  H27B  369   3.810   1.555   4.996  1.3224 -0.3552 -0.4841
    5CHL1  H27C  370   3.950   1.654   5.067  0.3103  2.6236  0.2537
    6CHL1    C3  371   4.126   1.481   6.450  0.5524 -0.0320  0.1588
    6CHL1    H3  372   4.121   1.370   6.450 -1.3371 -0.0333  2.0375
    6CHL1    O3  373   4.096   1.536   6.581  0.0111  0.2600  0.4753
    6CHL1   H3'  374   4.006   1.506   6.597  0.3833 -1.3148 -0.2064
    6CHL1    C4  375   4.259   1.522   6.392 -0.3304 -0.3800  0.0111
    6CHL1   H4A  376   4.276   1.632   6.394  3.3341 -0.7778 -1.0484
    6CHL1   H4B  377   4.342   1.476   6.450  0.7313  1.2946 -0.0987
    6CHL1    C5  378   4.273   1.471   6.246 -0.1554 -0.2230 -0.7610
    6CHL1    C6  379   4.373   1.388   6.217  0.3290  0.4756 -0.3475
    6CHL1    H6  380   4.441   1.364   6.300  0.3718 -0.2123 -0.5815
    6CHL1    C7  381   4.400   1.339   6.073 -0.6023 -0.2131  0.0414
    6CHL1   H7A  382   4.509   1.349   6.055 -0.5794  0.3889  0.4808
    6CHL1   H7B  383   4.382   1.229   6.074 -0.1919 -0.3461 -2.2589
    6CHL1    C8  384   4.309   1.409   5.965 -0.7138  0.2480 -0.8070
    6CHL1    H8  385   4.337   1.516   5.950 -0.0643  0.5288  1.8364
    6CHL1   C14  386   4.302   1.336   5.832 -0.4405  0.1886  0.2376
    6CHL1   H14  387   4.257   1.236   5.852 -1.0257  0.0372 -1.6266
    6CHL1   C15  388   4.432   1.293   5.762 -0.5392 -0.2132  0.0718
    6CHL1  H15A  389   4.508   1.371   5.784 -0.6995 -0.1900  0.5522
    6CHL1  H15B  390   4.460   1.193   5.802  1.4671  1.7481  4.3194
    6CHL1   C16  391   4.387   1.290   5.614 -0.3732  0.5765  0.0414
    6CHL1  H16A  392   4.448   1.365   5.561 -0.1098  1.6823  1.8251
    6CHL1  H16B  393   4.415   1.190   5.574  0.7345  1.2913 -1.0497
    6CHL1   C17  394   4.234   1.308   5.600  0.2365 -0.0596  0.3908
    6CHL1   H17  395   4.185   1.212   5.627  1.5727 -1.1380 -0.8715
    6CHL1   C13  396   4.212   1.400   5.723 -0.1566  0.2253  0.0230
    6CHL1   C18  397   4.262   1.542   5.690  0.2538  0.3755 -0.4167
    6CHL1  H18A  398   4.198   1.594   5.617  1.3431  0.2414 -1.4902
    6CHL1  H18B  399   4.265   1.605   5.782  1.4879  0.0237 -0.1997
    6CHL1  H18C  400   4.368   1.547   5.657  0.0944 -1.0728 -1.2148
    6CHL1   C12  401   4.068   1.397   5.778 -0.1735  0.5011 -0.2231
    6CHL1  H12A  402   4.001   1.464   5.720 -0.5172 -0.1886 -0.6306
    6CHL1  H12B  403   4.022   1.296   5.781  0.4194  0.2496  0.6091
    6CHL1   C11  404   4.052   1.464   5.914  0.2907  0.0351  0.3355
    6CHL1  H11A  405   4.063   1.573   5.895  0.5092 -0.1928 -0.9160
    6CHL1  H11B  406   3.953   1.437   5.955 -1.6269  2.2813 -2.4109
    6CHL1    C9  407   4.162   1.431   6.018  0.0406  0.6627  1.1649
    6CHL1    H9  408   4.150   1.327   6.054  0.4321  0.3434  0.3965
    6CHL1   C10  409   4.164   1.513   6.148  0.7626 -0.2368  0.4859
    6CHL1   C19  410   4.183   1.663   6.118  0.3498  0.4733  0.6845
    6CHL1  H19A  411   4.257   1.677   6.036 -0.9285 -0.6743 -0.7325
    6CHL1  H19B  412   4.091   1.708   6.076  0.4951  2.4508  2.3465
    6CHL1  H19C  413   4.206   1.722   6.209  0.1315 -0.6808  1.5118
    6CHL1    C1  414   4.021   1.500   6.214  0.0472  0.7694 -0.2833
    6CHL1   H1A  415   3.945   1.553   6.153 -0.1106  0.1851 -0.5996
    6CHL1   H1B  416   3.992   1.393   6.215  0.6011  0.6092 -0.5249
    6CHL1    C2  417   4.011   1.542   6.361  0.0040  0.6620 -0.4420
    6CHL1   H2A  418   3.911   1.507   6.395  0.5308 -0.3057  0.1349
    6CHL1   H2B  419   4.030   1.651   6.377  1.2636  0.3005  0.7146
    6CHL1   C20  420   4.195   1.360   5.469  0.7658 -0.6879  0.1161
    6CHL1   H20  421   4.259   1.448   5.443  0.5289 -0.7869 -0.8632
    6CHL1   C21  422   4.047   1.402   5.455 -0.5225  0.5397  0.0848
    6CHL1  H21A  423   4.012   1.418   5.351 -2.2883  0.6280  0.6640
    6CHL1  H21B  424   4.040   1.505   5.497 -0.6219  0.9142 -0.8304
    6CHL1  H21C  425   3.976   1.328   5.497 -0.7786  0.5962 -0.2491
    6CHL1   C22  426   4.232   1.255   5.358 -0.1883 -0.0557 -0.4882
    6CHL1  H22A  427   4.343   1.263   5.348 -0.0916  2.6923  1.5672
    6CHL1  H22B  428   4.206   1.154   5.395  1.7351 -0.5602 -0.3757
    6CHL1   C23  429   4.159   1.262   5.220 -0.1034 -0.4040  0.4327
    6CHL1  H23A  430   4.060   1.215   5.239 -0.4774 -1.0484 -2.5744
    6CHL1  H23B  431   4.155   1.363   5.175  0.9825 -0.7741 -0.5418
    6CHL1   C24  432   4.222   1.163   5.114 -0.2584  0.2039 -0.5626
    6CHL1  H24A  433   4.304   1.223   5.070  0.6853 -1.3464 -1.0062
    6CHL1  H24B  434   4.270   1.068   5.145  1.3684  0.6612 -1.5761
    6CHL1   C25  435   4.127   1.123   4.998 -0.9316  0.0913  0.1910
    6CHL1   H25  436   4.193   1.076   4.921 -0.8778  0.1842  0.1805
    6CHL1   C26  437   4.023   1.011   5.048  0.4839 -0.4579  0.2596
    6CHL1  H26A  438   4.053   0.967   5.146 -2.5119 -0.2911  1.3432
    6CHL1  H26B  439   3.923   1.059   5.056  1.0627  0.9144 -0.3970
    6CHL1  H26C  440   4.022   0.931   4.971 -2.3649  0.7502 -1.1064
    6CHL1   C27  441   4.046   1.243   4.937 -0.2583 -0.3065 -0.2577
    6CHL1  H27A  442   3.968   1.191   4.878 -0.3570  0.5383 -0.9014
    6CHL1  H27B  443   3.983   1.296   5.012 -0.4482 -0.0558 -0.5922
    6CHL1  H27C  444   4.118   1.292   4.868  2.1561 -4.2145 -0.7599
    7CHL1    C3  445   4.608   6.685   6.781  0.0148 -0.6844 -0.2263
    7CHL1    H3  446   4.547   6.777   6.786  2.4946  1.0092  0.3993
    7CHL1    O3  447   4.604   6.626   6.915 -0.1053 -0.3409  0.9580
    7CHL1   H3'  448   4.652   6.543   6.912 -0.7286 -0.6880 -0.1140
    7CHL1    C4  449   4.571   6.580   6.674  0.0376  0.2008 -0.1500
    7CHL1   H4A  450   4.643   6.497   6.689  1.9502  1.7962 -0.1313
    7CHL1   H4B  451   4.469   6.536   6.687  0.4783 -0.7581  0.1702
    7CHL1    C5  452   4.590   6.631   6.536 -0.0817 -0.9673  0.9094
    7CHL1    C6  453   4.483   6.633   6.448 -0.5112  0.6156  0.0858
    7CHL1    H6  454   4.381   6.604   6.477 -0.2549  1.5801  2.1417
    7CHL1    C7  455   4.500   6.670   6.308  0.0415  0.5588  0.8928
    7CHL1   H7A  456   4.453   6.589   6.249  1.1128 -0.4335  1.3664
    7CHL1   H7B  457   4.464   6.771   6.278  1.7571  0.7360 -0.7722
    7CHL1    C8  458   4.647   6.673   6.260 -0.2133 -0.4141 -0.1586
    7CHL1    H8  459   4.678   6.567   6.271 -1.5374 -0.7524  0.5699
    7CHL1   C14  460   4.662   6.723   6.117  0.5383 -0.3572  0.3771
    7CHL1   H14  461   4.619   6.826   6.117  1.3847  0.0092  0.7321
    7CHL1   C15  462   4.580   6.651   6.003 -0.0921 -0.1263 -0.2075
    7CHL1  H15A  463   4.619   6.547   6.012  2.5291  0.6295 -1.8378
    7CHL1  H15B  464   4.469   6.647   6.016  0.2047  0.4826  3.6930
    7CHL1   C16  465   4.641   6.710   5.877 -0.1102  0.5628  0.0675
    7CHL1  H16A  466   4.686   6.628   5.817 -1.5473 -0.2184  0.0082
    7CHL1  H16B  467   4.568   6.757   5.807  0.9227  0.6879 -0.9804
    7CHL1   C17  468   4.761   6.807   5.919 -0.3199 -0.0142 -0.4326
    7CHL1   H17  469   4.719   6.908   5.941  1.0630  0.3616  0.6381
    7CHL1   C13  470   4.802   6.747   6.058  0.1462  0.1822 -1.0056
    7CHL1   C18  471   4.871   6.605   6.038  0.6717  0.1697 -0.2033
    7CHL1  H18A  472   4.866   6.549   6.134  0.9731  0.2925 -0.1153
    7CHL1  H18B  473   4.812   6.543   5.967  0.0813  1.2847 -0.6930
    7CHL1  H18C  474   4.976   6.612   6.001  0.1422 -2.3886 -2.5079
    7CHL1   C12  475   4.873   6.842   6.164 -0.2857 -0.2962 -0.0912
    7CHL1  H12A  476   4.971   6.886   6.139 -0.6068  0.2818 -0.3316
    7CHL1  H12B  477   4.804   6.928   6.175 -0.8044 -0.9546  2.4137
    7CHL1   C11  478   4.882   6.778   6.304  0.1201  0.4724 -0.2869
    7CHL1  H11A  479   4.946   6.688   6.290 -1.7683 -0.8533 -0.7466
    7CHL1  H11B  480   4.937   6.850   6.369  1.7453  1.2302 -2.3978
    7CHL1    C9  481   4.741   6.749   6.363  0.1928  0.0831  0.1463
    7CHL1    H9  482   4.689   6.845   6.386  0.0330  0.0036  0.1158
    7CHL1   C10  483   4.734   6.679   6.503  0.2322  0.5812  0.0416
    7CHL1   C19  484   4.840   6.563   6.496  0.0466  0.3267  0.1837
    7CHL1  H19A  485   4.834   6.496   6.584  0.5048 -0.7119 -0.5526
    7CHL1  H19B  486   4.834   6.502   6.403  1.2891  2.2839 -1.2589
    7CHL1  H19C  487   4.941   6.601   6.523  0.3543 -0.6442  0.4749
    7CHL1    C1  488   4.769   6.780   6.614 -0.0880 -0.0857 -0.0176
    7CHL1   H1A  489   4.875   6.809   6.602 -0.1668 -0.3280 -1.4297
    7CHL1   H1B  490   4.720   6.879   6.605 -0.3565 -0.3129 -1.1649
    7CHL1    C2  491   4.751   6.730   6.757 -0.1713 -0.7433 -0.1031
    7CHL1   H2A  492   4.794   6.805   6.827 -2.8361 -1.1253  2.1271
    7CHL1   H2B  493   4.810   6.636   6.767  0.2062 -0.3120  2.5036
    7CHL1   C20  494   4.870   6.823   5.816  0.3826 -0.1210  0.2045
    7CHL1   H20  495   4.911   6.721   5.797  0.2164  0.0025 -0.8809
    7CHL1   C21  496   4.990   6.904   5.866  0.5516 -0.0317  0.3620
    7CHL1  H21A  497   5.066   6.927   5.788  1.1238 -3.1189 -0.1264
    7CHL1  H21B  498   5.041   6.845   5.946 -1.3948 -2.4682 -0.0781
    7CHL1  H21C  499   4.961   7.003   5.906 -0.3093 -0.1506  0.0434
    7CHL1   C22  500   4.816   6.880   5.678  0.1642 -0.1984  0.0487
    7CHL1  H22A  501   4.726   6.821   5.650 -1.2194  1.1121  1.5655
    7CHL1  H22B  502   4.787   6.985   5.701 -2.4093 -0.2257 -2.5385
    7CHL1   C23  503   4.911   6.879   5.561  0.1291 -0.0143  0.2680
    7CHL1  H23A  504   4.960   6.979   5.556  0.0424  0.0870  1.1845
    7CHL1  H23B  505   4.984   6.803   5.595 -1.6072 -2.9938 -2.1857
    7CHL1   C24  506   4.832   6.847   5.433  0.4493  0.2059  0.7725
    7CHL1  H24A  507   4.764   6.761   5.453  0.3465  0.4464  1.4959
    7CHL1  H24B  508   4.775   6.935   5.398  0.6300 -0.7477 -2.1439
    7CHL1   C25  509   4.931   6.804   5.318  0.6349 -0.8280 -0.8010
    7CHL1   H25  510   4.991   6.720   5.359 -1.9550 -0.5635  4.2549
    7CHL1   C26  511   4.840   6.766   5.205  0.3358 -0.1368 -0.7869
    7CHL1  H26A  512   4.769   6.689   5.241  0.4886 -0.2209 -0.6654
    7CHL1  H26B  513   4.794   6.865   5.185 -0.9399 -1.0110 -2.4139
    7CHL1  H26C  514   4.889   6.717   5.118 -0.6803 -0.8184 -0.9986
    7CHL1   C27  515   5.027   6.921   5.282  0.8127  0.3436 -0.8226
    7CHL1  H27A  516   5.095   6.935   5.368 -0.5846  2.4476  0.0003
    7CHL1  H27B  517   5.084   6.899   5.189 -1.6096  0.1618 -2.3525
    7CHL1  H27C  518   4.975   7.014   5.249  0.5745  0.0084 -1.4202
    8CHL1    C3  519   3.560   6.049   6.414  0.2729  0.4152  0.3023
    8CHL1    H3  520   3.472   5.990   6.382  1.1283 -0.4105 -0.5802
    8CHL1    O3  521   3.531   6.109   6.536  0.0094  0.0509 -0.3339
    8CHL1   H3'  522   3.612   6.160   6.546 -0.0131  0.7616 -2.9412
    8CHL1    C4  523   3.704   5.974   6.413  0.4670  0.1241 -0.2913
    8CHL1   H4A  524   3.774   6.050   6.452  0.8472  0.3430 -1.3928
    8CHL1   H4B  525   3.689   5.891   6.486  0.1953  1.5151  1.3123
    8CHL1    C5  526   3.743   5.928   6.276  0.7165 -0.7192  0.3812
    8CHL1    C6  527   3.776   5.802   6.248 -0.9521 -0.9639  1.0253
    8CHL1    H6  528   3.792   5.732   6.332  1.1328 -1.9186 -0.0974
    8CHL1    C7  529   3.811   5.743   6.118 -0.1349  0.3054 -0.9918
    8CHL1   H7A  530   3.908   5.690   6.125  0.1310  0.9808  0.8958
    8CHL1   H7B  531   3.731   5.667   6.103 -0.7145 -0.0155  2.7104
    8CHL1    C8  532   3.823   5.854   6.010  0.3497 -0.1282 -0.0085
    8CHL1    H8  533   3.928   5.888   6.001 -0.3321  1.6017 -3.1622
    8CHL1   C14  534   3.813   5.783   5.878  0.7569  0.0857 -0.5143
    8CHL1   H14  535   3.712   5.738   5.884  0.3425  0.8407 -1.5620
    8CHL1   C15  536   3.917   5.675   5.844 -0.0923 -0.1985 -0.2810
    8CHL1  H15A  537   4.017   5.716   5.868  0.5108 -1.4613 -0.5273
    8CHL1  H15B  538   3.899   5.587   5.910  0.2497  1.4450  2.1206
    8CHL1   C16  539   3.894   5.647   5.697 -0.2170  0.3035  0.0171
    8CHL1  H16A  540   3.986   5.643   5.635 -0.1619 -0.0791  0.1177
    8CHL1  H16B  541   3.848   5.547   5.684 -1.3249  0.6932  0.7965
    8CHL1   C17  542   3.803   5.762   5.643 -0.1442 -0.0044  0.1889
    8CHL1   H17  543   3.698   5.728   5.637 -0.1098 -0.0530 -0.1526
    8CHL1   C13  544   3.807   5.869   5.754  0.0829 -0.0414  0.3707
    8CHL1   C18  545   3.941   5.949   5.729 -0.8105  0.3584  0.5356
    8CHL1  H18A  546   3.971   6.006   5.819 -0.9234 -0.3586  1.0317
    8CHL1  H18B  547   4.018   5.874   5.702 -0.3476  0.4629  1.5229
    8CHL1  H18C  548   3.930   6.021   5.645  0.7088 -1.6988 -1.5440
    8CHL1   C12  549   3.692   5.960   5.765  0.0961  0.0638  0.0913
    8CHL1  H12A  550   3.685   6.038   5.686  1.8671  1.6362  1.3908
    8CHL1  H12B  551   3.599   5.899   5.774  1.4525 -2.5548 -2.3277
    8CHL1   C11  552   3.700   6.049   5.892 -0.0787  0.8275 -0.0264
    8CHL1  H11A  553   3.782   6.123   5.886  0.8395 -0.1676  0.0537
    8CHL1  H11B  554   3.602   6.102   5.897  0.1757  1.3328 -0.3872
    8CHL1    C9  555   3.717   5.963   6.023 -0.2122 -0.3245  0.3426
    8CHL1    H9  556   3.623   5.907   6.037 -1.7517  1.8381 -0.8366
    8CHL1   C10  557   3.730   6.034   6.161  0.0761 -0.0035  0.2749
    8CHL1   C19  558   3.854   6.131   6.152 -0.3841  0.0206  0.0716
    8CHL1  H19A  559   3.861   6.195   6.243 -0.6730 -0.5635  0.5125
    8CHL1  H19B  560   3.957   6.096   6.135 -0.1051  0.1987  1.2633
    8CHL1  H19C  561   3.839   6.212   6.077  0.7609  0.8731  0.7295
    8CHL1    C1  562   3.600   6.125   6.171  0.4291  0.6884 -0.6392
    8CHL1   H1A  563   3.622   6.218   6.116 -0.5974  0.3012 -1.7612
    8CHL1   H1B  564   3.516   6.067   6.125  0.5929  1.3654 -1.8159
    8CHL1    C2  565   3.568   6.169   6.313  0.4765 -0.3380 -0.3653
    8CHL1   H2A  566   3.477   6.233   6.308  1.2531  1.1717  2.6657
    8CHL1   H2B  567   3.651   6.240   6.332 -0.1367  0.9194 -2.0880
    8CHL1   C20  568   3.834   5.799   5.490 -0.2030  0.3243 -0.2946
    8CHL1   H20  569   3.939   5.835   5.490  0.5289 -1.6932  0.5051
    8CHL1   C21  570   3.744   5.912   5.441  0.5434 -0.2265  1.0233
    8CHL1  H21A  571   3.638   5.885   5.462  0.5113  1.8855  4.1602
    8CHL1  H21B  572   3.753   5.936   5.333  0.2417  1.9050  1.4203
    8CHL1  H21C  573   3.756   6.011   5.489  0.7642  0.3224 -0.1350
    8CHL1   C22  574   3.826   5.682   5.393  0.4762  0.5784  0.1649
    8CHL1  H22A  575   3.874   5.595   5.441  1.5108  0.1063 -1.6228
    8CHL1  H22B  576   3.721   5.653   5.372  1.5088 -2.5290 -1.3150
    8CHL1   C23  577   3.907   5.713   5.270  0.2850  0.5092  0.3783
    8CHL1  H23A  578   3.885   5.814   5.229 -0.7455  2.0881  4.2947
    8CHL1  H23B  579   4.010   5.734   5.307  1.0493 -0.8302 -0.9032
    8CHL1   C24  580   3.904   5.590   5.166 -0.2726  0.0083 -0.9272
    8CHL1  H24A  581   3.952   5.502   5.213 -1.1033 -0.0694 -0.1973
    8CHL1  H24B  582   3.799   5.557   5.156 -0.4218  0.7099 -1.7669
    8CHL1   C25  583   3.952   5.619   5.023  0.1651 -0.0813 -0.0468
    8CHL1   H25  584   3.893   5.710   5.000  0.8255  1.1940  2.7982
    8CHL1   C26  585   4.099   5.660   5.009  0.0178  0.2871  0.0985
    8CHL1  H26A  586   4.111   5.672   4.899 -0.3134 -0.0185  0.0249
    8CHL1  H26B  587   4.117   5.764   5.045  0.7581 -0.7892  3.1157
    8CHL1  H26C  588   4.172   5.583   5.043 -1.3328 -1.5549 -0.9854
    8CHL1   C27  589   3.926   5.496   4.943  0.1751  0.1440  0.5307
    8CHL1  H27A  590   3.934   5.513   4.833 -2.3767 -0.3686  0.2031
    8CHL1  H27B  591   3.993   5.411   4.970  1.9330  1.0305 -0.8491
    8CHL1  H27C  592   3.824   5.457   4.962  0.9458 -2.0517  0.4671
    9CHL1    C3  593   0.440   0.499   6.428  0.2605  0.4020  0.5884
    9CHL1    H3  594   0.547   0.522   6.407  0.3932 -1.8857 -1.6620
    9CHL1    O3  595   0.433   0.432   6.551 -0.6316  0.1543  0.1821
    9CHL1   H3'  596   0.341   0.420   6.575 -0.9274  0.0926 -0.9089
    9CHL1    C4  597   0.351   0.627   6.429  0.2550  0.6441  0.9884
    9CHL1   H4A  598   0.251   0.599   6.470 -0.8384  1.9375 -0.6404
    9CHL1   H4B  599   0.393   0.691   6.510 -0.7213 -1.2083  3.0663
    9CHL1    C5  600   0.337   0.678   6.290 -0.2510 -0.8597  0.3667
    9CHL1    C6  601   0.387   0.804   6.264  0.6257  0.8593  0.4102
    9CHL1    H6  602   0.440   0.868   6.336 -0.5509  1.0733  1.1113
    9CHL1    C7  603   0.346   0.881   6.139 -0.4552 -0.6034 -0.3858
    9CHL1   H7A  604   0.296   0.976   6.167  0.4163 -0.2167 -0.1011
    9CHL1   H7B  605   0.439   0.905   6.083 -0.3621 -1.7673 -0.7549
    9CHL1    C8  606   0.257   0.801   6.041  0.3789  0.3307  0.2198
    9CHL1    H8  607   0.156   0.807   6.087 -0.1096 -1.7975 -0.4887
    9CHL1   C14  608   0.267   0.860   5.898  0.5910 -0.3834 -0.2381
    9CHL1   H14  609   0.374   0.843   5.875  0.4535  0.7984 -1.9289
    9CHL1   C15  610   0.246   1.012   5.894 -0.2566 -0.1155  0.3203
    9CHL1  H15A  611   0.167   1.042   5.966  0.1664  0.9659  0.3554
    9CHL1  H15B  612   0.337   1.073   5.913  0.0204  0.1889 -1.7991
    9CHL1   C16  613   0.209   1.029   5.742 -0.3829  0.6586  0.4374
    9CHL1  H16A  614   0.120   1.094   5.727 -1.1355 -0.6455 -1.0070
    9CHL1  H16B  615   0.287   1.078   5.680  1.7052 -1.0548  1.5654
    9CHL1   C17  616   0.189   0.889   5.673  0.0313 -0.8393  0.4823
    9CHL1   H17  617   0.286   0.864   5.625 -0.9146 -4.1330  0.0346
    9CHL1   C13  618   0.171   0.802   5.801  0.0886  0.1219  0.1898
    9CHL1   C18  619   0.027   0.797   5.868  0.5843  0.0869 -0.1431
    9CHL1  H18A  620  -0.062   0.784   5.802 -1.1158 -0.8214  2.2113
    9CHL1  H18B  621   0.022   0.714   5.941 -1.1146 -1.7135 -2.1561
    9CHL1  H18C  622   0.010   0.897   5.914  0.2555  1.3678 -2.8279
    9CHL1   C12  623   0.226   0.658   5.780  0.2788  0.5255 -0.6403
    9CHL1  H12A  624   0.168   0.601   5.704  0.4874  0.1052 -0.4840
    9CHL1  H12B  625   0.332   0.671   5.750  0.6204  1.0853  0.7201
    9CHL1   C11  626   0.225   0.580   5.917 -0.5224  0.2652  0.5246
    9CHL1  H11A  627   0.121   0.542   5.927  0.3795 -2.3711  0.6862
    9CHL1  H11B  628   0.273   0.481   5.905 -1.0534  0.1667 -1.0417
    9CHL1    C9  629   0.292   0.651   6.031 -1.0368 -0.5473  0.2121
    9CHL1    H9  630   0.401   0.643   6.011 -1.2886 -1.0998 -1.0097
    9CHL1   C10  631   0.272   0.594   6.175  0.1940  0.3669  0.5353
    9CHL1   C19  632   0.128   0.541   6.188  0.1168 -0.4298  0.6740
    9CHL1  H19A  633   0.108   0.451   6.127 -0.8659  0.2385 -0.0070
    9CHL1  H19B  634   0.116   0.509   6.294  0.5775 -1.4094  0.4400
    9CHL1  H19C  635   0.047   0.610   6.159 -1.4102 -2.5802 -0.4238
    9CHL1    C1  636   0.362   0.475   6.183 -0.7398 -0.1421  0.7889
    9CHL1   H1A  637   0.326   0.399   6.111 -0.7690  0.3408  0.2902
    9CHL1   H1B  638   0.465   0.507   6.156 -0.4942 -1.8009 -0.4289
    9CHL1    C2  639   0.383   0.401   6.322 -0.6698 -0.0140 -0.5406
    9CHL1   H2A  640   0.456   0.319   6.313  0.1659  0.6745 -0.1774
    9CHL1   H2B  641   0.284   0.371   6.362 -0.6537  0.2697 -0.2811
    9CHL1   C20  642   0.077   0.887   5.574 -0.0453 -0.3810  0.1692
    9CHL1   H20  643  -0.018   0.915   5.625  1.4209  2.0462  1.7851
    9CHL1   C21  644   0.066   0.751   5.507  0.0371  0.3146 -0.4651
    9CHL1  H21A  645   0.031   0.673   5.578  0.5239  1.3032  0.8879
    9CHL1  H21B  646   0.166   0.720   5.472 -0.8158 -2.6367 -0.5344
    9CHL1  H21C  647   0.002   0.755   5.416 -0.0738 -2.0181 -0.5595
    9CHL1   C22  648   0.105   0.990   5.458  0.1564 -0.6692 -0.6648
    9CHL1  H22A  649   0.156   1.078   5.502 -0.1178 -1.3431  1.0514
    9CHL1  H22B  650   0.165   0.935   5.382 -1.6312  1.1308 -3.5912
    9CHL1   C23  651  -0.029   1.035   5.398 -0.1348 -0.3129  0.0501
    9CHL1  H23A  652  -0.081   0.944   5.359  0.9334  0.4484 -3.5407
    9CHL1  H23B  653  -0.080   1.088   5.481  1.5459 -0.4000  1.2089
    9CHL1   C24  654  -0.010   1.135   5.285  0.1819  0.0752  0.5668
    9CHL1  H24A  655   0.008   1.237   5.324 -1.4781  0.0333  1.5034
    9CHL1  H24B  656   0.069   1.089   5.221  0.3696  0.1949  0.7143
    9CHL1   C25  657  -0.132   1.151   5.189  0.3262  0.7143 -0.4379
    9CHL1   H25  658  -0.180   1.053   5.168 -2.1071  1.2319  2.1498
    9CHL1   C26  659  -0.231   1.246   5.252 -0.4668 -0.1290 -0.0013
    9CHL1  H26A  660  -0.331   1.240   5.204 -0.8778  1.6120  0.5698
    9CHL1  H26B  661  -0.246   1.220   5.359  0.6687 -1.3341 -0.1003
    9CHL1  H26C  662  -0.180   1.344   5.263  2.3033 -1.5119  0.4159
    9CHL1   C27  663  -0.077   1.215   5.056 -0.1026  0.1878 -0.3945
    9CHL1  H27A  664   0.018   1.168   5.026  0.1145  0.3384  0.0496
    9CHL1  H27B  665  -0.155   1.198   4.979 -0.5897 -3.5288  0.7235
    9CHL1  H27C  666  -0.064   1.326   5.060 -0.2809  0.1821  0.4089
   10CHL1    C3  667   0.320   2.212   6.977 -0.2656 -0.1121 -0.0054
   10CHL1    H3  668   0.419   2.264   6.980  0.2150 -0.7961 -2.0995
   10CHL1    O3  669   0.285   2.144   7.094 -0.5504  0.2097 -0.1051
   10CHL1   H3'  670   0.206   2.093   7.075 -0.6806  0.2944  0.2026
   10CHL1    C4  671   0.205   2.310   6.941 -0.4646 -0.9656 -0.1823
   10CHL1   H4A  672   0.108   2.256   6.951 -0.9521 -0.0627  0.0136
   10CHL1   H4B  673   0.211   2.391   7.017 -1.3869 -1.3334  0.2896
   10CHL1    C5  674   0.224   2.381   6.807  0.7732 -0.2454 -0.5114
   10CHL1    C6  675   0.227   2.512   6.792 -0.2498 -0.6067  0.5676
   10CHL1    H6  676   0.216   2.577   6.881 -0.1049  1.8791 -1.1307
   10CHL1    C7  677   0.225   2.584   6.661  1.1856  0.0358  0.5375
   10CHL1   H7A  678   0.143   2.659   6.653  0.2753 -1.0900 -2.8739
   10CHL1   H7B  679   0.321   2.639   6.654 -0.0280  2.0597 -1.5213
   10CHL1    C8  680   0.217   2.495   6.535 -0.0925  0.1952 -0.1730
   10CHL1    H8  681   0.112   2.475   6.504 -0.2311  1.1642 -0.3748
   10CHL1   C14  682   0.278   2.560   6.417 -0.6215  0.5401  0.1621
   10CHL1   H14  683   0.384   2.571   6.448 -1.1455 -0.9883  2.7440
   10CHL1   C15  684   0.230   2.704   6.379 -0.3697  0.4538  0.3308
   10CHL1  H15A  685   0.128   2.723   6.418 -1.2645  0.5123 -1.9080
   10CHL1  H15B  686   0.293   2.780   6.429  1.6529 -0.2412 -1.0164
   10CHL1   C16  687   0.247   2.714   6.226  0.4478 -0.2600  0.0861
   10CHL1  H16A  688   0.146   2.716   6.180  1.0886 -0.1359 -1.3518
   10CHL1  H16B  689   0.295   2.809   6.193 -3.6756  2.4997  1.2684
   10CHL1   C17  690   0.320   2.576   6.185 -0.1951  0.3783 -0.2133
   10CHL1   H17  691   0.428   2.595   6.199 -0.5094  1.8612  0.3397
   10CHL1   C13  692   0.276   2.472   6.287 -0.3336 -0.3891  0.5201
   10CHL1   C18  693   0.127   2.431   6.255 -0.4408  0.4768 -0.2579
   10CHL1  H18A  694   0.070   2.525   6.237 -1.0666 -0.2842 -2.5482
   10CHL1  H18B  695   0.116   2.363   6.168 -0.5063 -0.6242  0.5873
   10CHL1  H18C  696   0.089   2.358   6.330  1.2800 -0.6973 -0.4671
   10CHL1   C12  697   0.367   2.350   6.311 -0.8147  0.3370 -0.0289
   10CHL1  H12A  698   0.379   2.287   6.221  0.9555 -0.6733  0.8538
   10CHL1  H12B  699   0.471   2.386   6.328 -1.0271  0.2261  1.7775
   10CHL1   C11  700   0.319   2.276   6.439  0.1086  0.3498  0.3339
   10CHL1  H11A  701   0.229   2.221   6.402  0.9094  0.4372 -1.9170
   10CHL1  H11B  702   0.402   2.205   6.457  1.3014  1.0719 -1.8814
   10CHL1    C9  703   0.287   2.364   6.564 -0.1136  0.4698 -0.0319
   10CHL1    H9  704   0.392   2.392   6.586 -0.5824  2.5364 -0.1726
   10CHL1   C10  705   0.236   2.284   6.689  0.2437  0.4082 -0.3113
   10CHL1   C19  706   0.097   2.213   6.666 -0.3072 -0.9563 -0.8134
   10CHL1  H19A  707   0.097   2.151   6.573 -3.0454 -2.1816 -0.0956
   10CHL1  H19B  708   0.079   2.141   6.749  0.4904  0.1460  0.3344
   10CHL1  H19C  709   0.014   2.286   6.652  1.1786  1.6921  2.6899
   10CHL1    C1  710   0.354   2.188   6.724 -0.3109  0.2895  0.1168
   10CHL1   H1A  711   0.375   2.122   6.637 -2.1150  0.5615 -0.5629
   10CHL1   H1B  712   0.445   2.250   6.739 -0.8506  0.6123  2.5125
   10CHL1    C2  713   0.327   2.114   6.857  0.2656  0.9005 -0.0002
   10CHL1   H2A  714   0.397   2.032   6.885 -1.8200 -1.1472 -0.4876
   10CHL1   H2B  715   0.226   2.067   6.852  0.4389  0.4695  0.4056
   10CHL1   C20  716   0.302   2.551   6.031 -0.5167  0.9239  0.2844
   10CHL1   H20  717   0.195   2.531   6.009 -0.0498 -0.8143 -0.5407
   10CHL1   C21  718   0.384   2.435   5.973 -0.1685  0.3717 -0.3267
   10CHL1  H21A  719   0.494   2.445   5.982 -0.0412 -1.0468 -0.0887
   10CHL1  H21B  720   0.347   2.419   5.869 -0.2765 -1.1034 -0.0825
   10CHL1  H21C  721   0.353   2.334   6.008 -0.7712  0.0575 -1.6928
   10CHL1   C22  722   0.342   2.678   5.945 -0.5688 -0.4200 -0.2218
   10CHL1  H22A  723   0.388   2.744   6.021  0.9560 -1.5793 -0.1071
   10CHL1  H22B  724   0.416   2.650   5.868  0.3952 -0.8952  0.8516
   10CHL1   C23  725   0.236   2.753   5.868  1.0050  0.6437 -0.6375
   10CHL1  H23A  726   0.149   2.766   5.936 -0.8805  2.8726 -3.2337
   10CHL1  H23B  727   0.276   2.851   5.834  2.0731 -0.1047 -1.6319
   10CHL1   C24  728   0.191   2.667   5.742 -0.2624  0.2106  0.2832
   10CHL1  H24A  729   0.270   2.657   5.665 -1.3189  1.6740 -1.0580
   10CHL1  H24B  730   0.159   2.570   5.785  1.3865 -0.0693  0.9583
   10CHL1   C25  731   0.077   2.732   5.658  0.4329 -0.4595 -0.5395
   10CHL1   H25  732  -0.011   2.745   5.725 -1.1613 -2.7455 -2.0399
   10CHL1   C26  733   0.122   2.872   5.609  0.2557  0.1111  0.3356
   10CHL1  H26A  734   0.042   2.918   5.548  1.1047 -1.6927 -2.3228
   10CHL1  H26B  735   0.147   2.950   5.684 -0.0343  2.0086 -1.4358
   10CHL1  H26C  736   0.211   2.872   5.542 -1.1061  1.5857 -1.5737
   10CHL1   C27  737   0.043   2.633   5.543 -0.2909  0.3715 -0.6266
   10CHL1  H27A  738   0.010   2.538   5.591 -0.6640  0.1812 -1.2461
   10CHL1  H27B  739  -0.040   2.671   5.481  0.4571  0.1345 -1.8099
   10CHL1  H27C  740   0.127   2.619   5.471 -0.4295 -1.3648 -0.5111
   11CHL1    C3  741   2.867   0.005   6.197 -0.1888  0.1277 -0.0153
   11CHL1    H3  742   2.871   0.115   6.183 -1.6240  0.2769  0.5852
   11CHL1    O3  743   2.801  -0.016   6.315 -0.0509  0.2661  0.0503
   11CHL1   H3'  744   2.711   0.016   6.304  0.3780  1.1029 -1.3125
   11CHL1    C4  745   2.787  -0.061   6.080  0.0091 -0.0615 -0.1972
   11CHL1   H4A  746   2.770  -0.169   6.103 -3.4960  0.7555  1.8275
   11CHL1   H4B  747   2.685  -0.019   6.089 -0.2460 -0.9986  1.8233
   11CHL1    C5  748   2.859  -0.053   5.945 -0.0608 -0.6146  0.7211
   11CHL1    C6  749   2.808   0.026   5.840  0.3448  0.8678 -0.5421
   11CHL1    H6  750   2.714   0.074   5.870 -0.0041  0.4335 -0.9308
   11CHL1    C7  751   2.877   0.055   5.708 -0.7341  0.2180 -0.5325
   11CHL1   H7A  752   2.806   0.023   5.629 -0.7111 -0.3420 -0.3309
   11CHL1   H7B  753   2.905   0.162   5.697 -1.3274  0.5058  0.6100
   11CHL1    C8  754   3.002  -0.038   5.684  0.3309  0.7542 -0.3559
   11CHL1    H8  755   2.967  -0.139   5.656 -0.5938  0.6820  0.9792
   11CHL1   C14  756   3.080   0.021   5.571 -0.3683  0.6892  0.0819
   11CHL1   H14  757   3.089   0.129   5.597  0.8828  0.6331 -0.0582
   11CHL1   C15  758   3.005   0.028   5.431 -0.0661 -0.0765 -0.3999
   11CHL1  H15A  759   2.967  -0.074   5.409  4.0085 -1.9222  0.2414
   11CHL1  H15B  760   2.927   0.107   5.428  0.1909  0.3444  2.1322
   11CHL1   C16  761   3.133   0.044   5.342  0.0436  0.3363 -0.1202
   11CHL1  H16A  762   3.142  -0.039   5.269  1.3665  0.6392 -0.3207
   11CHL1  H16B  763   3.124   0.143   5.291  1.3504 -0.5894 -2.3010
   11CHL1   C17  764   3.260   0.048   5.427 -0.0219 -0.2534 -0.5111
   11CHL1   H17  765   3.277   0.151   5.466  0.8246 -0.7873  0.5942
   11CHL1   C13  766   3.223  -0.039   5.547  0.3215  0.2910  1.0834
   11CHL1   C18  767   3.213  -0.191   5.504  0.3226 -0.6686 -0.1870
   11CHL1  H18A  768   3.147  -0.198   5.415  0.0586 -0.3088 -0.0241
   11CHL1  H18B  769   3.315  -0.231   5.486 -0.1311 -1.0983 -1.9966
   11CHL1  H18C  770   3.167  -0.254   5.583  1.7738  0.2062  1.4305
   11CHL1   C12  771   3.301  -0.035   5.680  0.2464  0.2707 -0.1184
   11CHL1  H12A  772   3.398  -0.084   5.660 -0.3961 -1.0637 -0.0981
   11CHL1  H12B  773   3.302   0.074   5.701 -0.3625  0.4205 -0.8190
   11CHL1   C11  774   3.227  -0.109   5.792 -0.3708 -0.3513 -0.3969
   11CHL1  H11A  775   3.211  -0.215   5.762 -1.0926 -0.2678 -0.3236
   11CHL1  H11B  776   3.281  -0.112   5.889 -0.3938 -0.8712 -0.3950
   11CHL1    C9  777   3.086  -0.039   5.813 -0.0024  0.0325 -0.2450
   11CHL1    H9  778   3.109   0.068   5.836  0.5237 -0.6495  2.9699
   11CHL1   C10  779   2.999  -0.102   5.935  0.4016  0.6040  0.0876
   11CHL1   C19  780   2.989  -0.260   5.930 -0.1194 -0.3771 -0.6076
   11CHL1  H19A  781   2.916  -0.305   5.859 -0.7964 -0.7480  0.3087
   11CHL1  H19B  782   3.086  -0.313   5.924  0.0797  0.0196 -0.9921
   11CHL1  H19C  783   2.956  -0.294   6.030 -0.4596 -1.1894 -0.9913
   11CHL1    C1  784   3.079  -0.052   6.063  0.8270  0.1977  0.4025
   11CHL1   H1A  785   3.183  -0.091   6.066  0.9915  0.5156 -0.7304
   11CHL1   H1B  786   3.100   0.056   6.045 -0.3305  1.1196  3.8156
   11CHL1    C2  787   3.013  -0.055   6.199  0.9452 -0.6748  0.0135
   11CHL1   H2A  788   3.069  -0.001   6.279 -1.3084  0.3054  1.0220
   11CHL1   H2B  789   3.009  -0.163   6.224 -0.6904 -0.2759  1.6843
   11CHL1   C20  790   3.379   0.005   5.344 -1.0419 -0.0503 -0.1157
   11CHL1   H20  791   3.352  -0.090   5.295  3.3859 -3.2580  2.8661
   11CHL1   C21  792   3.504  -0.029   5.428 -0.0077  0.1527  0.2533
   11CHL1  H21A  793   3.479  -0.111   5.499 -1.1948 -0.3972 -0.7600
   11CHL1  H21B  794   3.539   0.059   5.486  0.2315  1.3367 -1.5969
   11CHL1  H21C  795   3.588  -0.071   5.368 -0.0100 -0.5323  0.7203
   11CHL1   C22  796   3.399   0.111   5.235  0.0165 -0.9634  0.0123
   11CHL1  H22A  797   3.317   0.186   5.236 -0.0029 -0.9874  0.2423
   11CHL1  H22B  798   3.492   0.165   5.262 -0.9276  0.8919 -0.2311
   11CHL1   C23  799   3.412   0.063   5.090  0.3221  0.2741  0.1120
   11CHL1  H23A  800   3.469  -0.031   5.097 -0.6361 -0.3679 -0.5070
   11CHL1  H23B  801   3.309   0.042   5.056 -0.4491  2.3982  0.8962
   11CHL1   C24  802   3.473   0.164   4.985  0.1187  0.4499 -0.2171
   11CHL1  H24A  803   3.575   0.184   5.022  0.7105 -0.3177 -1.3593
   11CHL1  H24B  804   3.497   0.105   4.894  0.9164 -1.1985  1.0072
   11CHL1   C25  805   3.397   0.296   4.957  0.6710  0.4382  0.4054
   11CHL1   H25  806   3.377   0.352   5.051  1.8924  3.4052 -0.9944
   11CHL1   C26  807   3.483   0.400   4.889 -0.2494 -0.7039 -0.0919
   11CHL1  H26A  808   3.508   0.363   4.788  0.6825  1.2967 -0.6544
   11CHL1  H26B  809   3.428   0.495   4.868  3.5625  1.4371 -1.3499
   11CHL1  H26C  810   3.571   0.432   4.948 -0.7242  1.1102 -0.3011
   11CHL1   C27  811   3.265   0.283   4.875 -0.1266 -0.6006 -0.7536
   11CHL1  H27A  812   3.205   0.376   4.872  0.7110 -0.0749 -2.7161
   11CHL1  H27B  813   3.286   0.255   4.770  0.6022 -1.1619 -0.4625
   11CHL1  H27C  814   3.203   0.197   4.911  0.0572 -0.1244  0.7858
   12CHL1    C3  815   5.313   5.692   6.497 -0.0012  0.3972  0.2868
   12CHL1    H3  816   5.337   5.585   6.483  0.4377  0.4533  0.5737
   12CHL1    O3  817   5.270   5.723   6.630  0.4015 -0.2806  0.3036
   12CHL1   H3'  818   5.342   5.740   6.690 -0.5991 -1.0003  1.7580
   12CHL1    C4  819   5.433   5.778   6.460  0.1511 -0.1652 -0.4724
   12CHL1   H4A  820   5.403   5.884   6.476 -0.3473 -0.3639 -0.0300
   12CHL1   H4B  821   5.512   5.768   6.537  0.3015  1.6622 -0.3266
   12CHL1    C5  822   5.469   5.748   6.318  0.3106 -0.2564  0.5810
   12CHL1    C6  823   5.583   5.693   6.289  0.0672 -0.4387 -0.5009
   12CHL1    H6  824   5.659   5.676   6.366  1.0752  0.8165 -1.1727
   12CHL1    C7  825   5.636   5.670   6.156 -0.3482  0.3045  0.2324
   12CHL1   H7A  826   5.740   5.709   6.147 -0.0475 -0.4450  0.3656
   12CHL1   H7B  827   5.622   5.564   6.124  0.3806 -0.5303  2.4724
   12CHL1    C8  828   5.548   5.748   6.048 -0.1988  0.4781  0.2456
   12CHL1    H8  829   5.571   5.857   6.042 -0.3213  0.4415 -3.6751
   12CHL1   C14  830   5.590   5.699   5.905  0.4514  0.2242  0.6350
   12CHL1   H14  831   5.583   5.588   5.906  2.0229  0.0985  1.8976
   12CHL1   C15  832   5.740   5.720   5.860  0.5783 -0.5406 -0.0881
   12CHL1  H15A  833   5.777   5.825   5.855 -1.4250  0.1681 -0.9481
   12CHL1  H15B  834   5.807   5.664   5.929  1.0753 -0.0703 -0.1801
   12CHL1   C16  835   5.731   5.662   5.722 -0.4069 -0.0200 -0.3893
   12CHL1  H16A  836   5.812   5.692   5.652  2.9236 -0.8888  2.7797
   12CHL1  H16B  837   5.745   5.552   5.735  2.0460  0.4759  1.9252
   12CHL1   C17  838   5.584   5.689   5.675  0.3280  0.5913 -0.4440
   12CHL1   H17  839   5.545   5.585   5.678  2.0322 -0.0984 -0.9450
   12CHL1   C13  840   5.507   5.761   5.792  0.3018 -0.4808 -0.1999
   12CHL1   C18  841   5.525   5.916   5.783 -0.5362  0.6272  0.3068
   12CHL1  H18A  842   5.630   5.951   5.797  0.8942 -2.7025 -0.8632
   12CHL1  H18B  843   5.485   5.950   5.685 -3.0905  0.9133  1.3681
   12CHL1  H18C  844   5.472   5.984   5.852 -0.0040 -0.2772  1.6468
   12CHL1   C12  845   5.360   5.726   5.816 -0.7341  0.1545 -0.0682
   12CHL1  H12A  846   5.291   5.775   5.744  0.5127  2.1125 -0.0194
   12CHL1  H12B  847   5.335   5.619   5.810  0.3176 -0.1623  0.7595
   12CHL1   C11  848   5.308   5.766   5.954  0.1263 -0.4024 -0.2139
   12CHL1  H11A  849   5.312   5.877   5.947  1.5575 -0.5069 -1.7743
   12CHL1  H11B  850   5.203   5.734   5.969 -0.0783  0.5175  0.4140
   12CHL1    C9  851   5.401   5.724   6.075  0.6303  0.0001 -0.5974
   12CHL1    H9  852   5.383   5.614   6.084 -1.7173  0.4914  2.9935
   12CHL1   C10  853   5.363   5.783   6.214 -0.1421  0.4669 -0.3893
   12CHL1   C19  854   5.352   5.941   6.203 -0.4711 -0.0220  1.0612
   12CHL1  H19A  855   5.327   5.974   6.306 -2.0710 -0.7024  0.9100
   12CHL1  H19B  856   5.440   5.996   6.163 -0.6088  0.1770  1.0324
   12CHL1  H19C  857   5.265   5.965   6.139 -0.6964 -0.9834  0.9843
   12CHL1    C1  858   5.222   5.717   6.252 -0.5951  0.0613 -0.0726
   12CHL1   H1A  859   5.151   5.753   6.175  0.0922 -1.8408 -1.6782
   12CHL1   H1B  860   5.235   5.609   6.233 -0.0561 -0.0479  0.8356
   12CHL1    C2  861   5.197   5.732   6.405  0.6218 -0.6375  0.5250
   12CHL1   H2A  862   5.110   5.672   6.438 -0.4350  0.4961 -0.0911
   12CHL1   H2B  863   5.167   5.837   6.426 -0.9302 -1.5736  3.6875
   12CHL1   C20  864   5.562   5.738   5.529 -0.3528  0.0996  0.5004
   12CHL1   H20  865   5.606   5.840   5.522 -2.5437  1.1114  0.8511
   12CHL1   C21  866   5.415   5.753   5.488  0.5151  0.3249 -0.5448
   12CHL1  H21A  867   5.406   5.805   5.390  1.8551 -0.2564 -0.9979
   12CHL1  H21B  868   5.353   5.805   5.564  1.1303 -0.4898  0.5338
   12CHL1  H21C  869   5.376   5.649   5.478  4.0422 -1.5913  2.7751
   12CHL1   C22  870   5.638   5.650   5.428  0.5833  0.2031 -0.0832
   12CHL1  H22A  871   5.742   5.622   5.457  0.6856  0.5329 -0.1255
   12CHL1  H22B  872   5.585   5.553   5.424  2.4061 -1.1079  3.2999
   12CHL1   C23  873   5.638   5.709   5.286 -0.0027 -0.1833 -0.3105
   12CHL1  H23A  874   5.532   5.696   5.256  0.2178 -0.7004 -0.8836
   12CHL1  H23B  875   5.659   5.818   5.289  1.9667 -0.5198 -0.0642
   12CHL1   C24  876   5.734   5.642   5.186  0.2690 -0.1641  0.2772
   12CHL1  H24A  877   5.712   5.695   5.092 -1.3342 -0.7043  0.3177
   12CHL1  H24B  878   5.842   5.662   5.203  0.3783 -0.8159  0.3879
   12CHL1   C25  879   5.701   5.487   5.168 -0.5545  0.4097  0.1861
   12CHL1   H25  880   5.697   5.435   5.266  0.5210 -0.7317 -0.3477
   12CHL1   C26  881   5.555   5.466   5.110  0.2334 -0.2917  0.2255
   12CHL1  H26A  882   5.547   5.358   5.083  0.9504 -0.1357 -0.6328
   12CHL1  H26B  883   5.479   5.488   5.189 -1.2067 -0.4119 -1.0721
   12CHL1  H26C  884   5.529   5.517   5.015 -0.1439 -0.3377  0.2989
   12CHL1   C27  885   5.795   5.419   5.061 -0.8990 -0.2495 -0.2371
   12CHL1  H27A  886   5.764   5.315   5.038 -3.5962  0.2341  0.9193
   12CHL1  H27B  887   5.789   5.481   4.969  0.0149  2.2250  1.2492
   12CHL1  H27C  888   5.905   5.419   5.076 -0.4031 -2.3351 -3.0504
   13CHL1    C3  889   5.085   5.341   6.367 -0.3814 -0.3186  0.1713
   13CHL1    H3  890   5.037   5.440   6.352 -1.2424 -0.4519  1.8471
   13CHL1    O3  891   5.090   5.320   6.505  0.0978  0.2904  0.0031
   13CHL1   H3'  892   5.003   5.333   6.545  1.1102  2.0913  1.8335
   13CHL1    C4  893   4.990   5.235   6.300 -0.1334 -0.2172 -0.0271
   13CHL1   H4A  894   5.024   5.135   6.337  0.2669 -0.3706 -0.7980
   13CHL1   H4B  895   4.886   5.252   6.337 -1.3849 -2.5512 -2.1536
   13CHL1    C5  896   4.989   5.225   6.152  0.4315  1.1012 -0.8433
   13CHL1    C6  897   4.875   5.223   6.079  0.2355 -0.1647 -0.5348
   13CHL1    H6  898   4.776   5.224   6.127  1.0781 -0.8869  1.3095
   13CHL1    C7  899   4.859   5.221   5.932  0.0815 -0.0029 -0.5590
   13CHL1   H7A  900   4.779   5.150   5.901 -0.3584  0.6792 -1.0291
   13CHL1   H7B  901   4.817   5.321   5.907  0.7594  0.1055 -1.2735
   13CHL1    C8  902   4.990   5.202   5.862  0.1996 -0.3397 -0.0400
   13CHL1    H8  903   5.024   5.097   5.860  2.0617  0.1943  0.8510
   13CHL1   C14  904   4.974   5.262   5.726 -0.6395  0.0259  0.9728
   13CHL1   H14  905   4.940   5.367   5.739 -0.8190  0.3830 -1.7957
   13CHL1   C15  906   4.873   5.201   5.630  0.1368  0.5613 -0.1280
   13CHL1  H15A  907   4.888   5.092   5.643 -0.0822  0.7606  2.2549
   13CHL1  H15B  908   4.766   5.231   5.638  0.5154  1.4911  2.3003
   13CHL1   C16  909   4.909   5.244   5.486  0.0621  0.5159  0.1229
   13CHL1  H16A  910   4.933   5.159   5.418  2.0767  1.6973 -0.7594
   13CHL1  H16B  911   4.827   5.303   5.441  0.6528  2.7259  1.7703
   13CHL1   C17  912   5.052   5.320   5.496  0.9494 -0.0383 -0.0972
   13CHL1   H17  913   5.004   5.418   5.516 -0.4165 -1.0059  1.6853
   13CHL1   C13  914   5.105   5.275   5.636  0.0682  0.0614 -0.0203
   13CHL1   C18  915   5.149   5.124   5.616 -0.0023 -0.0436 -0.2552
   13CHL1  H18A  916   5.065   5.069   5.569 -0.0238  0.7139 -1.1349
   13CHL1  H18B  917   5.239   5.121   5.551  0.3597  1.7863  0.1028
   13CHL1  H18C  918   5.173   5.075   5.713  0.4910 -0.0564 -0.3804
   13CHL1   C12  919   5.211   5.357   5.706  0.0575 -0.9700 -0.1191
   13CHL1  H12A  920   5.307   5.361   5.650 -0.6492  0.5310 -1.3202
   13CHL1  H12B  921   5.179   5.461   5.727 -0.0313 -1.3430  1.7360
   13CHL1   C11  922   5.233   5.301   5.849 -0.4133  0.3471 -0.4937
   13CHL1  H11A  923   5.262   5.194   5.844 -0.9493  0.1527  0.3286
   13CHL1  H11B  924   5.304   5.361   5.910 -1.3702  1.1909 -0.1814
   13CHL1    C9  925   5.103   5.290   5.936 -0.0611  0.3137  0.3675
   13CHL1    H9  926   5.063   5.394   5.937 -0.0789  0.3609 -1.4691
   13CHL1   C10  927   5.126   5.247   6.082  0.0934  0.6551 -0.3370
   13CHL1   C19  928   5.195   5.105   6.092 -0.2079  0.4405 -0.3232
   13CHL1  H19A  929   5.152   5.033   6.019  0.7832 -0.5044  0.0129
   13CHL1  H19B  930   5.301   5.111   6.060 -0.1377  0.4849 -0.0793
   13CHL1  H19C  931   5.182   5.066   6.195 -1.9259 -1.0042 -1.0402
   13CHL1    C1  932   5.213   5.350   6.157  0.4068  0.2133 -0.3085
   13CHL1   H1A  933   5.321   5.355   6.132  0.6976 -1.3234  0.5445
   13CHL1   H1B  934   5.170   5.450   6.133 -0.7440 -0.4764 -1.2649
   13CHL1    C2  935   5.223   5.329   6.306  0.3379  0.5218 -0.1024
   13CHL1   H2A  936   5.295   5.403   6.346  0.0446  0.7107  0.0752
   13CHL1   H2B  937   5.258   5.226   6.328 -1.1959 -0.0540 -0.2516
   13CHL1   C20  938   5.144   5.315   5.372 -0.2509 -0.8690 -0.4622
   13CHL1   H20  939   5.202   5.221   5.381  0.2766 -0.6571 -1.5036
   13CHL1   C21  940   5.236   5.440   5.374  0.6726 -0.4770  0.3744
   13CHL1  H21A  941   5.267   5.464   5.270  0.8024 -0.7450  0.3515
   13CHL1  H21B  942   5.326   5.433   5.438  1.3484  0.2401 -0.4576
   13CHL1  H21C  943   5.177   5.522   5.421  0.6809 -0.0789 -0.2856
   13CHL1   C22  944   5.070   5.298   5.238  0.1633  0.3327 -0.9614
   13CHL1  H22A  945   4.991   5.221   5.236  2.4325 -2.1184 -1.9355
   13CHL1  H22B  946   5.030   5.400   5.222 -1.3066  0.0118  0.4519
   13CHL1   C23  947   5.154   5.255   5.120 -0.5716  0.4945 -0.4728
   13CHL1  H23A  948   5.232   5.332   5.104  2.1916 -1.5070  2.2205
   13CHL1  H23B  949   5.211   5.167   5.156  0.1264  1.6869  1.5107
   13CHL1   C24  950   5.075   5.222   4.993 -0.3996  0.0719  0.1767
   13CHL1  H24A  951   5.001   5.144   5.019  0.6663  0.3850  5.4883
   13CHL1  H24B  952   5.012   5.310   4.968  1.3623  1.1846 -0.5629
   13CHL1   C25  953   5.159   5.177   4.874 -0.4375  0.0011 -0.6606
   13CHL1   H25  954   5.200   5.079   4.907 -1.3766  0.0522  0.7208
   13CHL1   C26  955   5.062   5.148   4.752 -0.5515  0.1970 -0.7754
   13CHL1  H26A  956   5.029   5.240   4.699  0.5257  0.3100 -1.2626
   13CHL1  H26B  957   5.113   5.106   4.663 -1.3784  0.2249 -1.2757
   13CHL1  H26C  958   4.986   5.079   4.794  0.9037  0.5087  2.6831
   13CHL1   C27  959   5.275   5.263   4.825  0.3073  0.2091  0.1084
   13CHL1  H27A  960   5.246   5.367   4.797  0.9817  1.3762  3.3797
   13CHL1  H27B  961   5.342   5.278   4.912 -1.5431 -0.5560  1.7294
   13CHL1  H27C  962   5.337   5.206   4.753 -1.3624 -0.6394 -0.7279
   14CHL1    C3  963   3.511   2.523   6.613  0.2522  0.4877 -0.2225
   14CHL1    H3  964   3.417   2.463   6.618 -0.4835  1.6833  3.4822
   14CHL1    O3  965   3.581   2.521   6.733  0.0185  0.0696  0.1242
   14CHL1   H3'  966   3.523   2.566   6.795 -0.5322  1.4267 -1.3182
   14CHL1    C4  967   3.604   2.458   6.502  0.1279 -0.5913 -1.3361
   14CHL1   H4A  968   3.696   2.521   6.500  0.8817 -1.6188 -0.1552
   14CHL1   H4B  969   3.637   2.357   6.534  0.2531 -0.6305 -1.5891
   14CHL1    C5  970   3.552   2.458   6.365 -0.0964  0.2768  0.5375
   14CHL1    C6  971   3.558   2.354   6.278  0.0725 -0.3340 -0.1420
   14CHL1    H6  972   3.617   2.268   6.313  0.2079 -0.7952 -1.4469
   14CHL1    C7  973   3.533   2.359   6.132  0.9879  0.5551  0.2836
   14CHL1   H7A  974   3.620   2.317   6.076  0.6126  1.5303 -1.0761
   14CHL1   H7B  975   3.441   2.300   6.113  0.6415  1.2371 -0.2051
   14CHL1    C8  976   3.514   2.509   6.083  0.2514  0.2260  0.9459
   14CHL1    H8  977   3.618   2.548   6.072 -0.7387  2.4715 -1.7992
   14CHL1   C14  978   3.459   2.519   5.944  0.2674  0.9488  0.1113
   14CHL1   H14  979   3.366   2.458   5.944 -0.0287  1.3987 -0.2772
   14CHL1   C15  980   3.541   2.445   5.837 -0.2915  0.4572  0.0478
   14CHL1  H15A  981   3.645   2.481   5.822 -0.6961  1.0826 -1.4376
   14CHL1  H15B  982   3.546   2.335   5.855  0.6606  0.0414 -2.3396
   14CHL1   C16  983   3.467   2.497   5.706 -0.1543  0.3192 -0.6076
   14CHL1  H16A  984   3.551   2.539   5.646  1.4037 -2.2150 -0.3557
   14CHL1  H16B  985   3.404   2.426   5.649 -1.1107  1.4650 -1.0226
   14CHL1   C17  986   3.377   2.613   5.751 -0.0076  0.4200 -0.5139
   14CHL1   H17  987   3.282   2.557   5.766  0.7308 -0.3895  1.6795
   14CHL1   C13  988   3.423   2.654   5.891 -0.7536  0.1923 -0.0246
   14CHL1   C18  989   3.552   2.726   5.879  0.1818 -0.4160 -0.2091
   14CHL1  H18A  990   3.634   2.696   5.810  0.1444  0.4722 -0.6610
   14CHL1  H18B  991   3.540   2.836   5.866  0.5770 -0.2560  0.7206
   14CHL1  H18C  992   3.596   2.742   5.979  0.0350  2.6941 -0.5313
   14CHL1   C12  993   3.319   2.714   5.989  0.4985 -0.7465  0.6048
   14CHL1  H12A  994   3.283   2.808   5.940  0.0592 -0.8290  0.7653
   14CHL1  H12B  995   3.232   2.646   5.982 -1.7383  2.0465 -1.5095
   14CHL1   C11  996   3.367   2.720   6.130 -0.3775  0.2750  0.4282
   14CHL1  H11A  997   3.443   2.802   6.127  0.6387 -0.6750 -2.3094
   14CHL1  H11B  998   3.274   2.746   6.185  0.0225  2.1998  0.2839
   14CHL1    C9  999   3.429   2.586   6.180  0.2472  0.3847 -0.4654
   14CHL1    H9 1000   3.340   2.521   6.200  0.2514 -0.0354 -1.7716
   14CHL1   C10 1001   3.502   2.599   6.316 -0.7172  0.4586 -0.5407
   14CHL1   C19 1002   3.620   2.693   6.301  0.1532 -0.1082  0.7420
   14CHL1  H19A 1003   3.586   2.794   6.270 -1.5674 -1.6497 -2.8934
   14CHL1  H19B 1004   3.686   2.697   6.391  0.4434  0.9136  0.4944
   14CHL1  H19C 1005   3.692   2.646   6.231 -2.7966 -1.4624 -1.6104
   14CHL1    C1 1006   3.409   2.656   6.429 -0.2692 -0.3644 -0.2519
   14CHL1   H1A 1007   3.373   2.756   6.395  1.2003  0.4555  0.4888
   14CHL1   H1B 1008   3.324   2.587   6.446  0.6687 -1.1151  1.6847
   14CHL1    C2 1009   3.475   2.664   6.569 -0.0700 -0.6348  0.4026
   14CHL1   H2A 1010   3.421   2.717   6.650 -0.4778 -1.6725  0.8227
   14CHL1   H2B 1011   3.577   2.707   6.563 -0.1707 -0.3265  0.8622
   14CHL1   C20 1012   3.355   2.712   5.636  0.0903 -0.0741 -0.1819
   14CHL1   H20 1013   3.449   2.732   5.581 -0.1311  0.5526 -0.3411
   14CHL1   C21 1014   3.299   2.851   5.679 -0.3940  0.4725  0.4338
   14CHL1  H21A 1015   3.238   2.902   5.601 -1.7581 -1.9798 -0.2443
   14CHL1  H21B 1016   3.365   2.926   5.726  0.9155 -0.0659 -0.4719
   14CHL1  H21C 1017   3.222   2.811   5.749  0.4424 -0.8350  0.6462
   14CHL1   C22 1018   3.262   2.654   5.524  0.3593  0.2340 -0.5362
   14CHL1  H22A 1019   3.252   2.544   5.542 -0.8336  0.1390 -1.6399
   14CHL1  H22B 1020   3.161   2.699   5.539  0.9965  1.1304  1.3845
   14CHL1   C23 1021   3.311   2.680   5.385 -0.7606  0.5068  0.1878
   14CHL1  H23A 1022   3.332   2.789   5.375  0.3662  0.3914  1.1442
   14CHL1  H23B 1023   3.399   2.622   5.350 -0.8347  0.8035 -0.4954
   14CHL1   C24 1024   3.198   2.648   5.294  0.3646 -1.0556  0.6184
   14CHL1  H24A 1025   3.184   2.538   5.295 -1.8487 -0.8337  2.1318
   14CHL1  H24B 1026   3.101   2.692   5.325  1.0364  0.4408  0.6617
   14CHL1   C25 1027   3.221   2.714   5.155  0.0316 -0.0953  0.8015
   14CHL1   H25 1028   3.331   2.706   5.136  0.4056  2.2945  1.5298
   14CHL1   C26 1029   3.138   2.635   5.049  0.6571 -0.1849 -0.2366
   14CHL1  H26A 1030   3.179   2.532   5.043 -1.8462 -1.2320 -0.7168
   14CHL1  H26B 1031   3.034   2.610   5.080  0.6986 -1.5516 -1.0949
   14CHL1  H26C 1032   3.137   2.688   4.952 -0.5873  0.1904 -0.0359
   14CHL1   C27 1033   3.189   2.867   5.154 -0.7521  0.2123 -0.3716
   14CHL1  H27A 1034   3.220   2.921   5.062  0.6363 -1.0786 -0.6978
   14CHL1  H27B 1035   3.078   2.877   5.163 -0.8937  0.2094 -1.8123
   14CHL1  H27C 1036   3.236   2.905   5.247  0.8667 -2.2990 -0.0759
   15CHL1    C3 1037   4.928   3.869   6.259  0.2003  0.4819 -0.0497
   15CHL1    H3 1038   4.822   3.845   6.239  0.3951 -1.2755  0.8423
   15CHL1    O3 1039   4.943   3.878   6.400  0.0513 -0.6088  0.0235
   15CHL1   H3' 1040   4.993   3.960   6.411  0.9675 -1.4332  2.9969
   15CHL1    C4 1041   5.026   3.755   6.216 -0.2984  0.0057  0.2517
   15CHL1   H4A 1042   5.128   3.767   6.259  0.7073 -2.7586 -1.1146
   15CHL1   H4B 1043   4.984   3.660   6.255  1.3014 -1.9474 -2.4461
   15CHL1    C5 1044   5.025   3.750   6.063  0.0183  1.0039  0.1301
   15CHL1    C6 1045   4.989   3.629   6.005 -0.0607  0.6138 -0.4472
   15CHL1    H6 1046   4.969   3.542   6.069 -1.0626  1.5366  0.5458
   15CHL1    C7 1047   5.001   3.594   5.862  0.6103 -0.4204 -0.3199
   15CHL1   H7A 1048   5.052   3.496   5.854  0.6186 -0.9342  3.7013
   15CHL1   H7B 1049   4.897   3.573   5.830  0.4923 -1.3759  0.6120
   15CHL1    C8 1050   5.064   3.709   5.772 -0.1385  0.1677 -0.1979
   15CHL1    H8 1051   5.175   3.703   5.780 -0.1438 -0.3237 -0.4183
   15CHL1   C14 1052   5.016   3.702   5.625  0.5228 -0.3519 -0.1533
   15CHL1   H14 1053   4.905   3.706   5.626  0.4938 -0.5268  2.0944
   15CHL1   C15 1054   5.034   3.563   5.556  0.6289 -0.7527  0.4728
   15CHL1  H15A 1055   5.140   3.533   5.571  0.7840  0.1485  1.3006
   15CHL1  H15B 1056   4.962   3.491   5.600 -1.3043  0.8694  0.0908
   15CHL1   C16 1057   5.008   3.597   5.405  1.2315 -0.6025  0.0711
   15CHL1  H16A 1058   5.075   3.542   5.336  1.8509 -2.9500  2.3856
   15CHL1  H16B 1059   4.909   3.554   5.382  0.0766  1.4473  0.8873
   15CHL1   C17 1060   4.996   3.760   5.396 -0.0260 -0.5941 -0.3654
   15CHL1   H17 1061   4.887   3.782   5.399  0.1576  0.4491 -0.9651
   15CHL1   C13 1062   5.070   3.808   5.525  0.1762  0.0901  0.0636
   15CHL1   C18 1063   5.221   3.790   5.507 -0.2542 -0.3589 -0.1548
   15CHL1  H18A 1064   5.253   3.866   5.432  1.6948 -1.6654 -0.7353
   15CHL1  H18B 1065   5.275   3.813   5.601  5.1072 -2.9392 -2.1824
   15CHL1  H18C 1066   5.257   3.692   5.469 -1.8224 -1.7133  1.6536
   15CHL1   C12 1067   5.038   3.952   5.586  0.0919 -0.4249  0.1309
   15CHL1  H12A 1068   5.091   4.033   5.530 -1.1894 -0.4162 -1.1237
   15CHL1  H12B 1069   4.928   3.963   5.583  0.0216 -1.0265  0.3179
   15CHL1   C11 1070   5.083   3.960   5.742  0.6242  0.4610  0.2830
   15CHL1  H11A 1071   5.191   3.986   5.751  1.2828 -2.2293  1.3003
   15CHL1  H11B 1072   5.041   4.057   5.775 -0.9540 -0.4159  0.9596
   15CHL1    C9 1073   5.031   3.849   5.840  0.1154  0.4013  0.1267
   15CHL1    H9 1074   4.921   3.848   5.824  0.1397 -4.3738 -1.1693
   15CHL1   C10 1075   5.062   3.875   5.989 -0.1055  0.4424  0.5094
   15CHL1   C19 1076   5.212   3.895   6.005  0.1699  0.3226 -0.0753
   15CHL1  H19A 1077   5.270   3.808   5.967 -1.5493 -0.0402 -2.0745
   15CHL1  H19B 1078   5.234   3.991   5.954 -2.3157  0.4827 -0.9944
   15CHL1  H19C 1079   5.237   3.919   6.111 -1.0732 -0.5507  0.4430
   15CHL1    C1 1080   4.984   4.003   6.041  0.8519  0.3198  0.2594
   15CHL1   H1A 1081   5.019   4.104   6.009  1.0461  0.2755  0.3310
   15CHL1   H1B 1082   4.884   3.997   5.993 -0.1974  1.2849  2.2427
   15CHL1    C2 1083   4.969   4.004   6.197 -0.5466 -0.0865  0.4719
   15CHL1   H2A 1084   4.900   4.083   6.235  0.6267  0.6635  1.1017
   15CHL1   H2B 1085   5.070   4.029   6.234 -1.5629  3.0576  1.4731
   15CHL1   C20 1086   5.037   3.816   5.264 -0.1311  0.7763  0.0860
   15CHL1   H20 1087   5.146   3.827   5.248 -0.0903  0.0941 -0.1295
   15CHL1   C21 1088   4.977   3.962   5.253  0.2256 -1.0031 -0.6744
   15CHL1  H21A 1089   4.958   3.994   5.358  3.7354 -1.5881  0.2713
   15CHL1  H21B 1090   4.878   3.968   5.202 -0.1088 -2.2945 -0.2258
   15CHL1  H21C 1091   5.050   4.035   5.213 -0.8863 -0.0149 -0.9432
   15CHL1   C22 1092   4.993   3.740   5.133 -0.3970  0.5177 -0.2774
   15CHL1  H22A 1093   5.037   3.638   5.137 -1.3551  0.0069 -1.9871
   15CHL1  H22B 1094   4.884   3.722   5.139 -0.0787 -1.2940  0.8991
   15CHL1   C23 1095   5.023   3.814   5.005 -0.7134 -0.5920  0.0546
   15CHL1  H23A 1096   4.946   3.891   4.985 -0.5887 -0.5863 -0.4135
   15CHL1  H23B 1097   5.124   3.859   5.019 -0.8611  0.2686 -1.4540
   15CHL1   C24 1098   5.006   3.722   4.884 -0.3191 -0.0903  0.5424
   15CHL1  H24A 1099   5.035   3.773   4.790  1.2461 -1.5782  0.1720
   15CHL1  H24B 1100   5.065   3.628   4.887 -0.6640 -0.3036  2.7683
   15CHL1   C25 1101   4.861   3.658   4.882  0.3260 -0.3829  0.4839
   15CHL1   H25 1102   4.850   3.610   4.982  0.4491 -1.0422  0.1899
   15CHL1   C26 1103   4.751   3.756   4.840  0.1997  0.2222 -0.1658
   15CHL1  H26A 1104   4.723   3.833   4.915 -2.4478  2.2117 -2.9121
   15CHL1  H26B 1105   4.787   3.816   4.753  1.4969 -0.6444 -0.2482
   15CHL1  H26C 1106   4.656   3.714   4.800  0.4555  1.5639 -2.3902
   15CHL1   C27 1107   4.851   3.547   4.780  0.5990 -0.3426  0.1186
   15CHL1  H27A 1108   4.753   3.494   4.786  0.9725 -1.1125 -0.4246
   15CHL1  H27B 1109   4.869   3.585   4.677  3.1436 -0.6269  0.4052
   15CHL1  H27C 1110   4.931   3.471   4.793  0.1937 -0.3748  3.0362
   16CHL1    C3 1111   1.596   0.848   6.340 -0.3822  0.5403 -0.1581
   16CHL1    H3 1112   1.569   0.937   6.401  0.6200 -0.6991  2.2245
   16CHL1    O3 1113   1.666   0.756   6.426 -0.1808  0.0771  0.6240
   16CHL1   H3' 1114   1.718   0.799   6.494 -0.9608  0.8369  0.7617
   16CHL1    C4 1115   1.467   0.767   6.310  0.8185  0.0265 -0.5441
   16CHL1   H4A 1116   1.493   0.660   6.292  0.9345  0.2425 -1.7320
   16CHL1   H4B 1117   1.406   0.769   6.403  0.7236  0.1010 -0.6083
   16CHL1    C5 1118   1.381   0.817   6.192 -0.1152 -0.3531  0.1274
   16CHL1    C6 1119   1.250   0.822   6.191 -0.0443  0.0263  0.2517
   16CHL1    H6 1120   1.191   0.789   6.278 -0.8683  0.4475 -0.1364
   16CHL1    C7 1121   1.168   0.861   6.077  0.4476  0.3734  0.1040
   16CHL1   H7A 1122   1.090   0.783   6.067  1.0619 -0.3114  0.6043
   16CHL1   H7B 1123   1.105   0.950   6.099  0.7566  0.0926  2.3692
   16CHL1    C8 1124   1.249   0.875   5.941 -0.2904  0.4545 -0.1171
   16CHL1    H8 1125   1.261   0.771   5.905 -0.8718 -0.7501  2.8525
   16CHL1   C14 1126   1.174   0.964   5.847  0.5353  0.6144 -0.5265
   16CHL1   H14 1127   1.158   1.067   5.885  0.7731  0.5204 -0.1737
   16CHL1   C15 1128   1.024   0.938   5.829  0.1956  0.1531  0.1992
   16CHL1  H15A 1129   0.995   0.832   5.817  0.1245  0.2699 -0.7347
   16CHL1  H15B 1130   0.970   0.976   5.918  0.6262  0.6209  0.2621
   16CHL1   C16 1131   1.001   1.008   5.693  0.1039  0.5299  0.5462
   16CHL1  H16A 1132   0.956   0.937   5.620 -1.1867 -0.2194  2.0035
   16CHL1  H16B 1133   0.926   1.085   5.722  1.4015  2.4868 -1.0938
   16CHL1   C17 1134   1.140   1.068   5.633 -0.3463 -0.5332 -0.0868
   16CHL1   H17 1135   1.152   1.172   5.668 -3.3516  0.5149 -1.7624
   16CHL1   C13 1136   1.241   0.988   5.709 -1.0604  0.6966  0.0031
   16CHL1   C18 1137   1.262   0.852   5.634  0.8262 -0.4969 -0.6811
   16CHL1  H18A 1138   1.166   0.802   5.609  0.5232  0.4972 -1.5971
   16CHL1  H18B 1139   1.315   0.865   5.537 -0.9310 -0.7364 -1.7132
   16CHL1  H18C 1140   1.327   0.782   5.691 -1.0069 -1.2910  0.5399
   16CHL1   C12 1141   1.371   1.061   5.738  1.2212  0.1158  0.1940
   16CHL1  H12A 1142   1.428   1.071   5.643 -0.0901  0.1033 -0.6191
   16CHL1  H12B 1143   1.348   1.161   5.779 -3.6854 -0.2683 -1.0377
   16CHL1   C11 1144   1.455   1.000   5.853 -0.1087 -0.1270  0.7907
   16CHL1  H11A 1145   1.509   0.918   5.801 -0.3586  0.9521 -1.2741
   16CHL1  H11B 1146   1.530   1.075   5.885  0.7510 -0.6010 -0.0576
   16CHL1    C9 1147   1.377   0.948   5.977  0.0396  0.2567  0.0672
   16CHL1    H9 1148   1.342   1.037   6.035 -0.9571  1.5704 -2.3896
   16CHL1   C10 1149   1.470   0.859   6.066  0.0095  0.5026 -0.2550
   16CHL1   C19 1150   1.516   0.731   5.989 -0.2988  0.6918  0.8345
   16CHL1  H19A 1151   1.579   0.754   5.900 -0.0304 -1.8397  0.2961
   16CHL1  H19B 1152   1.580   0.659   6.043 -0.9794 -0.8705 -0.3737
   16CHL1  H19C 1153   1.425   0.675   5.960  0.5815  0.7447 -2.5048
   16CHL1    C1 1154   1.591   0.947   6.112 -0.4480 -0.1800 -1.5360
   16CHL1   H1A 1155   1.646   0.963   6.017  0.3152 -0.6822 -1.1839
   16CHL1   H1B 1156   1.549   1.045   6.144  0.9943 -0.3267  1.0973
   16CHL1    C2 1157   1.683   0.883   6.223 -0.4213  0.2044 -0.7705
   16CHL1   H2A 1158   1.764   0.956   6.243 -1.4177  0.7646  1.6114
   16CHL1   H2B 1159   1.736   0.791   6.190  0.0120  0.7139 -1.4977
   16CHL1   C20 1160   1.139   1.072   5.483 -0.5962 -1.0656  0.2195
   16CHL1   H20 1161   1.129   0.969   5.442 -0.1684 -0.7661 -0.6401
   16CHL1   C21 1162   1.269   1.140   5.424 -0.0916 -0.5041 -0.0945
   16CHL1  H21A 1163   1.294   1.231   5.482 -1.8551  0.3874 -0.6504
   16CHL1  H21B 1164   1.258   1.155   5.314 -1.4633  1.2021  0.2438
   16CHL1  H21C 1165   1.351   1.069   5.447  0.1643 -0.3646 -0.5607
   16CHL1   C22 1166   1.006   1.146   5.434  0.0949 -0.9083  0.3800
   16CHL1  H22A 1167   0.915   1.084   5.446 -0.3272 -0.1689  1.1358
   16CHL1  H22B 1168   0.987   1.237   5.494  1.7698 -1.3339  1.6442
   16CHL1   C23 1169   1.007   1.184   5.290 -0.1505 -0.2302 -0.6786
   16CHL1  H23A 1170   1.083   1.264   5.278 -0.5190  0.2369 -0.0058
   16CHL1  H23B 1171   1.019   1.101   5.217 -0.7591 -0.8570 -0.0823
   16CHL1   C24 1172   0.877   1.252   5.242 -0.4091  0.0704  0.0812
   16CHL1  H24A 1173   0.786   1.203   5.284  0.1638  0.4443  1.8467
   16CHL1  H24B 1174   0.873   1.354   5.286  0.1956 -0.2372  0.8789
   16CHL1   C25 1175   0.869   1.260   5.086  0.6142  0.3037  0.1729
   16CHL1   H25 1176   0.883   1.159   5.040  1.1171  0.3034  0.3144
   16CHL1   C26 1177   0.735   1.298   5.032  0.7237  0.0187  0.6753
   16CHL1  H26A 1178   0.717   1.403   5.064  0.9194  0.0047  0.8359
   16CHL1  H26B 1179   0.724   1.300   4.922 -0.4943 -0.9371  0.7567
   16CHL1  H26C 1180   0.655   1.231   5.069 -0.2020  1.0617  0.5909
   16CHL1   C27 1181   0.977   1.353   5.030  0.3280  0.0464  0.0520
   16CHL1  H27A 1182   0.955   1.376   4.924 -1.7570  1.5886  0.7361
   16CHL1  H27B 1183   0.966   1.453   5.076  2.4794  1.0658 -1.5048
   16CHL1  H27C 1184   1.082   1.318   5.042  0.2277 -1.5908 -2.9280
   17CHL1    C3 1185   4.245   3.275   6.398  0.0462 -0.5979 -0.3586
   17CHL1    H3 1186   4.273   3.167   6.397  2.5519 -0.0084 -0.5834
   17CHL1    O3 1187   4.247   3.327   6.532  0.0053  0.8640  0.2388
   17CHL1   H3' 1188   4.242   3.422   6.516  1.2135  0.9719  0.4051
   17CHL1    C4 1189   4.361   3.345   6.317 -0.3848  0.1281 -0.2280
   17CHL1   H4A 1190   4.338   3.453   6.325 -3.4284 -0.3596 -1.0923
   17CHL1   H4B 1191   4.457   3.314   6.364 -2.0111 -1.3480  2.4245
   17CHL1    C5 1192   4.352   3.320   6.170  0.0193  0.1078  0.0606
   17CHL1    C6 1193   4.452   3.269   6.094  0.0037  0.3544  0.4000
   17CHL1    H6 1194   4.541   3.231   6.148 -1.5947 -1.2496  2.0956
   17CHL1    C7 1195   4.449   3.245   5.947  0.1706  0.3644  0.3989
   17CHL1   H7A 1196   4.548   3.277   5.910  0.3346 -1.3015 -0.7110
   17CHL1   H7B 1197   4.441   3.137   5.923 -2.5181  0.9245 -1.7878
   17CHL1    C8 1198   4.329   3.325   5.878 -0.8574 -0.1997  0.2004
   17CHL1    H8 1199   4.368   3.429   5.876 -1.8300  0.2202  1.7382
   17CHL1   C14 1200   4.296   3.264   5.744 -0.7107  0.4453 -0.5415
   17CHL1   H14 1201   4.267   3.157   5.753 -0.0091  0.3356  0.5670
   17CHL1   C15 1202   4.409   3.249   5.643  0.5035  0.3726  0.1764
   17CHL1  H15A 1203   4.466   3.344   5.641 -1.5800  1.6731 -0.5815
   17CHL1  H15B 1204   4.471   3.162   5.674 -0.3231 -0.3341 -0.1001
   17CHL1   C16 1205   4.342   3.249   5.503  0.2846  0.7096 -0.2561
   17CHL1  H16A 1206   4.376   3.339   5.447  0.8955  0.2960 -0.5523
   17CHL1  H16B 1207   4.373   3.167   5.436  4.1941  2.0255 -0.2808
   17CHL1   C17 1208   4.186   3.258   5.536 -1.2264  0.4095  0.2911
   17CHL1   H17 1209   4.151   3.154   5.552  4.7218 -1.8872  0.9399
   17CHL1   C13 1210   4.173   3.327   5.674 -0.7136  0.2104  0.2564
   17CHL1   C18 1211   4.194   3.478   5.655  0.1441  0.0165  0.0545
   17CHL1  H18A 1212   4.285   3.497   5.593  0.6789 -3.2866 -0.3955
   17CHL1  H18B 1213   4.095   3.514   5.619 -0.1992 -1.0684 -0.1181
   17CHL1  H18C 1214   4.211   3.531   5.751 -4.0719  1.0958  0.4015
   17CHL1   C12 1215   4.053   3.285   5.762  0.6943  0.5266  0.6114
   17CHL1  H12A 1216   3.956   3.318   5.719 -0.0104  1.1936  2.6112
   17CHL1  H12B 1217   4.054   3.175   5.774  0.5772  0.6212  1.5467
   17CHL1   C11 1218   4.076   3.351   5.894 -0.7032 -0.2932  0.0194
   17CHL1  H11A 1219   4.071   3.461   5.878  0.7186 -0.3774 -1.1538
   17CHL1  H11B 1220   3.991   3.316   5.958  0.0202  0.4695  1.4505
   17CHL1    C9 1221   4.203   3.310   5.963  0.2857  0.5156  0.6428
   17CHL1    H9 1222   4.202   3.200   5.976  1.7273  0.6334  2.0634
   17CHL1   C10 1223   4.217   3.352   6.110  0.7950  0.4119  0.3453
   17CHL1   C19 1224   4.185   3.501   6.123 -0.3098 -1.0968  0.2658
   17CHL1  H19A 1225   4.265   3.553   6.066 -0.4028 -1.2328  0.0097
   17CHL1  H19B 1226   4.083   3.520   6.083 -0.9285 -2.4725  1.1404
   17CHL1  H19C 1227   4.174   3.529   6.230  0.3768 -3.1340  0.9213
   17CHL1    C1 1228   4.113   3.264   6.188  0.1019 -0.3744  0.1734
   17CHL1   H1A 1229   4.011   3.289   6.151  0.1381  0.6279  0.7094
   17CHL1   H1B 1230   4.132   3.156   6.175  3.8368  0.2525 -0.7782
   17CHL1    C2 1231   4.110   3.292   6.339 -0.0603  0.0487  0.5087
   17CHL1   H2A 1232   4.037   3.231   6.396  0.5536  0.0701  1.3309
   17CHL1   H2B 1233   4.079   3.398   6.348  0.8375  0.1565  2.7269
   17CHL1   C20 1234   4.110   3.317   5.415  0.0278  0.9357  0.1125
   17CHL1   H20 1235   4.140   3.423   5.401  0.0960  0.6121 -2.7490
   17CHL1   C21 1236   3.959   3.309   5.432 -0.4505  0.0594  0.2945
   17CHL1  H21A 1237   3.919   3.355   5.340  1.8418 -0.2533 -0.9273
   17CHL1  H21B 1238   3.913   3.373   5.510  0.0311  0.8412 -0.0452
   17CHL1  H21C 1239   3.926   3.203   5.445 -0.6009  0.2751  1.9033
   17CHL1   C22 1240   4.149   3.239   5.285  0.3792 -0.1207 -0.2993
   17CHL1  H22A 1241   4.077   3.278   5.211 -0.4696  0.1433  0.6431
   17CHL1  H22B 1242   4.255   3.260   5.259  0.2425 -2.4907 -3.2595
   17CHL1   C23 1243   4.154   3.088   5.292  1.0370 -0.1205 -0.0079
   17CHL1  H23A 1244   4.216   3.056   5.379  0.0450  1.6412  1.4310
   17CHL1  H23B 1245   4.048   3.057   5.304  0.4598  2.0342  1.0755
   17CHL1   C24 1246   4.207   3.024   5.164  0.1916 -0.4298 -0.2018
   17CHL1  H24A 1247   4.317   3.036   5.171  0.5561 -2.3147 -1.7515
   17CHL1  H24B 1248   4.194   2.914   5.170  1.7369 -0.6611 -0.7804
   17CHL1   C25 1249   4.158   3.060   5.027 -0.0987 -0.4608  0.3244
   17CHL1   H25 1250   4.164   3.170   5.012 -0.9173 -0.3753  0.5823
   17CHL1   C26 1251   4.238   2.997   4.907  0.2632 -0.2744 -0.5185
   17CHL1  H26A 1252   4.229   3.053   4.812 -1.6853 -2.5481 -1.7868
   17CHL1  H26B 1253   4.345   3.001   4.940  0.1748  1.0135 -0.3323
   17CHL1  H26C 1254   4.224   2.889   4.887  1.7832 -1.0758  2.1909
   17CHL1   C27 1255   4.006   3.034   5.006  0.1489 -0.2034 -0.1792
   17CHL1  H27A 1256   3.954   3.048   5.104  1.3215  2.7033  0.1113
   17CHL1  H27B 1257   3.957   3.103   4.935 -1.2531 -0.0238  0.9214
   17CHL1  H27C 1258   3.986   2.937   4.955 -3.3163 -0.1278  0.7681
   18CHL1    C3 1259   4.786   5.659   6.404  0.1161  0.3532 -0.2503
   18CHL1    H3 1260   4.893   5.628   6.416 -0.1287  0.0061  1.2986
   18CHL1    O3 1261   4.705   5.648   6.518 -0.1303  0.4031  0.0122
   18CHL1   H3' 1262   4.736   5.723   6.569  0.2262  1.2220 -1.3757
   18CHL1    C4 1263   4.798   5.804   6.352 -0.2086  0.2014  0.5563
   18CHL1   H4A 1264   4.702   5.857   6.371  0.2673  1.1831  0.2799
   18CHL1   H4B 1265   4.872   5.850   6.421 -2.2951  2.5515  1.4000
   18CHL1    C5 1266   4.842   5.823   6.210  0.4930  0.5318  0.0981
   18CHL1    C6 1267   4.931   5.916   6.177  0.2203 -0.7103  0.5091
   18CHL1    H6 1268   4.968   5.979   6.259 -3.0911  1.8493  0.2490
   18CHL1    C7 1269   4.982   5.941   6.034  0.2027  0.1297 -0.7309
   18CHL1   H7A 1270   4.984   6.048   6.004  0.7626 -0.0433 -1.3350
   18CHL1   H7B 1271   5.090   5.916   6.030  0.6344  1.9920 -1.8989
   18CHL1    C8 1272   4.905   5.868   5.926 -0.3861  0.1786  0.8069
   18CHL1    H8 1273   4.809   5.924   5.915  0.0130  1.1643  2.1398
   18CHL1   C14 1274   4.972   5.874   5.782  0.4239 -0.3299 -0.0097
   18CHL1   H14 1275   5.073   5.829   5.793  1.5866  2.2129  0.5339
   18CHL1   C15 1276   5.001   6.009   5.717 -0.6932  0.0656  0.2489
   18CHL1  H15A 1277   4.914   6.079   5.717 -0.3932  0.4517  1.1782
   18CHL1  H15B 1278   5.090   6.062   5.755  0.8002 -0.5151 -2.1988
   18CHL1   C16 1279   5.035   5.976   5.573 -0.5612  0.4394  0.4776
   18CHL1  H16A 1280   5.007   6.047   5.492 -0.4782  1.0406  0.9735
   18CHL1  H16B 1281   5.144   5.956   5.568 -0.8913 -1.4305 -0.1072
   18CHL1   C17 1282   4.974   5.832   5.548 -1.1114  0.5837 -0.6774
   18CHL1   H17 1283   5.063   5.764   5.549 -0.0044  1.9739 -0.9344
   18CHL1   C13 1284   4.892   5.806   5.676  0.4417 -0.6274  0.3458
   18CHL1   C18 1285   4.753   5.866   5.646 -0.1036 -0.2060  0.3291
   18CHL1  H18A 1286   4.698   5.889   5.740  0.8978 -0.8202  1.0916
   18CHL1  H18B 1287   4.756   5.963   5.591  1.3502 -1.6894 -2.4294
   18CHL1  H18C 1288   4.701   5.789   5.585  0.1061 -1.0699  1.2124
   18CHL1   C12 1289   4.872   5.656   5.719 -1.0580  0.0802 -0.0211
   18CHL1  H12A 1290   4.806   5.605   5.646 -1.0883  0.1469 -0.0401
   18CHL1  H12B 1291   4.966   5.597   5.731 -0.2931  1.5928  2.0203
   18CHL1   C11 1292   4.804   5.638   5.857  0.2803 -0.0054 -0.1226
   18CHL1  H11A 1293   4.700   5.670   5.837  0.4899 -0.1759 -1.6069
   18CHL1  H11B 1294   4.803   5.532   5.892  1.3318  0.1731  0.4866
   18CHL1    C9 1295   4.873   5.726   5.970  0.3981 -0.1410 -0.7447
   18CHL1    H9 1296   4.964   5.665   5.988  0.7733  0.7086  0.2952
   18CHL1   C10 1297   4.794   5.715   6.106 -0.0072 -0.4406 -0.0413
   18CHL1   C19 1298   4.655   5.761   6.080 -0.3957 -0.6715 -0.5542
   18CHL1  H19A 1299   4.592   5.695   6.017 -0.9961  0.2151 -0.9033
   18CHL1  H19B 1300   4.596   5.765   6.175  2.0401 -0.6286  1.0566
   18CHL1  H19C 1301   4.649   5.856   6.023 -1.3785  0.2801  1.0479
   18CHL1    C1 1302   4.800   5.577   6.165 -0.2862 -0.3684  0.6798
   18CHL1   H1A 1303   4.754   5.502   6.097  1.8106  0.9243 -2.4473
   18CHL1   H1B 1304   4.905   5.542   6.172 -0.4473 -1.2652 -0.8889
   18CHL1    C2 1305   4.731   5.565   6.300  0.7122  0.1300 -0.1089
   18CHL1   H2A 1306   4.756   5.465   6.343  0.4624 -0.4112 -1.1822
   18CHL1   H2B 1307   4.622   5.575   6.282  0.4747  2.8416  2.1315
   18CHL1   C20 1308   4.909   5.810   5.410 -0.4471 -0.1194 -0.3744
   18CHL1   H20 1309   4.819   5.875   5.407 -0.2689  0.0995 -1.0342
   18CHL1   C21 1310   4.863   5.667   5.370 -0.4077  0.2798 -1.4173
   18CHL1  H21A 1311   4.830   5.670   5.264  0.6204  0.7116 -1.7393
   18CHL1  H21B 1312   4.773   5.651   5.432  0.4084 -0.3806 -0.3837
   18CHL1  H21C 1313   4.932   5.585   5.397 -0.8943  1.0680  2.8644
   18CHL1   C22 1314   5.002   5.854   5.288  0.4226 -0.2647  0.2566
   18CHL1  H22A 1315   4.934   5.871   5.202  1.5016 -0.7080 -0.7086
   18CHL1  H22B 1316   5.034   5.956   5.319  0.0726 -0.6898  2.1501
   18CHL1   C23 1317   5.123   5.774   5.254 -0.3578  0.0105  0.1046
   18CHL1  H23A 1318   5.185   5.780   5.345 -0.0299  1.5387 -0.2005
   18CHL1  H23B 1319   5.091   5.669   5.236  1.1648 -0.4449 -0.1062
   18CHL1   C24 1320   5.202   5.830   5.134 -0.1840  0.1400 -0.1874
   18CHL1  H24A 1321   5.304   5.785   5.134  1.1939  3.0453  0.5663
   18CHL1  H24B 1322   5.153   5.798   5.040  0.3611 -0.0987 -0.3978
   18CHL1   C25 1323   5.222   5.989   5.117 -0.1013  0.3610 -0.2785
   18CHL1   H25 1324   5.124   6.032   5.147 -0.4013  1.3527 -2.4350
   18CHL1   C26 1325   5.334   6.045   5.201  0.3601  0.7698 -0.0537
   18CHL1  H26A 1326   5.430   6.009   5.158 -0.9831 -0.9597 -1.7886
   18CHL1  H26B 1327   5.325   6.155   5.198 -0.1973  0.7175 -0.4037
   18CHL1  H26C 1328   5.316   6.017   5.307 -0.4883 -0.5956 -0.5200
   18CHL1   C27 1329   5.246   6.014   4.969 -0.1186  0.1948 -0.5730
   18CHL1  H27A 1330   5.330   5.949   4.936 -0.2770  0.3994 -1.4109
   18CHL1  H27B 1331   5.156   5.986   4.910 -0.1921 -1.8777  0.4293
   18CHL1  H27C 1332   5.255   6.122   4.948 -1.8639 -0.0610 -3.0395
   19CHL1    C3 1333   3.845   4.736   6.124 -0.0344  0.0074  0.9179
   19CHL1    H3 1334   3.759   4.784   6.072 -1.5108 -2.0614  1.3291
   19CHL1    O3 1335   3.812   4.731   6.260 -0.3378  0.9355  0.1829
   19CHL1   H3' 1336   3.813   4.637   6.279 -3.3462  0.8387  0.4491
   19CHL1    C4 1337   3.871   4.592   6.074  0.1921  0.2680 -0.2078
   19CHL1   H4A 1338   3.960   4.548   6.126  0.2087  0.6609  0.1088
   19CHL1   H4B 1339   3.785   4.523   6.084  0.7130 -0.5043 -0.9914
   19CHL1    C5 1340   3.903   4.593   5.928  0.6333 -0.2038 -0.1125
   19CHL1    C6 1341   3.837   4.519   5.837  0.1088 -0.0989 -0.1718
   19CHL1    H6 1342   3.765   4.446   5.877 -2.1887  0.9021 -2.2118
   19CHL1    C7 1343   3.866   4.519   5.690 -0.1076 -0.4321 -0.5351
   19CHL1   H7A 1344   3.884   4.418   5.646  1.3053 -0.4687  0.0634
   19CHL1   H7B 1345   3.777   4.559   5.636  1.2096  1.1127 -1.6545
   19CHL1    C8 1346   3.996   4.599   5.647  0.4118  0.5928  0.1472
   19CHL1    H8 1347   4.074   4.525   5.677  0.2057 -0.6922 -2.2059
   19CHL1   C14 1348   3.991   4.637   5.501 -0.2042  0.6206  0.2336
   19CHL1   H14 1349   3.900   4.697   5.480 -1.0100 -0.8827 -0.8289
   19CHL1   C15 1350   3.973   4.523   5.397 -0.1422 -0.1379  0.1019
   19CHL1  H15A 1351   4.025   4.429   5.425  1.0697  0.1150 -1.1736
   19CHL1  H15B 1352   3.865   4.497   5.397 -0.3178  0.5155 -1.1919
   19CHL1   C16 1353   4.021   4.583   5.264 -0.3293 -0.6010  0.4007
   19CHL1  H16A 1354   4.102   4.517   5.229 -1.0021 -0.9006 -0.6269
   19CHL1  H16B 1355   3.935   4.616   5.201  0.5085  4.6461  1.5664
   19CHL1   C17 1356   4.090   4.719   5.302 -0.6174  0.0004 -0.6710
   19CHL1   H17 1357   4.013   4.797   5.282  0.9287  1.9354  0.5477
   19CHL1   C13 1358   4.111   4.712   5.456  0.7369 -0.5437 -0.0178
   19CHL1   C18 1359   4.229   4.621   5.485  0.0647 -0.6525 -0.0728
   19CHL1  H18A 1360   4.317   4.670   5.439  0.9147 -2.0045  0.0701
   19CHL1  H18B 1361   4.259   4.601   5.590  2.2091 -0.8948 -0.6920
   19CHL1  H18C 1362   4.220   4.519   5.443  2.7621 -1.1404  0.3775
   19CHL1   C12 1363   4.121   4.852   5.529 -0.0510 -0.3157 -0.4192
   19CHL1  H12A 1364   4.206   4.918   5.504  0.2593 -0.3088  0.6181
   19CHL1  H12B 1365   4.035   4.911   5.491  1.6341  0.9849 -2.4162
   19CHL1   C11 1366   4.117   4.825   5.682 -0.2943 -0.4982  0.2757
   19CHL1  H11A 1367   4.216   4.794   5.721  0.2967 -0.1300 -0.8592
   19CHL1  H11B 1368   4.103   4.923   5.733 -0.7076 -0.3592 -0.0969
   19CHL1    C9 1369   4.015   4.720   5.730  0.0735  0.5482 -0.0652
   19CHL1    H9 1370   3.925   4.781   5.708 -0.2037 -0.1248 -0.8320
   19CHL1   C10 1371   4.016   4.697   5.888  0.8336  0.2077  0.5237
   19CHL1   C19 1372   4.147   4.632   5.931  0.2769 -0.1681  0.3648
   19CHL1  H19A 1373   4.177   4.552   5.860  0.8809 -0.6851  1.1838
   19CHL1  H19B 1374   4.224   4.713   5.931  0.5620 -0.4150  1.5865
   19CHL1  H19C 1375   4.147   4.581   6.030  2.0889 -0.2402  0.3657
   19CHL1    C1 1376   3.995   4.839   5.962 -0.3996 -0.0817  0.5315
   19CHL1   H1A 1377   4.094   4.887   5.945 -0.2560 -0.1127  1.2343
   19CHL1   H1B 1378   3.909   4.889   5.913 -0.3658 -0.9061 -0.4031
   19CHL1    C2 1379   3.965   4.828   6.112  0.5946 -0.6650  0.3540
   19CHL1   H2A 1380   3.932   4.930   6.142 -2.0390 -1.3141 -0.0262
   19CHL1   H2B 1381   4.056   4.785   6.158  0.5109 -1.1348  0.0912
   19CHL1   C20 1382   4.202   4.766   5.199  0.1077  0.1893 -0.9940
   19CHL1   H20 1383   4.294   4.709   5.223 -0.8262 -0.9521  0.0121
   19CHL1   C21 1384   4.220   4.924   5.219  0.1320  0.8163  0.0311
   19CHL1  H21A 1385   4.125   4.982   5.220  0.3918  1.2482  0.6975
   19CHL1  H21B 1386   4.278   4.963   5.133 -0.3612 -0.5332 -0.9570
   19CHL1  H21C 1387   4.282   4.943   5.309 -0.5418  0.9892  0.4637
   19CHL1   C22 1388   4.156   4.746   5.054  0.0488  0.7257  0.6073
   19CHL1  H22A 1389   4.123   4.640   5.043  0.7795  0.5147  0.3731
   19CHL1  H22B 1390   4.071   4.814   5.036  0.3569  1.3175  1.3426
   19CHL1   C23 1391   4.270   4.776   4.949  0.0474 -0.6348  0.3043
   19CHL1  H23A 1392   4.306   4.880   4.963  0.5267 -0.7809  0.1858
   19CHL1  H23B 1393   4.356   4.706   4.965 -0.9222 -2.0381 -0.4190
   19CHL1   C24 1394   4.226   4.757   4.809  0.9135 -0.6246  0.7143
   19CHL1  H24A 1395   4.170   4.661   4.809  0.7038 -0.5244  1.9204
   19CHL1  H24B 1396   4.157   4.836   4.771 -2.5829 -3.5525  0.4556
   19CHL1   C25 1397   4.328   4.746   4.696 -0.5112  0.5913 -0.3303
   19CHL1   H25 1398   4.418   4.807   4.717 -0.5437 -0.2189  2.5849
   19CHL1   C26 1399   4.388   4.602   4.683  0.2861 -0.8146 -0.2988
   19CHL1  H26A 1400   4.440   4.574   4.778 -0.5774  3.0754  1.4985
   19CHL1  H26B 1401   4.309   4.525   4.672  2.3740 -2.7901 -3.0854
   19CHL1  H26C 1402   4.461   4.607   4.599  0.0284  0.7923 -0.4568
   19CHL1   C27 1403   4.268   4.785   4.564  0.1078  0.0481 -0.0470
   19CHL1  H27A 1404   4.270   4.896   4.562  0.4262  0.0452 -1.8507
   19CHL1  H27B 1405   4.330   4.748   4.480 -0.6540 -1.3562 -0.0328
   19CHL1  H27C 1406   4.175   4.733   4.531  1.6350 -0.5642 -3.9428
   20CHL1    C3 1407   4.109   5.239   6.380 -0.2809 -0.1278 -0.0754
   20CHL1    H3 1408   4.180   5.156   6.399 -0.8843 -0.9396 -1.2566
   20CHL1    O3 1409   4.040   5.252   6.505  0.7720 -0.4280  0.1831
   20CHL1   H3' 1410   3.986   5.329   6.483 -0.6799 -1.4170  0.2013
   20CHL1    C4 1411   4.186   5.370   6.333 -0.7200 -0.2982 -0.4572
   20CHL1   H4A 1412   4.110   5.451   6.336  0.8152  1.1806  1.0508
   20CHL1   H4B 1413   4.271   5.393   6.401  0.4274 -1.2093 -1.5320
   20CHL1    C5 1414   4.243   5.360   6.197 -0.2592  0.3096 -0.6499
   20CHL1    C6 1415   4.376   5.392   6.179 -1.1119  0.0769  0.2538
   20CHL1    H6 1416   4.437   5.433   6.262 -0.6176  0.9450 -0.5186
   20CHL1    C7 1417   4.443   5.395   6.044  0.0580 -0.2425  0.9204
   20CHL1   H7A 1418   4.484   5.498   6.029 -2.1422  1.0082  2.8809
   20CHL1   H7B 1419   4.523   5.320   6.027 -0.4940 -0.8918  1.1573
   20CHL1    C8 1420   4.339   5.376   5.922  0.2292 -0.5764 -0.0009
   20CHL1    H8 1421   4.287   5.474   5.918  2.1130  0.5554  1.4747
   20CHL1   C14 1422   4.404   5.341   5.793  0.1988 -0.1197 -0.5087
   20CHL1   H14 1423   4.450   5.241   5.808  3.0414  1.2441  0.5267
   20CHL1   C15 1424   4.510   5.439   5.740  0.3747  0.1602 -0.4091
   20CHL1  H15A 1425   4.491   5.541   5.780  1.2601 -0.0517  0.5836
   20CHL1  H15B 1426   4.612   5.410   5.772  0.2192 -0.5657 -0.5686
   20CHL1   C16 1427   4.515   5.422   5.587 -0.7992  0.4820  0.1604
   20CHL1  H16A 1428   4.492   5.523   5.549 -0.0178  0.3829 -0.6246
   20CHL1  H16B 1429   4.619   5.406   5.551 -0.6016 -1.5415  1.4577
   20CHL1   C17 1430   4.410   5.316   5.558  0.1822  0.7349  0.3262
   20CHL1   H17 1431   4.460   5.217   5.556  4.3308  2.6496 -0.9482
   20CHL1   C13 1432   4.307   5.330   5.675 -0.1599 -0.1240 -0.8759
   20CHL1   C18 1433   4.225   5.464   5.648 -0.3158  0.6309 -0.7495
   20CHL1  H18A 1434   4.290   5.547   5.612  0.7537  0.7624  1.3434
   20CHL1  H18B 1435   4.160   5.444   5.561  0.7187 -1.2593 -1.1498
   20CHL1  H18C 1436   4.187   5.511   5.741  0.1001  1.4359 -0.9763
   20CHL1   C12 1437   4.211   5.210   5.699  0.6456  0.0627  0.0239
   20CHL1  H12A 1438   4.144   5.196   5.612 -0.4467 -0.3973  0.9151
   20CHL1  H12B 1439   4.280   5.122   5.705  2.5005  1.3601 -1.2751
   20CHL1   C11 1440   4.142   5.228   5.831  0.5287 -0.1165  0.0408
   20CHL1  H11A 1441   4.055   5.295   5.814 -0.6334 -1.5404  0.2866
   20CHL1  H11B 1442   4.089   5.135   5.858 -0.1144  0.5072  0.9719
   20CHL1    C9 1443   4.230   5.269   5.955  0.4927 -0.0567  1.0361
   20CHL1    H9 1444   4.294   5.180   5.977  2.0212  1.1490  1.6433
   20CHL1   C10 1445   4.151   5.303   6.084 -0.6281  0.1623 -0.0958
   20CHL1   C19 1446   4.045   5.412   6.049 -0.0113 -0.3510  0.7789
   20CHL1  H19A 1447   3.988   5.449   6.137 -0.6728  1.4417 -0.3554
   20CHL1  H19B 1448   4.104   5.498   6.012  1.1279 -0.8122  1.4877
   20CHL1  H19C 1449   3.964   5.378   5.981  1.1602 -1.1220 -0.2747
   20CHL1    C1 1450   4.073   5.180   6.136  0.3171  0.4225 -0.0419
   20CHL1   H1A 1451   3.984   5.155   6.075 -1.5102  2.1860  1.7301
   20CHL1   H1B 1452   4.144   5.095   6.146  1.0925  0.8918 -1.3197
   20CHL1    C2 1453   4.006   5.205   6.275  0.1447  0.1901  0.8782
   20CHL1   H2A 1454   3.944   5.116   6.298  0.1395 -0.3559 -1.0100
   20CHL1   H2B 1455   3.939   5.293   6.278 -0.7890 -0.2832 -2.2811
   20CHL1   C20 1456   4.373   5.339   5.414  0.1039  0.1821  0.2930
   20CHL1   H20 1457   4.298   5.421   5.413  2.2560  2.3378  2.3655
   20CHL1   C21 1458   4.297   5.218   5.360 -0.8716  0.9035  0.4208
   20CHL1  H21A 1459   4.372   5.139   5.339 -0.1699  1.5237  0.5387
   20CHL1  H21B 1460   4.253   5.243   5.261  3.1469  1.2018 -1.4806
   20CHL1  H21C 1461   4.216   5.180   5.427 -0.2206  2.5150  2.2468
   20CHL1   C22 1462   4.485   5.384   5.311 -0.0412 -0.0552 -1.3843
   20CHL1  H22A 1463   4.500   5.493   5.319 -0.1917 -0.1218  0.1830
   20CHL1  H22B 1464   4.583   5.336   5.334  0.8662  1.9220 -0.9515
   20CHL1   C23 1465   4.450   5.359   5.167  0.1150  0.6762  0.5926
   20CHL1  H23A 1466   4.417   5.255   5.150 -1.9103  1.1713  1.1716
   20CHL1  H23B 1467   4.361   5.420   5.139  0.5175  0.2748 -1.7240
   20CHL1   C24 1468   4.557   5.383   5.056 -0.7431 -0.0501 -0.1819
   20CHL1  H24A 1469   4.605   5.483   5.068 -1.2059  0.1959 -0.3540
   20CHL1  H24B 1470   4.627   5.298   5.068  0.5242  0.7450 -1.5965
   20CHL1   C25 1471   4.508   5.383   4.902 -0.8628 -0.6330 -0.6559
   20CHL1   H25 1472   4.458   5.480   4.882  0.6284  0.0334 -1.3259
   20CHL1   C26 1473   4.636   5.362   4.821  0.3618 -0.8329  0.4624
   20CHL1  H26A 1474   4.715   5.426   4.866 -1.0198 -0.1354  2.0099
   20CHL1  H26B 1475   4.672   5.257   4.823  1.7216 -0.4067 -0.1215
   20CHL1  H26C 1476   4.603   5.379   4.716  0.1866 -0.8190  0.5206
   20CHL1   C27 1477   4.406   5.268   4.876 -0.3990  0.7677  0.5328
   20CHL1  H27A 1478   4.440   5.172   4.920  1.7649  0.5428 -1.4146
   20CHL1  H27B 1479   4.306   5.300   4.915 -0.1915  0.9036  0.9644
   20CHL1  H27C 1480   4.386   5.257   4.767 -2.1567 -0.1387  0.9053
   21CHL1    C3 1481   0.642   4.162   6.624  0.1598 -0.1359 -0.0681
   21CHL1    H3 1482   0.532   4.154   6.630  0.2726 -1.5686  0.8659
   21CHL1    O3 1483   0.693   4.188   6.756 -0.3705  0.0960  0.3406
   21CHL1   H3' 1484   0.788   4.195   6.744 -0.4637  3.4477  0.4367
   21CHL1    C4 1485   0.692   4.024   6.581 -0.1446  0.3974  0.9612
   21CHL1   H4A 1486   0.802   4.016   6.597 -0.1884 -0.2124  0.9945
   21CHL1   H4B 1487   0.642   3.948   6.644 -0.5327 -0.7350 -0.6439
   21CHL1    C5 1488   0.664   3.984   6.439 -0.2191 -0.0393  0.3209
   21CHL1    C6 1489   0.605   3.870   6.408  0.1131 -0.1397  0.0331
   21CHL1    H6 1490   0.561   3.801   6.482 -0.6971  0.9942  0.6373
   21CHL1    C7 1491   0.585   3.826   6.263  0.3273  0.6699 -0.3967
   21CHL1   H7A 1492   0.613   3.718   6.261  0.0052  0.5138  1.5840
   21CHL1   H7B 1493   0.477   3.831   6.239 -0.2751  0.0977  2.0029
   21CHL1    C8 1494   0.676   3.906   6.162  0.0212 -0.1091 -0.2823
   21CHL1    H8 1495   0.783   3.880   6.178 -0.2866 -0.2633  1.9393
   21CHL1   C14 1496   0.643   3.874   6.013 -0.2244  0.0638 -0.2486
   21CHL1   H14 1497   0.533   3.890   6.006 -0.1518  0.1677 -1.4166
   21CHL1   C15 1498   0.673   3.734   5.978 -0.5264 -0.5725 -0.1017
   21CHL1  H15A 1499   0.765   3.695   6.026 -1.0443 -1.7127 -0.0049
   21CHL1  H15B 1500   0.588   3.665   5.993 -0.2679 -1.1272 -1.1309
   21CHL1   C16 1501   0.692   3.740   5.826  0.2595  0.1184  0.0237
   21CHL1  H16A 1502   0.796   3.711   5.801  0.3070 -1.7868  2.1932
   21CHL1  H16B 1503   0.616   3.679   5.773 -1.6955  1.1612  1.4983
   21CHL1   C17 1504   0.678   3.887   5.780  0.4969 -0.3482 -0.3170
   21CHL1   H17 1505   0.569   3.905   5.766  0.2558  1.2701  2.8091
   21CHL1   C13 1506   0.716   3.960   5.910  0.0133 -0.6892  0.2470
   21CHL1   C18 1507   0.872   3.954   5.924 -0.2421 -0.3399  0.1194
   21CHL1  H18A 1508   0.915   3.859   5.885  3.8814  1.1528  0.4843
   21CHL1  H18B 1509   0.916   4.022   5.848 -0.5230 -1.4588 -1.0813
   21CHL1  H18C 1510   0.914   3.980   6.024  2.1701  0.2250 -0.9612
   21CHL1   C12 1511   0.667   4.105   5.933 -0.5278 -0.5296 -0.2512
   21CHL1  H12A 1512   0.729   4.167   5.865 -0.4147 -2.1418 -1.6831
   21CHL1  H12B 1513   0.558   4.120   5.918 -0.7312 -0.1477  1.3794
   21CHL1   C11 1514   0.706   4.149   6.084  0.2460 -0.6052  0.1534
   21CHL1  H11A 1515   0.817   4.156   6.081  0.3632 -2.3782 -2.8860
   21CHL1  H11B 1516   0.667   4.250   6.109 -1.3334 -0.6313 -1.9543
   21CHL1    C9 1517   0.656   4.057   6.194 -0.4025  0.5750  0.2886
   21CHL1    H9 1518   0.546   4.069   6.187 -0.1961  1.4108 -2.3231
   21CHL1   C10 1519   0.704   4.094   6.336  0.2462 -0.2760  0.1195
   21CHL1   C19 1520   0.859   4.111   6.333  0.0359  0.5554  0.2628
   21CHL1  H19A 1521   0.902   4.120   6.435  1.0021 -0.5996 -0.0220
   21CHL1  H19B 1522   0.913   4.030   6.281  3.0241  1.5689  1.5668
   21CHL1  H19C 1523   0.888   4.201   6.274 -1.8810  0.5853 -0.7337
   21CHL1    C1 1524   0.639   4.228   6.376  0.9687  0.3087  0.2865
   21CHL1   H1A 1525   0.673   4.314   6.315 -2.8791  2.7336  1.1959
   21CHL1   H1B 1526   0.529   4.212   6.373  1.3203 -2.6989 -2.3598
   21CHL1    C2 1527   0.668   4.277   6.519 -0.2015  0.0577 -0.3608
   21CHL1   H2A 1528   0.622   4.376   6.539 -0.7732  0.4740 -3.2975
   21CHL1   H2B 1529   0.776   4.300   6.525 -0.5126  1.1832  2.0290
   21CHL1   C20 1530   0.742   3.931   5.645 -0.4246  0.1575  0.0364
   21CHL1   H20 1531   0.848   3.957   5.667 -0.1195 -1.4027  0.5084
   21CHL1   C21 1532   0.675   4.067   5.601  0.1997 -0.3066 -0.4023
   21CHL1  H21A 1533   0.725   4.107   5.510  0.3456  2.7872  0.9255
   21CHL1  H21B 1534   0.699   4.144   5.677 -2.3606  0.3460 -0.1689
   21CHL1  H21C 1535   0.565   4.061   5.586 -0.0569  1.2113  0.6570
   21CHL1   C22 1536   0.740   3.832   5.528  0.2214  0.3334 -0.4182
   21CHL1  H22A 1537   0.818   3.755   5.545  0.5380  1.1335  2.0713
   21CHL1  H22B 1538   0.640   3.784   5.525  0.0227  0.7273 -2.8777
   21CHL1   C23 1539   0.764   3.905   5.394 -0.5760  0.3543 -0.8972
   21CHL1  H23A 1540   0.676   3.966   5.364  0.1712  1.6396 -0.5544
   21CHL1  H23B 1541   0.854   3.970   5.394  0.5160 -1.0440  1.1102
   21CHL1   C24 1542   0.805   3.798   5.290  0.1270  0.1382 -1.3401
   21CHL1  H24A 1543   0.907   3.769   5.323 -1.1386  0.3587  3.5957
   21CHL1  H24B 1544   0.745   3.705   5.290  1.3552 -0.6832 -1.9350
   21CHL1   C25 1545   0.802   3.843   5.141  1.0891 -0.3718 -0.1420
   21CHL1   H25 1546   0.876   3.923   5.122  0.0291  0.3569 -1.4102
   21CHL1   C26 1547   0.844   3.722   5.060  0.2049 -0.4273  0.3257
   21CHL1  H26A 1548   0.796   3.627   5.093 -1.9082  0.3195 -0.4703
   21CHL1  H26B 1549   0.825   3.741   4.952 -1.4709 -0.6291  0.5571
   21CHL1  H26C 1550   0.955   3.710   5.069  0.6576  0.6935 -2.6117
   21CHL1   C27 1551   0.660   3.883   5.092 -0.0795 -0.1021  0.3891
   21CHL1  H27A 1552   0.658   3.921   4.987  0.2549  0.0245  0.4273
   21CHL1  H27B 1553   0.591   3.800   5.117  1.2135 -0.7828  1.8611
   21CHL1  H27C 1554   0.631   3.969   5.156  1.3362  0.5382  0.2170
   22CHL1    C3 1555   2.680   3.201   6.500  0.4971  0.3506  0.0949
   22CHL1    H3 1556   2.777   3.163   6.462 -1.4074 -2.9383 -1.8999
   22CHL1    O3 1557   2.660   3.198   6.641  0.3229  0.0681 -0.2642
   22CHL1   H3' 1558   2.604   3.275   6.651 -1.3858 -1.1334 -0.1620
   22CHL1    C4 1559   2.657   3.343   6.451 -0.5194  0.3217  0.3136
   22CHL1   H4A 1560   2.565   3.391   6.491  0.1435  2.8276 -0.9053
   22CHL1   H4B 1561   2.735   3.410   6.493  0.4299  0.0919 -1.0307
   22CHL1    C5 1562   2.648   3.351   6.300 -0.3680  0.4938  0.3327
   22CHL1    C6 1563   2.730   3.436   6.236 -0.3439  0.1532  1.0685
   22CHL1    H6 1564   2.803   3.496   6.292  0.4820  1.2187 -1.0020
   22CHL1    C7 1565   2.724   3.461   6.089  0.2439 -0.5220  0.1257
   22CHL1   H7A 1566   2.720   3.567   6.054  2.3064 -0.7671 -1.0096
   22CHL1   H7B 1567   2.812   3.415   6.039  0.5945  0.8592 -0.5921
   22CHL1    C8 1568   2.599   3.391   6.015  0.0783 -0.2213 -0.2583
   22CHL1    H8 1569   2.511   3.456   6.035  1.5036  2.3200 -1.8078
   22CHL1   C14 1570   2.609   3.386   5.861 -0.4538 -0.2671  0.1065
   22CHL1   H14 1571   2.707   3.336   5.847 -1.6195 -2.3929 -0.9907
   22CHL1   C15 1572   2.616   3.525   5.794 -0.3215  0.0582 -0.1555
   22CHL1  H15A 1573   2.545   3.595   5.842 -0.4743  1.0118 -1.7224
   22CHL1  H15B 1574   2.718   3.569   5.796 -0.5546  0.6159 -0.4078
   22CHL1   C16 1575   2.567   3.493   5.651 -0.5471 -0.4878  0.5788
   22CHL1  H16A 1576   2.488   3.565   5.623  1.0403  0.9035 -0.5742
   22CHL1  H16B 1577   2.651   3.541   5.597 -1.9945  2.6367  0.8902
   22CHL1   C17 1578   2.530   3.340   5.636  0.1085  0.6020 -0.5965
   22CHL1   H17 1579   2.626   3.287   5.617  0.2991 -0.0351  1.7538
   22CHL1   C13 1580   2.499   3.309   5.784 -0.1406 -0.1069  0.1585
   22CHL1   C18 1581   2.363   3.369   5.814 -0.0987 -0.6026 -0.6911
   22CHL1  H18A 1582   2.290   3.305   5.761  0.9627  0.2635 -3.3938
   22CHL1  H18B 1583   2.326   3.357   5.918 -3.2307  0.5931 -1.5645
   22CHL1  H18C 1584   2.339   3.474   5.785 -2.0740 -1.1593 -1.1683
   22CHL1   C12 1585   2.516   3.162   5.832  0.2299 -0.0963  0.0093
   22CHL1  H12A 1586   2.439   3.090   5.797 -0.6984  0.4669  0.8481
   22CHL1  H12B 1587   2.623   3.139   5.811  0.7115  0.8335  1.3616
   22CHL1   C11 1588   2.496   3.154   5.985 -0.1081  1.0386 -0.2989
   22CHL1  H11A 1589   2.386   3.167   5.998 -0.1330  1.3383 -0.7908
   22CHL1  H11B 1590   2.528   3.051   6.011  0.5875  1.0764 -0.9726
   22CHL1    C9 1591   2.581   3.250   6.074  0.1061  0.2074 -0.0282
   22CHL1    H9 1592   2.681   3.203   6.061  0.3439  0.6725  0.1325
   22CHL1   C10 1593   2.554   3.252   6.226  0.9098 -0.2625  1.1716
   22CHL1   C19 1594   2.414   3.302   6.254  0.0942  0.1457  0.4938
   22CHL1  H19A 1595   2.386   3.274   6.358  1.1744 -0.6027  0.6054
   22CHL1  H19B 1596   2.413   3.411   6.233  5.1541  0.2756 -0.3454
   22CHL1  H19C 1597   2.351   3.244   6.183 -1.4811 -0.2930  2.1694
   22CHL1    C1 1598   2.565   3.106   6.278 -0.5318  0.8111 -0.2226
   22CHL1   H1A 1599   2.483   3.040   6.244  0.4194 -0.7076  0.3134
   22CHL1   H1B 1600   2.654   3.062   6.227 -1.3592  1.0713 -1.9479
   22CHL1    C2 1601   2.577   3.101   6.435 -0.5979  0.6029  0.1786
   22CHL1   H2A 1602   2.614   3.001   6.469 -1.5768 -0.3263 -1.3830
   22CHL1   H2B 1603   2.475   3.111   6.476 -0.5044  0.6753  0.3954
   22CHL1   C20 1604   2.429   3.307   5.525  0.2017 -0.3590  0.4641
   22CHL1   H20 1605   2.341   3.375   5.535  0.5587  0.4813 -1.7024
   22CHL1   C21 1606   2.387   3.161   5.539  0.1848 -0.0696  0.4781
   22CHL1  H21A 1607   2.477   3.095   5.543  1.4056  1.1524 -3.1060
   22CHL1  H21B 1608   2.321   3.128   5.456  0.3243 -1.5707  0.9245
   22CHL1  H21C 1609   2.330   3.147   5.634  0.3265 -1.1127  0.4244
   22CHL1   C22 1610   2.482   3.348   5.380  0.5984 -0.0281 -0.1881
   22CHL1  H22A 1611   2.399   3.342   5.307  1.9481  3.8676 -2.3240
   22CHL1  H22B 1612   2.510   3.455   5.382 -2.2736  0.8261 -1.5275
   22CHL1   C23 1613   2.603   3.273   5.329 -0.1773  0.8959  0.1941
   22CHL1  H23A 1614   2.682   3.298   5.403  0.9418  1.8795 -1.3024
   22CHL1  H23B 1615   2.577   3.165   5.342 -0.6569  1.2012  2.2130
   22CHL1   C24 1616   2.641   3.321   5.191  0.1626  0.0718 -0.0207
   22CHL1  H24A 1617   2.667   3.428   5.201  1.0753  0.1560 -2.6087
   22CHL1  H24B 1618   2.737   3.273   5.162  0.8964  1.9043 -0.7699
   22CHL1   C25 1619   2.528   3.325   5.085 -0.0686 -0.0012 -0.6061
   22CHL1   H25 1620   2.459   3.410   5.105 -0.6174 -0.6169  0.1703
   22CHL1   C26 1621   2.591   3.356   4.947 -0.1765 -0.7449  0.6350
   22CHL1  H26A 1622   2.649   3.267   4.917 -0.5461 -0.1056 -2.3145
   22CHL1  H26B 1623   2.508   3.364   4.873  0.8493  1.1614 -0.4246
   22CHL1  H26C 1624   2.653   3.448   4.954 -0.0177 -0.7669 -0.3659
   22CHL1   C27 1625   2.455   3.191   5.080  0.7969  0.2015  0.4703
   22CHL1  H27A 1626   2.402   3.179   5.177 -1.5606  0.3027 -0.7466
   22CHL1  H27B 1627   2.373   3.186   5.005  2.2250 -1.1376 -1.0919
   22CHL1  H27C 1628   2.521   3.105   5.053  1.0520  0.6541 -0.3751
   23CHL1    C3 1629   2.330   6.376   6.292  0.1633 -0.1109 -0.0890
   23CHL1    H3 1630   2.233   6.424   6.266  0.7982  0.7863 -0.8947
   23CHL1    O3 1631   2.318   6.327   6.424 -0.3636  0.4456 -0.4744
   23CHL1   H3' 1632   2.394   6.268   6.433  1.8910  3.0044 -1.3239
   23CHL1    C4 1633   2.353   6.267   6.190  0.2026  0.7556 -0.1734
   23CHL1   H4A 1634   2.437   6.206   6.229 -0.8285 -0.5094  0.1434
   23CHL1   H4B 1635   2.262   6.205   6.199  1.3647 -0.8603  1.0020
   23CHL1    C5 1636   2.372   6.312   6.045 -1.0300  0.1974  0.6207
   23CHL1    C6 1637   2.300   6.266   5.941 -0.0431  0.3756  0.3446
   23CHL1    H6 1638   2.228   6.185   5.959  0.6740 -0.0149  1.5839
   23CHL1    C7 1639   2.307   6.307   5.800 -0.7871 -0.6789 -0.3369
   23CHL1   H7A 1640   2.313   6.215   5.738 -0.6295 -1.5636  0.9692
   23CHL1   H7B 1641   2.216   6.365   5.775  0.0395  0.6513 -0.3707
   23CHL1    C8 1642   2.427   6.395   5.771  0.2064  0.0229 -0.9772
   23CHL1    H8 1643   2.520   6.336   5.757 -0.4261 -0.9765 -1.1086
   23CHL1   C14 1644   2.397   6.485   5.646 -0.5318  0.4454  0.0455
   23CHL1   H14 1645   2.313   6.552   5.672 -2.4551 -1.4516 -1.0280
   23CHL1   C15 1646   2.343   6.418   5.512  0.1619 -0.3316  0.7048
   23CHL1  H15A 1647   2.407   6.333   5.481  0.9428 -0.1900  1.8327
   23CHL1  H15B 1648   2.239   6.380   5.513 -0.2969  0.7365 -1.2611
   23CHL1   C16 1649   2.353   6.537   5.413  0.1171  0.2564  0.1751
   23CHL1  H16A 1650   2.407   6.493   5.327 -0.5690 -1.2141  0.4792
   23CHL1  H16B 1651   2.257   6.581   5.379 -0.0032 -1.5419 -2.0384
   23CHL1   C17 1652   2.446   6.641   5.480 -0.8199  0.3391 -0.8427
   23CHL1   H17 1653   2.366   6.704   5.524 -1.6780 -0.6489 -0.9601
   23CHL1   C13 1654   2.509   6.573   5.596  0.4024 -0.2051 -0.6316
   23CHL1   C18 1655   2.631   6.492   5.557  0.4157  0.9137  0.0064
   23CHL1  H18A 1656   2.670   6.425   5.636  0.0054  1.2679  0.5182
   23CHL1  H18B 1657   2.613   6.434   5.464  3.7009 -1.3364  0.5933
   23CHL1  H18C 1658   2.722   6.549   5.530  1.7323 -0.7950  0.6798
   23CHL1   C12 1659   2.535   6.675   5.715 -0.0432  0.1638 -0.2449
   23CHL1  H12A 1660   2.613   6.747   5.683 -0.8535  0.8714 -0.6704
   23CHL1  H12B 1661   2.434   6.721   5.724  0.2011  0.8657 -0.9986
   23CHL1   C11 1662   2.574   6.602   5.848  0.1220 -0.0351 -0.2319
   23CHL1  H11A 1663   2.673   6.557   5.826  1.0234  2.3287 -1.2443
   23CHL1  H11B 1664   2.590   6.672   5.933 -1.2358  0.6555 -0.5219
   23CHL1    C9 1665   2.460   6.494   5.881 -0.3887  0.4752 -0.6270
   23CHL1    H9 1666   2.363   6.549   5.888 -0.0590  1.1617 -1.3067
   23CHL1   C10 1667   2.478   6.425   6.028  0.4053  0.2426  0.4952
   23CHL1   C19 1668   2.616   6.356   6.037  0.1777  0.6392  0.1693
   23CHL1  H19A 1669   2.695   6.434   6.032 -0.6762  1.6013  1.1248
   23CHL1  H19B 1670   2.630   6.308   6.136 -2.6419  2.0523  1.3686
   23CHL1  H19C 1671   2.624   6.281   5.955  2.4197  0.3954  0.5367
   23CHL1    C1 1672   2.459   6.535   6.134  0.0417  0.2427 -0.1703
   23CHL1   H1A 1673   2.552   6.596   6.135  1.4740 -1.8343  1.2212
   23CHL1   H1B 1674   2.373   6.598   6.106  1.7785  4.0743  2.2655
   23CHL1    C2 1675   2.433   6.483   6.280  0.0012 -0.1603  0.1881
   23CHL1   H2A 1676   2.409   6.568   6.348  0.9034 -1.1747  1.8468
   23CHL1   H2B 1677   2.531   6.449   6.321 -0.0410  1.4603  1.7507
   23CHL1   C20 1678   2.539   6.735   5.394  0.3836  0.6718 -0.0995
   23CHL1   H20 1679   2.628   6.764   5.453  1.2054 -1.3271 -0.2795
   23CHL1   C21 1680   2.464   6.868   5.376 -0.6491  0.9809  0.2187
   23CHL1  H21A 1681   2.511   6.949   5.316 -2.2502  1.0077 -1.0498
   23CHL1  H21B 1682   2.459   6.909   5.479  1.2544  0.9468  0.3688
   23CHL1  H21C 1683   2.358   6.850   5.350 -0.2293  2.7985 -3.3743
   23CHL1   C22 1684   2.588   6.671   5.263 -0.5497  0.0324 -0.2785
   23CHL1  H22A 1685   2.652   6.585   5.291 -0.5610  0.5825  1.6184
   23CHL1  H22B 1686   2.517   6.621   5.195  1.9282 -3.0431 -0.8529
   23CHL1   C23 1687   2.679   6.777   5.187 -0.3655  0.2603  0.3381
   23CHL1  H23A 1688   2.609   6.834   5.122 -2.4252  0.6268  2.7417
   23CHL1  H23B 1689   2.729   6.844   5.260 -1.4773 -1.2030  2.5617
   23CHL1   C24 1690   2.765   6.695   5.092  0.2193 -0.0933 -0.7297
   23CHL1  H24A 1691   2.841   6.661   5.166  1.3813  3.0264 -0.3494
   23CHL1  H24B 1692   2.699   6.613   5.058 -0.6841  0.4702 -0.3611
   23CHL1   C25 1693   2.831   6.770   4.978  0.2810  0.7385  0.4773
   23CHL1   H25 1694   2.750   6.813   4.915 -0.4608 -0.7789  0.3624
   23CHL1   C26 1695   2.926   6.874   5.018  0.4696 -0.6295  0.0506
   23CHL1  H26A 1696   3.018   6.825   5.055 -0.9528 -1.5893  2.5544
   23CHL1  H26B 1697   2.948   6.949   4.939  0.2444  0.7981  1.2934
   23CHL1  H26C 1698   2.878   6.931   5.100 -1.0393 -1.0339 -0.5009
   23CHL1   C27 1699   2.902   6.669   4.882 -0.0041 -0.0808 -0.3960
   23CHL1  H27A 1700   2.834   6.590   4.844  0.0311 -0.1804 -0.2518
   23CHL1  H27B 1701   2.941   6.726   4.795 -1.0107  2.1516  0.5378
   23CHL1  H27C 1702   2.986   6.615   4.930 -0.0906 -0.5814 -0.7960
   24CHL1    C3 1703   2.493   5.252   6.544  0.3848  0.1136 -0.0883
   24CHL1    H3 1704   2.431   5.161   6.527 -0.3997  0.7001 -0.4579
   24CHL1    O3 1705   2.532   5.264   6.678 -0.0985 -0.4718  0.4889
   24CHL1   H3' 1706   2.553   5.356   6.694 -0.5965 -0.2570 -0.0885
   24CHL1    C4 1707   2.609   5.249   6.442  0.0473  0.0541 -1.0396
   24CHL1   H4A 1708   2.675   5.332   6.473 -1.9396  1.1434  0.5453
   24CHL1   H4B 1709   2.665   5.157   6.468 -1.2534 -1.7336 -3.9745
   24CHL1    C5 1710   2.568   5.256   6.299 -0.1758  0.1769 -0.1328
   24CHL1    C6 1711   2.619   5.176   6.207 -0.1133  0.2912  0.2147
   24CHL1    H6 1712   2.686   5.096   6.244  0.9041  1.7739  1.7301
   24CHL1    C7 1713   2.606   5.187   6.058  0.5143  0.3376  0.4492
   24CHL1   H7A 1714   2.699   5.195   5.998  0.8746 -2.4029  0.5241
   24CHL1   H7B 1715   2.556   5.095   6.022  0.5228  0.3609  0.3778
   24CHL1    C8 1716   2.525   5.312   6.024  0.2350 -0.5625 -0.8586
   24CHL1    H8 1717   2.593   5.400   6.028  1.1817 -1.3100  0.0151
   24CHL1   C14 1718   2.470   5.317   5.882  0.3645 -0.4609 -0.0474
   24CHL1   H14 1719   2.395   5.235   5.887 -0.6617  0.5040  1.1439
   24CHL1   C15 1720   2.569   5.297   5.768  0.1019 -0.2885  0.0295
   24CHL1  H15A 1721   2.646   5.377   5.773 -1.9439  1.8897 -0.9756
   24CHL1  H15B 1722   2.605   5.194   5.748  0.1835 -0.5095  1.2467
   24CHL1   C16 1723   2.483   5.326   5.643 -0.4959 -0.5679 -0.2074
   24CHL1  H16A 1724   2.541   5.391   5.574 -0.3276 -0.3912  0.1000
   24CHL1  H16B 1725   2.452   5.230   5.596 -0.9597  0.0012 -1.0916
   24CHL1   C17 1726   2.355   5.400   5.686  0.5138  0.6292  1.4246
   24CHL1   H17 1727   2.274   5.323   5.681  0.2067  1.0299 -1.5163
   24CHL1   C13 1728   2.380   5.434   5.836 -0.0106 -0.1643  0.5631
   24CHL1   C18 1729   2.450   5.572   5.840 -0.6385  0.0217 -0.0698
   24CHL1  H18A 1730   2.490   5.602   5.940 -0.8987  0.2754 -0.0410
   24CHL1  H18B 1731   2.533   5.580   5.767 -1.2683  0.3469 -0.7577
   24CHL1  H18C 1732   2.376   5.650   5.817 -1.9892 -0.9795  0.6969
   24CHL1   C12 1733   2.261   5.424   5.936 -0.1214 -0.2622  0.1726
   24CHL1  H12A 1734   2.175   5.490   5.915 -1.7606 -2.8031 -1.7711
   24CHL1  H12B 1735   2.223   5.320   5.926  0.2838 -0.3243 -0.8106
   24CHL1   C11 1736   2.305   5.444   6.078 -0.0194 -0.4142 -0.4891
   24CHL1  H11A 1737   2.340   5.548   6.095 -0.1947 -0.5862  1.0501
   24CHL1  H11B 1738   2.217   5.440   6.145  0.9997  0.6822  0.9716
   24CHL1    C9 1739   2.408   5.337   6.126 -0.0362 -0.0580  0.7208
   24CHL1    H9 1740   2.355   5.240   6.121  0.0066 -0.0470 -0.1047
   24CHL1   C10 1741   2.462   5.362   6.274 -0.7938  0.4843  0.4584
   24CHL1   C19 1742   2.518   5.503   6.278 -0.0135  0.4027 -0.4106
   24CHL1  H19A 1743   2.590   5.528   6.197  0.0329  1.4330 -0.0675
   24CHL1  H19B 1744   2.432   5.572   6.278 -0.2453  0.1180 -0.7476
   24CHL1  H19C 1745   2.591   5.522   6.359 -1.1285  1.6202  0.3335
   24CHL1    C1 1746   2.347   5.351   6.376 -0.0620 -0.7798 -0.6922
   24CHL1   H1A 1747   2.277   5.434   6.352 -0.0340 -1.0616 -1.8600
   24CHL1   H1B 1748   2.296   5.252   6.368  2.0125 -2.0640  0.8254
   24CHL1    C2 1749   2.397   5.365   6.517 -0.0352  0.3289 -0.2006
   24CHL1   H2A 1750   2.306   5.358   6.582  0.1145 -0.7234 -0.0936
   24CHL1   H2B 1751   2.436   5.466   6.543  0.0745 -0.0913  1.4314
   24CHL1   C20 1752   2.299   5.505   5.585 -0.6636  0.3430  0.0607
   24CHL1   H20 1753   2.374   5.587   5.581 -0.4824  0.1633 -0.2824
   24CHL1   C21 1754   2.163   5.552   5.639 -0.3234  0.3077 -0.6796
   24CHL1  H21A 1755   2.193   5.597   5.736  0.8328 -3.0622  0.7017
   24CHL1  H21B 1756   2.091   5.471   5.665 -0.4125  0.7670  0.5702
   24CHL1  H21C 1757   2.122   5.637   5.582 -0.1321  0.3978 -0.6839
   24CHL1   C22 1758   2.280   5.446   5.441 -0.0185 -0.3757  0.1546
   24CHL1  H22A 1759   2.368   5.394   5.396 -1.3559 -0.2289 -2.8546
   24CHL1  H22B 1760   2.193   5.377   5.446 -0.5741  0.2113 -1.0809
   24CHL1   C23 1761   2.234   5.545   5.334  0.6313 -0.4175 -0.2209
   24CHL1  H23A 1762   2.151   5.606   5.377  2.0039  2.5496 -1.4344
   24CHL1  H23B 1763   2.319   5.615   5.317 -1.4292  1.8619 -1.7925
   24CHL1   C24 1764   2.193   5.475   5.206  0.5950 -0.1685  0.9237
   24CHL1  H24A 1765   2.271   5.402   5.176 -0.1162 -0.6705  0.2518
   24CHL1  H24B 1766   2.105   5.415   5.237  0.9059  0.2025  2.6474
   24CHL1   C25 1767   2.159   5.562   5.084 -0.4367 -0.1179  0.7612
   24CHL1   H25 1768   2.135   5.488   5.005  0.4112 -1.3375  1.6201
   24CHL1   C26 1769   2.044   5.663   5.122 -0.7727 -0.1003  1.7429
   24CHL1  H26A 1770   2.041   5.745   5.048  2.5901 -0.2154  1.3128
   24CHL1  H26B 1771   1.944   5.615   5.127 -0.9009 -0.0683  0.0010
   24CHL1  H26C 1772   2.066   5.721   5.214  1.6686 -0.6042  1.5476
   24CHL1   C27 1773   2.280   5.640   5.039  0.5005  0.4574  0.1116
   24CHL1  H27A 1774   2.251   5.715   4.963  0.3150  0.8342  0.5487
   24CHL1  H27B 1775   2.340   5.690   5.118  1.0526  0.0103 -0.0216
   24CHL1  H27C 1776   2.354   5.568   4.998  1.2717  1.0637  0.4254
   25CHL1    C3 1777   0.579   4.689   6.287  0.2761  0.3190  0.6884
   25CHL1    H3 1778   0.527   4.591   6.300 -2.0875  1.3701 -0.3270
   25CHL1    O3 1779   0.582   4.745   6.413 -0.2489 -0.2904 -0.2337
   25CHL1   H3' 1780   0.619   4.832   6.394 -0.0198 -0.6320 -1.4769
   25CHL1    C4 1781   0.720   4.659   6.236 -0.1515 -0.0021 -0.6597
   25CHL1   H4A 1782   0.773   4.754   6.258  1.3174 -0.9765  0.1571
   25CHL1   H4B 1783   0.772   4.586   6.301  0.1352 -0.9101 -1.8542
   25CHL1    C5 1784   0.738   4.619   6.095 -0.0263  0.7029  0.4630
   25CHL1    C6 1785   0.797   4.501   6.064 -1.0101  0.3512 -0.1590
   25CHL1    H6 1786   0.829   4.436   6.147  1.2446 -1.2659 -2.1630
   25CHL1    C7 1787   0.823   4.442   5.930 -0.3384  0.2571  0.8706
   25CHL1   H7A 1788   0.922   4.397   5.911 -0.4491 -0.5168  2.0140
   25CHL1   H7B 1789   0.744   4.367   5.911 -1.0717  0.6974  2.0319
   25CHL1    C8 1790   0.801   4.567   5.823  0.0752  0.8874  0.4178
   25CHL1    H8 1791   0.890   4.634   5.834  0.2571  1.0019 -1.4469
   25CHL1   C14 1792   0.804   4.508   5.676  0.2133 -0.2307  0.0350
   25CHL1   H14 1793   0.713   4.444   5.676 -0.1673  0.1530  3.5326
   25CHL1   C15 1794   0.912   4.414   5.624 -0.4913  1.1021  0.5052
   25CHL1  H15A 1795   1.015   4.443   5.655 -0.2902  0.6644  0.2441
   25CHL1  H15B 1796   0.891   4.312   5.663  0.8805  0.7493  0.4034
   25CHL1   C16 1797   0.897   4.416   5.468  0.4189 -0.0906 -1.1552
   25CHL1  H16A 1798   0.990   4.465   5.432 -0.5838  1.2384 -2.0036
   25CHL1  H16B 1799   0.895   4.310   5.434  2.2035 -0.7287  0.4938
   25CHL1   C17 1800   0.779   4.498   5.446 -0.0778  0.4064  0.3326
   25CHL1   H17 1801   0.685   4.442   5.465 -1.2579  2.3481  0.4998
   25CHL1   C13 1802   0.778   4.599   5.558  0.3539 -0.1926  0.0619
   25CHL1   C18 1803   0.889   4.713   5.544  0.3547  0.3757  0.6531
   25CHL1  H18A 1804   0.913   4.773   5.635  2.4380  0.0172  0.3792
   25CHL1  H18B 1805   0.981   4.656   5.517 -0.8838 -0.7748 -1.3569
   25CHL1  H18C 1806   0.861   4.778   5.458  0.2420  0.3549  0.6741
   25CHL1   C12 1807   0.639   4.673   5.591  0.0063 -0.3760 -0.5451
   25CHL1  H12A 1808   0.617   4.749   5.513 -0.8912 -0.1989 -0.1312
   25CHL1  H12B 1809   0.553   4.603   5.601 -0.6388  0.6532  1.8578
   25CHL1   C11 1810   0.645   4.743   5.729 -0.5483  0.1228  0.4771
   25CHL1  H11A 1811   0.721   4.823   5.721 -0.2009 -0.2802 -0.3761
   25CHL1  H11B 1812   0.550   4.798   5.744 -0.5198  0.6829 -1.1950
   25CHL1    C9 1813   0.673   4.648   5.848  0.0222 -0.0540  0.3412
   25CHL1    H9 1814   0.587   4.577   5.845  0.5052 -0.6125 -0.9010
   25CHL1   C10 1815   0.672   4.709   5.991  0.5222 -0.2153 -0.2598
   25CHL1   C19 1816   0.737   4.847   5.985  0.3085 -0.3466  0.4262
   25CHL1  H19A 1817   0.660   4.911   5.937  0.7639 -2.2073 -3.1253
   25CHL1  H19B 1818   0.760   4.896   6.081 -1.0820  2.5504 -0.6154
   25CHL1  H19C 1819   0.822   4.848   5.914  0.2672 -1.5195  0.3351
   25CHL1    C1 1820   0.525   4.730   6.044 -0.4579  0.3935 -0.5034
   25CHL1   H1A 1821   0.482   4.812   5.983 -1.4882  2.5263  2.8127
   25CHL1   H1B 1822   0.473   4.632   6.042  0.9616 -0.4342  1.0891
   25CHL1    C2 1823   0.502   4.780   6.185  0.0958  0.3846  0.1251
   25CHL1   H2A 1824   0.393   4.795   6.202 -0.5071 -1.9274 -1.2374
   25CHL1   H2B 1825   0.555   4.878   6.191 -0.5371  0.7404 -0.0762
   25CHL1   C20 1826   0.772   4.548   5.297  0.1739 -0.1875  0.3631
   25CHL1   H20 1827   0.712   4.642   5.301 -2.0339 -1.5521  1.5421
   25CHL1   C21 1828   0.702   4.444   5.208 -0.6032 -0.3352 -0.9094
   25CHL1  H21A 1829   0.708   4.459   5.098  0.4895  2.8143 -0.5285
   25CHL1  H21B 1830   0.598   4.465   5.239 -0.8612 -2.5454 -0.0983
   25CHL1  H21C 1831   0.732   4.339   5.225 -1.7423 -0.8841 -2.1430
   25CHL1   C22 1832   0.910   4.587   5.231 -0.0044 -0.5084  0.3071
   25CHL1  H22A 1833   0.978   4.644   5.298  1.1467 -0.7438 -0.6192
   25CHL1  H22B 1834   0.959   4.497   5.188 -0.7093 -0.4947 -0.5639
   25CHL1   C23 1835   0.905   4.677   5.116 -0.4244  0.4144  0.1221
   25CHL1  H23A 1836   0.846   4.638   5.030  1.7491  0.4610 -1.4822
   25CHL1  H23B 1837   0.843   4.761   5.154  0.7608  1.3589  0.0177
   25CHL1   C24 1838   1.038   4.732   5.076 -0.3223 -0.4706  1.2660
   25CHL1  H24A 1839   1.071   4.807   5.151  0.3961  0.5931 -0.0692
   25CHL1  H24B 1840   1.124   4.662   5.084 -1.2093 -1.5773  1.5387
   25CHL1   C25 1841   1.044   4.783   4.937  0.1906 -0.6117  0.0325
   25CHL1   H25 1842   0.963   4.859   4.932  0.7425  0.1955  2.2676
   25CHL1   C26 1843   1.164   4.871   4.901  0.2510 -0.3059 -0.3651
   25CHL1  H26A 1844   1.163   4.969   4.953 -0.9428 -1.0482  1.0934
   25CHL1  H26B 1845   1.257   4.823   4.940  0.5183  0.3258 -0.2210
   25CHL1  H26C 1846   1.170   4.874   4.790  1.3009 -1.5843 -0.3737
   25CHL1   C27 1847   1.032   4.669   4.830 -0.0577  0.6841  0.0143
   25CHL1  H27A 1848   1.117   4.601   4.852  0.4955  1.7990  1.5647
   25CHL1  H27B 1849   0.945   4.603   4.848  0.5398 -0.5342 -1.3652
   25CHL1  H27C 1850   1.038   4.702   4.724 -1.6836 -1.6047 -0.8549
   26CHL1    C3 1851   4.716   4.335   5.925  0.4471  0.0653 -0.7020
   26CHL1    H3 1852   4.744   4.229   5.907  0.4719  0.3929 -2.8346
   26CHL1    O3 1853   4.758   4.365   6.060 -0.3116 -0.0328 -0.2012
   26CHL1   H3' 1854   4.756   4.282   6.108  3.1379  0.3674  0.8600
   26CHL1    C4 1855   4.795   4.424   5.827 -0.3973  1.4587  0.3980
   26CHL1   H4A 1856   4.773   4.531   5.847  0.4488  1.5929  0.6772
   26CHL1   H4B 1857   4.904   4.412   5.846 -0.4313  0.1122 -0.1283
   26CHL1    C5 1858   4.759   4.376   5.686  0.4009  0.1266  0.2879
   26CHL1    C6 1859   4.850   4.332   5.601  0.5726 -0.2139 -0.4444
   26CHL1    H6 1860   4.957   4.335   5.624  0.3922 -0.6333  0.4820
   26CHL1    C7 1861   4.826   4.296   5.459  0.1076  0.5413 -0.5531
   26CHL1   H7A 1862   4.896   4.350   5.393  1.1529 -0.1911 -0.0790
   26CHL1   H7B 1863   4.846   4.189   5.438  0.0949  0.4827 -0.2678
   26CHL1    C8 1864   4.683   4.326   5.412 -0.4341 -0.0358  0.0015
   26CHL1    H8 1865   4.675   4.436   5.394  0.5202  0.4095  2.0224
   26CHL1   C14 1866   4.654   4.250   5.281 -0.2549  0.1495  0.2494
   26CHL1   H14 1867   4.667   4.146   5.319  0.4879  1.3938  3.8578
   26CHL1   C15 1868   4.756   4.249   5.166 -0.0029 -0.2606  0.5639
   26CHL1  H15A 1869   4.785   4.355   5.147  2.4738 -0.3714  3.1556
   26CHL1  H15B 1870   4.856   4.204   5.179  0.4903  0.6055 -0.0427
   26CHL1   C16 1871   4.672   4.198   5.042  0.0527 -0.5078 -0.2461
   26CHL1  H16A 1872   4.682   4.269   4.958 -0.8455 -1.7370 -1.4245
   26CHL1  H16B 1873   4.715   4.098   5.023 -2.8078 -2.4314  2.2978
   26CHL1   C17 1874   4.525   4.180   5.099  0.1379  0.3401 -0.5317
   26CHL1   H17 1875   4.533   4.075   5.135  0.0891  0.7953  0.8716
   26CHL1   C13 1876   4.512   4.267   5.227 -0.6872  0.0230 -0.2825
   26CHL1   C18 1877   4.492   4.415   5.179 -0.0725  0.1679  0.0075
   26CHL1  H18A 1878   4.394   4.437   5.130 -0.5219 -3.4501 -0.9853
   26CHL1  H18B 1879   4.513   4.483   5.264  0.0345  1.5807 -1.1041
   26CHL1  H18C 1880   4.578   4.434   5.112  1.9008  0.9775  2.6019
   26CHL1   C12 1881   4.413   4.223   5.335  0.6789  0.1295  0.0041
   26CHL1  H12A 1882   4.318   4.265   5.296 -1.1807 -2.3623  1.5389
   26CHL1  H12B 1883   4.416   4.112   5.339 -0.3166  0.1188  1.1356
   26CHL1   C11 1884   4.440   4.299   5.465 -0.2127 -0.1071 -0.2614
   26CHL1  H11A 1885   4.409   4.402   5.442  0.3940  0.4187  1.1537
   26CHL1  H11B 1886   4.370   4.264   5.544 -0.5967 -0.3850 -0.7225
   26CHL1    C9 1887   4.584   4.295   5.513 -0.9162 -0.2572  0.1213
   26CHL1    H9 1888   4.608   4.189   5.534 -1.1855 -0.0017  1.8916
   26CHL1   C10 1889   4.610   4.370   5.651  0.0646  0.8174  0.5797
   26CHL1   C19 1890   4.570   4.519   5.632 -0.2903 -0.3230  0.3800
   26CHL1  H19A 1891   4.578   4.580   5.724 -1.3404  2.6586 -1.3657
   26CHL1  H19B 1892   4.626   4.565   5.548  0.2728  0.3237  1.1029
   26CHL1  H19C 1893   4.463   4.528   5.603 -0.1733  1.6555  0.4893
   26CHL1    C1 1894   4.530   4.302   5.769 -0.4908  0.8525  1.1254
   26CHL1   H1A 1895   4.420   4.301   5.754 -0.3729  0.9911  0.2358
   26CHL1   H1B 1896   4.560   4.195   5.773 -0.5068  0.7604 -0.5064
   26CHL1    C2 1897   4.566   4.357   5.910 -0.7812  0.0322  0.7127
   26CHL1   H2A 1898   4.507   4.296   5.982  1.1944 -1.3733  1.2460
   26CHL1   H2B 1899   4.551   4.467   5.910 -3.4638 -0.2540 -0.3141
   26CHL1   C20 1900   4.409   4.183   4.996 -0.5759  0.2928 -0.3044
   26CHL1   H20 1901   4.364   4.284   4.980  0.1063  0.6321 -0.1376
   26CHL1   C21 1902   4.313   4.081   5.053 -0.1589 -0.2050  0.0943
   26CHL1  H21A 1903   4.227   4.060   4.985  0.0805 -1.4824  0.1595
   26CHL1  H21B 1904   4.266   4.120   5.145  1.5837 -0.0465  0.9458
   26CHL1  H21C 1905   4.362   3.985   5.077 -0.4595 -0.4644 -0.3101
   26CHL1   C22 1906   4.462   4.143   4.857  0.7083  0.9014  0.7447
   26CHL1  H22A 1907   4.540   4.218   4.831 -1.4123  3.5810  1.5217
   26CHL1  H22B 1908   4.499   4.040   4.872  0.4908  0.7444  0.2274
   26CHL1   C23 1909   4.355   4.143   4.745  0.3889  0.5151 -0.2122
   26CHL1  H23A 1910   4.275   4.072   4.777  1.1722  0.1090  0.8794
   26CHL1  H23B 1911   4.320   4.247   4.728 -0.8808  0.5394  2.0867
   26CHL1   C24 1912   4.408   4.085   4.614 -0.1451  0.7744 -0.2787
   26CHL1  H24A 1913   4.504   4.138   4.594 -0.1525  0.5065 -1.0523
   26CHL1  H24B 1914   4.419   3.977   4.639  2.1570  1.2092  0.9052
   26CHL1   C25 1915   4.310   4.086   4.503 -0.5239 -0.3263  0.1614
   26CHL1   H25 1916   4.369   4.059   4.413 -0.2833  2.3845 -0.5966
   26CHL1   C26 1917   4.190   4.000   4.529  0.1025 -0.4569  0.3046
   26CHL1  H26A 1918   4.151   4.025   4.630  0.8544 -0.7369  0.6723
   26CHL1  H26B 1919   4.111   4.036   4.460  0.2884  1.5731  1.0668
   26CHL1  H26C 1920   4.222   3.894   4.520  1.2324 -0.1642  0.7349
   26CHL1   C27 1921   4.272   4.228   4.464  0.3902 -0.3532  0.0179
   26CHL1  H27A 1922   4.234   4.239   4.361  0.0690  0.3148  0.2030
   26CHL1  H27B 1923   4.195   4.268   4.533  1.6694  2.2746  0.0270
   26CHL1  H27C 1924   4.365   4.289   4.464  0.1362  0.0415  0.4029
   27CHL1    C3 1925   3.433   5.275   6.245  0.1908  0.3980 -0.1963
   27CHL1    H3 1926   3.348   5.204   6.233  1.6038 -1.3311 -0.3741
   27CHL1    O3 1927   3.440   5.309   6.381 -0.0727  0.0888 -0.0683
   27CHL1   H3' 1928   3.507   5.377   6.384 -0.0341  0.1686 -1.8409
   27CHL1    C4 1929   3.567   5.216   6.210  0.3874 -0.0448 -0.2132
   27CHL1   H4A 1930   3.629   5.304   6.238 -0.0621  0.6171 -1.2550
   27CHL1   H4B 1931   3.585   5.128   6.276 -0.2861 -0.1003 -0.1006
   27CHL1    C5 1932   3.583   5.189   6.066  0.0610 -0.0398 -0.3098
   27CHL1    C6 1933   3.606   5.060   6.023  0.4535  0.1880  0.3060
   27CHL1    H6 1934   3.625   4.987   6.103  0.6011  0.7399  0.7858
   27CHL1    C7 1935   3.628   5.025   5.878 -0.3708  0.1043 -0.4138
   27CHL1   H7A 1936   3.726   4.974   5.874 -0.4178 -0.1694  1.3134
   27CHL1   H7B 1937   3.544   4.962   5.842 -0.7884  0.4338 -0.0339
   27CHL1    C8 1938   3.647   5.151   5.789  0.3652  0.2019 -0.4013
   27CHL1    H8 1939   3.749   5.185   5.816  0.3589 -0.2381  0.1940
   27CHL1   C14 1940   3.641   5.112   5.646  0.1825 -0.3259  0.6165
   27CHL1   H14 1941   3.539   5.074   5.627 -0.2320  0.7389  0.6115
   27CHL1   C15 1942   3.731   4.987   5.606  0.1913 -0.5341 -0.2465
   27CHL1  H15A 1943   3.825   4.998   5.663 -0.2433 -0.5643  0.4777
   27CHL1  H15B 1944   3.690   4.888   5.634 -2.0555  0.1410 -0.9298
   27CHL1   C16 1945   3.757   5.002   5.453 -0.2311 -0.5819 -0.1484
   27CHL1  H16A 1946   3.864   5.025   5.435 -0.4212  1.9503  1.3110
   27CHL1  H16B 1947   3.721   4.917   5.391 -1.4485  0.2908 -0.6970
   27CHL1   C17 1948   3.682   5.136   5.407  0.4616  0.0676 -0.0968
   27CHL1   H17 1949   3.574   5.116   5.391  0.3612  1.0240 -0.6545
   27CHL1   C13 1950   3.667   5.219   5.542 -0.3872  0.0864 -0.4860
   27CHL1   C18 1951   3.803   5.291   5.570  0.1261  0.0464 -0.2503
   27CHL1  H18A 1952   3.798   5.383   5.509 -1.1841  0.9958  1.1975
   27CHL1  H18B 1953   3.815   5.317   5.678 -0.5403 -2.4261  0.4833
   27CHL1  H18C 1954   3.889   5.230   5.535 -0.1133 -0.5983  0.2547
   27CHL1   C12 1955   3.550   5.315   5.565 -0.0865 -0.5831  0.2201
   27CHL1  H12A 1956   3.566   5.406   5.503 -3.9025  1.5909  2.0926
   27CHL1  H12B 1957   3.454   5.268   5.536  0.6667 -1.1218 -1.5521
   27CHL1   C11 1958   3.537   5.364   5.711  0.1001 -0.0010  1.0053
   27CHL1  H11A 1959   3.626   5.429   5.728  1.9166 -1.5088 -2.0134
   27CHL1  H11B 1960   3.439   5.417   5.721 -1.1542 -1.5779 -1.7911
   27CHL1    C9 1961   3.550   5.259   5.825 -0.5762 -0.5376  0.7463
   27CHL1    H9 1962   3.451   5.210   5.807 -0.6680 -0.9183  2.2133
   27CHL1   C10 1963   3.555   5.299   5.970 -0.0277  0.3046  0.7404
   27CHL1   C19 1964   3.660   5.416   5.978 -0.1815  0.5595 -0.2686
   27CHL1  H19A 1965   3.676   5.460   6.078  2.7474  2.6446 -1.5030
   27CHL1  H19B 1966   3.759   5.386   5.938 -0.5936 -1.3059  0.0551
   27CHL1  H19C 1967   3.619   5.506   5.927  0.4169  1.0540  0.1074
   27CHL1    C1 1968   3.416   5.358   6.014 -0.3224 -0.0034  0.6589
   27CHL1   H1A 1969   3.394   5.446   5.950 -0.0592 -0.6259 -0.3122
   27CHL1   H1B 1970   3.335   5.286   5.992  0.1857 -0.1966 -0.7202
   27CHL1    C2 1971   3.399   5.397   6.160 -0.1304 -0.5255  0.8355
   27CHL1   H2A 1972   3.297   5.439   6.174 -0.0630  0.6791 -1.7802
   27CHL1   H2B 1973   3.474   5.476   6.177  0.3990  0.0681 -3.2329
   27CHL1   C20 1974   3.739   5.198   5.278 -0.6264 -0.9880 -0.5683
   27CHL1   H20 1975   3.842   5.232   5.301 -0.7392 -1.3285  0.4905
   27CHL1   C21 1976   3.652   5.323   5.241 -0.4749 -0.1766 -0.1440
   27CHL1  H21A 1977   3.684   5.349   5.138  1.0761 -2.3237 -0.2566
   27CHL1  H21B 1978   3.675   5.413   5.302  0.1108  1.1803 -2.2434
   27CHL1  H21C 1979   3.542   5.310   5.231 -0.3780 -0.1512 -1.3441
   27CHL1   C22 1980   3.736   5.097   5.160 -0.2846 -0.0496  0.2936
   27CHL1  H22A 1981   3.768   4.994   5.189 -0.7216 -1.1978 -2.9019
   27CHL1  H22B 1982   3.636   5.090   5.112 -1.2010 -1.2997  2.2664
   27CHL1   C23 1983   3.839   5.133   5.057 -0.3049 -0.4090  0.3543
   27CHL1  H23A 1984   3.817   5.227   5.002 -1.8069 -1.4143 -0.8575
   27CHL1  H23B 1985   3.941   5.135   5.100  0.4263  2.1056 -1.2709
   27CHL1   C24 1986   3.848   5.021   4.948  0.4730  0.0690 -0.0691
   27CHL1  H24A 1987   3.889   4.936   5.006 -0.4276 -0.9336 -0.8764
   27CHL1  H24B 1988   3.743   4.999   4.917  0.9526  0.8610 -2.4799
   27CHL1   C25 1989   3.939   5.059   4.815 -0.1084 -0.4128 -0.8439
   27CHL1   H25 1990   3.947   4.960   4.766  0.2145 -0.4556 -0.7036
   27CHL1   C26 1991   3.858   5.150   4.719  0.1265 -0.0778  0.3015
   27CHL1  H26A 1992   3.902   5.158   4.618  0.1696  2.9808  0.4632
   27CHL1  H26B 1993   3.758   5.103   4.719 -0.3161  0.7826  1.6258
   27CHL1  H26C 1994   3.851   5.249   4.771  1.9512 -0.0451  0.5458
   27CHL1   C27 1995   4.082   5.104   4.857 -0.5778 -0.5219  0.9371
   27CHL1  H27A 1996   4.124   5.033   4.931  0.9838  0.5138  1.0966
   27CHL1  H27B 1997   4.146   5.108   4.767 -1.7865  1.4954  0.0908
   27CHL1  H27C 1998   4.100   5.204   4.901  1.9585 -1.1524  1.4562
   28CHL1    C3 1999   3.327   4.179   6.472 -0.3049 -0.9941  0.9405
   28CHL1    H3 2000   3.428   4.149   6.437 -0.3625  1.9140 -2.3089
   28CHL1    O3 2001   3.299   4.153   6.608  0.1748 -0.0729 -0.6578
   28CHL1   H3' 2002   3.216   4.105   6.616 -0.5835  1.3974  1.0015
   28CHL1    C4 2003   3.330   4.339   6.467  0.0316 -0.7519  0.3204
   28CHL1   H4A 2004   3.234   4.383   6.503 -0.2257  0.5238 -1.7382
   28CHL1   H4B 2005   3.413   4.380   6.528  1.5683 -0.2944 -1.9267
   28CHL1    C5 2006   3.357   4.388   6.324  0.3601 -0.8709 -0.0364
   28CHL1    C6 2007   3.467   4.462   6.295  0.4943 -0.1450 -0.0670
   28CHL1    H6 2008   3.526   4.492   6.384  0.1418  0.1609  0.0655
   28CHL1    C7 2009   3.498   4.520   6.156 -0.3046 -0.4295  0.3324
   28CHL1   H7A 2010   3.556   4.614   6.149 -1.7681  0.3823 -1.9605
   28CHL1   H7B 2011   3.565   4.443   6.112  1.3642  0.8860  0.4829
   28CHL1    C8 2012   3.374   4.515   6.063  0.1895 -0.1107 -0.2133
   28CHL1    H8 2013   3.299   4.590   6.096  0.7263  0.3260  0.0328
   28CHL1   C14 2014   3.406   4.533   5.921 -0.1219 -0.2288  0.3539
   28CHL1   H14 2015   3.454   4.437   5.891 -3.8253 -1.6272 -1.7680
   28CHL1   C15 2016   3.493   4.650   5.881  0.4310 -0.6005 -0.6894
   28CHL1  H15A 2017   3.473   4.738   5.945  4.0946 -1.4453  1.9532
   28CHL1  H15B 2018   3.598   4.620   5.902 -0.4938 -1.2370  4.1212
   28CHL1   C16 2019   3.471   4.669   5.731 -0.1039 -0.6735 -0.8891
   28CHL1  H16A 2020   3.415   4.764   5.713  1.1870  0.5736  1.1944
   28CHL1  H16B 2021   3.562   4.654   5.670  0.1443 -2.8813 -0.0681
   28CHL1   C17 2022   3.371   4.556   5.688  0.0630 -0.2281 -0.6536
   28CHL1   H17 2023   3.433   4.465   5.673 -0.8844 -1.6928  3.1401
   28CHL1   C13 2024   3.291   4.526   5.816 -0.0592 -0.0755 -0.0514
   28CHL1   C18 2025   3.183   4.631   5.849  0.1534  0.8816 -0.9396
   28CHL1  H18A 2026   3.097   4.630   5.779 -0.5140 -0.2004 -0.1252
   28CHL1  H18B 2027   3.159   4.612   5.956  0.3480 -0.8628 -1.1841
   28CHL1  H18C 2028   3.231   4.731   5.844 -0.3866  1.0728 -3.3509
   28CHL1   C12 2029   3.229   4.388   5.819  0.9361  0.0283 -0.5516
   28CHL1  H12A 2030   3.138   4.379   5.756  0.4621  0.0029  0.1242
   28CHL1  H12B 2031   3.313   4.322   5.787 -0.0199 -1.5800  0.1217
   28CHL1   C11 2032   3.186   4.353   5.972 -0.7100 -0.1409  0.4501
   28CHL1  H11A 2033   3.098   4.419   5.986 -1.1703 -0.6352 -0.0531
   28CHL1  H11B 2034   3.173   4.243   5.976  1.4987 -0.4313  1.0335
   28CHL1    C9 2035   3.302   4.379   6.076  0.4631  0.2732 -0.3036
   28CHL1    H9 2036   3.380   4.310   6.037  1.0492  1.7710 -1.9051
   28CHL1   C10 2037   3.255   4.342   6.218  0.1695  0.1657 -0.3882
   28CHL1   C19 2038   3.123   4.417   6.255 -0.0108 -0.3229  0.5309
   28CHL1  H19A 2039   3.140   4.527   6.254 -0.8892 -0.1887 -0.0419
   28CHL1  H19B 2040   3.033   4.397   6.193  1.0802  0.7247 -1.4953
   28CHL1  H19C 2041   3.094   4.392   6.359  0.1951  0.0992  0.6919
   28CHL1    C1 2042   3.226   4.189   6.230 -0.0206 -0.2422  0.0007
   28CHL1   H1A 2043   3.129   4.163   6.182 -0.6813  2.4994 -0.3644
   28CHL1   H1B 2044   3.318   4.148   6.185 -0.6897 -0.6861 -0.9854
   28CHL1    C2 2045   3.209   4.132   6.375  0.2142 -0.6004  0.5034
   28CHL1   H2A 2046   3.190   4.023   6.378  0.5876 -0.7007 -0.5461
   28CHL1   H2B 2047   3.115   4.178   6.414 -0.6950 -0.0161 -2.1527
   28CHL1   C20 2048   3.301   4.582   5.559 -0.2099  0.0525 -0.2211
   28CHL1   H20 2049   3.211   4.641   5.586  0.0183  0.0152  0.6617
   28CHL1   C21 2050   3.250   4.459   5.490  0.3356 -0.2147 -0.2758
   28CHL1  H21A 2051   3.184   4.479   5.403  1.1253  2.0157 -0.4457
   28CHL1  H21B 2052   3.184   4.401   5.558 -0.3481 -0.2433 -0.9536
   28CHL1  H21C 2053   3.338   4.394   5.472 -0.6443 -1.3269 -1.1923
   28CHL1   C22 2054   3.381   4.677   5.460  0.4694 -0.8942 -0.1288
   28CHL1  H22A 2055   3.394   4.781   5.497 -1.4244  0.3750 -2.6862
   28CHL1  H22B 2056   3.484   4.635   5.455  1.4089  1.3435 -0.9905
   28CHL1   C23 2057   3.325   4.692   5.316  0.0640  0.6829  0.4666
   28CHL1  H23A 2058   3.286   4.603   5.262  1.6626  1.5050 -2.2726
   28CHL1  H23B 2059   3.240   4.763   5.322  0.9836  1.7791  1.1101
   28CHL1   C24 2060   3.420   4.764   5.217  0.3322 -0.1267 -0.8170
   28CHL1  H24A 2061   3.345   4.778   5.136  0.2290  1.3820 -0.4843
   28CHL1  H24B 2062   3.454   4.850   5.278  0.8266 -1.3251  0.6528
   28CHL1   C25 2063   3.533   4.680   5.166 -0.4173  0.9474  0.7607
   28CHL1   H25 2064   3.597   4.664   5.255  0.3424 -0.0628  0.0558
   28CHL1   C26 2065   3.502   4.532   5.122  0.3748 -0.8306 -0.4962
   28CHL1  H26A 2066   3.489   4.464   5.209 -0.8553  0.4569  0.3727
   28CHL1  H26B 2067   3.411   4.517   5.060 -0.7275  0.7631  0.6564
   28CHL1  H26C 2068   3.580   4.495   5.053  1.1875 -0.4022  0.1717
   28CHL1   C27 2069   3.618   4.754   5.058  0.5382  0.9776  0.0787
   28CHL1  H27A 2070   3.702   4.690   5.025  0.4316 -0.1804  1.9423
   28CHL1  H27B 2071   3.560   4.789   4.969 -1.3974  1.5529  1.5115
   28CHL1  H27C 2072   3.667   4.845   5.100 -1.8208  2.3325  0.1128
   29CHL1    C3 2073   2.457   5.863   3.096 -0.3506 -0.9600  0.2418
   29CHL1    H3 2074   2.445   5.753   3.093 -2.0477 -0.7773 -1.8343
   29CHL1    O3 2075   2.493   5.906   2.959  0.8901  0.4139 -0.4675
   29CHL1   H3' 2076   2.455   5.991   2.939 -1.8679 -0.5117  0.4075
   29CHL1    C4 2077   2.321   5.929   3.139 -0.5335  0.0855  0.6640
   29CHL1   H4A 2078   2.317   6.039   3.126 -1.5314  0.2186  1.8127
   29CHL1   H4B 2079   2.243   5.888   3.072  0.1054  0.1214 -0.1110
   29CHL1    C5 2080   2.292   5.905   3.280 -0.7149 -0.6246 -0.4214
   29CHL1    C6 2081   2.167   5.865   3.322  0.4582 -0.7298 -0.6566
   29CHL1    H6 2082   2.096   5.842   3.242  2.2451  0.3663 -2.6345
   29CHL1    C7 2083   2.120   5.850   3.465 -0.2035  0.1141  0.2332
   29CHL1   H7A 2084   2.016   5.885   3.483  0.1256  1.0966  0.2903
   29CHL1   H7B 2085   2.126   5.742   3.486 -0.0743  0.3288  1.3526
   29CHL1    C8 2086   2.218   5.925   3.555  0.0427  0.5755  0.0663
   29CHL1    H8 2087   2.188   6.032   3.544  1.3845  0.8382 -1.4247
   29CHL1   C14 2088   2.189   5.876   3.693  0.4340 -0.1067  0.5452
   29CHL1   H14 2089   2.202   5.766   3.686  0.2082 -0.0468 -2.9904
   29CHL1   C15 2090   2.044   5.875   3.743  0.8783 -0.0321 -0.2992
   29CHL1  H15A 2091   2.003   5.975   3.720  1.2080  0.4930  1.2700
   29CHL1  H15B 2092   1.993   5.788   3.697 -1.3463 -0.1351  2.1542
   29CHL1   C16 2093   2.058   5.855   3.894  0.1179  0.0226  0.2408
   29CHL1  H16A 2094   2.016   5.944   3.945  0.1189 -0.9356  2.0012
   29CHL1  H16B 2095   2.008   5.763   3.930  0.1641 -0.5247 -1.0572
   29CHL1   C17 2096   2.211   5.857   3.919 -0.1050  0.1923 -0.0854
   29CHL1   H17 2097   2.233   5.748   3.918 -1.1710 -0.0756  1.4917
   29CHL1   C13 2098   2.280   5.930   3.804 -0.0089 -0.0665  0.1409
   29CHL1   C18 2099   2.263   6.085   3.817  0.8897  0.4927  0.5544
   29CHL1  H18A 2100   2.317   6.129   3.904 -1.5725  1.5109  1.6514
   29CHL1  H18B 2101   2.289   6.134   3.720  2.3564 -1.0664  0.1055
   29CHL1  H18C 2102   2.158   6.106   3.845 -0.2681 -0.1310 -2.8589
   29CHL1   C12 2103   2.431   5.895   3.779 -0.0558 -0.0476 -0.5817
   29CHL1  H12A 2104   2.496   5.947   3.853 -1.1685  0.2885  0.1737
   29CHL1  H12B 2105   2.449   5.786   3.787 -1.9859 -0.4649 -1.4221
   29CHL1   C11 2106   2.465   5.940   3.632 -0.4996 -0.0010  0.3601
   29CHL1  H11A 2107   2.493   6.047   3.632  0.8342 -0.3216 -1.0385
   29CHL1  H11B 2108   2.564   5.894   3.610 -1.3677 -1.2615 -1.1211
   29CHL1    C9 2109   2.367   5.897   3.523  0.1684 -0.5087 -0.7633
   29CHL1    H9 2110   2.380   5.786   3.519  1.6800 -0.5220  2.1233
   29CHL1   C10 2111   2.407   5.948   3.383 -0.6932  0.4330  0.5991
   29CHL1   C19 2112   2.415   6.104   3.380  0.8373 -0.4643  0.0732
   29CHL1  H19A 2113   2.420   6.139   3.275 -0.9678 -0.6936 -0.1156
   29CHL1  H19B 2114   2.318   6.146   3.413  0.5025  0.3513 -1.8326
   29CHL1  H19C 2115   2.489   6.149   3.450  1.1031  0.3511 -0.7110
   29CHL1    C1 2116   2.549   5.894   3.337  0.0725  0.3591  0.2286
   29CHL1   H1A 2117   2.621   5.958   3.394 -1.7700  1.0028  1.9609
   29CHL1   H1B 2118   2.544   5.788   3.367  0.0675 -0.2420 -1.7684
   29CHL1    C2 2119   2.576   5.912   3.183 -0.8255 -0.4876 -0.3142
   29CHL1   H2A 2120   2.670   5.860   3.153 -1.2381 -1.4590  0.0074
   29CHL1   H2B 2121   2.595   6.017   3.152 -2.4248 -0.3449 -0.8922
   29CHL1   C20 2122   2.244   5.902   4.067 -0.3698 -1.0067  0.2027
   29CHL1   H20 2123   2.229   6.011   4.078  2.0359 -0.3717 -1.9251
   29CHL1   C21 2124   2.386   5.871   4.085 -0.7841  0.3342 -0.4387
   29CHL1  H21A 2125   2.413   5.773   4.040  2.8033  0.6567  0.6400
   29CHL1  H21B 2126   2.410   5.853   4.192 -0.8756  2.0748 -0.0962
   29CHL1  H21C 2127   2.457   5.945   4.041 -0.4026 -0.5836 -1.4092
   29CHL1   C22 2128   2.162   5.831   4.178 -0.4552 -0.3483  0.0532
   29CHL1  H22A 2129   2.059   5.813   4.139  0.5071  0.5983 -3.2263
   29CHL1  H22B 2130   2.207   5.733   4.207 -0.5086 -0.0795  1.0741
   29CHL1   C23 2131   2.141   5.922   4.304  0.0334  0.3426  0.1337
   29CHL1  H23A 2132   2.244   5.954   4.332  0.0664 -0.1713  0.6192
   29CHL1  H23B 2133   2.091   6.015   4.268  1.8293  1.3248  0.0066
   29CHL1   C24 2134   2.081   5.857   4.427  0.3135  0.1674  0.3097
   29CHL1  H24A 2135   1.977   5.845   4.392 -0.1522  1.8145  1.0417
   29CHL1  H24B 2136   2.119   5.754   4.445 -0.5559 -0.4725 -1.3523
   29CHL1   C25 2137   2.083   5.940   4.559 -0.2765  0.4966  0.1034
   29CHL1   H25 2138   2.048   6.045   4.546 -1.0371  0.1826 -0.4572
   29CHL1   C26 2139   1.999   5.866   4.659 -1.0476 -0.2602  0.0749
   29CHL1  H26A 2140   1.998   5.918   4.757 -2.2039  1.9754 -1.0316
   29CHL1  H26B 2141   1.894   5.856   4.625 -0.1107 -0.3111 -3.1447
   29CHL1  H26C 2142   2.046   5.766   4.669  1.7014  0.8999 -0.1156
   29CHL1   C27 2143   2.224   5.942   4.616  0.2300  0.0656  0.1298
   29CHL1  H27A 2144   2.215   5.990   4.716  1.6898  1.0851 -0.1903
   29CHL1  H27B 2145   2.283   5.848   4.615  1.9530  1.0867  1.0343
   29CHL1  H27C 2146   2.282   6.011   4.550  1.5414 -1.5030 -0.4236
   30CHL1    C3 2147   0.600   6.613   3.287  0.4672  0.7284  0.5590
   30CHL1    H3 2148   0.659   6.535   3.340  2.2346  1.1308 -0.7341
   30CHL1    O3 2149   0.632   6.619   3.147 -0.0243  0.3622 -0.5317
   30CHL1   H3' 2150   0.548   6.611   3.102 -0.3650 -1.1467  0.3102
   30CHL1    C4 2151   0.450   6.605   3.311  0.1194 -0.2704 -0.0587
   30CHL1   H4A 2152   0.391   6.675   3.246  1.2093 -0.4140 -1.2411
   30CHL1   H4B 2153   0.423   6.503   3.277 -1.6276 -0.4071  1.5646
   30CHL1    C5 2154   0.413   6.618   3.459 -0.1365 -0.5814 -0.5062
   30CHL1    C6 2155   0.349   6.523   3.527 -0.3627  0.2853 -1.1089
   30CHL1    H6 2156   0.315   6.439   3.465 -2.6672  1.7587 -1.9773
   30CHL1    C7 2157   0.298   6.532   3.673 -0.3653 -1.1984  0.4373
   30CHL1   H7A 2158   0.191   6.503   3.684 -0.9265 -0.4033 -2.1741
   30CHL1   H7B 2159   0.354   6.463   3.740 -2.4490 -1.2030  2.2997
   30CHL1    C8 2160   0.311   6.678   3.720  0.3195 -0.8030  0.0996
   30CHL1    H8 2161   0.236   6.741   3.667  3.7123  2.4433 -1.2598
   30CHL1   C14 2162   0.284   6.687   3.872  0.2451  0.8398 -0.3117
   30CHL1   H14 2163   0.375   6.633   3.907 -1.0801 -0.7327  0.8983
   30CHL1   C15 2164   0.176   6.612   3.941  0.6536 -0.5602 -0.2857
   30CHL1  H15A 2165   0.078   6.627   3.891  0.8375 -0.1157 -0.5165
   30CHL1  H15B 2166   0.191   6.502   3.951 -0.1866 -0.8339 -1.7756
   30CHL1   C16 2167   0.174   6.670   4.083 -0.4155  0.8911 -0.1996
   30CHL1  H16A 2168   0.070   6.707   4.095 -1.9388 -2.1109 -2.7403
   30CHL1  H16B 2169   0.183   6.585   4.153 -1.1375  1.3311  0.4502
   30CHL1   C17 2170   0.268   6.790   4.088  0.4665 -0.3431  0.3257
   30CHL1   H17 2171   0.366   6.756   4.129  1.8955  0.4020 -2.2777
   30CHL1   C13 2172   0.298   6.822   3.940  0.7702  0.8596  0.3699
   30CHL1   C18 2173   0.187   6.913   3.893 -0.7137  0.5883 -0.8479
   30CHL1  H18A 2174   0.092   6.875   3.938  0.0272  0.5453  0.7707
   30CHL1  H18B 2175   0.200   7.017   3.929 -2.8097 -0.0821  2.3535
   30CHL1  H18C 2176   0.182   6.921   3.783  1.0015 -0.1370 -1.0083
   30CHL1   C12 2177   0.436   6.871   3.906  0.2420 -0.2414  0.2267
   30CHL1  H12A 2178   0.438   6.973   3.948 -0.7336  0.1707 -0.6617
   30CHL1  H12B 2179   0.511   6.808   3.959 -0.1986 -2.1931 -1.3377
   30CHL1   C11 2180   0.465   6.876   3.754  0.0677 -0.7609  0.1161
   30CHL1  H11A 2181   0.395   6.953   3.715 -0.9540 -1.7587 -0.0721
   30CHL1  H11B 2182   0.570   6.912   3.751 -0.6954  1.9517  2.0405
   30CHL1    C9 2183   0.445   6.746   3.679 -0.4324 -0.1837 -0.2043
   30CHL1    H9 2184   0.524   6.678   3.719 -0.8490 -0.0149  0.9437
   30CHL1   C10 2185   0.472   6.746   3.527 -0.5960  0.1087 -0.2795
   30CHL1   C19 2186   0.388   6.858   3.460 -0.3941  0.4580 -0.3870
   30CHL1  H19A 2187   0.416   6.862   3.352 -1.1224  0.4267 -0.5864
   30CHL1  H19B 2188   0.278   6.843   3.465 -0.7451  2.8564  0.2816
   30CHL1  H19C 2189   0.409   6.960   3.498 -0.2034 -0.8669  3.4240
   30CHL1    C1 2190   0.619   6.754   3.501 -0.0646 -0.3123  0.8770
   30CHL1   H1A 2191   0.649   6.857   3.533 -0.2673 -0.3653  1.2458
   30CHL1   H1B 2192   0.685   6.681   3.552 -0.3440  0.3397  2.2381
   30CHL1    C2 2193   0.650   6.747   3.347 -0.4639  0.4889  0.7656
   30CHL1   H2A 2194   0.759   6.757   3.325 -0.9124 -1.3156 -2.9676
   30CHL1   H2B 2195   0.596   6.834   3.306 -1.9499 -0.9670 -0.4972
   30CHL1   C20 2196   0.221   6.903   4.185  0.2085  0.6009 -0.0280
   30CHL1   H20 2197   0.125   6.946   4.146 -0.0449 -0.5498 -0.7114
   30CHL1   C21 2198   0.320   7.023   4.196 -0.0863 -0.2516 -0.0294
   30CHL1  H21A 2199   0.327   7.079   4.100  0.4869  0.9603  0.6974
   30CHL1  H21B 2200   0.420   7.003   4.240 -0.2527 -0.9623  0.0358
   30CHL1  H21C 2201   0.267   7.098   4.260 -0.6080  1.2438 -2.1028
   30CHL1   C22 2202   0.202   6.853   4.327 -0.2839 -0.3047  0.1025
   30CHL1  H22A 2203   0.165   6.748   4.338 -0.9406  0.0198  1.1567
   30CHL1  H22B 2204   0.306   6.834   4.360  0.0196 -0.3709 -0.8841
   30CHL1   C23 2205   0.122   6.946   4.426  0.2627  0.1910 -0.2644
   30CHL1  H23A 2206   0.122   7.055   4.404  2.5244  0.3302  0.1578
   30CHL1  H23B 2207   0.016   6.919   4.406  0.4923 -0.3094 -0.8571
   30CHL1   C24 2208   0.141   6.910   4.573 -0.5542  0.1503 -0.1015
   30CHL1  H24A 2209   0.149   6.801   4.590  0.6464 -0.6046 -4.3592
   30CHL1  H24B 2210   0.238   6.954   4.604 -1.0144  1.0999  0.0377
   30CHL1   C25 2211   0.033   6.969   4.664  0.0564 -0.5730 -0.3838
   30CHL1   H25 2212  -0.059   6.942   4.608  1.1694  0.8567 -3.0956
   30CHL1   C26 2213   0.037   6.905   4.801  0.1595 -0.0536 -0.3125
   30CHL1  H26A 2214   0.138   6.904   4.847 -0.1588  0.9024  0.4542
   30CHL1  H26B 2215  -0.036   6.956   4.869 -0.7329 -1.4846 -0.1440
   30CHL1  H26C 2216   0.002   6.800   4.791  0.1742 -0.0912  0.0120
   30CHL1   C27 2217   0.033   7.121   4.658  0.2910 -0.3879  0.3258
   30CHL1  H27A 2218  -0.058   7.167   4.703  1.6545  0.7973  1.9866
   30CHL1  H27B 2219   0.126   7.157   4.706  0.5923 -1.5589  0.6333
   30CHL1  H27C 2220   0.042   7.160   4.554  1.1737 -0.3791  0.3976
   31CHL1    C3 2221   2.483   2.353   3.371  0.0864  0.2699 -0.2179
   31CHL1    H3 2222   2.386   2.407   3.380  0.1599  0.4224 -0.3178
   31CHL1    O3 2223   2.513   2.330   3.237 -0.2627  0.4412 -0.0787
   31CHL1   H3' 2224   2.489   2.239   3.218  1.7667 -0.2740  0.4764
   31CHL1    C4 2225   2.594   2.443   3.424 -0.3599  0.1990 -0.3431
   31CHL1   H4A 2226   2.690   2.392   3.405 -1.0507 -1.0000 -0.7109
   31CHL1   H4B 2227   2.607   2.538   3.368 -0.0022  0.7400  0.6215
   31CHL1    C5 2228   2.567   2.474   3.571 -0.2940  0.3348 -0.3746
   31CHL1    C6 2229   2.564   2.598   3.615 -0.4769 -0.2508  0.0062
   31CHL1    H6 2230   2.579   2.677   3.541  0.7376 -1.5491 -1.2050
   31CHL1    C7 2231   2.540   2.634   3.765 -0.1232 -0.0302  0.5770
   31CHL1   H7A 2232   2.605   2.721   3.790 -1.6403  1.7528 -1.3564
   31CHL1   H7B 2233   2.435   2.669   3.780  0.4245  1.9717  0.0428
   31CHL1    C8 2234   2.569   2.518   3.856  0.2588 -0.8568  0.6391
   31CHL1    H8 2235   2.673   2.486   3.833  0.0905 -1.2924  0.4727
   31CHL1   C14 2236   2.543   2.554   4.000  0.4800  0.4460  0.8639
   31CHL1   H14 2237   2.437   2.586   3.997 -0.5608 -2.7202 -1.3426
   31CHL1   C15 2238   2.624   2.666   4.066 -0.3291 -0.3610 -0.4038
   31CHL1  H15A 2239   2.720   2.651   4.012 -0.6582  0.7022 -1.3377
   31CHL1  H15B 2240   2.585   2.767   4.040  2.0486  0.6352 -0.3050
   31CHL1   C16 2241   2.615   2.641   4.212  0.3181 -0.1794 -0.4792
   31CHL1  H16A 2242   2.718   2.643   4.254  0.0086 -1.7465  0.4447
   31CHL1  H16B 2243   2.558   2.725   4.256 -1.2808 -2.2343  1.6130
   31CHL1   C17 2244   2.544   2.508   4.229 -0.3461  0.2829 -0.3733
   31CHL1   H17 2245   2.436   2.524   4.249 -0.2700 -0.3727  0.6219
   31CHL1   C13 2246   2.566   2.434   4.095 -0.1946  0.2954  0.4853
   31CHL1   C18 2247   2.703   2.371   4.080 -0.7930 -0.2634 -0.3345
   31CHL1  H18A 2248   2.778   2.446   4.115  1.0825 -0.3508 -3.7476
   31CHL1  H18B 2249   2.719   2.288   4.151  0.4143 -0.7079 -1.0943
   31CHL1  H18C 2250   2.710   2.331   3.977 -0.8940 -0.1498 -0.3859
   31CHL1   C12 2251   2.462   2.324   4.057 -0.3322 -0.4141 -0.0968
   31CHL1  H12A 2252   2.478   2.242   4.130 -1.2457  0.7398  1.4615
   31CHL1  H12B 2253   2.362   2.360   4.089 -0.6254  0.5194 -1.9291
   31CHL1   C11 2254   2.474   2.276   3.907  0.0308 -0.3373  0.2565
   31CHL1  H11A 2255   2.562   2.209   3.904  1.5332  1.3272  3.0097
   31CHL1  H11B 2256   2.383   2.214   3.895  0.6509 -1.3568  0.6890
   31CHL1    C9 2257   2.490   2.392   3.802 -0.0025 -0.2138  0.4622
   31CHL1    H9 2258   2.387   2.432   3.791  0.6822  1.2431 -1.0323
   31CHL1   C10 2259   2.539   2.355   3.660  0.5492  0.1705  0.8732
   31CHL1   C19 2260   2.676   2.282   3.669  0.5157 -0.1897 -0.5462
   31CHL1  H19A 2261   2.721   2.272   3.567  0.1197  0.3526 -0.7728
   31CHL1  H19B 2262   2.748   2.328   3.740 -0.2771  0.6105 -0.2442
   31CHL1  H19C 2263   2.657   2.180   3.709 -3.5501  0.8535  0.6017
   31CHL1    C1 2264   2.442   2.252   3.587  0.7364  0.1937 -1.1093
   31CHL1   H1A 2265   2.436   2.167   3.659 -1.8026  0.4539 -0.9167
   31CHL1   H1B 2266   2.342   2.299   3.581  0.9835  0.5776 -2.2862
   31CHL1    C2 2267   2.481   2.216   3.447  0.7768 -0.7259 -0.1400
   31CHL1   H2A 2268   2.397   2.154   3.408 -2.5982  2.8351  0.7593
   31CHL1   H2B 2269   2.580   2.175   3.419  1.0258  1.1265 -2.3017
   31CHL1   C20 2270   2.590   2.435   4.362  0.5222 -0.6073 -0.3460
   31CHL1   H20 2271   2.694   2.395   4.359  0.8478 -0.1136  2.1788
   31CHL1   C21 2272   2.504   2.314   4.394 -0.4616 -0.2957  0.4049
   31CHL1  H21A 2273   2.503   2.237   4.314 -0.7730  0.6344 -0.4994
   31CHL1  H21B 2274   2.400   2.348   4.412 -0.6460  0.4756 -1.9268
   31CHL1  H21C 2275   2.542   2.272   4.490  0.3979  0.6577  0.4948
   31CHL1   C22 2276   2.580   2.537   4.478  0.6310  0.1638  0.1557
   31CHL1  H22A 2277   2.621   2.635   4.444  1.2225  0.0980  0.6509
   31CHL1  H22B 2278   2.471   2.536   4.494  0.4305 -2.8430 -0.7461
   31CHL1   C23 2279   2.671   2.500   4.599 -0.3123 -0.3776  0.2697
   31CHL1  H23A 2280   2.614   2.420   4.652  0.4217 -0.9416  0.2312
   31CHL1  H23B 2281   2.768   2.465   4.558 -1.2684  0.5447 -3.0735
   31CHL1   C24 2282   2.695   2.619   4.693  0.7875  0.4137 -0.1028
   31CHL1  H24A 2283   2.756   2.689   4.632  0.2032  1.6699  0.7278
   31CHL1  H24B 2284   2.593   2.662   4.704  0.3123 -0.8777  0.7977
   31CHL1   C25 2285   2.753   2.588   4.831  0.0407  0.4499  0.0194
   31CHL1   H25 2286   2.850   2.537   4.808 -0.7020 -0.9999 -0.0266
   31CHL1   C26 2287   2.787   2.723   4.892  0.1783  1.0348  0.1688
   31CHL1  H26A 2288   2.694   2.784   4.886  0.0760  1.1132  2.0763
   31CHL1  H26B 2289   2.820   2.709   4.997  2.7826 -1.0757 -0.8191
   31CHL1  H26C 2290   2.876   2.763   4.840  1.7657  0.7324  2.5065
   31CHL1   C27 2291   2.665   2.505   4.931 -0.6178 -0.9687 -0.3805
   31CHL1  H27A 2292   2.579   2.567   4.963  0.4195 -0.9199  2.5526
   31CHL1  H27B 2293   2.637   2.402   4.900  1.0036 -1.0048 -1.9688
   31CHL1  H27C 2294   2.733   2.497   5.018  1.3655  3.2223 -1.2385
   32CHL1    C3 2295   3.235   0.200   3.138  0.5136  0.5017  0.3736
   32CHL1    H3 2296   3.246   0.090   3.134 -0.3964  0.4462 -2.8687
   32CHL1    O3 2297   3.272   0.245   3.007  0.5611  0.0487 -0.3675
   32CHL1   H3' 2298   3.225   0.187   2.947  0.4441  0.1936 -0.4176
   32CHL1    C4 2299   3.083   0.229   3.156 -0.3165  0.4519 -0.7275
   32CHL1   H4A 2300   3.064   0.338   3.152 -1.8890  0.1647 -3.9831
   32CHL1   H4B 2301   3.024   0.186   3.073 -0.9827  0.8656 -0.4757
   32CHL1    C5 2302   3.029   0.176   3.287  0.6840 -0.5270  0.3810
   32CHL1    C6 2303   2.938   0.082   3.300  0.5529  0.7117  0.4612
   32CHL1    H6 2304   2.889   0.042   3.210  2.0240  1.0273 -0.5266
   32CHL1    C7 2305   2.890   0.028   3.436 -0.8755 -0.6431 -0.5902
   32CHL1   H7A 2306   2.780   0.020   3.423 -0.7479 -1.7051 -1.0698
   32CHL1   H7B 2307   2.929  -0.075   3.446  0.1995 -0.2292 -0.2809
   32CHL1    C8 2308   2.933   0.116   3.555  0.4533 -0.5901  1.1110
   32CHL1    H8 2309   2.874   0.209   3.558  0.2027 -0.5457 -1.8586
   32CHL1   C14 2310   2.898   0.057   3.688 -0.0651 -0.1153 -0.4868
   32CHL1   H14 2311   2.975  -0.022   3.697  1.7592  1.7783  2.2852
   32CHL1   C15 2312   2.758   0.003   3.708  0.3875  0.5525 -0.6343
   32CHL1  H15A 2313   2.679   0.078   3.687 -1.2573 -0.2503  2.1048
   32CHL1  H15B 2314   2.744  -0.089   3.648  1.3110  0.5596 -0.8843
   32CHL1   C16 2315   2.752  -0.020   3.866  0.0977  0.3206  0.1711
   32CHL1  H16A 2316   2.650   0.010   3.899 -0.7829 -0.8846 -1.2962
   32CHL1  H16B 2317   2.767  -0.129   3.883 -0.6657  0.2861  0.6806
   32CHL1   C17 2318   2.878   0.044   3.933  0.0988  0.7857  0.1152
   32CHL1   H17 2319   2.954  -0.035   3.953  0.0898 -0.0902 -2.8246
   32CHL1   C13 2320   2.932   0.138   3.819  0.7300  0.5878  0.3221
   32CHL1   C18 2321   2.848   0.264   3.823  0.3097  0.0667 -0.3460
   32CHL1  H18A 2322   2.865   0.330   3.735 -0.2215 -0.4108 -0.8156
   32CHL1  H18B 2323   2.738   0.244   3.825  0.5350 -1.3096  1.8972
   32CHL1  H18C 2324   2.866   0.319   3.918 -0.2651  0.3719 -0.4076
   32CHL1   C12 2325   3.086   0.160   3.801  0.1301  0.0638  0.0851
   32CHL1  H12A 2326   3.126   0.218   3.888  1.3357 -1.6539  0.7387
   32CHL1  H12B 2327   3.135   0.061   3.810 -2.7438 -1.4978 -0.2442
   32CHL1   C11 2328   3.126   0.230   3.671  0.0400  0.2312  0.1285
   32CHL1  H11A 2329   3.070   0.325   3.682 -0.7759  0.0927 -2.3110
   32CHL1  H11B 2330   3.233   0.252   3.650  0.4172 -2.3987 -1.1273
   32CHL1    C9 2331   3.080   0.159   3.545 -0.0537 -0.1623  0.0876
   32CHL1    H9 2332   3.135   0.062   3.540  0.6496  0.3004 -1.6579
   32CHL1   C10 2333   3.113   0.242   3.414 -0.8403  0.6469  0.3664
   32CHL1   C19 2334   3.076   0.392   3.423  0.4298  0.1591  0.2451
   32CHL1  H19A 2335   3.140   0.445   3.496  1.6302 -0.3714 -0.3850
   32CHL1  H19B 2336   3.097   0.441   3.325  1.1732  1.3638  0.9773
   32CHL1  H19C 2337   2.970   0.413   3.448  0.1255 -0.5691 -0.3951
   32CHL1    C1 2338   3.262   0.229   3.381  0.0205  0.1115 -0.5432
   32CHL1   H1A 2339   3.317   0.269   3.469 -0.9927  1.1781 -0.3650
   32CHL1   H1B 2340   3.287   0.122   3.391  0.2922  0.1818 -0.4800
   32CHL1    C2 2341   3.319   0.273   3.244  0.3188 -0.1143 -0.1862
   32CHL1   H2A 2342   3.425   0.246   3.225  0.1036 -1.0306 -0.1203
   32CHL1   H2B 2343   3.302   0.381   3.225 -1.5927 -0.7568 -2.7093
   32CHL1   C20 2344   2.853   0.097   4.077  0.5356  0.1414  0.2341
   32CHL1   H20 2345   2.770   0.170   4.068  1.6816  1.4726  0.1328
   32CHL1   C21 2346   2.977   0.164   4.136 -0.2841 -0.2584  0.0045
   32CHL1  H21A 2347   3.011   0.260   4.090  0.3683 -0.0010  0.9894
   32CHL1  H21B 2348   3.058   0.090   4.119  0.5996 -0.4368  4.0451
   32CHL1  H21C 2349   2.958   0.172   4.245  2.1399 -1.3843  0.5845
   32CHL1   C22 2350   2.797  -0.005   4.177 -0.4261 -0.6407  0.6016
   32CHL1  H22A 2351   2.771   0.058   4.265 -1.9964  0.1581 -0.4011
   32CHL1  H22B 2352   2.703  -0.054   4.146  0.3300 -0.9017 -1.4136
   32CHL1   C23 2353   2.894  -0.115   4.221 -0.1472 -0.3788  0.2477
   32CHL1  H23A 2354   2.917  -0.179   4.134 -0.9602 -1.9510  1.1444
   32CHL1  H23B 2355   2.987  -0.079   4.271 -0.5723 -2.4724  2.7911
   32CHL1   C24 2356   2.819  -0.207   4.311 -0.0543  0.5652 -0.2115
   32CHL1  H24A 2357   2.735  -0.246   4.249  0.6371  1.2541 -1.6274
   32CHL1  H24B 2358   2.888  -0.294   4.318  2.4769  2.4285 -0.6965
   32CHL1   C25 2359   2.775  -0.147   4.444  0.2574 -0.0526  0.5857
   32CHL1   H25 2360   2.705  -0.063   4.430 -1.5243 -1.2809  1.7107
   32CHL1   C26 2361   2.692  -0.258   4.510  0.1909 -0.6305 -0.9223
   32CHL1  H26A 2362   2.736  -0.359   4.493  2.2022  0.0870 -0.3212
   32CHL1  H26B 2363   2.687  -0.241   4.620 -0.7726 -1.6394 -0.7992
   32CHL1  H26C 2364   2.588  -0.260   4.473 -0.4483  2.2329  0.4139
   32CHL1   C27 2365   2.881  -0.093   4.544 -0.5393  0.1783 -0.2888
   32CHL1  H27A 2366   2.955  -0.038   4.483 -0.3023 -1.3375 -1.4303
   32CHL1  H27B 2367   2.839  -0.022   4.618 -1.5854 -0.3084 -0.3977
   32CHL1  H27C 2368   2.934  -0.180   4.587  2.4006  1.0514 -1.8750
   33CHL1    C3 2369   5.676   5.857   3.081 -0.2666 -0.2805  0.1120
   33CHL1    H3 2370   5.566   5.840   3.077 -0.5459  0.4642  2.7053
   33CHL1    O3 2371   5.718   5.857   2.947  0.3669 -0.5116 -0.4318
   33CHL1   H3' 2372   5.669   5.784   2.907 -1.7317  0.8694 -0.5701
   33CHL1    C4 2373   5.703   5.999   3.136  0.3146  0.4260 -0.2206
   33CHL1   H4A 2374   5.811   6.021   3.138  0.0722  1.7384 -0.3815
   33CHL1   H4B 2375   5.658   6.073   3.066  0.8004  0.9116 -0.0225
   33CHL1    C5 2376   5.640   6.006   3.273 -0.5286 -0.1088 -0.6306
   33CHL1    C6 2377   5.541   6.090   3.299  0.5366 -0.2632  0.5698
   33CHL1    H6 2378   5.513   6.169   3.228  0.9464 -0.9058 -0.3271
   33CHL1    C7 2379   5.479   6.092   3.438  0.1861 -0.0305 -0.3076
   33CHL1   H7A 2380   5.461   6.194   3.477 -0.9233 -0.9302  1.7106
   33CHL1   H7B 2381   5.384   6.034   3.439 -0.5499  1.1361 -0.7152
   33CHL1    C8 2382   5.570   6.038   3.547  1.1051  0.2569 -0.3160
   33CHL1    H8 2383   5.655   6.108   3.563  1.7479 -0.5661 -0.0394
   33CHL1   C14 2384   5.493   6.015   3.679  0.4785 -0.2154 -0.7559
   33CHL1   H14 2385   5.416   5.936   3.664  0.2552 -0.1041 -0.2365
   33CHL1   C15 2386   5.419   6.137   3.728 -0.0922 -0.3898 -0.8364
   33CHL1  H15A 2387   5.485   6.226   3.719  1.5195 -0.9323  3.2112
   33CHL1  H15B 2388   5.332   6.148   3.659  1.6809  2.6081 -2.7946
   33CHL1   C16 2389   5.388   6.104   3.873  0.3565  0.1119 -0.0004
   33CHL1  H16A 2390   5.409   6.196   3.931  1.5088 -0.1578  0.0414
   33CHL1  H16B 2391   5.285   6.068   3.895  1.1753 -2.2251  0.2709
   33CHL1   C17 2392   5.484   5.987   3.913  0.4967 -0.8864 -1.0096
   33CHL1   H17 2393   5.433   5.889   3.914  1.3015 -1.3186  0.0299
   33CHL1   C13 2394   5.578   5.974   3.802 -0.2372 -0.1504  0.4675
   33CHL1   C18 2395   5.687   6.080   3.825  0.2377  0.5934 -0.1353
   33CHL1  H18A 2396   5.753   6.104   3.739 -0.3830  0.1578 -0.7359
   33CHL1  H18B 2397   5.637   6.172   3.861  1.6275  0.9461  1.0113
   33CHL1  H18C 2398   5.762   6.054   3.903  1.0005  1.9543 -0.3954
   33CHL1   C12 2399   5.640   5.842   3.767  0.0593  0.4908  0.6579
   33CHL1  H12A 2400   5.698   5.797   3.851 -0.3658 -0.3028  0.5368
   33CHL1  H12B 2401   5.552   5.775   3.757 -1.2392  2.5220 -3.3070
   33CHL1   C11 2402   5.708   5.839   3.629 -0.2244 -0.5054  0.0334
   33CHL1  H11A 2403   5.798   5.902   3.645  1.0539 -2.2325 -0.0765
   33CHL1  H11B 2404   5.742   5.736   3.606  0.6643  0.3554 -2.9480
   33CHL1    C9 2405   5.628   5.897   3.507  0.9107  0.1627 -0.1270
   33CHL1    H9 2406   5.540   5.832   3.488 -0.3847  2.0618 -0.8987
   33CHL1   C10 2407   5.697   5.905   3.365 -0.3024  0.5484 -0.4754
   33CHL1   C19 2408   5.850   5.953   3.398  0.3568  0.2541  0.5247
   33CHL1  H19A 2409   5.906   5.885   3.465 -2.4790 -1.3041  1.4756
   33CHL1  H19B 2410   5.914   5.957   3.308 -0.7482  0.6330 -0.2633
   33CHL1  H19C 2411   5.848   6.052   3.449  1.3275  1.3724 -1.4916
   33CHL1    C1 2412   5.704   5.758   3.311 -0.0069 -0.1481  0.4197
   33CHL1   H1A 2413   5.785   5.703   3.363  1.3636  0.8927 -0.5466
   33CHL1   H1B 2414   5.601   5.719   3.329 -0.2003  0.0802 -0.1418
   33CHL1    C2 2415   5.745   5.749   3.160  0.1608 -0.6960 -0.3377
   33CHL1   H2A 2416   5.718   5.646   3.127 -0.0856 -0.8136  0.2142
   33CHL1   H2B 2417   5.854   5.767   3.156 -0.1237  1.2020 -0.3893
   33CHL1   C20 2418   5.532   5.997   4.057 -0.3421  0.7958  0.0453
   33CHL1   H20 2419   5.576   6.097   4.079  0.1448  0.4814  0.5092
   33CHL1   C21 2420   5.629   5.887   4.103 -0.2292 -0.1069 -0.9835
   33CHL1  H21A 2421   5.652   5.870   4.210 -1.2530 -1.9342 -1.0117
   33CHL1  H21B 2422   5.721   5.906   4.043 -0.2881 -0.4612 -1.1928
   33CHL1  H21C 2423   5.584   5.789   4.073 -2.4218 -0.1018  1.8552
   33CHL1   C22 2424   5.405   5.987   4.148 -0.0311  0.7099  0.3697
   33CHL1  H22A 2425   5.326   6.055   4.112 -2.1247 -2.1576 -0.8562
   33CHL1  H22B 2426   5.364   5.884   4.137 -0.5419  0.7204  1.9661
   33CHL1   C23 2427   5.433   6.012   4.296  0.5838 -0.2968  0.0997
   33CHL1  H23A 2428   5.504   5.935   4.333  0.1575 -1.5899 -1.5885
   33CHL1  H23B 2429   5.460   6.116   4.320 -2.8836  0.9776 -0.9229
   33CHL1   C24 2430   5.311   5.980   4.385  0.3918 -0.5926  0.0691
   33CHL1  H24A 2431   5.219   6.031   4.351 -2.4278 -2.8458  3.6541
   33CHL1  H24B 2432   5.289   5.872   4.379  0.5246 -0.5558 -1.9735
   33CHL1   C25 2433   5.313   6.024   4.526  0.3238 -0.1763 -0.4100
   33CHL1   H25 2434   5.410   5.983   4.564  0.9981  1.5224 -0.1866
   33CHL1   C26 2435   5.315   6.180   4.534  0.2141  0.3177 -0.1551
   33CHL1  H26A 2436   5.413   6.220   4.501  0.8630 -0.0566  1.2646
   33CHL1  H26B 2437   5.226   6.212   4.475 -0.4915  2.0015  1.7045
   33CHL1  H26C 2438   5.291   6.216   4.636 -1.1716  3.2172 -1.3810
   33CHL1   C27 2439   5.194   5.972   4.602  1.2917 -0.3013  0.0118
   33CHL1  H27A 2440   5.097   6.015   4.569  1.1392 -1.6605 -1.3935
   33CHL1  H27B 2441   5.193   5.862   4.590  1.1610 -0.1948 -1.0862
   33CHL1  H27C 2442   5.210   5.988   4.711 -3.5152 -1.1643  1.0906
   34CHL1    C3 2443   2.096   2.066   3.358  0.7759  0.1807 -0.8170
   34CHL1    H3 2444   2.178   2.140   3.367  0.8272  0.3181 -2.2761
   34CHL1    O3 2445   2.068   2.029   3.227 -0.1706  0.1291  0.3140
   34CHL1   H3' 2446   1.984   1.982   3.227 -1.1145  1.7498  0.0772
   34CHL1    C4 2447   2.135   1.943   3.443  0.7376  0.4075  0.4358
   34CHL1   H4A 2448   2.064   1.858   3.429 -0.2159  1.4136 -1.0583
   34CHL1   H4B 2449   2.237   1.919   3.407  0.3346 -1.6952  0.5630
   34CHL1    C5 2450   2.142   1.969   3.596 -0.2228  0.0106 -0.3125
   34CHL1    C6 2451   2.248   1.930   3.676 -0.0871  0.1279  0.2904
   34CHL1    H6 2452   2.333   1.876   3.632  0.1805 -1.1777  2.2828
   34CHL1    C7 2453   2.254   1.951   3.828  0.2032  0.7314  0.3396
   34CHL1   H7A 2454   2.268   1.851   3.872 -3.6885 -0.0935  0.0548
   34CHL1   H7B 2455   2.333   2.025   3.853  0.8488  0.7043 -1.4447
   34CHL1    C8 2456   2.118   2.000   3.883  0.2328  0.1953 -0.1634
   34CHL1    H8 2457   2.046   1.915   3.881 -0.8071  1.0590 -2.0613
   34CHL1   C14 2458   2.141   2.054   4.021 -0.1540  0.7651  0.4182
   34CHL1   H14 2459   2.208   2.143   4.012  2.8469 -1.2868  1.0422
   34CHL1   C15 2460   2.209   1.960   4.122 -0.1881  0.3920 -0.5286
   34CHL1  H15A 2461   2.163   1.860   4.113 -1.5976  0.8608  0.9904
   34CHL1  H15B 2462   2.319   1.958   4.107 -0.0458 -1.6891  0.5044
   34CHL1   C16 2463   2.172   2.012   4.260  0.5094  0.1303  0.3948
   34CHL1  H16A 2464   2.123   1.925   4.309 -1.4160 -0.5005 -2.3934
   34CHL1  H16B 2465   2.263   2.042   4.314  1.6121 -2.1524 -0.0753
   34CHL1   C17 2466   2.063   2.117   4.237 -0.3684  0.0167 -0.2664
   34CHL1   H17 2467   2.122   2.210   4.247 -2.7005  1.7124 -1.2295
   34CHL1   C13 2468   2.012   2.094   4.087 -0.2577  0.0200 -0.0442
   34CHL1   C18 2469   1.904   1.980   4.088  0.1051 -0.3399 -0.8596
   34CHL1  H18A 2470   1.946   1.901   4.154  1.4013 -0.0116 -1.2703
   34CHL1  H18B 2471   1.811   2.019   4.136  1.4701 -0.8937  2.5271
   34CHL1  H18C 2472   1.876   1.944   3.986  1.1777  1.1805 -1.7309
   34CHL1   C12 2473   1.956   2.217   4.023  0.2651 -0.0102  0.6245
   34CHL1  H12A 2474   1.855   2.232   4.065  1.7604 -0.3252  4.7614
   34CHL1  H12B 2475   2.024   2.305   4.032 -0.4512  0.5408  0.7078
   34CHL1   C11 2476   1.935   2.196   3.868 -0.4410  0.1627  0.3221
   34CHL1  H11A 2477   1.838   2.142   3.863 -2.1177  2.9978 -0.0454
   34CHL1  H11B 2478   1.914   2.285   3.805  0.9987 -1.8620 -3.3586
   34CHL1    C9 2479   2.051   2.117   3.799 -0.0239 -0.7487  0.3503
   34CHL1    H9 2480   2.133   2.191   3.798 -1.7660  1.3460  2.2772
   34CHL1   C10 2481   2.027   2.058   3.649  0.1040  0.2827 -0.3871
   34CHL1   C19 2482   1.901   1.969   3.655  0.6765  0.4726  0.4305
   34CHL1  H19A 2483   1.895   1.896   3.739  0.6252 -1.2977 -1.0551
   34CHL1  H19B 2484   1.810   2.032   3.668  0.0978  0.2313 -1.9971
   34CHL1  H19C 2485   1.897   1.904   3.565 -0.4763 -1.8368  2.0644
   34CHL1    C1 2486   2.002   2.181   3.558 -0.1954  0.5090 -0.6119
   34CHL1   H1A 2487   1.908   2.236   3.582  1.0754  2.7227 -0.4554
   34CHL1   H1B 2488   2.091   2.247   3.566 -0.7421  1.1256  0.6173
   34CHL1    C2 2489   1.973   2.142   3.411 -0.6148  0.3616 -0.1336
   34CHL1   H2A 2490   1.948   2.232   3.350  0.1690 -0.2512 -1.4182
   34CHL1   H2B 2491   1.887   2.072   3.402 -1.2383  1.1484 -0.4354
   34CHL1   C20 2492   1.951   2.132   4.347 -0.2691  0.0927  0.0264
   34CHL1   H20 2493   1.875   2.051   4.341  0.8537 -0.9130 -1.3930
   34CHL1   C21 2494   1.878   2.270   4.331  0.8051 -0.0124 -0.3031
   34CHL1  H21A 2495   1.857   2.317   4.429  1.2894  2.6406 -1.4011
   34CHL1  H21B 2496   1.798   2.260   4.255  0.4955  1.1305 -0.1338
   34CHL1  H21C 2497   1.942   2.351   4.291  1.6889  1.2481  3.2499
   34CHL1   C22 2498   2.015   2.114   4.491 -0.0084  0.3990 -0.1301
   34CHL1  H22A 2499   1.951   2.144   4.577 -0.8787  0.4230 -0.7786
   34CHL1  H22B 2500   2.032   2.005   4.498 -0.3519  0.3222 -0.4640
   34CHL1   C23 2501   2.127   2.211   4.514 -0.5834 -0.0771 -0.0392
   34CHL1  H23A 2502   2.212   2.190   4.446 -0.7624 -0.4348 -0.1557
   34CHL1  H23B 2503   2.104   2.315   4.484  0.0743  0.4649  1.2330
   34CHL1   C24 2504   2.188   2.188   4.652  0.7476  0.0096  0.1273
   34CHL1  H24A 2505   2.108   2.187   4.729  0.4028 -1.5919 -0.2175
   34CHL1  H24B 2506   2.242   2.091   4.643 -0.7734 -0.7957 -0.5967
   34CHL1   C25 2507   2.297   2.286   4.687  0.3882 -0.2355  0.1700
   34CHL1   H25 2508   2.363   2.300   4.599  0.5579 -0.9724  0.1767
   34CHL1   C26 2509   2.234   2.421   4.716  0.3801 -0.5417 -0.0849
   34CHL1  H26A 2510   2.313   2.487   4.757  0.2765  0.4155 -1.3251
   34CHL1  H26B 2511   2.208   2.457   4.614 -0.0550 -1.2712 -0.2393
   34CHL1  H26C 2512   2.143   2.421   4.780 -0.7495  1.2128 -1.5701
   34CHL1   C27 2513   2.368   2.238   4.817  0.1419  0.1213 -0.0739
   34CHL1  H27A 2514   2.457   2.296   4.848 -0.3109  1.2838 -0.8825
   34CHL1  H27B 2515   2.292   2.236   4.897  1.0857  2.3238  0.9602
   34CHL1  H27C 2516   2.396   2.134   4.792 -0.0724 -0.1664  0.8483
   35CHL1    C3 2517   4.013   1.115   2.956  0.4451 -0.5925 -0.2966
   35CHL1    H3 2518   4.042   1.008   2.951 -0.8947 -0.9773 -0.3857
   35CHL1    O3 2519   4.012   1.153   2.819 -0.3586 -0.4783  0.3161
   35CHL1   H3' 2520   3.997   1.247   2.829  0.3976 -0.3976  0.7447
   35CHL1    C4 2521   3.870   1.123   3.021 -0.4275 -0.0319  0.4990
   35CHL1   H4A 2522   3.834   1.225   2.997 -0.6231 -0.5689 -1.7056
   35CHL1   H4B 2523   3.793   1.063   2.968 -0.4437 -0.0655  0.5597
   35CHL1    C5 2524   3.872   1.104   3.167  0.4738  0.0411 -0.8395
   35CHL1    C6 2525   3.796   1.011   3.222 -0.6285  0.2908 -0.3134
   35CHL1    H6 2526   3.727   0.950   3.163 -0.7108  1.0776 -1.0560
   35CHL1    C7 2527   3.789   0.981   3.368  0.4291 -0.8754 -0.2390
   35CHL1   H7A 2528   3.688   0.976   3.415  0.9793 -0.9334  0.9930
   35CHL1   H7B 2529   3.842   0.885   3.387  0.0439 -1.1058 -0.3157
   35CHL1    C8 2530   3.857   1.093   3.456  0.5632  0.0490 -0.0378
   35CHL1    H8 2531   3.782   1.175   3.459 -0.4513 -0.7848 -1.3022
   35CHL1   C14 2532   3.882   1.053   3.602  0.3194  0.4909 -0.7011
   35CHL1   H14 2533   3.958   0.973   3.605 -0.8413 -0.6118  1.8830
   35CHL1   C15 2534   3.764   0.985   3.672 -0.9108  0.1017  0.1963
   35CHL1  H15A 2535   3.672   1.040   3.644 -0.3034 -0.1562 -2.5638
   35CHL1  H15B 2536   3.759   0.879   3.638 -0.9102 -0.2715  1.3077
   35CHL1   C16 2537   3.798   1.000   3.817  0.6006 -0.3181  0.1811
   35CHL1  H16A 2538   3.702   1.035   3.861 -0.0464 -1.8732  0.0798
   35CHL1  H16B 2539   3.804   0.899   3.864 -0.8749 -0.9060 -0.8186
   35CHL1   C17 2540   3.913   1.098   3.838  0.0284  0.4500 -0.3142
   35CHL1   H17 2541   3.997   1.026   3.844  1.6407  2.0881 -1.7931
   35CHL1   C13 2542   3.922   1.165   3.696 -0.1152  0.5255  0.1141
   35CHL1   C18 2543   3.824   1.287   3.690  0.0127 -0.7423 -0.1363
   35CHL1  H18A 2544   3.817   1.342   3.594 -0.1674  0.0812  0.3408
   35CHL1  H18B 2545   3.721   1.249   3.706 -0.2268 -0.1307 -0.2017
   35CHL1  H18C 2546   3.834   1.371   3.761  1.9528  0.9968 -2.2853
   35CHL1   C12 2547   4.060   1.204   3.640  0.1138  0.1423  0.0502
   35CHL1  H12A 2548   4.113   1.261   3.719 -1.6983 -1.2113  2.4062
   35CHL1  H12B 2549   4.119   1.110   3.632  2.0614  1.2213  0.9755
   35CHL1   C11 2550   4.056   1.246   3.492  0.9322 -0.0713  0.1647
   35CHL1  H11A 2551   4.001   1.342   3.489 -0.6188 -0.8375  2.1295
   35CHL1  H11B 2552   4.156   1.269   3.449  1.5231 -0.7458  1.1390
   35CHL1    C9 2553   3.985   1.141   3.399 -0.4846 -0.3869  0.2636
   35CHL1    H9 2554   4.060   1.059   3.398  0.6620  0.6256  0.1832
   35CHL1   C10 2555   3.971   1.184   3.252  0.3632 -0.8663  0.3964
   35CHL1   C19 2556   3.918   1.337   3.254 -0.5722 -0.0215  0.7670
   35CHL1  H19A 2557   3.883   1.379   3.158  2.6534 -0.8730 -0.9408
   35CHL1  H19B 2558   3.840   1.360   3.330 -0.3541 -0.8630  1.2603
   35CHL1  H19C 2559   4.009   1.398   3.274 -0.8469  1.0865 -1.1723
   35CHL1    C1 2560   4.107   1.175   3.181 -0.5640  0.0669 -0.7576
   35CHL1   H1A 2561   4.186   1.227   3.241 -2.1246 -0.3352  1.8121
   35CHL1   H1B 2562   4.146   1.072   3.197  1.9865  0.9892 -0.4088
   35CHL1    C2 2563   4.104   1.210   3.033 -0.0468 -0.5542  0.1399
   35CHL1   H2A 2564   4.201   1.203   2.980 -0.8463 -0.9679 -1.3399
   35CHL1   H2B 2565   4.067   1.312   3.010 -0.6488 -0.7416  0.2606
   35CHL1   C20 2566   3.908   1.177   3.966  0.3663  0.0619  0.5348
   35CHL1   H20 2567   3.814   1.235   3.973 -0.2183 -0.8047  0.0860
   35CHL1   C21 2568   4.033   1.272   3.986 -0.1301 -0.1669 -0.0574
   35CHL1  H21A 2569   4.036   1.330   3.890 -0.6121  2.4944  1.4232
   35CHL1  H21B 2570   4.119   1.205   4.003 -0.8994 -0.4144  3.4431
   35CHL1  H21C 2571   4.027   1.349   4.065  1.6913 -0.2050  0.1508
   35CHL1   C22 2572   3.910   1.086   4.095 -0.6153  0.5469  0.2881
   35CHL1  H22A 2573   3.808   1.043   4.107  0.6379 -2.2862  1.8478
   35CHL1  H22B 2574   3.985   1.007   4.074  0.8706  1.7528  0.8756
   35CHL1   C23 2575   3.951   1.154   4.226  0.1650 -0.3153 -0.3359
   35CHL1  H23A 2576   4.050   1.204   4.228 -0.0603  0.2401 -1.7683
   35CHL1  H23B 2577   3.873   1.232   4.240 -1.0141 -1.1908 -1.6760
   35CHL1   C24 2578   3.949   1.054   4.347 -1.0467  0.4665 -0.1290
   35CHL1  H24A 2579   3.854   0.995   4.348 -2.2951  2.2684  2.6867
   35CHL1  H24B 2580   4.031   0.984   4.323 -1.4315  0.5198 -1.6897
   35CHL1   C25 2581   3.974   1.117   4.487 -0.2826  0.6510  0.2357
   35CHL1   H25 2582   3.882   1.177   4.505 -2.2439 -1.1515 -2.8046
   35CHL1   C26 2583   3.971   1.007   4.601 -0.1617 -0.2425  0.2602
   35CHL1  H26A 2584   3.955   1.067   4.693 -1.1488  0.9312 -0.6362
   35CHL1  H26B 2585   3.880   0.945   4.584 -1.4733  2.1747 -2.3978
   35CHL1  H26C 2586   4.061   0.942   4.603 -1.5935 -2.3681 -0.1128
   35CHL1   C27 2587   4.104   1.204   4.487  0.1505 -0.1065 -0.5244
   35CHL1  H27A 2588   4.189   1.137   4.465 -0.2464 -1.0717  0.7799
   35CHL1  H27B 2589   4.108   1.287   4.413  1.2221  0.2319 -0.1071
   35CHL1  H27C 2590   4.104   1.252   4.587 -1.4025 -0.4365 -0.3417
   36CHL1    C3 2591   1.482   3.406   2.995  0.1413 -0.0263 -0.1040
   36CHL1    H3 2592   1.531   3.504   2.977 -0.9592  0.3679 -1.0963
   36CHL1    O3 2593   1.427   3.351   2.873  0.0681  0.6656  0.1108
   36CHL1   H3' 2594   1.342   3.317   2.900 -1.3789  2.7119 -1.5883
   36CHL1    C4 2595   1.577   3.304   3.059 -0.2924  0.2344 -0.0707
   36CHL1   H4A 2596   1.522   3.207   3.061  0.0184  0.0212 -1.0887
   36CHL1   H4B 2597   1.665   3.290   2.993 -0.1727  0.6094  0.0119
   36CHL1    C5 2598   1.628   3.352   3.191 -0.4792 -0.9740 -0.4105
   36CHL1    C6 2599   1.760   3.367   3.220 -0.0963 -0.2512 -0.4931
   36CHL1    H6 2600   1.820   3.318   3.142  0.4521 -0.8663  0.3109
   36CHL1    C7 2601   1.814   3.413   3.354  0.6922 -0.4038  0.1774
   36CHL1   H7A 2602   1.885   3.344   3.404  0.7657  1.5997  3.0709
   36CHL1   H7B 2603   1.861   3.513   3.341  1.1122 -0.5888  0.2702
   36CHL1    C8 2604   1.701   3.421   3.466 -0.4232 -0.5906 -0.2005
   36CHL1    H8 2605   1.675   3.316   3.489 -1.1820 -0.6277 -1.1981
   36CHL1   C14 2606   1.749   3.499   3.590  0.1240 -0.7825  0.4748
   36CHL1   H14 2607   1.773   3.602   3.555  1.7102 -0.6785  1.7797
   36CHL1   C15 2608   1.877   3.450   3.658 -0.2943  0.2627  0.0173
   36CHL1  H15A 2609   1.891   3.341   3.675 -0.9017  0.6050  3.4359
   36CHL1  H15B 2610   1.969   3.489   3.609  0.7549 -0.5089  1.3036
   36CHL1   C16 2611   1.864   3.505   3.803  0.1509 -0.7207 -0.1267
   36CHL1  H16A 2612   1.880   3.426   3.879  1.2723  0.3109  0.7506
   36CHL1  H16B 2613   1.952   3.573   3.805  0.7986 -1.5022 -0.9578
   36CHL1   C17 2614   1.734   3.575   3.816 -0.2129  0.4915  0.6084
   36CHL1   H17 2615   1.739   3.681   3.783 -0.4274  0.2110 -0.3598
   36CHL1   C13 2616   1.652   3.510   3.701 -0.1633 -0.8027  0.1447
   36CHL1   C18 2617   1.615   3.372   3.753 -1.0360 -0.1053  0.3302
   36CHL1  H18A 2618   1.537   3.388   3.830  0.2361 -0.6741  1.7766
   36CHL1  H18B 2619   1.593   3.302   3.669  1.2316  0.0290 -0.4327
   36CHL1  H18C 2620   1.701   3.327   3.806  0.1985  0.5837 -0.9982
   36CHL1   C12 2621   1.532   3.588   3.657  0.2932 -0.5882 -0.4216
   36CHL1  H12A 2622   1.459   3.574   3.740 -1.1855 -2.4579 -1.9279
   36CHL1  H12B 2623   1.549   3.695   3.633  2.5780 -1.1819 -1.8302
   36CHL1   C11 2624   1.471   3.515   3.532  0.3565 -0.8726  0.2568
   36CHL1  H11A 2625   1.424   3.423   3.575 -0.4410 -0.4269  0.3561
   36CHL1  H11B 2626   1.385   3.569   3.487 -0.7001 -1.1064  1.8992
   36CHL1    C9 2627   1.575   3.488   3.419 -0.2042  0.3175  0.6791
   36CHL1    H9 2628   1.602   3.592   3.389  1.3281 -0.3362 -0.3591
   36CHL1   C10 2629   1.521   3.409   3.294  0.1621 -0.5457 -0.5921
   36CHL1   C19 2630   1.444   3.284   3.337  0.2003  0.0874 -0.0533
   36CHL1  H19A 2631   1.366   3.315   3.410  0.5252 -0.0011  0.3399
   36CHL1  H19B 2632   1.396   3.231   3.253 -0.4592  2.8473 -1.5489
   36CHL1  H19C 2633   1.512   3.219   3.396 -0.3917 -0.1440  0.3914
   36CHL1    C1 2634   1.427   3.500   3.215 -0.1547 -0.1435 -1.0873
   36CHL1   H1A 2635   1.341   3.523   3.281  1.7214  1.5038  0.9422
   36CHL1   H1B 2636   1.474   3.598   3.196 -1.0879  0.4448 -0.4323
   36CHL1    C2 2637   1.364   3.436   3.093 -0.1270 -0.0715  0.8350
   36CHL1   H2A 2638   1.289   3.505   3.048 -0.3241 -0.9784 -0.2875
   36CHL1   H2B 2639   1.310   3.339   3.100 -3.6125  1.7535  1.9523
   36CHL1   C20 2640   1.687   3.585   3.959 -0.1375  0.6905  0.1751
   36CHL1   H20 2641   1.649   3.489   4.000 -0.6959  0.3036 -1.1842
   36CHL1   C21 2642   1.563   3.665   3.969  0.8253  0.7728 -0.0630
   36CHL1  H21A 2643   1.556   3.705   4.072  2.5778 -2.2490  1.3830
   36CHL1  H21B 2644   1.474   3.602   3.948  1.1330  0.3479 -0.1070
   36CHL1  H21C 2645   1.557   3.752   3.900  1.1221  2.2518  1.7187
   36CHL1   C22 2646   1.791   3.647   4.058  0.4293  0.6890  0.1914
   36CHL1  H22A 2647   1.895   3.617   4.032  0.1410  0.5644 -0.8535
   36CHL1  H22B 2648   1.788   3.758   4.054  1.1543  0.7949  1.6899
   36CHL1   C23 2649   1.778   3.612   4.213 -0.0818 -0.0246 -0.4371
   36CHL1  H23A 2650   1.673   3.614   4.248  0.9203  1.4983  2.9577
   36CHL1  H23B 2651   1.815   3.507   4.222  0.7435  0.3139  0.3831
   36CHL1   C24 2652   1.865   3.702   4.305  0.7200 -0.3622  0.9161
   36CHL1  H24A 2653   1.966   3.708   4.258  0.5313  3.0346  0.6856
   36CHL1  H24B 2654   1.808   3.797   4.302 -0.7865 -1.2315  0.9885
   36CHL1   C25 2655   1.890   3.652   4.450  0.3027  0.6001 -0.3376
   36CHL1   H25 2656   1.869   3.543   4.449 -1.0367  0.8180 -2.5167
   36CHL1   C26 2657   2.034   3.685   4.495  0.1378 -0.5758  0.3539
   36CHL1  H26A 2658   2.042   3.796   4.490 -0.1115 -0.6151 -1.8692
   36CHL1  H26B 2659   2.052   3.647   4.598  0.0741  2.0455  1.4083
   36CHL1  H26C 2660   2.108   3.644   4.423  0.1259 -3.0088  1.6324
   36CHL1   C27 2661   1.787   3.717   4.539  0.6177 -0.0126 -0.4991
   36CHL1  H27A 2662   1.796   3.683   4.644 -0.2520  0.9527 -0.0944
   36CHL1  H27B 2663   1.805   3.827   4.535 -1.1961  0.2948 -1.1124
   36CHL1  H27C 2664   1.683   3.693   4.512  0.0882  0.3453  1.1011
   37CHL1    C3 2665   5.797   1.896   3.139 -0.7540  0.6318  0.2049
   37CHL1    H3 2666   5.721   1.977   3.136  0.6469  1.9756 -0.2167
   37CHL1    O3 2667   5.833   1.856   3.004  0.4662  0.4036  0.2787
   37CHL1   H3' 2668   5.875   1.771   3.019 -0.2038  0.0642  0.2483
   37CHL1    C4 2669   5.919   1.954   3.206 -0.3966  0.3146  0.6986
   37CHL1   H4A 2670   6.011   1.891   3.205  0.4997  1.4987  2.5377
   37CHL1   H4B 2671   5.935   2.047   3.148 -0.3056 -0.9017 -1.2934
   37CHL1    C5 2672   5.889   1.981   3.350 -0.4958 -0.6166  0.1907
   37CHL1    C6 2673   5.910   2.106   3.395 -0.3689  0.3125 -0.3557
   37CHL1    H6 2674   5.952   2.175   3.321  3.0074 -1.7461 -0.5674
   37CHL1    C7 2675   5.905   2.143   3.538 -0.0364 -1.5450  0.7402
   37CHL1   H7A 2676   5.994   2.197   3.577 -1.5715 -0.0745  2.4007
   37CHL1   H7B 2677   5.817   2.210   3.551  1.0098 -0.2053  1.0798
   37CHL1    C8 2678   5.895   2.025   3.637 -0.2908 -0.1629  1.2237
   37CHL1    H8 2679   5.996   1.980   3.648  0.8237  2.0105  0.5334
   37CHL1   C14 2680   5.840   2.070   3.767  0.4582  0.5237 -0.2201
   37CHL1   H14 2681   5.737   2.100   3.737 -0.8312 -2.0780  1.2189
   37CHL1   C15 2682   5.908   2.191   3.847 -0.4300  0.3830  0.5222
   37CHL1  H15A 2683   6.017   2.174   3.847  0.0479  2.9093  1.4267
   37CHL1  H15B 2684   5.892   2.286   3.790  3.0071  1.0708  0.5108
   37CHL1   C16 2685   5.855   2.179   3.993 -0.7400  0.1370  0.1777
   37CHL1  H16A 2686   5.941   2.162   4.061 -0.8849  0.3309  0.4139
   37CHL1  H16B 2687   5.804   2.273   4.024 -0.6266 -0.0761  1.0418
   37CHL1   C17 2688   5.764   2.051   3.992  0.1349 -0.2192  0.6277
   37CHL1   H17 2689   5.668   2.101   3.966 -0.8216 -1.6283  1.3367
   37CHL1   C13 2690   5.817   1.969   3.877  0.5908  0.2617 -0.1604
   37CHL1   C18 2691   5.962   1.913   3.911 -0.3803 -0.3517  0.6759
   37CHL1  H18A 2692   5.953   1.850   4.002 -1.1327 -0.4127  0.5669
   37CHL1  H18B 2693   5.998   1.847   3.828 -0.3235 -0.4407  0.7711
   37CHL1  H18C 2694   6.046   1.985   3.917 -0.4389 -0.2141  0.0061
   37CHL1   C12 2695   5.718   1.863   3.827 -0.1491  0.2890 -0.2836
   37CHL1  H12A 2696   5.705   1.773   3.891  0.1782 -1.3780 -2.4357
   37CHL1  H12B 2697   5.619   1.913   3.814 -0.7700 -1.2122 -1.6886
   37CHL1   C11 2698   5.766   1.807   3.686 -0.0882 -0.5771 -0.3499
   37CHL1  H11A 2699   5.850   1.738   3.708 -0.0714 -0.3535  0.2955
   37CHL1  H11B 2700   5.684   1.746   3.642 -1.1682  0.4020  0.2507
   37CHL1    C9 2701   5.799   1.917   3.580  0.0146  0.1190 -0.3479
   37CHL1    H9 2702   5.704   1.972   3.565  0.3362  1.2344  1.4167
   37CHL1   C10 2703   5.837   1.870   3.440  0.2651 -0.2305 -0.6576
   37CHL1   C19 2704   5.955   1.762   3.453  0.7291  0.0865 -0.4585
   37CHL1  H19A 2705   5.986   1.716   3.357  0.9230 -1.4512  0.3108
   37CHL1  H19B 2706   6.041   1.795   3.515 -0.6455  1.3047  0.9101
   37CHL1  H19C 2707   5.907   1.674   3.502  0.1362  0.8799  0.4308
   37CHL1    C1 2708   5.710   1.816   3.366 -0.3461  0.0569 -0.4868
   37CHL1   H1A 2709   5.675   1.729   3.426 -0.3277  0.5835  0.3048
   37CHL1   H1B 2710   5.635   1.898   3.370  0.7176  1.0006  1.4776
   37CHL1    C2 2711   5.738   1.780   3.219 -0.1455 -0.0017  0.4737
   37CHL1   H2A 2712   5.640   1.745   3.183 -0.8866 -0.9433  3.1345
   37CHL1   H2B 2713   5.816   1.700   3.219  1.6770  1.6202 -2.4206
   37CHL1   C20 2714   5.745   1.979   4.127 -0.4628 -0.9753 -0.6537
   37CHL1   H20 2715   5.805   1.885   4.122 -0.2193 -0.8924  0.4019
   37CHL1   C21 2716   5.599   1.934   4.137 -0.7127 -0.6108 -0.1207
   37CHL1  H21A 2717   5.592   1.862   4.221  1.3589 -0.5798  0.1341
   37CHL1  H21B 2718   5.567   1.874   4.049 -0.3637 -0.4804 -0.3377
   37CHL1  H21C 2719   5.534   2.022   4.160 -0.7903 -0.8842  0.7363
   37CHL1   C22 2720   5.783   2.062   4.254 -0.2162  0.2077  0.1831
   37CHL1  H22A 2721   5.762   2.171   4.247 -0.6575  0.0237 -2.2432
   37CHL1  H22B 2722   5.720   2.023   4.336  0.7819 -2.7298 -0.3455
   37CHL1   C23 2723   5.924   2.037   4.313 -0.3066  0.6618 -0.0587
   37CHL1  H23A 2724   5.936   1.933   4.349 -0.1130  0.3546 -0.9953
   37CHL1  H23B 2725   6.000   2.050   4.232  0.1705  2.5705  0.6281
   37CHL1   C24 2726   5.958   2.138   4.425  0.4911 -0.3302 -0.1297
   37CHL1  H24A 2727   5.951   2.240   4.382 -1.1009 -0.5131 -0.3814
   37CHL1  H24B 2728   5.879   2.121   4.501 -0.4294  2.7378 -0.2837
   37CHL1   C25 2729   6.100   2.122   4.487  0.1203 -0.1145  0.4006
   37CHL1   H25 2730   6.170   2.159   4.409  0.7263 -3.7730 -0.9612
   37CHL1   C26 2731   6.106   2.222   4.605  0.0166 -0.8515 -0.0822
   37CHL1  H26A 2732   6.210   2.245   4.636 -0.9132  1.4169  1.6200
   37CHL1  H26B 2733   6.060   2.317   4.572  0.3396 -0.6591  0.0216
   37CHL1  H26C 2734   6.035   2.191   4.685  0.0495  0.3312  0.4249
   37CHL1   C27 2735   6.131   1.976   4.521 -0.1747  0.4200  0.2909
   37CHL1  H27A 2736   6.144   1.937   4.418  2.0615  2.9982 -0.5326
   37CHL1  H27B 2737   6.232   1.977   4.568 -0.3998  3.6120  0.9761
   37CHL1  H27C 2738   6.054   1.923   4.581 -0.0552 -1.8543 -1.4666
   38CHL1    C3 2739   1.219   5.396   3.511 -0.0832  0.4794  0.7651
   38CHL1    H3 2740   1.273   5.488   3.539 -0.0166  1.1198 -1.3220
   38CHL1    O3 2741   1.278   5.358   3.386  0.1321 -0.8448 -1.0103
   38CHL1   H3' 2742   1.346   5.296   3.413  1.5372  0.2232 -1.9702
   38CHL1    C4 2743   1.238   5.283   3.614  1.1608  0.4651  0.0659
   38CHL1   H4A 2744   1.225   5.188   3.558 -1.8823  0.3983  0.7179
   38CHL1   H4B 2745   1.348   5.285   3.628  1.1717  0.2088  0.0179
   38CHL1    C5 2746   1.156   5.296   3.746 -0.1331  0.2834 -0.3879
   38CHL1    C6 2747   1.221   5.285   3.869 -0.2946 -0.2294  0.9891
   38CHL1    H6 2748   1.330   5.273   3.857 -0.1924  2.5090 -2.5126
   38CHL1    C7 2749   1.152   5.283   4.001  0.2525 -0.6742  0.4591
   38CHL1   H7A 2750   1.176   5.193   4.061  2.2439 -1.4061 -1.3040
   38CHL1   H7B 2751   1.184   5.375   4.055 -0.1778 -1.0078  1.2934
   38CHL1    C8 2752   0.991   5.282   3.979 -0.4108  0.5397 -0.0176
   38CHL1    H8 2753   0.966   5.175   3.963  2.0519  0.1255 -1.5256
   38CHL1   C14 2754   0.919   5.329   4.105 -0.3000  0.8729 -0.1116
   38CHL1   H14 2755   0.967   5.428   4.116  2.7622 -0.4155 -0.7862
   38CHL1   C15 2756   0.957   5.268   4.244 -0.0292  0.5999 -0.1575
   38CHL1  H15A 2757   0.961   5.157   4.236  1.5454  0.4384  1.9473
   38CHL1  H15B 2758   1.059   5.301   4.273  1.7734 -2.1729 -2.7913
   38CHL1   C16 2759   0.836   5.300   4.333 -0.0983 -0.6771 -0.0940
   38CHL1  H16A 2760   0.795   5.209   4.381 -0.3602  0.2295  1.4505
   38CHL1  H16B 2761   0.884   5.361   4.412 -1.7531  0.0180  0.4199
   38CHL1   C17 2762   0.738   5.375   4.244 -0.0934 -0.0212  0.1890
   38CHL1   H17 2763   0.764   5.483   4.253  1.0506 -0.2568 -0.0929
   38CHL1   C13 2764   0.770   5.329   4.100 -0.3972 -0.1850  0.2230
   38CHL1   C18 2765   0.705   5.192   4.087 -0.1405  0.4610 -0.2621
   38CHL1  H18A 2766   0.595   5.201   4.084 -0.2618 -1.0225 -1.3226
   38CHL1  H18B 2767   0.752   5.131   4.007  0.5072  2.3060 -1.3655
   38CHL1  H18C 2768   0.725   5.142   4.184 -0.4060  2.1243  0.6928
   38CHL1   C12 2769   0.721   5.420   3.981 -0.1022  0.4481 -0.2790
   38CHL1  H12A 2770   0.613   5.414   3.953  0.1161  1.1264 -1.3151
   38CHL1  H12B 2771   0.735   5.526   4.011 -2.6746  0.6471  0.4924
   38CHL1   C11 2772   0.792   5.375   3.851 -0.6826  0.1537 -0.6567
   38CHL1  H11A 2773   0.757   5.272   3.828 -0.3972  0.5815 -3.2740
   38CHL1  H11B 2774   0.754   5.435   3.765 -0.2128 -0.5094 -1.3461
   38CHL1    C9 2775   0.944   5.365   3.860  0.4332  0.2585 -0.7972
   38CHL1    H9 2776   0.992   5.463   3.882  0.6954 -0.3703  1.7836
   38CHL1   C10 2777   1.003   5.327   3.722 -1.2793  0.4176 -0.6165
   38CHL1   C19 2778   0.937   5.203   3.670  0.4469  0.4887  0.1658
   38CHL1  H19A 2779   0.981   5.160   3.578 -3.0001 -2.2237 -0.4400
   38CHL1  H19B 2780   0.942   5.120   3.744 -0.0010 -1.3528 -1.7658
   38CHL1  H19C 2781   0.832   5.230   3.646  0.7090  0.6020 -0.9075
   38CHL1    C1 2782   0.996   5.448   3.620 -0.0545 -0.8911 -0.1884
   38CHL1   H1A 2783   0.894   5.484   3.596  0.9001  2.3522  0.1928
   38CHL1   H1B 2784   1.046   5.534   3.669  0.1397 -1.3903  0.4970
   38CHL1    C2 2785   1.068   5.421   3.490 -0.0984 -0.3778  0.3991
   38CHL1   H2A 2786   1.062   5.520   3.441  0.2442 -0.1821  0.7508
   38CHL1   H2B 2787   1.019   5.342   3.427  0.9950 -1.2215  0.5752
   38CHL1   C20 2788   0.589   5.370   4.294  0.4291  0.1081 -0.4516
   38CHL1   H20 2789   0.542   5.269   4.292  0.3670  0.0935  0.8847
   38CHL1   C21 2790   0.505   5.456   4.199  0.5143 -0.3888 -0.1732
   38CHL1  H21A 2791   0.405   5.489   4.237  0.1104 -0.6177 -1.0159
   38CHL1  H21B 2792   0.492   5.397   4.106  0.5064 -0.9870  0.1996
   38CHL1  H21C 2793   0.545   5.554   4.168  0.0412 -1.1632 -3.6330
   38CHL1   C22 2794   0.571   5.427   4.433 -0.1372  0.0180 -0.3590
   38CHL1  H22A 2795   0.628   5.367   4.507 -3.1720 -1.9033  0.5811
   38CHL1  H22B 2796   0.611   5.529   4.450  1.9928 -0.9683  0.9045
   38CHL1   C23 2797   0.428   5.427   4.499 -0.8337  0.5931 -0.2802
   38CHL1  H23A 2798   0.355   5.480   4.434 -1.2151  0.8085  0.3152
   38CHL1  H23B 2799   0.398   5.320   4.493 -1.8185  0.7749  1.1362
   38CHL1   C24 2800   0.428   5.473   4.643 -0.2943  0.1709  0.3787
   38CHL1  H24A 2801   0.520   5.429   4.686  0.6310  1.3133 -0.3658
   38CHL1  H24B 2802   0.451   5.581   4.657  1.5197 -0.0803 -0.3585
   38CHL1   C25 2803   0.306   5.436   4.737 -0.6642  0.4390 -0.8917
   38CHL1   H25 2804   0.289   5.326   4.738  3.5147 -0.3975  1.9400
   38CHL1   C26 2805   0.339   5.462   4.886 -0.4849  0.4165  0.3956
   38CHL1  H26A 2806   0.264   5.416   4.955 -1.2255  1.5190  0.3436
   38CHL1  H26B 2807   0.447   5.442   4.901 -0.1026  2.8943  1.3314
   38CHL1  H26C 2808   0.327   5.572   4.893  2.7457  0.8870 -0.1504
   38CHL1   C27 2809   0.180   5.521   4.697 -0.0613 -0.3572  0.6888
   38CHL1  H27A 2810   0.088   5.481   4.744  1.2751 -2.0563  2.0014
   38CHL1  H27B 2811   0.195   5.623   4.737 -0.4946 -0.6815  1.6892
   38CHL1  H27C 2812   0.174   5.541   4.588  0.1169  4.3953  1.3604
   39CHL1    C3 2813   6.698   2.416   3.200  0.1775 -0.3294 -0.7277
   39CHL1    H3 2814   6.785   2.477   3.167  1.6184 -1.1989  1.2626
   39CHL1    O3 2815   6.610   2.398   3.090  0.8790  0.4989 -0.5784
   39CHL1   H3' 2816   6.604   2.481   3.042 -0.7857 -0.0656 -1.4219
   39CHL1    C4 2817   6.750   2.283   3.249  0.4423  0.1715  0.2706
   39CHL1   H4A 2818   6.656   2.225   3.264  0.1595  0.8508  1.2552
   39CHL1   H4B 2819   6.813   2.241   3.168  3.0935  2.8910  0.7361
   39CHL1    C5 2820   6.820   2.292   3.386  0.0641 -0.0673 -0.2257
   39CHL1    C6 2821   6.936   2.235   3.411 -0.5999  0.7448 -0.4643
   39CHL1    H6 2822   6.965   2.167   3.330  1.6868  1.2544 -0.1643
   39CHL1    C7 2823   7.003   2.240   3.549  0.0786  0.3727 -0.0079
   39CHL1   H7A 2824   7.039   2.142   3.587  0.4903 -0.0790 -1.5044
   39CHL1   H7B 2825   7.083   2.316   3.551  0.9510 -0.5401  1.7717
   39CHL1    C8 2826   6.907   2.294   3.668 -0.0234  0.7261 -0.1476
   39CHL1    H8 2827   6.841   2.205   3.683  1.6947 -0.7322 -0.9125
   39CHL1   C14 2828   6.982   2.327   3.793 -0.7140 -1.0516 -0.3297
   39CHL1   H14 2829   7.051   2.412   3.775  1.1036 -1.5167  3.3541
   39CHL1   C15 2830   7.078   2.211   3.845 -0.0872  0.5822 -0.2021
   39CHL1  H15A 2831   7.029   2.113   3.827 -0.6253  1.0813 -1.5319
   39CHL1  H15B 2832   7.178   2.211   3.797 -0.1657 -2.4541 -0.5625
   39CHL1   C16 2833   7.086   2.250   3.991 -0.4224  0.5278  0.3288
   39CHL1  H16A 2834   7.057   2.169   4.062  0.8112  2.1811  2.8696
   39CHL1  H16B 2835   7.195   2.261   4.004  0.1260 -3.8831  0.9354
   39CHL1   C17 2836   6.993   2.373   4.022  0.5938  0.2415 -0.1430
   39CHL1   H17 2837   7.050   2.466   4.004  1.3611 -0.4121 -1.1674
   39CHL1   C13 2838   6.892   2.362   3.911 -0.4852  0.6111  0.4478
   39CHL1   C18 2839   6.793   2.247   3.941  0.2497  0.2389 -0.1189
   39CHL1  H18A 2840   6.843   2.158   3.985 -0.9920 -0.6146 -0.3615
   39CHL1  H18B 2841   6.726   2.289   4.019  0.4958  2.1270 -0.8654
   39CHL1  H18C 2842   6.732   2.216   3.853 -1.6256  1.8973  0.5160
   39CHL1   C12 2843   6.819   2.495   3.868 -0.3134  0.3031 -0.0178
   39CHL1  H12A 2844   6.750   2.527   3.950 -1.0641 -0.6312 -0.2729
   39CHL1  H12B 2845   6.896   2.575   3.860 -0.9646  0.7742 -2.2804
   39CHL1   C11 2846   6.737   2.481   3.733 -0.0572  0.2369 -0.8642
   39CHL1  H11A 2847   6.655   2.415   3.768  1.1680 -1.3535 -0.8773
   39CHL1  H11B 2848   6.685   2.575   3.704 -0.2208  0.6408  0.6553
   39CHL1    C9 2849   6.816   2.406   3.624 -0.0753 -0.2307  0.1076
   39CHL1    H9 2850   6.885   2.483   3.587 -1.6122  0.6044 -1.1436
   39CHL1   C10 2851   6.738   2.369   3.498 -0.3590  0.5723  0.3110
   39CHL1   C19 2852   6.622   2.278   3.543  0.0365  0.0289  0.1302
   39CHL1  H19A 2853   6.551   2.268   3.458  1.1226  1.2239 -0.9570
   39CHL1  H19B 2854   6.646   2.173   3.569 -1.4962 -0.6178 -0.8839
   39CHL1  H19C 2855   6.565   2.329   3.624  0.2917  0.8771 -0.2132
   39CHL1    C1 2856   6.675   2.506   3.444 -0.0957 -0.1881 -0.3300
   39CHL1   H1A 2857   6.605   2.546   3.520  0.8641 -1.0336  1.0519
   39CHL1   H1B 2858   6.762   2.575   3.437 -0.5540  0.3593 -0.6963
   39CHL1    C2 2859   6.609   2.496   3.307  0.3178 -0.1073 -0.8722
   39CHL1   H2A 2860   6.588   2.595   3.261  0.3234  0.9642  1.2769
   39CHL1   H2B 2861   6.510   2.448   3.322  0.2118  0.5094  0.6559
   39CHL1   C20 2862   6.954   2.379   4.173 -0.0758  0.5585  0.7228
   39CHL1   H20 2863   6.909   2.281   4.201 -0.0700  0.2267 -0.3998
   39CHL1   C21 2864   6.854   2.490   4.200  0.0468 -0.0454 -0.3947
   39CHL1  H21A 2865   6.766   2.506   4.134  0.1296  0.0392 -0.4868
   39CHL1  H21B 2866   6.899   2.590   4.220  1.2001 -0.6731  0.2350
   39CHL1  H21C 2867   6.807   2.468   4.298  1.8062  0.7006  0.6799
   39CHL1   C22 2868   7.081   2.401   4.267  0.2985 -0.0714 -0.0903
   39CHL1  H22A 2869   7.156   2.322   4.248  0.8127  0.1571  0.8946
   39CHL1  H22B 2870   7.115   2.504   4.243  0.0817 -0.2823 -1.3792
   39CHL1   C23 2871   7.049   2.404   4.420 -0.4655  0.0213  0.2887
   39CHL1  H23A 2872   6.987   2.493   4.444 -2.0137 -0.2088 -2.4020
   39CHL1  H23B 2873   6.997   2.308   4.442  0.7107 -0.7587 -0.2272
   39CHL1   C24 2874   7.187   2.425   4.502 -0.0741 -0.2115  0.0448
   39CHL1  H24A 2875   7.257   2.342   4.481 -0.9417 -1.2837  1.1823
   39CHL1  H24B 2876   7.235   2.513   4.453  1.2732 -2.1527 -2.3514
   39CHL1   C25 2877   7.164   2.445   4.656  0.7830  0.3458 -0.0637
   39CHL1   H25 2878   7.079   2.513   4.678 -1.0127 -1.5428 -0.7651
   39CHL1   C26 2879   7.133   2.304   4.723  0.3516 -0.1070  0.4246
   39CHL1  H26A 2880   7.072   2.236   4.660  0.1319  1.2133 -0.8527
   39CHL1  H26B 2881   7.230   2.261   4.755  0.4419  0.7664  1.4004
   39CHL1  H26C 2882   7.085   2.320   4.822  1.1246  0.1851  0.7643
   39CHL1   C27 2883   7.289   2.508   4.711  0.3892  0.6354 -0.0339
   39CHL1  H27A 2884   7.308   2.610   4.669  2.1375  0.5844  0.5480
   39CHL1  H27B 2885   7.276   2.522   4.821  1.7499  0.0380  0.2285
   39CHL1  H27C 2886   7.381   2.448   4.696  0.1308  0.2494 -0.0733
   40CHL1    C3 2887   4.872   5.622   3.012  0.6513 -0.2684 -0.2315
   40CHL1    H3 2888   4.925   5.532   3.050  0.6295 -0.1079  0.1822
   40CHL1    O3 2889   4.889   5.653   2.878  0.4431 -0.2482  0.1421
   40CHL1   H3' 2890   4.867   5.744   2.857  0.9604 -0.1296  0.1224
   40CHL1    C4 2891   4.721   5.610   3.040 -0.1895 -0.6247 -0.2548
   40CHL1   H4A 2892   4.670   5.696   2.992  1.6853  0.6739 -0.0413
   40CHL1   H4B 2893   4.677   5.532   2.975 -1.0563 -0.8423  0.5739
   40CHL1    C5 2894   4.698   5.584   3.185 -0.1848  1.7178 -0.5302
   40CHL1    C6 2895   4.636   5.472   3.224 -0.3207  0.8924  0.0285
   40CHL1    H6 2896   4.602   5.404   3.145 -4.9033  0.9002  1.7272
   40CHL1    C7 2897   4.581   5.437   3.355 -0.7227 -0.2782  0.3996
   40CHL1   H7A 2898   4.470   5.427   3.360 -0.9735  2.0168  4.4837
   40CHL1   H7B 2899   4.634   5.350   3.399 -1.4168 -1.1179 -0.3792
   40CHL1    C8 2900   4.608   5.552   3.454 -0.8671  0.7301  0.5027
   40CHL1    H8 2901   4.525   5.625   3.448 -0.5616  1.4073  3.2184
   40CHL1   C14 2902   4.610   5.500   3.592  0.6556 -0.9311  0.2937
   40CHL1   H14 2903   4.698   5.433   3.592  0.4454 -1.2087  0.4284
   40CHL1   C15 2904   4.475   5.427   3.645 -0.4180 -0.4225  0.0095
   40CHL1  H15A 2905   4.392   5.499   3.631 -0.0244 -0.1190 -0.8351
   40CHL1  H15B 2906   4.455   5.337   3.583  1.9703 -0.4758 -0.7875
   40CHL1   C16 2907   4.492   5.416   3.795  0.1143  0.5123 -0.0091
   40CHL1  H16A 2908   4.399   5.449   3.847 -0.6183 -0.1397 -0.8813
   40CHL1  H16B 2909   4.511   5.309   3.819 -0.1801  0.3504 -0.5057
   40CHL1   C17 2910   4.612   5.515   3.830 -0.0827 -0.8942  0.2478
   40CHL1   H17 2911   4.692   5.441   3.846  0.0286 -1.3382 -1.9410
   40CHL1   C13 2912   4.632   5.603   3.703  0.0840  0.1502  0.9858
   40CHL1   C18 2913   4.527   5.712   3.707  0.1695  0.0221  0.7494
   40CHL1  H18A 2914   4.431   5.675   3.750  0.2879  0.3608  1.3056
   40CHL1  H18B 2915   4.565   5.799   3.765  1.0897 -0.4238  0.8209
   40CHL1  H18C 2916   4.507   5.750   3.604  1.1114 -0.9066  0.2098
   40CHL1   C12 2917   4.771   5.667   3.673  0.0699 -0.0867 -0.1203
   40CHL1  H12A 2918   4.778   5.740   3.757 -2.9863  0.2305 -0.0109
   40CHL1  H12B 2919   4.850   5.591   3.691  0.9954  0.8677 -0.0162
   40CHL1   C11 2920   4.773   5.733   3.535  0.2187 -0.0714 -0.0740
   40CHL1  H11A 2921   4.707   5.823   3.532  0.5912  0.3997  2.9019
   40CHL1  H11B 2922   4.880   5.758   3.524 -0.2986  2.5338  0.0693
   40CHL1    C9 2923   4.743   5.627   3.421  0.3651  0.0351 -0.4103
   40CHL1    H9 2924   4.820   5.547   3.430 -2.6074 -3.3447 -2.5187
   40CHL1   C10 2925   4.751   5.688   3.282  0.2424 -0.1379 -1.0925
   40CHL1   C19 2926   4.665   5.815   3.273 -0.1931  0.4914 -0.0677
   40CHL1  H19A 2927   4.716   5.898   3.325  0.3204 -1.4743  2.8162
   40CHL1  H19B 2928   4.637   5.856   3.173  0.0039 -1.2620 -0.8905
   40CHL1  H19C 2929   4.564   5.801   3.319 -0.7750  0.6148 -1.2508
   40CHL1    C1 2930   4.902   5.712   3.241  0.8754  0.3217  0.2883
   40CHL1   H1A 2931   4.943   5.800   3.294 -0.2055  1.7802 -1.1962
   40CHL1   H1B 2932   4.957   5.622   3.277  1.3713  0.9684  1.1752
   40CHL1    C2 2933   4.924   5.740   3.097  0.4388  1.2527  0.8482
   40CHL1   H2A 2934   5.034   5.746   3.079  0.3768  2.2518  0.7881
   40CHL1   H2B 2935   4.872   5.835   3.072  1.3470  1.6355  0.3725
   40CHL1   C20 2936   4.594   5.594   3.962 -0.1512 -0.6067  0.2181
   40CHL1   H20 2937   4.513   5.669   3.952 -1.5350 -1.9932  0.6869
   40CHL1   C21 2938   4.725   5.662   4.001  0.6086 -0.3977  0.1351
   40CHL1  H21A 2939   4.730   5.686   4.109  2.4929  1.0751 -0.2319
   40CHL1  H21B 2940   4.738   5.762   3.955 -0.6963  0.0632  0.7116
   40CHL1  H21C 2941   4.804   5.593   3.965  0.5103 -1.4263  1.7802
   40CHL1   C22 2942   4.559   5.508   4.083 -0.5223  0.5397 -0.0623
   40CHL1  H22A 2943   4.522   5.586   4.153 -2.4775 -0.8487  0.5420
   40CHL1  H22B 2944   4.476   5.439   4.056  0.2423 -1.4680  2.3956
   40CHL1   C23 2945   4.665   5.412   4.137 -0.2881  0.1693 -0.4651
   40CHL1  H23A 2946   4.671   5.329   4.063  4.7357 -0.4176  0.2715
   40CHL1  H23B 2947   4.770   5.448   4.146  0.5968 -2.8069  2.9214
   40CHL1   C24 2948   4.631   5.362   4.275 -0.5001  0.0609  0.0829
   40CHL1  H24A 2949   4.624   5.455   4.336  1.7925 -0.9046  2.0170
   40CHL1  H24B 2950   4.527   5.324   4.280 -0.0673 -2.0043 -3.6572
   40CHL1   C25 2951   4.738   5.262   4.344  0.6032 -1.0242 -0.1258
   40CHL1   H25 2952   4.838   5.310   4.347  0.2530 -0.3336  1.9208
   40CHL1   C26 2953   4.699   5.233   4.484 -0.1317  0.4754 -0.2540
   40CHL1  H26A 2954   4.791   5.201   4.536 -0.9868 -0.6755  0.6143
   40CHL1  H26B 2955   4.676   5.331   4.530 -0.4876  0.4857 -0.4480
   40CHL1  H26C 2956   4.617   5.158   4.486 -0.9036  0.8935 -5.0107
   40CHL1   C27 2957   4.746   5.128   4.274 -0.0730  0.0872  0.4403
   40CHL1  H27A 2958   4.770   5.152   4.168 -1.8290  0.0469  0.0104
   40CHL1  H27B 2959   4.826   5.062   4.314 -0.8152 -0.5059  0.9686
   40CHL1  H27C 2960   4.643   5.087   4.281 -0.2487  0.6433  1.2079
   41CHL1    C3 2961   3.035   2.712   3.185 -0.0798  0.2677  0.1879
   41CHL1    H3 2962   3.074   2.816   3.182  1.6677 -0.2187  2.6571
   41CHL1    O3 2963   3.019   2.666   3.052 -0.1862  0.6145  0.1832
   41CHL1   H3' 2964   2.985   2.576   3.048 -0.7827  0.8178  0.5027
   41CHL1    C4 2965   3.143   2.626   3.246 -0.6072 -0.0176 -0.3543
   41CHL1   H4A 2966   3.109   2.521   3.230 -2.3367  0.5826 -0.8949
   41CHL1   H4B 2967   3.233   2.632   3.180 -1.8220 -2.0957 -2.3687
   41CHL1    C5 2968   3.174   2.657   3.390 -0.2472  1.0875 -0.0227
   41CHL1    C6 2969   3.298   2.676   3.436  0.8443  0.0466  0.4256
   41CHL1    H6 2970   3.377   2.652   3.364  0.3865  0.8697 -0.3807
   41CHL1    C7 2971   3.319   2.693   3.586 -0.0352 -1.1427  0.3896
   41CHL1   H7A 2972   3.400   2.629   3.627  3.4630  1.3055 -2.0861
   41CHL1   H7B 2973   3.359   2.796   3.600 -1.5415 -0.6549  1.3739
   41CHL1    C8 2974   3.197   2.673   3.678 -0.5059 -0.2858 -0.6992
   41CHL1    H8 2975   3.198   2.564   3.697 -0.8093  0.3543  4.5563
   41CHL1   C14 2976   3.215   2.735   3.818  0.5462 -0.5883  0.5637
   41CHL1   H14 2977   3.224   2.843   3.791 -1.0168 -0.3903  0.7545
   41CHL1   C15 2978   3.343   2.710   3.897 -0.1561 -0.5604 -0.2851
   41CHL1  H15A 2979   3.368   2.601   3.899 -2.8181 -1.3501 -2.9050
   41CHL1  H15B 2980   3.424   2.766   3.846 -2.2085  2.8002 -0.1565
   41CHL1   C16 2981   3.308   2.755   4.041 -0.7031  0.0724 -0.4544
   41CHL1  H16A 2982   3.326   2.666   4.105  2.2477 -1.2604 -2.8249
   41CHL1  H16B 2983   3.362   2.848   4.069 -0.0836 -0.6577  0.8823
   41CHL1   C17 2984   3.157   2.796   4.039 -0.3885 -0.6798 -0.1698
   41CHL1   H17 2985   3.158   2.902   4.007  1.2335 -0.0471  1.7756
   41CHL1   C13 2986   3.101   2.719   3.922  0.3670 -0.2321  0.0100
   41CHL1   C18 2987   3.090   2.569   3.974 -0.2445  0.9325  0.4847
   41CHL1  H18A 2988   3.181   2.517   4.010  1.0534  0.3574 -3.2318
   41CHL1  H18B 2989   3.008   2.568   4.050 -1.8351  0.3355 -1.1524
   41CHL1  H18C 2990   3.057   2.501   3.892  3.1540 -0.1454 -0.1331
   41CHL1   C12 2991   2.970   2.768   3.853  0.2857 -1.1628  0.5208
   41CHL1  H12A 2992   2.883   2.737   3.914 -2.3432  1.3679 -1.6388
   41CHL1  H12B 2993   2.978   2.879   3.844  0.9837 -1.2959 -0.6686
   41CHL1   C11 2994   2.943   2.707   3.712  0.0602 -0.0193  0.2866
   41CHL1  H11A 2995   2.916   2.600   3.723 -1.6110  0.0455 -2.3209
   41CHL1  H11B 2996   2.852   2.758   3.673 -0.3852  0.3347  1.7235
   41CHL1    C9 2997   3.064   2.723   3.616  0.7134 -0.6651 -0.2078
   41CHL1    H9 2998   3.075   2.832   3.596 -0.1453 -0.7123 -0.9859
   41CHL1   C10 2999   3.045   2.662   3.476 -0.3021 -0.5108  0.1835
   41CHL1   C19 3000   2.986   2.519   3.491 -0.1029 -0.3786  0.0479
   41CHL1  H19A 3001   3.058   2.455   3.546  0.0363 -1.1679 -1.0400
   41CHL1  H19B 3002   2.888   2.510   3.541 -0.4767 -2.0449 -0.9258
   41CHL1  H19C 3003   2.968   2.483   3.388  0.9516  0.9529 -0.6436
   41CHL1    C1 3004   2.927   2.741   3.401 -0.1008 -0.0471  0.1462
   41CHL1   H1A 3005   2.839   2.734   3.469 -0.2718 -0.6586 -0.1334
   41CHL1   H1B 3006   2.955   2.848   3.400  0.9274 -0.2848  1.6031
   41CHL1    C2 3007   2.905   2.704   3.255  0.1857  1.0260 -0.4061
   41CHL1   H2A 3008   2.823   2.769   3.218 -1.6467  0.5795  2.4838
   41CHL1   H2B 3009   2.866   2.600   3.250  1.9579  0.3068 -0.0629
   41CHL1   C20 3010   3.097   2.791   4.178  0.7573 -0.3685  0.0819
   41CHL1   H20 3011   3.094   2.684   4.208 -1.3285 -0.5346 -0.5545
   41CHL1   C21 3012   2.945   2.851   4.176 -0.3218 -0.2741 -0.1054
   41CHL1  H21A 3013   2.889   2.802   4.093  0.3370  0.3296 -0.9159
   41CHL1  H21B 3014   2.947   2.961   4.164 -1.8812 -0.4276 -2.4116
   41CHL1  H21C 3015   2.888   2.818   4.266 -1.1146 -1.1174 -0.8919
   41CHL1   C22 3016   3.183   2.874   4.271  0.4682 -0.3101 -0.1100
   41CHL1  H22A 3017   3.272   2.818   4.309  0.2071  1.1055  2.8467
   41CHL1  H22B 3018   3.213   2.971   4.225  0.4753 -1.1706 -1.9946
   41CHL1   C23 3019   3.120   2.905   4.408  0.5535  0.1131 -0.7151
   41CHL1  H23A 3020   3.021   2.954   4.397 -1.3076 -3.7451 -3.0412
   41CHL1  H23B 3021   3.109   2.808   4.461  0.6453 -0.1168 -1.1112
   41CHL1   C24 3022   3.209   2.991   4.504 -0.3046 -1.1493 -0.8603
   41CHL1  H24A 3023   3.304   2.936   4.525  1.4734  1.8575 -0.5520
   41CHL1  H24B 3024   3.221   3.092   4.459 -2.7241 -0.3612  0.1011
   41CHL1   C25 3025   3.152   3.025   4.649 -0.3046 -0.1305 -0.1185
   41CHL1   H25 3026   3.106   2.929   4.681 -1.2142  0.1600 -0.4958
   41CHL1   C26 3027   3.260   3.050   4.749  0.0170 -0.1435 -0.3450
   41CHL1  H26A 3028   3.337   2.970   4.760  0.7937  0.4121 -1.6002
   41CHL1  H26B 3029   3.325   3.135   4.722 -1.3215  1.5429  1.4276
   41CHL1  H26C 3030   3.213   3.061   4.850 -1.1236 -2.9803 -0.4587
   41CHL1   C27 3031   3.049   3.143   4.651 -0.5453 -0.2174  0.6947
   41CHL1  H27A 3032   3.104   3.211   4.583  0.9483 -1.5839  0.4685
   41CHL1  H27B 3033   2.951   3.125   4.603  1.3869 -3.5477 -2.6080
   41CHL1  H27C 3034   3.029   3.180   4.754  0.4199 -0.2354  0.8965
   42CHL1    C3 3035   5.764   3.279   3.807  0.0155 -0.3112 -0.5832
   42CHL1    H3 3036   5.849   3.289   3.877  1.4910 -1.1693 -2.1651
   42CHL1    O3 3037   5.816   3.288   3.674  0.4858 -0.2884 -0.0447
   42CHL1   H3' 3038   5.740   3.290   3.615  0.1106 -0.3025  0.4323
   42CHL1    C4 3039   5.686   3.143   3.816  0.2662  0.2784  0.4395
   42CHL1   H4A 3040   5.621   3.146   3.727  1.4906 -1.0180 -0.5636
   42CHL1   H4B 3041   5.774   3.077   3.798  2.3233  2.4268  1.9224
   42CHL1    C5 3042   5.621   3.130   3.955  0.4775  0.2119 -0.2396
   42CHL1    C6 3043   5.649   3.032   4.043  0.2445  0.0017  0.1308
   42CHL1    H6 3044   5.713   2.949   4.010 -0.0979  0.2827 -1.3016
   42CHL1    C7 3045   5.600   3.024   4.183 -0.1462  0.4644  0.1458
   42CHL1   H7A 3046   5.585   2.918   4.214 -0.1169 -0.2849 -2.1957
   42CHL1   H7B 3047   5.677   3.067   4.250  1.8686 -1.1696 -1.0257
   42CHL1    C8 3048   5.475   3.110   4.205  0.0168  0.2947  0.2155
   42CHL1    H8 3049   5.381   3.059   4.174 -0.1330  0.8353 -0.2332
   42CHL1   C14 3050   5.447   3.134   4.357  0.4304  0.5028 -0.5412
   42CHL1   H14 3051   5.527   3.204   4.390  0.3548 -0.0168  0.8098
   42CHL1   C15 3052   5.460   3.015   4.449  0.2160 -0.1312 -0.9739
   42CHL1  H15A 3053   5.412   2.925   4.406  1.2487 -0.5227 -1.3188
   42CHL1  H15B 3054   5.567   2.995   4.467  0.4288  1.9052  0.4536
   42CHL1   C16 3055   5.390   3.060   4.584  0.2644 -0.6924 -0.6705
   42CHL1  H16A 3056   5.315   2.983   4.610 -2.9190  1.5890 -2.2701
   42CHL1  H16B 3057   5.458   3.073   4.671  1.4799 -0.8610 -1.5728
   42CHL1   C17 3058   5.320   3.193   4.551  0.0234  0.1999 -0.0255
   42CHL1   H17 3059   5.395   3.272   4.577  0.7566 -0.0797 -1.1945
   42CHL1   C13 3060   5.316   3.201   4.393 -0.1474 -0.0815  0.0481
   42CHL1   C18 3061   5.191   3.117   4.354  0.4841  0.2727 -0.1173
   42CHL1  H18A 3062   5.189   3.028   4.420 -1.0764  0.9031  0.7323
   42CHL1  H18B 3063   5.094   3.172   4.360 -0.0848 -0.4743 -1.7502
   42CHL1  H18C 3064   5.194   3.083   4.248  1.8118  0.5390 -0.1769
   42CHL1   C12 3065   5.329   3.336   4.327  0.3747 -0.0958 -0.1065
   42CHL1  H12A 3066   5.243   3.406   4.338  0.1738 -0.5621  1.5527
   42CHL1  H12B 3067   5.402   3.396   4.386 -1.2475  1.5014  0.3701
   42CHL1   C11 3068   5.367   3.340   4.176  0.0459  0.1939 -0.1530
   42CHL1  H11A 3069   5.279   3.301   4.120  1.0168 -2.6363  0.1413
   42CHL1  H11B 3070   5.386   3.445   4.149  1.9925  0.1787  0.9638
   42CHL1    C9 3071   5.490   3.242   4.139  0.4034  0.2036  0.5739
   42CHL1    H9 3072   5.581   3.285   4.186 -0.7982  0.8802  2.4175
   42CHL1   C10 3073   5.521   3.244   3.979  0.5031  0.6896  0.2197
   42CHL1   C19 3074   5.386   3.212   3.907 -0.0969 -0.0832 -0.3426
   42CHL1  H19A 3075   5.318   3.300   3.916 -0.0238 -0.1540  1.1971
   42CHL1  H19B 3076   5.402   3.213   3.797  0.6497  0.3228 -0.2371
   42CHL1  H19C 3077   5.326   3.121   3.927  0.9590 -0.4251  1.5396
   42CHL1    C1 3078   5.581   3.376   3.951 -0.1763 -0.3129 -0.3106
   42CHL1   H1A 3079   5.513   3.461   3.970 -0.4927 -0.6356  0.0103
   42CHL1   H1B 3080   5.657   3.402   4.027  0.1781  2.6653 -1.5658
   42CHL1    C2 3081   5.659   3.389   3.817  0.7721  0.0036 -0.2506
   42CHL1   H2A 3082   5.711   3.486   3.802  0.7555 -0.4061 -3.4948
   42CHL1   H2B 3083   5.593   3.380   3.728  3.2964  0.0160 -2.2386
   42CHL1   C20 3084   5.192   3.225   4.629 -0.2590 -0.3489  0.0635
   42CHL1   H20 3085   5.120   3.145   4.603 -3.4732  3.0964 -2.9449
   42CHL1   C21 3086   5.134   3.362   4.595  0.1714  0.0252 -0.5725
   42CHL1  H21A 3087   5.210   3.441   4.615  0.4196 -0.4115  0.2319
   42CHL1  H21B 3088   5.046   3.391   4.656  1.9102  1.6305  1.3207
   42CHL1  H21C 3089   5.090   3.371   4.493 -2.1493  0.5836  0.4003
   42CHL1   C22 3090   5.201   3.221   4.787  0.4781  0.0112 -0.2500
   42CHL1  H22A 3091   5.252   3.131   4.828 -0.3418  0.3952  1.6925
   42CHL1  H22B 3092   5.262   3.305   4.825 -1.3179  1.4796 -0.4460
   42CHL1   C23 3093   5.067   3.225   4.856  0.0166  0.5722 -0.0664
   42CHL1  H23A 3094   4.997   3.280   4.790  1.4758  0.4595 -1.8194
   42CHL1  H23B 3095   5.024   3.123   4.870 -0.4532  0.5290 -1.6590
   42CHL1   C24 3096   5.075   3.301   4.992  0.0387  0.8195  0.6512
   42CHL1  H24A 3097   5.106   3.407   4.984  2.1600  0.2468  0.8360
   42CHL1  H24B 3098   4.971   3.302   5.030 -0.1220 -1.1228  0.3680
   42CHL1   C25 3099   5.170   3.222   5.084  0.0342 -0.0724  0.6031
   42CHL1   H25 3100   5.271   3.221   5.038  0.1791 -1.3167  0.9103
   42CHL1   C26 3101   5.186   3.293   5.221  0.1947  0.2956 -0.8668
   42CHL1  H26A 3102   5.199   3.401   5.200  1.8818  0.1974 -0.4059
   42CHL1  H26B 3103   5.099   3.286   5.290  1.4022  0.4161  0.7217
   42CHL1  H26C 3104   5.277   3.259   5.274  0.2638  0.7090 -0.7156
   42CHL1   C27 3105   5.128   3.076   5.110 -0.3453 -0.4173 -0.2897
   42CHL1  H27A 3106   5.128   3.013   5.019  0.4969  1.1527 -1.4316
   42CHL1  H27B 3107   5.191   3.031   5.190 -2.6853 -1.1937  1.2203
   42CHL1  H27C 3108   5.025   3.095   5.148 -0.1507 -1.3086  0.7284
   43CHL1    C3 3109   0.776   1.113   3.612  0.0475 -0.1230 -0.3310
   43CHL1    H3 3110   0.809   1.015   3.651  1.1268 -0.3743 -1.7865
   43CHL1    O3 3111   0.768   1.091   3.474  0.5393 -0.4067 -0.4476
   43CHL1   H3' 3112   0.726   1.167   3.435 -0.8440 -1.2848 -0.7524
   43CHL1    C4 3113   0.645   1.144   3.668  0.2408  0.4346  0.3071
   43CHL1   H4A 3114   0.606   1.236   3.619 -0.4594  1.1989  2.2063
   43CHL1   H4B 3115   0.563   1.071   3.649  0.4470  0.0062  1.0331
   43CHL1    C5 3116   0.639   1.173   3.817 -0.5772  0.5766  0.0707
   43CHL1    C6 3117   0.556   1.109   3.899 -0.1745 -0.4348 -0.3069
   43CHL1    H6 3118   0.472   1.053   3.857 -1.4185  0.5838  0.7330
   43CHL1    C7 3119   0.546   1.146   4.041 -0.0205  0.2872 -0.0178
   43CHL1   H7A 3120   0.441   1.162   4.075 -0.0594 -3.1521  2.0749
   43CHL1   H7B 3121   0.592   1.059   4.094 -1.2879  0.9204  2.2451
   43CHL1    C8 3122   0.628   1.270   4.094 -0.7405  0.3664  0.5974
   43CHL1    H8 3123   0.560   1.356   4.077 -1.1608 -0.0440  0.1565
   43CHL1   C14 3124   0.668   1.256   4.244  0.1027  0.3118  0.1347
   43CHL1   H14 3125   0.744   1.175   4.243  0.3064  0.5062 -0.2735
   43CHL1   C15 3126   0.562   1.218   4.351  0.2802 -0.8866  0.3770
   43CHL1  H15A 3127   0.462   1.250   4.312  0.8150 -0.0366 -0.3330
   43CHL1  H15B 3128   0.554   1.109   4.370 -1.6746 -0.9061 -0.2737
   43CHL1   C16 3129   0.614   1.287   4.480  0.2553 -0.0965  0.2283
   43CHL1  H16A 3130   0.539   1.368   4.489 -2.0621 -1.8600 -1.9844
   43CHL1  H16B 3131   0.616   1.219   4.568  0.8185  0.1777  0.4378
   43CHL1   C17 3132   0.745   1.352   4.444 -0.7445  0.1633  0.1509
   43CHL1   H17 3133   0.820   1.270   4.441 -0.8879  0.0543 -0.7471
   43CHL1   C13 3134   0.739   1.388   4.295  0.2735  0.0179 -0.2352
   43CHL1   C18 3135   0.653   1.507   4.273 -0.5096  0.0262 -0.1484
   43CHL1  H18A 3136   0.553   1.483   4.315 -1.5338  0.5613 -2.1527
   43CHL1  H18B 3137   0.696   1.592   4.331  0.5891 -0.2712 -0.5010
   43CHL1  H18C 3138   0.646   1.546   4.169 -2.7926 -1.4375 -0.6202
   43CHL1   C12 3139   0.874   1.393   4.220 -0.0058  0.0935 -0.7082
   43CHL1  H12A 3140   0.919   1.491   4.246  1.4277 -0.8543  0.5623
   43CHL1  H12B 3141   0.944   1.308   4.238 -0.5720 -0.5239 -1.3481
   43CHL1   C11 3142   0.848   1.399   4.066 -0.2447  0.2268  0.5376
   43CHL1  H11A 3143   0.801   1.498   4.046  1.3565  0.6196 -1.5481
   43CHL1  H11B 3144   0.951   1.407   4.027 -0.4115  0.3015  0.1049
   43CHL1    C9 3145   0.763   1.283   4.014 -0.4275  0.1367 -0.6728
   43CHL1    H9 3146   0.806   1.185   4.045 -0.5861  0.3549  0.2522
   43CHL1   C10 3147   0.745   1.283   3.863 -0.3132  0.1841  0.0834
   43CHL1   C19 3148   0.691   1.418   3.814  0.1960  0.3591 -0.4557
   43CHL1  H19A 3149   0.759   1.502   3.840 -0.7043  1.0185 -0.2334
   43CHL1  H19B 3150   0.662   1.415   3.707 -1.7724 -0.4141  0.0667
   43CHL1  H19C 3151   0.599   1.442   3.871  1.5416  0.4844  1.7860
   43CHL1    C1 3152   0.882   1.248   3.799  0.3167  0.1465 -0.1243
   43CHL1   H1A 3153   0.952   1.332   3.821  0.8528 -0.4686  0.5550
   43CHL1   H1B 3154   0.927   1.160   3.850  2.0309  1.5657  0.9181
   43CHL1    C2 3155   0.884   1.219   3.649  0.0523  0.4992 -0.4239
   43CHL1   H2A 3156   0.984   1.185   3.614 -0.3497 -0.1037 -1.0074
   43CHL1   H2B 3157   0.859   1.314   3.597 -0.8185  0.0098 -0.9306
   43CHL1   C20 3158   0.802   1.445   4.547  0.6087 -0.9309  0.1513
   43CHL1   H20 3159   0.869   1.517   4.496  0.0374  0.1824  0.9308
   43CHL1   C21 3160   0.893   1.371   4.641 -0.0183 -0.3941 -0.0359
   43CHL1  H21A 3161   0.835   1.298   4.701 -0.9169  1.3178  1.2914
   43CHL1  H21B 3162   0.938   1.446   4.710  0.3745 -0.2232 -0.4665
   43CHL1  H21C 3163   0.979   1.327   4.585 -0.1621  0.6299 -1.0934
   43CHL1   C22 3164   0.692   1.518   4.627  0.0995  0.1294  0.3286
   43CHL1  H22A 3165   0.607   1.559   4.568 -0.6852 -2.0540 -0.1692
   43CHL1  H22B 3166   0.640   1.453   4.700 -1.3127  1.8995  0.9770
   43CHL1   C23 3167   0.747   1.640   4.700  0.0881 -0.2245 -0.4909
   43CHL1  H23A 3168   0.811   1.620   4.789 -1.6291  0.3032  0.9318
   43CHL1  H23B 3169   0.823   1.703   4.650 -1.0015  2.1300  0.6528
   43CHL1   C24 3170   0.628   1.725   4.748  0.5810 -0.0877 -0.7654
   43CHL1  H24A 3171   0.554   1.655   4.794 -1.4206  0.7025 -2.6575
   43CHL1  H24B 3172   0.650   1.800   4.827 -0.5891  1.4255 -1.8108
   43CHL1   C25 3173   0.560   1.813   4.644 -0.1503  0.5480 -0.1484
   43CHL1   H25 3174   0.541   1.757   4.550 -1.7396  1.3117 -0.3168
   43CHL1   C26 3175   0.432   1.864   4.695  0.1415 -0.0437 -0.5490
   43CHL1  H26A 3176   0.447   1.898   4.800 -0.5682  1.4578 -0.8998
   43CHL1  H26B 3177   0.407   1.958   4.640  1.6752  0.8213  0.1634
   43CHL1  H26C 3178   0.350   1.789   4.698  0.3580 -0.3201 -1.2891
   43CHL1   C27 3179   0.660   1.930   4.607 -0.8480 -0.0682  0.0432
   43CHL1  H27A 3180   0.760   1.897   4.572 -1.5700 -0.7420 -1.4781
   43CHL1  H27B 3181   0.618   1.999   4.531 -3.0991 -0.8065  0.5310
   43CHL1  H27C 3182   0.688   1.985   4.700 -0.4973 -0.2354  0.0388
   44CHL1    C3 3183   5.742   2.535   3.093  0.1442 -0.1340  0.4277
   44CHL1    H3 3184   5.732   2.424   3.100 -0.1822 -0.1259  0.0547
   44CHL1    O3 3185   5.770   2.564   2.960  0.7737  0.4743  0.7655
   44CHL1   H3' 3186   5.736   2.653   2.947 -0.5168 -0.2102 -1.0026
   44CHL1    C4 3187   5.608   2.598   3.129 -0.6549 -0.3181 -0.1288
   44CHL1   H4A 3188   5.616   2.704   3.100  1.9374 -0.2684  0.5006
   44CHL1   H4B 3189   5.531   2.546   3.069  0.0672 -0.1593 -1.2258
   44CHL1    C5 3190   5.567   2.585   3.275  0.0240 -0.5515 -0.4284
   44CHL1    C6 3191   5.449   2.534   3.316 -0.8663  0.2508  0.3364
   44CHL1    H6 3192   5.374   2.499   3.243 -1.5819 -0.6756  1.4666
   44CHL1    C7 3193   5.415   2.511   3.460  0.1459 -0.2460 -0.0863
   44CHL1   H7A 3194   5.307   2.535   3.469  0.2075 -0.6503  2.6029
   44CHL1   H7B 3195   5.426   2.403   3.486  0.8800  0.1453  1.2994
   44CHL1    C8 3196   5.505   2.598   3.555  0.0011 -0.3684 -0.1647
   44CHL1    H8 3197   5.483   2.706   3.551  2.5529  0.2663  0.9304
   44CHL1   C14 3198   5.487   2.558   3.698 -0.5250  1.0798  0.9636
   44CHL1   H14 3199   5.504   2.448   3.702 -0.6708  1.0748  1.6646
   44CHL1   C15 3200   5.340   2.557   3.744  0.0174 -1.1238 -0.4183
   44CHL1  H15A 3201   5.287   2.652   3.723  1.3909  0.4005  2.4141
   44CHL1  H15B 3202   5.296   2.477   3.681 -0.0724 -1.9156  0.6153
   44CHL1   C16 3203   5.349   2.548   3.898 -0.0311 -0.8189 -0.6861
   44CHL1  H16A 3204   5.284   2.621   3.951  1.3671 -0.5317  0.6913
   44CHL1  H16B 3205   5.311   2.450   3.932 -0.9567  0.3615  1.9743
   44CHL1   C17 3206   5.503   2.566   3.935  0.4659  0.2686 -0.2095
   44CHL1   H17 3207   5.535   2.460   3.937  3.7306  1.0852 -1.6095
   44CHL1   C13 3208   5.570   2.622   3.803 -0.7901 -0.3174  0.1470
   44CHL1   C18 3209   5.558   2.775   3.798 -0.1984  0.5551  0.1880
   44CHL1  H18A 3210   5.553   2.804   3.691  1.1167  3.0647  0.7422
   44CHL1  H18B 3211   5.464   2.809   3.846  0.8393  1.0190  1.9630
   44CHL1  H18C 3212   5.647   2.813   3.851  0.6131 -1.0007 -0.0031
   44CHL1   C12 3213   5.717   2.589   3.770 -0.2251 -0.7826 -0.2904
   44CHL1  H12A 3214   5.777   2.643   3.846 -1.2852 -1.3441  0.9798
   44CHL1  H12B 3215   5.739   2.480   3.774 -1.8464 -1.1216  0.3111
   44CHL1   C11 3216   5.753   2.626   3.623 -0.2440 -0.6668 -0.3507
   44CHL1  H11A 3217   5.769   2.735   3.633  1.1408 -0.7857 -1.0208
   44CHL1  H11B 3218   5.852   2.578   3.609  0.7215  0.1174  2.9273
   44CHL1    C9 3219   5.652   2.581   3.518  0.0047 -0.6788  0.0903
   44CHL1    H9 3220   5.663   2.471   3.513  0.6005 -0.6384  0.4763
   44CHL1   C10 3221   5.678   2.631   3.372 -0.1012 -0.0974 -0.7310
   44CHL1   C19 3222   5.680   2.783   3.366 -0.0515 -0.0736 -0.2198
   44CHL1  H19A 3223   5.690   2.825   3.263 -2.5754  0.1254 -0.4359
   44CHL1  H19B 3224   5.586   2.828   3.405  0.8981  0.9465  0.9961
   44CHL1  H19C 3225   5.758   2.824   3.434  0.8456 -2.7010  0.4367
   44CHL1    C1 3226   5.817   2.575   3.324 -0.0587  0.5935 -0.1681
   44CHL1   H1A 3227   5.884   2.624   3.398 -0.6980 -2.1068  2.4043
   44CHL1   H1B 3228   5.815   2.467   3.349  2.2612  0.1248 -1.7122
   44CHL1    C2 3229   5.857   2.589   3.176  0.6891 -0.9166  0.2448
   44CHL1   H2A 3230   5.950   2.539   3.141  0.4131 -0.9277 -0.4987
   44CHL1   H2B 3231   5.860   2.699   3.157  0.0150 -0.8686  0.4102
   44CHL1   C20 3232   5.532   2.633   4.068 -0.1311 -0.9941  1.1365
   44CHL1   H20 3233   5.503   2.739   4.056  0.8271 -0.5715  2.3099
   44CHL1   C21 3234   5.691   2.638   4.107  0.0604  0.7641 -0.0616
   44CHL1  H21A 3235   5.707   2.673   4.211 -0.9500  1.6455 -0.1756
   44CHL1  H21B 3236   5.738   2.706   4.032 -0.7165  2.0111  0.5565
   44CHL1  H21C 3237   5.726   2.533   4.099  0.2710  0.7500  0.9979
   44CHL1   C22 3238   5.454   2.591   4.190  0.2482 -0.4963  0.0594
   44CHL1  H22A 3239   5.482   2.659   4.273 -1.7995  0.4166  0.0444
   44CHL1  H22B 3240   5.348   2.609   4.162 -0.0194 -2.5441 -0.4672
   44CHL1   C23 3241   5.478   2.448   4.238  0.0168  0.9414  0.1480
   44CHL1  H23A 3242   5.450   2.377   4.158  0.9492  0.3214  0.3588
   44CHL1  H23B 3243   5.582   2.428   4.272 -0.0572  0.2297 -0.0359
   44CHL1   C24 3244   5.385   2.436   4.363  0.2942 -0.2699  1.0495
   44CHL1  H24A 3245   5.420   2.519   4.428 -1.0071  1.0141  0.1784
   44CHL1  H24B 3246   5.279   2.460   4.339  0.0202 -2.8376 -0.6737
   44CHL1   C25 3247   5.379   2.302   4.439 -0.2911 -0.2335  0.0693
   44CHL1   H25 3248   5.321   2.230   4.379  0.8022 -1.4605  0.4340
   44CHL1   C26 3249   5.513   2.261   4.480  0.5877 -0.7108  0.4948
   44CHL1  H26A 3250   5.513   2.159   4.524  0.5708 -0.8357  0.2092
   44CHL1  H26B 3251   5.567   2.240   4.386 -0.4561  1.8865 -0.7884
   44CHL1  H26C 3252   5.570   2.341   4.530 -1.6877  0.2989  1.6146
   44CHL1   C27 3253   5.291   2.315   4.571 -0.0149  0.0974 -0.2257
   44CHL1  H27A 3254   5.264   2.218   4.618  1.4734  0.2126  0.9283
   44CHL1  H27B 3255   5.338   2.379   4.649 -0.2234 -0.3545  0.2804
   44CHL1  H27C 3256   5.197   2.371   4.551 -0.5734  0.2201  2.4200
   45CHL1    C3 3257   4.662   2.160   3.152 -0.8462  0.2385 -0.4719
   45CHL1    H3 3258   4.736   2.229   3.198  0.0168 -0.5349 -0.6678
   45CHL1    O3 3259   4.626   2.194   3.019  0.9916  0.4431  0.0043
   45CHL1   H3' 3260   4.706   2.182   2.967 -0.0066 -0.0799 -1.5203
   45CHL1    C4 3261   4.729   2.023   3.155 -0.0571 -0.0992  0.1285
   45CHL1   H4A 3262   4.679   1.941   3.099  1.2609 -1.7458  1.2514
   45CHL1   H4B 3263   4.823   2.035   3.097 -0.9818  1.1912 -1.1754
   45CHL1    C5 3264   4.763   1.981   3.299 -0.8238 -0.7466 -0.0182
   45CHL1    C6 3265   4.890   1.947   3.332 -0.7439 -0.4208 -0.6762
   45CHL1    H6 3266   4.969   1.949   3.255  1.1822  0.8269  1.2413
   45CHL1    C7 3267   4.927   1.887   3.464  0.4335 -0.1099 -0.8007
   45CHL1   H7A 3268   4.988   1.796   3.448  1.8889  1.0340 -2.0372
   45CHL1   H7B 3269   4.997   1.952   3.520  1.9440 -3.4262  1.4854
   45CHL1    C8 3270   4.804   1.860   3.563 -0.0531  0.1634 -0.3217
   45CHL1    H8 3271   4.770   1.761   3.527  1.2573 -0.6660  0.6393
   45CHL1   C14 3272   4.848   1.854   3.706 -0.3191 -0.2407 -0.1941
   45CHL1   H14 3273   4.885   1.956   3.731 -2.6120  0.2485  1.4478
   45CHL1   C15 3274   4.968   1.767   3.732  0.7521  0.0346 -0.2200
   45CHL1  H15A 3275   4.963   1.680   3.664  0.4257 -0.0182 -0.1293
   45CHL1  H15B 3276   5.062   1.820   3.705  0.7982 -0.6847 -1.5714
   45CHL1   C16 3277   4.949   1.726   3.876  0.2793  0.6748 -0.0216
   45CHL1  H16A 3278   4.953   1.616   3.889 -0.4664  0.4962 -1.1537
   45CHL1  H16B 3279   5.033   1.756   3.942  0.1018 -0.3951  0.7176
   45CHL1   C17 3280   4.820   1.796   3.931  0.2480  0.1421 -0.2298
   45CHL1   H17 3281   4.862   1.894   3.964  4.4449 -1.8409  0.9527
   45CHL1   C13 3282   4.735   1.815   3.806 -0.4498 -0.3258 -0.7298
   45CHL1   C18 3283   4.677   1.682   3.763 -0.0036  0.2499  0.0848
   45CHL1  H18A 3284   4.754   1.605   3.739 -1.7287 -1.2960 -0.7965
   45CHL1  H18B 3285   4.608   1.633   3.836  0.2660 -0.9456 -0.4328
   45CHL1  H18C 3286   4.618   1.693   3.669  0.5630 -0.3385 -0.3513
   45CHL1   C12 3287   4.627   1.933   3.797 -0.8523  0.3193 -0.1287
   45CHL1  H12A 3288   4.543   1.901   3.862 -0.0192  0.3672  0.9988
   45CHL1  H12B 3289   4.667   2.026   3.844 -1.7170  0.3886  0.4939
   45CHL1   C11 3290   4.580   1.959   3.653 -1.3754 -0.8141  0.2524
   45CHL1  H11A 3291   4.521   1.867   3.633 -0.5840 -1.1446 -0.6388
   45CHL1  H11B 3292   4.512   2.046   3.641 -1.4566 -0.7354  1.2664
   45CHL1    C9 3293   4.693   1.975   3.545 -0.7237  0.0490  0.6905
   45CHL1    H9 3294   4.744   2.070   3.572  0.4882 -1.3201  3.7583
   45CHL1   C10 3295   4.648   1.983   3.401  0.4742 -0.2750 -0.4760
   45CHL1   C19 3296   4.554   1.855   3.370 -0.0195 -0.7423  0.3029
   45CHL1  H19A 3297   4.600   1.763   3.412  1.1034 -0.1601  0.3819
   45CHL1  H19B 3298   4.455   1.855   3.419 -0.7178 -1.0260 -1.0589
   45CHL1  H19C 3299   4.537   1.857   3.260  1.4834  3.3182 -0.0522
   45CHL1    C1 3300   4.563   2.115   3.387 -0.6021  0.3855 -0.1352
   45CHL1   H1A 3301   4.471   2.093   3.446 -0.2724  0.3661  0.3847
   45CHL1   H1B 3302   4.629   2.193   3.431 -0.5330  0.5065 -0.4524
   45CHL1    C2 3303   4.538   2.170   3.243 -0.0321 -0.7295  0.1823
   45CHL1   H2A 3304   4.498   2.271   3.263 -2.3542 -1.1508 -1.8674
   45CHL1   H2B 3305   4.458   2.102   3.207  1.1208 -1.8119 -0.4339
   45CHL1   C20 3306   4.757   1.720   4.052  0.5169  0.0848  0.3469
   45CHL1   H20 3307   4.731   1.618   4.017 -0.3126  0.0507  1.0214
   45CHL1   C21 3308   4.635   1.780   4.117  0.7079 -0.3729  0.5540
   45CHL1  H21A 3309   4.552   1.786   4.044  1.0435 -1.8522  0.0120
   45CHL1  H21B 3310   4.658   1.886   4.141  0.4073 -0.3948  0.9437
   45CHL1  H21C 3311   4.601   1.732   4.211  0.1558  0.6802  0.9100
   45CHL1   C22 3312   4.855   1.685   4.173  0.7272  1.0952  0.2095
   45CHL1  H22A 3313   4.961   1.687   4.138  0.6048  1.4502 -0.1343
   45CHL1  H22B 3314   4.855   1.763   4.252 -1.9274 -0.8515  2.3095
   45CHL1   C23 3315   4.841   1.545   4.236  0.2979  0.0690 -0.1147
   45CHL1  H23A 3316   4.740   1.537   4.283  0.5496  0.4288  0.4879
   45CHL1  H23B 3317   4.838   1.462   4.161 -1.8409  0.9172 -1.0574
   45CHL1   C24 3318   4.944   1.522   4.350  0.6746  0.4716 -0.0305
   45CHL1  H24A 3319   4.936   1.608   4.420 -0.0463  0.8355 -0.5393
   45CHL1  H24B 3320   4.908   1.433   4.405  0.5741  0.4048 -0.2020
   45CHL1   C25 3321   5.088   1.495   4.316 -0.0943 -0.5815 -0.5292
   45CHL1   H25 3322   5.119   1.595   4.277  0.3116  0.6541  2.6138
   45CHL1   C26 3323   5.175   1.484   4.439  0.2171 -0.0354 -0.3858
   45CHL1  H26A 3324   5.160   1.569   4.509 -1.4710 -1.8777  1.6704
   45CHL1  H26B 3325   5.142   1.388   4.485  1.0636 -0.6724 -1.0641
   45CHL1  H26C 3326   5.281   1.473   4.410  0.4557 -2.6305  1.1052
   45CHL1   C27 3327   5.110   1.395   4.212  0.6862  0.8429 -0.2365
   45CHL1  H27A 3328   5.215   1.376   4.181  0.4313 -1.1384 -0.0341
   45CHL1  H27B 3329   5.051   1.303   4.233  3.1753 -0.8460 -0.1538
   45CHL1  H27C 3330   5.058   1.438   4.124 -0.3307 -1.2168 -0.6990
   46CHL1    C3 3331   1.825   3.765   2.783  0.6320  0.0685 -0.3298
   46CHL1    H3 3332   1.933   3.783   2.765  1.0193 -0.0875  1.5759
   46CHL1    O3 3333   1.751   3.731   2.662 -0.0440 -0.0530 -0.0354
   46CHL1   H3' 3334   1.678   3.675   2.690  0.3169 -0.1915  0.6755
   46CHL1    C4 3335   1.800   3.658   2.898 -0.4940  0.4404  0.4951
   46CHL1   H4A 3336   1.690   3.660   2.906 -0.4312  1.3361  1.3745
   46CHL1   H4B 3337   1.819   3.555   2.862 -0.9350  0.0328  1.4053
   46CHL1    C5 3338   1.874   3.688   3.025  0.4222  0.1685  0.5059
   46CHL1    C6 3339   1.971   3.612   3.076  1.0020  1.0312 -0.0099
   46CHL1    H6 3340   1.998   3.518   3.028  1.7007  1.1680  0.1096
   46CHL1    C7 3341   2.045   3.648   3.196  0.4833 -0.4371  0.2265
   46CHL1   H7A 3342   2.074   3.558   3.253  0.7218 -1.2505 -1.1467
   46CHL1   H7B 3343   2.139   3.686   3.152  0.2718  0.2310  0.3277
   46CHL1    C8 3344   2.001   3.765   3.286  0.1218  0.1144  0.1448
   46CHL1    H8 3345   1.919   3.727   3.350 -2.4773 -0.3304 -3.1571
   46CHL1   C14 3346   2.115   3.816   3.373 -0.0653  0.0081 -0.5548
   46CHL1   H14 3347   2.196   3.859   3.310  1.6250  2.2537  2.8428
   46CHL1   C15 3348   2.181   3.713   3.464 -0.0280  0.3086 -0.4702
   46CHL1  H15A 3349   2.095   3.654   3.502  0.3682 -0.1801 -0.3119
   46CHL1  H15B 3350   2.254   3.644   3.416  0.6217 -0.6514  1.7665
   46CHL1   C16 3351   2.240   3.800   3.582  0.1604 -1.1217  0.1063
   46CHL1  H16A 3352   2.204   3.764   3.680  1.4456 -1.8480  0.3493
   46CHL1  H16B 3353   2.351   3.786   3.580  0.3193  0.0457 -2.2957
   46CHL1   C17 3354   2.201   3.951   3.555 -1.1065  0.8862  0.4242
   46CHL1   H17 3355   2.282   3.987   3.487 -1.5939  0.6283 -0.3028
   46CHL1   C13 3356   2.071   3.932   3.466 -0.1780 -0.8026 -0.5181
   46CHL1   C18 3357   1.957   3.887   3.563 -0.4156 -0.0826 -0.4924
   46CHL1  H18A 3358   1.976   3.800   3.630 -1.7682  1.8558  2.6589
   46CHL1  H18B 3359   1.917   3.974   3.619 -0.3035 -0.3893  0.0816
   46CHL1  H18C 3360   1.864   3.851   3.514 -0.2666  0.3772 -1.1135
   46CHL1   C12 3361   2.022   4.046   3.380  0.3796  0.3072 -0.0691
   46CHL1  H12A 3362   1.999   4.130   3.449  1.7137  0.9522 -0.3635
   46CHL1  H12B 3363   2.099   4.076   3.305 -0.8894 -0.7841 -1.8746
   46CHL1   C11 3364   1.903   4.004   3.279 -0.3938  0.2072  0.5216
   46CHL1  H11A 3365   1.804   3.998   3.328 -0.4466 -0.1111  0.3805
   46CHL1  H11B 3366   1.888   4.087   3.206  0.5719 -0.8733 -0.9587
   46CHL1    C9 3367   1.940   3.875   3.192 -0.6041 -0.4591  0.1480
   46CHL1    H9 3368   2.021   3.909   3.123 -0.9114  0.5763  0.2823
   46CHL1   C10 3369   1.840   3.828   3.081  0.1245  0.4413 -1.0788
   46CHL1   C19 3370   1.708   3.810   3.161  0.8385  0.1676  0.2004
   46CHL1  H19A 3371   1.717   3.739   3.245 -1.5759 -1.3742 -0.7430
   46CHL1  H19B 3372   1.672   3.905   3.206 -1.0012 -0.2448 -0.3224
   46CHL1  H19C 3373   1.629   3.780   3.088 -2.5675  4.2528  1.7575
   46CHL1    C1 3374   1.834   3.939   2.978  0.1426 -0.5240  0.9219
   46CHL1   H1A 3375   1.776   4.025   3.019 -1.0014 -1.2013  0.7664
   46CHL1   H1B 3376   1.936   3.973   2.953 -0.1593 -1.1415 -1.4112
   46CHL1    C2 3377   1.769   3.898   2.840  0.5721  0.2682  0.6214
   46CHL1   H2A 3378   1.772   3.980   2.765  0.7963  0.1577  0.5086
   46CHL1   H2B 3379   1.660   3.878   2.851  0.0045  2.1291 -1.0024
   46CHL1   C20 3380   2.199   4.047   3.675  0.6105  0.5011 -0.4184
   46CHL1   H20 3381   2.098   4.051   3.721  0.7663 -0.3794  0.0267
   46CHL1   C21 3382   2.233   4.187   3.637 -0.0070  0.1872  0.0232
   46CHL1  H21A 3383   2.181   4.258   3.704  2.4738  2.5579 -0.3630
   46CHL1  H21B 3384   2.189   4.218   3.539 -1.8837 -1.5958  0.2381
   46CHL1  H21C 3385   2.339   4.221   3.631 -0.2768  0.8572 -1.3611
   46CHL1   C22 3386   2.289   4.004   3.795  0.1996 -0.1691 -0.2028
   46CHL1  H22A 3387   2.306   3.894   3.799  1.9702  0.0814 -0.0327
   46CHL1  H22B 3388   2.386   4.059   3.791  0.7736 -0.8503  2.4842
   46CHL1   C23 3389   2.239   4.048   3.928 -0.4867  0.0263 -0.3811
   46CHL1  H23A 3390   2.226   4.158   3.935  1.3685  0.2374  0.5334
   46CHL1  H23B 3391   2.138   4.003   3.939 -0.6513  0.3779 -0.4477
   46CHL1   C24 3392   2.328   4.004   4.049  0.1381  0.1362  0.4144
   46CHL1  H24A 3393   2.377   3.906   4.030  1.5094  1.3684 -3.4214
   46CHL1  H24B 3394   2.413   4.076   4.047 -0.5638  1.0867  2.7066
   46CHL1   C25 3395   2.250   4.015   4.177 -0.2651  0.5788 -0.3171
   46CHL1   H25 3396   2.315   3.984   4.261 -2.6469 -3.0784  0.4418
   46CHL1   C26 3397   2.211   4.156   4.215 -0.7847 -0.3525  0.6787
   46CHL1  H26A 3398   2.280   4.232   4.173 -1.7934 -0.2112 -0.8374
   46CHL1  H26B 3399   2.116   4.181   4.162 -0.7212  3.2044  1.9769
   46CHL1  H26C 3400   2.205   4.170   4.325 -3.1001  1.1332  0.4439
   46CHL1   C27 3401   2.121   3.934   4.190  0.3331 -0.2028  0.6259
   46CHL1  H27A 3402   2.047   3.966   4.113  3.0632 -1.3906 -2.7721
   46CHL1  H27B 3403   2.145   3.833   4.149  0.9859  0.5274 -0.8634
   46CHL1  H27C 3404   2.086   3.933   4.295 -2.7499 -0.8763 -0.2988
   47CHL1    C3 3405   3.406   5.176   2.991  0.0042 -0.8882  0.1915
   47CHL1    H3 3406   3.474   5.264   2.996 -3.0418  1.6020  1.8446
   47CHL1    O3 3407   3.400   5.116   2.864  0.4753  0.6399 -0.3831
   47CHL1   H3' 3408   3.316   5.069   2.870  0.1244  1.2951  0.0638
   47CHL1    C4 3409   3.448   5.070   3.086 -0.1039  0.5297 -0.0277
   47CHL1   H4A 3410   3.376   4.985   3.091  1.9820 -1.2770  0.7961
   47CHL1   H4B 3411   3.540   5.023   3.045  0.4859  0.0737  1.7521
   47CHL1    C5 3412   3.455   5.128   3.232 -0.8903 -0.4657 -0.0763
   47CHL1    C6 3413   3.563   5.111   3.310 -0.0723 -0.0919 -0.1572
   47CHL1    H6 3414   3.652   5.053   3.281 -0.3629  0.8588 -3.3106
   47CHL1    C7 3415   3.572   5.152   3.452 -0.3567  0.3048 -0.2013
   47CHL1   H7A 3416   3.634   5.079   3.508 -0.8572  0.0326  0.0037
   47CHL1   H7B 3417   3.631   5.244   3.467 -1.1039  0.4880  2.0635
   47CHL1    C8 3418   3.434   5.176   3.511  0.3529  0.2163  0.2320
   47CHL1    H8 3419   3.382   5.079   3.525  0.1288  0.6252  2.8142
   47CHL1   C14 3420   3.445   5.243   3.649  0.1603 -0.2396 -0.3693
   47CHL1   H14 3421   3.493   5.343   3.643 -2.7719  1.4708  2.0767
   47CHL1   C15 3422   3.523   5.167   3.757  0.4467  0.0553  0.6213
   47CHL1  H15A 3423   3.504   5.057   3.760  1.5584 -0.1328  2.5278
   47CHL1  H15B 3424   3.630   5.181   3.729  0.5305  0.6188  1.2104
   47CHL1   C16 3425   3.488   5.236   3.890 -0.3299 -0.2815  1.1852
   47CHL1  H16A 3426   3.453   5.159   3.962 -1.4889 -0.7242  0.1782
   47CHL1  H16B 3427   3.572   5.297   3.928 -0.1830 -1.0022  2.0505
   47CHL1   C17 3428   3.370   5.334   3.860  0.3475 -0.1717  0.0965
   47CHL1   H17 3429   3.426   5.430   3.851  0.4498 -0.3342 -1.2587
   47CHL1   C13 3430   3.316   5.286   3.720 -0.3207 -0.0569  0.3931
   47CHL1   C18 3431   3.230   5.157   3.738 -0.5963 -0.8731  0.7887
   47CHL1  H18A 3432   3.288   5.076   3.789  0.2529 -2.4384 -2.3936
   47CHL1  H18B 3433   3.135   5.180   3.791 -0.9705  0.3693 -0.3688
   47CHL1  H18C 3434   3.195   5.117   3.641 -0.5648  0.5525  0.1687
   47CHL1   C12 3435   3.249   5.385   3.626 -0.4898  0.4574 -0.2965
   47CHL1  H12A 3436   3.150   5.429   3.654 -0.4692  0.6305 -0.4893
   47CHL1  H12B 3437   3.321   5.469   3.616  1.4639 -1.2826 -1.5630
   47CHL1   C11 3438   3.219   5.328   3.487  0.2749 -0.5588 -0.2037
   47CHL1  H11A 3439   3.137   5.253   3.497 -0.8210  0.7970  1.5231
   47CHL1  H11B 3440   3.186   5.408   3.417  1.1147 -0.4817 -0.5264
   47CHL1    C9 3441   3.345   5.267   3.418 -0.2402  0.2086 -0.5487
   47CHL1    H9 3442   3.409   5.355   3.398  2.1984 -1.2664  0.3230
   47CHL1   C10 3443   3.325   5.199   3.281 -0.0521  0.4757  1.0882
   47CHL1   C19 3444   3.213   5.094   3.290 -0.2074  0.6287  0.4066
   47CHL1  H19A 3445   3.122   5.156   3.304  0.2895  1.3577  0.4558
   47CHL1  H19B 3446   3.196   5.032   3.199  0.3620  1.2284 -0.1234
   47CHL1  H19C 3447   3.237   5.027   3.375  0.7395  0.5290  0.0728
   47CHL1    C1 3448   3.282   5.304   3.169  0.0018 -0.3074  0.0751
   47CHL1   H1A 3449   3.181   5.344   3.194 -0.3289 -1.2368  0.2686
   47CHL1   H1B 3450   3.355   5.388   3.168  0.3803 -0.6448 -1.0257
   47CHL1    C2 3451   3.273   5.235   3.032 -0.1868 -0.1620  0.0824
   47CHL1   H2A 3452   3.244   5.313   2.959 -2.2297 -0.8152  0.1277
   47CHL1   H2B 3453   3.197   5.155   3.021 -0.8766  0.2719  1.4546
   47CHL1   C20 3454   3.275   5.347   3.978 -0.2718 -0.4845 -0.0444
   47CHL1   H20 3455   3.228   5.248   3.997 -1.6568  0.0106 -0.6901
   47CHL1   C21 3456   3.157   5.438   3.927  0.5553  0.0823 -0.1757
   47CHL1  H21A 3457   3.078   5.370   3.888  0.7710 -0.1425 -0.2215
   47CHL1  H21B 3458   3.185   5.506   3.845  0.0389 -0.4377 -0.7925
   47CHL1  H21C 3459   3.103   5.492   4.008  1.3660 -0.3398  0.6670
   47CHL1   C22 3460   3.348   5.397   4.107 -0.1728  0.0603  1.2533
   47CHL1  H22A 3461   3.411   5.309   4.135  0.9222  0.0268 -1.0911
   47CHL1  H22B 3462   3.417   5.480   4.084  0.1969 -0.5885 -0.0919
   47CHL1   C23 3463   3.239   5.406   4.219 -0.5439 -0.2315 -0.2060
   47CHL1  H23A 3464   3.185   5.501   4.201 -0.0664  0.1512  0.3558
   47CHL1  H23B 3465   3.179   5.314   4.202  1.1263 -1.3015 -0.4946
   47CHL1   C24 3466   3.285   5.402   4.370  0.0501 -0.1831  0.5442
   47CHL1  H24A 3467   3.368   5.329   4.373  1.2431  1.0825 -0.2047
   47CHL1  H24B 3468   3.342   5.496   4.386 -1.3755  1.2374 -2.0311
   47CHL1   C25 3469   3.188   5.362   4.474  0.5296 -0.4087  0.3205
   47CHL1   H25 3470   3.143   5.263   4.449  0.9181 -0.6075  0.4063
   47CHL1   C26 3471   3.256   5.357   4.609 -0.4176 -0.7880 -0.8896
   47CHL1  H26A 3472   3.193   5.328   4.696  0.6495 -2.4129 -0.6179
   47CHL1  H26B 3473   3.340   5.284   4.602  0.8463  0.3993  0.9797
   47CHL1  H26C 3474   3.291   5.456   4.644  1.1572 -2.4077  2.6623
   47CHL1   C27 3475   3.068   5.463   4.478  0.4941  0.0996 -0.3770
   47CHL1  H27A 3476   3.105   5.556   4.525  2.6437 -1.8973  2.1854
   47CHL1  H27B 3477   3.020   5.482   4.380  0.0704  0.1094 -0.1736
   47CHL1  H27C 3478   2.989   5.424   4.546  0.0927 -2.0589 -1.9541
   48CHL1    C3 3479   4.905   2.332   3.372  0.3317  0.6366  0.4264
   48CHL1    H3 3480   4.869   2.229   3.350  2.8766  0.0977 -1.7568
   48CHL1    O3 3481   4.943   2.392   3.248  0.7308  0.6935 -0.8897
   48CHL1   H3' 3482   4.962   2.481   3.278 -1.3508  1.6954 -2.2861
   48CHL1    C4 3483   4.813   2.433   3.446 -0.2260  0.1233  0.2723
   48CHL1   H4A 3484   4.862   2.533   3.441 -0.9683  0.5557  1.3028
   48CHL1   H4B 3485   4.722   2.438   3.382  1.4383 -1.3739 -2.3941
   48CHL1    C5 3486   4.774   2.401   3.587 -0.7810 -0.2986  0.0655
   48CHL1    C6 3487   4.647   2.388   3.626  0.5336  1.0430  0.5566
   48CHL1    H6 3488   4.562   2.419   3.564 -0.2698  0.0612  1.1304
   48CHL1    C7 3489   4.608   2.347   3.765  0.3703  0.0700 -0.0850
   48CHL1   H7A 3490   4.527   2.409   3.807  0.2483  0.8225 -1.3787
   48CHL1   H7B 3491   4.558   2.249   3.779 -1.6377  1.1986  1.0210
   48CHL1    C8 3492   4.728   2.360   3.860  0.0727 -0.1688 -0.2102
   48CHL1    H8 3493   4.746   2.469   3.872  1.7601 -0.6830  2.9647
   48CHL1   C14 3494   4.692   2.284   3.986  1.4948 -0.2912 -0.1185
   48CHL1   H14 3495   4.676   2.175   3.973  2.1794 -1.3661  5.5299
   48CHL1   C15 3496   4.558   2.325   4.056  0.3052  0.3751 -0.9622
   48CHL1  H15A 3497   4.549   2.436   4.057 -0.1270  0.3531  1.3588
   48CHL1  H15B 3498   4.469   2.280   4.007  1.8259 -3.5039 -0.5634
   48CHL1   C16 3499   4.574   2.271   4.203 -0.5498  0.0224  0.3167
   48CHL1  H16A 3500   4.556   2.353   4.276 -0.1521  0.5669 -0.1938
   48CHL1  H16B 3501   4.512   2.184   4.235  0.2284 -1.1110 -1.1039
   48CHL1   C17 3502   4.726   2.227   4.208 -0.4442  0.7359 -0.0251
   48CHL1   H17 3503   4.726   2.116   4.201  1.5362  0.5928  1.4032
   48CHL1   C13 3504   4.802   2.281   4.085  0.7960 -0.2601 -0.1583
   48CHL1   C18 3505   4.846   2.421   4.121 -0.4839 -0.5051 -0.0545
   48CHL1  H18A 3506   4.767   2.470   4.181  0.5712  1.1510  0.0395
   48CHL1  H18B 3507   4.936   2.436   4.184 -0.3120 -0.3329 -0.3364
   48CHL1  H18C 3508   4.868   2.490   4.036 -0.1303 -1.1411 -0.4920
   48CHL1   C12 3509   4.921   2.208   4.029  0.1214 -0.8443  0.2260
   48CHL1  H12A 3510   5.013   2.216   4.092  0.1360 -1.6771  0.3270
   48CHL1  H12B 3511   4.890   2.102   4.020  0.3830 -0.9287  0.2935
   48CHL1   C11 3512   4.958   2.264   3.892 -0.1010 -0.0520 -0.6248
   48CHL1  H11A 3513   5.019   2.354   3.909  1.3329 -0.5711 -2.6680
   48CHL1  H11B 3514   5.029   2.188   3.852  2.0911 -0.2570  3.1154
   48CHL1    C9 3515   4.841   2.290   3.801  0.3263  0.3482 -0.3213
   48CHL1    H9 3516   4.803   2.190   3.771 -0.4288 -0.0398  1.7975
   48CHL1   C10 3517   4.899   2.367   3.673 -0.2844  0.2571 -0.1884
   48CHL1   C19 3518   4.973   2.495   3.710 -0.5031 -0.0455 -0.0592
   48CHL1  H19A 3519   4.905   2.569   3.759  0.4035 -0.1824  1.4704
   48CHL1  H19B 3520   5.061   2.479   3.776 -1.1466  3.9056  2.0592
   48CHL1  H19C 3521   5.012   2.537   3.615  4.7067  1.9883  2.5779
   48CHL1    C1 3522   4.999   2.270   3.600  0.3145 -0.2968 -0.3147
   48CHL1   H1A 3523   5.097   2.275   3.654  0.4292  1.5430 -0.6077
   48CHL1   H1B 3524   4.961   2.166   3.603 -0.2690 -0.0906 -0.6051
   48CHL1    C2 3525   5.032   2.312   3.459 -0.3455 -0.1531  0.7917
   48CHL1   H2A 3526   5.088   2.232   3.406 -2.4088  0.6573 -2.9637
   48CHL1   H2B 3527   5.102   2.398   3.466 -1.4185  0.7709  0.4319
   48CHL1   C20 3528   4.788   2.248   4.346 -0.2548 -0.8649 -0.3961
   48CHL1   H20 3529   4.794   2.357   4.366 -1.7727 -0.7967 -0.1682
   48CHL1   C21 3530   4.930   2.182   4.352 -0.1395 -0.8874  0.0627
   48CHL1  H21A 3531   4.975   2.197   4.453  0.5103  0.3400 -0.3908
   48CHL1  H21B 3532   5.006   2.240   4.295  2.2440 -1.9445  1.9522
   48CHL1  H21C 3533   4.932   2.073   4.328 -0.4800 -0.6155 -1.2209
   48CHL1   C22 3534   4.704   2.178   4.457  0.3458  0.2348 -0.0468
   48CHL1  H22A 3535   4.761   2.204   4.549  0.2809 -0.6466  0.2518
   48CHL1  H22B 3536   4.602   2.220   4.443  0.1100 -0.5546 -0.7548
   48CHL1   C23 3537   4.698   2.023   4.453  0.3452 -0.0977 -0.0806
   48CHL1  H23A 3538   4.639   1.996   4.363 -2.9952  0.1422  1.8756
   48CHL1  H23B 3539   4.805   1.991   4.461  0.0744 -0.9266  0.4109
   48CHL1   C24 3540   4.617   1.965   4.573 -0.0577 -0.1960 -0.3146
   48CHL1  H24A 3541   4.641   2.016   4.669 -0.8770 -0.1020 -0.1476
   48CHL1  H24B 3542   4.512   1.995   4.553 -1.1665 -2.7583  1.2357
   48CHL1   C25 3543   4.609   1.810   4.588  0.4057 -0.2542 -0.2492
   48CHL1   H25 3544   4.557   1.757   4.506 -2.3155 -0.8809  1.7332
   48CHL1   C26 3545   4.749   1.747   4.605  0.0885 -0.0854  0.3587
   48CHL1  H26A 3546   4.811   1.782   4.519  1.5544  0.0803  1.4568
   48CHL1  H26B 3547   4.795   1.796   4.693  0.3615  1.3333 -0.5308
   48CHL1  H26C 3548   4.751   1.637   4.617  1.9752 -0.1068  0.1200
   48CHL1   C27 3549   4.526   1.780   4.717  0.6774 -0.0071 -0.5232
   48CHL1  H27A 3550   4.426   1.828   4.712  1.9226  2.5907 -3.2186
   48CHL1  H27B 3551   4.505   1.674   4.741  0.2271  0.5499  1.7882
   48CHL1  H27C 3552   4.580   1.817   4.806 -0.0961 -0.4807  0.1600
   49CHL1    C3 3553   5.262   5.487   3.026 -0.9070 -0.2208 -0.0586
   49CHL1    H3 3554   5.153   5.506   3.034 -0.7301  1.1716 -0.6068
   49CHL1    O3 3555   5.294   5.483   2.888  0.6053 -0.4792  0.1889
   49CHL1   H3' 3556   5.266   5.566   2.849 -0.2732 -0.5355  0.6777
   49CHL1    C4 3557   5.353   5.595   3.101  0.4855  0.3474  0.5174
   49CHL1   H4A 3558   5.456   5.560   3.079  0.1512  0.8979 -2.3414
   49CHL1   H4B 3559   5.333   5.695   3.055  0.1795 -0.3988 -1.0521
   49CHL1    C5 3560   5.322   5.592   3.253 -0.8841  0.0845 -0.5221
   49CHL1    C6 3561   5.286   5.708   3.313  0.3702  0.1132 -0.1093
   49CHL1    H6 3562   5.260   5.788   3.243  0.4155 -0.3601 -0.6697
   49CHL1    C7 3563   5.246   5.717   3.453  0.3684 -0.2593 -0.5812
   49CHL1   H7A 3564   5.290   5.810   3.495 -0.3751  0.1885 -0.7821
   49CHL1   H7B 3565   5.137   5.734   3.457  0.6123  1.2465  1.0471
   49CHL1    C8 3566   5.289   5.592   3.539  0.6349 -0.4454 -0.0338
   49CHL1    H8 3567   5.394   5.611   3.570  0.9679 -1.4683 -0.5004
   49CHL1   C14 3568   5.201   5.589   3.665  0.0621  0.4276  0.1647
   49CHL1   H14 3569   5.099   5.579   3.620  0.2481  0.7426 -0.3317
   49CHL1   C15 3570   5.192   5.717   3.745 -0.2867 -0.0173  0.0414
   49CHL1  H15A 3571   5.294   5.745   3.778 -1.4214  1.1814  2.8039
   49CHL1  H15B 3572   5.154   5.808   3.694  3.1321  1.2566 -0.4867
   49CHL1   C16 3573   5.115   5.679   3.866  0.4845 -0.7612 -0.3986
   49CHL1  H16A 3574   5.149   5.733   3.958  0.8801 -1.0383 -0.3770
   49CHL1  H16B 3575   5.008   5.705   3.856  0.8523  1.0842  0.0027
   49CHL1   C17 3576   5.113   5.521   3.870 -0.5377 -0.1427 -0.1512
   49CHL1   H17 3577   5.024   5.487   3.814 -0.1215  0.7455 -1.4066
   49CHL1   C13 3578   5.222   5.479   3.768  0.1715 -0.2274  0.1507
   49CHL1   C18 3579   5.371   5.477   3.818 -0.2244 -0.1602 -0.1479
   49CHL1  H18A 3580   5.382   5.565   3.884  0.1511 -0.1652 -0.1975
   49CHL1  H18B 3581   5.395   5.383   3.873  0.4783  0.5198  0.7503
   49CHL1  H18C 3582   5.440   5.487   3.732  0.3569 -0.4766  0.2664
   49CHL1   C12 3583   5.195   5.353   3.695  0.5284 -0.2806  1.0631
   49CHL1  H12A 3584   5.216   5.261   3.755 -3.4524 -0.4767  2.4164
   49CHL1  H12B 3585   5.090   5.365   3.663  1.1341 -0.2898 -1.0876
   49CHL1   C11 3586   5.272   5.342   3.562 -0.2106 -0.0002  0.2868
   49CHL1  H11A 3587   5.378   5.311   3.576  0.1156  1.5311  1.6727
   49CHL1  H11B 3588   5.227   5.257   3.508 -2.5419  1.5917 -0.4564
   49CHL1    C9 3589   5.260   5.456   3.467  1.0582 -0.7617  0.1430
   49CHL1    H9 3590   5.156   5.469   3.431  1.3839 -2.8314 -1.7682
   49CHL1   C10 3591   5.332   5.456   3.327 -0.6068 -0.0065 -0.4431
   49CHL1   C19 3592   5.482   5.411   3.339 -0.5631 -0.0362 -0.5510
   49CHL1  H19A 3593   5.503   5.328   3.410 -0.0570 -0.4037 -1.1259
   49CHL1  H19B 3594   5.518   5.386   3.237 -2.4259 -1.0070 -1.0199
   49CHL1  H19C 3595   5.542   5.498   3.372 -2.5888  1.2009  0.0555
   49CHL1    C1 3596   5.264   5.344   3.236  0.1363 -0.3409 -0.5606
   49CHL1   H1A 3597   5.296   5.243   3.267 -1.7786 -0.6803  0.5137
   49CHL1   H1B 3598   5.154   5.347   3.253  0.2706 -2.4540  1.0701
   49CHL1    C2 3599   5.289   5.349   3.086 -0.7523  0.4875 -0.0861
   49CHL1   H2A 3600   5.218   5.280   3.037 -0.7732  1.2306 -1.1413
   49CHL1   H2B 3601   5.392   5.315   3.062 -0.9750 -1.7776  1.8423
   49CHL1   C20 3602   5.120   5.469   4.016 -0.4880  0.6561 -0.0026
   49CHL1   H20 3603   5.226   5.467   4.048 -0.3583  1.0692 -0.3924
   49CHL1   C21 3604   5.073   5.319   4.012  0.4571  0.2878 -0.6473
   49CHL1  H21A 3605   5.103   5.270   3.917  1.0986  1.8215 -1.2579
   49CHL1  H21B 3606   4.963   5.316   4.025  0.7501 -3.2045  4.0884
   49CHL1  H21C 3607   5.109   5.265   4.103 -2.2185  1.0386  0.9693
   49CHL1   C22 3608   5.061   5.556   4.132  0.3358  0.3133  0.0388
   49CHL1  H22A 3609   5.122   5.647   4.147  1.1168  0.0542 -1.3337
   49CHL1  H22B 3610   4.958   5.587   4.105  0.4461 -0.5977 -1.5490
   49CHL1   C23 3611   5.060   5.488   4.268  0.3800 -0.3507  0.1416
   49CHL1  H23A 3612   4.999   5.395   4.258  1.2495 -0.7364 -2.4827
   49CHL1  H23B 3613   5.157   5.475   4.320 -0.5146 -1.3001  1.6412
   49CHL1   C24 3614   4.978   5.576   4.377 -0.7211 -1.0656  0.2549
   49CHL1  H24A 3615   5.016   5.681   4.376 -0.4694 -1.1599 -0.0732
   49CHL1  H24B 3616   4.877   5.589   4.334 -0.5593 -0.5728  0.0161
   49CHL1   C25 3617   4.970   5.538   4.523 -0.1029 -0.3051  0.5632
   49CHL1   H25 3618   4.921   5.439   4.524 -0.2384 -0.2755 -0.9315
   49CHL1   C26 3619   5.107   5.535   4.589 -0.2518 -0.0938  0.1799
   49CHL1  H26A 3620   5.087   5.501   4.692 -0.0806  1.7154  0.8359
   49CHL1  H26B 3621   5.178   5.473   4.530 -1.0940  0.5663 -1.6069
   49CHL1  H26C 3622   5.145   5.639   4.586 -0.3427  0.0385  2.3569
   49CHL1   C27 3623   4.874   5.641   4.581 -0.4525 -0.2805 -0.0463
   49CHL1  H27A 3624   4.791   5.673   4.515 -1.2379 -0.8271  0.6594
   49CHL1  H27B 3625   4.837   5.596   4.675  0.8894 -0.2209  0.5320
   49CHL1  H27C 3626   4.933   5.728   4.618  1.0724 -2.0802  1.9961
   50CHL1    C3 3627   3.432   2.275   3.011 -0.0381  0.0953  0.6308
   50CHL1    H3 3628   3.454   2.384   3.015 -1.0066  0.3033  0.6908
   50CHL1    O3 3629   3.418   2.233   2.873 -0.0123  0.5195  0.1239
   50CHL1   H3' 3630   3.506   2.241   2.837 -0.0986  1.2309  0.0562
   50CHL1    C4 3631   3.552   2.196   3.071 -0.1698 -0.2003 -0.5430
   50CHL1   H4A 3632   3.548   2.087   3.050  0.2102 -0.5584  1.1490
   50CHL1   H4B 3633   3.638   2.221   3.005 -1.1698  2.3977 -0.9488
   50CHL1    C5 3634   3.581   2.217   3.221 -0.5580  0.1122 -0.0090
   50CHL1    C6 3635   3.702   2.257   3.273  0.2349 -0.1092 -0.5987
   50CHL1    H6 3636   3.791   2.249   3.209 -0.0493  0.6313 -1.0947
   50CHL1    C7 3637   3.736   2.284   3.418  0.0852 -0.6168 -0.2214
   50CHL1   H7A 3638   3.835   2.239   3.442  0.0407 -0.5800  0.0341
   50CHL1   H7B 3639   3.755   2.391   3.440 -0.9140 -0.7590  1.4399
   50CHL1    C8 3640   3.622   2.239   3.510  0.2888 -0.2196 -0.6629
   50CHL1    H8 3641   3.640   2.129   3.504  0.2020 -0.1829 -2.0978
   50CHL1   C14 3642   3.640   2.287   3.659  0.0344  0.5161  0.6225
   50CHL1   H14 3643   3.634   2.397   3.654  2.0776  0.6768  0.6839
   50CHL1   C15 3644   3.782   2.265   3.718 -0.0758  0.2208 -0.1794
   50CHL1  H15A 3645   3.827   2.165   3.699  2.8096  1.0269  1.7931
   50CHL1  H15B 3646   3.850   2.340   3.674 -1.3003  1.2323 -0.4009
   50CHL1   C16 3647   3.759   2.296   3.866  1.0077 -0.3449  0.4929
   50CHL1  H16A 3648   3.790   2.205   3.921 -0.8796 -1.0053  0.5295
   50CHL1  H16B 3649   3.810   2.387   3.905 -0.3554  0.6090  0.1159
   50CHL1   C17 3650   3.594   2.314   3.875  0.3503 -0.4148  0.1009
   50CHL1   H17 3651   3.565   2.420   3.860 -0.0789 -0.4131  0.9295
   50CHL1   C13 3652   3.543   2.237   3.754 -0.1051  0.5609 -0.1973
   50CHL1   C18 3653   3.558   2.080   3.767  0.0552 -0.6380  0.4220
   50CHL1  H18A 3654   3.555   2.029   3.668  2.1374 -0.8155  0.4122
   50CHL1  H18B 3655   3.658   2.069   3.814  0.7019  3.1413  0.2464
   50CHL1  H18C 3656   3.477   2.038   3.831  0.6704 -4.4117 -1.0255
   50CHL1   C12 3657   3.404   2.276   3.704 -0.1942 -0.1282 -0.1709
   50CHL1  H12A 3658   3.325   2.240   3.773 -1.1867 -1.2808 -1.8387
   50CHL1  H12B 3659   3.388   2.386   3.704 -1.1353 -0.2520 -0.9971
   50CHL1   C11 3660   3.371   2.225   3.563  0.7381 -0.4067  0.5306
   50CHL1  H11A 3661   3.387   2.115   3.572  1.0439 -0.2039  3.0324
   50CHL1  H11B 3662   3.266   2.244   3.532  0.7022 -2.0577 -0.4818
   50CHL1    C9 3663   3.479   2.260   3.453  0.1859 -0.1702  0.4364
   50CHL1    H9 3664   3.467   2.367   3.429 -0.0588 -0.9723 -3.8642
   50CHL1   C10 3665   3.456   2.200   3.314 -1.1056 -0.4364 -0.0861
   50CHL1   C19 3666   3.432   2.044   3.313  0.3181 -0.0851  0.5074
   50CHL1  H19A 3667   3.342   2.028   3.376 -2.1410 -2.7960 -3.2050
   50CHL1  H19B 3668   3.407   2.008   3.211  2.3450 -0.5255  0.1216
   50CHL1  H19C 3669   3.517   1.988   3.358  1.2274  1.8243  1.2744
   50CHL1    C1 3670   3.334   2.275   3.248 -0.5471  0.1539  0.4301
   50CHL1   H1A 3671   3.244   2.260   3.311 -1.0525 -2.7469 -0.8330
   50CHL1   H1B 3672   3.354   2.384   3.260  0.3944  0.1272 -0.7668
   50CHL1    C2 3673   3.303   2.243   3.092  0.4542  0.5796 -0.4034
   50CHL1   H2A 3674   3.226   2.305   3.042 -0.4852 -2.1580 -2.6119
   50CHL1   H2B 3675   3.269   2.138   3.097  1.2375  0.3618  2.9555
   50CHL1   C20 3676   3.534   2.274   4.015 -0.2321  0.3234 -0.1791
   50CHL1   H20 3677   3.490   2.174   3.992 -0.3959  0.5070 -0.6801
   50CHL1   C21 3678   3.416   2.365   4.050  0.5402  0.0580  0.6497
   50CHL1  H21A 3679   3.455   2.462   4.090 -0.1952  0.6238  0.0379
   50CHL1  H21B 3680   3.356   2.317   4.130  0.9457 -0.8143  0.4314
   50CHL1  H21C 3681   3.345   2.382   3.966 -0.0335 -2.3969  0.5795
   50CHL1   C22 3682   3.638   2.257   4.135 -0.3594  0.3499 -0.1729
   50CHL1  H22A 3683   3.739   2.298   4.112  0.2830 -0.1864  1.5393
   50CHL1  H22B 3684   3.614   2.332   4.213  2.1307 -0.4611  1.4890
   50CHL1   C23 3685   3.658   2.112   4.179  0.1592 -0.0127 -0.5551
   50CHL1  H23A 3686   3.667   2.049   4.088 -1.5801 -0.3709 -0.5130
   50CHL1  H23B 3687   3.745   2.109   4.248 -0.7381  0.9379  0.6705
   50CHL1   C24 3688   3.545   2.072   4.277 -0.1077  1.0803 -0.5823
   50CHL1  H24A 3689   3.457   2.088   4.211  1.0730  4.2558 -1.6030
   50CHL1  H24B 3690   3.551   1.964   4.301 -2.7354  0.7432 -1.2014
   50CHL1   C25 3691   3.528   2.150   4.409  0.6509  0.2611  0.4309
   50CHL1   H25 3692   3.555   2.256   4.393  2.5797  0.0870  2.1234
   50CHL1   C26 3693   3.382   2.143   4.459 -0.7087 -0.2639  0.6106
   50CHL1  H26A 3694   3.363   2.197   4.555  1.7724  1.3352  0.2930
   50CHL1  H26B 3695   3.322   2.193   4.380  1.3004 -0.3862 -1.0596
   50CHL1  H26C 3696   3.341   2.040   4.460 -0.9154 -0.2496 -1.7950
   50CHL1   C27 3697   3.611   2.095   4.523  0.3070  0.5308  0.1315
   50CHL1  H27A 3698   3.720   2.100   4.504  0.1591  1.9210 -0.5132
   50CHL1  H27B 3699   3.580   2.163   4.605 -1.0047  0.4947 -0.3109
   50CHL1  H27C 3700   3.572   1.993   4.545  1.2575 -0.5349 -2.6796
   51CHL1    C3 3701   6.379   3.449   3.140 -0.0384 -0.0159 -0.5391
   51CHL1    H3 3702   6.279   3.495   3.129 -0.5740 -0.4531  2.0438
   51CHL1    O3 3703   6.434   3.418   3.012 -0.0267 -0.0243  0.1490
   51CHL1   H3' 3704   6.395   3.333   2.989  1.9571 -1.0529  0.4215
   51CHL1    C4 3705   6.483   3.538   3.215 -0.6520 -0.2058 -0.2859
   51CHL1   H4A 3706   6.576   3.477   3.215 -1.1374 -0.9668  0.3363
   51CHL1   H4B 3707   6.492   3.633   3.158  1.7892  0.7260  1.4721
   51CHL1    C5 3708   6.451   3.563   3.358  0.1273 -1.0212  0.2864
   51CHL1    C6 3709   6.447   3.687   3.407  0.0955  0.4104 -0.2910
   51CHL1    H6 3710   6.467   3.780   3.352 -0.5611  1.1667  0.6988
   51CHL1    C7 3711   6.433   3.719   3.559  0.0267  0.1759  0.1809
   51CHL1   H7A 3712   6.492   3.806   3.593  1.7847 -0.2775 -1.5088
   51CHL1   H7B 3713   6.326   3.741   3.577  0.2073  1.7538 -0.5484
   51CHL1    C8 3714   6.453   3.596   3.650 -0.1350  0.4497  0.4724
   51CHL1    H8 3715   6.562   3.576   3.646 -0.0888  0.7202  0.3615
   51CHL1   C14 3716   6.414   3.614   3.793 -0.1976 -0.2569  0.1892
   51CHL1   H14 3717   6.309   3.650   3.799 -0.1660 -0.2192  0.5431
   51CHL1   C15 3718   6.475   3.735   3.871 -0.5631 -0.4635 -0.2312
   51CHL1  H15A 3719   6.583   3.753   3.847 -0.1080 -0.9316  1.3210
   51CHL1  H15B 3720   6.420   3.829   3.848  0.6180  0.2055 -0.4724
   51CHL1   C16 3721   6.468   3.698   4.020  0.5569  0.2982  0.2479
   51CHL1  H16A 3722   6.568   3.700   4.068  0.6381  3.0980  0.1521
   51CHL1  H16B 3723   6.401   3.765   4.079 -2.1332 -2.2063  0.2608
   51CHL1   C17 3724   6.395   3.554   4.014 -0.0158 -0.0151 -0.2375
   51CHL1   H17 3725   6.287   3.573   3.998 -0.1592 -1.5904 -1.4783
   51CHL1   C13 3726   6.434   3.492   3.880 -0.0550  0.3873 -0.4948
   51CHL1   C18 3727   6.581   3.450   3.866 -0.5245 -0.6648 -0.4269
   51CHL1  H18A 3728   6.612   3.420   3.764  0.7944 -2.7045  0.5161
   51CHL1  H18B 3729   6.654   3.527   3.901 -2.2391  0.7969  0.0861
   51CHL1  H18C 3730   6.603   3.367   3.937 -0.6653 -1.3500 -1.1748
   51CHL1   C12 3731   6.334   3.391   3.828 -0.1709  0.8000 -0.5409
   51CHL1  H12A 3732   6.340   3.298   3.888  0.1048  0.9587 -0.3230
   51CHL1  H12B 3733   6.230   3.430   3.838  0.3922  2.2601 -0.1971
   51CHL1   C11 3734   6.353   3.359   3.681  0.0543 -0.0959  0.0306
   51CHL1  H11A 3735   6.444   3.295   3.691  0.4171  0.5125  0.6563
   51CHL1  H11B 3736   6.271   3.288   3.657  0.9865 -2.3305  2.9394
   51CHL1    C9 3737   6.370   3.478   3.585  0.3047  0.9834 -0.4277
   51CHL1    H9 3738   6.267   3.520   3.579  0.9004  3.4176  3.1572
   51CHL1   C10 3739   6.424   3.444   3.444  0.4300 -0.3867 -0.5595
   51CHL1   C19 3740   6.567   3.374   3.462  0.0666  0.7992  0.2554
   51CHL1  H19A 3741   6.570   3.289   3.533  2.0909  1.8158  1.4697
   51CHL1  H19B 3742   6.597   3.331   3.364  0.2365 -1.8792  1.3986
   51CHL1  H19C 3743   6.643   3.447   3.498  2.6832 -1.3846 -0.5005
   51CHL1    C1 3744   6.334   3.345   3.370 -0.2056  0.0496  0.9015
   51CHL1   H1A 3745   6.325   3.243   3.414  0.6711 -1.0325 -1.2507
   51CHL1   H1B 3746   6.231   3.385   3.378  0.0345  0.5269  1.6945
   51CHL1    C2 3747   6.367   3.321   3.219  0.2310 -0.2065  0.2769
   51CHL1   H2A 3748   6.296   3.253   3.170  0.8249  0.0575 -0.9867
   51CHL1   H2B 3749   6.470   3.279   3.224 -0.1906 -1.1814  1.0532
   51CHL1   C20 3750   6.412   3.469   4.139 -0.5437 -0.8339  0.4257
   51CHL1   H20 3751   6.385   3.362   4.125  0.6013 -0.9738 -0.9305
   51CHL1   C21 3752   6.315   3.525   4.243  0.6352 -1.1351 -0.1068
   51CHL1  H21A 3753   6.210   3.501   4.215  0.6607 -0.3902 -0.8803
   51CHL1  H21B 3754   6.321   3.635   4.254  0.0970 -1.1900  0.8355
   51CHL1  H21C 3755   6.325   3.485   4.346  0.1111 -0.8278  0.0660
   51CHL1   C22 3756   6.561   3.460   4.197 -0.8810  0.1633  0.5429
   51CHL1  H22A 3757   6.637   3.421   4.126 -0.8873 -1.7008  1.5124
   51CHL1  H22B 3758   6.591   3.566   4.214  0.8750  0.0802 -1.5888
   51CHL1   C23 3759   6.584   3.383   4.326  1.0432  0.3732  0.3454
   51CHL1  H23A 3760   6.512   3.414   4.405 -1.6862 -2.1549 -0.9920
   51CHL1  H23B 3761   6.567   3.276   4.305 -2.3854  0.6974  0.8818
   51CHL1   C24 3762   6.728   3.404   4.377  0.6152  0.0002 -0.2228
   51CHL1  H24A 3763   6.791   3.392   4.286 -1.1410 -0.3414 -1.4372
   51CHL1  H24B 3764   6.747   3.509   4.407 -0.1639  1.0297 -3.0609
   51CHL1   C25 3765   6.771   3.307   4.485 -1.0397 -0.6392  0.2217
   51CHL1   H25 3766   6.739   3.211   4.440  0.6183 -1.3726  0.5316
   51CHL1   C26 3767   6.926   3.312   4.497  0.1607  0.4345 -0.2085
   51CHL1  H26A 3768   6.968   3.315   4.394 -0.2292  0.3490 -0.3730
   51CHL1  H26B 3769   6.961   3.407   4.543 -1.1573 -0.0102  1.8429
   51CHL1  H26C 3770   6.977   3.233   4.556  0.4432  1.9292  1.6523
   51CHL1   C27 3771   6.699   3.316   4.623 -0.7363 -0.1583  0.0267
   51CHL1  H27A 3772   6.765   3.258   4.691  0.5306 -0.4245 -1.3794
   51CHL1  H27B 3773   6.680   3.421   4.655 -1.7636  0.4816 -2.4186
   51CHL1  H27C 3774   6.598   3.272   4.610 -2.5712  4.1710 -2.8510
   52CHL1    C3 3775   5.195   6.531   3.171  0.2471  0.7449 -0.1699
   52CHL1    H3 3776   5.150   6.430   3.172  2.5040 -0.3260 -0.3578
   52CHL1    O3 3777   5.236   6.571   3.042 -0.0419 -0.1678 -0.2028
   52CHL1   H3' 3778   5.286   6.650   3.062 -0.5719  0.4099 -1.1027
   52CHL1    C4 3779   5.107   6.645   3.227 -0.2130  0.4497  0.0089
   52CHL1   H4A 3780   5.165   6.739   3.213  2.0524 -0.4244  2.6209
   52CHL1   H4B 3781   5.022   6.654   3.156  0.9335  0.5786 -1.3986
   52CHL1    C5 3782   5.071   6.620   3.371 -0.5901 -0.0346 -0.3257
   52CHL1    C6 3783   4.945   6.613   3.414  0.2636  1.0832 -0.2375
   52CHL1    H6 3784   4.870   6.636   3.337  0.9804  1.4289 -0.8313
   52CHL1    C7 3785   4.899   6.581   3.556 -0.1069  0.0681  0.3525
   52CHL1   H7A 3786   4.825   6.657   3.589  1.7071  0.9532  2.5987
   52CHL1   H7B 3787   4.848   6.483   3.573 -0.9878  0.5232  0.4180
   52CHL1    C8 3788   5.014   6.598   3.655 -0.1499  0.0172 -1.0924
   52CHL1    H8 3789   5.033   6.704   3.681 -1.6271 -0.0185  0.3161
   52CHL1   C14 3790   4.973   6.523   3.781 -0.0084  0.5624  0.0772
   52CHL1   H14 3791   4.974   6.415   3.754 -1.4845  0.5494 -0.0092
   52CHL1   C15 3792   4.835   6.559   3.837  0.7498  0.4113 -0.7900
   52CHL1  H15A 3793   4.821   6.669   3.833  0.2944  0.6793  3.5378
   52CHL1  H15B 3794   4.751   6.516   3.778 -2.0330  2.0843  1.6534
   52CHL1   C16 3795   4.844   6.516   3.984 -0.3860 -0.0638  0.4791
   52CHL1  H16A 3796   4.826   6.606   4.046  2.0663  0.1402  0.9963
   52CHL1  H16B 3797   4.770   6.439   4.015 -2.5891  2.9371  3.3494
   52CHL1   C17 3798   4.992   6.469   4.001  0.6955 -0.3420 -0.0213
   52CHL1   H17 3799   4.990   6.361   3.973 -1.4643  0.3304 -2.9107
   52CHL1   C13 3800   5.077   6.538   3.897 -0.2098  0.0424 -0.7592
   52CHL1   C18 3801   5.102   6.685   3.921 -0.3881  0.1578  0.2405
   52CHL1  H18A 3802   5.145   6.732   3.830  0.6570  1.1290  1.1879
   52CHL1  H18B 3803   5.006   6.731   3.951  0.4532  0.0416  3.5325
   52CHL1  H18C 3804   5.167   6.691   4.012 -0.0349  0.7509 -0.0385
   52CHL1   C12 3805   5.209   6.468   3.856  0.5144  0.5465  1.1339
   52CHL1  H12A 3806   5.297   6.480   3.923  1.4595  0.2545 -0.0186
   52CHL1  H12B 3807   5.189   6.359   3.850 -0.3320  0.6735  1.5509
   52CHL1   C11 3808   5.254   6.518   3.716  0.8068  0.2513  0.1934
   52CHL1  H11A 3809   5.306   6.615   3.730  0.6434  0.1160  1.9760
   52CHL1  H11B 3810   5.321   6.440   3.674 -0.1502 -0.4248 -0.1373
   52CHL1    C9 3811   5.144   6.534   3.607 -0.4327  0.0287  0.4716
   52CHL1    H9 3812   5.114   6.431   3.580  1.8146  0.0346 -2.6513
   52CHL1   C10 3813   5.189   6.590   3.471 -0.5557 -0.5040  0.1691
   52CHL1   C19 3814   5.251   6.727   3.497  0.2770 -0.3065  0.4688
   52CHL1  H19A 3815   5.189   6.783   3.570 -1.6024 -1.6780 -0.0030
   52CHL1  H19B 3816   5.352   6.737   3.542  0.2320 -0.2421  0.5575
   52CHL1  H19C 3817   5.258   6.783   3.402  0.6072 -0.3592  0.4616
   52CHL1    C1 3818   5.295   6.490   3.407  0.1216 -0.6523  0.2421
   52CHL1   H1A 3819   5.394   6.492   3.458  1.4051 -1.2817 -2.0728
   52CHL1   H1B 3820   5.248   6.392   3.430 -0.4013 -0.5401 -0.3281
   52CHL1    C2 3821   5.328   6.517   3.255  0.1405 -0.0800 -0.0525
   52CHL1   H2A 3822   5.395   6.437   3.217 -1.9142 -0.9070 -2.1065
   52CHL1   H2B 3823   5.375   6.617   3.248  0.9021 -0.2893  1.5113
   52CHL1   C20 3824   5.041   6.477   4.147 -0.8787 -0.1720 -1.0215
   52CHL1   H20 3825   5.088   6.575   4.172 -1.7403 -0.0317  0.1362
   52CHL1   C21 3826   5.156   6.374   4.159 -0.4540 -0.4119 -0.4219
   52CHL1  H21A 3827   5.125   6.268   4.164  1.1829 -0.8975  0.1728
   52CHL1  H21B 3828   5.211   6.383   4.255 -0.4602  0.1713 -0.4675
   52CHL1  H21C 3829   5.233   6.374   4.079  0.6208  1.3104  0.5349
   52CHL1   C22 3830   4.924   6.462   4.265 -0.5845 -0.4315  0.5262
   52CHL1  H22A 3831   4.837   6.527   4.239 -1.1284 -1.0951  0.6849
   52CHL1  H22B 3832   4.886   6.359   4.251  0.0976 -0.6881  0.5365
   52CHL1   C23 3833   4.992   6.498   4.404  0.2622 -0.5323 -0.0673
   52CHL1  H23A 3834   5.060   6.410   4.410  1.2302  0.2374  0.5720
   52CHL1  H23B 3835   5.050   6.592   4.403  3.1115 -2.1357  1.4331
   52CHL1   C24 3836   4.897   6.500   4.513 -0.3233 -0.4526 -0.0889
   52CHL1  H24A 3837   4.808   6.557   4.479  0.2322 -0.2319 -1.1938
   52CHL1  H24B 3838   4.858   6.397   4.529 -0.4720 -0.2641  0.8295
   52CHL1   C25 3839   4.951   6.538   4.656 -0.2541  0.6465 -0.1682
   52CHL1   H25 3840   4.999   6.638   4.648 -0.1146  0.8571  2.5541
   52CHL1   C26 3841   4.837   6.558   4.758 -1.1235  0.4153  0.4762
   52CHL1  H26A 3842   4.772   6.469   4.776  0.3864 -0.3622  2.3877
   52CHL1  H26B 3843   4.874   6.591   4.857  0.4255 -1.0558  0.4328
   52CHL1  H26C 3844   4.763   6.638   4.736 -3.0854 -1.7850 -1.5175
   52CHL1   C27 3845   5.055   6.430   4.699  0.6612 -0.0866 -0.1698
   52CHL1  H27A 3846   5.140   6.429   4.627 -1.5519 -0.4086 -2.9383
   52CHL1  H27B 3847   5.097   6.456   4.799 -0.5473 -0.6453  0.5027
   52CHL1  H27C 3848   5.015   6.326   4.695  0.4157 -0.2011  2.7274
   53CHL1    C3 3849   0.472   3.528   3.269 -0.6042 -0.0502 -0.9460
   53CHL1    H3 3850   0.365   3.557   3.269 -0.6472 -0.1979 -1.6400
   53CHL1    O3 3851   0.499   3.455   3.155 -0.0210 -0.6512 -0.3125
   53CHL1   H3' 3852   0.594   3.442   3.165 -0.1277 -0.1963  2.0835
   53CHL1    C4 3853   0.558   3.654   3.266 -0.3628  0.5769  0.0340
   53CHL1   H4A 3854   0.664   3.634   3.239 -0.8077  0.9547 -2.2820
   53CHL1   H4B 3855   0.515   3.710   3.180  0.0332 -0.4550 -0.8694
   53CHL1    C5 3856   0.547   3.721   3.401  0.3129 -0.5820  0.1932
   53CHL1    C6 3857   0.500   3.851   3.398  0.2313 -0.5591 -0.3864
   53CHL1    H6 3858   0.476   3.909   3.307 -0.4122 -0.9716 -0.4882
   53CHL1    C7 3859   0.476   3.922   3.524  0.1898 -0.1254 -0.1314
   53CHL1   H7A 3860   0.508   4.028   3.523  0.7094 -0.1557  3.1128
   53CHL1   H7B 3861   0.367   3.919   3.546  0.1304 -0.8525 -0.4929
   53CHL1    C8 3862   0.555   3.860   3.646  1.1670 -0.4107 -0.1534
   53CHL1    H8 3863   0.662   3.880   3.621  1.2103  1.5475  1.3830
   53CHL1   C14 3864   0.514   3.942   3.771 -0.8943 -0.0525 -0.1823
   53CHL1   H14 3865   0.404   3.931   3.784 -0.7701 -3.2630 -0.8863
   53CHL1   C15 3866   0.542   4.100   3.759 -0.0854  0.3011  0.1067
   53CHL1  H15A 3867   0.639   4.115   3.706 -0.2333 -1.6757 -0.8035
   53CHL1  H15B 3868   0.457   4.147   3.705 -0.3905 -3.4419 -3.1263
   53CHL1   C16 3869   0.536   4.149   3.907 -0.2419 -0.7143 -0.1666
   53CHL1  H16A 3870   0.631   4.201   3.931 -0.5722 -0.8687  1.5501
   53CHL1  H16B 3871   0.451   4.216   3.933 -0.2991 -0.7719 -0.2067
   53CHL1   C17 3872   0.535   4.022   3.993  0.0745  0.4506  0.5000
   53CHL1   H17 3873   0.428   3.998   4.009 -0.4267  1.5684 -0.9294
   53CHL1   C13 3874   0.589   3.903   3.900 -0.3033 -0.0497 -0.5829
   53CHL1   C18 3875   0.743   3.919   3.887 -0.1205 -1.0532  0.2517
   53CHL1  H18A 3876   0.777   3.848   3.809 -0.8104 -0.0577 -1.0093
   53CHL1  H18B 3877   0.770   4.025   3.867 -1.2519 -0.9327 -0.7782
   53CHL1  H18C 3878   0.787   3.902   3.987  1.4217  2.7562  0.4086
   53CHL1   C12 3879   0.543   3.758   3.926  0.0753  0.0893 -0.0751
   53CHL1  H12A 3880   0.585   3.715   4.019 -2.0435 -0.6018  0.6149
   53CHL1  H12B 3881   0.433   3.755   3.938  0.1782 -2.0885  0.8118
   53CHL1   C11 3882   0.581   3.673   3.803 -0.1469 -0.1126 -0.4750
   53CHL1  H11A 3883   0.691   3.665   3.794  0.2373  2.6874  0.7981
   53CHL1  H11B 3884   0.548   3.572   3.837  1.2213 -0.4616 -0.1243
   53CHL1    C9 3885   0.524   3.714   3.663  0.7489  0.3562  0.1562
   53CHL1    H9 3886   0.413   3.701   3.666  0.8814 -1.0266 -0.3699
   53CHL1   C10 3887   0.567   3.639   3.528  0.7852 -0.0172 -0.0876
   53CHL1   C19 3888   0.719   3.599   3.543  0.2142  0.4894  0.3135
   53CHL1  H19A 3889   0.751   3.538   3.630  1.2568  0.5897  0.0183
   53CHL1  H19B 3890   0.741   3.561   3.441 -1.3628  2.1287 -0.7035
   53CHL1  H19C 3891   0.775   3.695   3.552 -1.7545  1.8603 -1.1233
   53CHL1    C1 3892   0.473   3.518   3.516 -0.1707  0.2387 -0.3913
   53CHL1   H1A 3893   0.491   3.448   3.600  0.7950 -0.4945 -1.1804
   53CHL1   H1B 3894   0.367   3.545   3.530 -0.7311 -0.8907 -2.1696
   53CHL1    C2 3895   0.484   3.433   3.390 -0.2449  0.2326  0.4201
   53CHL1   H2A 3896   0.406   3.354   3.379  0.3986 -0.2022 -1.1893
   53CHL1   H2B 3897   0.585   3.386   3.384  0.0856  0.5291  2.6901
   53CHL1   C20 3898   0.596   4.042   4.133 -0.1041  0.2525  0.3650
   53CHL1   H20 3899   0.698   4.084   4.122  0.5298 -0.8438  1.7893
   53CHL1   C21 3900   0.608   3.908   4.208 -0.4303 -0.7542  0.9745
   53CHL1  H21A 3901   0.508   3.868   4.238 -1.8581  2.0344  0.3680
   53CHL1  H21B 3902   0.656   3.934   4.305  1.3656  2.2082 -0.5695
   53CHL1  H21C 3903   0.675   3.840   4.152  0.0485  0.7574 -0.3777
   53CHL1   C22 3904   0.513   4.144   4.215  0.2845 -0.4649 -0.5928
   53CHL1  H22A 3905   0.486   4.223   4.143 -1.4430 -0.1260  0.3882
   53CHL1  H22B 3906   0.421   4.104   4.261 -1.2848  0.9087 -2.3816
   53CHL1   C23 3907   0.594   4.221   4.322 -0.1457  0.0311  0.2060
   53CHL1  H23A 3908   0.637   4.144   4.390  2.1332  0.2053 -0.9308
   53CHL1  H23B 3909   0.682   4.266   4.271 -0.2798  0.4848  0.3715
   53CHL1   C24 3910   0.509   4.337   4.389 -0.0183  0.1577  0.5387
   53CHL1  H24A 3911   0.503   4.408   4.304  2.0722 -0.5056 -0.2284
   53CHL1  H24B 3912   0.411   4.289   4.411 -0.4490 -0.2671 -2.0141
   53CHL1   C25 3913   0.588   4.380   4.518  0.3385 -0.9152 -0.1418
   53CHL1   H25 3914   0.602   4.297   4.590  1.6029 -0.6574 -0.0769
   53CHL1   C26 3915   0.725   4.444   4.483  0.0508 -0.0965 -0.4928
   53CHL1  H26A 3916   0.786   4.373   4.423  1.0745 -1.0789  1.6024
   53CHL1  H26B 3917   0.717   4.537   4.423 -0.8964 -1.4859 -2.6715
   53CHL1  H26C 3918   0.781   4.465   4.576  0.2528  0.3123 -0.7033
   53CHL1   C27 3919   0.502   4.482   4.600  0.4609  0.1311 -0.1010
   53CHL1  H27A 3920   0.554   4.505   4.695 -0.5774  0.0105  0.5117
   53CHL1  H27B 3921   0.496   4.575   4.539  0.8072  2.0059  2.5549
   53CHL1  H27C 3922   0.404   4.444   4.635  0.3662  0.3084 -0.1719
   54CHL1    C3 3923   0.327   2.754   3.317  0.4413 -0.0705 -0.4604
   54CHL1    H3 3924   0.433   2.783   3.325  0.1183  1.1924 -0.6279
   54CHL1    O3 3925   0.306   2.716   3.181 -0.0138 -0.0752  0.2153
   54CHL1   H3' 3926   0.321   2.797   3.130 -0.6845  0.0682  0.2415
   54CHL1    C4 3927   0.303   2.631   3.416  0.9906  0.1623  0.3829
   54CHL1   H4A 3928   0.199   2.591   3.409  2.1058 -2.9491 -0.2070
   54CHL1   H4B 3929   0.367   2.545   3.387  2.5797  1.3829  0.1179
   54CHL1    C5 3930   0.345   2.666   3.552  0.0348  0.1210  0.0318
   54CHL1    C6 3931   0.426   2.588   3.622  0.6105 -0.0471  0.0289
   54CHL1    H6 3932   0.451   2.493   3.572 -3.8812 -0.4110 -1.9745
   54CHL1    C7 3933   0.470   2.602   3.764  0.0937 -0.1488 -0.3886
   54CHL1   H7A 3934   0.471   2.502   3.811  2.8552 -1.1433 -2.2612
   54CHL1   H7B 3935   0.574   2.643   3.765 -0.9374  2.7562  2.1365
   54CHL1    C8 3936   0.400   2.720   3.830  0.6509  0.0118 -0.0279
   54CHL1    H8 3937   0.306   2.681   3.874  1.5621 -0.3942  1.6643
   54CHL1   C14 3938   0.481   2.763   3.963 -0.2945 -0.3191  0.7409
   54CHL1   H14 3939   0.583   2.787   3.926  0.2191 -2.4134  0.6804
   54CHL1   C15 3940   0.511   2.659   4.061  0.1826  0.0775 -0.4487
   54CHL1  H15A 3941   0.420   2.603   4.094  1.2837 -0.6265  1.6248
   54CHL1  H15B 3942   0.588   2.592   4.017  1.7179  1.0508  0.6504
   54CHL1   C16 3943   0.562   2.743   4.180 -0.3257 -0.1517  0.0697
   54CHL1  H16A 3944   0.500   2.719   4.269  1.4862  2.8984  2.3302
   54CHL1  H16B 3945   0.672   2.735   4.193 -0.0586  2.8366  0.2689
   54CHL1   C17 3946   0.541   2.892   4.139  0.0777  0.1129  0.1216
   54CHL1   H17 3947   0.632   2.930   4.088  0.5213 -1.3019 -0.1729
   54CHL1   C13 3948   0.433   2.896   4.036 -0.6439  0.5509 -0.6034
   54CHL1   C18 3949   0.295   2.874   4.102  0.1473 -0.2118  0.0399
   54CHL1  H18A 3950   0.214   2.858   4.028 -0.6860 -0.0580  0.9000
   54CHL1  H18B 3951   0.291   2.798   4.184 -1.4835  1.8633  2.0088
   54CHL1  H18C 3952   0.266   2.967   4.155  0.5683 -0.7115  1.1950
   54CHL1   C12 3953   0.419   3.010   3.928  0.1791  0.7068 -0.3674
   54CHL1  H12A 3954   0.373   3.097   3.980  0.5066  0.6787 -0.0326
   54CHL1  H12B 3955   0.518   3.047   3.896 -0.1887 -0.2883 -2.9512
   54CHL1   C11 3956   0.333   2.974   3.806 -0.0839  0.4736 -0.1931
   54CHL1  H11A 3957   0.227   2.968   3.839  0.1394 -1.2541  0.3062
   54CHL1  H11B 3958   0.330   3.057   3.732  0.2143 -1.1532 -2.1180
   54CHL1    C9 3959   0.373   2.836   3.737 -0.1088  0.3249  0.0247
   54CHL1    H9 3960   0.479   2.844   3.705  1.2102 -1.0651  3.5858
   54CHL1   C10 3961   0.293   2.803   3.611  0.3267 -0.2584 -0.2095
   54CHL1   C19 3962   0.147   2.778   3.650  0.5292  0.0396 -0.7046
   54CHL1  H19A 3963   0.103   2.874   3.683  0.5289 -0.7157  1.6982
   54CHL1  H19B 3964   0.084   2.743   3.565 -0.8073 -0.8755  0.6179
   54CHL1  H19C 3965   0.127   2.707   3.733  0.0742 -0.5538 -1.2998
   54CHL1    C1 3966   0.295   2.913   3.506  0.9326 -0.2070 -0.5441
   54CHL1   H1A 3967   0.247   3.009   3.536  1.3943 -0.6305  1.7762
   54CHL1   H1B 3968   0.403   2.934   3.495  0.4196  4.0294  0.6205
   54CHL1    C2 3969   0.250   2.877   3.368 -0.2666  0.6842  0.5676
   54CHL1   H2A 3970   0.261   2.971   3.309 -0.6423  0.0758 -0.4965
   54CHL1   H2B 3971   0.143   2.850   3.360 -0.2724  1.2064 -1.9239
   54CHL1   C20 3972   0.522   2.977   4.266 -0.3023  0.0803 -0.0933
   54CHL1   H20 3973   0.427   2.938   4.309  0.8059 -0.6954  1.8261
   54CHL1   C21 3974   0.518   3.124   4.235  0.4391 -0.3453 -0.8652
   54CHL1  H21A 3975   0.504   3.182   4.330  0.0837 -2.1248  0.2109
   54CHL1  H21B 3976   0.433   3.152   4.170  0.4762 -2.0731 -1.7013
   54CHL1  H21C 3977   0.608   3.158   4.180  1.2646 -1.2596 -0.1150
   54CHL1   C22 3978   0.639   2.948   4.362 -0.0531 -0.2904 -0.1914
   54CHL1  H22A 3979   0.645   2.841   4.391 -0.5269 -0.9632 -2.3983
   54CHL1  H22B 3980   0.729   2.966   4.300 -0.0572  2.8534  0.5335
   54CHL1   C23 3981   0.645   3.024   4.495  0.1001 -0.5852  0.1465
   54CHL1  H23A 3982   0.641   3.135   4.491 -1.7768 -0.6630 -1.5632
   54CHL1  H23B 3983   0.561   2.993   4.560 -0.9537  0.9423 -0.4246
   54CHL1   C24 3984   0.767   2.973   4.574  0.5528  0.2036 -0.2656
   54CHL1  H24A 3985   0.762   2.863   4.588 -1.1637  0.5052  2.1367
   54CHL1  H24B 3986   0.854   2.981   4.506  1.6303  0.9953  1.1490
   54CHL1   C25 3987   0.791   3.031   4.711  0.0279 -0.4586  0.0562
   54CHL1   H25 3988   0.813   3.140   4.700 -2.8370  0.0256 -1.6422
   54CHL1   C26 3989   0.671   3.027   4.805  0.0661 -0.8686 -0.5449
   54CHL1  H26A 3990   0.690   3.074   4.905  1.6693 -1.5564 -0.4925
   54CHL1  H26B 3991   0.582   3.086   4.774  0.8063  1.0038  0.6509
   54CHL1  H26C 3992   0.629   2.925   4.811 -1.1260 -0.4169 -0.9163
   54CHL1   C27 3993   0.923   2.966   4.765  0.3207 -0.2125  0.2515
   54CHL1  H27A 3994   0.944   2.989   4.872 -1.8219 -3.0954  1.4444
   54CHL1  H27B 3995   0.925   2.857   4.743 -0.1712  0.0616 -1.3155
   54CHL1  H27C 3996   1.009   3.004   4.706  0.3492  0.9582  1.0235
   55CHL1    C3 3997   3.473   3.038   2.916 -0.1020 -0.0624  0.0573
   55CHL1    H3 3998   3.509   2.936   2.943  1.4716  0.6562  0.8421
   55CHL1    O3 3999   3.423   3.048   2.784 -0.3598 -0.3982 -0.2621
   55CHL1   H3' 4000   3.339   3.090   2.800 -0.3987 -0.0802 -1.2228
   55CHL1    C4 4001   3.355   3.062   3.019  0.3850  0.6350  0.7924
   55CHL1   H4A 4002   3.306   3.151   2.974 -0.7977 -0.3341  0.1264
   55CHL1   H4B 4003   3.291   2.974   3.000  1.0583  0.6608 -2.0584
   55CHL1    C5 4004   3.398   3.082   3.164 -0.2320 -0.1323 -0.0657
   55CHL1    C6 4005   3.342   3.010   3.260 -0.5359  0.4724  0.4392
   55CHL1    H6 4006   3.263   2.935   3.243 -0.2602  0.2356  0.1957
   55CHL1    C7 4007   3.368   3.008   3.409 -0.2009  0.6672 -0.2632
   55CHL1   H7A 4008   3.277   3.003   3.472  0.4236 -1.7055  0.5620
   55CHL1   H7B 4009   3.441   2.925   3.420  0.3855  1.0565 -1.0738
   55CHL1    C8 4010   3.446   3.136   3.445  0.0170 -0.3009 -0.4289
   55CHL1    H8 4011   3.365   3.212   3.453 -1.3673 -1.9554  3.2471
   55CHL1   C14 4012   3.510   3.120   3.583  0.8736 -0.2199  0.0198
   55CHL1   H14 4013   3.570   3.026   3.576 -1.1667 -1.7108  1.2364
   55CHL1   C15 4014   3.403   3.095   3.692 -0.3398 -0.6508 -0.2679
   55CHL1  H15A 4015   3.331   3.179   3.675  0.4310 -0.5178 -3.7246
   55CHL1  H15B 4016   3.347   3.000   3.690 -0.1333 -0.7642 -1.4253
   55CHL1   C16 4017   3.493   3.110   3.817 -0.5885  0.0585 -0.4348
   55CHL1  H16A 4018   3.439   3.179   3.885 -0.4359  0.5948 -0.8564
   55CHL1  H16B 4019   3.510   3.011   3.865  0.4228  0.2338 -0.4132
   55CHL1   C17 4020   3.631   3.171   3.772 -0.1718  0.8069 -0.0690
   55CHL1   H17 4021   3.692   3.081   3.753 -0.5364  0.5067  0.1680
   55CHL1   C13 4022   3.600   3.231   3.626 -0.4434 -0.1602 -0.1340
   55CHL1   C18 4023   3.528   3.362   3.633 -0.3026 -0.8180 -0.1169
   55CHL1  H18A 4024   3.466   3.370   3.725 -0.8496  0.5054 -0.5756
   55CHL1  H18B 4025   3.592   3.453   3.633  0.2467 -1.2001 -0.6621
   55CHL1  H18C 4026   3.453   3.385   3.554 -0.6990 -0.2153  0.4256
   55CHL1   C12 4027   3.711   3.244   3.520 -0.3757  0.0503 -0.1807
   55CHL1  H12A 4028   3.775   3.331   3.547  2.7300 -1.6858 -1.4788
   55CHL1  H12B 4029   3.781   3.158   3.525 -0.4200  0.0477  0.3929
   55CHL1   C11 4030   3.657   3.265   3.380  0.2717 -0.0971  0.3153
   55CHL1  H11A 4031   3.608   3.363   3.367 -0.7610 -0.5674  0.5370
   55CHL1  H11B 4032   3.749   3.252   3.319  0.8382 -1.0500  1.3313
   55CHL1    C9 4033   3.557   3.159   3.332  0.8768  0.4721  0.4198
   55CHL1    H9 4034   3.617   3.066   3.335 -0.2077 -0.2793 -0.2243
   55CHL1   C10 4035   3.509   3.182   3.189  0.1584 -0.1817 -0.0471
   55CHL1   C19 4036   3.452   3.326   3.166 -0.2879  0.2775 -0.6502
   55CHL1  H19A 4037   3.528   3.404   3.188  0.2019 -0.2712 -0.3670
   55CHL1  H19B 4038   3.395   3.350   3.073 -1.1395  1.7823  0.2295
   55CHL1  H19C 4039   3.376   3.342   3.244  1.1529  0.3453  0.7959
   55CHL1    C1 4040   3.622   3.155   3.085 -0.2758 -0.6388  0.2429
   55CHL1   H1A 4041   3.697   3.232   3.110  0.1554 -1.7408  2.7130
   55CHL1   H1B 4042   3.685   3.065   3.104  1.5636  0.5717  0.1153
   55CHL1    C2 4043   3.575   3.152   2.944 -0.2649  0.4236 -0.1570
   55CHL1   H2A 4044   3.664   3.141   2.880  0.3522  1.9375  0.3811
   55CHL1   H2B 4045   3.530   3.251   2.917  0.1901  0.4484 -0.8381
   55CHL1   C20 4046   3.685   3.260   3.884  0.6557  0.2331  0.8522
   55CHL1   H20 4047   3.601   3.324   3.919  1.1397  1.7348 -0.5827
   55CHL1   C21 4048   3.797   3.351   3.825  0.3315  0.1930 -0.1279
   55CHL1  H21A 4049   3.748   3.444   3.788  0.9037  0.3207 -0.5711
   55CHL1  H21B 4050   3.854   3.301   3.744 -0.1551 -1.4354  0.4888
   55CHL1  H21C 4051   3.868   3.374   3.907  0.1374 -2.2206  0.8127
   55CHL1   C22 4052   3.731   3.176   4.002 -0.1618 -0.5375 -0.8938
   55CHL1  H22A 4053   3.648   3.115   4.044 -0.2977  0.7887  0.8503
   55CHL1  H22B 4054   3.813   3.110   3.966  0.6697 -0.2284  0.3826
   55CHL1   C23 4055   3.780   3.262   4.126 -0.3909  1.2423  0.3268
   55CHL1  H23A 4056   3.890   3.278   4.123 -0.6545  3.1070 -0.9242
   55CHL1  H23B 4057   3.731   3.361   4.125 -0.7482  1.3480 -5.3480
   55CHL1   C24 4058   3.742   3.193   4.255 -0.6837  0.2717  0.2944
   55CHL1  H24A 4059   3.767   3.086   4.236  0.0509  0.8564 -2.5457
   55CHL1  H24B 4060   3.811   3.229   4.334  0.8709 -2.5275  0.3336
   55CHL1   C25 4061   3.597   3.202   4.300 -0.5443 -0.4422 -0.2608
   55CHL1   H25 4062   3.524   3.154   4.232 -0.5199  0.4455 -0.9311
   55CHL1   C26 4063   3.583   3.117   4.429 -0.2175  0.2920  0.1661
   55CHL1  H26A 4064   3.620   3.014   4.410 -0.1349  0.5155 -0.9789
   55CHL1  H26B 4065   3.650   3.157   4.508 -1.3933 -0.2419  1.4504
   55CHL1  H26C 4066   3.478   3.109   4.462 -1.6406  1.5822 -3.5218
   55CHL1   C27 4067   3.542   3.350   4.313  0.0415  0.9473  0.6558
   55CHL1  H27A 4068   3.525   3.399   4.215 -1.1005  2.5891  1.6392
   55CHL1  H27B 4069   3.447   3.348   4.370  0.2634  2.5027  1.1317
   55CHL1  H27C 4070   3.612   3.404   4.380 -0.7102  0.0235  2.2253
   56CHL1    C3 4071   4.557   3.451   3.406  0.2851  0.0694 -0.0793
   56CHL1    H3 4072   4.491   3.533   3.443 -3.8786 -1.9578 -2.3035
   56CHL1    O3 4073   4.543   3.451   3.267 -0.1337 -0.0667  0.9365
   56CHL1   H3' 4074   4.618   3.406   3.229 -1.4960 -0.0313 -2.1255
   56CHL1    C4 4075   4.699   3.487   3.443 -0.1212 -0.0056 -0.2870
   56CHL1   H4A 4076   4.769   3.419   3.390  1.0605  1.1905 -0.3078
   56CHL1   H4B 4077   4.716   3.590   3.407  1.6136  0.1913  0.9756
   56CHL1    C5 4078   4.726   3.479   3.595 -0.8437 -0.3645  0.2440
   56CHL1    C6 4079   4.776   3.579   3.669 -0.0311 -0.6340  0.7131
   56CHL1    H6 4080   4.806   3.675   3.626  0.6986 -0.6730  1.1063
   56CHL1    C7 4081   4.791   3.569   3.819 -1.0067 -0.3268  0.0982
   56CHL1   H7A 4082   4.880   3.619   3.863 -1.6480  1.1917 -0.2345
   56CHL1   H7B 4083   4.704   3.630   3.854 -2.4036 -2.1838  0.0180
   56CHL1    C8 4084   4.782   3.427   3.880 -0.1823  0.2256  0.5232
   56CHL1    H8 4085   4.872   3.368   3.850  0.1117  1.0468 -0.2195
   56CHL1   C14 4086   4.773   3.423   4.032  0.3015  0.1283 -0.1416
   56CHL1   H14 4087   4.674   3.466   4.058  0.2204 -0.8708  1.2839
   56CHL1   C15 4088   4.866   3.506   4.119 -0.5248 -0.8432  0.7169
   56CHL1  H15A 4089   4.973   3.500   4.088 -0.3239 -2.0000  1.5790
   56CHL1  H15B 4090   4.841   3.614   4.129 -2.2613 -1.0903 -0.4721
   56CHL1   C16 4091   4.860   3.439   4.260 -0.1782  0.0270  0.8375
   56CHL1  H16A 4092   4.965   3.412   4.280  0.5527  2.9350  1.3240
   56CHL1  H16B 4093   4.827   3.518   4.331 -4.9057 -0.2910 -0.6441
   56CHL1   C17 4094   4.754   3.327   4.251 -0.3940  0.1536  0.0283
   56CHL1   H17 4095   4.652   3.368   4.264 -1.8310 -2.5282 -1.7189
   56CHL1   C13 4096   4.762   3.292   4.100 -0.5867  0.4283 -0.1601
   56CHL1   C18 4097   4.891   3.202   4.066 -0.1378 -0.7751 -0.2253
   56CHL1  H18A 4098   4.908   3.118   4.137  0.4980  0.4331  1.0865
   56CHL1  H18B 4099   4.888   3.160   3.963  1.4441 -2.0775  0.2068
   56CHL1  H18C 4100   4.978   3.271   4.072  0.6559 -1.7180 -0.5928
   56CHL1   C12 4101   4.644   3.213   4.044 -0.1870 -0.5427  0.0369
   56CHL1  H12A 4102   4.639   3.106   4.075 -0.8190 -0.6128 -0.2957
   56CHL1  H12B 4103   4.549   3.253   4.086 -0.2641 -1.0683  0.3766
   56CHL1   C11 4104   4.640   3.217   3.891  0.2170  0.6838 -0.1975
   56CHL1  H11A 4105   4.718   3.147   3.855 -1.9144 -1.0431 -1.6990
   56CHL1  H11B 4106   4.544   3.166   3.873  0.7001 -0.5615  0.6325
   56CHL1    C9 4107   4.661   3.351   3.822  0.0783  1.1795  0.6380
   56CHL1    H9 4108   4.575   3.415   3.849 -2.1931 -0.7178 -1.5744
   56CHL1   C10 4109   4.663   3.359   3.667 -0.3793  0.9001 -0.0460
   56CHL1   C19 4110   4.761   3.249   3.624 -0.8412  0.3567 -0.4588
   56CHL1  H19A 4111   4.781   3.253   3.515  0.2265  0.2095 -0.2725
   56CHL1  H19B 4112   4.857   3.255   3.679 -0.8041  0.2501 -0.5113
   56CHL1  H19C 4113   4.723   3.147   3.650  3.5929 -1.2036  0.7547
   56CHL1    C1 4114   4.521   3.321   3.617 -0.0540 -0.0063  0.2171
   56CHL1   H1A 4115   4.483   3.229   3.665 -2.6363  0.5893 -0.4800
   56CHL1   H1B 4116   4.450   3.394   3.663 -0.7369 -0.9262  0.6509
   56CHL1    C2 4117   4.516   3.318   3.466  0.5047 -0.4401 -0.3762
   56CHL1   H2A 4118   4.410   3.297   3.439 -0.1308  3.2326 -1.2665
   56CHL1   H2B 4119   4.575   3.236   3.419 -1.0157 -0.8622 -1.6386
   56CHL1   C20 4120   4.772   3.215   4.352  0.0543 -0.7510 -0.2795
   56CHL1   H20 4121   4.882   3.202   4.353  0.5019  2.1791 -1.8244
   56CHL1   C21 4122   4.689   3.094   4.328 -0.2137 -0.1816  0.5231
   56CHL1  H21A 4123   4.596   3.126   4.276  0.8912  0.6628 -1.0011
   56CHL1  H21B 4124   4.663   3.052   4.428 -0.4404  0.7637  0.8746
   56CHL1  H21C 4125   4.733   3.014   4.264 -0.3401  0.2751 -0.1430
   56CHL1   C22 4126   4.740   3.250   4.500 -0.2197 -0.8810 -0.4584
   56CHL1  H22A 4127   4.781   3.170   4.565 -1.3896 -0.1204  1.2777
   56CHL1  H22B 4128   4.796   3.341   4.527 -2.6722  0.4478  0.4661
   56CHL1   C23 4129   4.588   3.278   4.529  0.6655  0.0539 -0.2117
   56CHL1  H23A 4130   4.569   3.370   4.468 -1.2963  0.7087  1.2582
   56CHL1  H23B 4131   4.509   3.204   4.505 -0.2668  0.9372  0.0408
   56CHL1   C24 4132   4.560   3.331   4.670  0.2749 -0.1052  0.2585
   56CHL1  H24A 4133   4.621   3.269   4.740  0.0198 -0.1185  0.4715
   56CHL1  H24B 4134   4.591   3.437   4.684  1.4132 -0.4354  0.3392
   56CHL1   C25 4135   4.416   3.304   4.710  0.2354 -0.3082  0.4300
   56CHL1   H25 4136   4.396   3.195   4.708 -3.1702  0.2466 -0.9482
   56CHL1   C26 4137   4.390   3.349   4.848  0.3436  1.0536  1.0796
   56CHL1  H26A 4138   4.469   3.306   4.913 -0.7734 -0.6089  1.3882
   56CHL1  H26B 4139   4.392   3.460   4.852 -2.8868  1.2446  0.4197
   56CHL1  H26C 4140   4.292   3.316   4.889  0.4402  0.0270  0.5126
   56CHL1   C27 4141   4.306   3.366   4.612  0.0390  0.0975  0.1475
   56CHL1  H27A 4142   4.214   3.304   4.616  1.7649 -2.5949  1.4375
   56CHL1  H27B 4143   4.291   3.473   4.641  0.8700  0.1147  0.5839
   56CHL1  H27C 4144   4.336   3.358   4.506 -2.0716 -1.4948 -0.3744
   57SAPC     N 4145   0.868   4.894   7.239  0.1920 -0.0130  0.2534
   57SAPC   C12 4146   0.857   5.038   7.290  0.0943 -1.2180  0.3909
   57SAPC  H12A 4147   0.936   5.095   7.243  1.2617 -2.2052  1.0997
   57SAPC  H12B 4148   0.890   5.036   7.393 -1.7919 -0.3672  1.0448
   57SAPC   C13 4149   0.869   4.900   7.088  0.5166 -0.6436  0.9133
   57SAPC  H13A 4150   0.861   4.799   7.051 -0.6650 -0.8824  1.7969
   57SAPC  H13B 4151   0.776   4.950   7.066  0.1793 -1.2207  1.0435
   57SAPC  H13C 4152   0.957   4.950   7.049  0.4113  0.1625  1.6863
   57SAPC   C14 4153   0.991   4.824   7.286  0.5789  0.2746  0.3412
   57SAPC  H14A 4154   1.073   4.893   7.277  1.0862 -0.2868  0.6279
   57SAPC  H14B 4155   0.968   4.794   7.387  1.3357 -2.7555 -0.2722
   57SAPC  H14C 4156   1.010   4.740   7.220 -0.5957  1.1908 -1.2383
   57SAPC   C15 4157   0.749   4.811   7.277  0.4290  1.1174  0.0064
   57SAPC  H15A 4158   0.785   4.710   7.266  0.4511  1.2021 -0.7818
   57SAPC  H15B 4159   0.728   4.828   7.381 -1.6129 -0.2723 -0.1298
   57SAPC  H15C 4160   0.653   4.828   7.230  1.0593  0.5675 -1.5615
   57SAPC   C11 4161   0.726   5.114   7.266  0.0235  0.4102 -0.5750
   57SAPC  H11A 4162   0.729   5.211   7.319 -0.9648  0.4110 -0.4902
   57SAPC  H11B 4163   0.644   5.050   7.305  0.6753  0.6370  1.2431
   57SAPC     P 4164   0.747   5.247   7.036  0.1360  0.2251 -0.2323
   57SAPC   O13 4165   0.766   5.372   7.114  0.9128 -0.0148  0.3233
   57SAPC   O14 4166   0.875   5.226   6.960  0.1869 -0.0284  0.1132
   57SAPC   O12 4167   0.711   5.124   7.121  0.0830  0.1587 -0.2055
   57SAPC   O11 4168   0.621   5.264   6.941  0.2493  0.0351  0.0847
   57SAPC    C1 4169   0.587   5.179   6.830 -0.1069  0.1291  0.0342
   57SAPC    HA 4170   0.638   5.081   6.841 -0.8838 -0.3577 -0.5729
   57SAPC    HB 4171   0.478   5.157   6.830  0.0687 -0.7943 -1.0113
   57SAPC    C2 4172   0.617   5.246   6.690 -0.5926  0.4311 -1.1335
   57SAPC    HS 4173   0.728   5.240   6.684 -0.5126  0.6420 -0.0985
   57SAPC   O21 4174   0.563   5.371   6.678 -0.3035  0.4664  1.1755
   57SAPC   C21 4175   0.638   5.473   6.707  0.0298  0.0328  0.6636
   57SAPC   O22 4176   0.757   5.465   6.735 -0.0439 -0.0677 -0.1776
   57SAPC   C22 4177   0.551   5.594   6.683  0.5133  0.0893 -0.2309
   57SAPC   H2R 4178   0.453   5.554   6.647  0.0281 -1.8524  2.8537
   57SAPC   H2S 4179   0.530   5.639   6.783  2.5308  0.4866  0.0570
   57SAPC    C3 4180   0.561   5.168   6.572  0.1416  0.0693  0.2716
   57SAPC    HX 4181   0.450   5.172   6.578  0.1875  0.6734  0.9149
   57SAPC    HY 4182   0.590   5.065   6.600 -1.6399 -0.4551  0.3188
   57SAPC   O31 4183   0.613   5.217   6.447 -0.7404  0.1724  0.5475
   57SAPC   C31 4184   0.661   5.118   6.364  0.0441 -0.6151 -0.3151
   57SAPC   O32 4185   0.633   5.002   6.368 -0.1081 -0.7062 -0.7672
   57SAPC   C32 4186   0.741   5.182   6.256  0.0102 -0.4803  0.0363
   57SAPC   H2X 4187   0.714   5.288   6.242 -1.0942 -0.8653 -0.9321
   57SAPC   H2Y 4188   0.713   5.126   6.164 -0.6243 -1.7354  0.9576
   57SAPC   C23 4189   0.614   5.702   6.592 -0.6250  0.7190 -0.6859
   57SAPC   H3R 4190   0.703   5.730   6.652 -0.8154 -1.7643  0.8748
   57SAPC   H3S 4191   0.548   5.791   6.578 -1.4159 -0.0208 -1.7367
   57SAPC   C24 4192   0.654   5.650   6.451 -0.5449 -0.8369 -0.5114
   57SAPC   H4R 4193   0.679   5.741   6.392  1.1852  0.3790  1.8947
   57SAPC   H4S 4194   0.554   5.617   6.415 -0.5458  0.4376 -1.7959
   57SAPC   C25 4195   0.762   5.547   6.433  0.1397 -0.0171  0.2614
   57SAPC   H5R 4196   0.744   5.446   6.473 -0.6261 -0.1176 -0.3152
   57SAPC   C26 4197   0.887   5.568   6.372  0.4332  0.5906 -0.8141
   57SAPC   H6R 4198   0.963   5.489   6.384 -0.4401 -0.5218 -2.2334
   57SAPC   C27 4199   0.939   5.694   6.307 -1.1851  0.0856  0.3437
   57SAPC   H7R 4200   1.006   5.755   6.372 -2.3385  0.0576  1.5996
   57SAPC   H7S 4201   0.853   5.758   6.280 -0.9558  0.2005 -0.1233
   57SAPC   C28 4202   1.019   5.664   6.182 -0.4345 -0.2490 -0.0627
   57SAPC   H8R 4203   1.129   5.670   6.187 -0.3809 -1.5230  0.9518
   57SAPC   C29 4204   0.975   5.613   6.071  0.4007  0.2895 -0.1291
   57SAPC   H9R 4205   1.045   5.609   5.987  1.5920  2.2410  0.7137
   57SAPC  C210 4206   0.828   5.594   6.045 -0.4647  0.0320 -0.0427
   57SAPC  H10R 4207   0.782   5.695   6.036 -0.6649 -0.1593 -1.4565
   57SAPC  H10S 4208   0.765   5.567   6.132  0.0524  1.8549  0.9585
   57SAPC  C211 4209   0.794   5.487   5.938  0.5054 -0.1135  0.0959
   57SAPC  H11R 4210   0.801   5.380   5.962  2.0576  0.2559  1.4918
   57SAPC  C212 4211   0.736   5.521   5.822 -0.8006  0.1964  0.1874
   57SAPC  H12R 4212   0.713   5.439   5.753  2.7916  0.9338 -2.1449
   57SAPC  C213 4213   0.722   5.659   5.762  0.0460  0.2560  0.2905
   57SAPC  H13R 4214   0.742   5.742   5.832  1.8193 -1.3674  1.8334
   57SAPC  H13S 4215   0.617   5.673   5.727 -0.7918 -2.0684  1.6111
   57SAPC  C214 4216   0.819   5.687   5.647 -0.7377  0.4018  0.3586
   57SAPC  H14R 4217   0.913   5.727   5.685  0.5278 -1.2076 -0.9172
   57SAPC  C215 4218   0.811   5.656   5.520  0.0899  0.2154 -0.0462
   57SAPC  H15R 4219   0.899   5.684   5.460 -0.1830  2.8544  0.6586
   57SAPC  C216 4220   0.692   5.590   5.445 -0.0147  0.0525  0.0849
   57SAPC  H16R 4221   0.601   5.578   5.507  0.4990 -0.5168  0.7460
   57SAPC  H16S 4222   0.726   5.492   5.406  1.3509  1.6652 -3.1583
   57SAPC  C217 4223   0.667   5.669   5.318 -0.3715  1.4445  0.1516
   57SAPC  H17R 4224   0.665   5.774   5.352  2.4121  1.3146  0.9887
   57SAPC  H17S 4225   0.573   5.634   5.271 -0.8539 -1.3153  2.7879
   57SAPC  C218 4226   0.786   5.664   5.218 -0.4056  0.0716 -0.4909
   57SAPC  H18R 4227   0.815   5.558   5.204 -0.9399 -0.1162 -0.2184
   57SAPC  H18S 4228   0.868   5.705   5.281 -0.2620 -0.6317 -0.2141
   57SAPC  C219 4229   0.769   5.734   5.084  0.1842 -0.3272  0.2376
   57SAPC  H19R 4230   0.733   5.656   5.014 -1.1779 -0.7676  1.3724
   57SAPC  H19S 4231   0.866   5.776   5.051  0.2682  1.8971  2.9341
   57SAPC  C220 4232   0.669   5.850   5.084  0.3261 -0.0280  0.2297
   57SAPC  H20R 4233   0.564   5.816   5.096  0.0533  0.7302  0.0840
   57SAPC  H20S 4234   0.676   5.908   4.989 -0.9897 -1.8294 -1.0340
   57SAPC  H20T 4235   0.693   5.920   5.168  2.1570  0.5742 -0.7335
   57SAPC   C33 4236   0.896   5.172   6.293  0.6230 -0.1284 -0.5141
   57SAPC   H3X 4237   0.920   5.071   6.333  0.4958  0.4442  1.0949
   57SAPC   H3Y 4238   0.917   5.236   6.381 -0.6025  0.7475 -0.8306
   57SAPC   C34 4239   0.999   5.220   6.186 -0.1426  0.2730  0.1842
   57SAPC   H4X 4240   1.104   5.221   6.222 -0.2805 -0.1715  0.6109
   57SAPC   H4Y 4241   0.967   5.320   6.152 -0.0890 -0.0917 -1.0084
   57SAPC   C35 4242   1.011   5.118   6.066 -0.1900  0.0322 -0.0849
   57SAPC   H5X 4243   0.914   5.084   6.025 -0.1629 -0.4846  0.2709
   57SAPC   H5Y 4244   1.060   5.025   6.101 -0.1062  0.0469 -0.1635
   57SAPC   C36 4245   1.097   5.178   5.959  0.3964 -0.0357 -0.1350
   57SAPC   H6X 4246   1.200   5.198   5.995  0.0282 -1.0636  1.5969
   57SAPC   H6Y 4247   1.058   5.279   5.929  0.4329 -0.6463 -2.4434
   57SAPC   C37 4248   1.107   5.081   5.842  0.3948  0.0544  0.4076
   57SAPC   H7X 4249   1.018   5.014   5.840  0.1647  0.3289 -1.8863
   57SAPC   H7Y 4250   1.185   5.004   5.861 -1.7003 -1.5572  3.4759
   57SAPC   C38 4251   1.132   5.134   5.702 -0.1043 -0.5844 -0.0262
   57SAPC   H8X 4252   1.211   5.212   5.698 -0.2269 -0.5259 -2.0113
   57SAPC   H8Y 4253   1.046   5.195   5.670  1.3089  1.1178 -0.7263
   57SAPC   C39 4254   1.179   5.022   5.607  0.2700  0.1310  0.1535
   57SAPC   H9X 4255   1.098   4.946   5.615  0.0713  0.4688  1.5838
   57SAPC   H9Y 4256   1.267   4.969   5.649  1.8559  1.0988 -1.7872
   57SAPC  C310 4257   1.210   5.057   5.463 -0.5597 -0.4139 -0.4858
   57SAPC  H10X 4258   1.253   4.970   5.407 -1.1738 -1.0793  0.0504
   57SAPC  H10Y 4259   1.290   5.134   5.469 -0.2832 -0.7678  0.7009
   57SAPC  C311 4260   1.090   5.129   5.393 -0.9663 -1.0373 -0.5155
   57SAPC  H11X 4261   1.057   5.224   5.440  0.4106 -0.5168 -0.5267
   57SAPC  H11Y 4262   0.997   5.069   5.398 -2.5512  1.2721 -0.6456
   57SAPC  C312 4263   1.119   5.175   5.244  0.5114 -0.1350  0.1877
   57SAPC  H12X 4264   1.127   5.083   5.182  1.0986  1.4287 -2.2005
   57SAPC  H12Y 4265   1.220   5.221   5.245  0.2610  0.4998 -1.2904
   57SAPC  C313 4266   0.999   5.263   5.193  0.7180  0.3481 -0.3708
   57SAPC  H13X 4267   1.008   5.372   5.211  1.6284  0.0159  1.3330
   57SAPC  H13Y 4268   0.902   5.226   5.234  0.7255 -0.4063 -1.0253
   57SAPC  C314 4269   0.967   5.249   5.044  0.3163  0.3233 -0.5043
   57SAPC  H14X 4270   0.957   5.140   5.023  2.8669 -0.0371 -0.0842
   57SAPC  H14Y 4271   1.054   5.290   4.989  0.1993 -0.3914 -1.2413
   57SAPC  C315 4272   0.836   5.311   4.998  0.5828 -0.4170 -0.2294
   57SAPC  H15X 4273   0.836   5.422   5.003 -2.9519 -0.2919 -0.2590
   57SAPC  H15Y 4274   0.759   5.278   5.071  1.2940 -1.5846  0.0112
   57SAPC  C316 4275   0.783   5.260   4.860 -0.1488  0.1820  0.0769
   57SAPC  H16X 4276   0.677   5.292   4.844 -0.3283 -0.1804  0.5257
   57SAPC  H16Y 4277   0.781   5.149   4.864 -0.6437  0.1384 -0.9888
   57SAPC  C317 4278   0.869   5.301   4.743  0.1079  0.5587  0.3437
   57SAPC  H17X 4279   0.849   5.227   4.663 -1.0582  1.2046  0.0161
   57SAPC  H17Y 4280   0.979   5.290   4.760  0.3716 -0.0077 -1.4873
   57SAPC  C318 4281   0.835   5.448   4.702  0.1989 -0.6669 -0.0063
   57SAPC  H18X 4282   0.909   5.512   4.755 -1.1505 -0.3354  1.5287
   57SAPC  H18Y 4283   0.736   5.469   4.748  0.2015 -4.7826  2.3049
   57SAPC  H18Z 4284   0.844   5.464   4.592 -1.2480  3.2009  0.2821
   58SAPC     N 4285   3.541   5.897   6.964  0.1331 -0.2645  0.4568
   58SAPC   C12 4286   3.603   5.913   6.831 -0.1996 -0.1122  0.6125
   58SAPC  H12A 4287   3.521   5.921   6.762 -1.3380 -1.3617  1.7642
   58SAPC  H12B 4288   3.661   5.825   6.807  0.8203  0.7533 -0.2004
   58SAPC   C13 4289   3.449   5.780   6.951 -0.3807  1.1190  0.6418
   58SAPC  H13A 4290   3.510   5.691   6.944 -0.1028  1.2734  1.0165
   58SAPC  H13B 4291   3.387   5.769   7.039  0.1168  1.0219  0.9862
   58SAPC  H13C 4292   3.390   5.783   6.861 -0.2879 -1.3345  0.4370
   58SAPC   C14 4293   3.644   5.871   7.072 -0.0329  0.2724 -0.1417
   58SAPC  H14A 4294   3.702   5.782   7.051  0.5283  1.0358 -2.0977
   58SAPC  H14B 4295   3.719   5.948   7.083  0.2413 -0.3609  3.6924
   58SAPC  H14C 4296   3.600   5.855   7.169  0.2433  2.2936  0.3480
   58SAPC   C15 4297   3.452   6.009   7.007  0.3527  0.8207 -0.2346
   58SAPC  H15A 4298   3.504   6.100   7.034 -0.4663  1.1664  0.2156
   58SAPC  H15B 4299   3.395   6.032   6.918 -0.5062  1.5365  0.4825
   58SAPC  H15C 4300   3.381   5.976   7.081  0.3023 -0.3667 -0.7969
   58SAPC   C11 4301   3.703   6.033   6.819 -0.1201 -0.1914  0.3822
   58SAPC  H11A 4302   3.669   6.132   6.855  1.2857  2.3218 -4.3697
   58SAPC  H11B 4303   3.712   6.062   6.712  1.7378  0.9856  0.7963
   58SAPC     P 4304   3.917   5.900   6.803 -0.0960 -0.2093 -0.0400
   58SAPC   O13 4305   4.034   5.888   6.888 -0.0322 -0.2402 -0.1854
   58SAPC   O14 4306   3.842   5.777   6.773 -0.6988 -0.0022 -0.0740
   58SAPC   O12 4307   3.830   6.009   6.881 -0.3722 -0.4310 -0.2288
   58SAPC   O11 4308   3.952   5.963   6.666 -0.3733 -0.0130 -0.0849
   58SAPC    C1 4309   4.064   6.047   6.643 -0.1166  0.1708 -1.1734
   58SAPC    HA 4310   4.030   6.149   6.616  1.5578  1.7084  2.0198
   58SAPC    HB 4311   4.124   6.059   6.736 -0.3394  1.3558 -1.1648
   58SAPC    C2 4312   4.148   5.995   6.531  0.3551  0.4844 -0.0567
   58SAPC    HS 4313   4.169   5.887   6.552 -1.1983 -0.4769 -2.9513
   58SAPC   O21 4314   4.277   6.067   6.531  0.1852  0.1955 -0.1570
   58SAPC   C21 4315   4.378   6.002   6.486 -0.0472 -0.0297 -0.6912
   58SAPC   O22 4316   4.382   5.879   6.466  0.2410 -0.4189 -0.9968
   58SAPC   C22 4317   4.503   6.087   6.451 -0.0374 -0.1160  0.7583
   58SAPC   H2R 4318   4.539   6.152   6.534  0.7630 -0.7448  0.9175
   58SAPC   H2S 4319   4.589   6.024   6.420  1.0008  1.4246  0.4106
   58SAPC    C3 4320   4.076   5.996   6.391  0.8676 -0.2979  0.4122
   58SAPC    HX 4321   4.047   6.102   6.373 -1.2738 -1.0530 -1.0700
   58SAPC    HY 4322   3.979   5.942   6.399  0.1728  1.0254  1.6229
   58SAPC   O31 4323   4.158   5.949   6.285 -0.0316  0.2931 -0.8918
   58SAPC   C31 4324   4.157   5.814   6.258  0.4634  0.2730  0.2434
   58SAPC   O32 4325   4.085   5.739   6.325  0.1682 -0.2263 -1.1527
   58SAPC   C32 4326   4.230   5.764   6.130 -0.7913  0.3956 -0.1933
   58SAPC   H2X 4327   4.165   5.689   6.080  0.1423 -0.9889  0.6058
   58SAPC   H2Y 4328   4.321   5.707   6.159 -1.1384 -0.4143 -0.6803
   58SAPC   C23 4329   4.462   6.178   6.337  0.1422  0.4200 -0.2162
   58SAPC   H3R 4330   4.366   6.229   6.361 -0.9398 -2.2928  1.6627
   58SAPC   H3S 4331   4.459   6.118   6.244  0.9524 -1.7342  1.0734
   58SAPC   C24 4332   4.562   6.292   6.317  0.1211  0.5705  0.2546
   58SAPC   H4R 4333   4.583   6.347   6.411  0.7091  1.0306 -0.1382
   58SAPC   H4S 4334   4.520   6.353   6.234 -0.1828 -2.2657 -1.8551
   58SAPC   C25 4335   4.701   6.249   6.270  0.1331 -0.5651  0.4283
   58SAPC   H5R 4336   4.784   6.240   6.341  1.4812 -0.8271 -1.1064
   58SAPC   C26 4337   4.734   6.231   6.141 -0.6560 -0.5028  0.3339
   58SAPC   H6R 4338   4.837   6.195   6.125 -0.3682 -0.0713  1.1213
   58SAPC   C27 4339   4.635   6.230   6.027 -0.0963  0.0015 -0.5937
   58SAPC   H7R 4340   4.582   6.326   6.040 -1.4837 -0.6579 -1.2427
   58SAPC   H7S 4341   4.559   6.149   6.029 -1.0333  0.8516 -1.3196
   58SAPC   C28 4342   4.700   6.204   5.893 -0.4511  0.1434  0.0366
   58SAPC   H8R 4343   4.805   6.172   5.893  0.3153  2.3631  1.8645
   58SAPC   C29 4344   4.647   6.249   5.775  0.0741 -0.3195  0.0181
   58SAPC   H9R 4345   4.697   6.213   5.684  2.3756  0.1766  1.0330
   58SAPC  C210 4346   4.510   6.309   5.758  0.4769  0.1925  0.0438
   58SAPC  H10R 4347   4.504   6.417   5.783  1.9028 -0.2926  2.8055
   58SAPC  H10S 4348   4.440   6.259   5.829  4.0113 -2.0290  2.2646
   58SAPC  C211 4349   4.448   6.315   5.621  0.4526 -0.4345 -0.4486
   58SAPC  H11R 4350   4.389   6.223   5.605 -0.5489  0.2150 -0.5510
   58SAPC  C212 4351   4.461   6.406   5.523  0.5905 -0.5741  0.1443
   58SAPC  H12R 4352   4.420   6.383   5.423 -0.7015  0.2495  0.4610
   58SAPC  C213 4353   4.537   6.534   5.539 -0.8120  0.1643 -0.4120
   58SAPC  H13R 4354   4.599   6.547   5.447  0.9768 -2.1231  0.3566
   58SAPC  H13S 4355   4.610   6.519   5.621  0.2320 -0.2762 -1.3820
   58SAPC  C214 4356   4.448   6.654   5.580  0.0036  0.2796  0.9173
   58SAPC  H14R 4357   4.427   6.684   5.683  1.2934  0.5039  1.1385
   58SAPC  C215 4358   4.414   6.740   5.481  0.8382  0.1220 -0.3508
   58SAPC  H15R 4359   4.349   6.826   5.503  0.6968 -0.2099  0.5671
   58SAPC  C216 4360   4.447   6.735   5.331  0.4361 -0.4396  0.2302
   58SAPC  H16R 4361   4.480   6.633   5.301  0.5639 -1.0671  2.3465
   58SAPC  H16S 4362   4.523   6.809   5.301  2.4672 -2.8446 -0.9647
   58SAPC  C217 4363   4.317   6.760   5.251  0.3619  0.4535  0.0159
   58SAPC  H17R 4364   4.258   6.842   5.296 -2.8103 -2.1510  0.9124
   58SAPC  H17S 4365   4.260   6.666   5.259 -1.5464  1.5795  0.1599
   58SAPC  C218 4366   4.336   6.815   5.104 -0.1905 -0.0404 -0.9646
   58SAPC  H18R 4367   4.417   6.760   5.051  0.3494 -1.4825  1.2276
   58SAPC  H18S 4368   4.362   6.923   5.107  0.0647 -0.1086 -0.7273
   58SAPC  C219 4369   4.210   6.796   5.025  0.5509 -0.3837 -0.5712
   58SAPC  H19R 4370   4.130   6.849   5.081 -0.1075 -2.1330  0.2158
   58SAPC  H19S 4371   4.176   6.691   5.034  1.5790 -0.6218  0.9954
   58SAPC  C220 4372   4.219   6.837   4.875 -0.1336 -0.0494 -0.0154
   58SAPC  H20R 4373   4.198   6.946   4.873 -1.5014 -0.1514  2.8550
   58SAPC  H20S 4374   4.152   6.777   4.811  0.3180  0.2511 -0.7854
   58SAPC  H20T 4375   4.322   6.812   4.840  0.4050  0.8763  0.8400
   58SAPC   C33 4376   4.262   5.887   6.040  0.9130 -0.7058 -0.6974
   58SAPC   H3X 4377   4.340   5.950   6.088  1.8399 -1.8362 -0.6795
   58SAPC   H3Y 4378   4.171   5.945   6.016 -0.6598 -3.2784 -1.3777
   58SAPC   C34 4379   4.318   5.827   5.902  0.2858 -0.3334 -0.0590
   58SAPC   H4X 4380   4.253   5.752   5.853 -0.5832  0.9894 -1.0093
   58SAPC   H4Y 4381   4.415   5.774   5.911 -0.6906 -2.3395 -0.8600
   58SAPC   C35 4382   4.343   5.940   5.797  0.0152 -0.6986 -0.5336
   58SAPC   H5X 4383   4.426   6.000   5.840 -0.7984 -0.2249  0.4401
   58SAPC   H5Y 4384   4.251   6.001   5.779  0.3457 -0.4617 -1.5150
   58SAPC   C36 4385   4.398   5.888   5.659 -0.4991  0.0236 -0.1318
   58SAPC   H6X 4386   4.460   5.797   5.668  1.5556  1.3458 -0.4027
   58SAPC   H6Y 4387   4.469   5.965   5.622  1.4692 -2.1742 -1.1121
   58SAPC   C37 4388   4.285   5.860   5.553 -0.1659 -0.0210  0.6644
   58SAPC   H7X 4389   4.230   5.951   5.520  1.2782 -0.0128 -1.9311
   58SAPC   H7Y 4390   4.218   5.788   5.604  2.0358 -0.2770  3.4339
   58SAPC   C38 4391   4.339   5.789   5.427  0.5866  0.0706  0.0808
   58SAPC   H8X 4392   4.250   5.754   5.370 -1.6527  1.8614  2.2860
   58SAPC   H8Y 4393   4.395   5.699   5.463 -1.2342 -0.8050  0.8583
   58SAPC   C39 4394   4.433   5.877   5.340 -0.2951  0.1500 -0.0072
   58SAPC   H9X 4395   4.529   5.901   5.391  0.4661  1.6752 -2.0610
   58SAPC   H9Y 4396   4.374   5.971   5.329  2.5641  2.2249  1.0752
   58SAPC  C310 4397   4.472   5.825   5.206 -0.7129  0.3129  0.2256
   58SAPC  H10X 4398   4.380   5.808   5.145 -0.6022 -0.8640  0.3508
   58SAPC  H10Y 4399   4.510   5.726   5.241 -4.1353 -0.1527  3.2874
   58SAPC  C311 4400   4.581   5.910   5.125  0.4842 -0.1333 -0.3822
   58SAPC  H11X 4401   4.675   5.916   5.183 -0.3671  1.8124  0.8887
   58SAPC  H11Y 4402   4.541   6.012   5.111 -0.4450 -0.5592 -0.9331
   58SAPC  C312 4403   4.603   5.855   4.990  0.5849  0.2968 -0.0620
   58SAPC  H12X 4404   4.506   5.864   4.937 -1.9044 -2.4638  3.5321
   58SAPC  H12Y 4405   4.643   5.752   5.002  0.7096  0.3873  0.3236
   58SAPC  C313 4406   4.699   5.929   4.907 -0.5234 -0.0938 -0.3396
   58SAPC  H13X 4407   4.752   5.868   4.831  0.9368  2.0466 -1.1230
   58SAPC  H13Y 4408   4.771   5.978   4.976 -0.3981 -0.1419 -0.4345
   58SAPC  C314 4409   4.637   6.035   4.816 -0.3251  0.5678 -0.1858
   58SAPC  H14X 4410   4.556   6.083   4.874 -1.7507  0.8868 -2.3177
   58SAPC  H14Y 4411   4.583   5.981   4.735 -2.2663 -0.4090  1.6772
   58SAPC  C315 4412   4.743   6.138   4.770  0.1767  0.6862  0.0085
   58SAPC  H15X 4413   4.777   6.179   4.868 -1.1133  1.8334  0.0078
   58SAPC  H15Y 4414   4.683   6.218   4.721 -0.6510  0.0923  0.0323
   58SAPC  C316 4415   4.855   6.083   4.673  0.4352  0.5705  0.5815
   58SAPC  H16X 4416   4.910   6.000   4.722  0.5594  1.5273  2.1470
   58SAPC  H16Y 4417   4.919   6.171   4.647  1.0004 -0.1772 -0.6614
   58SAPC  C317 4418   4.793   6.023   4.535  0.1110 -0.1636  0.6711
   58SAPC  H17X 4419   4.740   5.928   4.555  0.9466 -0.9264 -0.6226
   58SAPC  H17Y 4420   4.875   5.985   4.471  2.2510 -1.2334  3.8240
   58SAPC  C318 4421   4.690   6.115   4.462 -0.1006  0.3173  0.4288
   58SAPC  H18X 4422   4.594   6.113   4.519 -0.5684  0.3732 -0.3441
   58SAPC  H18Y 4423   4.669   6.071   4.362 -2.3386  0.7531  0.6542
   58SAPC  H18Z 4424   4.723   6.221   4.462 -0.0047  0.2869 -0.1215
   59SAPC     N 4425   1.845   2.691   7.707 -0.2674 -0.0439  0.4132
   59SAPC   C12 4426   1.804   2.718   7.562 -0.9422 -0.4893 -0.2003
   59SAPC  H12A 4427   1.753   2.813   7.555 -1.1695 -0.5334  0.7050
   59SAPC  H12B 4428   1.725   2.646   7.546 -1.8082  0.6653 -1.2924
   59SAPC   C13 4429   1.910   2.821   7.765  0.2596 -0.3931 -0.4738
   59SAPC  H13A 4430   1.996   2.837   7.702 -0.6147  1.5314 -1.2375
   59SAPC  H13B 4431   1.853   2.913   7.760 -0.0083 -0.5719 -0.7798
   59SAPC  H13C 4432   1.950   2.800   7.863  0.5957 -1.9825 -0.9250
   59SAPC   C14 4433   1.721   2.664   7.789  0.0707  0.8262 -0.4959
   59SAPC  H14A 4434   1.739   2.633   7.891  0.6858  2.6811  0.0091
   59SAPC  H14B 4435   1.669   2.758   7.788  0.1856  0.8876 -0.7089
   59SAPC  H14C 4436   1.664   2.579   7.756 -0.4647 -0.1625  2.6615
   59SAPC   C15 4437   1.932   2.571   7.722 -0.6347 -0.0112 -0.1397
   59SAPC  H15A 4438   2.021   2.575   7.661 -1.2093  1.2482 -0.9258
   59SAPC  H15B 4439   1.966   2.571   7.825 -1.6432 -2.0180  0.2270
   59SAPC  H15C 4440   1.893   2.474   7.697  2.1758 -1.1133 -0.7222
   59SAPC   C11 4441   1.910   2.710   7.455  0.4430 -0.0286 -0.0789
   59SAPC  H11A 4442   1.866   2.713   7.353  0.2043  1.5565  0.0501
   59SAPC  H11B 4443   1.964   2.613   7.452  0.3996 -0.2579  3.0229
   59SAPC     P 4444   1.988   2.940   7.392 -0.2720 -0.2629  0.1371
   59SAPC   O13 4445   1.849   2.965   7.344  0.3837 -0.1952 -0.5171
   59SAPC   O14 4446   2.062   3.040   7.466  0.0998  0.2051  0.4269
   59SAPC   O12 4447   2.011   2.803   7.465 -0.4189 -0.6939 -0.4813
   59SAPC   O11 4448   2.078   2.918   7.271 -0.6595 -0.3469  0.5499
   59SAPC    C1 4449   2.217   2.891   7.280 -0.0692  0.1233  0.4787
   59SAPC    HA 4450   2.266   2.984   7.245 -1.1198  0.3299 -0.4724
   59SAPC    HB 4451   2.261   2.879   7.382  1.2511 -0.6186 -0.1554
   59SAPC    C2 4452   2.267   2.759   7.207  0.1781 -0.2047  0.1267
   59SAPC    HS 4453   2.374   2.754   7.235 -0.1593  0.8593  1.7729
   59SAPC   O21 4454   2.248   2.770   7.065  0.2128  0.0455 -0.0002
   59SAPC   C21 4455   2.314   2.859   7.003 -0.4710  0.0769 -0.3085
   59SAPC   O22 4456   2.395   2.937   7.050 -0.2493  0.2419  0.2005
   59SAPC   C22 4457   2.270   2.863   6.856  0.0531  0.1196  0.2978
   59SAPC   H2R 4458   2.336   2.791   6.802 -0.8531 -0.1655 -0.4563
   59SAPC   H2S 4459   2.169   2.817   6.850  0.2073 -0.7454  2.9755
   59SAPC    C3 4460   2.201   2.636   7.261 -0.1363 -0.8857 -0.5935
   59SAPC    HX 4461   2.092   2.647   7.276 -0.1580  1.0688 -1.8814
   59SAPC    HY 4462   2.248   2.609   7.358 -0.2928  0.3989 -0.1475
   59SAPC   O31 4463   2.222   2.526   7.164 -0.4049  0.1486  0.3831
   59SAPC   C31 4464   2.143   2.427   7.178  0.4350 -0.0128  0.1575
   59SAPC   O32 4465   2.074   2.393   7.277  1.1347  0.1306 -0.3736
   59SAPC   C32 4466   2.160   2.337   7.057  0.0087 -0.1343  0.4731
   59SAPC   H2X 4467   2.129   2.236   7.090 -2.2896  0.1248 -0.7105
   59SAPC   H2Y 4468   2.269   2.342   7.032 -0.0230 -0.7836  0.2061
   59SAPC   C23 4469   2.278   3.006   6.792 -0.0783 -0.2649  0.1793
   59SAPC   H3R 4470   2.372   3.061   6.814 -0.3830  1.0347 -1.5545
   59SAPC   H3S 4471   2.189   3.051   6.842 -0.6211 -2.7048  1.6033
   59SAPC   C24 4472   2.259   3.001   6.638 -0.2909  0.3485  0.2568
   59SAPC   H4R 4473   2.346   2.942   6.602 -0.0192 -0.6105  2.3325
   59SAPC   H4S 4474   2.275   3.104   6.601 -0.0287  1.3679  2.9492
   59SAPC   C25 4475   2.133   2.937   6.584  0.7633  0.0786 -0.3194
   59SAPC   H5R 4476   2.081   2.853   6.632 -1.3556  0.7436 -1.3415
   59SAPC   C26 4477   2.076   2.976   6.470  0.1379  0.0360  0.2488
   59SAPC   H6R 4478   1.984   2.928   6.434  0.0863  0.0156  0.4095
   59SAPC   C27 4479   2.149   3.071   6.379  0.8939  0.5003  0.9708
   59SAPC   H7R 4480   2.254   3.043   6.358  0.6956  0.2731  0.2495
   59SAPC   H7S 4481   2.136   3.171   6.426 -2.3433  0.4649  0.4019
   59SAPC   C28 4482   2.086   3.077   6.241  0.3621 -0.2082 -0.0138
   59SAPC   H8R 4483   2.009   3.155   6.229 -0.6066 -0.8868  1.4648
   59SAPC   C29 4484   2.119   3.002   6.136 -0.0281 -0.4046  0.0952
   59SAPC   H9R 4485   2.058   3.023   6.047 -1.1593  2.5050  1.4460
   59SAPC  C210 4486   2.232   2.904   6.133  0.4178  0.2719 -0.0440
   59SAPC  H10R 4487   2.278   2.897   6.233  0.9850  2.7968 -0.0687
   59SAPC  H10S 4488   2.321   2.950   6.086 -0.0691  1.7597  0.4335
   59SAPC  C211 4489   2.199   2.769   6.068  0.0163  0.0291 -0.2886
   59SAPC  H11R 4490   2.197   2.688   6.142 -2.2417  1.4175  1.2890
   59SAPC  C212 4491   2.179   2.737   5.940 -0.0058 -0.5601  0.3180
   59SAPC  H12R 4492   2.168   2.631   5.911  1.6541 -1.0555  1.3422
   59SAPC  C213 4493   2.178   2.828   5.824  1.2984 -0.1498  0.5849
   59SAPC  H13R 4494   2.217   2.929   5.851 -2.2189  0.7797  2.8780
   59SAPC  H13S 4495   2.068   2.833   5.810  1.1755 -2.2466  0.5737
   59SAPC  C214 4496   2.233   2.771   5.695  0.4590  0.1464  0.6966
   59SAPC  H14R 4497   2.341   2.779   5.679  0.6671 -1.9791  0.7653
   59SAPC  C215 4498   2.162   2.700   5.606  0.8240  0.6537 -0.1962
   59SAPC  H15R 4499   2.224   2.662   5.524  0.5670  2.7412 -1.4423
   59SAPC  C216 4500   2.017   2.674   5.602  0.0451 -0.2992  0.3466
   59SAPC  H16R 4501   1.969   2.734   5.522  0.6198 -0.0051  0.2204
   59SAPC  H16S 4502   1.956   2.703   5.691 -0.6341  0.5298 -0.3595
   59SAPC  C217 4503   1.980   2.530   5.566 -0.1058 -0.0949  0.6798
   59SAPC  H17R 4504   1.871   2.520   5.583  0.2599 -1.9534  2.3048
   59SAPC  H17S 4505   2.042   2.464   5.630  1.8726  2.7087  1.8746
   59SAPC  C218 4506   2.004   2.494   5.417  0.2368 -0.1911  0.2193
   59SAPC  H18R 4507   2.115   2.497   5.409  0.1362  0.8619 -1.0766
   59SAPC  H18S 4508   1.971   2.573   5.346  1.0564 -0.4871 -0.5082
   59SAPC  C219 4509   1.942   2.364   5.377  0.4787  0.0887 -0.7466
   59SAPC  H19R 4510   1.927   2.353   5.267  0.3798  0.0238 -0.7264
   59SAPC  H19S 4511   1.841   2.361   5.423  0.0659  0.2300 -1.6210
   59SAPC  C220 4512   2.010   2.231   5.420  0.0769 -0.6406  0.4443
   59SAPC  H20R 4513   2.105   2.208   5.368  0.2310 -0.3540  0.5996
   59SAPC  H20S 4514   1.936   2.150   5.401 -1.0903  0.2497  1.0996
   59SAPC  H20T 4515   2.026   2.227   5.530 -2.5963 -0.1095  0.9208
   59SAPC   C33 4516   2.073   2.374   6.929 -0.8785 -0.4440 -0.3946
   59SAPC   H3X 4517   2.087   2.482   6.910  1.7512 -0.9286 -1.7852
   59SAPC   H3Y 4518   1.967   2.351   6.954 -1.1532 -0.8260 -1.8294
   59SAPC   C34 4519   2.129   2.299   6.802  0.1344  0.2259  0.0722
   59SAPC   H4X 4520   2.240   2.310   6.794  0.1041 -0.0227 -0.7738
   59SAPC   H4Y 4521   2.072   2.343   6.718  0.6919 -1.8346 -1.4361
   59SAPC   C35 4522   2.104   2.147   6.797  0.0551 -0.3116  0.0685
   59SAPC   H5X 4523   1.996   2.131   6.774  0.3344  0.2540 -1.8173
   59SAPC   H5Y 4524   2.115   2.102   6.898 -2.2345  0.4002  0.6836
   59SAPC   C36 4525   2.196   2.081   6.699 -0.3619 -0.0822 -0.6269
   59SAPC   H6X 4526   2.198   1.974   6.729 -1.5905  0.7822  3.0719
   59SAPC   H6Y 4527   2.299   2.119   6.719  1.1483 -3.5641 -1.0927
   59SAPC   C37 4528   2.151   2.087   6.551 -0.9953 -0.6028  0.1900
   59SAPC   H7X 4529   2.041   2.099   6.541 -1.2567 -1.2975  1.8782
   59SAPC   H7Y 4530   2.163   1.982   6.516 -1.5149 -0.6233  0.0746
   59SAPC   C38 4531   2.240   2.181   6.472 -0.5139  0.1897  1.0888
   59SAPC   H8X 4532   2.347   2.157   6.491  0.6743  3.1553 -1.1524
   59SAPC   H8Y 4533   2.225   2.282   6.515 -1.7246  0.5770 -0.1380
   59SAPC   C39 4534   2.217   2.175   6.324  0.2017  0.3172 -0.0188
   59SAPC   H9X 4535   2.113   2.206   6.299 -0.5765 -1.9412  0.1637
   59SAPC   H9Y 4536   2.221   2.068   6.293  0.6029  0.3810 -0.1910
   59SAPC  C310 4537   2.323   2.263   6.254  0.0369 -0.4485 -0.1872
   59SAPC  H10X 4538   2.418   2.217   6.289 -1.1383 -4.0741 -1.2482
   59SAPC  H10Y 4539   2.320   2.366   6.294  2.4977 -0.4169  0.0859
   59SAPC  C311 4540   2.319   2.243   6.101 -0.4996 -0.5657  0.0103
   59SAPC  H11X 4541   2.423   2.272   6.073 -0.5372  3.6207  3.2870
   59SAPC  H11Y 4542   2.252   2.323   6.066  0.3570  0.3925  0.4999
   59SAPC  C312 4543   2.272   2.108   6.047 -0.5694 -0.4534 -0.0647
   59SAPC  H12X 4544   2.165   2.097   6.073 -0.4767  2.3775  1.9970
   59SAPC  H12Y 4545   2.336   2.028   6.090  1.1287  0.7829 -0.1872
   59SAPC  C313 4546   2.281   2.124   5.898  0.4150  0.6107 -0.5737
   59SAPC  H13X 4547   2.379   2.163   5.864  0.0802  0.6184 -1.5469
   59SAPC  H13Y 4548   2.206   2.200   5.870 -0.0215  0.0295 -0.9965
   59SAPC  C314 4549   2.251   1.986   5.835  0.8718  0.6489 -0.4885
   59SAPC  H14X 4550   2.148   1.953   5.859  0.9223  2.3645  2.7278
   59SAPC  H14Y 4551   2.319   1.907   5.875 -0.0432  0.2277  0.2930
   59SAPC  C315 4552   2.276   1.992   5.686 -0.5422  0.5816 -0.0082
   59SAPC  H15X 4553   2.364   2.059   5.675  0.1918 -0.0364  1.6806
   59SAPC  H15Y 4554   2.191   2.035   5.629 -0.1347  1.0396 -0.2772
   59SAPC  C316 4555   2.324   1.858   5.632 -0.6791  0.0204 -0.0120
   59SAPC  H16X 4556   2.261   1.769   5.655 -3.8414  1.0816 -3.5011
   59SAPC  H16Y 4557   2.423   1.836   5.677 -0.3514 -2.4498 -1.6899
   59SAPC  C317 4558   2.352   1.856   5.474 -0.1953  0.0653  0.8765
   59SAPC  H17X 4559   2.425   1.939   5.460 -1.5259  0.9929 -0.8209
   59SAPC  H17Y 4560   2.262   1.883   5.417  0.2009 -0.5950 -0.0806
   59SAPC  C318 4561   2.423   1.729   5.420  0.1901 -0.5394  0.6311
   59SAPC  H18X 4562   2.464   1.753   5.319 -0.3557 -0.8542  0.3314
   59SAPC  H18Y 4563   2.347   1.649   5.417 -1.6338  1.1459  0.1998
   59SAPC  H18Z 4564   2.505   1.694   5.486 -0.8099 -0.2346  2.0802
   60SAPC     N 4565   4.959   5.121   6.891 -0.1080 -0.4658 -0.2870
   60SAPC   C12 4566   4.945   5.006   6.800 -0.4289 -0.3969  0.7975
   60SAPC  H12A 4567   4.873   4.936   6.841 -1.4407 -0.4122 -0.9036
   60SAPC  H12B 4568   5.043   4.967   6.778 -1.6478 -1.9656 -2.5669
   60SAPC   C13 4569   4.828   5.183   6.924  0.3320  0.2890 -0.1668
   60SAPC  H13A 4570   4.795   5.233   6.834 -0.0384  0.1806 -0.0936
   60SAPC  H13B 4571   4.757   5.108   6.955  1.8786 -1.3806 -0.4716
   60SAPC  H13C 4572   4.822   5.257   7.003  1.9257  1.2581 -0.9020
   60SAPC   C14 4573   5.009   5.085   7.027 -0.4897 -0.4785  0.1595
   60SAPC  H14A 4574   5.029   5.173   7.086 -0.7118  0.1585 -0.7080
   60SAPC  H14B 4575   4.946   5.011   7.074  1.0130 -1.2869  0.9995
   60SAPC  H14C 4576   5.102   5.030   7.021 -0.1168  0.2869 -4.7011
   60SAPC   C15 4577   5.058   5.218   6.834  0.7308  0.1008  0.0256
   60SAPC  H15A 4578   5.040   5.238   6.729  1.3758  0.7490  0.0366
   60SAPC  H15B 4579   5.049   5.314   6.882  0.4635  0.3672 -0.5372
   60SAPC  H15C 4580   5.159   5.180   6.839  0.4333 -1.0497 -1.6275
   60SAPC   C11 4581   4.891   5.034   6.655 -0.3921 -0.2491  0.0116
   60SAPC  H11A 4582   4.880   4.937   6.602 -0.0075 -1.1423  1.5026
   60SAPC  H11B 4583   4.966   5.098   6.604  1.1883 -3.3694 -1.8930
   60SAPC     P 4584   4.634   5.012   6.677  0.1330 -0.1438  0.0354
   60SAPC   O13 4585   4.642   4.920   6.795 -0.8640 -0.4405  0.0238
   60SAPC   O14 4586   4.515   5.108   6.681 -0.3665  0.3180 -0.7567
   60SAPC   O12 4587   4.763   5.099   6.656  0.4065 -0.0315 -0.7065
   60SAPC   O11 4588   4.641   4.919   6.552  0.3207 -0.5155 -0.3262
   60SAPC    C1 4589   4.622   4.977   6.431 -0.0483 -0.3642  0.2763
   60SAPC    HA 4590   4.661   5.081   6.421 -1.9571  0.3667  0.0358
   60SAPC    HB 4591   4.693   4.929   6.360 -0.3918  1.6478 -1.5593
   60SAPC    C2 4592   4.478   4.965   6.391  0.2334 -0.4459  0.2411
   60SAPC    HS 4593   4.414   4.986   6.480  0.4792  0.4369  0.2222
   60SAPC   O21 4594   4.453   4.828   6.353  0.3265 -0.3438 -0.7202
   60SAPC   C21 4595   4.324   4.800   6.340  0.3982 -1.4480  0.2366
   60SAPC   O22 4596   4.232   4.887   6.358 -0.4124 -0.1684 -0.1549
   60SAPC   C22 4597   4.309   4.656   6.304  0.1559  0.5521  0.0852
   60SAPC   H2R 4598   4.310   4.653   6.193 -0.0783  0.1819  0.0920
   60SAPC   H2S 4599   4.399   4.610   6.350 -0.2508 -0.0899  0.2542
   60SAPC    C3 4600   4.448   5.051   6.261 -0.5575 -0.1297 -0.5771
   60SAPC    HX 4601   4.481   5.152   6.292 -2.1404  0.8805 -1.9965
   60SAPC    HY 4602   4.339   5.057   6.240 -1.0308 -2.0239  1.0762
   60SAPC   O31 4603   4.537   5.020   6.150 -0.3758  0.2638  0.1114
   60SAPC   C31 4604   4.480   4.950   6.049 -0.5492 -0.0872 -0.8830
   60SAPC   O32 4605   4.366   4.909   6.048 -0.1875  0.0499  0.2277
   60SAPC   C32 4606   4.574   4.938   5.932  0.8057  0.3278  0.3630
   60SAPC   H2X 4607   4.682   4.934   5.959  0.8302  1.3925  0.4920
   60SAPC   H2Y 4608   4.547   5.033   5.881  0.3815 -0.6735 -1.3688
   60SAPC   C23 4609   4.176   4.597   6.372 -0.0469 -0.1867  0.6516
   60SAPC   H3R 4610   4.085   4.627   6.316 -0.5821 -2.9550 -0.1280
   60SAPC   H3S 4611   4.172   4.626   6.479  2.4675  0.8966  0.5261
   60SAPC   C24 4612   4.171   4.437   6.363 -0.1250  0.1588  0.1235
   60SAPC   H4R 4613   4.071   4.408   6.325  0.2820 -2.2128  0.6895
   60SAPC   H4S 4614   4.187   4.399   6.466  1.1332 -0.0993 -0.1590
   60SAPC   C25 4615   4.274   4.375   6.272  1.2553 -1.0258  0.1686
   60SAPC   H5R 4616   4.377   4.390   6.307  1.7119  1.9069 -2.0552
   60SAPC   C26 4617   4.252   4.304   6.164  0.5285 -0.5490  0.5262
   60SAPC   H6R 4618   4.335   4.261   6.106  0.4318  2.3643 -2.0466
   60SAPC   C27 4619   4.124   4.274   6.097  0.1990  0.2067 -0.2910
   60SAPC   H7R 4620   4.126   4.299   5.989 -2.7984 -0.9096 -0.6904
   60SAPC   H7S 4621   4.040   4.329   6.143  1.3786 -0.1749  2.5425
   60SAPC   C28 4622   4.086   4.136   6.121 -0.2524  0.5019  0.3653
   60SAPC   H8R 4623   4.055   4.112   6.224  1.0456 -2.6755  0.1303
   60SAPC   C29 4624   4.076   4.043   6.022 -0.7149  0.1542 -0.1741
   60SAPC   H9R 4625   4.031   3.946   6.051  0.3352 -0.3076 -0.0316
   60SAPC  C210 4626   4.085   4.073   5.874 -0.2956  0.1189  0.3410
   60SAPC  H10R 4627   4.189   4.075   5.833 -0.5338  3.0405 -0.3475
   60SAPC  H10S 4628   4.051   4.177   5.858  2.3827  1.0813  0.3921
   60SAPC  C211 4629   4.005   3.969   5.794  1.0048  0.2271  0.0414
   60SAPC  H11R 4630   3.917   3.923   5.840  1.6635 -0.3800  0.7385
   60SAPC  C212 4631   4.034   3.914   5.674 -0.4840  0.9961  0.0391
   60SAPC  H12R 4632   3.969   3.836   5.633 -1.8548  1.5088  1.1693
   60SAPC  C213 4633   4.155   3.939   5.585  0.1338  0.0979  0.3876
   60SAPC  H13R 4634   4.230   3.858   5.598 -0.0204  0.3225  3.3505
   60SAPC  H13S 4635   4.209   4.030   5.618 -1.7811  2.3389 -2.1241
   60SAPC  C214 4636   4.111   3.965   5.448 -0.9554 -0.1289  0.1189
   60SAPC  H14R 4637   4.050   4.056   5.437  0.9791  1.1021 -1.0668
   60SAPC  C215 4638   4.121   3.882   5.343 -0.1673  0.0690  0.1894
   60SAPC  H15R 4639   4.086   3.916   5.244  0.7017  1.2849  0.2781
   60SAPC  C216 4640   4.186   3.741   5.347 -0.3673 -0.0495  0.3389
   60SAPC  H16R 4641   4.113   3.658   5.338 -1.0026  0.2551  2.2432
   60SAPC  H16S 4642   4.252   3.729   5.435  0.2460  1.5123  0.1249
   60SAPC  C217 4643   4.281   3.720   5.228 -0.1484 -0.2339  0.2699
   60SAPC  H17R 4644   4.313   3.614   5.220  0.1735 -0.0162 -3.0283
   60SAPC  H17S 4645   4.370   3.786   5.240 -1.3855  1.1261  2.6839
   60SAPC  C218 4646   4.229   3.754   5.087  0.1706  0.7761 -0.4756
   60SAPC  H18R 4647   4.194   3.859   5.075 -0.9608  0.7916  2.3380
   60SAPC  H18S 4648   4.139   3.691   5.075  1.5902 -1.8654  1.6986
   60SAPC  C219 4649   4.337   3.723   4.988 -0.7334 -0.0364 -0.2937
   60SAPC  H19R 4650   4.376   3.622   5.008 -0.9201  0.1514  1.0783
   60SAPC  H19S 4651   4.419   3.795   5.008  0.9641 -1.7367 -0.9100
   60SAPC  C220 4652   4.289   3.723   4.842  0.1197 -0.8197  0.3944
   60SAPC  H20R 4653   4.215   3.801   4.817  0.1223 -0.9726 -0.1046
   60SAPC  H20S 4654   4.252   3.619   4.826 -1.7251 -0.1949  0.3644
   60SAPC  H20T 4655   4.386   3.748   4.795  0.8504 -0.7506  1.8644
   60SAPC   C33 4656   4.544   4.826   5.828 -0.1109 -0.1549 -0.7263
   60SAPC   H3X 4657   4.435   4.816   5.810 -0.5899  1.8552  0.7043
   60SAPC   H3Y 4658   4.577   4.725   5.860  3.7215  0.7129 -1.5353
   60SAPC   C34 4659   4.615   4.859   5.692  0.5903 -0.3879 -0.4819
   60SAPC   H4X 4660   4.684   4.776   5.665  1.8829 -0.5153  2.7485
   60SAPC   H4Y 4661   4.686   4.944   5.690  1.2302 -0.8941  0.0774
   60SAPC   C35 4662   4.517   4.865   5.575 -0.1321 -0.6121 -0.3662
   60SAPC   H5X 4663   4.454   4.955   5.585 -0.2803 -0.7280 -0.2673
   60SAPC   H5Y 4664   4.448   4.778   5.583 -0.4791 -0.2719  0.4185
   60SAPC   C36 4665   4.577   4.851   5.434 -1.3077  0.0992 -0.1842
   60SAPC   H6X 4666   4.490   4.860   5.365 -0.9665 -1.2819 -0.8285
   60SAPC   H6Y 4667   4.632   4.756   5.419 -2.6869 -0.6575 -0.5734
   60SAPC   C37 4668   4.677   4.969   5.403 -0.4969  0.0633 -0.0595
   60SAPC   H7X 4669   4.757   4.968   5.480 -0.3230 -1.6297 -0.2175
   60SAPC   H7Y 4670   4.623   5.066   5.397 -1.4044 -0.3924  0.5465
   60SAPC   C38 4671   4.748   4.952   5.266  0.0443  0.5152  0.0845
   60SAPC   H8X 4672   4.791   4.850   5.269  1.1989  1.0130  0.9778
   60SAPC   H8Y 4673   4.818   5.038   5.269  1.2492 -0.3285 -2.0268
   60SAPC   C39 4674   4.663   4.958   5.143  0.2334  0.1658  0.4495
   60SAPC   H9X 4675   4.631   5.064   5.143  0.7958  0.3388  0.2387
   60SAPC   H9Y 4676   4.565   4.906   5.139 -1.2306  2.8517 -1.6249
   60SAPC  C310 4677   4.741   4.911   5.015 -0.0537  0.3368 -0.2853
   60SAPC  H10X 4678   4.753   4.801   5.028  2.1768  0.4328 -1.1766
   60SAPC  H10Y 4679   4.843   4.953   5.018  0.1059  0.0685  4.1741
   60SAPC  C311 4680   4.661   4.948   4.886 -0.9588  0.4293  0.0226
   60SAPC  H11X 4681   4.635   5.056   4.892  0.6883  0.8301  0.4495
   60SAPC  H11Y 4682   4.567   4.890   4.888  0.5545 -2.1259  1.9348
   60SAPC  C312 4683   4.732   4.912   4.752 -0.9163 -0.4000 -0.5757
   60SAPC  H12X 4684   4.832   4.961   4.747 -0.1096 -1.9813 -0.4663
   60SAPC  H12Y 4685   4.671   4.955   4.669 -1.8653  1.5981  1.0802
   60SAPC  C313 4686   4.749   4.759   4.720 -0.1815  0.2015  0.7800
   60SAPC  H13X 4687   4.665   4.726   4.654 -0.6029 -0.4302  1.6120
   60SAPC  H13Y 4688   4.755   4.707   4.818  1.7800 -0.2525  0.4650
   60SAPC  C314 4689   4.885   4.736   4.655 -0.2860  0.5093 -0.0085
   60SAPC  H14X 4690   4.955   4.769   4.734  0.3288  0.6640 -0.6093
   60SAPC  H14Y 4691   4.884   4.794   4.560 -3.1334 -2.1198 -1.8130
   60SAPC  C315 4692   4.918   4.580   4.616 -0.1204  0.0911 -0.0797
   60SAPC  H15X 4693   4.925   4.513   4.704  0.5185  1.7956  1.2193
   60SAPC  H15Y 4694   5.022   4.571   4.578 -1.5835 -0.3704 -4.5352
   60SAPC  C316 4695   4.839   4.525   4.501  0.7570 -0.3692 -0.4681
   60SAPC  H16X 4696   4.908   4.532   4.414  0.1656 -2.8175 -1.2221
   60SAPC  H16Y 4697   4.755   4.593   4.473  1.5772  0.3144 -1.3381
   60SAPC  C317 4698   4.784   4.378   4.519 -0.8871 -0.5545  0.2975
   60SAPC  H17X 4699   4.751   4.375   4.625  2.6666 -1.7228  1.5097
   60SAPC  H17Y 4700   4.867   4.304   4.517 -1.0007 -0.7314  1.4480
   60SAPC  C318 4701   4.675   4.343   4.419  0.4045 -0.3948  0.2898
   60SAPC  H18X 4702   4.592   4.416   4.428 -0.6978 -1.7119  1.0856
   60SAPC  H18Y 4703   4.631   4.246   4.449  0.7673 -0.3610  0.9604
   60SAPC  H18Z 4704   4.713   4.344   4.314 -1.6946 -1.4991 -0.5192
   61SAPC     N 4705   6.703   0.682   7.420  0.0859  0.2963 -0.3011
   61SAPC   C12 4706   6.677   0.626   7.283 -0.2099 -0.3367 -0.1439
   61SAPC  H12A 4707   6.656   0.712   7.221 -0.1154 -0.8068 -0.8415
   61SAPC  H12B 4708   6.590   0.562   7.281 -0.4281 -0.1415  1.4626
   61SAPC   C13 4709   6.735   0.584   7.525 -0.2836  0.5916  0.2425
   61SAPC  H13A 4710   6.791   0.633   7.604  1.8217  2.5616 -2.2766
   61SAPC  H13B 4711   6.655   0.517   7.550 -0.9414  1.5120  0.6854
   61SAPC  H13C 4712   6.811   0.525   7.476 -0.1658  2.4556 -2.0028
   61SAPC   C14 4713   6.823   0.767   7.408  0.0453  0.1664  0.1310
   61SAPC  H14A 4714   6.909   0.713   7.372  1.0730  1.3136  0.7704
   61SAPC  H14B 4715   6.809   0.836   7.326 -0.1283  0.8644  0.7380
   61SAPC  H14C 4716   6.846   0.815   7.502 -0.2671 -0.1567  0.3750
   61SAPC   C15 4717   6.584   0.765   7.451 -0.2576  0.3270  0.6287
   61SAPC  H15A 4718   6.489   0.713   7.448 -0.3086  0.3371 -2.7612
   61SAPC  H15B 4719   6.590   0.818   7.544 -1.4447 -0.7207  1.3333
   61SAPC  H15C 4720   6.574   0.845   7.379 -1.5717 -1.1746 -0.9744
   61SAPC   C11 4721   6.794   0.551   7.214 -0.4913 -0.5806 -0.2892
   61SAPC  H11A 4722   6.891   0.603   7.230 -0.0836 -1.9407  2.0749
   61SAPC  H11B 4723   6.780   0.561   7.104 -0.1782  0.0262 -0.2794
   61SAPC     P 4724   6.707   0.312   7.223  0.3389 -0.0292  0.1897
   61SAPC   O13 4725   6.750   0.184   7.283 -0.2057 -0.5609  0.0128
   61SAPC   O14 4726   6.568   0.351   7.260  0.1825 -0.0143 -0.4408
   61SAPC   O12 4727   6.810   0.419   7.257 -0.1200 -0.1904 -0.4181
   61SAPC   O11 4728   6.728   0.299   7.067 -0.3195 -0.4543 -0.1744
   61SAPC    C1 4729   6.644   0.216   6.994  0.5947 -0.2824 -0.2717
   61SAPC    HA 4730   6.648   0.107   7.017 -1.4388 -0.3312  0.0370
   61SAPC    HB 4731   6.536   0.235   7.012  0.1628 -2.0703 -0.7039
   61SAPC    C2 4732   6.679   0.210   6.847  0.3039 -0.4335  0.1930
   61SAPC    HS 4733   6.609   0.143   6.794  0.8596 -0.6167 -0.3111
   61SAPC   O21 4734   6.809   0.163   6.813  0.2334  0.2713 -0.1366
   61SAPC   C21 4735   6.849   0.039   6.851  0.7537 -0.7193 -0.1347
   61SAPC   O22 4736   6.802  -0.035   6.935  0.2327  0.2031  0.1709
   61SAPC   C22 4737   6.978   0.012   6.778  0.1679  0.2301 -0.2634
   61SAPC   H2R 4738   7.033   0.109   6.773  0.9354 -0.2419 -1.6411
   61SAPC   H2S 4739   7.027  -0.072   6.831 -1.9670 -1.1874 -0.4153
   61SAPC    C3 4740   6.650   0.357   6.789 -0.5038  1.1268 -0.2242
   61SAPC    HX 4741   6.729   0.416   6.839 -1.3297  0.1689  2.3526
   61SAPC    HY 4742   6.553   0.392   6.829  0.0479  4.3846 -1.4306
   61SAPC   O31 4743   6.659   0.358   6.644  0.0431 -0.7261  0.1272
   61SAPC   C31 4744   6.541   0.323   6.591  0.4456  0.5161 -0.0386
   61SAPC   O32 4745   6.445   0.278   6.654 -0.9624 -0.1333  0.6168
   61SAPC   C32 4746   6.540   0.351   6.444 -0.8361 -0.5638  0.0444
   61SAPC   H2X 4747   6.640   0.334   6.400 -0.6333 -1.5640  0.8581
   61SAPC   H2Y 4748   6.514   0.458   6.427 -1.8515 -0.3781  2.4307
   61SAPC   C23 4749   6.945  -0.023   6.631 -0.0689  1.1377  0.4220
   61SAPC   H3R 4750   6.871   0.042   6.577  0.8653  0.7572 -1.3953
   61SAPC   H3S 4751   6.895  -0.122   6.643 -0.4687  1.4952  1.9070
   61SAPC   C24 4752   7.074  -0.045   6.541  0.2166 -0.2247 -1.1531
   61SAPC   H4R 4753   7.151  -0.099   6.601 -1.0034 -0.7580 -0.0202
   61SAPC   H4S 4754   7.116   0.058   6.542  0.1576 -0.1226  1.9369
   61SAPC   C25 4755   7.046  -0.115   6.413  0.3242 -0.3764  0.3864
   61SAPC   H5R 4756   7.024  -0.222   6.425  1.3657 -0.6195  0.2071
   61SAPC   C26 4757   7.045  -0.057   6.290  0.0355  0.6409 -0.7835
   61SAPC   H6R 4758   7.034  -0.116   6.198  2.5335  0.6873 -1.2000
   61SAPC   C27 4759   7.110   0.075   6.268  0.3804  0.7539 -0.1843
   61SAPC   H7R 4760   7.134   0.145   6.351  1.5503  1.4834 -1.1049
   61SAPC   H7S 4761   7.038   0.144   6.218  0.5793  0.3954 -0.9750
   61SAPC   C28 4762   7.230   0.049   6.183 -0.8319  0.0528 -0.0692
   61SAPC   H8R 4763   7.306   0.004   6.248  0.2719  1.1267 -0.5820
   61SAPC   C29 4764   7.249   0.066   6.056 -0.0450  0.3699  0.0468
   61SAPC   H9R 4765   7.353   0.052   6.022  1.0900  2.2884  2.4167
   61SAPC  C210 4766   7.146   0.130   5.966  0.4477 -0.7350  0.8686
   61SAPC  H10R 4767   7.062   0.189   6.010  0.0153 -0.5734 -0.1529
   61SAPC  H10S 4768   7.094   0.046   5.916  0.1486 -0.8594  1.3687
   61SAPC  C211 4769   7.219   0.216   5.866  0.2870 -0.3246  0.4723
   61SAPC  H11R 4770   7.292   0.282   5.914 -0.0325  0.3523  0.0371
   61SAPC  C212 4771   7.199   0.242   5.737  0.7110  0.0988  0.4194
   61SAPC  H12R 4772   7.264   0.307   5.677 -1.5600  0.8356 -1.4281
   61SAPC  C213 4773   7.098   0.180   5.645 -0.0523  0.3384 -0.5049
   61SAPC  H13R 4774   7.049   0.095   5.696 -1.7397  2.0745  0.9055
   61SAPC  H13S 4775   7.154   0.143   5.556  0.8309 -0.8151  0.4929
   61SAPC  C214 4776   6.981   0.272   5.604 -0.3008 -0.1097  1.1087
   61SAPC  H14R 4777   6.886   0.252   5.654 -1.2252  0.7333 -0.2402
   61SAPC  C215 4778   6.990   0.378   5.518  0.4002 -0.0772 -0.2414
   61SAPC  H15R 4779   6.906   0.448   5.512  0.9019  0.7028  1.3353
   61SAPC  C216 4780   7.116   0.421   5.445  1.4128  0.3184  0.7237
   61SAPC  H16R 4781   7.204   0.394   5.506  1.1268 -1.5741  0.3757
   61SAPC  H16S 4782   7.121   0.531   5.430  2.1153  0.3301  1.0406
   61SAPC  C217 4783   7.146   0.347   5.312  0.2888 -0.3784  0.4373
   61SAPC  H17R 4784   7.167   0.240   5.336  1.9380  0.2410  2.0167
   61SAPC  H17S 4785   7.243   0.376   5.268 -1.1836  0.4875 -2.4709
   61SAPC  C218 4786   7.043   0.366   5.201 -0.0055  0.2861  0.3028
   61SAPC  H18R 4787   7.030   0.472   5.169 -0.7300  0.3043  0.6402
   61SAPC  H18S 4788   6.945   0.333   5.241 -0.8641  2.1841 -0.1460
   61SAPC  C219 4789   7.066   0.285   5.072  0.0873  0.3678  0.4090
   61SAPC  H19R 4790   6.974   0.283   5.009  0.9605  2.5798 -1.0489
   61SAPC  H19S 4791   7.090   0.178   5.093 -0.1587  0.0464 -0.8413
   61SAPC  C220 4792   7.181   0.350   4.994  0.1801  0.2469 -0.2967
   61SAPC  H20R 4793   7.158   0.459   4.997 -0.7523  0.0528 -0.0332
   61SAPC  H20S 4794   7.187   0.309   4.891 -0.4486 -2.0200  0.5155
   61SAPC  H20T 4795   7.272   0.332   5.055 -0.6687  3.4007  2.1956
   61SAPC   C33 4796   6.448   0.277   6.351  1.2534 -0.0445 -0.0241
   61SAPC   H3X 4797   6.345   0.294   6.391  1.3413  1.5326 -0.3796
   61SAPC   H3Y 4798   6.459   0.167   6.345 -0.2029 -0.2544  0.7514
   61SAPC   C34 4799   6.427   0.343   6.212 -0.0400 -0.2001  0.1891
   61SAPC   H4X 4800   6.516   0.311   6.154 -0.4968  0.8906 -1.1824
   61SAPC   H4Y 4801   6.433   0.453   6.232  3.1850 -0.2357  0.0420
   61SAPC   C35 4802   6.294   0.316   6.135  0.3543  0.5705  0.4162
   61SAPC   H5X 4803   6.209   0.360   6.191 -1.5405  0.0974 -1.8856
   61SAPC   H5Y 4804   6.284   0.205   6.137  3.1144  0.2678  1.2689
   61SAPC   C36 4805   6.277   0.367   5.989 -0.1180 -0.2536  0.0084
   61SAPC   H6X 4806   6.264   0.477   5.992  2.5321  0.2233 -2.2187
   61SAPC   H6Y 4807   6.181   0.327   5.949  0.1071 -0.7844 -0.0134
   61SAPC   C37 4808   6.398   0.319   5.897  0.9512  0.0092  0.3776
   61SAPC   H7X 4809   6.396   0.208   5.889 -0.2449 -0.1621  2.3586
   61SAPC   H7Y 4810   6.496   0.350   5.940  1.8837  0.6095 -2.0627
   61SAPC   C38 4811   6.407   0.393   5.762  0.3784 -0.6380 -0.0929
   61SAPC   H8X 4812   6.450   0.494   5.780 -1.8805  0.2489  0.7115
   61SAPC   H8Y 4813   6.306   0.415   5.720  1.8460  0.5903 -3.3664
   61SAPC   C39 4814   6.495   0.312   5.669 -0.0140  0.4575 -0.0925
   61SAPC   H9X 4815   6.459   0.208   5.649  1.0132  0.1949 -0.6083
   61SAPC   H9Y 4816   6.596   0.306   5.715 -0.2858  0.7984  0.5578
   61SAPC  C310 4817   6.528   0.381   5.537 -0.6709  0.0376  0.0714
   61SAPC  H10X 4818   6.590   0.310   5.478  0.3419 -1.7444  3.0266
   61SAPC  H10Y 4819   6.606   0.459   5.555 -0.3066  0.3298 -2.4036
   61SAPC  C311 4820   6.422   0.428   5.449  0.3995  0.3083  0.7833
   61SAPC  H11X 4821   6.368   0.511   5.499 -1.5624  0.5017 -1.4933
   61SAPC  H11Y 4822   6.348   0.352   5.418  0.3960  0.9991 -1.0265
   61SAPC  C312 4823   6.466   0.494   5.321 -0.1870  0.1212 -0.0825
   61SAPC  H12X 4824   6.386   0.508   5.244 -0.3852  2.6539  0.4779
   61SAPC  H12Y 4825   6.545   0.424   5.286  1.7484  2.5605 -0.8865
   61SAPC  C313 4826   6.525   0.631   5.330  1.0050 -0.7789 -0.4367
   61SAPC  H13X 4827   6.606   0.648   5.405 -3.0501  1.3880  4.0324
   61SAPC  H13Y 4828   6.442   0.692   5.372  2.8162  0.4466  1.5342
   61SAPC  C314 4829   6.568   0.676   5.188 -0.4193 -0.1559 -0.2840
   61SAPC  H14X 4830   6.554   0.786   5.195  1.8593  0.0639  3.1290
   61SAPC  H14Y 4831   6.509   0.633   5.104 -0.6417  0.5198 -0.4781
   61SAPC  C315 4832   6.718   0.642   5.161 -0.7797  0.2520  0.3723
   61SAPC  H15X 4833   6.737   0.534   5.180 -0.7217  0.1733 -0.1106
   61SAPC  H15Y 4834   6.790   0.701   5.220  0.3095 -2.4877  2.0061
   61SAPC  C316 4835   6.749   0.660   5.012 -0.1544  0.4491  0.4751
   61SAPC  H16X 4836   6.727   0.764   4.979 -1.9318 -0.1139 -0.2996
   61SAPC  H16Y 4837   6.688   0.595   4.945  0.3037  2.2172 -1.7782
   61SAPC  C317 4838   6.891   0.620   4.977 -0.5482 -0.2130  0.0391
   61SAPC  H17X 4839   6.911   0.512   4.989  1.1145 -0.2000 -1.9130
   61SAPC  H17Y 4840   6.968   0.677   5.034 -0.0655 -2.1737  1.4334
   61SAPC  C318 4841   6.920   0.627   4.828  0.2992  0.0810  0.2765
   61SAPC  H18X 4842   6.845   0.566   4.774 -1.5597  1.1073  1.5576
   61SAPC  H18Y 4843   7.023   0.592   4.805 -0.0729 -1.6326  1.0277
   61SAPC  H18Z 4844   6.902   0.732   4.799 -0.6943 -0.3731 -0.8471
   62SAPC     N 4845   1.486   0.857   7.575  0.1651  0.2316 -0.0306
   62SAPC   C12 4846   1.529   0.935   7.452  0.8971 -0.2029 -0.0779
   62SAPC  H12A 4847   1.635   0.956   7.452  0.5879  1.5397 -0.0571
   62SAPC  H12B 4848   1.485   1.034   7.457  0.9452 -0.1186 -1.0490
   62SAPC   C13 4849   1.334   0.865   7.584 -0.6211 -0.6873  0.1863
   62SAPC  H13A 4850   1.295   0.873   7.483  1.7271 -1.2774 -0.8348
   62SAPC  H13B 4851   1.283   0.787   7.639 -1.2770  0.8021  1.7772
   62SAPC  H13C 4852   1.304   0.955   7.634  2.1674  0.8871 -0.7971
   62SAPC   C14 4853   1.519   0.718   7.571  0.0076  0.6006  0.2933
   62SAPC  H14A 4854   1.488   0.668   7.480 -0.2910 -0.7890  1.1191
   62SAPC  H14B 4855   1.627   0.719   7.569  0.1461 -1.7975 -2.8570
   62SAPC  H14C 4856   1.486   0.653   7.651 -1.0960 -0.5582 -1.0402
   62SAPC   C15 4857   1.534   0.924   7.695  0.0144  0.8225 -0.2414
   62SAPC  H15A 4858   1.499   1.026   7.705  1.7527  1.3200  1.6230
   62SAPC  H15B 4859   1.499   0.871   7.783  2.1849  0.3980  0.4398
   62SAPC  H15C 4860   1.642   0.916   7.697 -0.0051 -0.6734 -2.2487
   62SAPC   C11 4861   1.489   0.877   7.311 -0.3759 -0.8505 -0.2865
   62SAPC  H11A 4862   1.496   0.961   7.239 -0.3427  0.1754  0.8911
   62SAPC  H11B 4863   1.381   0.855   7.318 -0.8000  0.8765 -1.0485
   62SAPC     P 4864   1.713   0.775   7.252 -0.3708  0.1096 -0.0800
   62SAPC   O13 4865   1.778   0.864   7.343  0.1406  0.0613  0.2048
   62SAPC   O14 4866   1.773   0.647   7.221 -0.7757 -0.2043  0.0988
   62SAPC   O12 4867   1.559   0.759   7.284 -0.2685  0.0386  0.1435
   62SAPC   O11 4868   1.712   0.834   7.107 -0.2806  0.3473 -0.5882
   62SAPC    C1 4869   1.640   0.771   6.997  0.7439 -0.5066 -0.6066
   62SAPC    HA 4870   1.689   0.672   6.982 -0.2308 -0.9472 -0.9630
   62SAPC    HB 4871   1.534   0.757   7.026  1.4846 -2.2045  1.4965
   62SAPC    C2 4872   1.665   0.860   6.878  0.0394 -0.6830 -0.5257
   62SAPC    HS 4873   1.614   0.816   6.790 -2.1350  1.6040 -0.5091
   62SAPC   O21 4874   1.809   0.874   6.858 -0.0487  0.5253 -0.5404
   62SAPC   C21 4875   1.858   0.874   6.733  0.4175 -0.0449 -0.8850
   62SAPC   O22 4876   1.787   0.861   6.634 -0.1033  0.1961 -0.2663
   62SAPC   C22 4877   2.011   0.872   6.736 -0.5387 -0.1324 -0.1192
   62SAPC   H2R 4878   2.042   0.926   6.828 -1.2196 -0.4567  0.3062
   62SAPC   H2S 4879   2.047   0.767   6.747 -0.9743 -0.1583  1.3039
   62SAPC    C3 4880   1.595   0.997   6.897  0.4925 -0.3708 -0.8599
   62SAPC    HX 4881   1.662   1.052   6.967 -0.3728 -1.4548  0.8809
   62SAPC    HY 4882   1.497   0.977   6.946  0.7548 -0.2057 -0.2521
   62SAPC   O31 4883   1.572   1.066   6.779 -0.1186 -0.1730  0.1842
   62SAPC   C31 4884   1.478   1.030   6.696 -0.4679  0.6095  0.1099
   62SAPC   O32 4885   1.394   0.943   6.718 -0.0433 -0.0256  0.2510
   62SAPC   C32 4886   1.483   1.123   6.580 -0.1895  0.6676 -0.4926
   62SAPC   H2X 4887   1.585   1.134   6.536 -0.4502  0.9261 -1.0401
   62SAPC   H2Y 4888   1.475   1.221   6.631  0.5935 -0.4532  1.9204
   62SAPC   C23 4889   2.079   0.931   6.614  0.1788 -0.9724  0.0824
   62SAPC   H3R 4890   2.189   0.929   6.630  0.6069  0.0099 -2.2821
   62SAPC   H3S 4891   2.047   1.030   6.574 -0.3484 -1.2560 -0.2043
   62SAPC   C24 4892   2.069   0.839   6.493 -0.1299 -0.0126 -1.1179
   62SAPC   H4R 4893   1.964   0.835   6.455 -0.7455 -2.4884  0.6385
   62SAPC   H4S 4894   2.078   0.735   6.530  0.0161  0.1875 -0.5804
   62SAPC   C25 4895   2.179   0.867   6.388 -0.0139 -0.1719 -0.3792
   62SAPC   H5R 4896   2.278   0.890   6.432 -1.0845  0.6446  1.7467
   62SAPC   C26 4897   2.152   0.903   6.262 -0.0123 -0.2570  0.1971
   62SAPC   H6R 4898   2.229   0.934   6.190 -1.8224  0.3304 -1.5946
   62SAPC   C27 4899   2.016   0.911   6.200 -0.4755 -0.3053 -0.1438
   62SAPC   H7R 4900   1.973   1.008   6.232  0.5667 -0.5993  2.4009
   62SAPC   H7S 4901   1.945   0.832   6.236  0.1357 -0.1554  1.4739
   62SAPC   C28 4902   2.031   0.895   6.054  0.0441  0.3153  0.0732
   62SAPC   H8R 4903   2.067   0.796   6.022 -0.6541  0.0987 -0.0440
   62SAPC   C29 4904   2.021   0.987   5.958 -0.2005  0.0990  0.2722
   62SAPC   H9R 4905   2.040   0.953   5.855 -0.0526  1.1267 -0.0466
   62SAPC  C210 4906   1.984   1.131   5.988  0.3386  0.2809  0.2697
   62SAPC  H10R 4907   2.041   1.174   6.073  0.4324  0.3506  0.1717
   62SAPC  H10S 4908   1.877   1.141   6.015 -0.1283 -2.4694 -0.2540
   62SAPC  C211 4909   2.012   1.215   5.864  0.1049  0.4489 -0.6513
   62SAPC  H11R 4910   2.115   1.251   5.854 -0.1967  1.4051 -0.4348
   62SAPC  C212 4911   1.917   1.253   5.775  0.8207 -0.2864  0.0857
   62SAPC  H12R 4912   1.936   1.327   5.695 -0.7627 -1.3545 -1.3467
   62SAPC  C213 4913   1.777   1.207   5.781 -0.2104  0.3888  0.1213
   62SAPC  H13R 4914   1.708   1.288   5.812 -1.8133 -0.7827 -0.2067
   62SAPC  H13S 4915   1.760   1.125   5.854 -0.7631  1.8058  1.6371
   62SAPC  C214 4916   1.732   1.145   5.648  0.2628  0.1671  0.1498
   62SAPC  H14R 4917   1.790   1.054   5.628  0.2768  0.1509  0.2588
   62SAPC  C215 4918   1.663   1.200   5.548 -0.0843  0.1758  0.3569
   62SAPC  H15R 4919   1.641   1.142   5.457  0.0257  0.9736 -0.1983
   62SAPC  C216 4920   1.595   1.337   5.566 -0.1409 -0.1120 -0.2284
   62SAPC  H16R 4921   1.651   1.403   5.636  1.5208 -1.4880 -0.1927
   62SAPC  H16S 4922   1.492   1.324   5.607 -0.0621 -0.4028 -0.1226
   62SAPC  C217 4923   1.586   1.411   5.433 -0.9779 -0.0185  0.2689
   62SAPC  H17R 4924   1.510   1.367   5.366  0.1263  2.2635 -2.7332
   62SAPC  H17S 4925   1.682   1.407   5.376 -2.0860 -1.6318 -1.5912
   62SAPC  C218 4926   1.554   1.558   5.436 -0.3982  0.4206  0.9751
   62SAPC  H18R 4927   1.536   1.586   5.330 -1.3267 -0.9007  0.7576
   62SAPC  H18S 4928   1.643   1.611   5.478  0.4272 -1.4227  1.6711
   62SAPC  C219 4929   1.420   1.592   5.515  0.0216 -0.3793 -0.1100
   62SAPC  H19R 4930   1.432   1.559   5.620 -1.9561 -1.2416 -0.1144
   62SAPC  H19S 4931   1.340   1.531   5.468  0.3001 -1.4120  0.7054
   62SAPC  C220 4932   1.368   1.735   5.517 -0.1651  0.8558 -0.4189
   62SAPC  H20R 4933   1.270   1.755   5.566 -1.6618 -0.2968 -2.7945
   62SAPC  H20S 4934   1.379   1.790   5.421 -0.2367 -1.8122 -2.0515
   62SAPC  H20T 4935   1.442   1.792   5.578 -0.1642 -0.8953  1.3008
   62SAPC   C33 4936   1.372   1.103   6.474 -0.3086 -0.1185 -0.2310
   62SAPC   H3X 4937   1.305   1.017   6.494  0.2902 -1.5472 -3.7437
   62SAPC   H3Y 4938   1.414   1.096   6.372  2.7062 -0.3790  0.9184
   62SAPC   C34 4939   1.273   1.219   6.468  0.1286  0.4469 -0.1445
   62SAPC   H4X 4940   1.321   1.316   6.443 -1.1262  1.0915 -0.1007
   62SAPC   H4Y 4941   1.226   1.239   6.567 -1.4120  1.1655 -0.9942
   62SAPC   C35 4942   1.163   1.189   6.363 -0.5723 -0.2162 -0.3666
   62SAPC   H5X 4943   1.122   1.086   6.371 -1.1040  0.0463  0.4093
   62SAPC   H5Y 4944   1.216   1.191   6.266  1.4764  0.3789  0.7052
   62SAPC   C36 4945   1.043   1.281   6.353  0.2987 -0.0509 -0.7701
   62SAPC   H6X 4946   1.089   1.381   6.345  2.2196 -0.8299 -0.0109
   62SAPC   H6Y 4947   0.990   1.277   6.451  0.1998 -2.0883 -0.8549
   62SAPC   C37 4948   0.944   1.255   6.235 -0.4096  0.5647  0.7257
   62SAPC   H7X 4949   1.002   1.242   6.141 -1.0757  1.3908  0.1925
   62SAPC   H7Y 4950   0.880   1.344   6.218  1.2058  1.5408 -0.5602
   62SAPC   C38 4951   0.848   1.126   6.247  0.5353  0.2826  0.7793
   62SAPC   H8X 4952   0.771   1.130   6.327 -0.6915 -0.4642 -0.3202
   62SAPC   H8Y 4953   0.920   1.042   6.263  1.0851  0.9221  1.7506
   62SAPC   C39 4954   0.775   1.103   6.110 -0.4706 -0.2257  0.2628
   62SAPC   H9X 4955   0.775   0.994   6.088  2.5550 -0.3842  0.5104
   62SAPC   H9Y 4956   0.842   1.146   6.033  0.2019 -0.8128  0.5081
   62SAPC  C310 4957   0.630   1.164   6.090 -0.1844 -0.0004  0.7107
   62SAPC  H10X 4958   0.627   1.272   6.115 -0.2390  0.4617 -1.1817
   62SAPC  H10Y 4959   0.560   1.104   6.153  0.6007 -1.0128  0.6512
   62SAPC  C311 4960   0.595   1.167   5.938 -0.2916 -0.1408 -0.9099
   62SAPC  H11X 4961   0.494   1.212   5.929  0.3383  1.1922 -1.6501
   62SAPC  H11Y 4962   0.602   1.066   5.892 -0.0292  0.6807 -2.7713
   62SAPC  C312 4963   0.682   1.263   5.862  0.1095  0.2808  0.4269
   62SAPC  H12X 4964   0.781   1.216   5.844 -0.8815 -2.0482  0.5803
   62SAPC  H12Y 4965   0.701   1.358   5.915 -2.4040  1.4225 -0.5719
   62SAPC  C313 4966   0.628   1.296   5.719  0.9037 -0.4531 -0.0583
   62SAPC  H13X 4967   0.693   1.370   5.669  0.4198  0.7560  1.0349
   62SAPC  H13Y 4968   0.536   1.354   5.745  0.7290 -0.8863  0.3132
   62SAPC  C314 4969   0.594   1.173   5.632  0.2698  0.8707 -0.2305
   62SAPC  H14X 4970   0.534   1.093   5.681  0.4530  1.4138  0.9138
   62SAPC  H14Y 4971   0.695   1.135   5.605 -1.3045 -2.0283 -2.7000
   62SAPC  C315 4972   0.515   1.209   5.505  0.1166 -0.0928 -0.5980
   62SAPC  H15X 4973   0.569   1.283   5.443 -1.4752  0.2362 -1.6440
   62SAPC  H15Y 4974   0.419   1.256   5.534  0.5861  0.9252 -0.6813
   62SAPC  C316 4975   0.511   1.092   5.405  1.4460 -0.8519  0.1776
   62SAPC  H16X 4976   0.454   1.006   5.449 -1.3755  0.6902 -0.1987
   62SAPC  H16Y 4977   0.610   1.055   5.372  1.3107 -0.6622 -0.4470
   62SAPC  C317 4978   0.438   1.135   5.280  0.1876 -0.7895  0.6936
   62SAPC  H17X 4979   0.488   1.225   5.238 -1.3354  0.4198  1.3868
   62SAPC  H17Y 4980   0.331   1.152   5.305  0.6307 -0.0167  2.1977
   62SAPC  C318 4981   0.452   1.020   5.176  0.4704 -0.0491 -0.6588
   62SAPC  H18X 4982   0.559   1.026   5.148  0.7472  1.4717  0.5495
   62SAPC  H18Y 4983   0.394   1.048   5.086  1.8684 -0.2412 -1.6445
   62SAPC  H18Z 4984   0.423   0.927   5.228 -0.0369  1.9120  2.9171
   63SAPC     N 4985   3.419   4.645   7.346 -0.5340 -0.2124  0.9783
   63SAPC   C12 4986   3.367   4.627   7.201 -0.3319  0.3660 -0.6997
   63SAPC  H12A 4987   3.311   4.713   7.170 -2.2726 -0.3465  0.6569
   63SAPC  H12B 4988   3.302   4.541   7.193 -1.1049  0.9351 -0.6022
   63SAPC   C13 4989   3.536   4.744   7.338 -0.3790  0.0509  0.8650
   63SAPC  H13A 4990   3.624   4.687   7.312 -1.0119 -0.3422 -0.4686
   63SAPC  H13B 4991   3.522   4.811   7.254  0.5844 -0.7777  0.0186
   63SAPC  H13C 4992   3.544   4.801   7.429 -2.0409  0.2529  0.9105
   63SAPC   C14 4993   3.316   4.704   7.429 -0.8461  0.2641  0.3335
   63SAPC  H14A 4994   3.223   4.649   7.423 -0.5430 -0.1306 -3.8018
   63SAPC  H14B 4995   3.343   4.709   7.533  2.9981 -1.8390 -0.3617
   63SAPC  H14C 4996   3.300   4.803   7.390  0.7252  0.1346 -0.7324
   63SAPC   C15 4997   3.461   4.519   7.406 -0.3283  0.1254 -0.2346
   63SAPC  H15A 4998   3.378   4.451   7.417 -0.5999  0.0137 -2.4950
   63SAPC  H15B 4999   3.550   4.477   7.361  0.7291  0.5718  1.3702
   63SAPC  H15C 5000   3.491   4.539   7.508  0.0368 -2.2230  0.1712
   63SAPC   C11 5001   3.477   4.600   7.098 -0.2901  0.0074  0.2412
   63SAPC  H11A 5002   3.431   4.550   7.010 -0.1630  2.2770 -1.1877
   63SAPC  H11B 5003   3.547   4.522   7.134  1.0473  0.8326 -0.4981
   63SAPC     P 5004   3.492   4.813   6.950 -0.0934  0.1814 -0.5131
   63SAPC   O13 5005   3.356   4.856   6.989  0.3022 -0.1310 -0.3326
   63SAPC   O14 5006   3.592   4.918   6.934 -0.1968  0.2380  0.3382
   63SAPC   O12 5007   3.547   4.717   7.064  0.9915  0.3541  0.0787
   63SAPC   O11 5008   3.490   4.703   6.834 -0.0443  0.2868 -0.7128
   63SAPC    C1 5009   3.603   4.633   6.797  0.1840 -0.5115  0.1641
   63SAPC    HA 5010   3.686   4.637   6.871  0.4115 -0.7905 -0.0680
   63SAPC    HB 5011   3.584   4.524   6.791  2.7890 -0.9841 -1.2079
   63SAPC    C2 5012   3.666   4.683   6.662  0.3117  0.0946  0.9009
   63SAPC    HS 5013   3.696   4.787   6.684 -2.7766  1.4086 -0.4361
   63SAPC   O21 5014   3.578   4.675   6.547 -0.7894 -0.0219 -0.6616
   63SAPC   C21 5015   3.503   4.786   6.531 -1.4183  0.1724 -0.3399
   63SAPC   O22 5016   3.522   4.892   6.587  0.5450  0.1444 -0.4857
   63SAPC   C22 5017   3.397   4.764   6.425 -0.0712 -0.7648  0.1459
   63SAPC   H2R 5018   3.439   4.731   6.328 -0.9006  1.0944 -0.8907
   63SAPC   H2S 5019   3.331   4.685   6.469  0.4902 -1.1264  0.3501
   63SAPC    C3 5020   3.797   4.601   6.630  0.4179  0.4863  0.8121
   63SAPC    HX 5021   3.877   4.611   6.707  0.5115  2.3199  0.5371
   63SAPC    HY 5022   3.842   4.655   6.543 -0.0733  2.4559  1.7086
   63SAPC   O31 5023   3.776   4.462   6.607 -0.4380  0.0448 -0.3468
   63SAPC   C31 5024   3.795   4.417   6.481  0.5445  0.7213 -0.2003
   63SAPC   O32 5025   3.819   4.480   6.381  0.3027  0.6166 -0.5840
   63SAPC   C32 5026   3.764   4.266   6.482 -0.1134  0.4249  0.3523
   63SAPC   H2X 5027   3.667   4.261   6.536 -0.1355 -0.0783  0.2641
   63SAPC   H2Y 5028   3.845   4.215   6.539  0.8165  0.6960 -0.6771
   63SAPC   C23 5029   3.313   4.884   6.390  0.9523  0.2632  0.1474
   63SAPC   H3R 5030   3.369   4.979   6.375  0.8041  0.1275 -1.5194
   63SAPC   H3S 5031   3.239   4.904   6.470  0.5516  1.8713 -0.5837
   63SAPC   C24 5032   3.217   4.861   6.273  0.4844 -0.1665  0.0947
   63SAPC   H4R 5033   3.113   4.894   6.294 -0.0569 -1.8608  0.2560
   63SAPC   H4S 5034   3.217   4.753   6.246  1.2611  0.3900 -2.3565
   63SAPC   C25 5035   3.260   4.917   6.147  0.3103 -0.0837  1.0470
   63SAPC   H5R 5036   3.335   4.862   6.089  0.3930 -0.0056  1.0782
   63SAPC   C26 5037   3.205   5.022   6.081  0.6745  0.0082  0.2099
   63SAPC   H6R 5038   3.251   5.047   5.985  0.5233 -1.7868 -0.3725
   63SAPC   C27 5039   3.080   5.094   6.120  0.1848  0.8902  0.2376
   63SAPC   H7R 5040   3.099   5.174   6.195  2.3998  1.1973 -0.5841
   63SAPC   H7S 5041   3.003   5.026   6.161 -2.3065  3.8967  0.9683
   63SAPC   C28 5042   3.005   5.140   5.999  0.0584 -0.7233 -0.1256
   63SAPC   H8R 5043   2.998   5.065   5.918  0.4339 -1.3969  0.4583
   63SAPC   C29 5044   2.966   5.268   5.976 -0.1130 -0.2607  0.2692
   63SAPC   H9R 5045   2.920   5.284   5.877  0.2710  2.6487  0.4946
   63SAPC  C210 5046   2.981   5.388   6.068 -0.1692 -0.2314  0.3364
   63SAPC  H10R 5047   3.079   5.438   6.055 -0.1787  0.1693  1.6544
   63SAPC  H10S 5048   2.983   5.349   6.172 -2.6145 -3.1109 -0.5444
   63SAPC  C211 5049   2.874   5.495   6.059 -0.3814  0.5357  0.6816
   63SAPC  H11R 5050   2.818   5.483   6.153 -0.7230 -2.9476  0.1832
   63SAPC  C212 5051   2.849   5.591   5.964 -0.2499  0.2630 -0.2143
   63SAPC  H12R 5052   2.755   5.649   5.970 -2.2874 -2.7929 -0.5026
   63SAPC  C213 5053   2.917   5.589   5.832  0.1434 -0.3764  0.2453
   63SAPC  H13R 5054   3.011   5.530   5.839  0.7840  0.6434  0.3723
   63SAPC  H13S 5055   2.953   5.692   5.808  0.8349 -0.0703  2.4170
   63SAPC  C214 5056   2.841   5.536   5.716 -0.3312  0.3199  0.7469
   63SAPC  H14R 5057   2.733   5.558   5.726 -0.9744 -1.2027 -1.8471
   63SAPC  C215 5058   2.880   5.478   5.600  0.5861 -0.1964  0.3381
   63SAPC  H15R 5059   2.794   5.452   5.536  0.2963 -0.4360  0.8207
   63SAPC  C216 5060   3.019   5.441   5.555  0.1872 -0.5703 -0.2051
   63SAPC  H16R 5061   3.093   5.486   5.625 -1.3877  1.4422  0.2643
   63SAPC  H16S 5062   3.027   5.491   5.456  0.0797 -2.6740 -1.3178
   63SAPC  C217 5063   3.042   5.292   5.543  0.1267  0.3823 -0.9886
   63SAPC  H17R 5064   2.989   5.236   5.463  0.7513 -1.6429 -0.0682
   63SAPC  H17S 5065   3.013   5.248   5.641 -0.5119 -4.5504 -3.1013
   63SAPC  C218 5066   3.192   5.266   5.524 -0.1476 -0.7185 -0.3594
   63SAPC  H18R 5067   3.236   5.272   5.626 -1.2930  0.2493  0.0940
   63SAPC  H18S 5068   3.240   5.341   5.458 -0.5689 -2.3614 -2.6815
   63SAPC  C219 5069   3.230   5.133   5.464  0.1138  0.2708  0.2934
   63SAPC  H19R 5070   3.340   5.120   5.470  0.0054 -0.7325  0.3903
   63SAPC  H19S 5071   3.197   5.126   5.358 -1.9008  3.3261  0.5986
   63SAPC  C220 5072   3.171   5.014   5.546  0.4354  0.1266 -0.9897
   63SAPC  H20R 5073   3.210   4.925   5.493  0.0182  0.0751 -1.2151
   63SAPC  H20S 5074   3.060   5.022   5.555  0.5990  1.2104  0.4000
   63SAPC  H20T 5075   3.194   5.025   5.654  2.1380 -0.7860 -1.2330
   63SAPC   C33 5076   3.765   4.225   6.336 -0.1169  0.7298 -0.3816
   63SAPC   H3X 5077   3.864   4.247   6.289 -0.0576  1.7807  0.2067
   63SAPC   H3Y 5078   3.681   4.280   6.289 -0.4907 -1.4256 -2.4465
   63SAPC   C34 5079   3.724   4.073   6.324  0.1095  0.2754  0.0606
   63SAPC   H4X 5080   3.635   4.058   6.389  0.4160 -0.4510  0.3148
   63SAPC   H4Y 5081   3.810   4.014   6.361  0.3304 -0.2381 -1.2204
   63SAPC   C35 5082   3.700   4.024   6.179  0.0048 -0.0994  0.4088
   63SAPC   H5X 5083   3.723   3.915   6.182 -0.1119 -0.1067  1.0077
   63SAPC   H5Y 5084   3.776   4.082   6.122  2.9909 -2.5291  1.6347
   63SAPC   C36 5085   3.553   4.050   6.144  0.0548  0.6440 -0.7903
   63SAPC   H6X 5086   3.526   4.155   6.166  0.9806  0.0909  3.8552
   63SAPC   H6Y 5087   3.488   3.987   6.209  0.6373  1.7112  0.8889
   63SAPC   C37 5088   3.532   4.022   5.991 -0.1624 -0.9514 -0.8183
   63SAPC   H7X 5089   3.424   4.041   5.973 -0.2589  0.3413  0.8532
   63SAPC   H7Y 5090   3.562   3.921   5.955  1.1939 -0.7898 -0.2222
   63SAPC   C38 5091   3.618   4.121   5.911 -0.4930 -0.2034  0.4156
   63SAPC   H8X 5092   3.722   4.081   5.921 -1.3218 -2.4919  0.4402
   63SAPC   H8Y 5093   3.614   4.226   5.948 -0.2487 -0.3741  0.9348
   63SAPC   C39 5094   3.577   4.106   5.766  0.3901 -0.0342  0.2256
   63SAPC   H9X 5095   3.473   4.143   5.750  0.6643  0.9007  0.5113
   63SAPC   H9Y 5096   3.577   4.001   5.732 -0.9613  0.2905 -0.8806
   63SAPC  C310 5097   3.665   4.181   5.669 -0.1169  0.0904 -0.0827
   63SAPC  H10X 5098   3.764   4.136   5.690 -0.4738 -1.0398 -0.7364
   63SAPC  H10Y 5099   3.663   4.291   5.685 -2.7022 -0.1007  1.7626
   63SAPC  C311 5100   3.628   4.159   5.519  0.3734  0.3316  0.4751
   63SAPC  H11X 5101   3.525   4.200   5.510 -0.8613 -2.8120 -1.4541
   63SAPC  H11Y 5102   3.618   4.048   5.511 -3.0253  0.4122  1.7566
   63SAPC  C312 5103   3.728   4.226   5.420 -0.1163  0.7319 -0.4510
   63SAPC  H12X 5104   3.831   4.199   5.450 -0.1561  0.3124 -0.6860
   63SAPC  H12Y 5105   3.711   4.335   5.433 -1.0455  0.7374 -1.5304
   63SAPC  C313 5106   3.710   4.197   5.270  0.3720  0.5584 -0.3417
   63SAPC  H13X 5107   3.611   4.227   5.227  0.0002 -1.7998 -1.2588
   63SAPC  H13Y 5108   3.704   4.087   5.261  0.6064  0.6768 -2.5172
   63SAPC  C314 5109   3.843   4.243   5.199 -0.1972 -0.0325  0.1333
   63SAPC  H14X 5110   3.912   4.170   5.247 -1.2290 -0.6538  0.7111
   63SAPC  H14Y 5111   3.880   4.342   5.232  0.9868  0.5496 -2.6448
   63SAPC  C315 5112   3.851   4.225   5.048 -0.0009  0.2292  0.2826
   63SAPC  H15X 5113   3.946   4.254   4.998  0.7856 -0.9200  1.0480
   63SAPC  H15Y 5114   3.774   4.287   4.997  1.1942  1.1610 -0.4469
   63SAPC  C316 5115   3.844   4.080   5.010  0.5135 -0.1419  0.2221
   63SAPC  H16X 5116   3.747   4.046   5.052  0.7658 -0.5838  0.4575
   63SAPC  H16Y 5117   3.921   4.017   5.058 -0.3687 -0.6275  1.0284
   63SAPC  C317 5118   3.851   4.055   4.858 -0.3566  0.5793  0.9159
   63SAPC  H17X 5119   3.913   4.135   4.813 -0.9375 -0.4894 -1.9618
   63SAPC  H17Y 5120   3.758   4.069   4.799 -0.7339 -2.8806  0.4673
   63SAPC  C318 5121   3.908   3.919   4.821 -0.5267  0.2624  0.6460
   63SAPC  H18X 5122   3.910   3.882   4.716 -1.4882 -1.7859  1.2917
   63SAPC  H18Y 5123   3.847   3.841   4.873  0.0569 -1.3200 -0.9223
   63SAPC  H18Z 5124   4.010   3.910   4.865 -0.8808 -1.3542  1.2116
   64SAPC     N 5125   2.533   4.311   7.169  0.4682 -0.7305 -0.0915
   64SAPC   C12 5126   2.640   4.391   7.100 -1.0857  0.1293  0.6545
   64SAPC  H12A 5127   2.721   4.324   7.077 -0.2067  1.4262 -0.1878
   64SAPC  H12B 5128   2.678   4.469   7.164 -1.3162  2.1693 -1.5403
   64SAPC   C13 5129   2.425   4.400   7.223  0.5762  0.4466  0.2230
   64SAPC  H13A 5130   2.385   4.461   7.144  2.1817  2.1764  0.6624
   64SAPC  H13B 5131   2.344   4.343   7.265  0.8228 -1.6341 -1.9568
   64SAPC  H13C 5132   2.461   4.461   7.305  1.5124  0.3983 -0.1397
   64SAPC   C14 5133   2.474   4.217   7.066 -0.0465  0.0354  0.1603
   64SAPC  H14A 5134   2.545   4.140   7.040 -0.2695  0.2704 -1.2678
   64SAPC  H14B 5135   2.384   4.170   7.103 -0.0607 -0.3321 -0.3138
   64SAPC  H14C 5136   2.458   4.269   6.973 -0.6947 -1.7732 -0.8055
   64SAPC   C15 5137   2.579   4.225   7.289 -0.1133  0.3076 -0.4435
   64SAPC  H15A 5138   2.595   4.286   7.377 -2.1870  0.3814 -0.0521
   64SAPC  H15B 5139   2.491   4.166   7.311  0.3121  0.2432  1.1539
   64SAPC  H15C 5140   2.662   4.164   7.256  1.5374  3.2206 -2.1901
   64SAPC   C11 5141   2.603   4.452   6.957  0.7012 -0.1181 -0.0415
   64SAPC  H11A 5142   2.580   4.371   6.885  0.6409  2.0789 -2.6436
   64SAPC  H11B 5143   2.693   4.501   6.913 -0.3642 -0.7638 -3.1684
   64SAPC     P 5144   2.509   4.697   7.023 -0.1807 -0.0926  0.0889
   64SAPC   O13 5145   2.386   4.740   7.095 -0.1898  0.4928 -0.1818
   64SAPC   O14 5146   2.634   4.710   7.097 -0.2728  0.3814  0.0549
   64SAPC   O12 5147   2.493   4.544   6.978  0.0326  0.1236 -0.1978
   64SAPC   O11 5148   2.517   4.785   6.895  0.1666 -0.2369 -0.4706
   64SAPC    C1 5149   2.527   4.756   6.765  0.1900 -0.3902  0.3279
   64SAPC    HA 5150   2.596   4.671   6.748 -2.9736 -3.0337 -0.4218
   64SAPC    HB 5151   2.432   4.713   6.727  1.0762 -1.2397 -0.9700
   64SAPC    C2 5152   2.571   4.885   6.684 -0.7732  0.3323  0.0863
   64SAPC    HS 5153   2.501   4.965   6.715 -1.8606 -0.4457 -0.2931
   64SAPC   O21 5154   2.578   4.865   6.540  0.4354 -0.8037  0.3875
   64SAPC   C21 5155   2.465   4.852   6.475 -0.4180  0.1257  0.3413
   64SAPC   O22 5156   2.357   4.849   6.527  0.0374  0.1808 -0.3246
   64SAPC   C22 5157   2.492   4.850   6.327  0.1316  0.5820  0.3125
   64SAPC   H2R 5158   2.570   4.928   6.310  0.8349  0.0941  1.2020
   64SAPC   H2S 5159   2.533   4.752   6.296 -0.4947  0.5192 -0.3511
   64SAPC    C3 5160   2.713   4.941   6.736 -0.3596 -0.0317 -0.2489
   64SAPC    HX 5161   2.700   4.972   6.841 -1.4791 -0.5687 -0.2116
   64SAPC    HY 5162   2.742   5.036   6.686 -1.3294  1.9475  2.6744
   64SAPC   O31 5163   2.809   4.837   6.736 -0.5448 -1.0598 -0.2609
   64SAPC   C31 5164   2.884   4.836   6.627 -0.4233 -0.3368 -0.2758
   64SAPC   O32 5165   2.914   4.935   6.563 -0.3716 -0.3218  0.0252
   64SAPC   C32 5166   2.934   4.699   6.602 -0.0294 -0.5416  0.1526
   64SAPC   H2X 5167   2.921   4.626   6.684 -0.5592 -1.4654 -0.7247
   64SAPC   H2Y 5168   3.043   4.708   6.584  0.0966 -0.6606  0.8353
   64SAPC   C23 5169   2.370   4.874   6.234  0.5653  0.1764 -0.4591
   64SAPC   H3R 5170   2.399   4.891   6.128 -0.6466  2.0078 -0.5417
   64SAPC   H3S 5171   2.325   4.972   6.262 -1.2700 -0.5349 -0.8018
   64SAPC   C24 5172   2.257   4.767   6.248  0.0028 -0.3199  0.5026
   64SAPC   H4R 5173   2.173   4.812   6.191  1.4264  0.6225 -0.9391
   64SAPC   H4S 5174   2.230   4.749   6.354 -2.3944 -1.0413 -0.1703
   64SAPC   C25 5175   2.302   4.637   6.185  0.2327  0.2614 -0.1685
   64SAPC   H5R 5176   2.354   4.562   6.247 -0.6311  0.1071  0.3791
   64SAPC   C26 5177   2.298   4.609   6.054  0.1762  0.5150 -0.0257
   64SAPC   H6R 5178   2.340   4.512   6.024  3.9510  1.9479  0.1530
   64SAPC   C27 5179   2.234   4.692   5.945  0.3344 -0.1625 -0.5105
   64SAPC   H7R 5180   2.307   4.763   5.899 -1.4034  0.8264 -1.8715
   64SAPC   H7S 5181   2.167   4.768   5.991  2.1150 -0.2344  2.5036
   64SAPC   C28 5182   2.157   4.623   5.838 -0.5542  0.3125 -0.7646
   64SAPC   H8R 5183   2.063   4.587   5.882 -0.3586  1.0160  0.2538
   64SAPC   C29 5184   2.197   4.576   5.725 -0.6808  0.5350  0.0322
   64SAPC   H9R 5185   2.128   4.525   5.656 -0.5618 -0.5795  0.7011
   64SAPC  C210 5186   2.336   4.600   5.677 -0.3879 -0.3338  0.4408
   64SAPC  H10R 5187   2.352   4.523   5.599  0.6128  0.1193  0.1859
   64SAPC  H10S 5188   2.414   4.587   5.754 -1.2097  1.0270  1.5569
   64SAPC  C211 5189   2.360   4.740   5.614 -0.4551 -0.1803  0.1133
   64SAPC  H11R 5190   2.376   4.813   5.695 -2.3575  1.2189 -0.7040
   64SAPC  C212 5191   2.350   4.773   5.486  0.2512 -0.2957  0.7478
   64SAPC  H12R 5192   2.364   4.877   5.453 -2.5980 -0.1326 -0.2549
   64SAPC  C213 5193   2.319   4.692   5.369  0.0234  0.6658  0.7454
   64SAPC  H13R 5194   2.212   4.707   5.341  0.3057  1.4763  0.0673
   64SAPC  H13S 5195   2.326   4.583   5.389  1.9148 -0.4344 -4.2980
   64SAPC  C214 5196   2.411   4.725   5.248  0.6473 -0.2531  0.4358
   64SAPC  H14R 5197   2.382   4.824   5.211 -1.0653 -0.2714  1.6167
   64SAPC  C215 5198   2.489   4.634   5.181  0.1350 -0.8186 -0.0391
   64SAPC  H15R 5199   2.546   4.676   5.097 -2.7457 -0.2976 -1.8502
   64SAPC  C216 5200   2.506   4.484   5.209  0.4292 -0.2161 -0.1925
   64SAPC  H16R 5201   2.448   4.422   5.137  1.5085 -0.2806 -1.0347
   64SAPC  H16S 5202   2.484   4.474   5.317  1.9654  1.2227  0.2853
   64SAPC  C217 5203   2.652   4.427   5.205  0.8902  0.2445  0.0389
   64SAPC  H17R 5204   2.697   4.426   5.104  0.1676 -0.4582 -0.2869
   64SAPC  H17S 5205   2.646   4.326   5.251  1.3159  0.2835  0.1862
   64SAPC  C218 5206   2.736   4.500   5.309 -0.4472  0.0960  0.1877
   64SAPC  H18R 5207   2.680   4.528   5.401 -0.0653  0.1788  0.3935
   64SAPC  H18S 5208   2.757   4.603   5.272  1.3310 -0.3385 -0.0642
   64SAPC  C219 5209   2.874   4.442   5.350  0.2758 -0.3337  0.0508
   64SAPC  H19R 5210   2.856   4.333   5.357 -0.0511 -0.3495 -0.8661
   64SAPC  H19S 5211   2.909   4.476   5.449  0.2263 -0.5334  0.1373
   64SAPC  C220 5212   2.975   4.447   5.240 -0.0930 -1.1748 -0.3743
   64SAPC  H20R 5213   3.012   4.552   5.232  0.6569 -1.5460 -2.4167
   64SAPC  H20S 5214   2.938   4.432   5.136  0.9707  3.5977 -1.7181
   64SAPC  H20T 5215   3.062   4.379   5.255  0.4970 -0.7152 -1.5189
   64SAPC   C33 5216   2.877   4.626   6.479  0.3896 -0.5277  0.0878
   64SAPC   H3X 5217   2.768   4.612   6.495  0.3025 -0.8853 -0.7660
   64SAPC   H3Y 5218   2.927   4.527   6.470  0.2919 -0.7386  1.5928
   64SAPC   C34 5219   2.895   4.704   6.350 -0.0822 -0.6328 -0.0500
   64SAPC   H4X 5220   3.003   4.696   6.328 -0.4308 -0.5257 -2.0525
   64SAPC   H4Y 5221   2.867   4.811   6.360 -0.0834 -0.5383 -0.9682
   64SAPC   C35 5222   2.833   4.641   6.228  0.1393 -0.7413 -0.1894
   64SAPC   H5X 5223   2.722   4.634   6.225 -0.0990  1.6035  0.8923
   64SAPC   H5Y 5224   2.886   4.545   6.210 -1.2454 -1.7540  0.9124
   64SAPC   C36 5225   2.852   4.734   6.113 -0.1373  0.5277  0.4849
   64SAPC   H6X 5226   2.958   4.737   6.080  0.6610 -1.0195  2.6876
   64SAPC   H6Y 5227   2.811   4.837   6.125 -1.5434  0.3109 -1.7261
   64SAPC   C37 5228   2.773   4.690   5.986 -0.2782 -0.1848 -0.0329
   64SAPC   H7X 5229   2.665   4.690   6.010 -0.3179  0.2768 -0.1993
   64SAPC   H7Y 5230   2.807   4.585   5.970  0.8104 -0.0336  1.1368
   64SAPC   C38 5231   2.785   4.779   5.860  0.0605 -0.1897  0.1785
   64SAPC   H8X 5232   2.888   4.784   5.818 -1.2685 -0.1029 -3.5007
   64SAPC   H8Y 5233   2.747   4.879   5.888 -1.4993 -0.3775 -1.1204
   64SAPC   C39 5234   2.703   4.727   5.743 -0.3678 -0.0416  0.4383
   64SAPC   H9X 5235   2.605   4.779   5.743  0.5760  1.8164 -0.1908
   64SAPC   H9Y 5236   2.679   4.619   5.759  0.2745 -0.1849  0.4384
   64SAPC  C310 5237   2.763   4.741   5.598  0.2883  0.1558  0.2272
   64SAPC  H10X 5238   2.698   4.683   5.529 -0.6734  0.4195  0.8913
   64SAPC  H10Y 5239   2.860   4.688   5.596 -0.9213 -2.2533 -2.2968
   64SAPC  C311 5240   2.757   4.886   5.540 -0.3313  0.3501  0.3286
   64SAPC  H11X 5241   2.854   4.937   5.557  1.3586 -2.4341 -0.3592
   64SAPC  H11Y 5242   2.678   4.942   5.595  1.0721  1.0743  1.6692
   64SAPC  C312 5243   2.722   4.892   5.392 -0.3858 -0.3325 -0.2142
   64SAPC  H12X 5244   2.614   4.873   5.372 -0.4652  1.8704 -2.2598
   64SAPC  H12Y 5245   2.788   4.816   5.345 -0.4153  0.6950 -1.9897
   64SAPC  C313 5246   2.775   5.030   5.327 -0.2480  0.0576 -0.2287
   64SAPC  H13X 5247   2.776   5.026   5.215  0.3312  0.2121 -0.2291
   64SAPC  H13Y 5248   2.884   5.034   5.345 -0.3762 -1.8562  1.2790
   64SAPC  C314 5249   2.696   5.144   5.383 -0.7336 -0.6821  0.0120
   64SAPC  H14X 5250   2.741   5.243   5.360  0.9465 -1.6443 -1.1008
   64SAPC  H14Y 5251   2.704   5.135   5.493  0.0379  1.9055  0.2277
   64SAPC  C315 5252   2.545   5.146   5.352 -0.3208 -0.1795 -0.4844
   64SAPC  H15X 5253   2.505   5.234   5.407 -1.9292 -0.9440 -0.3791
   64SAPC  H15Y 5254   2.494   5.055   5.391 -2.9817  0.9541 -1.1174
   64SAPC  C316 5255   2.515   5.152   5.203 -0.5430  1.2085  0.4208
   64SAPC  H16X 5256   2.405   5.142   5.194 -0.5082 -0.7812  1.4379
   64SAPC  H16Y 5257   2.564   5.057   5.171 -2.3688 -0.4099  2.1549
   64SAPC  C317 5258   2.559   5.283   5.130  0.8097  0.5237  0.7819
   64SAPC  H17X 5259   2.669   5.294   5.142  1.0579 -0.4934 -0.3983
   64SAPC  H17Y 5260   2.496   5.365   5.173 -2.6937 -1.5125 -0.0818
   64SAPC  C318 5261   2.513   5.266   4.982 -0.2969 -0.5603 -0.0368
   64SAPC  H18X 5262   2.405   5.246   4.963 -0.0447 -0.3623 -1.9198
   64SAPC  H18Y 5263   2.570   5.182   4.936  1.1587  0.2183  0.2843
   64SAPC  H18Z 5264   2.533   5.358   4.924 -1.6323 -0.6510 -0.6821
   65SAPC     N 5265   0.911   4.398   2.163  0.0265 -0.4399 -0.1584
   65SAPC   C12 5266   1.001   4.308   2.260 -0.3569 -0.2501  0.0721
   65SAPC  H12A 5267   1.075   4.372   2.306  1.3057 -2.3042  0.4495
   65SAPC  H12B 5268   1.066   4.245   2.200  1.3277  0.9129  0.6133
   65SAPC   C13 5269   0.849   4.508   2.255 -0.3965 -0.1686  0.1999
   65SAPC  H13A 5270   0.806   4.587   2.196 -0.8356 -0.1565  0.5298
   65SAPC  H13B 5271   0.770   4.456   2.308 -2.4031  0.1287 -2.3011
   65SAPC  H13C 5272   0.920   4.552   2.324 -0.5396  0.8146 -0.2675
   65SAPC   C14 5273   1.005   4.478   2.075  0.1234 -0.0895  0.3795
   65SAPC  H14A 5274   0.967   4.559   2.015  2.1441 -1.4957 -3.1440
   65SAPC  H14B 5275   1.085   4.516   2.138  0.0315  2.7266 -1.0481
   65SAPC  H14C 5276   1.040   4.407   2.001 -0.6202  0.4255 -0.4982
   65SAPC   C15 5277   0.807   4.320   2.083  0.3541 -0.8555  0.3362
   65SAPC  H15A 5278   0.742   4.398   2.046  0.3562 -0.2943  1.4662
   65SAPC  H15B 5279   0.862   4.265   2.008  0.0487 -2.0133  0.9289
   65SAPC  H15C 5280   0.754   4.254   2.151  0.0007 -3.5403 -2.3659
   65SAPC   C11 5281   0.930   4.212   2.363  0.1833 -0.5398 -0.2842
   65SAPC  H11A 5282   1.014   4.170   2.422  2.0853  3.3368  0.0194
   65SAPC  H11B 5283   0.866   4.147   2.299 -1.0004 -0.4468  0.7603
   65SAPC     P 5284   0.891   4.368   2.575 -0.1473 -0.0344 -0.0277
   65SAPC   O13 5285   1.035   4.411   2.543  0.4351  0.3343  0.0601
   65SAPC   O14 5286   0.794   4.468   2.614 -0.3249 -0.3163 -0.1966
   65SAPC   O12 5287   0.843   4.287   2.450  0.1473  0.3945  0.4147
   65SAPC   O11 5288   0.884   4.263   2.687  0.0489 -0.3443 -0.2192
   65SAPC    C1 5289   0.770   4.184   2.717 -0.0396  0.1620 -0.1281
   65SAPC    HA 5290   0.679   4.247   2.706 -1.1102 -0.9987  1.5722
   65SAPC    HB 5291   0.765   4.091   2.655 -3.3394 -0.4764  0.8791
   65SAPC    C2 5292   0.770   4.144   2.866 -0.5744 -0.7981 -0.0720
   65SAPC    HS 5293   0.669   4.102   2.886 -1.8559  1.6500 -0.9890
   65SAPC   O21 5294   0.801   4.251   2.966 -0.2488  0.5149  0.3392
   65SAPC   C21 5295   0.716   4.350   2.960  0.3945 -0.0812 -0.1721
   65SAPC   O22 5296   0.597   4.347   2.931  0.0038  0.1188  0.2095
   65SAPC   C22 5297   0.786   4.486   2.983 -0.0545 -0.1798 -0.3908
   65SAPC   H2R 5298   0.868   4.481   2.908 -1.2676  2.2821 -2.0277
   65SAPC   H2S 5299   0.715   4.571   2.970 -0.1546 -0.6061 -3.4165
   65SAPC    C3 5300   0.861   4.020   2.891  0.1265  0.1207  0.2940
   65SAPC    HX 5301   0.956   4.045   2.839  1.1056  0.0027  1.9437
   65SAPC    HY 5302   0.816   3.935   2.835  1.3528  0.3564 -1.1163
   65SAPC   O31 5303   0.889   3.991   3.029 -0.0896  0.5242  0.0420
   65SAPC   C31 5304   0.804   3.911   3.095 -0.1161  0.5268  0.6377
   65SAPC   O32 5305   0.706   3.867   3.042  0.0866  0.7152 -0.2757
   65SAPC   C32 5306   0.852   3.891   3.236  0.8747 -0.4256 -0.7783
   65SAPC   H2X 5307   0.946   3.833   3.244  0.4317 -0.9822  0.6043
   65SAPC   H2Y 5308   0.771   3.837   3.290  1.6135 -0.3170  0.4548
   65SAPC   C23 5309   0.850   4.475   3.122  0.9807  0.5005  0.7901
   65SAPC   H3R 5310   0.919   4.562   3.117  0.8188  0.5929  0.0101
   65SAPC   H3S 5311   0.895   4.377   3.148 -2.9068 -3.0498 -4.0707
   65SAPC   C24 5312   0.758   4.512   3.242  0.1948  0.8269 -0.3096
   65SAPC   H4R 5313   0.703   4.606   3.223 -1.1716  0.0217 -0.5005
   65SAPC   H4S 5314   0.825   4.516   3.330  1.1212 -1.6930 -0.8162
   65SAPC   C25 5315   0.662   4.402   3.275 -0.0130  0.6158  0.0975
   65SAPC   H5R 5316   0.711   4.304   3.283  1.1864  0.9510 -2.2716
   65SAPC   C26 5317   0.524   4.404   3.288 -0.5759 -0.3479 -0.8892
   65SAPC   H6R 5318   0.468   4.309   3.291 -1.3702  0.0260 -2.6895
   65SAPC   C27 5319   0.441   4.532   3.286  0.3771  0.9174 -0.2511
   65SAPC   H7R 5320   0.446   4.577   3.185 -0.4465 -0.1125 -0.7763
   65SAPC   H7S 5321   0.487   4.600   3.361 -1.8677  0.8359  1.3281
   65SAPC   C28 5322   0.296   4.512   3.317  0.3889  0.1422  0.0640
   65SAPC   H8R 5323   0.232   4.498   3.228 -0.7696  0.0104  0.8942
   65SAPC   C29 5324   0.237   4.517   3.439  0.1253 -0.1123 -0.7289
   65SAPC   H9R 5325   0.132   4.486   3.448  0.0701  0.0730 -0.7200
   65SAPC  C210 5326   0.302   4.534   3.572 -0.0318 -0.0029  0.8943
   65SAPC  H10R 5327   0.290   4.643   3.591 -3.2039  0.3054 -1.8295
   65SAPC  H10S 5328   0.411   4.519   3.560 -0.1445  0.5051 -1.2463
   65SAPC  C211 5329   0.235   4.451   3.684  0.5432 -0.1094  0.0059
   65SAPC  H11R 5330   0.279   4.350   3.690  0.6334 -0.1175 -0.6563
   65SAPC  C212 5331   0.140   4.496   3.766  0.1666  0.5545  0.2089
   65SAPC  H12R 5332   0.096   4.422   3.834 -0.8394  2.1244  1.3408
   65SAPC  C213 5333   0.075   4.632   3.753 -1.1636  0.0335  0.2427
   65SAPC  H13R 5334  -0.036   4.621   3.753 -1.1451 -1.0136  3.3117
   65SAPC  H13S 5335   0.091   4.685   3.656  3.4473 -3.4696 -1.2300
   65SAPC  C214 5336   0.124   4.710   3.876  0.6281 -0.2180  0.6420
   65SAPC  H14R 5337   0.231   4.714   3.902  0.2440  1.2664  2.1913
   65SAPC  C215 5338   0.042   4.777   3.959 -0.2057 -0.4603  0.6996
   65SAPC  H15R 5339   0.094   4.844   4.030  0.8854 -1.9412  1.3518
   65SAPC  C216 5340  -0.105   4.786   3.933 -0.1434  0.3124  0.5372
   65SAPC  H16R 5341  -0.153   4.686   3.929  0.0966  0.1711  1.1446
   65SAPC  H16S 5342  -0.109   4.838   3.835  1.9017  1.6342  1.0929
   65SAPC  C217 5343  -0.175   4.872   4.043 -0.2157  0.0552 -0.4569
   65SAPC  H17R 5344  -0.130   4.973   4.058 -1.0271  0.4145 -0.3366
   65SAPC  H17S 5345  -0.176   4.818   4.140  1.0389 -0.7244 -0.8631
   65SAPC  C218 5346  -0.318   4.892   4.001  0.2222  0.7527  0.1999
   65SAPC  H18R 5347  -0.380   4.799   4.000  1.7457 -0.2931  0.1840
   65SAPC  H18S 5348  -0.316   4.925   3.895 -0.3871 -0.7050 -0.2931
   65SAPC  C219 5349  -0.377   4.995   4.084 -0.0237 -0.6466 -0.3240
   65SAPC  H19R 5350  -0.471   5.035   4.040  0.2392  1.1236  0.6175
   65SAPC  H19S 5351  -0.311   5.083   4.075 -0.8827 -0.0742 -1.3101
   65SAPC  C220 5352  -0.385   4.952   4.232 -0.2437 -0.0348  0.2369
   65SAPC  H20R 5353  -0.454   5.009   4.298  0.6929 -0.9984  2.1526
   65SAPC  H20S 5354  -0.286   4.954   4.282 -0.1505 -1.9621  0.1930
   65SAPC  H20T 5355  -0.416   4.846   4.239  0.5741 -0.2495  0.7580
   65SAPC   C33 5356   0.882   4.031   3.300  0.5763 -0.4127  0.1004
   65SAPC   H3X 5357   0.790   4.090   3.317  1.5424  1.4374 -0.7961
   65SAPC   H3Y 5358   0.954   4.090   3.239  0.3517  0.1345  0.3601
   65SAPC   C34 5359   0.955   4.012   3.432 -0.2709 -0.0085 -0.4952
   65SAPC   H4X 5360   1.035   3.937   3.419 -0.1866  0.0766 -0.4639
   65SAPC   H4Y 5361   0.880   3.982   3.508 -0.0764 -2.5701 -1.2399
   65SAPC   C35 5362   1.008   4.150   3.473 -0.1149 -0.5861 -0.2073
   65SAPC   H5X 5363   0.925   4.222   3.486 -0.7022 -1.1603 -0.6959
   65SAPC   H5Y 5364   1.065   4.190   3.386 -0.3183  0.2437  0.0338
   65SAPC   C36 5365   1.085   4.152   3.597  0.2467 -0.2074  0.2259
   65SAPC   H6X 5366   1.165   4.075   3.604  0.0286 -0.3090  1.9753
   65SAPC   H6Y 5367   1.019   4.130   3.684  1.9174 -0.8604  1.3801
   65SAPC   C37 5368   1.144   4.299   3.625 -0.2071  0.5791 -0.5430
   65SAPC   H7X 5369   1.074   4.383   3.609  0.3632  1.1362 -0.1161
   65SAPC   H7Y 5370   1.225   4.308   3.549 -0.3907 -0.3962 -0.8786
   65SAPC   C38 5371   1.186   4.313   3.770 -0.5899  0.5457  0.0996
   65SAPC   H8X 5372   1.265   4.391   3.773 -0.3651  0.3253  3.3903
   65SAPC   H8Y 5373   1.243   4.220   3.789  0.4773  0.8980 -1.1713
   65SAPC   C39 5374   1.078   4.355   3.866  0.0741 -0.1173 -0.2896
   65SAPC   H9X 5375   1.000   4.277   3.853  0.5423 -0.8127  0.9323
   65SAPC   H9Y 5376   1.028   4.451   3.843 -2.0761 -0.7382  1.4101
   65SAPC  C310 5377   1.128   4.363   4.011 -0.5501  0.5835  0.5006
   65SAPC  H10X 5378   1.192   4.453   4.019 -0.8224  1.0849 -1.9909
   65SAPC  H10Y 5379   1.191   4.272   4.020  0.1464  0.9973 -0.0318
   65SAPC  C311 5380   1.013   4.364   4.115 -0.7376  0.1460  0.0835
   65SAPC  H11X 5381   0.949   4.275   4.098 -0.2250  0.3978 -4.1527
   65SAPC  H11Y 5382   0.937   4.445   4.109 -0.7508  0.0137 -2.6008
   65SAPC  C312 5383   1.060   4.357   4.262 -0.1499  0.4447 -0.6709
   65SAPC  H12X 5384   1.112   4.262   4.286 -0.3126  0.2674 -1.0060
   65SAPC  H12Y 5385   0.960   4.356   4.311 -0.6652  2.9599 -1.5192
   65SAPC  C313 5386   1.144   4.470   4.325  0.0086 -0.4194  0.3321
   65SAPC  H13X 5387   1.095   4.563   4.287 -1.1942 -0.2984  2.0825
   65SAPC  H13Y 5388   1.248   4.457   4.288  0.3710 -0.1843  1.2468
   65SAPC  C314 5389   1.135   4.480   4.471  0.5614  0.1198  0.8521
   65SAPC  H14X 5390   1.159   4.380   4.514 -0.3581  1.0079  3.6425
   65SAPC  H14Y 5391   1.034   4.512   4.503  0.3476 -0.4475  0.7695
   65SAPC  C315 5392   1.245   4.574   4.520  0.1818 -1.5934  0.1451
   65SAPC  H15X 5393   1.211   4.628   4.611  0.9312  1.0081 -1.0272
   65SAPC  H15Y 5394   1.257   4.644   4.435  0.6335 -1.0776  0.6229
   65SAPC  C316 5395   1.378   4.505   4.535  0.2585  1.0301 -0.4733
   65SAPC  H16X 5396   1.392   4.451   4.439  0.6977  0.8908 -0.3329
   65SAPC  H16Y 5397   1.388   4.438   4.623 -0.2398 -0.3029 -1.3990
   65SAPC  C317 5398   1.497   4.598   4.542 -0.7492 -0.2723  0.1561
   65SAPC  H17X 5399   1.485   4.663   4.631  0.3656  0.1676  0.0047
   65SAPC  H17Y 5400   1.499   4.665   4.453 -1.6049 -0.8646 -0.3215
   65SAPC  C318 5401   1.634   4.534   4.562  0.2581 -0.0071  0.0259
   65SAPC  H18X 5402   1.717   4.607   4.572 -0.3315  0.5955  0.5640
   65SAPC  H18Y 5403   1.659   4.473   4.472  0.2977 -1.0322  0.7168
   65SAPC  H18Z 5404   1.649   4.461   4.645  2.4758  0.6311  0.2510
   66SAPC     N 5405   3.356   5.296   2.464  0.4637  0.3647  0.8504
   66SAPC   C12 5406   3.453   5.307   2.342  0.3974 -0.4219 -0.2770
   66SAPC  H12A 5407   3.392   5.315   2.253  0.4895  0.4897 -0.2701
   66SAPC  H12B 5408   3.498   5.210   2.329 -0.8359 -0.8376 -1.7289
   66SAPC   C13 5409   3.263   5.411   2.457  0.4988  0.0265  0.5165
   66SAPC  H13A 5410   3.319   5.503   2.468 -0.7209  0.8182  0.3475
   66SAPC  H13B 5411   3.230   5.428   2.356  0.3120 -0.6863  0.4540
   66SAPC  H13C 5412   3.167   5.402   2.506 -0.7103 -0.0807 -1.7531
   66SAPC   C14 5413   3.286   5.165   2.439 -0.3455 -0.3176  0.2914
   66SAPC  H14A 5414   3.214   5.141   2.515  0.9272  2.6834  2.6608
   66SAPC  H14B 5415   3.237   5.161   2.342  0.0685  1.2568 -0.0001
   66SAPC  H14C 5416   3.365   5.091   2.444  0.0598  0.0459 -0.5889
   66SAPC   C15 5417   3.421   5.308   2.594 -0.4023 -0.7244 -0.3663
   66SAPC  H15A 5418   3.360   5.311   2.683 -0.1797  0.0284 -0.2328
   66SAPC  H15B 5419   3.497   5.232   2.603  1.1535  0.8690  0.4409
   66SAPC  H15C 5420   3.473   5.402   2.602 -2.2900  0.2029  2.6370
   66SAPC   C11 5421   3.555   5.426   2.344  0.6572  0.4277  0.2881
   66SAPC  H11A 5422   3.634   5.406   2.269  1.5611 -1.0920  1.5706
   66SAPC  H11B 5423   3.599   5.436   2.445 -0.0266  0.4191  0.5963
   66SAPC     P 5424   3.550   5.686   2.339 -0.0398 -0.0006 -0.2939
   66SAPC   O13 5425   3.688   5.686   2.294 -0.4751  0.5506  0.5752
   66SAPC   O14 5426   3.462   5.789   2.286  0.6156 -0.4886 -0.1501
   66SAPC   O12 5427   3.486   5.542   2.308  0.2988  0.1616  1.0732
   66SAPC   O11 5428   3.546   5.688   2.502 -0.0657  0.1149  0.5722
   66SAPC    C1 5429   3.425   5.732   2.571 -0.5902 -0.3170 -0.0942
   66SAPC    HA 5430   3.338   5.742   2.503 -1.5219  0.0265  1.1148
   66SAPC    HB 5431   3.391   5.679   2.663 -1.3095  0.7000  0.2333
   66SAPC    C2 5432   3.449   5.880   2.624  0.1742 -0.7341  1.2629
   66SAPC    HS 5433   3.509   5.943   2.555 -3.8113  1.8838 -0.1371
   66SAPC   O21 5434   3.507   5.874   2.754  0.1296 -0.3953  0.2421
   66SAPC   C21 5435   3.553   5.990   2.795  0.2252 -0.2258  0.5307
   66SAPC   O22 5436   3.539   6.093   2.730 -0.0793 -0.5301  0.1086
   66SAPC   C22 5437   3.644   5.971   2.922 -0.1889 -0.3405 -0.3736
   66SAPC   H2R 5438   3.603   5.889   2.985  0.6852 -0.2182  0.3779
   66SAPC   H2S 5439   3.738   5.924   2.886 -0.6003 -1.1923 -0.3619
   66SAPC    C3 5440   3.308   5.952   2.630  0.0576 -0.2031  0.4327
   66SAPC    HX 5441   3.275   5.965   2.524 -0.3147  2.8548  0.8368
   66SAPC    HY 5442   3.319   6.060   2.653  0.5886 -0.6833  2.5780
   66SAPC   O31 5443   3.209   5.877   2.713  0.2134  0.4019 -0.1256
   66SAPC   C31 5444   3.200   5.913   2.839 -0.7503  0.5545  0.6927
   66SAPC   O32 5445   3.254   6.011   2.886 -0.1296  0.0540 -0.0875
   66SAPC   C32 5446   3.108   5.812   2.898  0.1949  0.8323  0.3669
   66SAPC   H2X 5447   3.020   5.808   2.831 -0.1811  1.3723  0.8193
   66SAPC   H2Y 5448   3.074   5.865   2.989  0.9881  0.5604  0.8408
   66SAPC   C23 5449   3.677   6.104   2.990 -0.2649 -0.2912 -0.0797
   66SAPC   H3R 5450   3.714   6.170   2.909  2.2704  0.1577  1.3351
   66SAPC   H3S 5451   3.769   6.086   3.051  0.5088  2.0411 -0.4744
   66SAPC   C24 5452   3.573   6.158   3.083 -0.6250  0.6943  0.7126
   66SAPC   H4R 5453   3.483   6.186   3.024  0.4069 -0.4727 -1.5343
   66SAPC   H4S 5454   3.603   6.256   3.127  1.0806 -0.1738  1.6106
   66SAPC   C25 5455   3.526   6.052   3.177 -0.3935 -0.3119  0.7272
   66SAPC   H5R 5456   3.453   5.985   3.128  0.0705 -0.5011  0.2905
   66SAPC   C26 5457   3.542   6.038   3.317  0.3131 -0.0912  0.1975
   66SAPC   H6R 5458   3.510   5.947   3.370 -1.2185  0.5168  0.3536
   66SAPC   C27 5459   3.631   6.128   3.404  0.3101 -0.2357  0.5889
   66SAPC   H7R 5460   3.569   6.187   3.476  0.1651  1.9633 -1.2232
   66SAPC   H7S 5461   3.676   6.207   3.340 -1.0768 -0.3964 -0.6293
   66SAPC   C28 5462   3.742   6.060   3.481 -0.7525  0.1682  0.1075
   66SAPC   H8R 5463   3.827   6.027   3.421  0.3687  0.4096  1.5109
   66SAPC   C29 5464   3.738   6.031   3.614 -0.5230  0.2067  0.1133
   66SAPC   H9R 5465   3.814   5.964   3.655 -2.9667 -2.5948  0.3538
   66SAPC  C210 5466   3.629   6.067   3.703 -0.0293 -0.4416 -0.1711
   66SAPC  H10R 5467   3.643   5.987   3.778 -0.1419 -1.0734 -0.8129
   66SAPC  H10S 5468   3.532   6.037   3.659 -1.0968 -0.2620  1.9402
   66SAPC  C211 5469   3.617   6.212   3.750 -0.8285 -0.2036 -0.8268
   66SAPC  H11R 5470   3.654   6.286   3.678  0.7942  0.1496  0.2884
   66SAPC  C212 5471   3.562   6.247   3.872  0.0604  0.0221 -0.7039
   66SAPC  H12R 5472   3.559   6.354   3.897 -1.3375 -0.0127 -0.6524
   66SAPC  C213 5473   3.507   6.150   3.979 -0.7253 -0.6570  0.5136
   66SAPC  H13R 5474   3.596   6.098   4.021  0.6671 -0.2446 -1.7650
   66SAPC  H13S 5475   3.445   6.072   3.930  0.3003 -0.0080 -2.0204
   66SAPC  C214 5476   3.417   6.220   4.081 -0.2847 -0.4401 -0.6643
   66SAPC  H14R 5477   3.320   6.254   4.041 -0.8671 -0.3776  0.7594
   66SAPC  C215 5478   3.439   6.209   4.210 -0.3912  0.6712 -0.4604
   66SAPC  H15R 5479   3.376   6.267   4.279 -0.4632  3.0731 -2.4195
   66SAPC  C216 5480   3.552   6.148   4.279 -0.0553  0.4439  0.1831
   66SAPC  H16R 5481   3.638   6.215   4.259 -2.1078  3.0831 -0.5055
   66SAPC  H16S 5482   3.550   6.043   4.243 -1.6837  0.7958 -0.8433
   66SAPC  C217 5483   3.543   6.125   4.431 -0.0942 -0.1662 -0.7390
   66SAPC  H17R 5484   3.618   6.044   4.448  0.1578 -0.1877 -1.9132
   66SAPC  H17S 5485   3.444   6.085   4.464 -1.0414  1.0125 -2.0410
   66SAPC  C218 5486   3.578   6.240   4.520  0.2287 -0.5624  0.6056
   66SAPC  H18R 5487   3.497   6.316   4.509 -1.1702 -1.9030  1.2739
   66SAPC  H18S 5488   3.669   6.293   4.484 -0.6432  3.5643  3.6817
   66SAPC  C219 5489   3.597   6.204   4.668 -0.3044  0.0926 -0.0813
   66SAPC  H19R 5490   3.640   6.287   4.728  1.8604 -2.4530  2.1059
   66SAPC  H19S 5491   3.669   6.120   4.664  0.6924  0.9424 -0.2426
   66SAPC  C220 5492   3.472   6.151   4.751 -0.1326  0.3776  0.4927
   66SAPC  H20R 5493   3.410   6.085   4.687  1.3752 -1.1938  0.5775
   66SAPC  H20S 5494   3.414   6.236   4.794 -0.1923  1.6065 -1.8655
   66SAPC  H20T 5495   3.509   6.087   4.834  2.1207  2.0251  0.8750
   66SAPC   C33 5496   3.148   5.668   2.922  0.1842  0.2883  0.0892
   66SAPC   H3X 5497   3.139   5.614   2.825 -1.2594 -0.0923  0.4239
   66SAPC   H3Y 5498   3.084   5.610   2.992  1.4707 -2.8655 -1.1288
   66SAPC   C34 5499   3.291   5.645   2.963  0.4889  0.0507 -0.7215
   66SAPC   H4X 5500   3.345   5.672   2.870  0.6659 -3.5514 -1.7999
   66SAPC   H4Y 5501   3.308   5.537   2.984 -2.0278 -0.3797 -0.4747
   66SAPC   C35 5502   3.335   5.733   3.087 -0.1503  0.4102 -0.7590
   66SAPC   H5X 5503   3.319   5.840   3.065 -0.5752  0.4579 -0.2307
   66SAPC   H5Y 5504   3.441   5.713   3.114  0.1029  0.4789 -1.6848
   66SAPC   C36 5505   3.250   5.688   3.207 -0.1926 -0.6368 -0.0512
   66SAPC   H6X 5506   3.276   5.583   3.234 -0.5424 -0.3108  1.6872
   66SAPC   H6Y 5507   3.139   5.691   3.209 -0.4557 -4.6668  0.1311
   66SAPC   C37 5508   3.296   5.779   3.321  0.3375  0.5623  0.6737
   66SAPC   H7X 5509   3.275   5.877   3.273 -0.3707 -0.4598 -1.2509
   66SAPC   H7Y 5510   3.404   5.762   3.336  0.4486  1.3053  0.7429
   66SAPC   C38 5511   3.216   5.752   3.454  0.0031 -0.8134 -0.0139
   66SAPC   H8X 5512   3.232   5.645   3.481 -0.3283 -0.8092  0.1972
   66SAPC   H8Y 5513   3.108   5.777   3.459  0.1842  0.2717 -1.1035
   66SAPC   C39 5514   3.268   5.838   3.572 -0.6966 -0.1977  0.5296
   66SAPC   H9X 5515   3.231   5.941   3.554  1.4089  0.4839 -0.3207
   66SAPC   H9Y 5516   3.379   5.835   3.571 -0.7108 -1.3956  0.1021
   66SAPC  C310 5517   3.220   5.786   3.709 -0.4762 -0.3902  0.5132
   66SAPC  H10X 5518   3.269   5.686   3.717  0.9086 -0.1682 -3.2135
   66SAPC  H10Y 5519   3.110   5.769   3.701 -0.2529 -1.5722 -0.3139
   66SAPC  C311 5520   3.256   5.887   3.823 -0.5312 -0.8613 -0.5134
   66SAPC  H11X 5521   3.195   5.979   3.814 -0.9255 -1.1535 -0.8609
   66SAPC  H11Y 5522   3.361   5.921   3.809 -0.4549 -0.8554  0.0738
   66SAPC  C312 5523   3.231   5.822   3.957  0.9661 -0.0019  0.3040
   66SAPC  H12X 5524   3.285   5.725   3.955  1.9293  0.5052 -2.2263
   66SAPC  H12Y 5525   3.122   5.802   3.969  1.1752 -0.9091  0.7164
   66SAPC  C313 5526   3.281   5.894   4.081  0.9211 -0.3381  0.5098
   66SAPC  H13X 5527   3.245   5.999   4.089  0.9271 -0.4681  3.1325
   66SAPC  H13Y 5528   3.392   5.901   4.082  0.9717  0.0280 -1.9488
   66SAPC  C314 5529   3.240   5.816   4.204  0.0112  0.0359  0.1954
   66SAPC  H14X 5530   3.295   5.720   4.198  2.5780  1.4703 -0.8506
   66SAPC  H14Y 5531   3.130   5.799   4.204  0.2862 -2.0509  0.3782
   66SAPC  C315 5532   3.282   5.884   4.335  0.4174 -0.1700 -0.9698
   66SAPC  H15X 5533   3.232   5.984   4.336  0.9536  0.0957 -0.2131
   66SAPC  H15Y 5534   3.392   5.900   4.338  0.5926 -1.2024 -1.3225
   66SAPC  C316 5535   3.229   5.805   4.460 -0.4416  0.5222  0.0564
   66SAPC  H16X 5536   3.265   5.700   4.454  2.1636  1.3649  0.1200
   66SAPC  H16Y 5537   3.118   5.811   4.450 -0.2709  1.0559 -2.0688
   66SAPC  C317 5538   3.280   5.859   4.593  0.5126 -0.1747  0.2326
   66SAPC  H17X 5539   3.208   5.937   4.625  1.8529  1.0272  0.4028
   66SAPC  H17Y 5540   3.382   5.897   4.572  1.1748 -1.0147  1.7922
   66SAPC  C318 5541   3.294   5.743   4.688  0.4259 -0.3439 -0.4301
   66SAPC  H18X 5542   3.322   5.762   4.794 -2.3624 -1.9959  0.7207
   66SAPC  H18Y 5543   3.365   5.668   4.648  0.8336 -0.4342  0.4431
   66SAPC  H18Z 5544   3.197   5.688   4.694  0.1946  0.1942  1.8702
   67SAPC     N 5545   2.857   5.101   1.989  0.9696  0.3835 -0.5620
   67SAPC   C12 5546   2.906   5.019   2.106  0.6363  0.1104 -0.1825
   67SAPC  H12A 5547   2.870   5.059   2.200  0.9579 -1.2331  0.5349
   67SAPC  H12B 5548   3.011   5.037   2.126  0.1250  0.1213  2.9832
   67SAPC   C13 5549   2.710   5.129   2.003  0.2219  0.5570 -0.5509
   67SAPC  H13A 5550   2.653   5.040   2.026  1.6405 -0.7611 -1.8694
   67SAPC  H13B 5551   2.691   5.189   2.090 -0.3225 -0.7363  0.2456
   67SAPC  H13C 5552   2.672   5.184   1.918 -0.6142  0.2861 -0.3517
   67SAPC   C14 5553   2.940   5.229   2.001  0.4510  0.2322 -0.3257
   67SAPC  H14A 5554   2.916   5.278   2.095  2.0859  0.0723  0.2042
   67SAPC  H14B 5555   3.044   5.203   2.010  0.0665 -1.0733  0.8731
   67SAPC  H14C 5556   2.927   5.291   1.914 -0.9542 -1.7413 -1.6230
   67SAPC   C15 5557   2.895   5.036   1.856  0.0074 -0.6287  0.1525
   67SAPC  H15A 5558   2.867   5.101   1.775  0.7251  1.4173  1.4828
   67SAPC  H15B 5559   3.000   5.013   1.848  0.4154  1.0034  0.4888
   67SAPC  H15C 5560   2.848   4.939   1.849  1.3614 -1.6193  3.0674
   67SAPC   C11 5561   2.884   4.871   2.119  0.3305  0.4583  0.0042
   67SAPC  H11A 5562   2.937   4.809   2.044 -1.1526  0.4757 -1.0869
   67SAPC  H11B 5563   2.777   4.849   2.105  0.4932  0.3538 -1.1845
   67SAPC     P 5564   3.066   4.777   2.290 -0.0083  0.2544 -0.1932
   67SAPC   O13 5565   3.057   4.628   2.293  0.3703  0.2327 -0.4848
   67SAPC   O14 5566   3.171   4.834   2.204 -0.2216 -0.1866  0.6414
   67SAPC   O12 5567   2.919   4.832   2.253 -0.3477 -0.6133  0.1792
   67SAPC   O11 5568   3.083   4.815   2.439  0.0221 -0.5975 -0.4786
   67SAPC    C1 5569   2.975   4.807   2.531 -0.2498  0.4884 -0.4594
   67SAPC    HA 5570   2.883   4.851   2.488 -1.6197 -1.5566  0.2613
   67SAPC    HB 5571   2.960   4.700   2.558 -0.5136  0.6881  0.1935
   67SAPC    C2 5572   2.999   4.882   2.668  0.6887  0.1697 -0.4375
   67SAPC    HS 5573   3.052   4.976   2.640 -0.9207  1.9223  1.9277
   67SAPC   O21 5574   3.081   4.796   2.752  0.4719  0.7453 -0.0504
   67SAPC   C21 5575   3.171   4.856   2.828 -0.1213 -0.4112  0.1240
   67SAPC   O22 5576   3.192   4.980   2.838 -0.0529  0.3191 -0.4441
   67SAPC   C22 5577   3.250   4.746   2.904 -0.1640 -0.0630  0.0426
   67SAPC   H2R 5578   3.283   4.668   2.832  2.2109  1.1145 -0.2735
   67SAPC   H2S 5579   3.345   4.795   2.936 -0.5365  0.1267  0.8853
   67SAPC    C3 5580   2.870   4.925   2.744  0.7775  0.6145  0.4488
   67SAPC    HX 5581   2.802   4.837   2.746  1.2253  0.1515 -1.8537
   67SAPC    HY 5582   2.815   5.000   2.681 -0.9177 -1.5724 -0.8197
   67SAPC   O31 5583   2.892   4.965   2.882  0.2626  0.3707  0.5790
   67SAPC   C31 5584   2.873   5.098   2.910 -1.2198 -0.1588 -0.5000
   67SAPC   O32 5585   2.841   5.183   2.833  0.4123 -0.6463  0.2165
   67SAPC   C32 5586   2.868   5.118   3.064  0.4227  0.4679  0.2298
   67SAPC   H2X 5587   2.796   5.201   3.083  0.6394  0.2094  2.3511
   67SAPC   H2Y 5588   2.966   5.148   3.105  1.3571 -0.3640 -1.3053
   67SAPC   C23 5589   3.173   4.696   3.022 -0.6992 -0.2143 -0.3713
   67SAPC   H3R 5590   3.091   4.640   2.973 -1.6743  3.3748 -3.2515
   67SAPC   H3S 5591   3.134   4.782   3.080 -0.4221  0.9587 -1.8670
   67SAPC   C24 5592   3.249   4.593   3.108  0.0352  0.3308  0.7585
   67SAPC   H4R 5593   3.294   4.517   3.042 -0.6609  1.7133 -1.4203
   67SAPC   H4S 5594   3.172   4.548   3.174 -1.6107 -1.5859 -2.2352
   67SAPC   C25 5595   3.372   4.644   3.185 -0.3260  0.2921 -0.1187
   67SAPC   H5R 5596   3.469   4.645   3.134 -1.0589  0.5219 -1.5712
   67SAPC   C26 5597   3.370   4.666   3.318 -0.2553  0.3204  0.2742
   67SAPC   H6R 5598   3.456   4.718   3.363 -1.9765  2.0622  1.7175
   67SAPC   C27 5599   3.257   4.675   3.418  0.2529 -0.1003  0.1418
   67SAPC   H7R 5600   3.258   4.577   3.470  0.1503  0.8376  1.9842
   67SAPC   H7S 5601   3.156   4.693   3.376 -0.2666  0.5010  1.6225
   67SAPC   C28 5602   3.285   4.789   3.515  0.3375  0.3757  0.2632
   67SAPC   H8R 5603   3.335   4.877   3.472 -2.8660  1.3917 -1.7830
   67SAPC   C29 5604   3.254   4.796   3.649  0.1527  0.1582 -0.2057
   67SAPC   H9R 5605   3.295   4.883   3.703 -0.7803  0.1975  0.4679
   67SAPC  C210 5606   3.194   4.693   3.739 -0.7293 -0.0464 -0.2800
   67SAPC  H10R 5607   3.265   4.665   3.820 -1.1805 -1.7511 -0.4320
   67SAPC  H10S 5608   3.177   4.593   3.693 -1.1887 -0.5868  0.9906
   67SAPC  C211 5609   3.071   4.760   3.790  0.4382 -0.2429  0.5567
   67SAPC  H11R 5610   2.983   4.748   3.725  0.2807  0.8950  0.5304
   67SAPC  C212 5611   3.047   4.808   3.915 -0.3966  0.1703 -0.1393
   67SAPC  H12R 5612   2.957   4.863   3.946  0.2503 -0.3165  3.0144
   67SAPC  C213 5613   3.160   4.841   4.010 -0.9112 -0.4397  0.0376
   67SAPC  H13R 5614   3.260   4.821   3.964  0.7366  3.7819  1.2868
   67SAPC  H13S 5615   3.159   4.766   4.092 -1.1967  1.6816  2.0708
   67SAPC  C214 5616   3.150   4.976   4.072  0.0583 -0.1777  0.4117
   67SAPC  H14R 5617   3.183   5.053   4.001  1.4117 -1.3376 -0.2742
   67SAPC  C215 5618   3.111   5.012   4.193  0.7990  0.2163 -0.1568
   67SAPC  H15R 5619   3.124   5.117   4.223 -1.4595  0.4925  0.0518
   67SAPC  C216 5620   3.062   4.921   4.299  0.1687  0.3538 -0.8331
   67SAPC  H16R 5621   3.135   4.916   4.383 -0.7863 -0.2508 -0.0208
   67SAPC  H16S 5622   3.050   4.816   4.266 -2.4245 -0.2127  1.5723
   67SAPC  C217 5623   2.925   4.954   4.370 -1.1010 -0.1824  0.2068
   67SAPC  H17R 5624   2.901   4.867   4.434 -0.0234 -1.4362 -1.0138
   67SAPC  H17S 5625   2.857   4.967   4.283 -0.0082 -0.1709 -0.6813
   67SAPC  C218 5626   2.912   5.076   4.459  0.3192  0.1332  0.3034
   67SAPC  H18R 5627   2.930   5.171   4.405 -1.1950 -0.4339 -1.2888
   67SAPC  H18S 5628   2.989   5.063   4.538  0.4503 -0.9352  0.0203
   67SAPC  C219 5629   2.768   5.088   4.522  0.0057  0.0079 -0.1933
   67SAPC  H19R 5630   2.749   4.992   4.575  1.6496 -0.0593  0.3029
   67SAPC  H19S 5631   2.689   5.092   4.443  0.4062  0.9259 -0.5629
   67SAPC  C220 5632   2.766   5.201   4.623  0.0586  0.4867  0.1410
   67SAPC  H20R 5633   2.661   5.206   4.659  0.9700 -0.6343  3.3024
   67SAPC  H20S 5634   2.783   5.305   4.587 -0.6423  0.0384 -1.5694
   67SAPC  H20T 5635   2.835   5.173   4.705 -0.5910 -1.1502  0.1622
   67SAPC   C33 5636   2.816   4.995   3.148 -0.1128 -0.0435 -0.0073
   67SAPC   H3X 5637   2.893   4.918   3.125  0.7720  0.0913  2.2665
   67SAPC   H3Y 5638   2.716   4.979   3.102 -0.3774 -0.3799  0.6721
   67SAPC   C34 5639   2.811   5.037   3.295 -0.8502  0.5805  0.7794
   67SAPC   H4X 5640   2.730   5.110   3.316 -0.6113  0.2271  3.3446
   67SAPC   H4Y 5641   2.907   5.086   3.323  0.3716 -0.2461 -1.6598
   67SAPC   C35 5642   2.796   4.917   3.387  0.0631 -0.0839 -0.3414
   67SAPC   H5X 5643   2.877   4.843   3.366  0.8372  0.5614  0.2811
   67SAPC   H5Y 5644   2.698   4.867   3.374 -0.8380  1.5519  0.0122
   67SAPC   C36 5645   2.805   4.957   3.535  0.3299  0.2555 -0.6291
   67SAPC   H6X 5646   2.908   4.988   3.562  0.1904 -0.2675  0.5521
   67SAPC   H6Y 5647   2.792   4.859   3.586  0.4698 -0.7541 -2.4358
   67SAPC   C37 5648   2.694   5.065   3.584 -0.0441  0.0896  0.3838
   67SAPC   H7X 5649   2.612   4.999   3.618  0.5670 -0.9043 -0.0130
   67SAPC   H7Y 5650   2.666   5.136   3.504  0.0108 -1.4704 -1.1010
   67SAPC   C38 5651   2.745   5.146   3.706  0.0344  0.4769 -0.1651
   67SAPC   H8X 5652   2.664   5.212   3.744 -0.0869  1.3436 -1.8192
   67SAPC   H8Y 5653   2.821   5.220   3.674 -0.3686  1.5494  1.2565
   67SAPC   C39 5654   2.809   5.064   3.822  0.4313  0.0170  0.1130
   67SAPC   H9X 5655   2.898   5.019   3.773 -1.1200 -2.0291 -0.9745
   67SAPC   H9Y 5656   2.749   4.971   3.838  0.6980 -0.4350 -1.4255
   67SAPC  C310 5657   2.833   5.146   3.957  0.6060 -0.4517 -0.0142
   67SAPC  H10X 5658   2.892   5.238   3.940 -2.8809  2.1015  0.7633
   67SAPC  H10Y 5659   2.878   5.075   4.030 -3.0698 -2.9665  0.0590
   67SAPC  C311 5660   2.700   5.176   4.025 -0.6812 -0.0333  0.4433
   67SAPC  H11X 5661   2.648   5.085   4.059  0.9951 -1.0180  0.4918
   67SAPC  H11Y 5662   2.633   5.216   3.945 -0.0308 -2.6084 -1.5176
   67SAPC  C312 5663   2.719   5.276   4.137  0.6741  0.4854 -0.1886
   67SAPC  H12X 5664   2.796   5.349   4.104  1.3682  0.1339  0.6258
   67SAPC  H12Y 5665   2.760   5.227   4.228 -1.4632  1.2058  1.2370
   67SAPC  C313 5666   2.586   5.351   4.179 -0.8277  0.3282  0.0271
   67SAPC  H13X 5667   2.498   5.325   4.116 -1.0098  1.2360 -0.1035
   67SAPC  H13Y 5668   2.585   5.462   4.183 -1.7552  0.2979  1.3872
   67SAPC  C314 5669   2.558   5.316   4.326 -0.0358  0.4978  0.7132
   67SAPC  H14X 5670   2.635   5.367   4.389 -1.7157  0.0744  3.2701
   67SAPC  H14Y 5671   2.570   5.206   4.333 -2.3225 -0.0667 -2.3820
   67SAPC  C315 5672   2.419   5.360   4.378  0.1504  0.4421  0.7617
   67SAPC  H15X 5673   2.347   5.307   4.311  0.5131  1.6606 -0.6442
   67SAPC  H15Y 5674   2.406   5.470   4.368  2.1534  0.6822  0.4011
   67SAPC  C316 5675   2.414   5.318   4.525  0.3385  0.3133  0.8939
   67SAPC  H16X 5676   2.515   5.348   4.560  0.3446 -0.2334  1.3656
   67SAPC  H16Y 5677   2.415   5.207   4.534  0.9365  0.1797 -0.4847
   67SAPC  C317 5678   2.297   5.368   4.623  0.0604 -0.1427  1.1893
   67SAPC  H17X 5679   2.289   5.478   4.608 -0.8584 -0.5060 -1.4674
   67SAPC  H17Y 5680   2.324   5.349   4.729 -1.4469 -0.9138  1.4590
   67SAPC  C318 5681   2.156   5.305   4.600  0.0029  0.3367  0.1113
   67SAPC  H18X 5682   2.079   5.328   4.677  2.6843 -0.7273  3.3400
   67SAPC  H18Y 5683   2.162   5.194   4.598 -1.3804  0.2055  1.3141
   67SAPC  H18Z 5684   2.121   5.339   4.501  0.1918  0.4570  0.0871
   68SAPC     N 5685   5.342   0.842   2.537  0.3398  0.4293 -0.3953
   68SAPC   C12 5686   5.342   0.850   2.688 -0.1785  0.0098  0.5366
   68SAPC  H12A 5687   5.362   0.950   2.724 -0.3607  1.6369 -3.3095
   68SAPC  H12B 5688   5.418   0.787   2.730  1.3490  1.3639 -0.0925
   68SAPC   C13 5689   5.299   0.706   2.496  0.0658  0.6348 -0.1947
   68SAPC  H13A 5690   5.328   0.621   2.556 -0.6251 -2.1746 -3.5229
   68SAPC  H13B 5691   5.192   0.700   2.508  0.1372 -0.3231  0.0655
   68SAPC  H13C 5692   5.315   0.686   2.391  0.0264  1.1458 -0.3014
   68SAPC   C14 5693   5.259   0.946   2.474  0.4545 -0.3393 -0.6958
   68SAPC  H14A 5694   5.297   1.047   2.478 -1.0201  0.2630 -1.1558
   68SAPC  H14B 5695   5.235   0.930   2.369 -1.4553 -0.6355 -0.2527
   68SAPC  H14C 5696   5.165   0.946   2.527  2.1492 -0.5120  2.4965
   68SAPC   C15 5697   5.480   0.864   2.480  0.0889 -0.2233  0.3200
   68SAPC  H15A 5698   5.532   0.948   2.524 -0.9434  1.4477 -1.5199
   68SAPC  H15B 5699   5.541   0.778   2.504 -1.7827 -2.0391 -0.9955
   68SAPC  H15C 5700   5.480   0.860   2.372 -0.5266 -1.9151  0.3401
   68SAPC   C11 5701   5.212   0.816   2.762  0.0041 -0.8400 -0.2039
   68SAPC  H11A 5702   5.238   0.811   2.870  1.5213  1.8408 -0.3612
   68SAPC  H11B 5703   5.173   0.719   2.724 -0.2613 -0.3063 -1.3295
   68SAPC     P 5704   5.113   1.052   2.839 -0.2487  0.0424  0.0419
   68SAPC   O13 5705   5.237   1.127   2.816  0.3773 -0.2150 -0.9114
   68SAPC   O14 5706   4.989   1.128   2.816 -0.4765  0.4824  0.3377
   68SAPC   O12 5707   5.110   0.919   2.748  0.3629 -0.3052  0.3621
   68SAPC   O11 5708   5.110   0.995   2.987  0.7803  0.5311 -0.3031
   68SAPC    C1 5709   5.167   1.073   3.093 -0.7120  0.2246  0.7310
   68SAPC    HA 5710   5.278   1.074   3.083 -0.7081  1.5637  0.6446
   68SAPC    HB 5711   5.149   1.183   3.090  1.6170  0.6515 -0.7085
   68SAPC    C2 5712   5.139   1.024   3.246 -0.1793  0.6660  0.5662
   68SAPC    HS 5713   5.226   1.052   3.309 -1.1704  0.8478  1.9091
   68SAPC   O21 5714   5.108   0.880   3.258  0.1206 -0.2538  0.0221
   68SAPC   C21 5715   5.202   0.800   3.210  0.1028 -0.4711  0.7552
   68SAPC   O22 5716   5.311   0.833   3.169  0.0279 -0.5202 -1.0068
   68SAPC   C22 5717   5.153   0.664   3.206  0.6787  0.8102 -0.3430
   68SAPC   H2R 5718   5.053   0.650   3.252  0.3927  1.1306 -0.8549
   68SAPC   H2S 5719   5.122   0.637   3.103  1.1943 -1.4884  0.0489
   68SAPC    C3 5720   5.014   1.091   3.304  0.6049  0.2541  0.3505
   68SAPC    HX 5721   5.028   1.201   3.310 -0.5928  0.5278 -1.2649
   68SAPC    HY 5722   5.013   1.057   3.410  1.6996 -2.6123 -0.4541
   68SAPC   O31 5723   4.891   1.054   3.241 -0.2215 -0.1094 -0.2316
   68SAPC   C31 5724   4.846   1.124   3.140  0.1240  0.5811 -0.0865
   68SAPC   O32 5725   4.889   1.228   3.099 -0.4751 -0.1578  0.0843
   68SAPC   C32 5726   4.734   1.046   3.069 -0.8813 -0.1035  0.1927
   68SAPC   H2X 5727   4.779   1.016   2.972 -1.0906 -0.0328  0.0755
   68SAPC   H2Y 5728   4.662   1.124   3.037  0.1473  0.2748 -1.2932
   68SAPC   C23 5729   5.266   0.567   3.250 -0.1257  0.0633 -0.5431
   68SAPC   H3R 5730   5.359   0.584   3.192  0.3175  0.6090  0.2922
   68SAPC   H3S 5731   5.237   0.461   3.230 -0.2312 -0.5014  2.1849
   68SAPC   C24 5732   5.300   0.592   3.402 -0.1821  0.4131 -0.5226
   68SAPC   H4R 5733   5.312   0.698   3.431 -0.0816  0.0380  0.9025
   68SAPC   H4S 5734   5.399   0.544   3.415 -0.3927  0.2164  0.4119
   68SAPC   C25 5735   5.213   0.529   3.509  0.3181 -0.4475 -0.3286
   68SAPC   H5R 5736   5.234   0.425   3.539 -0.0944  0.1929  2.4825
   68SAPC   C26 5737   5.099   0.581   3.565  0.2878  0.2602  0.0855
   68SAPC   H6R 5738   5.044   0.513   3.633  0.1061  0.2747 -0.0466
   68SAPC   C27 5739   5.058   0.725   3.557  0.5194  0.1825 -0.1206
   68SAPC   H7R 5740   5.122   0.790   3.492 -0.2019  1.9185  0.8306
   68SAPC   H7S 5741   5.063   0.765   3.660  0.0638  0.2732 -0.1340
   68SAPC   C28 5742   4.908   0.752   3.525 -0.8161  0.7851  0.2938
   68SAPC   H8R 5743   4.887   0.802   3.429  0.2313  0.8971  0.1102
   68SAPC   C29 5744   4.804   0.754   3.610  0.6609  0.1272  0.0885
   68SAPC   H9R 5745   4.705   0.779   3.569  0.0161  0.6430  1.8409
   68SAPC  C210 5746   4.807   0.707   3.754 -0.0991 -0.4900 -0.0747
   68SAPC  H10R 5747   4.878   0.622   3.757  1.5459  0.8645  0.9324
   68SAPC  H10S 5748   4.703   0.677   3.780 -1.8284  3.2817 -1.8812
   68SAPC  C211 5749   4.858   0.819   3.839 -0.3538  0.0105 -0.4369
   68SAPC  H11R 5750   4.868   0.914   3.785  0.5149  0.4009  0.3999
   68SAPC  C212 5751   4.896   0.805   3.968 -0.2906  0.2315  0.4753
   68SAPC  H12R 5752   4.938   0.897   4.010  0.8061  1.5095 -3.0098
   68SAPC  C213 5753   4.895   0.684   4.048  0.7253 -0.0715 -0.5211
   68SAPC  H13R 5754   4.969   0.694   4.130 -0.5210 -0.5449  0.6905
   68SAPC  H13S 5755   4.934   0.596   3.992 -0.9678 -0.8838 -0.4719
   68SAPC  C214 5756   4.759   0.650   4.109 -0.1739 -0.4678 -0.1156
   68SAPC  H14R 5757   4.680   0.646   4.033  0.9142 -2.0098 -1.2047
   68SAPC  C215 5758   4.725   0.584   4.223 -0.3923  0.4828  0.2374
   68SAPC  H15R 5759   4.621   0.569   4.257 -0.3636  0.3236  0.2523
   68SAPC  C216 5760   4.816   0.551   4.340 -0.6037 -0.2907  0.6525
   68SAPC  H16R 5761   4.896   0.628   4.337  0.3168 -1.2319 -1.8259
   68SAPC  H16S 5762   4.857   0.450   4.318  1.2226  0.5050  0.1931
   68SAPC  C217 5763   4.733   0.531   4.472 -0.8546  0.6852  0.1571
   68SAPC  H17R 5764   4.675   0.437   4.455 -0.0671  0.3394 -0.7167
   68SAPC  H17S 5765   4.660   0.614   4.486 -1.7599 -0.2420  1.1426
   68SAPC  C218 5766   4.818   0.518   4.605  0.0775  0.0793 -0.2813
   68SAPC  H18R 5767   4.886   0.431   4.592 -0.5567 -0.4655 -0.0073
   68SAPC  H18S 5768   4.742   0.506   4.685 -0.6233  0.3978 -0.8818
   68SAPC  C219 5769   4.898   0.640   4.639 -0.4557 -0.0606 -0.2715
   68SAPC  H19R 5770   4.824   0.722   4.640 -0.3784  0.0082  0.4914
   68SAPC  H19S 5771   4.967   0.672   4.558  1.7550  0.2874  1.6052
   68SAPC  C220 5772   4.977   0.623   4.759  0.5810  0.6264 -0.5421
   68SAPC  H20R 5773   5.057   0.546   4.748  2.1066  1.7331  1.9329
   68SAPC  H20S 5774   4.921   0.588   4.849  2.0486  0.1594  0.2248
   68SAPC  H20T 5775   5.030   0.719   4.777  0.2624  1.1301 -2.1052
   68SAPC   C33 5776   4.674   0.928   3.138  0.7880  0.1058  0.5875
   68SAPC   H3X 5777   4.737   0.837   3.144 -0.9672 -1.0400  3.9915
   68SAPC   H3Y 5778   4.592   0.904   3.067  0.7716 -0.2827  0.7396
   68SAPC   C34 5779   4.627   0.950   3.286  0.4218 -0.3114  0.4651
   68SAPC   H4X 5780   4.713   0.955   3.357 -0.3791  0.3376  1.4199
   68SAPC   H4Y 5781   4.566   0.864   3.321  1.6343 -0.5508  2.1449
   68SAPC   C35 5782   4.526   1.071   3.296 -0.1733 -1.1235 -0.4143
   68SAPC   H5X 5783   4.445   1.054   3.223 -0.3219  1.5492 -0.9687
   68SAPC   H5Y 5784   4.582   1.160   3.261  1.4375 -2.4619 -1.3836
   68SAPC   C36 5785   4.480   1.096   3.439  0.0256  1.0265  0.0585
   68SAPC   H6X 5786   4.398   1.170   3.430 -1.3057 -0.5044 -0.9390
   68SAPC   H6Y 5787   4.552   1.153   3.501 -1.6502  2.5281  0.6986
   68SAPC   C37 5788   4.421   0.980   3.521  0.3795  0.1161 -0.8273
   68SAPC   H7X 5789   4.474   0.884   3.501  0.7459  0.7356 -3.0687
   68SAPC   H7Y 5790   4.315   0.960   3.494  0.2784  0.5586 -0.7674
   68SAPC   C38 5791   4.423   0.999   3.672  0.7719 -0.3710  0.2444
   68SAPC   H8X 5792   4.343   1.071   3.699  0.9119 -0.3007  0.4665
   68SAPC   H8Y 5793   4.521   1.033   3.711  2.1038 -2.8606 -0.7361
   68SAPC   C39 5794   4.401   0.870   3.751  0.3043  0.0342 -0.2994
   68SAPC   H9X 5795   4.463   0.784   3.719  1.0157  0.2885  0.3427
   68SAPC   H9Y 5796   4.296   0.837   3.734  0.8139 -2.6846  1.2202
   68SAPC  C310 5797   4.404   0.892   3.904 -0.2675 -0.1486  0.5833
   68SAPC  H10X 5798   4.378   0.998   3.922  0.0338  0.0997 -0.3899
   68SAPC  H10Y 5799   4.509   0.889   3.940 -0.0332 -1.2942 -0.1462
   68SAPC  C311 5800   4.315   0.804   3.986  0.7274 -0.4262 -0.7813
   68SAPC  H11X 5801   4.343   0.697   3.975 -2.6318 -2.3568  4.9567
   68SAPC  H11Y 5802   4.208   0.813   3.954  0.5296  0.4424  0.0927
   68SAPC  C312 5803   4.331   0.828   4.138 -0.1648 -0.5678 -0.1941
   68SAPC  H12X 5804   4.300   0.929   4.173  0.4354 -1.0482  1.9386
   68SAPC  H12Y 5805   4.438   0.813   4.168 -0.5795 -0.9903  1.1894
   68SAPC  C313 5806   4.249   0.731   4.230 -0.2643  0.6172  0.1401
   68SAPC  H13X 5807   4.252   0.624   4.200  2.9484  0.6862 -0.0699
   68SAPC  H13Y 5808   4.139   0.747   4.218 -0.9461 -3.9513 -1.9264
   68SAPC  C314 5809   4.269   0.747   4.375  0.2449  0.3172  0.4677
   68SAPC  H14X 5810   4.214   0.839   4.403 -1.6289  0.0921 -2.0758
   68SAPC  H14Y 5811   4.376   0.765   4.402  0.0535  2.9131 -0.2235
   68SAPC  C315 5812   4.197   0.642   4.456 -0.0877 -0.3114 -0.4584
   68SAPC  H15X 5813   4.227   0.539   4.424 -1.2240 -0.3364 -1.5052
   68SAPC  H15Y 5814   4.087   0.649   4.443 -0.3316 -0.7025  1.1867
   68SAPC  C316 5815   4.230   0.654   4.607 -0.5633 -0.0132  0.5306
   68SAPC  H16X 5816   4.171   0.582   4.668 -0.5353 -0.7711 -0.3266
   68SAPC  H16Y 5817   4.208   0.758   4.639 -0.1072  0.0777  0.5509
   68SAPC  C317 5818   4.372   0.597   4.627  0.1032  0.0388 -0.1958
   68SAPC  H17X 5819   4.454   0.653   4.579  1.4397 -0.4603  1.4105
   68SAPC  H17Y 5820   4.381   0.493   4.589 -2.4634 -0.1525 -0.4654
   68SAPC  C318 5821   4.396   0.591   4.775 -0.2839  0.0372 -0.6090
   68SAPC  H18X 5822   4.500   0.558   4.797 -0.4948  0.6549  1.5567
   68SAPC  H18Y 5823   4.335   0.516   4.830  0.2401 -0.9007 -1.2925
   68SAPC  H18Z 5824   4.383   0.687   4.830 -2.0582  0.6058 -1.9319
   69SAPC     N 5825   1.492   2.746   2.730  0.0657  0.4189  0.0214
   69SAPC   C12 5826   1.635   2.699   2.775 -0.1019 -0.6219 -0.6324
   69SAPC  H12A 5827   1.640   2.697   2.882  0.6720  0.0073 -0.6457
   69SAPC  H12B 5828   1.694   2.782   2.738 -0.8676 -0.4242 -1.4378
   69SAPC   C13 5829   1.382   2.685   2.804 -0.5827 -0.2512 -0.3806
   69SAPC  H13A 5830   1.289   2.730   2.772 -1.5753 -2.1380 -0.2952
   69SAPC  H13B 5831   1.377   2.577   2.799 -2.2001 -0.1465 -1.8038
   69SAPC  H13C 5832   1.408   2.699   2.907 -0.8899  0.0991 -0.3486
   69SAPC   C14 5833   1.477   2.891   2.751  0.3343 -0.7401  0.4944
   69SAPC  H14A 5834   1.485   2.924   2.853  0.5380  0.8327 -0.0006
   69SAPC  H14B 5835   1.556   2.944   2.699 -0.0529  0.1233  0.7678
   69SAPC  H14C 5836   1.386   2.923   2.702  0.8479  0.7973  0.4994
   69SAPC   C15 5837   1.477   2.727   2.584 -0.6122 -0.1011 -0.0945
   69SAPC  H15A 5838   1.564   2.772   2.537  0.2119 -0.6645  0.8531
   69SAPC  H15B 5839   1.482   2.622   2.560  1.1436 -0.6237  2.2496
   69SAPC  H15C 5840   1.379   2.762   2.554 -0.6689  1.7314  1.9251
   69SAPC   C11 5841   1.699   2.565   2.722  0.1687  0.0409 -0.0459
   69SAPC  H11A 5842   1.808   2.564   2.743  0.3652 -0.7069 -1.0256
   69SAPC  H11B 5843   1.686   2.565   2.612 -0.3525  0.4851  0.0150
   69SAPC     P 5844   1.666   2.403   2.922 -0.1458  0.0221 -0.6902
   69SAPC   O13 5845   1.800   2.341   2.928  0.1400  0.2543 -0.0060
   69SAPC   O14 5846   1.641   2.523   3.005  0.7096  0.3847 -1.1431
   69SAPC   O12 5847   1.635   2.440   2.767 -0.3489 -0.9548 -1.1793
   69SAPC   O11 5848   1.566   2.284   2.944 -0.0944  0.3688 -0.3623
   69SAPC    C1 5849   1.427   2.307   2.981  0.2602 -0.0960 -0.7417
   69SAPC    HA 5850   1.414   2.417   2.986 -0.5295 -0.1808 -0.8348
   69SAPC    HB 5851   1.363   2.260   2.903  1.6250 -3.6694  0.0895
   69SAPC    C2 5852   1.383   2.218   3.101  0.0255  0.3827  0.2552
   69SAPC    HS 5853   1.279   2.236   3.137 -1.1720 -0.2802 -2.5563
   69SAPC   O21 5854   1.473   2.236   3.209  0.0985 -0.1643 -0.0762
   69SAPC   C21 5855   1.463   2.345   3.271  0.0359  0.5780 -0.5774
   69SAPC   O22 5856   1.360   2.410   3.280  0.1260 -0.0967 -0.3430
   69SAPC   C22 5857   1.599   2.394   3.328 -0.2125  0.7929  0.9437
   69SAPC   H2R 5858   1.643   2.300   3.368  0.2137  0.8719  0.6667
   69SAPC   H2S 5859   1.663   2.419   3.241  0.1461  0.1741  1.0175
   69SAPC    C3 5860   1.375   2.062   3.056  0.1164  0.3079  0.5200
   69SAPC    HX 5861   1.467   2.049   2.993 -0.4399  0.2907 -0.3099
   69SAPC    HY 5862   1.288   2.042   2.990 -0.9358  0.6424  1.7830
   69SAPC   O31 5863   1.378   1.968   3.166 -0.1066 -0.2464 -0.4311
   69SAPC   C31 5864   1.494   1.935   3.217 -0.1888  0.1966  0.0114
   69SAPC   O32 5865   1.607   1.956   3.174 -0.3424 -0.3740  0.5048
   69SAPC   C32 5866   1.469   1.861   3.347 -0.3986 -0.0453 -0.4319
   69SAPC   H2X 5867   1.535   1.771   3.348 -0.5750 -0.1764  0.8432
   69SAPC   H2Y 5868   1.360   1.836   3.349 -0.4292 -0.4382 -2.8669
   69SAPC   C23 5869   1.598   2.504   3.432  0.3072 -0.1207  0.2660
   69SAPC   H3R 5870   1.552   2.589   3.378 -1.5952 -2.8686 -2.8284
   69SAPC   H3S 5871   1.703   2.524   3.463  0.1232 -0.3936  1.0905
   69SAPC   C24 5872   1.506   2.484   3.555  0.0918  0.7454 -0.7011
   69SAPC   H4R 5873   1.403   2.449   3.530 -0.2580  1.1441  0.1143
   69SAPC   H4S 5874   1.481   2.579   3.608  2.1695  1.0082 -0.1108
   69SAPC   C25 5875   1.580   2.384   3.650  0.2494 -0.5499 -0.2770
   69SAPC   H5R 5876   1.588   2.285   3.604  1.3066 -1.4494  1.7532
   69SAPC   C26 5877   1.632   2.404   3.772  0.0199 -0.5005 -0.5138
   69SAPC   H6R 5878   1.676   2.320   3.828 -2.2209 -0.3207  1.6873
   69SAPC   C27 5879   1.625   2.539   3.847  0.3759  0.5256 -0.2650
   69SAPC   H7R 5880   1.612   2.622   3.775  1.2273  1.8315  1.0243
   69SAPC   H7S 5881   1.728   2.559   3.883  1.1416  0.6009 -2.3346
   69SAPC   C28 5882   1.503   2.527   3.932 -0.1494 -0.0671 -0.5054
   69SAPC   H8R 5883   1.410   2.509   3.876 -0.5091  0.7970 -0.2031
   69SAPC   C29 5884   1.497   2.539   4.071  0.0341  0.2870  0.6838
   69SAPC   H9R 5885   1.407   2.501   4.122  0.1281  0.8653  1.2970
   69SAPC  C210 5886   1.614   2.572   4.161 -0.1147  0.8790  0.4183
   69SAPC  H10R 5887   1.709   2.549   4.107 -1.9326 -1.1589 -2.2221
   69SAPC  H10S 5888   1.617   2.509   4.252 -0.6153 -0.4321 -0.4347
   69SAPC  C211 5889   1.613   2.716   4.202 -0.0664  0.1255  0.4603
   69SAPC  H11R 5890   1.566   2.773   4.121  1.4032 -0.5124 -0.8783
   69SAPC  C212 5891   1.652   2.769   4.311 -0.4146 -0.8911 -0.2891
   69SAPC  H12R 5892   1.640   2.878   4.324 -0.1253 -0.8556 -0.3108
   69SAPC  C213 5893   1.711   2.688   4.426  0.0567  0.1203  0.4581
   69SAPC  H13R 5894   1.789   2.618   4.391  0.0914 -0.0982  0.9636
   69SAPC  H13S 5895   1.631   2.625   4.471 -3.2332  3.8548  0.4602
   69SAPC  C214 5896   1.785   2.764   4.533  0.4209 -0.7773  0.1741
   69SAPC  H14R 5897   1.768   2.873   4.523  1.2652 -0.7515 -1.0380
   69SAPC  C215 5898   1.847   2.702   4.638  0.5537 -0.2423  0.3796
   69SAPC  H15R 5899   1.880   2.762   4.724 -0.8550  2.2852 -0.7467
   69SAPC  C216 5900   1.851   2.549   4.659 -0.6915  0.0311  0.1246
   69SAPC  H16R 5901   1.942   2.515   4.606 -0.6391  0.2290  0.0838
   69SAPC  H16S 5902   1.764   2.497   4.614 -0.3009 -0.0741 -0.5232
   69SAPC  C217 5903   1.855   2.519   4.808  0.4879  0.2072  0.7172
   69SAPC  H17R 5904   1.803   2.591   4.875  1.1509  2.0192 -0.6354
   69SAPC  H17S 5905   1.961   2.509   4.839  0.2764  1.5605  1.9935
   69SAPC  C218 5906   1.780   2.385   4.832 -0.0902  1.0747  0.9247
   69SAPC  H18R 5907   1.820   2.321   4.750 -1.1134  3.1597 -1.3380
   69SAPC  H18S 5908   1.672   2.391   4.810 -0.0026 -0.2399  0.0258
   69SAPC  C219 5909   1.793   2.315   4.966 -0.2453  0.1043  0.2574
   69SAPC  H19R 5910   1.706   2.245   4.968 -0.1121 -0.0804 -0.2946
   69SAPC  H19S 5911   1.784   2.379   5.056  0.4305  0.9888 -0.2886
   69SAPC  C220 5912   1.917   2.226   4.981 -0.1928 -0.0676  0.3890
   69SAPC  H20R 5913   1.902   2.161   5.069  1.5114 -2.5060 -0.9827
   69SAPC  H20S 5914   2.017   2.273   4.990  1.4760 -2.7025 -2.3538
   69SAPC  H20T 5915   1.925   2.158   4.893 -0.4014  0.2808  0.0970
   69SAPC   C33 5916   1.502   1.943   3.472 -0.3724  0.0773 -0.1766
   69SAPC   H3X 5917   1.468   2.046   3.449  0.9891  0.4220 -0.7206
   69SAPC   H3Y 5918   1.613   1.942   3.475 -0.3631  0.7592 -0.3247
   69SAPC   C34 5919   1.453   1.878   3.597 -0.3248 -0.3364 -0.7986
   69SAPC   H4X 5920   1.466   1.770   3.574 -2.2995 -0.3194 -2.1978
   69SAPC   H4Y 5921   1.345   1.896   3.613 -0.2371 -0.5971  0.1876
   69SAPC   C35 5922   1.530   1.930   3.720 -0.8155 -0.4686 -0.2424
   69SAPC   H5X 5923   1.504   2.038   3.721  1.1589  0.1582 -3.3430
   69SAPC   H5Y 5924   1.640   1.923   3.704 -0.7296  1.2096 -0.5456
   69SAPC   C36 5925   1.476   1.863   3.855 -0.0254  0.0366  0.4373
   69SAPC   H6X 5926   1.493   1.755   3.836 -1.8568 -0.0315 -1.0580
   69SAPC   H6Y 5927   1.369   1.882   3.875  0.0479  0.8303  0.1139
   69SAPC   C37 5928   1.541   1.925   3.977  0.1397 -0.1686  0.1838
   69SAPC   H7X 5929   1.520   2.034   3.965 -1.5191 -0.6116 -1.4507
   69SAPC   H7Y 5930   1.652   1.914   3.969  0.0768 -0.0847 -1.0739
   69SAPC   C38 5931   1.495   1.870   4.109 -0.2592 -0.1219  0.1414
   69SAPC   H8X 5932   1.539   1.771   4.133  2.1131  0.2139 -2.3102
   69SAPC   H8Y 5933   1.384   1.866   4.111 -0.3312  1.1696 -0.1390
   69SAPC   C39 5934   1.540   1.955   4.230  0.0370 -0.2176 -0.0543
   69SAPC   H9X 5935   1.494   2.056   4.219 -2.8020 -1.2429  1.6734
   69SAPC   H9Y 5936   1.651   1.967   4.232  0.0481  0.1806 -1.5289
   69SAPC  C310 5937   1.496   1.915   4.378 -0.6107  0.1252  0.8686
   69SAPC  H10X 5938   1.524   1.808   4.375  4.6784  1.2193  0.3820
   69SAPC  H10Y 5939   1.386   1.927   4.390 -0.8291 -1.1872  0.3607
   69SAPC  C311 5940   1.579   1.989   4.485 -0.5885  0.6909  0.1153
   69SAPC  H11X 5941   1.583   2.099   4.475  2.6071  0.7107  0.3740
   69SAPC  H11Y 5942   1.687   1.962   4.472  0.0424  3.1915 -0.3846
   69SAPC  C312 5943   1.548   1.952   4.633  0.2003 -0.2261  0.6590
   69SAPC  H12X 5944   1.561   1.842   4.638  0.4039 -0.4315 -2.6322
   69SAPC  H12Y 5945   1.443   1.980   4.657  0.7526  2.3463  0.3682
   69SAPC  C313 5946   1.650   2.018   4.726  1.0388 -0.2379  0.9871
   69SAPC  H13X 5947   1.644   2.127   4.749 -0.2151 -0.5513  2.2611
   69SAPC  H13Y 5948   1.752   1.997   4.687  1.2696  0.0960  1.4009
   69SAPC  C314 5949   1.655   1.944   4.859 -0.2220 -0.5165  0.3565
   69SAPC  H14X 5950   1.752   1.972   4.906  0.7672 -2.4477 -0.4064
   69SAPC  H14Y 5951   1.655   1.833   4.861 -0.2946 -0.5146  2.1410
   69SAPC  C315 5952   1.537   1.986   4.944 -0.0282  0.1147  0.9720
   69SAPC  H15X 5953   1.455   1.922   4.905 -0.8828  2.2139 -0.8405
   69SAPC  H15Y 5954   1.496   2.087   4.925  0.2348  0.1961  0.8399
   69SAPC  C316 5955   1.556   1.960   5.092 -0.3338  0.2886  0.1608
   69SAPC  H16X 5956   1.634   2.032   5.124 -0.6673  0.3706  0.7996
   69SAPC  H16Y 5957   1.581   1.852   5.102 -0.0996  0.2971 -0.3109
   69SAPC  C317 5958   1.431   1.992   5.173  0.3713  0.0244  0.3220
   69SAPC  H17X 5959   1.412   2.102   5.164  2.2994  0.4708  1.1297
   69SAPC  H17Y 5960   1.457   1.970   5.279  2.8176 -1.6663 -0.5577
   69SAPC  C318 5961   1.306   1.909   5.130  0.1624  0.1172 -0.4412
   69SAPC  H18X 5962   1.253   1.958   5.046  1.3127  1.0638 -0.6458
   69SAPC  H18Y 5963   1.243   1.905   5.221 -1.0386 -0.7290 -1.2802
   69SAPC  H18Z 5964   1.332   1.807   5.093 -1.0995 -0.2879 -0.2504
   70SAPC     N 5965   2.175   0.707   2.603  0.1865  0.4697  0.4182
   70SAPC   C12 5966   2.043   0.719   2.677 -0.1439  0.1047  0.0389
   70SAPC  H12A 5967   2.030   0.637   2.746 -1.8268  1.3675  1.3400
   70SAPC  H12B 5968   1.960   0.705   2.610 -0.6124  1.9044  0.1898
   70SAPC   C13 5969   2.180   0.574   2.534  0.6877 -0.5538 -0.1924
   70SAPC  H13A 5970   2.276   0.566   2.485  1.7517 -1.9337  1.9769
   70SAPC  H13B 5971   2.168   0.485   2.594 -0.1349 -1.6784 -1.9441
   70SAPC  H13C 5972   2.106   0.574   2.456 -0.2128 -1.2071  0.6401
   70SAPC   C14 5973   2.197   0.815   2.503 -0.0586 -1.5385 -0.5699
   70SAPC  H14A 5974   2.178   0.911   2.547 -0.7362 -1.7139 -0.4690
   70SAPC  H14B 5975   2.301   0.830   2.476  0.0330 -0.4183  0.3144
   70SAPC  H14C 5976   2.128   0.808   2.421 -1.2712  3.1107 -0.2233
   70SAPC   C15 5977   2.293   0.719   2.692  0.9467  0.4719 -0.1386
   70SAPC  H15A 5978   2.300   0.818   2.736 -1.1840 -0.2564  2.0647
   70SAPC  H15B 5979   2.272   0.655   2.776 -1.3611  0.2328 -0.8418
   70SAPC  H15C 5980   2.385   0.687   2.645 -0.2681 -0.3385 -2.0965
   70SAPC   C11 5981   2.029   0.857   2.746  0.5823 -0.4552 -0.8634
   70SAPC  H11A 5982   2.120   0.875   2.807  1.5619  1.6277 -2.7794
   70SAPC  H11B 5983   1.947   0.853   2.820 -0.8893 -1.6786 -2.4691
   70SAPC     P 5984   2.095   1.106   2.677  0.2749 -0.3186  0.5286
   70SAPC   O13 5985   2.236   1.114   2.628 -0.2015  0.1204  0.5183
   70SAPC   O14 5986   2.005   1.210   2.627  0.3001 -0.5997 -0.1068
   70SAPC   O12 5987   2.018   0.963   2.650  0.3748  0.2658  0.5042
   70SAPC   O11 5988   2.089   1.110   2.838 -0.3339 -0.6881  0.0512
   70SAPC    C1 5989   2.188   1.172   2.922 -0.6105 -0.1328  0.1881
   70SAPC    HA 5990   2.229   1.266   2.878 -1.3285 -0.6956 -1.7982
   70SAPC    HB 5991   2.136   1.200   3.016 -2.0144  0.4296 -0.7403
   70SAPC    C2 5992   2.306   1.075   2.957 -0.2454 -0.3426 -0.1718
   70SAPC    HS 5993   2.346   1.045   2.858 -2.0737 -0.1903 -1.0064
   70SAPC   O21 5994   2.244   0.960   3.024  0.6434  0.3894  0.0130
   70SAPC   C21 5995   2.315   0.848   3.018 -0.4776 -0.0094 -1.0175
   70SAPC   O22 5996   2.420   0.843   2.962 -0.3111 -0.3448 -0.3251
   70SAPC   C22 5997   2.262   0.754   3.121 -0.0974 -0.1198  0.4651
   70SAPC   H2R 5998   2.152   0.758   3.107  0.0002  1.7548  0.0044
   70SAPC   H2S 5999   2.313   0.656   3.108  1.7866  0.9514 -0.6878
   70SAPC    C3 6000   2.416   1.146   3.038 -0.2844 -0.0811  0.2966
   70SAPC    HX 6001   2.468   1.223   2.978 -0.3049  0.4689  0.9687
   70SAPC    HY 6002   2.484   1.059   3.052 -0.7300 -0.3161  1.0831
   70SAPC   O31 6003   2.371   1.200   3.164  0.4783  0.4962  0.4340
   70SAPC   C31 6004   2.469   1.254   3.228  0.3180  0.0625  0.7299
   70SAPC   O32 6005   2.579   1.269   3.179 -0.1090 -0.0343 -0.2859
   70SAPC   C32 6006   2.420   1.302   3.369  0.1109  0.1641 -0.2643
   70SAPC   H2X 6007   2.381   1.216   3.427 -2.2343  0.2275 -1.6316
   70SAPC   H2Y 6008   2.331   1.368   3.362  0.5183  1.1156  2.2734
   70SAPC   C23 6009   2.305   0.804   3.259 -0.2878 -1.2199  0.7436
   70SAPC   H3R 6010   2.250   0.735   3.327  1.4444 -3.0721  0.3531
   70SAPC   H3S 6011   2.268   0.907   3.281  0.1319 -0.6307 -1.1493
   70SAPC   C24 6012   2.448   0.770   3.287 -0.1247  0.4249 -0.5032
   70SAPC   H4R 6013   2.481   0.669   3.255 -0.0501  0.4766 -0.5909
   70SAPC   H4S 6014   2.448   0.762   3.398 -0.4587 -0.0055 -0.5334
   70SAPC   C25 6015   2.551   0.873   3.250  0.1363  0.3941 -0.7999
   70SAPC   H5R 6016   2.579   0.882   3.144  1.5201 -0.0622 -0.4956
   70SAPC   C26 6017   2.637   0.950   3.327 -0.4883  0.0119 -0.0426
   70SAPC   H6R 6018   2.708   1.010   3.268 -0.0542 -1.0323 -0.6087
   70SAPC   C27 6019   2.646   0.952   3.477  0.5057 -0.2157 -0.3410
   70SAPC   H7R 6020   2.729   1.018   3.510  1.2623 -0.3252 -1.9145
   70SAPC   H7S 6021   2.682   0.853   3.512  0.6645 -0.7572 -1.9389
   70SAPC   C28 6022   2.513   0.968   3.554  0.4798 -0.0196  0.5356
   70SAPC   H8R 6023   2.423   0.938   3.498  1.2722  0.9445 -1.3366
   70SAPC   C29 6024   2.501   1.023   3.676  0.5356  0.4511  0.1922
   70SAPC   H9R 6025   2.399   1.033   3.718 -0.3881 -2.2278 -1.1855
   70SAPC  C210 6026   2.605   1.085   3.764 -0.5622 -0.3623  0.1178
   70SAPC  H10R 6027   2.594   1.196   3.768  0.4416 -0.2129 -0.8052
   70SAPC  H10S 6028   2.705   1.065   3.721 -0.6259  2.1614 -1.4124
   70SAPC  C211 6029   2.595   1.021   3.904  0.0438 -0.0251  0.3645
   70SAPC  H11R 6030   2.656   0.930   3.910  0.1285  0.0929  1.3969
   70SAPC  C212 6031   2.521   1.063   4.004  0.3019 -0.4734 -0.5131
   70SAPC  H12R 6032   2.512   0.996   4.091 -1.1880  0.3574  0.0210
   70SAPC  C213 6033   2.416   1.169   4.005  0.8693 -0.5739 -0.4347
   70SAPC  H13R 6034   2.373   1.191   3.905 -2.4173 -0.9113  0.8119
   70SAPC  H13S 6035   2.448   1.269   4.043  3.9335 -1.2306 -0.9976
   70SAPC  C214 6036   2.296   1.137   4.101 -0.0056 -0.3927  0.2453
   70SAPC  H14R 6037   2.212   1.083   4.054 -0.2689  0.9268 -0.8760
   70SAPC  C215 6038   2.287   1.171   4.235 -0.2097  0.0520  0.5145
   70SAPC  H15R 6039   2.198   1.140   4.292  0.1265 -1.3315  0.3258
   70SAPC  C216 6040   2.393   1.249   4.324  0.2664  0.1060 -0.0716
   70SAPC  H16R 6041   2.479   1.280   4.261  0.9168 -0.3046  0.6004
   70SAPC  H16S 6042   2.433   1.188   4.407 -0.4150  1.8635  1.6202
   70SAPC  C217 6043   2.318   1.367   4.395  0.7341  0.2538  0.4141
   70SAPC  H17R 6044   2.239   1.322   4.458  1.8165 -0.6420  1.1814
   70SAPC  H17S 6045   2.272   1.452   4.339  0.1038  0.1229  0.7261
   70SAPC  C218 6046   2.407   1.443   4.501  0.1615 -0.8434  0.0273
   70SAPC  H18R 6047   2.490   1.503   4.456 -0.8109  1.2035  0.8309
   70SAPC  H18S 6048   2.453   1.370   4.570  2.4522 -0.7513 -1.2969
   70SAPC  C219 6049   2.326   1.547   4.594  0.6486 -0.1788 -0.1010
   70SAPC  H19R 6050   2.238   1.491   4.631  0.3145 -0.8031 -1.7455
   70SAPC  H19S 6051   2.282   1.625   4.528 -0.7024  0.0393  1.0264
   70SAPC  C220 6052   2.404   1.616   4.708  0.0637  0.3175  0.0778
   70SAPC  H20R 6053   2.436   1.543   4.786  0.3131  0.5111  0.1593
   70SAPC  H20S 6054   2.345   1.704   4.742 -3.1410 -1.6559  0.1101
   70SAPC  H20T 6055   2.501   1.655   4.671 -0.0397  0.2251 -0.2876
   70SAPC   C33 6056   2.538   1.372   3.442 -0.6958  0.3443  0.0702
   70SAPC   H3X 6057   2.568   1.463   3.385  0.9577 -0.2112  0.0089
   70SAPC   H3Y 6058   2.628   1.312   3.464 -0.9045 -0.5983 -1.5232
   70SAPC   C34 6059   2.492   1.420   3.582  0.1985  0.2944 -0.4341
   70SAPC   H4X 6060   2.579   1.455   3.641  1.0626 -1.7618 -0.4179
   70SAPC   H4Y 6061   2.453   1.332   3.636  1.1929 -0.2716 -0.6164
   70SAPC   C35 6062   2.384   1.526   3.586  0.4107  0.0542  0.3827
   70SAPC   H5X 6063   2.294   1.482   3.538 -0.4660  1.9667  0.2066
   70SAPC   H5Y 6064   2.414   1.617   3.530 -0.5605  0.1550  0.0103
   70SAPC   C36 6065   2.340   1.575   3.728 -0.3624 -0.4339 -0.1404
   70SAPC   H6X 6066   2.315   1.479   3.778  0.7705 -0.1281  1.0751
   70SAPC   H6Y 6067   2.257   1.648   3.712 -0.1826  0.1708  1.4512
   70SAPC   C37 6068   2.447   1.644   3.818  0.2172  0.0157  1.0915
   70SAPC   H7X 6069   2.549   1.602   3.800  1.3071  2.9852 -0.3156
   70SAPC   H7Y 6070   2.456   1.743   3.769  2.1103 -0.2024  0.9159
   70SAPC   C38 6071   2.430   1.641   3.969  0.0429 -0.3678 -0.1159
   70SAPC   H8X 6072   2.448   1.538   4.005  0.1117 -0.7876 -1.3410
   70SAPC   H8Y 6073   2.329   1.676   4.000  1.3543  0.9724  3.1851
   70SAPC   C39 6074   2.530   1.744   4.041  0.0761  0.2411  0.3530
   70SAPC   H9X 6075   2.507   1.841   3.992 -3.6430 -1.0712 -0.8682
   70SAPC   H9Y 6076   2.627   1.698   4.010  0.0339  1.7150 -2.2249
   70SAPC  C310 6077   2.520   1.768   4.196 -0.1926 -0.2679  0.4963
   70SAPC  H10X 6078   2.529   1.676   4.257  1.0916 -0.5977 -0.1467
   70SAPC  H10Y 6079   2.420   1.809   4.221  0.3723 -0.5569  3.5339
   70SAPC  C311 6080   2.620   1.875   4.245 -0.4438  0.1204 -0.7439
   70SAPC  H11X 6081   2.613   1.976   4.199 -2.3534  1.9354  2.9968
   70SAPC  H11Y 6082   2.725   1.841   4.233  0.2795  1.9675 -0.0285
   70SAPC  C312 6083   2.602   1.899   4.399  0.2531 -0.4616  0.5453
   70SAPC  H12X 6084   2.542   1.820   4.448 -1.4934  0.2627 -0.3327
   70SAPC  H12Y 6085   2.541   1.992   4.406 -0.6445 -0.8172 -1.7127
   70SAPC  C313 6086   2.745   1.901   4.465 -0.3077  0.2100 -0.4255
   70SAPC  H13X 6087   2.812   1.982   4.430  0.2464 -0.7238 -1.5872
   70SAPC  H13Y 6088   2.782   1.801   4.436  0.7839  0.1164  1.2181
   70SAPC  C314 6089   2.741   1.903   4.622  0.2560  0.4538 -0.7293
   70SAPC  H14X 6090   2.846   1.889   4.655  0.3391 -1.0716 -1.5405
   70SAPC  H14Y 6091   2.681   1.819   4.663 -0.9621  2.4807  1.9135
   70SAPC  C315 6092   2.697   2.039   4.673 -0.9198  0.0785 -0.4895
   70SAPC  H15X 6093   2.593   2.071   4.650 -0.4468  2.5245  0.4754
   70SAPC  H15Y 6094   2.751   2.124   4.626  1.1250 -1.0681 -0.3741
   70SAPC  C316 6095   2.721   2.047   4.830  0.4218  0.1723  0.1446
   70SAPC  H16X 6096   2.694   2.152   4.854 -3.3771 -0.8254  0.8653
   70SAPC  H16Y 6097   2.824   2.020   4.863 -0.3426 -1.2290  1.4928
   70SAPC  C317 6098   2.620   1.959   4.906  0.3699  0.1917 -0.3028
   70SAPC  H17X 6099   2.634   1.849   4.910  1.8131  0.3996  1.6373
   70SAPC  H17Y 6100   2.525   1.968   4.849 -0.6102 -1.6503  0.9414
   70SAPC  C318 6101   2.582   2.009   5.040  0.2676 -0.2671  0.3839
   70SAPC  H18X 6102   2.659   1.984   5.116 -0.0464 -0.2557  0.7067
   70SAPC  H18Y 6103   2.494   1.956   5.084  0.6657 -0.6962  0.6714
   70SAPC  H18Z 6104   2.548   2.115   5.036 -0.0092 -0.3908 -1.0852
   71SAPC     N 6105   3.754   4.625   2.394 -0.7473 -0.4113 -1.3522
   71SAPC   C12 6106   3.726   4.711   2.510 -1.2477  0.1809  0.3553
   71SAPC  H12A 6107   3.734   4.658   2.604 -0.8715 -0.6005 -0.1009
   71SAPC  H12B 6108   3.622   4.740   2.508 -0.8106  1.7847 -0.5732
   71SAPC   C13 6109   3.892   4.584   2.387 -0.0742 -0.4938  0.5692
   71SAPC  H13A 6110   3.956   4.671   2.381 -2.2881  1.2046  0.1320
   71SAPC  H13B 6111   3.915   4.543   2.484 -0.4761  1.8278  1.7127
   71SAPC  H13C 6112   3.900   4.515   2.305  1.4190 -1.5634  1.5741
   71SAPC   C14 6113   3.676   4.497   2.400  0.5828 -1.1052 -0.2496
   71SAPC  H14A 6114   3.569   4.512   2.397  0.8375  0.8527 -1.0040
   71SAPC  H14B 6115   3.705   4.432   2.318  2.0614 -0.5187 -0.2255
   71SAPC  H14C 6116   3.700   4.446   2.492  1.8292  0.0840  0.1182
   71SAPC   C15 6117   3.716   4.686   2.264  0.3229 -0.3703 -0.0434
   71SAPC  H15A 6118   3.611   4.708   2.254  0.6872  1.8350  0.6190
   71SAPC  H15B 6119   3.773   4.776   2.245 -0.0258 -0.3396 -0.9607
   71SAPC  H15C 6120   3.741   4.616   2.186 -0.7155 -1.2804  0.4042
   71SAPC   C11 6121   3.807   4.846   2.525  0.5598 -0.2893 -0.5234
   71SAPC  H11A 6122   3.912   4.813   2.540 -0.0165 -0.4354  5.4413
   71SAPC  H11B 6123   3.773   4.893   2.619 -3.0698  1.2139 -2.4195
   71SAPC     P 6124   3.680   5.034   2.411 -0.1981 -0.0255  0.1752
   71SAPC   O13 6125   3.698   5.111   2.284 -0.5035  0.8085  0.0496
   71SAPC   O14 6126   3.548   4.973   2.434 -0.1290  0.0020 -0.3809
   71SAPC   O12 6127   3.796   4.922   2.412  0.4087 -0.5197  0.7267
   71SAPC   O11 6128   3.725   5.131   2.523 -0.1456  0.2842 -0.1639
   71SAPC    C1 6129   3.860   5.180   2.532 -0.0127 -0.0877  0.0194
   71SAPC    HA 6130   3.930   5.096   2.515  0.1806  0.3717 -1.5889
   71SAPC    HB 6131   3.876   5.264   2.461  2.5341  1.8939  2.6313
   71SAPC    C2 6132   3.882   5.268   2.657  0.0496 -0.1966 -0.5932
   71SAPC    HS 6133   3.990   5.292   2.666  1.0694 -3.7262 -1.7056
   71SAPC   O21 6134   3.834   5.194   2.777 -1.1665  0.1429  0.3249
   71SAPC   C21 6135   3.899   5.079   2.797 -0.3770 -0.5763 -0.3891
   71SAPC   O22 6136   4.008   5.041   2.756 -0.2285 -0.1770  0.0501
   71SAPC   C22 6137   3.825   4.989   2.903  0.4114 -1.2425  0.5355
   71SAPC   H2R 6138   3.728   5.037   2.927  1.2743  0.9761 -0.1201
   71SAPC   H2S 6139   3.810   4.890   2.854  1.9286 -0.9527 -0.5787
   71SAPC    C3 6140   3.809   5.398   2.652 -0.6302 -0.6500  0.0707
   71SAPC    HX 6141   3.706   5.368   2.625 -1.5503  1.4277  1.0095
   71SAPC    HY 6142   3.842   5.458   2.564  1.1833 -1.5960  0.0403
   71SAPC   O31 6143   3.826   5.473   2.775  0.1108 -0.5577  0.1765
   71SAPC   C31 6144   3.705   5.513   2.821 -1.0824  0.5691  0.3601
   71SAPC   O32 6145   3.598   5.486   2.776  0.6211  1.0354  0.5568
   71SAPC   C32 6146   3.727   5.603   2.940  0.4198 -0.1597  0.1115
   71SAPC   H2X 6147   3.635   5.665   2.946  0.3247  0.1539 -3.0097
   71SAPC   H2Y 6148   3.806   5.680   2.924  0.5509 -0.5064 -1.0257
   71SAPC   C23 6149   3.902   4.945   3.032 -0.8979  0.6581  0.1598
   71SAPC   H3R 6150   3.906   5.024   3.111  0.0774  0.0613  0.7171
   71SAPC   H3S 6151   4.005   4.928   2.994 -1.0830 -0.9203  0.3116
   71SAPC   C24 6152   3.865   4.805   3.080  0.1371  0.1800 -0.5159
   71SAPC   H4R 6153   3.949   4.753   3.131 -1.3626  0.5603  2.5082
   71SAPC   H4S 6154   3.833   4.732   3.002 -0.4564 -0.2318  0.1071
   71SAPC   C25 6155   3.743   4.813   3.173 -0.3462 -0.0897  0.3793
   71SAPC   H5R 6156   3.644   4.812   3.125 -1.0083 -0.3728  1.7048
   71SAPC   C26 6157   3.749   4.804   3.312  0.9649 -0.2692  0.5696
   71SAPC   H6R 6158   3.657   4.833   3.364  0.1403  0.7659 -1.3516
   71SAPC   C27 6159   3.865   4.800   3.400 -0.0862  0.3071 -0.3024
   71SAPC   H7R 6160   3.840   4.890   3.460 -1.0276  0.7177 -1.2690
   71SAPC   H7S 6161   3.961   4.809   3.345  0.0302 -4.7533 -1.4016
   71SAPC   C28 6162   3.866   4.672   3.482 -0.2605  0.9241 -0.0299
   71SAPC   H8R 6163   3.943   4.599   3.451 -0.0237  0.6498  1.1740
   71SAPC   C29 6164   3.784   4.634   3.584 -0.0108 -0.7561 -0.7656
   71SAPC   H9R 6165   3.816   4.550   3.648 -0.8251 -0.8867 -0.5233
   71SAPC  C210 6166   3.681   4.726   3.650  0.2400 -0.8186 -0.3753
   71SAPC  H10R 6167   3.587   4.672   3.676 -1.5691  3.2380  2.4617
   71SAPC  H10S 6168   3.642   4.799   3.576  0.6449  1.3755  1.4730
   71SAPC  C211 6169   3.727   4.818   3.764  0.4169 -0.8081  0.0445
   71SAPC  H11R 6170   3.777   4.907   3.724 -3.0048 -0.2871 -3.8659
   71SAPC  C212 6171   3.684   4.824   3.891  0.9134 -0.5322  0.4830
   71SAPC  H12R 6172   3.740   4.887   3.962  1.5290  0.6765 -1.0074
   71SAPC  C213 6173   3.593   4.713   3.950 -0.5990  0.2513  0.5026
   71SAPC  H13R 6174   3.601   4.626   3.881  1.7499  1.6075 -1.0628
   71SAPC  H13S 6175   3.484   4.734   3.945 -1.3926 -2.2561  3.6848
   71SAPC  C214 6176   3.626   4.654   4.083 -0.6681  1.2395 -0.0520
   71SAPC  H14R 6177   3.694   4.569   4.073  1.2426  2.6221  0.4847
   71SAPC  C215 6178   3.604   4.718   4.201 -0.2579 -0.1701  0.1597
   71SAPC  H15R 6179   3.641   4.668   4.292  1.0925 -0.3349 -0.4515
   71SAPC  C216 6180   3.519   4.838   4.221  0.2879  0.4778 -0.5300
   71SAPC  H16R 6181   3.464   4.860   4.127 -1.5557  2.0116  0.8297
   71SAPC  H16S 6182   3.576   4.921   4.269 -1.7010  1.2623  0.6130
   71SAPC  C217 6183   3.403   4.807   4.324 -0.4344 -0.0141  0.6458
   71SAPC  H17R 6184   3.338   4.734   4.272 -1.5377  0.1569  1.7538
   71SAPC  H17S 6185   3.345   4.901   4.321  1.2068  1.1557  2.8266
   71SAPC  C218 6186   3.443   4.771   4.468  0.0952 -0.7208  0.1518
   71SAPC  H18R 6187   3.516   4.852   4.489 -2.3653  1.9772 -0.9887
   71SAPC  H18S 6188   3.490   4.671   4.477  2.1467  0.1715 -0.1356
   71SAPC  C219 6189   3.340   4.801   4.573 -0.1566  0.7809  0.2417
   71SAPC  H19R 6190   3.246   4.748   4.544  0.7326 -0.5895 -0.2491
   71SAPC  H19S 6191   3.314   4.908   4.584 -1.6376  0.3592  1.2227
   71SAPC  C220 6192   3.375   4.755   4.714  0.7151  0.2583  0.0956
   71SAPC  H20R 6193   3.450   4.829   4.748 -0.9845  2.2600 -0.2726
   71SAPC  H20S 6194   3.420   4.654   4.719  0.5475  0.1284 -0.8047
   71SAPC  H20T 6195   3.294   4.776   4.787 -0.1881  0.9094 -1.0579
   71SAPC   C33 6196   3.753   5.527   3.071  0.6239  0.7238  0.3417
   71SAPC   H3X 6197   3.841   5.460   3.076 -0.0425 -0.2779 -0.9424
   71SAPC   H3Y 6198   3.669   5.458   3.090 -0.1386  1.1137 -1.4753
   71SAPC   C34 6199   3.750   5.624   3.190 -0.2278  0.7514  0.3345
   71SAPC   H4X 6200   3.661   5.690   3.186 -1.8486 -1.3314  0.7423
   71SAPC   H4Y 6201   3.845   5.681   3.190  1.1425 -1.3787  1.9596
   71SAPC   C35 6202   3.746   5.551   3.321 -0.8118 -0.3206 -0.0125
   71SAPC   H5X 6203   3.836   5.485   3.329 -1.5479 -1.4045 -0.4007
   71SAPC   H5Y 6204   3.662   5.478   3.319  0.7516 -2.2095 -0.9885
   71SAPC   C36 6205   3.728   5.629   3.445 -0.5625 -0.2120  0.0405
   71SAPC   H6X 6206   3.642   5.699   3.446 -0.5032 -0.0782  2.3076
   71SAPC   H6Y 6207   3.817   5.695   3.440 -0.7562 -0.0268 -3.0934
   71SAPC   C37 6208   3.733   5.524   3.558  0.2428  0.3622 -0.4156
   71SAPC   H7X 6209   3.821   5.457   3.542  0.9163  1.3668 -1.0746
   71SAPC   H7Y 6210   3.637   5.468   3.551  0.7745 -0.6068 -0.2049
   71SAPC   C38 6211   3.742   5.576   3.704 -0.1216  0.4623 -0.0864
   71SAPC   H8X 6212   3.837   5.628   3.729 -0.2880  0.9941 -0.5434
   71SAPC   H8Y 6213   3.723   5.486   3.765 -2.8026  0.3124 -0.9956
   71SAPC   C39 6214   3.629   5.677   3.732  0.1014  0.3601  0.0583
   71SAPC   H9X 6215   3.533   5.634   3.696  0.6991 -0.0568 -1.0649
   71SAPC   H9Y 6216   3.646   5.764   3.666 -2.4572 -0.6780 -2.2021
   71SAPC  C310 6217   3.634   5.731   3.876  0.2733 -0.2003  0.2466
   71SAPC  H10X 6218   3.542   5.791   3.893 -0.8322 -1.8796  0.4460
   71SAPC  H10Y 6219   3.715   5.807   3.879 -3.5529  4.4476 -1.3923
   71SAPC  C311 6220   3.652   5.626   3.985 -1.0175 -0.3944 -0.2346
   71SAPC  H11X 6221   3.743   5.564   3.966 -0.2041  0.6139  0.2537
   71SAPC  H11Y 6222   3.566   5.555   3.990 -0.4401 -1.0270  1.7233
   71SAPC  C312 6223   3.651   5.696   4.121 -0.5068 -0.8366 -0.5600
   71SAPC  H12X 6224   3.565   5.763   4.140 -0.1370 -0.9880  2.1044
   71SAPC  H12Y 6225   3.751   5.745   4.131  1.1334 -3.8683 -0.8707
   71SAPC  C313 6226   3.655   5.593   4.242  0.4772 -0.4726  0.3202
   71SAPC  H13X 6227   3.739   5.523   4.225  1.9875  1.5520 -1.1525
   71SAPC  H13Y 6228   3.556   5.545   4.251 -0.1942  0.8782  0.5153
   71SAPC  C314 6229   3.670   5.666   4.376  0.0624 -0.4137  0.4991
   71SAPC  H14X 6230   3.572   5.715   4.391  1.0953  0.9180  3.9731
   71SAPC  H14Y 6231   3.758   5.733   4.386  1.4424 -2.3272  2.1105
   71SAPC  C315 6232   3.677   5.563   4.497  0.2923 -0.4518  0.3749
   71SAPC  H15X 6233   3.778   5.517   4.501 -0.4836 -2.3930 -0.7919
   71SAPC  H15Y 6234   3.608   5.480   4.470  0.5868 -0.2777 -1.0027
   71SAPC  C316 6235   3.647   5.625   4.634 -0.5954 -0.3896  0.0591
   71SAPC  H16X 6236   3.571   5.707   4.633  0.1681  0.7434  5.1904
   71SAPC  H16Y 6237   3.741   5.666   4.675 -0.3691 -3.8744  3.7488
   71SAPC  C317 6238   3.598   5.521   4.733  0.6240  0.0501  0.0744
   71SAPC  H17X 6239   3.677   5.444   4.747  0.5389  0.1317  1.0775
   71SAPC  H17Y 6240   3.504   5.470   4.702 -0.8596  2.1725  0.8340
   71SAPC  C318 6241   3.570   5.582   4.870  0.6314 -0.4369  0.0256
   71SAPC  H18X 6242   3.464   5.616   4.872  0.7331 -0.1520  1.2661
   71SAPC  H18Y 6243   3.635   5.667   4.900  1.5499 -1.2916  0.5501
   71SAPC  H18Z 6244   3.580   5.507   4.952  0.7299 -0.1617  0.2659
   72SAPC     N 6245   3.361   4.079   2.597 -0.5410 -0.2757 -0.7564
   72SAPC   C12 6246   3.219   4.054   2.551  0.1543 -0.2882  0.0868
   72SAPC  H12A 6247   3.207   3.947   2.563  1.1634 -0.4794 -0.5197
   72SAPC  H12B 6248   3.203   4.087   2.450 -0.9585  1.5376  0.7943
   72SAPC   C13 6249   3.468   4.022   2.513 -0.2072  0.5469  0.3717
   72SAPC  H13A 6250   3.564   4.049   2.556  0.1359 -1.7716  1.2084
   72SAPC  H13B 6251   3.454   3.915   2.521 -0.3360  0.5489  0.1529
   72SAPC  H13C 6252   3.451   4.046   2.409  0.6689 -2.0155 -0.4407
   72SAPC   C14 6253   3.387   4.230   2.607  0.0861  0.2319 -0.6075
   72SAPC  H14A 6254   3.380   4.276   2.509 -4.3610  0.3223 -0.4321
   72SAPC  H14B 6255   3.315   4.277   2.672  0.1037 -0.1669 -0.3007
   72SAPC  H14C 6256   3.479   4.250   2.659  0.3566  1.1732 -1.4264
   72SAPC   C15 6257   3.385   4.013   2.738  0.2993 -0.4220 -0.2006
   72SAPC  H15A 6258   3.465   4.060   2.794  2.5050 -2.1576 -1.7300
   72SAPC  H15B 6259   3.293   4.027   2.791 -0.0470  0.3146 -0.9636
   72SAPC  H15C 6260   3.400   3.906   2.734  0.5198 -0.4050  0.1750
   72SAPC   C11 6261   3.102   4.124   2.622 -0.3689 -0.0881  0.6138
   72SAPC  H11A 6262   3.008   4.096   2.569 -0.5829 -4.5193  2.8574
   72SAPC  H11B 6263   3.119   4.233   2.609  2.0599 -0.5793 -0.9737
   72SAPC     P 6264   3.003   3.973   2.811 -0.0249  0.2870 -0.0246
   72SAPC   O13 6265   2.870   3.992   2.753 -0.4564  0.3306 -0.5205
   72SAPC   O14 6266   3.077   3.851   2.777  0.1956 -0.1820 -0.1748
   72SAPC   O12 6267   3.100   4.090   2.765 -0.3711  0.7682  0.5991
   72SAPC   O11 6268   2.996   3.991   2.965  0.4468 -0.0308  0.2563
   72SAPC    C1 6269   3.006   4.111   3.045 -1.0046  0.6347 -0.5226
   72SAPC    HA 6270   3.011   4.206   2.987 -0.2327  0.6888 -0.3772
   72SAPC    HB 6271   2.920   4.105   3.115 -0.4198 -0.4673  0.1271
   72SAPC    C2 6272   3.129   4.094   3.130  0.1652 -0.7772 -0.4421
   72SAPC    HS 6273   3.206   4.066   3.056  1.9229  0.8989  0.6475
   72SAPC   O21 6274   3.105   3.981   3.219 -0.1831  0.0387  0.1233
   72SAPC   C21 6275   3.220   3.933   3.263  0.4352 -0.2343 -0.4196
   72SAPC   O22 6276   3.333   3.961   3.220  0.1995 -0.0824  0.2964
   72SAPC   C22 6277   3.181   3.837   3.379 -0.1802 -0.3825  0.7446
   72SAPC   H2R 6278   3.238   3.871   3.469 -1.3488 -0.5530  1.5717
   72SAPC   H2S 6279   3.071   3.830   3.390 -0.2262  1.3265  1.8467
   72SAPC    C3 6280   3.176   4.228   3.196 -0.2866  0.2458 -0.0785
   72SAPC    HX 6281   3.196   4.315   3.129  1.5402  0.6948  0.9930
   72SAPC    HY 6282   3.281   4.196   3.213 -0.9694 -1.4533  1.1063
   72SAPC   O31 6283   3.116   4.256   3.322 -0.4470  0.7459 -0.0152
   72SAPC   C31 6284   2.995   4.315   3.320  0.1631  0.0642 -0.5598
   72SAPC   O32 6285   2.945   4.361   3.220  0.3426 -0.0597 -0.1112
   72SAPC   C32 6286   2.938   4.311   3.456  0.2019 -0.5113 -0.2663
   72SAPC   H2X 6287   2.980   4.230   3.519 -0.0977  0.1697  0.8519
   72SAPC   H2Y 6288   2.829   4.292   3.447  0.8454 -3.7662 -3.3694
   72SAPC   C23 6289   3.225   3.688   3.350 -0.5606  0.4277  0.2126
   72SAPC   H3R 6290   3.327   3.684   3.305 -0.9833  2.1630 -0.9930
   72SAPC   H3S 6291   3.164   3.645   3.269 -0.2068 -1.3296  0.8417
   72SAPC   C24 6292   3.219   3.596   3.476  0.6586  0.2462  0.1300
   72SAPC   H4R 6293   3.284   3.643   3.553  0.8118  0.9108 -0.3972
   72SAPC   H4S 6294   3.259   3.497   3.448  1.1778 -0.5763  3.3047
   72SAPC   C25 6295   3.083   3.584   3.522 -0.2353 -0.7320  0.6603
   72SAPC   H5R 6296   3.011   3.566   3.441  0.3303 -1.0101  0.2182
   72SAPC   C26 6297   3.033   3.590   3.646 -0.0684  0.0894 -0.2631
   72SAPC   H6R 6298   2.925   3.570   3.659 -0.1616 -3.2487 -4.3138
   72SAPC   C27 6299   3.124   3.608   3.763  0.0540 -0.5003 -1.1764
   72SAPC   H7R 6300   3.145   3.717   3.759  0.0085 -0.3364  1.4073
   72SAPC   H7S 6301   3.220   3.554   3.752  0.5771  0.1487  0.0200
   72SAPC   C28 6302   3.064   3.575   3.896 -0.2496 -0.0387 -0.0697
   72SAPC   H8R 6303   2.999   3.486   3.896 -1.8091  1.0256 -1.8872
   72SAPC   C29 6304   3.057   3.649   4.005  0.2366 -0.1681  0.0267
   72SAPC   H9R 6305   3.004   3.603   4.090  1.3446 -1.1658  0.2083
   72SAPC  C210 6306   3.129   3.780   4.032  0.9975  0.4491  0.3481
   72SAPC  H10R 6307   3.200   3.814   3.954 -0.5373  1.3413 -0.7233
   72SAPC  H10S 6308   3.183   3.772   4.129 -0.9789 -2.1799  1.3698
   72SAPC  C211 6309   3.045   3.900   4.040  0.5679 -0.2645  0.1180
   72SAPC  H11R 6310   2.983   3.917   3.951  1.5238 -1.7058 -0.8533
   72SAPC  C212 6311   3.030   3.988   4.144 -0.0876 -0.2259  0.5965
   72SAPC  H12R 6312   2.965   4.075   4.128  0.4057  0.2895  1.3462
   72SAPC  C213 6313   3.105   3.996   4.276  0.0012 -0.2496 -0.5481
   72SAPC  H13R 6314   3.116   4.102   4.307 -0.3776 -0.7636  1.5763
   72SAPC  H13S 6315   3.209   3.957   4.280 -0.3443 -1.1848 -0.2538
   72SAPC  C214 6316   3.039   3.915   4.382 -0.2269  0.0971 -0.2800
   72SAPC  H14R 6317   3.019   3.811   4.352 -0.4370 -0.0000  0.1843
   72SAPC  C215 6318   2.993   3.955   4.502 -0.1938  0.2822  0.0265
   72SAPC  H15R 6319   2.951   3.881   4.572  2.2607 -1.1609  0.1238
   72SAPC  C216 6320   2.983   4.094   4.559  0.2893 -0.8347  0.5568
   72SAPC  H16R 6321   2.886   4.120   4.513  0.0097 -0.6750  1.2316
   72SAPC  H16S 6322   3.063   4.148   4.504  2.4017 -3.3526  0.9177
   72SAPC  C217 6323   2.979   4.108   4.713 -0.0073  0.4753 -0.2361
   72SAPC  H17R 6324   3.074   4.141   4.759 -0.5543 -0.2399  1.5082
   72SAPC  H17S 6325   2.953   4.010   4.760  0.6648  0.4289  0.0402
   72SAPC  C218 6326   2.877   4.216   4.763 -0.2374  0.3528 -0.6220
   72SAPC  H18R 6327   2.780   4.178   4.724 -2.1657  1.4717  2.7310
   72SAPC  H18S 6328   2.910   4.314   4.723  0.9856 -0.5735 -2.0129
   72SAPC  C219 6329   2.857   4.224   4.914 -0.3077  0.1315 -0.2712
   72SAPC  H19R 6330   2.772   4.294   4.932 -2.2072 -2.1926  0.3590
   72SAPC  H19S 6331   2.940   4.273   4.968 -0.6771  0.7215 -0.2322
   72SAPC  C220 6332   2.821   4.087   4.976 -0.0167 -0.5208  0.3765
   72SAPC  H20R 6333   2.902   4.013   4.956 -1.6294 -1.8985 -1.4148
   72SAPC  H20S 6334   2.723   4.059   4.933  0.7262 -1.2250 -0.9113
   72SAPC  H20T 6335   2.790   4.107   5.081  0.7437  1.3279  0.2909
   72SAPC   C33 6336   2.963   4.445   3.540  0.1249  0.0106  0.8489
   72SAPC   H3X 6337   2.925   4.538   3.494 -0.3362 -0.0084  1.1773
   72SAPC   H3Y 6338   3.074   4.451   3.539  0.3438 -2.3603  2.1284
   72SAPC   C34 6339   2.911   4.442   3.685 -0.7160 -0.4059 -0.2174
   72SAPC   H4X 6340   2.957   4.533   3.730  1.7846  0.2636 -3.6717
   72SAPC   H4Y 6341   2.942   4.351   3.740  1.5833  0.3525 -0.1690
   72SAPC   C35 6342   2.761   4.441   3.696 -0.5715 -0.1757 -0.3702
   72SAPC   H5X 6343   2.730   4.402   3.796  0.7484 -1.5531 -0.4697
   72SAPC   H5Y 6344   2.719   4.380   3.614  0.4279 -0.5857 -0.5852
   72SAPC   C36 6345   2.701   4.582   3.679 -0.2542  0.0417  0.1855
   72SAPC   H6X 6346   2.626   4.573   3.598 -0.5644 -0.2369  0.5011
   72SAPC   H6Y 6347   2.773   4.663   3.652  0.6053  0.2611  2.8166
   72SAPC   C37 6348   2.632   4.636   3.804 -0.6335 -0.4602 -0.2728
   72SAPC   H7X 6349   2.554   4.563   3.837 -0.7541  0.5723  1.8829
   72SAPC   H7Y 6350   2.570   4.724   3.777 -0.8148 -0.2631  0.7431
   72SAPC   C38 6351   2.713   4.672   3.927  0.3701  0.1925  0.7840
   72SAPC   H8X 6352   2.773   4.763   3.908  0.7300 -0.1743  0.1058
   72SAPC   H8Y 6353   2.787   4.594   3.957 -0.4739 -1.4244 -1.1454
   72SAPC   C39 6354   2.626   4.698   4.047  0.3713  0.8385  0.0042
   72SAPC   H9X 6355   2.560   4.612   4.070  0.6661  0.5355 -0.2723
   72SAPC   H9Y 6356   2.561   4.787   4.033 -0.2006  0.4572  0.2225
   72SAPC  C310 6357   2.715   4.732   4.168  0.7248  0.0375 -1.1936
   72SAPC  H10X 6358   2.766   4.827   4.144  0.4144  0.2850 -0.8792
   72SAPC  H10Y 6359   2.791   4.651   4.176  0.0710 -0.5192 -0.3683
   72SAPC  C311 6360   2.644   4.726   4.301  0.2199  0.2418 -0.1527
   72SAPC  H11X 6361   2.703   4.768   4.385  1.2240 -0.6518 -0.3888
   72SAPC  H11Y 6362   2.609   4.622   4.319 -1.3509  0.9007  0.7675
   72SAPC  C312 6363   2.530   4.832   4.308 -0.0920  0.2181 -0.8137
   72SAPC  H12X 6364   2.449   4.797   4.240  0.4402 -2.2904 -0.2533
   72SAPC  H12Y 6365   2.564   4.929   4.268 -2.1378  0.0786 -3.1194
   72SAPC  C313 6366   2.478   4.852   4.456  0.4011  0.1156 -0.3247
   72SAPC  H13X 6367   2.411   4.938   4.473 -0.5840 -0.9270  1.4932
   72SAPC  H13Y 6368   2.569   4.874   4.516  1.5184 -0.8793 -1.5770
   72SAPC  C314 6369   2.425   4.720   4.508 -0.4357 -1.2227 -0.3379
   72SAPC  H14X 6370   2.500   4.639   4.499  1.2628 -0.1234  2.6425
   72SAPC  H14Y 6371   2.345   4.686   4.438  0.2001 -1.7096 -0.8344
   72SAPC  C315 6372   2.380   4.716   4.652  0.2585 -0.4269  0.0314
   72SAPC  H15X 6373   2.328   4.619   4.665  2.5284 -2.4009 -3.9863
   72SAPC  H15Y 6374   2.308   4.801   4.663  0.6826 -0.4064  4.6023
   72SAPC  C316 6375   2.478   4.731   4.762  0.1304  0.0751  0.8059
   72SAPC  H16X 6376   2.426   4.724   4.860 -0.9090 -1.2793  0.2009
   72SAPC  H16Y 6377   2.522   4.833   4.766  2.4117 -0.8349  0.5032
   72SAPC  C317 6378   2.579   4.622   4.757 -0.0210  0.5317 -0.1040
   72SAPC  H17X 6379   2.662   4.633   4.830  1.0582 -1.9345 -0.8472
   72SAPC  H17Y 6380   2.641   4.627   4.665 -0.5489 -0.3701 -0.5233
   72SAPC  C318 6381   2.532   4.472   4.767  0.2056 -0.6999  0.3394
   72SAPC  H18X 6382   2.492   4.444   4.667  0.3761 -1.0477  0.3644
   72SAPC  H18Y 6383   2.456   4.464   4.847 -0.0222  1.6372  0.4092
   72SAPC  H18Z 6384   2.617   4.403   4.791  0.1891 -0.9923 -0.4087
   73SLPC     N 6385   1.462   0.297   7.089 -0.0051  0.7845 -0.0344
   73SLPC   C13 6386   1.364   0.367   7.005  0.5974  0.8697  0.4845
   73SLPC  H13A 6387   1.282   0.302   6.981 -1.3394  2.7817  1.5361
   73SLPC  H13B 6388   1.323   0.454   7.055 -0.9114  0.6997 -0.3893
   73SLPC  H13C 6389   1.404   0.392   6.908  0.2669 -0.1090  0.0841
   73SLPC   C14 6390   1.405   0.270   7.226  0.3138  0.5727 -0.4769
   73SLPC  H14A 6391   1.354   0.357   7.263  3.1343  1.0441  2.9315
   73SLPC  H14B 6392   1.338   0.186   7.215  1.3671 -0.6311  1.5457
   73SLPC  H14C 6393   1.479   0.240   7.299 -0.2700  1.3614  0.4705
   73SLPC   C15 6394   1.578   0.389   7.102 -0.2004  0.0095  0.5277
   73SLPC  H15A 6395   1.614   0.429   7.008  0.6599  0.1697  0.9144
   73SLPC  H15B 6396   1.542   0.479   7.151 -0.2201  0.6573 -0.6561
   73SLPC  H15C 6397   1.655   0.346   7.165 -0.4878 -1.4158 -0.0673
   73SLPC   C12 6398   1.504   0.167   7.022 -0.5160 -0.4267 -0.1171
   73SLPC  H12A 6399   1.570   0.108   7.086 -1.1954 -1.4622 -0.3472
   73SLPC  H12B 6400   1.558   0.203   6.936 -0.5361  1.6281  0.6870
   73SLPC   C11 6401   1.391   0.069   6.979 -0.4491  0.0215  0.0919
   73SLPC  H11A 6402   1.443  -0.018   6.934 -0.0058  0.6212 -0.5589
   73SLPC  H11B 6403   1.322   0.114   6.905 -2.3929 -1.5963  0.8042
   73SLPC     P 6404   1.363  -0.079   7.202  0.1955 -0.4000 -0.3669
   73SLPC   O13 6405   1.513  -0.100   7.195  0.1926 -0.3424  0.3564
   73SLPC   O14 6406   1.320  -0.028   7.334 -0.1985  0.7585 -0.0710
   73SLPC   O12 6407   1.312   0.024   7.086  0.1523  1.0183 -0.7003
   73SLPC   O11 6408   1.292  -0.216   7.181 -0.3925  0.3803  0.1075
   73SLPC    C1 6409   1.174  -0.228   7.106 -0.3191  0.7331 -0.5779
   73SLPC    HA 6410   1.105  -0.276   7.179 -0.6032  1.3470 -0.4344
   73SLPC    HB 6411   1.131  -0.130   7.078  0.3761  0.8751 -1.1653
   73SLPC    C2 6412   1.183  -0.309   6.967 -0.5265 -0.7915 -1.0035
   73SLPC    HS 6413   1.199  -0.416   6.990 -1.8043 -0.9957 -0.9698
   73SLPC   O21 6414   1.287  -0.262   6.887 -0.7082 -0.1369 -0.8143
   73SLPC   C21 6415   1.314  -0.334   6.774 -0.0777 -0.1747 -0.7355
   73SLPC   O22 6416   1.274  -0.447   6.754  0.4212 -0.0636 -0.3475
   73SLPC   C22 6417   1.405  -0.249   6.690  0.1799  0.4186  0.0637
   73SLPC   H2R 6418   1.344  -0.157   6.680 -0.6793 -0.0899  0.4732
   73SLPC   H2S 6419   1.500  -0.231   6.745  0.6245 -0.9745 -0.1920
   73SLPC    C3 6420   1.045  -0.310   6.899  0.3507  0.7788  0.3996
   73SLPC    HX 6421   0.985  -0.376   6.964  2.4636  0.1837  1.8550
   73SLPC    HY 6422   1.050  -0.364   6.802  1.7532  1.0194  0.3174
   73SLPC   O31 6423   0.979  -0.183   6.887 -0.7400 -0.0191  0.7886
   73SLPC   C31 6424   1.005  -0.116   6.773 -0.1145  0.1511 -0.8574
   73SLPC   O32 6425   1.050  -0.167   6.672 -0.1150  0.0544  0.2589
   73SLPC   C32 6426   0.973   0.029   6.776  0.1083 -0.1464 -0.6284
   73SLPC   H2X 6427   1.055   0.089   6.822 -1.8228  1.3763  1.0701
   73SLPC   H2Y 6428   0.879   0.052   6.832  0.2104  1.0104 -0.8952
   73SLPC   C23 6429   1.443  -0.319   6.559  0.0443  0.0116 -0.5595
   73SLPC   H3R 6430   1.425  -0.429   6.555 -0.1010  0.0604 -2.2924
   73SLPC   H3S 6431   1.554  -0.309   6.562 -0.0240  1.0275  2.9667
   73SLPC   C24 6432   1.396  -0.262   6.423  1.3865 -0.5528 -0.4086
   73SLPC   H4R 6433   1.377  -0.152   6.427 -0.6060 -0.8805  0.5957
   73SLPC   H4S 6434   1.301  -0.313   6.394  1.0566 -0.2379  0.0936
   73SLPC   C25 6435   1.496  -0.292   6.313 -0.9488 -0.4045 -0.5034
   73SLPC   H5R 6436   1.524  -0.399   6.322 -0.1408 -0.3225 -1.8905
   73SLPC   H5S 6437   1.579  -0.221   6.337 -1.0390 -0.4085 -0.1626
   73SLPC   C26 6438   1.443  -0.267   6.173  0.2819  0.1364  0.1815
   73SLPC   H6R 6439   1.391  -0.169   6.167 -0.5184 -0.2789  0.1980
   73SLPC   H6S 6440   1.372  -0.351   6.157  0.2173  0.6031 -2.4297
   73SLPC   C27 6441   1.557  -0.271   6.062  0.0728  0.2736 -0.0424
   73SLPC   H7R 6442   1.627  -0.355   6.084  1.4436  1.6028  0.8128
   73SLPC   H7S 6443   1.621  -0.182   6.082  2.7590 -0.7590 -3.1329
   73SLPC   C28 6444   1.517  -0.271   5.914 -0.1736 -0.6978  0.2911
   73SLPC   H8R 6445   1.609  -0.249   5.854  0.8177 -3.1671  0.7951
   73SLPC   H8S 6446   1.441  -0.191   5.904  0.3403 -0.0542  1.4457
   73SLPC   C29 6447   1.476  -0.408   5.869  0.0269 -0.7507  0.3342
   73SLPC   H9R 6448   1.545  -0.491   5.886  1.3657  0.1454 -0.5479
   73SLPC  C210 6449   1.359  -0.440   5.815  0.7427  0.1021 -0.2824
   73SLPC  H10R 6450   1.344  -0.547   5.798 -0.0464  0.2889 -0.7953
   73SLPC  C211 6451   1.234  -0.368   5.769  0.5041  0.5990  0.5580
   73SLPC  H11R 6452   1.145  -0.423   5.806  0.6845 -0.3527 -0.3687
   73SLPC  H11S 6453   1.211  -0.384   5.661 -2.1887 -0.2614  1.1761
   73SLPC  C212 6454   1.208  -0.220   5.806 -0.4396  0.0345  0.0262
   73SLPC  H12R 6455   1.230  -0.194   5.911  1.8150 -1.3176 -0.0439
   73SLPC  C213 6456   1.164  -0.118   5.726  0.1916  0.0075 -0.2825
   73SLPC  H13R 6457   1.151  -0.020   5.775  2.6479 -0.3003  1.1662
   73SLPC  C214 6458   1.126  -0.122   5.580 -0.0512  0.3049  0.7881
   73SLPC  H14R 6459   1.043  -0.056   5.545  0.9477  0.6829 -1.0331
   73SLPC  H14S 6460   1.102  -0.229   5.560  1.4386  0.0541  0.1555
   73SLPC  C215 6461   1.246  -0.083   5.494  0.4751  0.3711 -0.5776
   73SLPC  H15R 6462   1.326  -0.159   5.506  2.1653  2.0685 -0.5666
   73SLPC  H15S 6463   1.297   0.009   5.530 -1.9662  1.5966 -0.0421
   73SLPC  C216 6464   1.212  -0.074   5.340 -0.3054 -0.0697 -0.4630
   73SLPC  H16R 6465   1.184  -0.172   5.296  0.4484 -0.3720 -0.2831
   73SLPC  H16S 6466   1.300  -0.049   5.277 -1.0131  0.0155 -1.4443
   73SLPC  C217 6467   1.105   0.030   5.304  0.1561  0.2147 -0.2800
   73SLPC  H17R 6468   1.156   0.112   5.359  0.7151 -0.2937 -0.0236
   73SLPC  H17S 6469   1.008   0.008   5.353  1.1639 -1.2324  1.1876
   73SLPC  C218 6470   1.095   0.085   5.162  0.3360  0.3921 -0.1846
   73SLPC  H18R 6471   1.056   0.001   5.101  2.3272 -1.2687  0.7030
   73SLPC  H18S 6472   1.196   0.118   5.129  0.0852  0.3088 -1.0661
   73SLPC  H18T 6473   1.024   0.171   5.158  0.1635  0.2226 -1.0187
   73SLPC   C33 6474   0.946   0.087   6.633  0.0802 -0.3403 -0.0571
   73SLPC   H3X 6475   0.876   0.022   6.575 -2.0762  2.5942 -0.9799
   73SLPC   H3Y 6476   1.042   0.092   6.578 -0.2514  1.6062 -0.5188
   73SLPC   C34 6477   0.888   0.223   6.643  0.0406 -0.3208 -0.4016
   73SLPC   H4X 6478   0.956   0.290   6.699 -3.3893  2.6434  0.5862
   73SLPC   H4Y 6479   0.795   0.227   6.703  0.1729  2.4937 -0.2212
   73SLPC   C35 6480   0.871   0.284   6.508 -0.2429 -0.4872  0.4177
   73SLPC   H5X 6481   0.973   0.287   6.466 -0.5319  1.1407 -0.2288
   73SLPC   H5Y 6482   0.850   0.393   6.512  2.8757  0.3272 -1.8935
   73SLPC   C36 6483   0.779   0.208   6.412  0.4605  0.2927 -0.2352
   73SLPC   H6X 6484   0.696   0.172   6.476  1.5956 -0.4373  0.8673
   73SLPC   H6Y 6485   0.825   0.112   6.380 -1.8283 -1.2217  0.7285
   73SLPC   C37 6486   0.747   0.264   6.272  0.8929  0.4529 -0.0708
   73SLPC   H7X 6487   0.682   0.354   6.283  1.6239  0.8858  0.7833
   73SLPC   H7Y 6488   0.677   0.198   6.217  0.7365 -2.1088  2.9286
   73SLPC   C38 6489   0.870   0.301   6.195 -0.1403 -0.2459  0.0777
   73SLPC   H8X 6490   0.953   0.228   6.208  0.7968  0.7240 -0.3438
   73SLPC   H8Y 6491   0.891   0.400   6.240  0.4119 -0.4296  0.2404
   73SLPC   C39 6492   0.845   0.315   6.049 -0.6731 -0.8210 -0.0330
   73SLPC   H9X 6493   0.923   0.369   5.992  0.1034 -0.3533  1.4053
   73SLPC   H9Y 6494   0.750   0.372   6.035  0.4859  1.7032  1.5642
   73SLPC  C310 6495   0.845   0.181   5.974 -0.3543 -0.3838 -0.8767
   73SLPC  H10X 6496   0.776   0.118   6.035 -1.4748  1.4094 -0.2071
   73SLPC  H10Y 6497   0.943   0.129   5.979 -0.1940 -0.4145 -3.3301
   73SLPC  C311 6498   0.809   0.202   5.828  0.5417  0.0454  0.3271
   73SLPC  H11X 6499   0.884   0.266   5.776  0.0481  1.5289  1.3496
   73SLPC  H11Y 6500   0.718   0.265   5.837  0.9325  0.5417  0.9230
   73SLPC  C312 6501   0.769   0.070   5.763  0.0621 -0.9275  0.4237
   73SLPC  H12X 6502   0.706   0.007   5.829  1.0333 -2.1569  0.2390
   73SLPC  H12Y 6503   0.862   0.011   5.746 -0.2015 -1.5752  1.1988
   73SLPC  C313 6504   0.688   0.081   5.628 -0.1630 -0.7694 -0.2246
   73SLPC  H13X 6505   0.596   0.131   5.667  0.5121 -0.2729  0.7675
   73SLPC  H13Y 6506   0.656  -0.022   5.602 -1.5314 -0.3301 -0.3715
   73SLPC  C314 6507   0.756   0.170   5.524 -0.1991 -0.5086  0.9883
   73SLPC  H14X 6508   0.797   0.092   5.457  1.4245 -2.6061  4.1724
   73SLPC  H14Y 6509   0.844   0.223   5.566 -1.2846  0.0414  2.7087
   73SLPC  C315 6510   0.652   0.261   5.457  0.0373  0.1370  0.4827
   73SLPC  H15X 6511   0.614   0.333   5.533 -2.9868 -2.3059  1.4591
   73SLPC  H15Y 6512   0.566   0.198   5.426  0.1248  1.1379 -2.0330
   73SLPC  C316 6513   0.683   0.325   5.314  1.2586 -0.1699 -0.2068
   73SLPC  H16X 6514   0.784   0.371   5.317  1.9013 -1.5897  2.4471
   73SLPC  H16Y 6515   0.612   0.406   5.288 -0.7730 -2.4886 -2.3189
   73SLPC  C317 6516   0.685   0.213   5.211 -0.2353 -0.0984  0.5901
   73SLPC  H17X 6517   0.583   0.170   5.219 -1.2022  1.6666 -1.2735
   73SLPC  H17Y 6518   0.753   0.130   5.237  1.1862  0.8486  0.0216
   73SLPC  C318 6519   0.718   0.264   5.069 -0.0741  0.0589 -0.1720
   73SLPC  H18X 6520   0.814   0.319   5.062 -1.5930  2.6823 -2.8638
   73SLPC  H18Y 6521   0.649   0.347   5.044 -1.0786 -0.0764  1.9401
   73SLPC  H18Z 6522   0.707   0.186   4.990  0.2152  0.6341 -0.7931
   74SLPC     N 6523   3.412   0.557   6.832  0.0172  0.4221 -0.2640
   74SLPC   C13 6524   3.412   0.681   6.918 -0.6745 -0.0263 -0.0842
   74SLPC  H13A 6525   3.321   0.716   6.966  0.3146  1.6777  0.6320
   74SLPC  H13B 6526   3.493   0.683   6.989 -0.3741 -1.1097 -0.3745
   74SLPC  H13C 6527   3.440   0.767   6.858  0.2989  1.1946  2.0297
   74SLPC   C14 6528   3.327   0.588   6.720 -0.0111  0.2927  0.3269
   74SLPC  H14A 6529   3.360   0.666   6.653  1.1777 -1.1291 -0.8303
   74SLPC  H14B 6530   3.332   0.512   6.643 -0.3262  3.2644 -2.8645
   74SLPC  H14C 6531   3.228   0.601   6.760  0.9883  1.3292  2.6409
   74SLPC   C15 6532   3.357   0.452   6.925  0.0748 -0.6194 -0.7824
   74SLPC  H15A 6533   3.356   0.354   6.878  1.0558  0.1580 -2.5256
   74SLPC  H15B 6534   3.414   0.456   7.017 -2.2463  0.8999  0.6819
   74SLPC  H15C 6535   3.256   0.483   6.945  0.6429  0.0641  1.2967
   74SLPC   C12 6536   3.551   0.523   6.792 -0.4215  0.0005 -0.3002
   74SLPC  H12A 6537   3.597   0.493   6.885 -2.0823  1.9867  1.2739
   74SLPC  H12B 6538   3.605   0.611   6.762  0.8175 -0.1762  1.2828
   74SLPC   C11 6539   3.579   0.418   6.680  0.9530  0.1685  0.0359
   74SLPC  H11A 6540   3.685   0.412   6.647  0.3069 -5.0812 -2.0881
   74SLPC  H11B 6541   3.521   0.455   6.592  2.0385  0.7429 -0.4633
   74SLPC     P 6542   3.615   0.197   6.833  0.1911  0.4695  0.3810
   74SLPC   O13 6543   3.710   0.275   6.912 -0.4206  0.7181  0.6215
   74SLPC   O14 6544   3.513   0.110   6.904 -0.2242 -0.0135  0.2259
   74SLPC   O12 6545   3.533   0.289   6.728  0.1487 -0.4424  0.5472
   74SLPC   O11 6546   3.687   0.120   6.719 -0.0844  0.0701 -0.7621
   74SLPC    C1 6547   3.628   0.025   6.633  0.1788 -0.1459  0.0803
   74SLPC    HA 6548   3.674  -0.076   6.638  0.7979 -0.0519 -2.3592
   74SLPC    HB 6549   3.524   0.006   6.668 -0.0141  3.6594  2.1384
   74SLPC    C2 6550   3.650   0.048   6.482  0.0164 -0.0912 -0.4845
   74SLPC    HS 6551   3.622  -0.048   6.433 -0.3416 -0.3168  0.1559
   74SLPC   O21 6552   3.781   0.094   6.442  0.0040 -0.0362 -0.5532
   74SLPC   C21 6553   3.859   0.003   6.402 -0.2057  0.1297 -0.4622
   74SLPC   O22 6554   3.830  -0.115   6.392 -0.1767  0.4509  0.3949
   74SLPC   C22 6555   3.991   0.071   6.366 -0.2483  0.3866  0.0592
   74SLPC   H2R 6556   3.965   0.167   6.317  0.6468  1.2880  1.3033
   74SLPC   H2S 6557   4.035   0.114   6.458  0.1570 -0.5725  0.3261
   74SLPC    C3 6558   3.548   0.159   6.432  0.3313  0.3012  0.2064
   74SLPC    HX 6559   3.597   0.257   6.452  2.7419 -0.9544  0.7677
   74SLPC    HY 6560   3.457   0.146   6.494 -0.6627 -0.8897 -1.4353
   74SLPC   O31 6561   3.518   0.141   6.292 -0.1136 -0.5003 -0.2254
   74SLPC   C31 6562   3.465   0.247   6.235 -0.5326 -0.0758  0.4292
   74SLPC   O32 6563   3.441   0.353   6.288 -0.0590  0.2450 -0.2631
   74SLPC   C32 6564   3.445   0.222   6.083  0.2174  0.4625 -0.6834
   74SLPC   H2X 6565   3.383   0.130   6.071  1.3698 -0.4359  0.0095
   74SLPC   H2Y 6566   3.547   0.193   6.047 -0.1205 -0.8193 -0.6454
   74SLPC   C23 6567   4.092  -0.008   6.278  0.5552  0.2295 -0.6009
   74SLPC   H3R 6568   4.100  -0.110   6.320 -2.1778  1.2218  2.8515
   74SLPC   H3S 6569   4.190   0.044   6.289  1.9556 -1.6379 -3.2237
   74SLPC   C24 6570   4.068  -0.006   6.126 -0.4147 -0.4606 -0.0911
   74SLPC   H4R 6571   4.153  -0.063   6.084  0.3629 -0.7755  1.8591
   74SLPC   H4S 6572   4.072   0.099   6.090  2.7171  0.2767  2.0470
   74SLPC   C25 6573   3.946  -0.078   6.080  0.8718 -0.4430  0.1150
   74SLPC   H5R 6574   3.854  -0.035   6.124 -0.3055 -2.0877 -0.6158
   74SLPC   H5S 6575   3.927  -0.185   6.102 -3.0767  0.4611  1.7711
   74SLPC   C26 6576   3.930  -0.078   5.925 -0.1987 -0.4559  0.2679
   74SLPC   H6R 6577   3.843  -0.132   5.882  0.7985 -1.2869 -0.7707
   74SLPC   H6S 6578   4.019  -0.135   5.891  0.3554  0.9622 -0.7140
   74SLPC   C27 6579   3.932   0.068   5.874  0.3080  0.2262  0.4183
   74SLPC   H7R 6580   4.034   0.114   5.872 -0.8736  3.0003 -0.4491
   74SLPC   H7S 6581   3.875   0.133   5.943 -0.0726  1.4456 -0.9874
   74SLPC   C28 6582   3.861   0.095   5.736  0.1056 -0.0309  0.0358
   74SLPC   H8R 6583   3.843   0.203   5.716  1.5587  0.4925  1.3606
   74SLPC   H8S 6584   3.757   0.060   5.759  0.7369 -2.3956 -0.4542
   74SLPC   C29 6585   3.900   0.007   5.624  0.0405 -0.2851  0.0467
   74SLPC   H9R 6586   3.896  -0.100   5.649 -0.2870 -0.8024 -2.0847
   74SLPC  C210 6587   3.944   0.053   5.506  0.0709  0.1761 -0.2239
   74SLPC  H10R 6588   3.972  -0.022   5.430 -0.9762 -0.2359 -0.2224
   74SLPC  C211 6589   3.959   0.194   5.465 -0.0358  0.3293  0.5753
   74SLPC  H11R 6590   3.990   0.251   5.556 -0.4070  0.7776  0.4268
   74SLPC  H11S 6591   3.856   0.229   5.441  0.4378  1.3044 -0.1085
   74SLPC  C212 6592   4.060   0.215   5.352  0.5527 -0.3648  0.6268
   74SLPC  H12R 6593   4.163   0.194   5.383  0.7851  0.0190  0.1328
   74SLPC  C213 6594   4.040   0.241   5.216  0.0789 -0.0978  0.8188
   74SLPC  H13R 6595   4.126   0.260   5.150  0.3008 -2.1704  0.4411
   74SLPC  C214 6596   3.908   0.269   5.147  0.1886  0.1936 -0.1567
   74SLPC  H14R 6597   3.828   0.274   5.224  1.4160  1.1693  1.0954
   74SLPC  H14S 6598   3.885   0.177   5.089  0.9386 -1.7458  2.4384
   74SLPC  C215 6599   3.899   0.405   5.077 -0.1365  0.4491  0.4540
   74SLPC  H15R 6600   3.920   0.489   5.147 -0.7441 -0.1657  1.4085
   74SLPC  H15S 6601   3.796   0.417   5.036  0.2250 -2.8323 -1.7644
   74SLPC  C216 6602   3.998   0.415   4.950  0.4244 -0.1808 -0.8217
   74SLPC  H16R 6603   4.101   0.424   4.990  1.3107  0.6134 -3.1182
   74SLPC  H16S 6604   3.979   0.518   4.914  1.2725  0.6047  0.8722
   74SLPC  C217 6605   3.983   0.313   4.838  0.3819 -0.0370 -0.1523
   74SLPC  H17R 6606   4.032   0.225   4.885  0.7685  0.2040 -0.0967
   74SLPC  H17S 6607   4.052   0.327   4.752  0.0590  0.1958 -0.3755
   74SLPC  C218 6608   3.837   0.283   4.775 -0.1438 -0.6696 -0.3321
   74SLPC  H18R 6609   3.803   0.384   4.741 -0.3519  0.1578  2.1245
   74SLPC  H18S 6610   3.780   0.249   4.864 -0.6232 -0.1498 -0.4296
   74SLPC  H18T 6611   3.838   0.205   4.696 -0.3127  0.1213 -1.1283
   74SLPC   C33 6612   3.393   0.346   6.014 -0.0218  0.5451  0.1253
   74SLPC   H3X 6613   3.467   0.427   5.999  0.4054 -0.1678 -1.9223
   74SLPC   H3Y 6614   3.306   0.392   6.066 -1.7605 -0.9132 -1.3265
   74SLPC   C34 6615   3.347   0.311   5.875 -0.3430  0.0269 -0.0773
   74SLPC   H4X 6616   3.250   0.259   5.894 -0.5914  1.2809  2.5987
   74SLPC   H4Y 6617   3.431   0.253   5.832 -0.5052  0.9958 -1.7896
   74SLPC   C35 6618   3.321   0.439   5.786 -0.0063  0.0661 -0.7408
   74SLPC   H5X 6619   3.414   0.498   5.772  1.8235 -2.0826  1.3760
   74SLPC   H5Y 6620   3.246   0.507   5.835 -0.2056 -0.0619 -0.8672
   74SLPC   C36 6621   3.258   0.403   5.651 -0.8901 -0.0539 -0.6405
   74SLPC   H6X 6622   3.172   0.335   5.670 -0.5295  0.0012  1.4828
   74SLPC   H6Y 6623   3.338   0.340   5.605  0.4412  0.3684  0.9967
   74SLPC   C37 6624   3.228   0.524   5.564 -0.6038 -0.6559  0.1066
   74SLPC   H7X 6625   3.318   0.588   5.578  1.4160 -3.6277  1.8765
   74SLPC   H7Y 6626   3.149   0.590   5.605  1.3661  2.7590 -1.1776
   74SLPC   C38 6627   3.197   0.498   5.418 -0.4378 -0.3899 -0.4167
   74SLPC   H8X 6628   3.100   0.444   5.427  0.7382 -2.6491 -0.4421
   74SLPC   H8Y 6629   3.262   0.428   5.363  2.3417  0.6847  1.3036
   74SLPC   C39 6630   3.189   0.621   5.326 -0.2508 -0.2890  0.2727
   74SLPC   H9X 6631   3.287   0.638   5.278 -0.9327  0.1848 -0.9837
   74SLPC   H9Y 6632   3.171   0.713   5.385  1.4332  0.8032 -0.8267
   74SLPC  C310 6633   3.075   0.616   5.223  0.0702  0.3336 -0.3024
   74SLPC  H10X 6634   3.073   0.713   5.168  2.0420  0.7846  0.3263
   74SLPC  H10Y 6635   2.972   0.606   5.264 -0.2641  1.1410 -0.9089
   74SLPC  C311 6636   3.102   0.512   5.119 -0.2476  0.5839  0.1657
   74SLPC  H11X 6637   3.124   0.413   5.164 -1.1577 -0.2088 -1.0665
   74SLPC  H11Y 6638   3.190   0.545   5.060 -0.8503  1.2782 -0.3718
   74SLPC  C312 6639   2.987   0.489   5.013  0.1234  0.2773 -0.4776
   74SLPC  H12X 6640   3.017   0.403   4.949 -2.5780  0.6046 -2.3434
   74SLPC  H12Y 6641   2.991   0.581   4.951  0.4667  1.9362  1.8916
   74SLPC  C313 6642   2.846   0.461   5.063 -0.4666  0.4869  0.2834
   74SLPC  H13X 6643   2.801   0.551   5.109 -0.6617  0.5015  0.0681
   74SLPC  H13Y 6644   2.848   0.375   5.133  0.4461  1.0327  0.9581
   74SLPC  C314 6645   2.758   0.424   4.939 -0.1656  0.1222  0.4811
   74SLPC  H14X 6646   2.798   0.333   4.890 -0.3718 -0.3574  1.1843
   74SLPC  H14Y 6647   2.755   0.502   4.859 -1.8104 -1.7191 -1.3865
   74SLPC  C315 6648   2.612   0.410   4.976 -0.2170  0.0031 -0.3903
   74SLPC  H15X 6649   2.582   0.510   5.015 -3.1191 -0.4524 -1.2150
   74SLPC  H15Y 6650   2.596   0.336   5.057 -0.1715 -2.1362 -2.2232
   74SLPC  C316 6651   2.530   0.371   4.853  0.3363  0.4687  0.5682
   74SLPC  H16X 6652   2.563   0.267   4.829  1.5525  0.3474  2.4960
   74SLPC  H16Y 6653   2.554   0.430   4.763 -0.4137 -0.5540 -0.3266
   74SLPC  C317 6654   2.376   0.382   4.872 -0.2260 -0.2388  0.2641
   74SLPC  H17X 6655   2.345   0.483   4.905 -0.3061 -0.6158  1.4155
   74SLPC  H17Y 6656   2.350   0.316   4.958 -0.9110 -2.3775 -1.4872
   74SLPC  C318 6657   2.291   0.352   4.749  0.8321  0.3027 -0.5086
   74SLPC  H18X 6658   2.297   0.440   4.683 -0.1450  1.3118  0.7024
   74SLPC  H18Y 6659   2.187   0.331   4.782  1.6492 -0.4681  1.7388
   74SLPC  H18Z 6660   2.332   0.267   4.690  1.8272 -0.4042  1.1290
   75SLPC     N 6661   3.436   0.495   7.504  0.2792 -0.1389 -0.4791
   75SLPC   C13 6662   3.531   0.567   7.594  0.2248 -0.1514  0.1078
   75SLPC  H13A 6663   3.634   0.534   7.593  1.5921  3.6162 -1.0083
   75SLPC  H13B 6664   3.542   0.670   7.564  0.7340 -0.0114  0.7568
   75SLPC  H13C 6665   3.496   0.572   7.696  2.3009 -0.7630  0.9044
   75SLPC   C14 6666   3.300   0.543   7.543  0.5290  0.7173 -0.0035
   75SLPC  H14A 6667   3.223   0.494   7.486  0.6053  0.4003  0.1611
   75SLPC  H14B 6668   3.282   0.521   7.647 -0.7083 -0.3710 -0.4133
   75SLPC  H14C 6669   3.293   0.650   7.530  0.6658  0.7781  0.4065
   75SLPC   C15 6670   3.446   0.344   7.512 -0.4123 -0.2018 -0.3170
   75SLPC  H15A 6671   3.378   0.301   7.440  0.5794 -0.7035 -0.9677
   75SLPC  H15B 6672   3.536   0.300   7.472 -2.6721 -2.9629 -2.8318
   75SLPC  H15C 6673   3.423   0.309   7.612 -1.0583  0.7279 -0.1300
   75SLPC   C12 6674   3.450   0.533   7.359  0.5297 -0.0125  0.1260
   75SLPC  H12A 6675   3.382   0.479   7.295  1.4903 -0.7107 -0.3180
   75SLPC  H12B 6676   3.551   0.507   7.333  0.5921  0.7840 -0.4600
   75SLPC   C11 6677   3.442   0.682   7.315  0.3848 -0.0836 -0.5390
   75SLPC  H11A 6678   3.364   0.727   7.380  0.9242 -0.0455  0.1038
   75SLPC  H11B 6679   3.407   0.700   7.212 -1.2410  0.3287  0.0574
   75SLPC     P 6680   3.681   0.787   7.245  0.2098  0.1862 -0.0652
   75SLPC   O13 6681   3.651   0.913   7.179 -0.1551 -0.5086  0.3054
   75SLPC   O14 6682   3.814   0.776   7.309 -0.7333 -0.2359 -0.0002
   75SLPC   O12 6683   3.566   0.759   7.355 -0.2798  0.6489 -0.0044
   75SLPC   O11 6684   3.671   0.677   7.135 -0.3096  0.3294 -0.2860
   75SLPC    C1 6685   3.783   0.625   7.060  0.3884  0.2433 -0.4057
   75SLPC    HA 6686   3.871   0.612   7.126  2.7873 -0.9232 -3.5637
   75SLPC    HB 6687   3.762   0.523   7.021  3.1714 -0.3693 -0.4733
   75SLPC    C2 6688   3.841   0.719   6.952  0.6123  0.5509  0.6053
   75SLPC    HS 6689   3.857   0.811   7.012 -0.7326 -0.0187  1.9065
   75SLPC   O21 6690   3.745   0.751   6.849 -0.4705 -0.1161 -0.0024
   75SLPC   C21 6691   3.780   0.868   6.782  0.6889  0.4467 -0.3823
   75SLPC   O22 6692   3.876   0.935   6.814 -0.6968 -0.2714  0.6841
   75SLPC   C22 6693   3.697   0.889   6.657 -0.1171  0.6011  0.8728
   75SLPC   H2R 6694   3.593   0.867   6.689 -0.3252  2.4730  1.6481
   75SLPC   H2S 6695   3.691   0.996   6.626 -1.6755  0.3652  0.2831
   75SLPC    C3 6696   3.985   0.688   6.893  0.0825  0.0283 -0.0479
   75SLPC    HX 6697   4.040   0.638   6.976 -0.6542  0.2541  0.5933
   75SLPC    HY 6698   4.045   0.780   6.873  3.3378 -1.8059  0.6402
   75SLPC   O31 6699   3.978   0.613   6.770  0.0675 -0.0055  0.0677
   75SLPC   C31 6700   4.088   0.551   6.738 -1.0254  0.8691  0.3309
   75SLPC   O32 6701   4.180   0.533   6.818  0.1504 -0.6215  0.0817
   75SLPC   C32 6702   4.092   0.513   6.586  1.4025  0.2918 -0.3329
   75SLPC   H2X 6703   3.989   0.475   6.571  0.7310  1.1226  1.8590
   75SLPC   H2Y 6704   4.161   0.426   6.574 -0.6103 -1.0695 -3.0933
   75SLPC   C23 6705   3.748   0.806   6.538  0.0697 -0.2303 -0.4919
   75SLPC   H3R 6706   3.791   0.708   6.568  2.2776 -0.0548 -2.7661
   75SLPC   H3S 6707   3.833   0.862   6.493  0.8143 -1.3027 -0.4527
   75SLPC   C24 6708   3.644   0.791   6.425 -0.0162  0.7853 -0.0186
   75SLPC   H4R 6709   3.596   0.891   6.418 -1.1926  0.2143 -0.5384
   75SLPC   H4S 6710   3.560   0.730   6.465 -0.7148 -0.0830 -2.5946
   75SLPC   C25 6711   3.695   0.731   6.290 -0.0120  0.4937  0.3328
   75SLPC   H5R 6712   3.765   0.650   6.319  0.3636  1.4586  2.2867
   75SLPC   H5S 6713   3.759   0.806   6.240  3.1557 -1.8875  0.5551
   75SLPC   C26 6714   3.587   0.684   6.189  0.0747 -0.3149 -0.3559
   75SLPC   H6R 6715   3.561   0.577   6.203  2.0436 -0.7320  0.4579
   75SLPC   H6S 6716   3.635   0.685   6.089  0.2455  0.0958 -0.2713
   75SLPC   C27 6717   3.454   0.760   6.178  0.0615  0.2831  0.2693
   75SLPC   H7R 6718   3.474   0.866   6.152 -0.1730  0.0982 -0.7297
   75SLPC   H7S 6719   3.390   0.744   6.267 -0.3834 -1.3753 -0.3089
   75SLPC   C28 6720   3.368   0.710   6.056  0.1563 -0.2635 -0.3790
   75SLPC   H8R 6721   3.272   0.765   6.063  1.4092  1.9961  0.2506
   75SLPC   H8S 6722   3.341   0.604   6.075  1.0383 -0.2354  1.1681
   75SLPC   C29 6723   3.441   0.739   5.927 -0.0759  0.1688  0.6967
   75SLPC   H9R 6724   3.539   0.694   5.904  0.4997  2.3882 -1.5536
   75SLPC  C210 6725   3.405   0.810   5.817  0.3284 -0.3804  0.9021
   75SLPC  H10R 6726   3.474   0.820   5.732  1.1939  2.3467  1.8298
   75SLPC  C211 6727   3.285   0.906   5.817 -0.1434  0.0543 -0.1973
   75SLPC  H11R 6728   3.197   0.870   5.874 -0.1361  1.0564  0.4667
   75SLPC  H11S 6729   3.251   0.929   5.714 -0.8949 -2.9256 -0.6994
   75SLPC  C212 6730   3.315   1.042   5.876 -0.3711  0.3194  0.9592
   75SLPC  H12R 6731   3.318   1.035   5.986 -1.3742  1.0128  1.0470
   75SLPC  C213 6732   3.307   1.164   5.823 -0.4665  0.3814 -0.6817
   75SLPC  H13R 6733   3.330   1.244   5.895 -0.9926 -0.8526  0.9146
   75SLPC  C214 6734   3.276   1.189   5.683 -0.2614 -0.7951 -0.0486
   75SLPC  H14R 6735   3.276   1.299   5.667 -0.7144 -0.8069 -0.1600
   75SLPC  H14S 6736   3.167   1.169   5.670 -0.2199  0.3797 -2.9979
   75SLPC  C215 6737   3.351   1.133   5.552  0.7018  0.0755 -0.1780
   75SLPC  H15R 6738   3.377   1.025   5.547  0.1144 -0.2539  2.3961
   75SLPC  H15S 6739   3.444   1.194   5.554  0.1280  0.9836 -0.2858
   75SLPC  C216 6740   3.273   1.170   5.423 -0.8228  0.1071  0.0361
   75SLPC  H16R 6741   3.348   1.206   5.349  1.3175 -1.4947  1.2964
   75SLPC  H16S 6742   3.202   1.253   5.442 -0.1762  1.0145 -1.3596
   75SLPC  C217 6743   3.201   1.049   5.368 -0.0976 -0.9511 -0.5138
   75SLPC  H17R 6744   3.116   1.029   5.437 -1.0381 -0.1046 -1.3960
   75SLPC  H17S 6745   3.268   0.960   5.367  1.6250  0.1089  3.3095
   75SLPC  C218 6746   3.143   1.083   5.227 -0.8089 -0.0080 -0.0294
   75SLPC  H18R 6747   3.065   1.163   5.230 -1.3487 -0.4960 -0.8678
   75SLPC  H18S 6748   3.080   0.998   5.195 -1.3778  1.0326 -1.8109
   75SLPC  H18T 6749   3.223   1.098   5.151 -1.9113  0.2670 -1.1659
   75SLPC   C33 6750   4.139   0.632   6.496  0.2969  0.7436 -0.2704
   75SLPC   H3X 6751   4.212   0.696   6.550  1.7446 -0.8686 -0.2371
   75SLPC   H3Y 6752   4.052   0.701   6.490  0.7517  1.4701  1.1255
   75SLPC   C34 6753   4.186   0.600   6.351 -0.2157 -0.0809 -0.2606
   75SLPC   H4X 6754   4.288   0.555   6.353 -0.0695  0.1161 -1.7414
   75SLPC   H4Y 6755   4.200   0.686   6.281 -1.4040 -1.7611 -2.7208
   75SLPC   C35 6756   4.085   0.506   6.289  0.1522 -0.4612  0.1808
   75SLPC   H5X 6757   3.989   0.562   6.294  0.7761  0.7610 -0.8305
   75SLPC   H5Y 6758   4.070   0.408   6.339 -0.7938  0.3565  1.5691
   75SLPC   C36 6759   4.131   0.467   6.148  0.0855  0.0337  0.2905
   75SLPC   H6X 6760   4.210   0.388   6.156  0.0038 -0.0109  0.6841
   75SLPC   H6Y 6761   4.178   0.550   6.092  2.4933 -0.7210  1.0287
   75SLPC   C37 6762   4.010   0.413   6.070 -0.1451  0.2410  0.2891
   75SLPC   H7X 6763   3.959   0.338   6.133 -1.2756  0.1020 -0.7375
   75SLPC   H7Y 6764   4.040   0.365   5.974  1.1354  0.5278  0.5286
   75SLPC   C38 6765   3.895   0.508   6.032 -0.1307  0.2964  0.1878
   75SLPC   H8X 6766   3.931   0.604   5.990  0.2789  0.7569  1.5534
   75SLPC   H8Y 6767   3.846   0.535   6.128 -1.5753  3.1111 -1.2257
   75SLPC   C39 6768   3.797   0.451   5.924  0.4070 -0.1346 -0.0430
   75SLPC   H9X 6769   3.695   0.459   5.968  0.9265  1.4594  0.9738
   75SLPC   H9Y 6770   3.823   0.344   5.911  1.1399 -0.1324  1.2956
   75SLPC  C310 6771   3.808   0.516   5.780 -0.5859  0.1647 -0.4375
   75SLPC  H10X 6772   3.908   0.494   5.736 -1.0087 -0.8686 -0.9145
   75SLPC  H10Y 6773   3.790   0.625   5.783  0.5792  0.3626 -0.3231
   75SLPC  C311 6774   3.703   0.467   5.679 -0.1437  0.0558  0.0210
   75SLPC  H11X 6775   3.603   0.507   5.705  0.6907  2.1100  0.2183
   75SLPC  H11Y 6776   3.703   0.356   5.682 -0.0283  0.0711  1.2573
   75SLPC  C312 6777   3.731   0.511   5.533  0.5677 -0.1956 -0.2004
   75SLPC  H12X 6778   3.828   0.465   5.505  0.7620 -0.1203  0.3371
   75SLPC  H12Y 6779   3.745   0.621   5.545 -2.5717  0.2177  0.8719
   75SLPC  C313 6780   3.622   0.456   5.438 -0.5816 -0.2754 -0.5695
   75SLPC  H13X 6781   3.523   0.489   5.476 -0.4749  1.9209 -2.0340
   75SLPC  H13Y 6782   3.640   0.347   5.446  0.2817  0.0010  2.9080
   75SLPC  C314 6783   3.627   0.509   5.295  0.7104 -0.1652 -0.3444
   75SLPC  H14X 6784   3.559   0.441   5.240 -0.6406 -0.9779  2.1453
   75SLPC  H14Y 6785   3.729   0.495   5.254  0.1857 -1.6762 -1.2202
   75SLPC  C315 6786   3.585   0.648   5.277  0.2149 -0.5267 -0.6034
   75SLPC  H15X 6787   3.657   0.719   5.322 -1.3631 -0.9560  2.9891
   75SLPC  H15Y 6788   3.489   0.673   5.327 -0.6021  0.8322 -2.7332
   75SLPC  C316 6789   3.541   0.679   5.132  0.3551 -0.5978 -0.5244
   75SLPC  H16X 6790   3.474   0.604   5.086 -0.3188 -0.8146  0.7682
   75SLPC  H16Y 6791   3.637   0.683   5.077  0.3210  0.6532 -0.5251
   75SLPC  C317 6792   3.474   0.814   5.131 -0.4184 -0.0232 -0.1784
   75SLPC  H17X 6793   3.540   0.896   5.166 -0.6069  0.4352 -0.8752
   75SLPC  H17Y 6794   3.393   0.822   5.207 -0.8483  3.4424 -0.8377
   75SLPC  C318 6795   3.417   0.846   4.987  0.9705 -0.8600 -0.5209
   75SLPC  H18X 6796   3.337   0.923   4.980  0.7800 -1.1038 -1.1263
   75SLPC  H18Y 6797   3.374   0.755   4.938  0.5834 -1.4052  0.7919
   75SLPC  H18Z 6798   3.496   0.896   4.928  1.8828 -1.4799  0.1580
   76SLPC     N 6799   5.956   0.947   7.159  0.4234 -0.1770  0.4130
   76SLPC   C13 6800   6.057   1.044   7.092 -0.0980 -0.1470 -0.0415
   76SLPC  H13A 6801   6.011   1.136   7.059  0.2741 -0.1134 -0.4615
   76SLPC  H13B 6802   6.129   1.074   7.167 -0.0293  1.1667 -0.6109
   76SLPC  H13C 6803   6.107   1.011   7.002 -0.6885  4.3107 -2.3190
   76SLPC   C14 6804   5.849   0.919   7.060  0.2845  0.2512 -0.3734
   76SLPC  H14A 6805   5.890   0.857   6.981 -2.3597 -0.3887 -1.3690
   76SLPC  H14B 6806   5.773   0.848   7.091  0.6199  0.7535  1.7103
   76SLPC  H14C 6807   5.808   1.009   7.017  0.9905 -0.5483 -2.9169
   76SLPC   C15 6808   5.898   1.021   7.274 -0.0877  0.1043  0.0198
   76SLPC  H15A 6809   5.856   0.942   7.334 -0.1763  0.8363  0.9549
   76SLPC  H15B 6810   5.983   1.065   7.323  1.0323  0.0645 -1.7799
   76SLPC  H15C 6811   5.825   1.097   7.248 -2.0956 -2.1355 -1.3531
   76SLPC   C12 6812   6.029   0.819   7.199 -0.0796 -0.2242  0.4545
   76SLPC  H12A 6813   5.959   0.747   7.239  0.1869 -0.8078 -0.1066
   76SLPC  H12B 6814   6.100   0.834   7.279 -1.0776 -0.7082  1.4751
   76SLPC   C11 6815   6.116   0.747   7.097 -0.0679  0.1494 -0.3826
   76SLPC  H11A 6816   6.050   0.734   7.008 -1.1763  1.3476  0.2181
   76SLPC  H11B 6817   6.148   0.651   7.143 -2.1947 -0.0823  0.7507
   76SLPC     P 6818   6.362   0.822   7.131 -0.0766 -0.1895  0.2096
   76SLPC   O13 6819   6.447   0.939   7.096  0.3029 -0.5632 -0.0528
   76SLPC   O14 6820   6.337   0.798   7.275  0.1302 -0.2765  0.7045
   76SLPC   O12 6821   6.227   0.825   7.049  0.1859  0.2205 -0.5330
   76SLPC   O11 6822   6.437   0.691   7.070 -0.5662 -0.4436  0.2298
   76SLPC    C1 6823   6.508   0.694   6.943 -0.0012  0.1133 -0.6742
   76SLPC    HA 6824   6.571   0.786   6.938  1.3592 -0.8500 -2.0016
   76SLPC    HB 6825   6.574   0.605   6.944 -0.9861 -0.6316  0.7219
   76SLPC    C2 6826   6.414   0.687   6.814  0.4639 -0.0481  1.1040
   76SLPC    HS 6827   6.345   0.771   6.836 -1.9851 -1.8159  0.7277
   76SLPC   O21 6828   6.345   0.555   6.810 -0.5844  0.6891  0.2723
   76SLPC   C21 6829   6.213   0.562   6.776 -0.1101  0.1009 -0.5328
   76SLPC   O22 6830   6.156   0.666   6.743 -0.2828  0.7156  0.2672
   76SLPC   C22 6831   6.153   0.422   6.807 -0.7499  0.3318  0.1305
   76SLPC   H2R 6832   6.214   0.342   6.759 -1.3777  0.0518 -0.2046
   76SLPC   H2S 6833   6.159   0.398   6.915  2.9970  0.0357  0.0061
   76SLPC    C3 6834   6.497   0.713   6.685 -0.1026  0.2019 -0.3737
   76SLPC    HX 6835   6.573   0.632   6.678 -3.0538 -2.7513 -1.1654
   76SLPC    HY 6836   6.534   0.816   6.699 -2.2083  1.0250 -0.4294
   76SLPC   O31 6837   6.410   0.694   6.568 -0.0833 -0.1940 -0.3686
   76SLPC   C31 6838   6.340   0.796   6.523 -0.5897  0.0872  0.5671
   76SLPC   O32 6839   6.329   0.900   6.584 -0.3204  0.0255  0.1195
   76SLPC   C32 6840   6.264   0.745   6.401  0.3343 -0.4200  0.3791
   76SLPC   H2X 6841   6.172   0.694   6.437  1.7177 -2.4799  1.2239
   76SLPC   H2Y 6842   6.337   0.676   6.352 -0.5068  0.5142 -2.3861
   76SLPC   C23 6843   6.012   0.431   6.750 -0.6082  0.4132 -0.1858
   76SLPC   H3R 6844   5.963   0.525   6.783  1.1275  0.7507  1.6344
   76SLPC   H3S 6845   5.957   0.342   6.788  1.1317 -0.9636 -0.7357
   76SLPC   C24 6846   6.011   0.417   6.600  0.0409 -0.3100 -0.5658
   76SLPC   H4R 6847   6.069   0.501   6.556  1.4933 -1.2132 -0.4203
   76SLPC   H4S 6848   5.904   0.439   6.577 -0.2232  0.2218  1.0407
   76SLPC   C25 6849   6.050   0.278   6.541 -0.0444  0.3312 -0.0327
   76SLPC   H5R 6850   5.990   0.200   6.592 -0.2407  0.3907 -0.1713
   76SLPC   H5S 6851   6.158   0.258   6.553  0.3752  1.2011 -1.9376
   76SLPC   C26 6852   6.029   0.281   6.390  1.0477 -0.2644  0.4252
   76SLPC   H6R 6853   6.113   0.222   6.348  1.1433  1.0080 -1.3233
   76SLPC   H6S 6854   6.046   0.383   6.348  0.4849 -1.1274 -2.0612
   76SLPC   C27 6855   5.890   0.223   6.351 -0.8208  0.8472  0.1248
   76SLPC   H7R 6856   5.823   0.287   6.412 -0.5084  1.1499  0.1532
   76SLPC   H7S 6857   5.874   0.120   6.391 -1.4972  0.3511 -1.3196
   76SLPC   C28 6858   5.862   0.224   6.200  0.5510  0.3129 -0.0548
   76SLPC   H8R 6859   5.865   0.330   6.171 -0.3877  0.2589 -0.3658
   76SLPC   H8S 6860   5.757   0.189   6.195  0.3980  0.5777  1.0703
   76SLPC   C29 6861   5.951   0.129   6.115 -0.3292  0.4138 -0.2440
   76SLPC   H9R 6862   6.046   0.098   6.161 -0.7274 -0.8759 -0.2505
   76SLPC  C210 6863   5.949   0.132   5.985  0.6817 -0.1996  0.1237
   76SLPC  H10R 6864   6.030   0.085   5.928  2.0240 -0.2232  1.9374
   76SLPC  C211 6865   5.843   0.206   5.907 -0.7386  0.6355  0.0862
   76SLPC  H11R 6866   5.880   0.307   5.879 -0.8813  0.6330 -0.1205
   76SLPC  H11S 6867   5.759   0.224   5.977 -2.6517  1.6947 -2.3072
   76SLPC  C212 6868   5.785   0.136   5.785  0.8326  0.2660  0.3486
   76SLPC  H12R 6869   5.761   0.029   5.795  0.1933  0.4556  0.8862
   76SLPC  C213 6870   5.767   0.181   5.658  0.1095 -0.3196 -0.3783
   76SLPC  H13R 6871   5.705   0.121   5.590  0.3137  0.3128 -1.1368
   76SLPC  C214 6872   5.790   0.317   5.612  0.3135 -0.5999 -0.6570
   76SLPC  H14R 6873   5.836   0.377   5.693 -1.4750 -0.0578 -0.0073
   76SLPC  H14S 6874   5.693   0.359   5.579  0.2524  0.2229  0.5040
   76SLPC  C215 6875   5.891   0.300   5.491  1.3972 -0.4751 -0.1545
   76SLPC  H15R 6876   5.895   0.200   5.445  0.4851  1.0906 -4.0437
   76SLPC  H15S 6877   5.993   0.318   5.532  1.3465  2.2468 -0.9920
   76SLPC  C216 6878   5.859   0.405   5.383 -0.3056  0.1888  0.3568
   76SLPC  H16R 6879   5.866   0.506   5.428 -1.8572  1.1146 -1.3527
   76SLPC  H16S 6880   5.757   0.395   5.340 -0.9045  0.0516  1.7551
   76SLPC  C217 6881   5.968   0.394   5.269 -0.5354 -0.1874 -0.4080
   76SLPC  H17R 6882   5.962   0.294   5.221  0.1447 -2.1218  3.1732
   76SLPC  H17S 6883   6.070   0.407   5.312 -0.7307  0.5952 -0.1641
   76SLPC  C218 6884   5.954   0.502   5.160  0.1632  0.3402  0.3062
   76SLPC  H18R 6885   5.875   0.472   5.089  2.1382 -2.1612 -1.0105
   76SLPC  H18S 6886   6.040   0.513   5.091 -2.5390  0.5824 -3.2926
   76SLPC  H18T 6887   5.930   0.596   5.213  1.9137 -0.6619  3.1631
   76SLPC   C33 6888   6.235   0.837   6.279  0.2441  0.2706  0.0852
   76SLPC   H3X 6889   6.317   0.913   6.278  0.5729 -0.0681  0.5131
   76SLPC   H3Y 6890   6.136   0.885   6.292  0.3814  0.5659  0.0603
   76SLPC   C34 6891   6.244   0.769   6.137  0.4919 -0.4127  0.8348
   76SLPC   H4X 6892   6.162   0.697   6.119 -0.0075  0.6823 -1.7269
   76SLPC   H4Y 6893   6.344   0.722   6.129  0.0537 -1.1515 -0.4559
   76SLPC   C35 6894   6.239   0.871   6.021  0.2600  0.4102  0.0680
   76SLPC   H5X 6895   6.292   0.960   6.061  0.6109 -0.9199  2.7732
   76SLPC   H5Y 6896   6.136   0.912   6.008  0.2412  0.2503 -0.3131
   76SLPC   C36 6897   6.308   0.818   5.891  0.1224  0.1069 -0.4007
   76SLPC   H6X 6898   6.256   0.725   5.859  1.0172 -0.1661 -1.1150
   76SLPC   H6Y 6899   6.418   0.800   5.902 -0.0208  0.0500  1.0947
   76SLPC   C37 6900   6.296   0.904   5.769  0.4257 -0.2864 -0.1313
   76SLPC   H7X 6901   6.328   1.002   5.811  0.6351 -1.0968  1.6727
   76SLPC   H7Y 6902   6.196   0.911   5.720  1.2075  1.8660 -1.6197
   76SLPC   C38 6903   6.383   0.864   5.652 -0.2746 -0.2381  0.0604
   76SLPC   H8X 6904   6.383   0.757   5.624  2.1772  0.0734 -1.4226
   76SLPC   H8Y 6905   6.493   0.872   5.665 -0.0333 -1.8845 -0.6986
   76SLPC   C39 6906   6.365   0.962   5.535 -0.0262  0.2748 -0.2893
   76SLPC   H9X 6907   6.440   0.960   5.453 -0.7494  1.2735 -0.9963
   76SLPC   H9Y 6908   6.362   1.062   5.583  0.2822  0.4458 -0.6213
   76SLPC  C310 6909   6.230   0.944   5.458 -0.7884 -0.5950  0.1198
   76SLPC  H10X 6910   6.149   0.956   5.532 -1.7376 -1.2549 -0.7993
   76SLPC  H10Y 6911   6.237   0.837   5.429  1.6925 -0.1552 -1.2328
   76SLPC  C311 6912   6.222   1.021   5.327 -0.0426 -0.4551  0.4232
   76SLPC  H11X 6913   6.279   0.960   5.253  1.3139 -0.2859  1.2880
   76SLPC  H11Y 6914   6.267   1.123   5.327  1.4927 -1.0942 -0.2826
   76SLPC  C312 6915   6.080   1.024   5.284  0.5055  0.3471 -0.7233
   76SLPC  H12X 6916   6.031   1.118   5.316  0.8658  0.2736  0.0736
   76SLPC  H12Y 6917   6.028   0.941   5.337 -1.5265  0.2829 -2.6733
   76SLPC  C313 6918   6.053   0.996   5.144 -0.3703 -0.4930  0.1458
   76SLPC  H13X 6919   6.120   0.924   5.092 -1.8091 -0.5341 -1.7566
   76SLPC  H13Y 6920   6.084   1.095   5.103  1.1675 -0.0659  2.2033
   76SLPC  C314 6921   5.912   0.945   5.114 -0.0652  0.4411 -0.0323
   76SLPC  H14X 6922   5.841   1.025   5.145 -0.7234  0.5496 -1.6997
   76SLPC  H14Y 6923   5.892   0.852   5.170  0.9760  0.5336  0.5168
   76SLPC  C315 6924   5.881   0.923   4.964  0.4134 -0.1123 -0.6608
   76SLPC  H15X 6925   5.776   0.889   4.952  0.3514  0.0789 -0.6699
   76SLPC  H15Y 6926   5.948   0.847   4.918  1.8259  1.1242 -0.7267
   76SLPC  C316 6927   5.892   1.051   4.885 -0.5381 -0.0147 -0.5996
   76SLPC  H16X 6928   6.001   1.062   4.867 -0.2716 -1.0676  0.3036
   76SLPC  H16Y 6929   5.853   1.134   4.948 -0.2335  0.3669 -0.9105
   76SLPC  C317 6930   5.813   1.033   4.760 -0.0782  0.2509 -0.2754
   76SLPC  H17X 6931   5.713   0.987   4.775 -0.0094  0.3140  0.4210
   76SLPC  H17Y 6932   5.874   0.965   4.697 -0.2829  0.2256 -0.4463
   76SLPC  C318 6933   5.799   1.161   4.683 -0.7173 -0.0431 -0.3840
   76SLPC  H18X 6934   5.895   1.218   4.685 -0.9874  0.4116  0.8853
   76SLPC  H18Y 6935   5.728   1.231   4.732  1.1676  0.3817  1.9605
   76SLPC  H18Z 6936   5.778   1.131   4.579 -0.2787 -0.2260 -0.4192
   77SLPC     N 6937   6.795   5.982   7.781 -0.0003  0.6440  0.0015
   77SLPC   C13 6938   6.834   5.940   7.920 -0.0128  0.4526 -0.1656
   77SLPC  H13A 6939   6.883   5.843   7.916  2.0948  1.5070 -2.0574
   77SLPC  H13B 6940   6.904   6.011   7.960  0.2482  0.8938 -1.3649
   77SLPC  H13C 6941   6.750   5.920   7.984  0.0822  1.8063  0.4065
   77SLPC   C14 6942   6.713   6.110   7.795 -0.0959  0.1156 -0.3003
   77SLPC  H14A 6943   6.772   6.182   7.850  0.9595 -1.9831  1.4396
   77SLPC  H14B 6944   6.703   6.150   7.694  0.0797 -2.0661 -1.2296
   77SLPC  H14C 6945   6.616   6.101   7.840 -0.6122  0.5187 -1.2869
   77SLPC   C15 6946   6.714   5.876   7.722  0.3531  0.1215  0.0692
   77SLPC  H15A 6947   6.662   5.908   7.633  0.9171 -2.1196 -1.1511
   77SLPC  H15B 6948   6.769   5.787   7.697 -2.1009 -1.5701  0.3238
   77SLPC  H15C 6949   6.640   5.850   7.796 -0.4833  0.7373 -0.5242
   77SLPC   C12 6950   6.913   6.002   7.687  0.1400  0.7353 -0.1386
   77SLPC  H12A 6951   6.964   5.908   7.677 -1.0925 -0.5903  4.1262
   77SLPC  H12B 6952   6.980   6.072   7.735 -0.1409 -0.5107  2.1592
   77SLPC   C11 6953   6.887   6.046   7.544 -0.1452 -0.1393 -0.0631
   77SLPC  H11A 6954   6.795   5.993   7.513 -0.8004  0.7913  0.2449
   77SLPC  H11B 6955   6.970   6.013   7.479 -0.2764 -0.4403 -0.0759
   77SLPC     P 6956   6.938   6.316   7.519 -0.1196  0.4610  0.0324
   77SLPC   O13 6957   6.847   6.422   7.560  0.1358  0.1381  0.5856
   77SLPC   O14 6958   7.058   6.297   7.600 -0.4909 -0.3401 -0.5438
   77SLPC   O12 6959   6.850   6.186   7.513 -0.3571  0.0341 -0.4610
   77SLPC   O11 6960   6.975   6.358   7.372 -0.1461 -0.5227  0.2322
   77SLPC    C1 6961   7.009   6.245   7.284  0.4682 -0.1717 -0.4929
   77SLPC    HA 6962   7.092   6.187   7.330 -2.2337 -1.1818  3.6679
   77SLPC    HB 6963   6.922   6.176   7.279 -0.1675  0.4662  1.0277
   77SLPC    C2 6964   7.043   6.294   7.137  0.2804 -0.0161  0.3497
   77SLPC    HS 6965   7.064   6.203   7.077  1.1230  0.8348 -0.6595
   77SLPC   O21 6966   7.148   6.387   7.137 -0.2240  0.2415 -0.0076
   77SLPC   C21 6967   7.234   6.368   7.031 -0.6999 -0.5852  0.0162
   77SLPC   O22 6968   7.228   6.276   6.948  0.1038  0.6214 -0.0163
   77SLPC   C22 6969   7.341   6.478   7.032  0.0051 -0.0779 -0.0133
   77SLPC   H2R 6970   7.314   6.560   7.102  0.0005  0.4335 -0.6152
   77SLPC   H2S 6971   7.443   6.445   7.062 -0.3990  1.2956  3.3450
   77SLPC    C3 6972   6.917   6.361   7.082  0.2060 -0.5140 -0.0987
   77SLPC    HX 6973   6.888   6.440   7.155  1.1715  0.9132 -1.2075
   77SLPC    HY 6974   6.826   6.297   7.084 -0.7607  0.7731  1.9991
   77SLPC   O31 6975   6.947   6.426   6.958 -0.1711  0.1959 -0.0090
   77SLPC   C31 6976   6.945   6.346   6.843 -0.0200  0.7804  0.1930
   77SLPC   O32 6977   6.893   6.234   6.835 -0.4445 -0.0092 -0.4637
   77SLPC   C32 6978   7.016   6.428   6.733 -0.1654  0.2074 -0.4012
   77SLPC   H2X 6979   7.110   6.468   6.778 -0.3204  1.4788 -1.1481
   77SLPC   H2Y 6980   6.948   6.515   6.716 -1.0574 -0.2113  0.8499
   77SLPC   C23 6981   7.343   6.543   6.894 -0.2697 -0.0302 -0.4460
   77SLPC   H3R 6982   7.242   6.587   6.880 -0.1610  0.3482 -0.0778
   77SLPC   H3S 6983   7.346   6.466   6.813 -0.9544 -0.2363 -0.2824
   77SLPC   C24 6984   7.455   6.645   6.866 -0.1832  0.3656 -0.0274
   77SLPC   H4R 6985   7.554   6.595   6.876 -0.9978 -0.8848  3.3425
   77SLPC   H4S 6986   7.446   6.716   6.950 -0.8127 -1.0438  1.1427
   77SLPC   C25 6987   7.437   6.712   6.726 -0.1951  0.0694  0.6263
   77SLPC   H5R 6988   7.489   6.810   6.717 -0.6665  0.2214 -0.6367
   77SLPC   H5S 6989   7.328   6.731   6.712 -0.4925 -1.2181  1.0343
   77SLPC   C26 6990   7.493   6.621   6.612 -0.4290 -0.0490 -0.5792
   77SLPC   H6R 6991   7.425   6.534   6.622 -1.4075  0.7773  0.2115
   77SLPC   H6S 6992   7.593   6.586   6.646 -1.6314 -2.5707  0.6357
   77SLPC   C27 6993   7.495   6.670   6.470 -0.3793  0.8957 -0.0667
   77SLPC   H7R 6994   7.575   6.747   6.466  1.0875 -0.5999 -0.7188
   77SLPC   H7S 6995   7.396   6.717   6.451  0.0635  1.5875 -0.7009
   77SLPC   C28 6996   7.537   6.556   6.373  0.9886 -0.2773  0.0764
   77SLPC   H8R 6997   7.612   6.491   6.421  0.4039 -0.8281  0.2550
   77SLPC   H8S 6998   7.567   6.610   6.281 -0.3971 -2.3326 -1.6777
   77SLPC   C29 6999   7.410   6.480   6.344 -0.7950  0.2797 -0.1881
   77SLPC   H9R 7000   7.344   6.471   6.432  1.2682  0.1989  1.4193
   77SLPC  C210 7001   7.359   6.432   6.234  0.1735 -0.4259 -0.3862
   77SLPC  H10R 7002   7.265   6.374   6.232 -0.9767  1.0893  2.9920
   77SLPC  C211 7003   7.433   6.449   6.101 -0.2686 -0.2610  0.2600
   77SLPC  H11R 7004   7.418   6.554   6.068  1.9190  0.6159  1.8137
   77SLPC  H11S 7005   7.379   6.387   6.026  0.2695  0.2100 -0.5311
   77SLPC  C212 7006   7.581   6.416   6.081  0.1566 -0.5063 -0.8555
   77SLPC  H12R 7007   7.627   6.361   6.165 -1.5294  1.8877  1.8523
   77SLPC  C213 7008   7.644   6.446   5.969  0.3738  0.5000  0.6899
   77SLPC  H13R 7009   7.752   6.424   5.965  0.4732  0.6465  2.0290
   77SLPC  C214 7010   7.591   6.517   5.849  0.0111 -0.1109 -0.3894
   77SLPC  H14R 7011   7.613   6.626   5.860 -1.6843  0.3316 -1.0678
   77SLPC  H14S 7012   7.481   6.517   5.832  0.0863  3.9495 -2.0951
   77SLPC  C215 7013   7.664   6.468   5.718 -0.0142 -0.1977 -0.0310
   77SLPC  H15R 7014   7.697   6.362   5.726 -0.7314 -0.3294  1.7754
   77SLPC  H15S 7015   7.759   6.524   5.716  0.2072 -0.5621  0.1214
   77SLPC  C216 7016   7.574   6.477   5.592 -0.7613  0.5474  0.7595
   77SLPC  H16R 7017   7.544   6.580   5.565 -0.5218  0.3236 -0.4183
   77SLPC  H16S 7018   7.487   6.411   5.616 -1.0390  1.7091  3.2372
   77SLPC  C217 7019   7.655   6.436   5.464  0.2511  0.3973 -0.2506
   77SLPC  H17R 7020   7.717   6.350   5.500  1.1024  1.1356  0.0869
   77SLPC  H17S 7021   7.721   6.521   5.437 -0.9281  1.9097  1.4267
   77SLPC  C218 7022   7.567   6.407   5.348 -0.2097  0.7235  0.3095
   77SLPC  H18R 7023   7.636   6.381   5.265  1.7611  2.7666  1.1823
   77SLPC  H18S 7024   7.515   6.502   5.323  0.5055  1.7494  2.4614
   77SLPC  H18T 7025   7.488   6.336   5.381 -0.9643  1.3659 -0.0633
   77SLPC   C33 7026   7.044   6.351   6.604  0.1838  0.1844  0.3132
   77SLPC   H3X 7027   7.047   6.423   6.519 -0.1194 -2.4483 -2.1129
   77SLPC   H3Y 7028   6.953   6.289   6.589  1.4893 -1.8110  0.1890
   77SLPC   C34 7029   7.169   6.260   6.611  0.0496  0.7547  0.4700
   77SLPC   H4X 7030   7.168   6.206   6.708  0.2264 -1.6600 -0.7905
   77SLPC   H4Y 7031   7.257   6.328   6.612  1.5129 -1.0351 -0.2069
   77SLPC   C35 7032   7.178   6.171   6.483  0.3450  0.1966  0.3085
   77SLPC   H5X 7033   7.153   6.235   6.395 -0.4814 -0.3823  0.1039
   77SLPC   H5Y 7034   7.101   6.090   6.491  2.0439 -1.5225  0.0781
   77SLPC   C36 7035   7.319   6.109   6.468 -0.4912 -0.0994  0.5917
   77SLPC   H6X 7036   7.338   6.041   6.554  0.7832  0.2021  0.5830
   77SLPC   H6Y 7037   7.387   6.197   6.474 -1.1777  0.4598  0.3376
   77SLPC   C37 7038   7.342   6.049   6.327  0.8368 -0.2217 -0.2924
   77SLPC   H7X 7039   7.296   6.114   6.250  0.4107  1.1471  1.0649
   77SLPC   H7Y 7040   7.280   5.957   6.322 -0.6875  0.6902  0.6966
   77SLPC   C38 7041   7.486   6.022   6.285  0.1828 -0.0135  0.4094
   77SLPC   H8X 7042   7.520   5.956   6.367 -0.5422  3.3113  3.6912
   77SLPC   H8Y 7043   7.541   6.118   6.298  1.4818 -0.7119  0.2174
   77SLPC   C39 7044   7.504   5.964   6.144 -0.2753 -0.2468 -0.1818
   77SLPC   H9X 7045   7.443   5.873   6.125 -1.2803  0.4897 -0.5486
   77SLPC   H9Y 7046   7.612   5.936   6.146 -0.8274 -2.5610  0.2357
   77SLPC  C310 7047   7.470   6.063   6.030  0.4876 -0.2669  0.1533
   77SLPC  H10X 7048   7.530   6.155   6.049 -3.4439  2.0751  3.0145
   77SLPC  H10Y 7049   7.362   6.089   6.021  0.4055 -1.3282 -2.9298
   77SLPC  C311 7050   7.498   5.999   5.899 -0.1796  0.0004  0.5956
   77SLPC  H11X 7051   7.432   5.911   5.886  0.5236 -0.7360  1.8785
   77SLPC  H11Y 7052   7.601   5.961   5.883 -0.7481 -1.1048 -0.6168
   77SLPC  C312 7053   7.465   6.097   5.783 -0.3802  0.2832  0.0367
   77SLPC  H12X 7054   7.540   6.178   5.770  1.2725 -1.0024  1.2848
   77SLPC  H12Y 7055   7.366   6.142   5.807 -1.1781  0.1126 -2.5841
   77SLPC  C313 7056   7.470   6.019   5.653  0.1533 -1.0583  0.3690
   77SLPC  H13X 7057   7.428   5.916   5.644  2.7634 -2.0510 -2.2056
   77SLPC  H13Y 7058   7.579   6.003   5.635  0.6129 -0.1266  2.0438
   77SLPC  C314 7059   7.400   6.092   5.537  0.3215  0.1773 -0.3978
   77SLPC  H14X 7060   7.469   6.109   5.451  0.5313  0.6650 -0.1387
   77SLPC  H14Y 7061   7.353   6.184   5.578  0.2183  0.0187 -0.1600
   77SLPC  C315 7062   7.283   6.022   5.461  0.3375 -0.6787  0.2260
   77SLPC  H15X 7063   7.204   6.005   5.537  1.0967 -1.6025  0.8258
   77SLPC  H15Y 7064   7.317   5.923   5.425 -0.4714 -0.7604 -0.3468
   77SLPC  C316 7065   7.234   6.098   5.333  0.4166 -1.1525 -0.0773
   77SLPC  H16X 7066   7.139   6.055   5.293 -0.6306  2.7087 -2.3077
   77SLPC  H16Y 7067   7.303   6.096   5.246 -0.0515  1.4301 -0.6042
   77SLPC  C317 7068   7.204   6.254   5.353  0.3663 -0.1819 -0.4588
   77SLPC  H17X 7069   7.301   6.306   5.369  0.2061 -0.6393  2.7474
   77SLPC  H17Y 7070   7.139   6.270   5.442  0.6627 -1.5734  0.0428
   77SLPC  C318 7071   7.128   6.316   5.232  0.7147  0.3654 -0.0319
   77SLPC  H18X 7072   7.033   6.259   5.231  0.9516 -0.0233 -0.4789
   77SLPC  H18Y 7073   7.188   6.291   5.142  0.7569  1.3508 -0.2894
   77SLPC  H18Z 7074   7.120   6.427   5.233  0.0989  0.3341 -0.9547
   78SLPC     N 7075   5.873   4.735   7.238 -1.2254  0.4392 -0.1904
   78SLPC   C13 7076   5.991   4.644   7.212  0.2005 -0.0071 -0.0055
   78SLPC  H13A 7077   5.960   4.580   7.131  0.0107 -0.7784  0.6663
   78SLPC  H13B 7078   6.081   4.697   7.185 -0.3666  1.5894  1.0972
   78SLPC  H13C 7079   6.011   4.578   7.295  1.6392 -1.7473 -1.6565
   78SLPC   C14 7080   5.907   4.821   7.349 -0.0594 -0.0121  0.2959
   78SLPC  H14A 7081   5.916   4.769   7.443 -0.4769  0.5342  0.6509
   78SLPC  H14B 7082   6.005   4.865   7.342 -0.5498  1.2555  0.9202
   78SLPC  H14C 7083   5.840   4.906   7.350  0.7697  1.1769 -5.5862
   78SLPC   C15 7084   5.746   4.651   7.270 -0.5530  0.3126  1.0374
   78SLPC  H15A 7085   5.657   4.709   7.289 -1.1296 -0.0083 -0.5652
   78SLPC  H15B 7086   5.735   4.585   7.185  1.1606  2.0540 -0.6474
   78SLPC  H15C 7087   5.762   4.580   7.350 -1.4361  0.1032  1.0376
   78SLPC   C12 7088   5.856   4.822   7.117  0.3657 -0.3749  0.4488
   78SLPC  H12A 7089   5.937   4.891   7.099 -0.4681  0.3229 -0.8100
   78SLPC  H12B 7090   5.775   4.891   7.134  0.5190 -0.3614  1.1474
   78SLPC   C11 7091   5.821   4.764   6.977 -0.4725  0.6105 -0.3361
   78SLPC  H11A 7092   5.898   4.693   6.941 -1.6555 -0.2563 -1.2721
   78SLPC  H11B 7093   5.829   4.839   6.895  0.9580  0.0433 -0.7408
   78SLPC     P 7094   5.563   4.778   6.969 -0.3687  0.5374  0.4899
   78SLPC   O13 7095   5.448   4.694   6.980  0.1140 -0.4121 -0.1834
   78SLPC   O14 7096   5.577   4.890   7.065 -0.5724 -0.1381  0.4625
   78SLPC   O12 7097   5.691   4.697   6.976 -0.8572  0.2466 -0.6684
   78SLPC   O11 7098   5.553   4.848   6.824 -0.6027 -0.1924  0.4498
   78SLPC    C1 7099   5.606   4.769   6.711  0.0307 -0.2341  0.7898
   78SLPC    HA 7100   5.709   4.802   6.686  0.1412  0.1530  1.7027
   78SLPC    HB 7101   5.611   4.661   6.736 -0.8344 -0.5106 -0.1695
   78SLPC    C2 7102   5.501   4.788   6.593 -0.3664  0.8306 -0.0744
   78SLPC    HS 7103   5.545   4.747   6.500  0.8370  1.4711  0.1836
   78SLPC   O21 7104   5.473   4.929   6.564 -0.4880  0.4625 -0.1680
   78SLPC   C21 7105   5.569   5.007   6.519 -1.1219  0.1254 -0.5736
   78SLPC   O22 7106   5.683   4.973   6.504  0.0184  0.0058 -0.1987
   78SLPC   C22 7107   5.511   5.141   6.482  0.5173  0.1484 -0.1458
   78SLPC   H2R 7108   5.412   5.125   6.434  0.7025 -0.8206 -0.2382
   78SLPC   H2S 7109   5.502   5.198   6.576  1.3735 -2.2912  1.5267
   78SLPC    C3 7110   5.371   4.717   6.626  0.4195 -0.9430  0.1299
   78SLPC    HX 7111   5.327   4.757   6.719 -1.4073 -0.4399 -0.8986
   78SLPC    HY 7112   5.407   4.618   6.659  0.6664 -0.7181  0.5419
   78SLPC   O31 7113   5.282   4.703   6.514 -0.2964 -0.5743 -0.0401
   78SLPC   C31 7114   5.194   4.803   6.501 -0.1789  0.3750  0.3857
   78SLPC   O32 7115   5.169   4.881   6.591  0.8203  0.0908 -0.3089
   78SLPC   C32 7116   5.140   4.798   6.354 -0.1557  0.7918  0.1179
   78SLPC   H2X 7117   5.172   4.703   6.307 -2.2228  0.2266 -0.2020
   78SLPC   H2Y 7118   5.192   4.883   6.304 -0.5165  1.2282  0.4717
   78SLPC   C23 7119   5.603   5.214   6.380  0.2400  0.0987  0.2894
   78SLPC   H3R 7120   5.709   5.226   6.412  0.1090 -0.7805  1.0793
   78SLPC   H3S 7121   5.568   5.319   6.366 -0.0262 -0.0984 -0.6096
   78SLPC   C24 7122   5.605   5.154   6.239 -0.4469  0.5894  0.2591
   78SLPC   H4R 7123   5.507   5.114   6.205  0.3315 -2.0813  0.8992
   78SLPC   H4S 7124   5.668   5.063   6.254  0.7219  1.2988 -0.2014
   78SLPC   C25 7125   5.678   5.243   6.141  0.0173 -0.4358 -0.1983
   78SLPC   H5R 7126   5.781   5.264   6.176 -0.1173  0.6446 -0.4124
   78SLPC   H5S 7127   5.631   5.343   6.141  1.6250  0.4430  2.5206
   78SLPC   C26 7128   5.693   5.179   6.004  0.5194  1.0306 -0.0633
   78SLPC   H6R 7129   5.592   5.152   5.966  1.2099 -2.7023  0.4366
   78SLPC   H6S 7130   5.753   5.091   6.033 -0.2023  0.6813  0.4046
   78SLPC   C27 7131   5.767   5.267   5.898 -0.2489  0.2012 -0.4982
   78SLPC   H7R 7132   5.863   5.305   5.939  0.0838 -2.0344  0.9851
   78SLPC   H7S 7133   5.698   5.353   5.884 -0.8061 -0.0417  0.6088
   78SLPC   C28 7134   5.780   5.188   5.769 -0.6063 -0.5133 -0.2713
   78SLPC   H8R 7135   5.682   5.137   5.755 -0.1870 -0.9205 -1.9243
   78SLPC   H8S 7136   5.868   5.120   5.778 -0.3302 -0.1060  0.1258
   78SLPC   C29 7137   5.799   5.284   5.655  0.5164 -0.8204  0.7032
   78SLPC   H9R 7138   5.887   5.350   5.664 -1.3442  1.9005  0.1904
   78SLPC  C210 7139   5.719   5.288   5.545 -0.2642 -0.2098 -0.1112
   78SLPC  H10R 7140   5.740   5.355   5.460 -2.7179  0.2027 -0.4550
   78SLPC  C211 7141   5.610   5.195   5.515 -0.3454 -0.2083  0.0259
   78SLPC  H11R 7142   5.538   5.245   5.446  1.3698  0.4141 -1.4004
   78SLPC  H11S 7143   5.549   5.183   5.607  1.2266 -1.5247  0.9361
   78SLPC  C212 7144   5.650   5.058   5.473  0.0971  0.5825 -0.2876
   78SLPC  H12R 7145   5.739   5.014   5.522 -0.1970 -1.0655 -1.1493
   78SLPC  C213 7146   5.595   4.986   5.374 -0.8967 -0.1866  0.4521
   78SLPC  H13R 7147   5.632   4.887   5.344 -2.9080 -0.8629  0.0646
   78SLPC  C214 7148   5.487   5.025   5.276  0.0432 -0.4933 -0.5799
   78SLPC  H14R 7149   5.434   5.110   5.324  0.4683 -0.3394 -0.3733
   78SLPC  H14S 7150   5.413   4.943   5.259  1.2901 -1.3227 -2.3066
   78SLPC  C215 7151   5.540   5.073   5.139  0.0131  0.6924  0.0357
   78SLPC  H15R 7152   5.637   5.126   5.150 -0.2434  1.4067 -1.0780
   78SLPC  H15S 7153   5.465   5.141   5.095  0.6107  1.9817  0.9409
   78SLPC  C216 7154   5.573   4.948   5.052  0.2442 -0.7375 -0.3893
   78SLPC  H16R 7155   5.474   4.919   5.009  0.3959 -0.6470 -0.8062
   78SLPC  H16S 7156   5.608   4.866   5.118  0.7038 -0.7724 -0.6737
   78SLPC  C217 7157   5.679   4.966   4.943  0.2745 -0.3336  0.3100
   78SLPC  H17R 7158   5.691   4.868   4.891  0.0152 -0.8191  1.1482
   78SLPC  H17S 7159   5.776   5.000   4.985  0.6231 -0.5106 -0.3277
   78SLPC  C218 7160   5.640   5.079   4.841  0.2367 -0.7035  0.0276
   78SLPC  H18R 7161   5.533   5.077   4.809  0.1122  1.1173  0.2434
   78SLPC  H18S 7162   5.695   5.060   4.746 -0.0835 -2.3297  0.1294
   78SLPC  H18T 7163   5.653   5.178   4.889 -2.4764  0.0906 -0.6970
   78SLPC   C33 7164   4.991   4.819   6.343 -1.2581 -0.3820  0.3735
   78SLPC   H3X 7165   4.961   4.913   6.394  0.2287 -0.3318  1.2095
   78SLPC   H3Y 7166   4.931   4.734   6.381 -1.7027  0.5069  1.7602
   78SLPC   C34 7167   4.935   4.828   6.201 -0.0591 -0.3808  0.0957
   78SLPC   H4X 7168   4.938   4.930   6.156  2.5612 -0.2344  0.4240
   78SLPC   H4Y 7169   4.836   4.780   6.189  0.0631 -0.0630 -2.7381
   78SLPC   C35 7170   5.000   4.736   6.093 -0.9910  0.3854 -0.0174
   78SLPC   H5X 7171   4.996   4.631   6.129  0.8497  1.0189  2.2563
   78SLPC   H5Y 7172   5.107   4.764   6.083 -0.4907 -1.6544 -0.7601
   78SLPC   C36 7173   4.938   4.757   5.957 -0.3828 -0.4525  0.4378
   78SLPC   H6X 7174   4.895   4.858   5.939 -0.7107 -0.7195 -0.3498
   78SLPC   H6Y 7175   4.845   4.697   5.957 -1.4769  1.1748  0.4117
   78SLPC   C37 7176   5.022   4.725   5.835 -1.3152  0.6180  0.1259
   78SLPC   H7X 7177   5.050   4.618   5.828  0.7438  0.8769  2.5753
   78SLPC   H7Y 7178   5.116   4.781   5.856 -2.2070  1.6870  1.5005
   78SLPC   C38 7179   4.961   4.767   5.703 -0.1905  0.0159 -0.2880
   78SLPC   H8X 7180   4.916   4.868   5.705 -0.0633  0.0794 -0.5886
   78SLPC   H8Y 7181   4.875   4.703   5.672  1.4288 -1.5258 -1.8305
   78SLPC   C39 7182   5.064   4.769   5.591  0.3871  1.0330  0.2489
   78SLPC   H9X 7183   5.128   4.678   5.586 -0.8452  0.1964 -1.0398
   78SLPC   H9Y 7184   5.139   4.849   5.610  1.6756  0.0026 -0.2824
   78SLPC  C310 7185   5.006   4.798   5.444 -0.4731  0.2793 -1.3856
   78SLPC  H10X 7186   4.948   4.893   5.440  0.9732  1.3312  0.7482
   78SLPC  H10Y 7187   4.941   4.711   5.419 -1.9446  0.8543  0.1973
   78SLPC  C311 7188   5.118   4.788   5.348  0.6432 -0.9022  0.5526
   78SLPC  H11X 7189   5.173   4.692   5.361  1.0478 -0.9027 -0.9158
   78SLPC  H11Y 7190   5.190   4.871   5.365 -0.9509  0.2201  2.1957
   78SLPC  C312 7191   5.072   4.797   5.202 -0.8849 -0.2328  0.4356
   78SLPC  H12X 7192   5.025   4.894   5.176  0.6480  0.2616 -0.6335
   78SLPC  H12Y 7193   5.003   4.710   5.192 -1.4221 -0.0551  2.1713
   78SLPC  C313 7194   5.196   4.781   5.101  0.3528  0.4492 -0.0448
   78SLPC  H13X 7195   5.268   4.713   5.150  0.2007 -0.2682 -0.7980
   78SLPC  H13Y 7196   5.235   4.884   5.087  1.3961 -0.2878 -3.5146
   78SLPC  C314 7197   5.150   4.716   4.970  0.3095  0.5471  1.0441
   78SLPC  H14X 7198   5.076   4.789   4.930  0.0218 -1.5750 -2.7804
   78SLPC  H14Y 7199   5.085   4.626   4.981 -3.0005  2.3194 -1.9899
   78SLPC  C315 7200   5.258   4.683   4.865 -0.1948  0.2615  0.0287
   78SLPC  H15X 7201   5.210   4.619   4.789 -1.1712 -1.3045  1.9113
   78SLPC  H15Y 7202   5.347   4.641   4.915 -0.2334  1.5091  1.2044
   78SLPC  C316 7203   5.304   4.804   4.788 -0.2332 -0.5994 -0.8458
   78SLPC  H16X 7204   5.412   4.803   4.763 -0.5468 -0.8590 -2.2524
   78SLPC  H16Y 7205   5.279   4.892   4.850 -0.5840 -1.4546  0.2703
   78SLPC  C317 7206   5.231   4.840   4.655  0.8641 -0.4364 -0.2267
   78SLPC  H17X 7207   5.133   4.877   4.693  1.7922  0.2402  1.6598
   78SLPC  H17Y 7208   5.214   4.747   4.598  4.5330 -1.0870 -0.4909
   78SLPC  C318 7209   5.306   4.938   4.567  0.5767 -0.0822  0.3780
   78SLPC  H18X 7210   5.399   4.884   4.540  0.0318 -1.3021  0.8561
   78SLPC  H18Y 7211   5.340   5.025   4.626 -2.2101  0.0275  2.0163
   78SLPC  H18Z 7212   5.256   4.974   4.474 -0.0792  1.3814  1.2566
   79SLPC     N 7213   2.594   0.590   7.027  0.0330  0.0523 -0.5096
   79SLPC   C13 7214   2.466   0.589   6.951 -0.5876 -0.3812 -0.3976
   79SLPC  H13A 7215   2.484   0.583   6.844  2.0176  1.8143 -0.1845
   79SLPC  H13B 7216   2.401   0.506   6.974  0.0794 -0.7842  0.0878
   79SLPC  H13C 7217   2.409   0.678   6.972 -1.0188 -0.7297 -0.0822
   79SLPC   C14 7218   2.673   0.472   6.979  0.0581 -0.4343 -0.2037
   79SLPC  H14A 7219   2.627   0.377   6.997 -1.1504  0.1946  0.1542
   79SLPC  H14B 7220   2.684   0.486   6.873 -0.2873 -0.3689 -0.2330
   79SLPC  H14C 7221   2.771   0.478   7.025  1.3400 -1.6254 -2.6107
   79SLPC   C15 7222   2.571   0.581   7.175 -0.1246  0.3487  0.6495
   79SLPC  H15A 7223   2.525   0.674   7.203 -1.3056 -0.3395  1.0820
   79SLPC  H15B 7224   2.495   0.505   7.188 -1.3928  1.2229 -1.3121
   79SLPC  H15C 7225   2.657   0.548   7.232  0.7093  2.1802  0.4936
   79SLPC   C12 7226   2.675   0.723   6.995  0.3950  0.0719  0.0810
   79SLPC  H12A 7227   2.614   0.802   7.035 -3.4812 -1.9222 -1.3177
   79SLPC  H12B 7228   2.689   0.737   6.889 -0.2044  1.4800  0.1583
   79SLPC   C11 7229   2.812   0.727   7.066 -0.2121 -0.2479  0.6043
   79SLPC  H11A 7230   2.793   0.699   7.172  0.6996  1.6814  1.3105
   79SLPC  H11B 7231   2.864   0.824   7.081 -0.3268  0.0174 -0.6029
   79SLPC     P 7232   3.036   0.665   6.929 -0.0131  0.1143  0.3503
   79SLPC   O13 7233   3.127   0.693   7.037  0.2375 -0.4844 -0.3932
   79SLPC   O14 7234   3.064   0.553   6.841 -0.1463  0.1922 -0.1135
   79SLPC   O12 7235   2.904   0.631   7.003 -0.0464 -0.0628 -0.1996
   79SLPC   O11 7236   3.014   0.808   6.857 -0.2724  0.6993 -0.0719
   79SLPC    C1 7237   2.964   0.822   6.725 -0.1908 -0.1666  0.2512
   79SLPC    HA 7238   2.905   0.734   6.691  0.9573 -1.1777  0.7553
   79SLPC    HB 7239   2.892   0.905   6.717 -0.4187 -0.3796  0.0817
   79SLPC    C2 7240   3.079   0.835   6.615 -0.1591 -0.4708 -1.0643
   79SLPC    HS 7241   3.146   0.746   6.624 -0.7456 -0.9181 -1.0845
   79SLPC   O21 7242   3.153   0.955   6.650 -0.1891 -0.4136 -0.4542
   79SLPC   C21 7243   3.286   0.951   6.630  0.6392  0.9796  0.1943
   79SLPC   O22 7244   3.347   0.853   6.590  0.2623  0.4738 -0.5772
   79SLPC   C22 7245   3.344   1.092   6.636 -0.4864  0.8866  0.0075
   79SLPC   H2R 7246   3.367   1.113   6.742 -2.6209  2.2417  0.2702
   79SLPC   H2S 7247   3.439   1.097   6.579 -0.3823 -0.6272  0.0064
   79SLPC    C3 7248   3.024   0.858   6.476  0.0700 -0.3506  0.3484
   79SLPC    HX 7249   3.099   0.857   6.393 -0.5311 -1.5140 -0.2095
   79SLPC    HY 7250   2.974   0.957   6.481 -0.7215 -0.7410  0.2882
   79SLPC   O31 7251   2.925   0.760   6.444  0.4492  0.2066 -0.0698
   79SLPC   C31 7252   2.957   0.639   6.407  0.2559  0.3054 -0.1674
   79SLPC   O32 7253   3.064   0.586   6.433 -0.1893  0.0672 -0.3673
   79SLPC   C32 7254   2.844   0.573   6.325 -0.1953  0.1679  0.7388
   79SLPC   H2X 7255   2.807   0.646   6.250  1.0076  0.8402  0.7632
   79SLPC   H2Y 7256   2.754   0.569   6.390 -3.9775  0.5926 -3.9241
   79SLPC   C23 7257   3.244   1.197   6.568  0.0908  0.9083 -0.9754
   79SLPC   H3R 7258   3.275   1.302   6.585 -0.2241  1.2163 -2.1958
   79SLPC   H3S 7259   3.143   1.185   6.611  0.5265  0.5364 -0.0204
   79SLPC   C24 7260   3.236   1.167   6.421 -0.4907 -0.1265  0.2936
   79SLPC   H4R 7261   3.225   1.059   6.395  2.4163 -0.5303  0.4030
   79SLPC   H4S 7262   3.333   1.184   6.367 -1.5508  0.8829 -1.3940
   79SLPC   C25 7263   3.124   1.246   6.351 -0.8886 -0.2194  0.0055
   79SLPC   H5R 7264   3.150   1.354   6.353 -0.6603 -0.1782 -2.3952
   79SLPC   H5S 7265   3.029   1.228   6.405 -1.5949  0.6880 -0.9083
   79SLPC   C26 7266   3.122   1.207   6.199  0.2303  0.5607  0.6339
   79SLPC   H6R 7267   3.227   1.217   6.164  0.3298 -1.9992  0.0318
   79SLPC   H6S 7268   3.054   1.278   6.148  0.9448  0.3788 -0.5964
   79SLPC   C27 7269   3.072   1.066   6.165  0.4586 -0.3071 -0.1967
   79SLPC   H7R 7270   3.030   1.038   6.264 -1.8765 -0.3930 -1.1441
   79SLPC   H7S 7271   3.155   0.998   6.138  0.9497  0.5283 -0.8152
   79SLPC   C28 7272   2.959   1.049   6.057  1.0285 -0.4193  0.1172
   79SLPC   H8R 7273   2.986   1.103   5.963 -0.7356 -0.0883 -0.2418
   79SLPC   H8S 7274   2.866   1.095   6.099  0.8496  1.5138 -2.1759
   79SLPC   C29 7275   2.932   0.905   6.022  0.4853  0.8282  0.1963
   79SLPC   H9R 7276   2.935   0.827   6.099  0.2675 -0.0297 -0.6388
   79SLPC  C210 7277   2.928   0.852   5.896 -0.1350 -0.2918  0.1352
   79SLPC  H10R 7278   2.913   0.744   5.890 -1.7065 -0.0832 -0.0703
   79SLPC  C211 7279   2.915   0.934   5.771 -0.3117 -0.2706 -0.6104
   79SLPC  H11R 7280   2.978   0.887   5.692 -0.6986  0.1224 -1.1587
   79SLPC  H11S 7281   2.959   1.035   5.763 -2.4554  0.7057 -0.7150
   79SLPC  C212 7282   2.772   0.931   5.730 -0.3937 -1.0112 -0.5246
   79SLPC  H12R 7283   2.698   0.961   5.806  0.4116  2.5534 -0.9911
   79SLPC  C213 7284   2.722   0.898   5.611  0.5418  0.9444  0.7680
   79SLPC  H13R 7285   2.613   0.900   5.599  0.6275  1.4598 -0.0163
   79SLPC  C214 7286   2.811   0.836   5.494  0.1970  0.4212 -0.4438
   79SLPC  H14R 7287   2.834   0.728   5.513  2.4255  0.8018 -0.6199
   79SLPC  H14S 7288   2.914   0.878   5.496  1.0890 -1.6149  0.1091
   79SLPC  C215 7289   2.756   0.847   5.352 -0.2297  0.8546  0.3615
   79SLPC  H15R 7290   2.836   0.819   5.280 -0.6925 -0.5122  0.3664
   79SLPC  H15S 7291   2.717   0.948   5.328  0.1991  1.2600  1.3009
   79SLPC  C216 7292   2.643   0.746   5.323  0.1219 -0.1826 -0.2660
   79SLPC  H16R 7293   2.572   0.755   5.408  0.3734  1.0127 -0.1573
   79SLPC  H16S 7294   2.684   0.644   5.304 -2.4416 -1.1949 -0.6770
   79SLPC  C217 7295   2.559   0.775   5.197 -0.3166 -0.4849 -0.1691
   79SLPC  H17R 7296   2.624   0.749   5.111  0.2881  0.9601 -0.1669
   79SLPC  H17S 7297   2.541   0.884   5.186  0.4672 -0.3507 -0.1451
   79SLPC  C218 7298   2.425   0.712   5.194  0.1211  0.1526 -0.3694
   79SLPC  H18R 7299   2.435   0.603   5.212 -0.4788  0.1636  0.0582
   79SLPC  H18S 7300   2.361   0.728   5.105  1.0824  0.9235 -0.9465
   79SLPC  H18T 7301   2.354   0.754   5.268 -0.8004 -1.0733 -0.5343
   79SLPC   C33 7302   2.880   0.433   6.278 -0.3252 -0.6099  0.5714
   79SLPC   H3X 7303   2.786   0.374   6.269  0.9140 -2.4548 -1.2368
   79SLPC   H3Y 7304   2.931   0.383   6.364 -0.4899 -0.9562  0.4710
   79SLPC   C34 7305   2.961   0.413   6.152 -0.0696 -0.8319  0.1155
   79SLPC   H4X 7306   2.954   0.304   6.135 -0.4127 -0.7542 -0.2399
   79SLPC   H4Y 7307   3.065   0.452   6.162 -1.1333  2.1686  0.4912
   79SLPC   C35 7308   2.901   0.472   6.023  0.1386 -0.0899  0.0911
   79SLPC   H5X 7309   2.935   0.577   6.012  1.5431 -0.4658  0.5652
   79SLPC   H5Y 7310   2.791   0.481   6.033  0.2295  1.9185 -0.3077
   79SLPC   C36 7311   2.955   0.408   5.893  0.3104  0.5489 -0.4585
   79SLPC   H6X 7312   2.959   0.298   5.900  0.9011  0.5969 -0.0154
   79SLPC   H6Y 7313   3.064   0.429   5.891  0.0818  2.2304  1.2154
   79SLPC   C37 7314   2.880   0.443   5.763 -0.1731  0.3448  0.3320
   79SLPC   H7X 7315   2.941   0.393   5.684 -0.1533 -0.7913  1.0430
   79SLPC   H7Y 7316   2.873   0.552   5.745 -0.9077  0.6175  2.1354
   79SLPC   C38 7317   2.733   0.401   5.767 -0.1582  1.1451  0.6437
   79SLPC   H8X 7318   2.685   0.457   5.850  0.8771 -0.1520  2.1979
   79SLPC   H8Y 7319   2.737   0.293   5.793  0.4221  1.0979  0.3620
   79SLPC   C39 7320   2.662   0.436   5.639 -0.3864  0.0726  0.3506
   79SLPC   H9X 7321   2.709   0.378   5.557  1.6781  1.9864  0.0761
   79SLPC   H9Y 7322   2.665   0.547   5.635 -2.1237  0.1431  0.0026
   79SLPC  C310 7323   2.515   0.406   5.633  0.2260  0.5302  0.1000
   79SLPC  H10X 7324   2.462   0.454   5.717  1.6907 -2.4812  2.9549
   79SLPC  H10Y 7325   2.518   0.296   5.645 -0.2350  0.5555  0.4688
   79SLPC  C311 7326   2.448   0.448   5.500 -0.2462 -0.6638  0.0641
   79SLPC  H11X 7327   2.515   0.416   5.418  1.1137 -2.8923  1.9186
   79SLPC  H11Y 7328   2.436   0.558   5.489 -1.6547 -0.5787  1.9073
   79SLPC  C312 7329   2.313   0.383   5.490  0.2193 -0.2697  0.5117
   79SLPC  H12X 7330   2.244   0.418   5.569 -1.7298 -1.1970 -0.7104
   79SLPC  H12Y 7331   2.323   0.272   5.494  3.5631 -0.0711  0.1928
   79SLPC  C313 7332   2.253   0.434   5.358 -0.6665 -0.8590 -0.4270
   79SLPC  H13X 7333   2.314   0.383   5.280 -1.3186 -1.0006 -0.8595
   79SLPC  H13Y 7334   2.265   0.544   5.358  0.6114 -0.9771 -0.6529
   79SLPC  C314 7335   2.112   0.397   5.327 -0.1312 -0.2221 -0.4923
   79SLPC  H14X 7336   2.046   0.451   5.399 -2.3301 -1.5569 -1.4159
   79SLPC  H14Y 7337   2.090   0.292   5.355 -0.6342 -0.0138 -0.0885
   79SLPC  C315 7338   2.053   0.423   5.188  0.2155 -0.2240  0.1847
   79SLPC  H15X 7339   1.945   0.399   5.195  0.3960 -1.3889 -0.7409
   79SLPC  H15Y 7340   2.114   0.360   5.120  1.2202  2.0285 -1.1566
   79SLPC  C316 7341   2.070   0.553   5.120 -0.7181 -0.4048  0.4933
   79SLPC  H16X 7342   2.180   0.560   5.106 -0.7644  0.2211  0.4267
   79SLPC  H16Y 7343   2.033   0.629   5.192 -0.1965  0.9974 -0.6695
   79SLPC  C317 7344   1.996   0.566   4.979  0.1870 -0.2355 -0.1209
   79SLPC  H17X 7345   2.046   0.486   4.919  2.2437  0.1192  1.0220
   79SLPC  H17Y 7346   2.024   0.664   4.934 -3.2833 -0.3084 -2.8726
   79SLPC  C318 7347   1.845   0.555   4.989  0.2827 -0.3607 -0.1267
   79SLPC  H18X 7348   1.809   0.452   4.970  0.2271 -0.0685 -1.7326
   79SLPC  H18Y 7349   1.804   0.609   4.901  0.5959 -3.6822 -2.4720
   79SLPC  H18Z 7350   1.805   0.598   5.084 -1.2760  0.8640 -1.2796
   80SLPC     N 7351   1.622   4.595   7.200  0.0038  0.5081 -0.3332
   80SLPC   C13 7352   1.766   4.632   7.194  0.6380 -0.1242  0.1598
   80SLPC  H13A 7353   1.809   4.576   7.113  1.2307  0.9015 -0.2467
   80SLPC  H13B 7354   1.789   4.734   7.170  0.9973 -0.7766 -2.5184
   80SLPC  H13C 7355   1.814   4.596   7.284 -2.0746  0.6968  2.0688
   80SLPC   C14 7356   1.548   4.642   7.085  0.1682  0.1958 -0.4639
   80SLPC  H14A 7357   1.550   4.749   7.093 -0.2788  0.1671  0.0972
   80SLPC  H14B 7358   1.599   4.615   6.993  1.3132  1.3305 -0.1981
   80SLPC  H14C 7359   1.446   4.607   7.075  0.1669  0.4189 -1.2836
   80SLPC   C15 7360   1.557   4.665   7.310  0.5709 -0.4722 -0.0383
   80SLPC  H15A 7361   1.560   4.771   7.287 -1.4566 -0.4037 -0.1897
   80SLPC  H15B 7362   1.455   4.631   7.319  0.4026 -0.0103 -0.1400
   80SLPC  H15C 7363   1.622   4.649   7.395  2.0754  1.6889 -0.6833
   80SLPC   C12 7364   1.616   4.448   7.210 -0.0932  0.9804  0.1552
   80SLPC  H12A 7365   1.511   4.422   7.215 -0.1911  1.2444 -0.4425
   80SLPC  H12B 7366   1.659   4.426   7.307  1.6788  1.1232 -0.5597
   80SLPC   C11 7367   1.689   4.359   7.113 -0.3654 -0.1425 -0.3410
   80SLPC  H11A 7368   1.675   4.390   7.007  0.7167  1.0161 -0.1684
   80SLPC  H11B 7369   1.658   4.252   7.116 -0.8250  0.0003 -0.0185
   80SLPC     P 7370   1.921   4.240   7.159 -0.1958 -0.4462 -0.1661
   80SLPC   O13 7371   2.062   4.292   7.150  0.5066  0.0606  0.6815
   80SLPC   O14 7372   1.875   4.167   7.277 -0.1220  0.1335 -0.5098
   80SLPC   O12 7373   1.829   4.367   7.145  0.0216  0.4228 -0.8446
   80SLPC   O11 7374   1.891   4.159   7.024  0.0508  1.0289 -0.2136
   80SLPC    C1 7375   1.897   4.217   6.895  0.3301 -0.0044  0.2644
   80SLPC    HA 7376   1.797   4.214   6.846 -0.1702 -1.3861  1.3065
   80SLPC    HB 7377   1.941   4.319   6.892 -3.4784  1.8430  0.3766
   80SLPC    C2 7378   1.972   4.127   6.799 -0.4517 -0.1869  0.4097
   80SLPC    HS 7379   1.984   4.183   6.704  2.9898 -1.1000  0.1730
   80SLPC   O21 7380   1.928   3.993   6.789  0.2230 -0.4412  0.4730
   80SLPC   C21 7381   1.826   3.981   6.704  0.1801 -0.3229 -0.8737
   80SLPC   O22 7382   1.768   4.074   6.652  1.0820  0.3470 -0.2842
   80SLPC   C22 7383   1.807   3.835   6.672  0.3816  0.3098  0.5884
   80SLPC   H2R 7384   1.908   3.791   6.659  0.1002 -0.3241  0.5367
   80SLPC   H2S 7385   1.760   3.800   6.767  1.0894 -2.1213  0.1078
   80SLPC    C3 7386   2.120   4.116   6.847 -0.2142  0.1221  0.1523
   80SLPC    HX 7387   2.129   4.070   6.948  0.4418 -1.6815 -0.6811
   80SLPC    HY 7388   2.151   4.223   6.851 -4.0700  1.3460  2.2834
   80SLPC   O31 7389   2.186   4.042   6.746  0.3270  0.0791  0.0165
   80SLPC   C31 7390   2.284   3.955   6.773  0.1068 -0.5036 -0.0060
   80SLPC   O32 7391   2.350   3.956   6.878  0.9836 -0.4732 -0.4638
   80SLPC   C32 7392   2.308   3.866   6.647 -0.9142  0.8845 -0.0239
   80SLPC   H2X 7393   2.416   3.840   6.638 -1.1816 -1.2306  1.8750
   80SLPC   H2Y 7394   2.288   3.935   6.562 -1.8579 -0.9130 -1.3299
   80SLPC   C23 7395   1.715   3.807   6.547 -0.6564  0.2475 -0.0866
   80SLPC   H3R 7396   1.611   3.843   6.562 -0.0808  2.3909 -0.9799
   80SLPC   H3S 7397   1.724   3.696   6.554  0.7801  0.2329 -1.6747
   80SLPC   C24 7398   1.771   3.851   6.415 -0.3560  0.0735 -0.0472
   80SLPC   H4R 7399   1.880   3.839   6.403 -0.2597  1.8977 -1.6450
   80SLPC   H4S 7400   1.738   3.956   6.398 -2.4345 -0.8258 -2.4400
   80SLPC   C25 7401   1.708   3.785   6.295 -0.2676 -0.0366  0.6083
   80SLPC   H5R 7402   1.597   3.791   6.303 -0.1676  0.0866  2.1899
   80SLPC   H5S 7403   1.742   3.681   6.278  0.2454  0.4476 -1.7104
   80SLPC   C26 7404   1.737   3.851   6.160 -0.1099 -0.1810  0.4485
   80SLPC   H6R 7405   1.836   3.819   6.120 -0.3384 -0.2875 -0.0374
   80SLPC   H6S 7406   1.747   3.961   6.168  1.2676 -0.3815  2.0207
   80SLPC   C27 7407   1.628   3.815   6.055 -0.0470 -1.1131 -0.0111
   80SLPC   H7R 7408   1.528   3.828   6.101 -0.5478 -1.0814 -1.0834
   80SLPC   H7S 7409   1.635   3.712   6.014  1.1901 -0.9137 -0.3445
   80SLPC   C28 7410   1.623   3.907   5.929 -0.5999  0.3920  0.6988
   80SLPC   H8R 7411   1.623   4.004   5.984  1.5582  0.7904  0.1126
   80SLPC   H8S 7412   1.536   3.880   5.866  0.1097 -1.2454  0.3705
   80SLPC   C29 7413   1.748   3.896   5.844  0.1211  0.1228 -0.3878
   80SLPC   H9R 7414   1.841   3.930   5.892  0.5831  0.1567 -1.2733
   80SLPC  C210 7415   1.755   3.844   5.716  0.4546  0.5724  0.5644
   80SLPC  H10R 7416   1.852   3.819   5.671 -1.2689 -3.6652 -1.3148
   80SLPC  C211 7417   1.639   3.776   5.640 -0.2175  0.5294 -0.4951
   80SLPC  H11R 7418   1.559   3.852   5.625  1.9348  2.7545 -1.3753
   80SLPC  H11S 7419   1.601   3.689   5.698  1.0311  0.8626  0.8799
   80SLPC  C212 7420   1.677   3.739   5.494 -0.2905  0.3853  0.0662
   80SLPC  H12R 7421   1.654   3.638   5.459  1.0506  0.7651 -2.1430
   80SLPC  C213 7422   1.732   3.810   5.395  0.4819 -0.0458  0.2403
   80SLPC  H13R 7423   1.748   3.768   5.294  2.2904  3.1507 -0.9564
   80SLPC  C214 7424   1.764   3.958   5.401  0.1669  0.2738  0.0103
   80SLPC  H14R 7425   1.872   3.965   5.376  0.0215 -0.7914 -1.0035
   80SLPC  H14S 7426   1.745   4.006   5.500 -1.7261 -0.4988  0.0661
   80SLPC  C215 7427   1.706   4.049   5.294 -0.2238 -0.0716 -0.3098
   80SLPC  H15R 7428   1.756   4.146   5.313 -2.7124  1.2256 -0.0411
   80SLPC  H15S 7429   1.596   4.059   5.309 -0.1553 -1.4721  1.5776
   80SLPC  C216 7430   1.738   4.022   5.146 -0.0777  0.5457  0.1187
   80SLPC  H16R 7431   1.681   3.935   5.106  2.3240 -0.3869 -1.4734
   80SLPC  H16S 7432   1.843   3.994   5.125 -0.0095  0.8821  0.0081
   80SLPC  C217 7433   1.716   4.156   5.065  0.7418  0.8300 -0.2872
   80SLPC  H17R 7434   1.795   4.231   5.086  0.8488  0.7547 -0.4180
   80SLPC  H17S 7435   1.618   4.197   5.094  0.2978  1.8417 -2.9220
   80SLPC  C218 7436   1.710   4.131   4.908  0.9529 -0.2273 -0.1265
   80SLPC  H18R 7437   1.803   4.081   4.875  2.1318  1.0966  1.0210
   80SLPC  H18S 7438   1.692   4.223   4.849  0.4832 -0.3955 -0.2453
   80SLPC  H18T 7439   1.634   4.055   4.882  2.0629 -1.0720 -0.9599
   80SLPC   C33 7440   2.219   3.745   6.631 -0.1021 -0.1911  0.2526
   80SLPC   H3X 7441   2.111   3.760   6.653 -0.0857  2.1793 -1.0269
   80SLPC   H3Y 7442   2.250   3.669   6.707  0.7053  0.9425  1.0971
   80SLPC   C34 7443   2.241   3.670   6.500 -0.1865  0.4568  0.1290
   80SLPC   H4X 7444   2.172   3.584   6.495  1.0854 -0.6698  1.0850
   80SLPC   H4Y 7445   2.345   3.631   6.509 -0.1318 -0.2145 -2.6238
   80SLPC   C35 7446   2.238   3.759   6.375  0.3559  0.0775 -0.0908
   80SLPC   H5X 7447   2.298   3.853   6.377 -0.2805  0.4963 -0.4070
   80SLPC   H5Y 7448   2.131   3.786   6.362  0.3766 -0.1033 -0.6948
   80SLPC   C36 7449   2.273   3.679   6.248 -0.3318  0.5499 -0.1941
   80SLPC   H6X 7450   2.181   3.620   6.225  0.2463 -0.7766  0.7702
   80SLPC   H6Y 7451   2.362   3.615   6.261 -0.8477 -0.1555 -0.0626
   80SLPC   C37 7452   2.303   3.770   6.129 -0.4371  0.1913  0.1775
   80SLPC   H7X 7453   2.407   3.807   6.136 -0.8521  1.1008  2.9583
   80SLPC   H7Y 7454   2.233   3.855   6.120 -0.8541 -0.2557 -0.9638
   80SLPC   C38 7455   2.301   3.688   5.993 -0.2647  0.0917 -0.4004
   80SLPC   H8X 7456   2.207   3.628   5.994 -0.6868  0.6121  2.8848
   80SLPC   H8Y 7457   2.377   3.608   5.996 -0.3523  0.0286  0.6563
   80SLPC   C39 7458   2.333   3.777   5.866 -0.0783 -0.0349  0.1154
   80SLPC   H9X 7459   2.353   3.703   5.786  3.8544  0.0503  0.8416
   80SLPC   H9Y 7460   2.424   3.840   5.872  0.9269 -1.2026 -1.9185
   80SLPC  C310 7461   2.220   3.865   5.821 -0.1004 -0.3841  0.7023
   80SLPC  H10X 7462   2.207   3.956   5.885  1.5308  1.4956 -1.4842
   80SLPC  H10Y 7463   2.122   3.813   5.830  0.0983 -1.0825 -0.8650
   80SLPC  C311 7464   2.240   3.917   5.674  0.3276 -0.1383 -0.6724
   80SLPC  H11X 7465   2.290   3.842   5.610  1.7046 -0.7934  1.0787
   80SLPC  H11Y 7466   2.308   4.006   5.672 -0.8883  0.8772  0.7791
   80SLPC  C312 7467   2.110   3.970   5.613  0.2902 -0.7189 -0.3684
   80SLPC  H12X 7468   2.049   4.018   5.692  1.0143  1.1697 -0.9161
   80SLPC  H12Y 7469   2.049   3.885   5.577  0.6442 -0.3495 -1.8847
   80SLPC  C313 7470   2.140   4.074   5.496  0.0538  0.2644 -0.2602
   80SLPC  H13X 7471   2.204   4.161   5.522  2.7355 -1.7028  0.1219
   80SLPC  H13Y 7472   2.044   4.123   5.469  1.0947  1.9427 -1.0456
   80SLPC  C314 7473   2.197   4.012   5.371 -0.9642  0.2013  0.0437
   80SLPC  H14X 7474   2.136   3.923   5.344  0.7524 -0.6262 -1.2329
   80SLPC  H14Y 7475   2.295   3.967   5.398  0.0791  2.8183  0.9451
   80SLPC  C315 7476   2.207   4.089   5.242  0.5052  0.4489 -0.4941
   80SLPC  H15X 7477   2.292   4.159   5.252  1.6690 -1.1342  1.4057
   80SLPC  H15Y 7478   2.118   4.152   5.223  1.0807  1.0372 -1.2853
   80SLPC  C316 7479   2.239   3.997   5.123 -0.2290  0.3085  0.1328
   80SLPC  H16X 7480   2.312   3.920   5.154 -0.3229 -0.4806 -1.5446
   80SLPC  H16Y 7481   2.289   4.060   5.046  0.5580 -0.5755 -0.0902
   80SLPC  C317 7482   2.113   3.944   5.062 -0.4324  0.7727  0.1420
   80SLPC  H17X 7483   2.047   4.017   5.011  0.1880  1.1452 -0.1423
   80SLPC  H17Y 7484   2.057   3.892   5.142 -2.2176 -1.5804 -2.4499
   80SLPC  C318 7485   2.136   3.833   4.956 -0.6358 -0.7221 -0.0129
   80SLPC  H18X 7486   2.037   3.803   4.916 -0.1698  0.4801 -2.2008
   80SLPC  H18Y 7487   2.194   3.749   4.998  1.0040  0.9927  1.3172
   80SLPC  H18Z 7488   2.195   3.881   4.876  0.0602 -1.9822 -0.2690
   81SLPC     N 7489   2.392   0.193   2.209  0.2584  0.0331 -0.0644
   81SLPC   C13 7490   2.305   0.089   2.143  0.0413 -0.0075 -0.5222
   81SLPC  H13A 7491   2.317  -0.009   2.187  0.1033  1.4404  2.9530
   81SLPC  H13B 7492   2.203   0.119   2.162  0.9690  2.0240  1.6926
   81SLPC  H13C 7493   2.326   0.088   2.037  1.1305  1.5987 -0.3401
   81SLPC   C14 7494   2.359   0.329   2.151 -0.0502  0.1923  0.4132
   81SLPC  H14A 7495   2.258   0.357   2.177  0.7213  3.3288  0.4558
   81SLPC  H14B 7496   2.421   0.406   2.195 -2.2283  2.0739  0.3480
   81SLPC  H14C 7497   2.369   0.315   2.045  0.3185  0.1770  0.4472
   81SLPC   C15 7498   2.537   0.165   2.171 -0.6371  0.0392 -0.6572
   81SLPC  H15A 7499   2.545   0.160   2.064  1.5544 -3.9518 -0.5156
   81SLPC  H15B 7500   2.600   0.245   2.207 -0.2808  0.3945 -2.0373
   81SLPC  H15C 7501   2.576   0.076   2.219  0.8351  0.8896 -0.2052
   81SLPC   C12 7502   2.372   0.201   2.357  0.4942  0.0517  0.0770
   81SLPC  H12A 7503   2.267   0.224   2.368  0.0808 -0.4915 -2.2779
   81SLPC  H12B 7504   2.421   0.283   2.408  1.4436 -0.8408  0.6326
   81SLPC   C11 7505   2.403   0.077   2.442  0.7850  0.3944  0.1238
   81SLPC  H11A 7506   2.352  -0.011   2.398 -1.0361  0.5339  1.7695
   81SLPC  H11B 7507   2.354   0.104   2.538 -0.5508  1.1180 -0.7261
   81SLPC     P 7508   2.637   0.136   2.543 -0.1599 -0.3597  0.1028
   81SLPC   O13 7509   2.756   0.155   2.466 -0.3962 -0.7192  0.4654
   81SLPC   O14 7510   2.560   0.253   2.588  0.0517 -0.2726  0.3284
   81SLPC   O12 7511   2.541   0.053   2.451 -0.2294  0.3393 -0.0413
   81SLPC   O11 7512   2.674   0.042   2.663 -0.2054  0.4339 -0.4431
   81SLPC    C1 7513   2.619  -0.091   2.676  0.8812 -0.2202  0.1954
   81SLPC    HA 7514   2.607  -0.141   2.578 -0.3684 -0.2812  0.3643
   81SLPC    HB 7515   2.687  -0.157   2.734  0.8170 -1.2408 -0.8568
   81SLPC    C2 7516   2.477  -0.111   2.745 -0.2811 -0.5492 -0.3558
   81SLPC    HS 7517   2.398  -0.060   2.685 -0.4513  0.3516  0.6097
   81SLPC   O21 7518   2.481  -0.062   2.882 -0.4775 -0.3078 -0.4045
   81SLPC   C21 7519   2.365  -0.021   2.939 -0.8708 -0.4537  0.4572
   81SLPC   O22 7520   2.255  -0.055   2.898 -0.1565  0.3584 -0.4220
   81SLPC   C22 7521   2.386   0.060   3.063 -0.4832  0.0603  0.6162
   81SLPC   H2R 7522   2.493   0.040   3.084 -0.3673  0.4957  0.4451
   81SLPC   H2S 7523   2.378   0.167   3.036  1.1608  0.0390 -0.0801
   81SLPC    C3 7524   2.438  -0.264   2.749  0.1329 -0.4658 -0.6402
   81SLPC    HX 7525   2.436  -0.302   2.645  0.1594 -2.3590  0.0116
   81SLPC    HY 7526   2.338  -0.264   2.798  0.8101 -1.4827  0.7983
   81SLPC   O31 7527   2.538  -0.341   2.812  0.5060  0.2805 -0.5620
   81SLPC   C31 7528   2.523  -0.359   2.941 -0.0296  0.4905  0.8254
   81SLPC   O32 7529   2.424  -0.348   3.010  0.3349  0.2699 -0.5302
   81SLPC   C32 7530   2.663  -0.405   2.984 -0.2501  0.1692  0.0147
   81SLPC   H2X 7531   2.736  -0.325   2.957 -0.7680  0.5052 -0.4148
   81SLPC   H2Y 7532   2.684  -0.496   2.923  2.6853  1.7284 -1.5521
   81SLPC   C23 7533   2.303   0.029   3.191  0.5951 -0.2606 -0.8484
   81SLPC   H3R 7534   2.275  -0.077   3.210 -0.6833 -0.0064 -1.2697
   81SLPC   H3S 7535   2.206   0.079   3.175  0.9531  0.8722  0.2927
   81SLPC   C24 7536   2.373   0.084   3.321  0.1627  0.8904  0.3283
   81SLPC   H4R 7537   2.361   0.194   3.318 -0.5686  0.8075  0.0085
   81SLPC   H4S 7538   2.480   0.057   3.320 -0.3564 -1.3626  0.2940
   81SLPC   C25 7539   2.314   0.026   3.443  0.1405  1.0877  0.2328
   81SLPC   H5R 7540   2.338  -0.082   3.430 -1.8517  0.7386 -1.0668
   81SLPC   H5S 7541   2.203   0.034   3.437 -0.2173 -1.4978  1.5151
   81SLPC   C26 7542   2.346   0.101   3.574 -0.3328 -0.1813  0.1513
   81SLPC   H6R 7543   2.295   0.199   3.560 -0.3100 -0.0782  0.7877
   81SLPC   H6S 7544   2.451   0.138   3.572 -0.6535  0.7569 -1.5660
   81SLPC   C27 7545   2.293   0.037   3.701 -0.1547 -0.0588  0.0902
   81SLPC   H7R 7546   2.350  -0.058   3.711  1.3593  0.6419 -1.3663
   81SLPC   H7S 7547   2.185   0.014   3.694 -0.1404  0.1204 -0.9964
   81SLPC   C28 7548   2.314   0.124   3.832 -0.5305 -0.0963  0.0300
   81SLPC   H8R 7549   2.277   0.225   3.808 -1.9831 -0.7259 -0.5322
   81SLPC   H8S 7550   2.422   0.139   3.850 -0.6746  1.5816 -0.4085
   81SLPC   C29 7551   2.233   0.078   3.952  0.2416 -0.5543  0.3139
   81SLPC   H9R 7552   2.131   0.045   3.925  0.0489  0.3380 -0.1092
   81SLPC  C210 7553   2.279   0.059   4.074  0.4090 -0.6358 -0.1186
   81SLPC  H10R 7554   2.212   0.028   4.156  0.5269 -0.4581  0.0445
   81SLPC  C211 7555   2.418   0.090   4.122 -0.0300  0.3978 -0.7562
   81SLPC  H11R 7556   2.487   0.021   4.069 -1.2251 -2.8838  1.5989
   81SLPC  H11S 7557   2.432   0.051   4.225 -1.3026  2.8088  0.4003
   81SLPC  C212 7558   2.488   0.222   4.110  0.3353  0.6589 -0.2465
   81SLPC  H12R 7559   2.519   0.246   4.007 -2.2603 -0.4178 -1.3587
   81SLPC  C213 7560   2.523   0.302   4.217 -0.1848 -0.5166  0.3520
   81SLPC  H13R 7561   2.586   0.391   4.200 -0.8203  0.1937  1.5454
   81SLPC  C214 7562   2.461   0.283   4.355 -0.1317 -0.0205 -0.5294
   81SLPC  H14R 7563   2.378   0.208   4.351 -0.2927  0.2188 -3.4528
   81SLPC  H14S 7564   2.430   0.382   4.395  0.5432  0.3884 -0.9960
   81SLPC  C215 7565   2.553   0.235   4.467 -0.0552 -0.2416 -0.5453
   81SLPC  H15R 7566   2.614   0.150   4.430  1.6491  0.8387 -0.3033
   81SLPC  H15S 7567   2.498   0.206   4.559  3.4388 -1.9465  1.1766
   81SLPC  C216 7568   2.657   0.333   4.505 -0.9488 -0.1943 -0.5077
   81SLPC  H16R 7569   2.616   0.421   4.560  3.0562 -0.0126  2.7360
   81SLPC  H16S 7570   2.706   0.376   4.415  0.9105  0.0925  0.5817
   81SLPC  C217 7571   2.771   0.269   4.582  0.5344  0.1962  0.3369
   81SLPC  H17R 7572   2.803   0.180   4.523  2.0169 -1.7934  3.7886
   81SLPC  H17S 7573   2.741   0.234   4.683 -0.4665 -0.5824 -0.2155
   81SLPC  C218 7574   2.889   0.354   4.603  0.0011  0.1889 -0.2336
   81SLPC  H18R 7575   2.845   0.434   4.666 -3.7142 -1.1088 -0.9142
   81SLPC  H18S 7576   2.940   0.381   4.508 -0.9997  0.4200 -0.7215
   81SLPC  H18T 7577   2.966   0.295   4.658  0.5905  0.0559 -1.1706
   81SLPC   C33 7578   2.662  -0.419   3.138 -0.3858  0.2211 -0.7534
   81SLPC   H3X 7579   2.755  -0.466   3.176  1.0681  2.4082 -1.3941
   81SLPC   H3Y 7580   2.583  -0.487   3.175  1.7414  0.1994  4.8265
   81SLPC   C34 7581   2.643  -0.286   3.205 -0.5082  0.8047 -0.7156
   81SLPC   H4X 7582   2.532  -0.280   3.212 -0.5854 -1.2064  0.6855
   81SLPC   H4Y 7583   2.688  -0.205   3.144  0.1922  2.9376  2.3864
   81SLPC   C35 7584   2.699  -0.266   3.347  0.4482 -0.4416  0.8438
   81SLPC   H5X 7585   2.670  -0.164   3.380  0.0426 -0.5221  0.7380
   81SLPC   H5Y 7586   2.810  -0.260   3.338  0.5412 -1.8336  0.9450
   81SLPC   C36 7587   2.673  -0.373   3.451 -0.8322  0.2834  0.2501
   81SLPC   H6X 7588   2.726  -0.341   3.543  1.0472  1.2474 -1.1080
   81SLPC   H6Y 7589   2.695  -0.473   3.409  1.9162  1.7457 -2.1445
   81SLPC   C37 7590   2.525  -0.374   3.492 -0.0484 -0.7633 -0.3001
   81SLPC   H7X 7591   2.471  -0.422   3.408 -0.7508 -1.9409  0.7835
   81SLPC   H7Y 7592   2.483  -0.272   3.497 -1.4877 -1.3827  2.7449
   81SLPC   C38 7593   2.483  -0.445   3.623  0.2177  0.4043  0.3502
   81SLPC   H8X 7594   2.557  -0.527   3.641  1.2084  1.0444 -0.6667
   81SLPC   H8Y 7595   2.378  -0.478   3.611 -0.5904  2.4442  1.3742
   81SLPC   C39 7596   2.495  -0.356   3.740 -0.2222 -0.9254  0.1515
   81SLPC   H9X 7597   2.425  -0.270   3.732 -0.7247 -1.4887 -2.3933
   81SLPC   H9Y 7598   2.597  -0.316   3.757 -0.7432 -0.0222  1.3086
   81SLPC  C310 7599   2.468  -0.423   3.875  0.0138  0.5294 -0.4672
   81SLPC  H10X 7600   2.540  -0.507   3.890 -2.7827 -1.9437 -0.0767
   81SLPC  H10Y 7601   2.370  -0.473   3.861  0.8976 -1.4481  0.1348
   81SLPC  C311 7602   2.480  -0.321   3.992  0.7993  0.0490  0.4890
   81SLPC  H11X 7603   2.413  -0.237   3.965  0.1458 -0.9865 -1.3093
   81SLPC  H11Y 7604   2.587  -0.295   4.005  1.0503 -1.5674  2.0629
   81SLPC  C312 7605   2.436  -0.388   4.117 -0.6301  0.3370 -0.7395
   81SLPC  H12X 7606   2.334  -0.432   4.106 -0.0795 -1.1712 -0.0320
   81SLPC  H12Y 7607   2.432  -0.306   4.192 -0.8334  0.6274 -1.0662
   81SLPC  C313 7608   2.533  -0.490   4.181  0.1926  0.1771 -0.5774
   81SLPC  H13X 7609   2.627  -0.436   4.209  0.0972  0.8329 -1.4788
   81SLPC  H13Y 7610   2.550  -0.584   4.125 -0.2670  0.0525 -0.5069
   81SLPC  C314 7611   2.477  -0.541   4.315  0.9441  0.2139 -0.1227
   81SLPC  H14X 7612   2.399  -0.617   4.294 -1.6398  2.4533  0.6724
   81SLPC  H14Y 7613   2.433  -0.456   4.372  0.8236 -0.0631  0.2003
   81SLPC  C315 7614   2.572  -0.620   4.398  0.3000 -0.1925 -0.1179
   81SLPC  H15X 7615   2.663  -0.557   4.387  0.9030 -1.2896 -1.6946
   81SLPC  H15Y 7616   2.588  -0.722   4.358  0.3424 -0.6237  0.9543
   81SLPC  C316 7617   2.528  -0.627   4.548  0.0080  0.3248 -0.4742
   81SLPC  H16X 7618   2.430  -0.679   4.547  0.7873 -1.1952 -1.3908
   81SLPC  H16Y 7619   2.514  -0.526   4.593 -1.2661  0.4219 -1.0315
   81SLPC  C317 7620   2.628  -0.688   4.644 -0.0348 -0.1155 -0.1238
   81SLPC  H17X 7621   2.666  -0.785   4.608  1.7615  1.1608 -1.8576
   81SLPC  H17Y 7622   2.566  -0.715   4.733  0.6179 -1.4917 -0.0629
   81SLPC  C318 7623   2.739  -0.593   4.689 -0.0786  0.5205 -0.0896
   81SLPC  H18X 7624   2.698  -0.521   4.763 -0.0719 -0.3067  0.7296
   81SLPC  H18Y 7625   2.780  -0.534   4.603 -0.0313  0.1852 -0.2988
   81SLPC  H18Z 7626   2.823  -0.645   4.740 -1.5848 -1.9645 -0.0302
   82SLPC     N 7627   0.047   6.138   2.424  0.6634  0.6773  0.1701
   82SLPC   C13 7628  -0.092   6.194   2.404 -0.1824  0.1939 -0.8874
   82SLPC  H13A 7629  -0.106   6.239   2.307  0.5749  0.2088 -0.9988
   82SLPC  H13B 7630  -0.161   6.113   2.424  1.5083 -1.4286 -1.3547
   82SLPC  H13C 7631  -0.123   6.264   2.480 -2.1746 -0.4332 -1.0713
   82SLPC   C14 7632   0.147   6.237   2.389 -0.5776 -0.1375 -0.2008
   82SLPC  H14A 7633   0.245   6.198   2.409 -0.7016 -0.7594 -0.8127
   82SLPC  H14B 7634   0.140   6.258   2.283 -1.3812  0.2588 -0.0778
   82SLPC  H14C 7635   0.137   6.327   2.449 -1.2977 -0.0251 -0.4749
   82SLPC   C15 7636   0.062   6.013   2.342  0.1709  0.1557 -0.1441
   82SLPC  H15A 7637  -0.002   5.933   2.376  2.2742 -0.1554  3.7685
   82SLPC  H15B 7638   0.027   6.031   2.242  0.5800 -0.3038 -0.3742
   82SLPC  H15C 7639   0.166   5.983   2.339  0.3752  0.9471 -1.4112
   82SLPC   C12 7640   0.076   6.092   2.560 -0.8648 -0.5439 -1.2035
   82SLPC  H12A 7641   0.175   6.049   2.568 -0.0920  1.4488  0.9620
   82SLPC  H12B 7642   0.004   6.015   2.586  0.7181 -1.5706  0.3987
   82SLPC   C11 7643   0.060   6.194   2.670 -0.3525 -0.1964  0.1348
   82SLPC  H11A 7644   0.046   6.154   2.772  0.2119  0.9549  0.6843
   82SLPC  H11B 7645  -0.034   6.252   2.656 -0.3339  0.1136  1.2115
   82SLPC     P 7646   0.289   6.265   2.761  0.2944 -0.1952  0.3989
   82SLPC   O13 7647   0.342   6.131   2.709 -0.3403  0.5234  0.4053
   82SLPC   O14 7648   0.370   6.385   2.746  0.4439  0.4154  0.4371
   82SLPC   O12 7649   0.159   6.294   2.686  0.0220 -0.3587 -0.4257
   82SLPC   O11 7650   0.223   6.257   2.904 -0.3268  0.4883 -0.0838
   82SLPC    C1 7651   0.167   6.369   2.962  0.3347 -0.1901 -0.3428
   82SLPC    HA 7652   0.233   6.420   3.035  0.1647  0.1492 -0.4197
   82SLPC    HB 7653   0.124   6.447   2.896  0.2970  1.9548  2.0484
   82SLPC    C2 7654   0.040   6.334   3.058 -0.1814  0.4643 -0.5746
   82SLPC    HS 7655   0.022   6.426   3.118  0.9996  0.1385  0.3244
   82SLPC   O21 7656   0.077   6.230   3.152 -0.3882 -0.2297  0.1545
   82SLPC   C21 7657   0.017   6.235   3.269  0.1633 -0.1105  0.2153
   82SLPC   O22 7658  -0.060   6.323   3.309 -0.8478 -0.8220  0.8711
   82SLPC   C22 7659   0.063   6.111   3.354 -0.0598  0.4761  0.2015
   82SLPC   H2R 7660   0.055   6.024   3.285 -0.3296  0.1373  0.6521
   82SLPC   H2S 7661   0.170   6.123   3.378 -0.1804  1.6254  0.2073
   82SLPC    C3 7662  -0.087   6.286   2.984  0.3176  0.0035  0.4931
   82SLPC    HX 7663  -0.068   6.183   2.947  0.3122  0.4204 -0.7279
   82SLPC    HY 7664  -0.094   6.357   2.898  1.9203 -3.4000 -2.7226
   82SLPC   O31 7665  -0.206   6.279   3.069 -0.4940 -0.2347 -0.2245
   82SLPC   C31 7666  -0.252   6.398   3.099  0.0948  0.4289 -0.0022
   82SLPC   O32 7667  -0.216   6.507   3.052  0.1754 -0.4001 -0.4270
   82SLPC   C32 7668  -0.351   6.377   3.216 -0.2774 -0.7774  0.3174
   82SLPC   H2X 7669  -0.301   6.334   3.306 -0.6965  0.1300  1.0088
   82SLPC   H2Y 7670  -0.432   6.311   3.180 -1.6585  0.6535  0.6817
   82SLPC   C23 7671  -0.029   6.095   3.480 -0.3871  0.1391  0.2282
   82SLPC   H3R 7672  -0.041   5.988   3.509  1.7137  0.6132  3.3316
   82SLPC   H3S 7673  -0.129   6.139   3.459  0.6112  2.0917 -0.7010
   82SLPC   C24 7674   0.036   6.170   3.600  1.5072 -0.3914  0.0992
   82SLPC   H4R 7675   0.048   6.277   3.573 -0.4422 -0.2606 -0.3781
   82SLPC   H4S 7676   0.138   6.129   3.614  2.2778  1.0975 -0.9222
   82SLPC   C25 7677  -0.037   6.156   3.731 -0.5315  0.3378 -0.2865
   82SLPC   H5R 7678  -0.062   6.052   3.758  1.6920  0.4078  2.5744
   82SLPC   H5S 7679  -0.139   6.200   3.728 -1.3242 -1.4364 -0.4301
   82SLPC   C26 7680   0.038   6.220   3.844 -0.2751 -0.0431 -0.4952
   82SLPC   H6R 7681   0.041   6.331   3.831 -0.8001 -0.2802 -3.2322
   82SLPC   H6S 7682   0.135   6.167   3.855 -1.5956 -2.4791  0.0380
   82SLPC   C27 7683  -0.049   6.188   3.978  0.1771 -0.0043 -0.1791
   82SLPC   H7R 7684  -0.029   6.080   3.996  1.5248  0.4833  1.5146
   82SLPC   H7S 7685  -0.158   6.202   3.964  0.4535  0.3453 -2.4563
   82SLPC   C28 7686   0.006   6.276   4.094 -0.2950  0.9389 -0.5500
   82SLPC   H8R 7687  -0.008   6.383   4.070 -1.5913  1.5578  2.4859
   82SLPC   H8S 7688   0.114   6.255   4.107 -0.1132  0.3396 -2.5691
   82SLPC   C29 7689  -0.065   6.258   4.224 -0.1237 -0.6711 -0.6654
   82SLPC   H9R 7690  -0.092   6.153   4.243 -0.9319 -0.4426 -0.5223
   82SLPC  C210 7691  -0.114   6.344   4.322 -0.8884 -0.1850  0.9182
   82SLPC  H10R 7692  -0.163   6.303   4.412  0.8939 -3.8206  0.4200
   82SLPC  C211 7693  -0.102   6.493   4.316 -0.4309  0.1637  0.1924
   82SLPC  H11R 7694  -0.155   6.542   4.232  1.3594  1.1300 -0.4263
   82SLPC  H11S 7695   0.002   6.522   4.291  0.3398 -0.4682  2.3942
   82SLPC  C212 7696  -0.138   6.559   4.445  0.4507  0.9924  0.0184
   82SLPC  H12R 7697  -0.052   6.566   4.514 -1.4079 -2.0224  2.9770
   82SLPC  C213 7698  -0.262   6.599   4.486 -0.2213  0.0592 -0.1532
   82SLPC  H13R 7699  -0.276   6.632   4.590 -0.8986  0.2145 -0.2928
   82SLPC  C214 7700  -0.387   6.592   4.405  0.1351 -0.6044  0.1541
   82SLPC  H14R 7701  -0.380   6.572   4.296  1.6225  2.3024 -0.3737
   82SLPC  H14S 7702  -0.437   6.689   4.422 -1.4935 -1.0439 -1.7085
   82SLPC  C215 7703  -0.501   6.497   4.461 -0.4779 -0.5902 -0.1145
   82SLPC  H15R 7704  -0.598   6.520   4.411 -1.7315 -0.6722  2.1529
   82SLPC  H15S 7705  -0.513   6.524   4.568  0.1189 -1.2207  0.1181
   82SLPC  C216 7706  -0.456   6.351   4.443  0.3359  0.9318 -0.5842
   82SLPC  H16R 7707  -0.371   6.316   4.506 -0.6368 -1.9586 -0.6914
   82SLPC  H16S 7708  -0.425   6.348   4.337 -0.8410 -0.6901 -0.9228
   82SLPC  C217 7709  -0.572   6.259   4.483 -0.2121  0.6958  0.0294
   82SLPC  H17R 7710  -0.549   6.156   4.448  1.9924  0.9536  0.5843
   82SLPC  H17S 7711  -0.659   6.295   4.423 -0.6732 -1.0510 -0.4105
   82SLPC  C218 7712  -0.626   6.270   4.628 -0.1866 -0.4687  0.1698
   82SLPC  H18R 7713  -0.707   6.196   4.646 -0.0353 -0.2745  1.8083
   82SLPC  H18S 7714  -0.668   6.372   4.640 -2.3412 -1.2982  0.1503
   82SLPC  H18T 7715  -0.539   6.252   4.695  0.8364  0.4965 -0.8721
   82SLPC   C33 7716  -0.412   6.513   3.265 -0.7781 -0.4976 -0.0410
   82SLPC   H3X 7717  -0.393   6.599   3.198 -0.2712 -1.6020 -1.3591
   82SLPC   H3Y 7718  -0.363   6.532   3.362  0.1306 -0.8085 -0.4304
   82SLPC   C34 7719  -0.560   6.526   3.283  0.1907  0.1325  0.3223
   82SLPC   H4X 7720  -0.585   6.465   3.373 -1.1179  1.7137  1.1015
   82SLPC   H4Y 7721  -0.612   6.488   3.193  0.2952 -1.7129  1.0077
   82SLPC   C35 7722  -0.616   6.663   3.330 -0.0408 -0.7392 -0.5782
   82SLPC   H5X 7723  -0.575   6.739   3.260  0.3507 -0.5424 -0.1442
   82SLPC   H5Y 7724  -0.572   6.692   3.428 -1.9744  0.4553  0.0034
   82SLPC   C36 7725  -0.765   6.666   3.337 -0.2726  0.0745 -0.4025
   82SLPC   H6X 7726  -0.790   6.571   3.389  1.1209 -0.2473 -0.2638
   82SLPC   H6Y 7727  -0.817   6.671   3.239 -2.5864  1.5261  0.8089
   82SLPC   C37 7728  -0.814   6.789   3.419  0.1883  0.2327 -0.0411
   82SLPC   H7X 7729  -0.924   6.795   3.405 -0.0910 -1.0099  1.3805
   82SLPC   H7Y 7730  -0.761   6.882   3.389 -0.2190  1.0734  1.7145
   82SLPC   C38 7731  -0.795   6.783   3.576 -0.1705 -0.0142  0.2441
   82SLPC   H8X 7732  -0.689   6.764   3.601 -0.1644 -0.9459 -0.4632
   82SLPC   H8Y 7733  -0.863   6.703   3.611 -0.3624 -0.0687 -0.2379
   82SLPC   C39 7734  -0.831   6.915   3.648 -0.1067  0.4195 -0.5008
   82SLPC   H9X 7735  -0.933   6.945   3.615  0.2338  3.1297  0.6605
   82SLPC   H9Y 7736  -0.762   6.998   3.620  0.5755  0.1631  0.3694
   82SLPC  C310 7737  -0.836   6.891   3.799  0.0248 -0.2835 -0.3941
   82SLPC  H10X 7738  -0.748   6.841   3.844  0.2931  0.5792  0.0755
   82SLPC  H10Y 7739  -0.923   6.824   3.815  1.7303 -3.1446 -2.2951
   82SLPC  C311 7740  -0.858   7.019   3.869 -0.0806 -0.7390  0.7729
   82SLPC  H11X 7741  -0.935   7.069   3.807 -0.7140 -2.0618  0.4511
   82SLPC  H11Y 7742  -0.767   7.080   3.883  0.7068 -1.4549 -0.9732
   82SLPC  C312 7743  -0.924   7.012   4.005  0.6020  0.0644  0.0884
   82SLPC  H12X 7744  -0.853   6.944   4.056  1.0225 -0.0698 -0.6571
   82SLPC  H12Y 7745  -1.022   6.960   3.997  0.5158 -0.2495  2.4477
   82SLPC  C313 7746  -0.938   7.157   4.060  0.5588  0.6637 -0.1060
   82SLPC  H13X 7747  -0.990   7.217   3.982  1.2374 -0.9171 -1.8425
   82SLPC  H13Y 7748  -0.834   7.196   4.069  1.5155 -1.6882 -0.2349
   82SLPC  C314 7749  -1.016   7.191   4.187 -0.6317  0.7442 -0.4751
   82SLPC  H14X 7750  -1.027   7.301   4.192  0.9852  0.9180 -0.2096
   82SLPC  H14Y 7751  -0.964   7.142   4.273  1.3128  0.3130 -1.8331
   82SLPC  C315 7752  -1.162   7.137   4.182  0.1057  0.0427  0.2293
   82SLPC  H15X 7753  -1.156   7.027   4.174  2.2375  0.1162  0.2751
   82SLPC  H15Y 7754  -1.213   7.173   4.090 -1.1195 -1.4263  0.2861
   82SLPC  C316 7755  -1.241   7.176   4.300  0.3063  0.1193 -0.6652
   82SLPC  H16X 7756  -1.342   7.212   4.271  0.5825  1.9358  0.4449
   82SLPC  H16Y 7757  -1.187   7.258   4.353 -1.4768  3.8242 -4.0180
   82SLPC  C317 7758  -1.244   7.064   4.414 -0.5706 -0.1500  0.2190
   82SLPC  H17X 7759  -1.140   7.040   4.444 -0.0004  0.6568 -1.0126
   82SLPC  H17Y 7760  -1.298   6.974   4.378 -0.5439 -0.4474  0.9226
   82SLPC  C318 7761  -1.305   7.113   4.543  0.8824 -0.0760  0.7591
   82SLPC  H18X 7762  -1.281   7.039   4.622 -0.6176 -1.5027 -0.0485
   82SLPC  H18Y 7763  -1.416   7.120   4.549  0.9740  1.1084  1.3613
   82SLPC  H18Z 7764  -1.255   7.203   4.583 -0.2431 -0.1119  2.3272
   83SLPC     N 7765   1.614   1.760   2.735  0.5320 -0.1511  0.5190
   83SLPC   C13 7766   1.685   1.874   2.666  0.0500  0.0167  0.2323
   83SLPC  H13A 7767   1.635   1.967   2.687 -1.6231 -1.3312  2.6337
   83SLPC  H13B 7768   1.788   1.871   2.696  1.5257 -1.2697 -4.1567
   83SLPC  H13C 7769   1.691   1.860   2.559  0.6175 -1.6418  0.4612
   83SLPC   C14 7770   1.466   1.747   2.692  0.0883 -0.4615 -0.1279
   83SLPC  H14A 7771   1.408   1.697   2.769  1.7137 -1.4426  0.5063
   83SLPC  H14B 7772   1.432   1.845   2.664  0.5379 -1.1110 -3.4128
   83SLPC  H14C 7773   1.459   1.691   2.600 -1.6534  1.8126 -1.4926
   83SLPC   C15 7774   1.627   1.795   2.875  0.1045 -0.1739  0.3940
   83SLPC  H15A 7775   1.581   1.890   2.899  0.6365  0.3105 -0.4482
   83SLPC  H15B 7776   1.592   1.726   2.950  1.1707  0.6072  1.6642
   83SLPC  H15C 7777   1.733   1.802   2.896  0.4179 -1.0053 -0.7738
   83SLPC   C12 7778   1.691   1.633   2.701 -0.5691 -0.3387  0.4522
   83SLPC  H12A 7779   1.651   1.550   2.756  2.4635 -1.9356  0.4687
   83SLPC  H12B 7780   1.791   1.646   2.740 -1.2374  3.6833  1.2977
   83SLPC   C11 7781   1.716   1.580   2.557 -0.7909  0.0062  0.2006
   83SLPC  H11A 7782   1.780   1.490   2.565 -0.3417  0.2833 -0.1601
   83SLPC  H11B 7783   1.768   1.662   2.502 -0.3571 -1.7637 -2.1895
   83SLPC     P 7784   1.506   1.431   2.507  0.0577 -0.5666  0.2168
   83SLPC   O13 7785   1.369   1.473   2.484 -0.3884  0.2232  0.0524
   83SLPC   O14 7786   1.574   1.334   2.416  0.3793  0.9453 -0.2330
   83SLPC   O12 7787   1.592   1.565   2.487  0.1975  0.1156  0.3000
   83SLPC   O11 7788   1.522   1.380   2.658  0.0758  0.5968  0.2558
   83SLPC    C1 7789   1.471   1.256   2.698  0.4788  0.2266 -0.3872
   83SLPC    HA 7790   1.471   1.185   2.613 -0.9275  0.5888 -0.7051
   83SLPC    HB 7791   1.539   1.226   2.781 -0.5330  2.4629  1.3691
   83SLPC    C2 7792   1.323   1.271   2.742 -0.4769 -1.3326  0.3624
   83SLPC    HS 7793   1.266   1.321   2.661  2.4927  1.0152 -0.4390
   83SLPC   O21 7794   1.325   1.361   2.855  0.5332 -0.6314 -0.2762
   83SLPC   C21 7795   1.205   1.379   2.911 -0.0724 -0.5210  0.6703
   83SLPC   O22 7796   1.095   1.340   2.877  0.2611  0.0900 -0.1837
   83SLPC   C22 7797   1.227   1.476   3.024 -0.1972 -0.3304  0.0875
   83SLPC   H2R 7798   1.323   1.468   3.079  0.2798  0.2897 -0.6319
   83SLPC   H2S 7799   1.240   1.576   2.978  2.9389 -1.5207 -1.9631
   83SLPC    C3 7800   1.258   1.132   2.774 -0.2440  0.8132 -0.5669
   83SLPC    HX 7801   1.278   1.067   2.687 -2.2688 -1.6201  0.6779
   83SLPC    HY 7802   1.150   1.130   2.799 -0.1661 -0.3762 -0.2962
   83SLPC   O31 7803   1.325   1.083   2.887  0.4767  0.0819  0.2492
   83SLPC   C31 7804   1.402   0.977   2.885  0.3448 -0.1318  0.3063
   83SLPC   O32 7805   1.415   0.907   2.783 -0.0999  0.0063  0.0230
   83SLPC   C32 7806   1.466   0.955   3.023 -0.2136 -0.2164  0.5553
   83SLPC   H2X 7807   1.386   0.987   3.093  1.5180  3.0993  1.2370
   83SLPC   H2Y 7808   1.539   1.039   3.031 -0.5437  0.4458 -2.3855
   83SLPC   C23 7809   1.120   1.487   3.127  0.2668 -0.6657  0.3805
   83SLPC   H3R 7810   1.116   1.387   3.176 -0.8803  0.0801  1.8914
   83SLPC   H3S 7811   1.023   1.494   3.074  1.2659  0.2322 -1.4251
   83SLPC   C24 7812   1.147   1.599   3.227 -0.2720  0.3645 -0.1515
   83SLPC   H4R 7813   1.110   1.701   3.203 -2.8473 -0.5332 -0.2667
   83SLPC   H4S 7814   1.258   1.611   3.219 -0.1836 -0.3326 -0.0086
   83SLPC   C25 7815   1.112   1.566   3.378  0.6071  0.2453  0.0296
   83SLPC   H5R 7816   1.137   1.458   3.385  1.5717 -0.0232 -4.6517
   83SLPC   H5S 7817   1.001   1.566   3.381  0.6112  0.5485  0.3003
   83SLPC   C26 7818   1.169   1.655   3.494 -0.1498  0.0639 -0.5232
   83SLPC   H6R 7819   1.122   1.755   3.490 -0.1803  0.0156 -3.9152
   83SLPC   H6S 7820   1.279   1.671   3.487 -0.2650  2.0155  1.1437
   83SLPC   C27 7821   1.149   1.599   3.631  0.0452  0.8026 -0.1565
   83SLPC   H7R 7822   1.213   1.658   3.700 -0.7837  1.0175  0.4382
   83SLPC   H7S 7823   1.183   1.493   3.626 -2.0216  0.1082 -0.5833
   83SLPC   C28 7824   1.002   1.609   3.682 -0.1109 -0.1288  0.6303
   83SLPC   H8R 7825   1.018   1.568   3.785  1.0560  1.0915  0.9576
   83SLPC   H8S 7826   0.948   1.524   3.635  2.3489 -1.3189 -0.2503
   83SLPC   C29 7827   0.917   1.729   3.662  0.2881 -0.2541  0.9025
   83SLPC   H9R 7828   0.896   1.762   3.559  0.0261 -1.0661  0.6905
   83SLPC  C210 7829   0.877   1.819   3.753 -0.5884  0.1942 -0.0761
   83SLPC  H10R 7830   0.821   1.898   3.702 -0.1879 -0.6286 -1.9218
   83SLPC  C211 7831   0.907   1.817   3.897  0.4411 -0.3734 -0.7766
   83SLPC  H11R 7832   0.877   1.719   3.940 -0.9488 -0.1192 -1.1248
   83SLPC  H11S 7833   0.834   1.883   3.949  1.9660  1.3256 -0.6940
   83SLPC  C212 7834   1.049   1.847   3.950  0.4090  0.4374  0.5025
   83SLPC  H12R 7835   1.131   1.840   3.877  1.7210  0.8993  1.8590
   83SLPC  C213 7836   1.085   1.850   4.076  0.5830  0.4493 -1.1732
   83SLPC  H13R 7837   1.189   1.872   4.104  0.2082  1.0577 -0.1908
   83SLPC  C214 7838   0.985   1.843   4.193 -0.1267 -0.6995  0.6147
   83SLPC  H14R 7839   0.888   1.800   4.159 -0.2448  1.0813 -1.5301
   83SLPC  H14S 7840   0.960   1.947   4.226  1.8182  0.0957 -0.2605
   83SLPC  C215 7841   1.060   1.785   4.312  0.2973 -0.7564 -0.6097
   83SLPC  H15R 7842   1.163   1.826   4.321 -0.1256  1.1636 -3.2133
   83SLPC  H15S 7843   1.061   1.675   4.293 -1.7876 -1.1002  0.8994
   83SLPC  C216 7844   0.993   1.810   4.441  1.1243  0.4240  0.1420
   83SLPC  H16R 7845   0.893   1.762   4.440  0.2658  2.1610 -0.0108
   83SLPC  H16S 7846   0.976   1.919   4.442 -0.6114  0.2505 -1.8730
   83SLPC  C217 7847   1.065   1.781   4.572 -0.2234 -0.4039 -0.2210
   83SLPC  H17R 7848   1.072   1.671   4.581 -3.4588 -0.7603 -0.9578
   83SLPC  H17S 7849   1.005   1.803   4.663 -2.2912 -0.6732 -1.4686
   83SLPC  C218 7850   1.208   1.841   4.581 -0.1793 -0.0762 -0.1947
   83SLPC  H18R 7851   1.246   1.845   4.685  1.0902 -2.4706 -0.4876
   83SLPC  H18S 7852   1.211   1.948   4.553 -0.1052 -0.3335 -1.2161
   83SLPC  H18T 7853   1.275   1.782   4.514 -1.3002  0.6503 -2.0116
   83SLPC   C33 7854   1.534   0.821   3.046  0.4156  0.3550  0.0332
   83SLPC   H3X 7855   1.597   0.787   2.961 -1.4375 -1.8032 -0.5701
   83SLPC   H3Y 7856   1.452   0.746   3.045  0.8252 -0.0967 -0.1317
   83SLPC   C34 7857   1.605   0.821   3.179  0.3992 -0.3277  0.2535
   83SLPC   H4X 7858   1.686   0.898   3.176  1.2835 -1.2447 -2.1754
   83SLPC   H4Y 7859   1.638   0.716   3.194  0.4049 -0.3678 -0.0399
   83SLPC   C35 7860   1.509   0.836   3.299  0.1572  0.1474  0.2577
   83SLPC   H5X 7861   1.465   0.735   3.317 -0.2629  0.6810  2.5478
   83SLPC   H5Y 7862   1.441   0.920   3.276  2.1827  1.7672 -0.1610
   83SLPC   C36 7863   1.591   0.868   3.430 -0.6816 -0.2948  0.0242
   83SLPC   H6X 7864   1.645   0.964   3.415  0.3701 -0.8863 -0.0564
   83SLPC   H6Y 7865   1.669   0.789   3.439  1.3508  1.6362  0.5580
   83SLPC   C37 7866   1.504   0.869   3.558 -0.5736  0.7808 -0.2401
   83SLPC   H7X 7867   1.449   0.772   3.566 -0.8680  0.9921  0.3259
   83SLPC   H7Y 7868   1.429   0.951   3.549 -0.5129  0.6705 -2.3745
   83SLPC   C38 7869   1.588   0.896   3.677 -0.1506 -0.3264 -0.4757
   83SLPC   H8X 7870   1.650   0.984   3.651  0.2083 -0.3306  0.3297
   83SLPC   H8Y 7871   1.657   0.816   3.711  0.5953  0.3865 -0.2717
   83SLPC   C39 7872   1.499   0.937   3.804  0.0892  0.5541 -0.0883
   83SLPC   H9X 7873   1.425   1.015   3.773  0.2908  0.6379 -0.3698
   83SLPC   H9Y 7874   1.571   0.977   3.879  0.5303 -1.0285  0.3605
   83SLPC  C310 7875   1.430   0.818   3.867 -1.3013 -0.1408 -0.0326
   83SLPC  H10X 7876   1.500   0.731   3.862  0.1217  0.9464  0.2453
   83SLPC  H10Y 7877   1.346   0.797   3.797 -0.1290 -0.5524 -1.3813
   83SLPC  C311 7878   1.375   0.863   4.003 -0.6444  0.7673  0.7214
   83SLPC  H11X 7879   1.284   0.801   4.018  0.1270 -1.4543 -2.7285
   83SLPC  H11Y 7880   1.350   0.972   4.001  0.5693  1.0440 -0.6718
   83SLPC  C312 7881   1.483   0.841   4.111  0.4196 -0.2822 -0.0567
   83SLPC  H12X 7882   1.584   0.866   4.071  1.8933 -2.8106  1.7420
   83SLPC  H12Y 7883   1.495   0.735   4.142  1.4423 -0.9089 -2.3617
   83SLPC  C313 7884   1.465   0.932   4.233  0.9010  0.0939  0.0620
   83SLPC  H13X 7885   1.470   1.039   4.203 -0.2066 -0.2202 -1.3537
   83SLPC  H13Y 7886   1.556   0.913   4.295  0.8257  0.9034  0.4338
   83SLPC  C314 7887   1.340   0.898   4.322 -0.3696  0.2258 -0.5403
   83SLPC  H14X 7888   1.361   0.807   4.382 -2.3209  1.2942  1.9672
   83SLPC  H14Y 7889   1.257   0.862   4.257 -2.3003  0.7703  1.4896
   83SLPC  C315 7890   1.292   1.009   4.421  0.1453 -0.5099  0.2705
   83SLPC  H15X 7891   1.216   1.076   4.375 -1.1765 -0.6336  2.1843
   83SLPC  H15Y 7892   1.375   1.077   4.449  0.1462  0.1239 -1.1751
   83SLPC  C316 7893   1.227   0.950   4.544 -0.2006  0.7987 -0.0434
   83SLPC  H16X 7894   1.299   0.877   4.587  3.4363  4.5331  0.9788
   83SLPC  H16Y 7895   1.132   0.899   4.517  0.2762 -1.0642  1.5556
   83SLPC  C317 7896   1.197   1.059   4.652  0.3730 -0.2069  0.1549
   83SLPC  H17X 7897   1.142   1.148   4.615  0.0397 -0.5334 -0.1328
   83SLPC  H17Y 7898   1.299   1.093   4.681 -0.7659  1.7097  2.2777
   83SLPC  C318 7899   1.135   1.005   4.781  0.0499 -0.5050  0.1308
   83SLPC  H18X 7900   1.203   0.919   4.801  3.7606  1.7107 -1.8057
   83SLPC  H18Y 7901   1.028   0.981   4.767 -0.1718  0.4309  0.1322
   83SLPC  H18Z 7902   1.141   1.075   4.867 -0.3323 -1.5896  1.0516
   84SLPC     N 7903   4.306   4.422   2.708  0.2421 -0.0396  0.9319
   84SLPC   C13 7904   4.263   4.423   2.850  0.3521 -0.2667 -0.0606
   84SLPC  H13A 7905   4.212   4.333   2.881 -0.0755  0.1383  0.4342
   84SLPC  H13B 7906   4.354   4.424   2.908  0.0826 -1.7484  0.4391
   84SLPC  H13C 7907   4.212   4.517   2.861  1.6512  0.3721  0.7931
   84SLPC   C14 7908   4.386   4.304   2.671  0.7064 -0.4783  0.8052
   84SLPC  H14A 7909   4.328   4.219   2.705  1.5634 -1.7701 -0.8194
   84SLPC  H14B 7910   4.409   4.298   2.566  0.5149  0.4373  0.6970
   84SLPC  H14C 7911   4.484   4.302   2.715  0.5793  2.4292  1.4427
   84SLPC   C15 7912   4.408   4.538   2.704 -0.1781  0.5551 -0.1930
   84SLPC  H15A 7913   4.503   4.503   2.743  0.5621  0.6970 -1.8102
   84SLPC  H15B 7914   4.421   4.574   2.603 -1.8347 -1.0336 -1.0232
   84SLPC  H15C 7915   4.369   4.619   2.765 -0.4032 -0.4071  0.9873
   84SLPC   C12 7916   4.184   4.440   2.611 -0.1925  0.1046 -0.8289
   84SLPC  H12A 7917   4.210   4.424   2.507 -1.0125  0.1315 -1.0413
   84SLPC  H12B 7918   4.145   4.539   2.624  0.7175  0.3790 -0.1142
   84SLPC   C11 7919   4.067   4.338   2.629 -0.3723 -0.8141  0.5001
   84SLPC  H11A 7920   4.111   4.236   2.634  0.7895 -0.3519 -0.0784
   84SLPC  H11B 7921   3.998   4.331   2.542  0.6505  0.5508 -0.4591
   84SLPC     P 7922   3.913   4.500   2.758  0.1719  0.1572 -0.3217
   84SLPC   O13 7923   3.978   4.621   2.709 -0.1634 -0.2320 -0.3299
   84SLPC   O14 7924   3.774   4.473   2.708 -0.4800  0.1105 -0.0798
   84SLPC   O12 7925   3.998   4.368   2.750  0.1457  0.2585 -0.3868
   84SLPC   O11 7926   3.903   4.518   2.915  0.7158  0.6186 -0.3672
   84SLPC    C1 7927   3.934   4.401   2.993 -0.5199  0.7759 -0.3017
   84SLPC    HA 7928   3.903   4.302   2.954 -0.0085 -0.6141  2.5860
   84SLPC    HB 7929   4.039   4.408   3.030 -0.5323  1.9014 -0.4314
   84SLPC    C2 7930   3.861   4.415   3.132  0.2232  0.6232 -0.2332
   84SLPC    HS 7931   3.903   4.503   3.184 -1.4983  0.0806  2.2643
   84SLPC   O21 7932   3.885   4.293   3.204  0.0704  0.0835  0.2119
   84SLPC   C21 7933   3.993   4.291   3.272 -0.3783 -0.9382  0.0341
   84SLPC   O22 7934   4.069   4.382   3.290  0.4624 -0.2469 -0.6679
   84SLPC   C22 7935   4.011   4.149   3.327  0.3356 -0.7317 -0.2753
   84SLPC   H2R 7936   3.907   4.107   3.329  0.2688 -0.5816 -0.6154
   84SLPC   H2S 7937   4.075   4.090   3.258 -0.1068  0.5876 -1.8799
   84SLPC    C3 7938   3.712   4.443   3.116  0.7150  0.3842 -0.3434
   84SLPC    HX 7939   3.678   4.367   3.042  0.7630  0.7481 -0.7384
   84SLPC    HY 7940   3.708   4.541   3.064 -0.9990  0.6078  0.1469
   84SLPC   O31 7941   3.629   4.441   3.233 -0.1592  0.1611 -0.1690
   84SLPC   C31 7942   3.582   4.320   3.263 -0.6129 -0.2154 -0.2393
   84SLPC   O32 7943   3.591   4.218   3.197 -1.1351 -0.1708 -0.1339
   84SLPC   C32 7944   3.523   4.337   3.403 -0.2762 -0.4921  0.1302
   84SLPC   H2X 7945   3.419   4.370   3.385  0.0208  0.1264 -0.5294
   84SLPC   H2Y 7946   3.577   4.411   3.466 -1.5613 -0.3685  1.1243
   84SLPC   C23 7947   4.079   4.148   3.467  0.0392 -0.3833 -0.1073
   84SLPC   H3R 7948   4.166   4.217   3.464  1.8441 -2.5888 -2.3465
   84SLPC   H3S 7949   4.108   4.045   3.494  2.1248  0.5933  1.5897
   84SLPC   C24 7950   3.978   4.189   3.583  0.7745  0.1946  0.5001
   84SLPC   H4R 7951   3.878   4.141   3.569 -1.1639  3.7558  1.0161
   84SLPC   H4S 7952   3.967   4.299   3.578 -0.5170  0.0448 -0.4842
   84SLPC   C25 7953   4.017   4.151   3.732 -0.1435 -0.0479 -0.2773
   84SLPC   H5R 7954   4.115   4.196   3.756  0.2079 -1.4143  0.9173
   84SLPC   H5S 7955   4.033   4.041   3.735  1.5408  0.1867  0.3356
   84SLPC   C26 7956   3.906   4.186   3.827  0.6088 -0.1713  0.0300
   84SLPC   H6R 7957   3.812   4.129   3.807  0.5240 -0.4159  1.0662
   84SLPC   H6S 7958   3.898   4.297   3.818  2.3519 -0.0871 -0.6997
   84SLPC   C27 7959   3.931   4.158   3.979  0.6705 -0.4275 -0.2154
   84SLPC   H7R 7960   3.937   4.049   4.000  0.1048 -0.1740  1.4363
   84SLPC   H7S 7961   3.842   4.206   4.025 -0.3089 -1.0333 -1.4071
   84SLPC   C28 7962   4.063   4.225   4.041  0.2338  0.0157  0.2308
   84SLPC   H8R 7963   4.023   4.313   4.095  1.5020  0.1930  0.9175
   84SLPC   H8S 7964   4.120   4.262   3.954  0.1693  1.4481  0.7708
   84SLPC   C29 7965   4.139   4.126   4.130  0.1027 -0.6996  0.0626
   84SLPC   H9R 7966   4.080   4.111   4.221 -0.0228 -2.5801 -0.2769
   84SLPC  C210 7967   4.260   4.072   4.118  0.2596 -0.8214 -0.3496
   84SLPC  H10R 7968   4.278   3.994   4.193 -2.5000 -1.5179 -0.3147
   84SLPC  C211 7969   4.356   4.076   3.996  0.7332  0.4294  0.3509
   84SLPC  H11R 7970   4.302   4.108   3.905  0.1983 -1.9628 -0.2478
   84SLPC  H11S 7971   4.383   3.972   3.968  1.8904  1.1245 -1.2862
   84SLPC  C212 7972   4.484   4.158   4.009  0.5144 -0.4123 -0.0114
   84SLPC  H12R 7973   4.470   4.262   3.976 -0.1405 -0.0306  1.3961
   84SLPC  C213 7974   4.592   4.124   4.082  0.4836  0.1015  0.6820
   84SLPC  H13R 7975   4.680   4.189   4.071  0.9214 -0.3590  1.3425
   84SLPC  C214 7976   4.613   3.991   4.154  0.5276  0.1287  0.6809
   84SLPC  H14R 7977   4.703   3.938   4.117  0.2604 -0.0507  0.2843
   84SLPC  H14S 7978   4.527   3.923   4.133 -1.5861  1.7468  3.2774
   84SLPC  C215 7979   4.635   4.003   4.300 -0.2377  0.2004 -0.9133
   84SLPC  H15R 7980   4.558   4.057   4.360 -1.1946 -0.0303 -1.8970
   84SLPC  H15S 7981   4.730   4.056   4.321  0.4394 -1.9194  2.0369
   84SLPC  C216 7982   4.633   3.860   4.357 -0.0111 -0.2438 -0.4233
   84SLPC  H16R 7983   4.641   3.873   4.467  0.8270 -0.9734 -0.3878
   84SLPC  H16S 7984   4.717   3.805   4.311 -0.0215  0.1979 -0.9813
   84SLPC  C217 7985   4.505   3.778   4.335 -0.0352 -0.0171 -0.1996
   84SLPC  H17R 7986   4.508   3.716   4.243 -1.1375 -0.0465 -0.2288
   84SLPC  H17S 7987   4.416   3.843   4.329 -0.7187 -0.8833  0.2987
   84SLPC  C218 7988   4.484   3.673   4.448 -0.2642 -0.4483 -0.3098
   84SLPC  H18R 7989   4.568   3.601   4.453 -0.0194 -0.1309  0.3447
   84SLPC  H18S 7990   4.396   3.610   4.424 -1.1062  1.4396 -2.6561
   84SLPC  H18T 7991   4.480   3.726   4.546  0.7669 -3.1790  1.3170
   84SLPC   C33 7992   3.491   4.204   3.470 -0.3360  0.9736  0.4386
   84SLPC   H3X 7993   3.581   4.140   3.472 -2.2341 -1.9331 -0.3838
   84SLPC   H3Y 7994   3.419   4.150   3.404  2.4485 -0.2341 -1.7856
   84SLPC   C34 7995   3.434   4.214   3.609  0.2195  0.5037  1.0786
   84SLPC   H4X 7996   3.424   4.323   3.626 -1.1139  0.5116  0.4338
   84SLPC   H4Y 7997   3.510   4.176   3.680 -0.1345 -2.9159 -0.1758
   84SLPC   C35 7998   3.299   4.157   3.640  0.2048 -0.0964  0.4535
   84SLPC   H5X 7999   3.302   4.049   3.617  1.0195  0.2133 -1.0496
   84SLPC   H5Y 8000   3.227   4.201   3.568  2.5293  0.8503 -1.4565
   84SLPC   C36 8001   3.241   4.181   3.790 -0.5138 -0.6660  0.0749
   84SLPC   H6X 8002   3.318   4.135   3.856 -0.7935 -3.3570 -1.3308
   84SLPC   H6Y 8003   3.152   4.116   3.805  1.4063 -2.9824  2.1441
   84SLPC   C37 8004   3.236   4.329   3.836  0.4550  0.8315  0.1835
   84SLPC   H7X 8005   3.173   4.384   3.763 -0.6197  1.9112  1.8517
   84SLPC   H7Y 8006   3.339   4.368   3.822  0.8628 -0.1585  0.3270
   84SLPC   C38 8007   3.196   4.341   3.986  0.1161 -0.0969  0.1489
   84SLPC   H8X 8008   3.202   4.237   4.024  1.1492 -0.1415 -0.1049
   84SLPC   H8Y 8009   3.089   4.367   3.977  0.3087  0.2691 -1.2795
   84SLPC   C39 8010   3.273   4.441   4.070 -0.5895 -0.1202 -0.0994
   84SLPC   H9X 8011   3.313   4.515   3.998  1.5901 -2.3284 -1.3137
   84SLPC   H9Y 8012   3.366   4.398   4.113 -0.7783  0.1737  0.6299
   84SLPC  C310 8013   3.175   4.496   4.182 -0.4247  0.6730  0.2604
   84SLPC  H10X 8014   3.092   4.543   4.124  0.4674  0.2075 -1.4448
   84SLPC  H10Y 8015   3.219   4.561   4.260  1.3419  0.0463 -0.1695
   84SLPC  C311 8016   3.108   4.382   4.270  0.4096 -0.1669  1.0093
   84SLPC  H11X 8017   3.181   4.322   4.329  2.5440  0.6614 -0.6615
   84SLPC  H11Y 8018   3.054   4.312   4.202  0.6565  0.2871  0.3285
   84SLPC  C312 8019   3.005   4.446   4.371  0.7978  0.3667  0.3827
   84SLPC  H12X 8020   2.950   4.358   4.411  0.0322  0.0998 -1.1784
   84SLPC  H12Y 8021   2.935   4.510   4.313  0.0614  0.9332  1.8462
   84SLPC  C313 8022   3.053   4.533   4.485 -0.2758 -0.4676  0.0063
   84SLPC  H13X 8023   3.121   4.608   4.439  1.2075 -1.9442 -0.3026
   84SLPC  H13Y 8024   3.110   4.474   4.560  1.0212 -0.1065 -0.6591
   84SLPC  C314 8025   2.937   4.604   4.556  0.2789  0.7313 -0.2809
   84SLPC  H14X 8026   2.870   4.528   4.601  0.4751  0.6943 -0.0459
   84SLPC  H14Y 8027   2.868   4.652   4.483 -3.0747  1.4472  3.0218
   84SLPC  C315 8028   2.972   4.703   4.667  0.4552  0.3475 -0.1738
   84SLPC  H15X 8029   2.871   4.748   4.680 -2.5198 -5.4862  0.4466
   84SLPC  H15Y 8030   3.041   4.779   4.625 -0.4691  0.5912 -1.3154
   84SLPC  C316 8031   3.032   4.638   4.796 -0.0698  0.6309  0.4458
   84SLPC  H16X 8032   3.137   4.613   4.771 -0.4301 -0.7183  0.2094
   84SLPC  H16Y 8033   2.979   4.543   4.819  1.3343 -0.5530 -0.9600
   84SLPC  C317 8034   3.059   4.742   4.904  0.4616 -0.3573  0.4240
   84SLPC  H17X 8035   3.107   4.825   4.849 -0.6004 -0.0002  0.0101
   84SLPC  H17Y 8036   3.128   4.713   4.986 -0.3792  1.6817  1.9294
   84SLPC  C318 8037   2.937   4.791   4.984  1.3581 -0.4139  0.2216
   84SLPC  H18X 8038   2.854   4.831   4.923  0.4997  0.4863  1.9100
   84SLPC  H18Y 8039   2.964   4.856   5.070  0.5499 -2.8216  2.4410
   84SLPC  H18Z 8040   2.891   4.706   5.039  0.0868  0.2173  0.1779
   85SLPC     N 8041   5.940   3.447   2.185  0.3726 -0.1685 -0.4930
   85SLPC   C13 8042   6.047   3.513   2.100  0.0331  0.1483 -0.9824
   85SLPC  H13A 8043   6.070   3.436   2.028 -0.9887 -0.4408 -0.7027
   85SLPC  H13B 8044   6.008   3.604   2.058  1.2415  1.4577  0.6047
   85SLPC  H13C 8045   6.131   3.542   2.161 -0.8742  2.6614 -0.7978
   85SLPC   C14 8046   5.980   3.313   2.225 -0.5288  0.4375  0.3754
   85SLPC  H14A 8047   6.030   3.261   2.144 -0.7107 -1.1328  1.2240
   85SLPC  H14B 8048   6.045   3.315   2.312  0.3466 -0.8885 -0.2129
   85SLPC  H14C 8049   5.892   3.263   2.263 -0.1180 -0.9860 -0.4744
   85SLPC   C15 8050   5.816   3.431   2.094  0.3731 -0.1231  0.3809
   85SLPC  H15A 8051   5.731   3.385   2.143 -0.3424  2.4237  1.6992
   85SLPC  H15B 8052   5.771   3.515   2.043 -0.9249 -1.0750 -0.0908
   85SLPC  H15C 8053   5.841   3.370   2.008 -0.2317 -2.1592  1.5664
   85SLPC   C12 8054   5.898   3.525   2.308  0.1369 -0.4685  0.1955
   85SLPC  H12A 8055   5.803   3.496   2.352  0.2058 -1.1603 -0.0934
   85SLPC  H12B 8056   5.874   3.621   2.267 -1.1231 -0.2578  1.3506
   85SLPC   C11 8057   5.994   3.548   2.430  0.5818  0.0859 -0.2896
   85SLPC  H11A 8058   5.958   3.640   2.481 -0.2877 -0.4206  0.0270
   85SLPC  H11B 8059   6.090   3.571   2.379  2.4392 -1.8116  2.1408
   85SLPC     P 8060   5.890   3.366   2.596 -0.7627 -0.5106 -0.1076
   85SLPC   O13 8061   5.763   3.357   2.521 -0.6030 -0.3206  0.0637
   85SLPC   O14 8062   5.937   3.242   2.664  0.0449 -0.6063  0.1967
   85SLPC   O12 8063   6.003   3.423   2.504 -0.3983  0.1916 -0.0579
   85SLPC   O11 8064   5.876   3.478   2.696 -0.0231 -0.1371  0.5004
   85SLPC    C1 8065   5.967   3.496   2.803  0.4187 -0.6757  0.4130
   85SLPC    HA 8066   6.069   3.460   2.778  1.7999  4.2292 -2.2418
   85SLPC    HB 8067   5.980   3.604   2.826 -2.9035 -0.5329  2.2588
   85SLPC    C2 8068   5.917   3.441   2.935  0.6046  0.1205 -0.0355
   85SLPC    HS 8069   5.881   3.337   2.915 -1.8573  0.5435  1.6469
   85SLPC   O21 8070   5.805   3.521   2.981 -0.3910  0.1274 -0.2707
   85SLPC   C21 8071   5.725   3.462   3.073  0.2399 -0.1996  0.4321
   85SLPC   O22 8072   5.737   3.351   3.116 -0.0902 -0.2127  0.4305
   85SLPC   C22 8073   5.623   3.563   3.127 -0.0203  0.1138  0.3302
   85SLPC   H2R 8074   5.651   3.669   3.108 -1.6882  0.5842  0.3720
   85SLPC   H2S 8075   5.530   3.555   3.067 -0.0626 -0.0420  0.4165
   85SLPC    C3 8076   6.037   3.440   3.033  0.2520  0.0600  0.2726
   85SLPC    HX 8077   6.061   3.547   3.050  0.9067 -0.1058  0.4301
   85SLPC    HY 8078   6.120   3.384   2.984  0.7999  1.5378 -0.5498
   85SLPC   O31 8079   6.016   3.394   3.169  0.1826  0.1974  0.2467
   85SLPC   C31 8080   6.002   3.260   3.179 -0.6612 -0.5556 -0.7332
   85SLPC   O32 8081   6.014   3.178   3.092 -0.0179 -0.6362  0.1803
   85SLPC   C32 8082   5.974   3.229   3.320  0.6248 -0.6758 -0.1488
   85SLPC   H2X 8083   5.870   3.258   3.344 -0.1003 -3.2636  0.1726
   85SLPC   H2Y 8084   6.042   3.292   3.381  1.6042  1.6542 -3.3670
   85SLPC   C23 8085   5.578   3.520   3.273 -0.5805  0.7440 -0.1776
   85SLPC   H3R 8086   5.668   3.516   3.339  1.2174  0.2305 -2.4910
   85SLPC   H3S 8087   5.526   3.423   3.261  1.8414 -0.5137 -1.2052
   85SLPC   C24 8088   5.480   3.611   3.339 -0.0890 -0.3697 -0.2435
   85SLPC   H4R 8089   5.467   3.580   3.445 -3.6835  2.9341  0.5241
   85SLPC   H4S 8090   5.389   3.598   3.276 -0.8227 -0.1324  0.7316
   85SLPC   C25 8091   5.516   3.759   3.358  0.6176  0.7291  0.4400
   85SLPC   H5R 8092   5.621   3.794   3.365  0.5643  1.5185 -1.8097
   85SLPC   H5S 8093   5.472   3.815   3.272 -2.0454 -2.6474 -0.5956
   85SLPC   C26 8094   5.447   3.816   3.486  0.1364  0.1237 -0.2192
   85SLPC   H6R 8095   5.495   3.768   3.575 -2.0443 -0.8102  0.5244
   85SLPC   H6S 8096   5.339   3.790   3.494 -0.2722  1.6732 -0.4161
   85SLPC   C27 8097   5.449   3.971   3.497  0.2508  0.1541 -0.0763
   85SLPC   H7R 8098   5.398   4.013   3.408  0.6552 -0.0727 -0.4203
   85SLPC   H7S 8099   5.553   4.009   3.487 -0.6418  2.7724 -0.0554
   85SLPC   C28 8100   5.403   4.024   3.630  0.2875  0.8342  0.4225
   85SLPC   H8R 8101   5.292   4.014   3.633  0.2534 -0.0009 -1.7490
   85SLPC   H8S 8102   5.429   4.132   3.628  1.8446  0.4795 -1.1792
   85SLPC   C29 8103   5.481   3.974   3.750 -0.5225 -0.0171  0.0479
   85SLPC   H9R 8104   5.504   3.866   3.753 -0.4164  0.0040 -0.0270
   85SLPC  C210 8105   5.473   4.035   3.873  0.2663  0.0458  0.2302
   85SLPC  H10R 8106   5.534   3.998   3.957 -1.0960  1.8343  2.0898
   85SLPC  C211 8107   5.412   4.166   3.901 -0.9423  0.1764 -0.0939
   85SLPC  H11R 8108   5.354   4.150   3.994 -1.0921  1.5355  0.0646
   85SLPC  H11S 8109   5.341   4.194   3.820  0.0280  1.3902 -0.5582
   85SLPC  C212 8110   5.525   4.271   3.906  0.2979  0.0001  0.1780
   85SLPC  H12R 8111   5.535   4.329   3.813 -0.5554  3.0246  1.8524
   85SLPC  C213 8112   5.608   4.302   4.010 -0.2545  0.3033 -0.4725
   85SLPC  H13R 8113   5.684   4.382   4.008 -0.5112  0.5543 -0.3160
   85SLPC  C214 8114   5.603   4.225   4.135 -0.9790  0.0975  0.1474
   85SLPC  H14R 8115   5.603   4.114   4.123  1.9812 -0.1376  1.4581
   85SLPC  H14S 8116   5.500   4.238   4.175 -0.9769  0.9983 -0.1204
   85SLPC  C215 8117   5.705   4.270   4.234  0.0396 -0.0241 -1.1264
   85SLPC  H15R 8118   5.700   4.380   4.253  1.6405 -0.3331  1.7790
   85SLPC  H15S 8119   5.804   4.246   4.190  0.8564  1.6018 -0.2956
   85SLPC  C216 8120   5.691   4.217   4.375 -0.2522  0.8287 -0.0608
   85SLPC  H16R 8121   5.657   4.112   4.368  0.8070  0.4347  0.3841
   85SLPC  H16S 8122   5.614   4.270   4.435  0.0332  1.1806  0.0014
   85SLPC  C217 8123   5.827   4.234   4.456 -0.0767 -0.8827  0.8100
   85SLPC  H17R 8124   5.869   4.335   4.436 -0.3961 -0.8986  0.0024
   85SLPC  H17S 8125   5.905   4.171   4.408  0.8657  0.8953 -0.1290
   85SLPC  C218 8126   5.820   4.217   4.605  0.4403 -0.0192 -0.1665
   85SLPC  H18R 8127   5.759   4.292   4.659  1.2472 -0.5334  1.5638
   85SLPC  H18S 8128   5.920   4.218   4.654 -0.3526 -1.4340  1.6144
   85SLPC  H18T 8129   5.770   4.124   4.641  0.7467 -0.4211 -0.7657
   85SLPC   C33 8130   6.003   3.079   3.347  0.6848 -0.0523 -0.2080
   85SLPC   H3X 8131   6.098   3.044   3.303  0.1730 -2.2311  0.3273
   85SLPC   H3Y 8132   5.917   3.015   3.321 -0.9907  1.8480  0.3364
   85SLPC   C34 8133   6.017   3.056   3.497  0.4370  0.7437 -0.7245
   85SLPC   H4X 8134   5.921   3.083   3.546  1.1084  1.5166  0.1965
   85SLPC   H4Y 8135   6.092   3.119   3.549 -1.3892  1.5676  1.0452
   85SLPC   C35 8136   6.041   2.905   3.524 -0.4976 -0.3140 -0.4992
   85SLPC   H5X 8137   6.141   2.868   3.493  0.2289  2.8250 -2.3895
   85SLPC   H5Y 8138   5.963   2.851   3.467 -2.2106  3.0002 -1.5124
   85SLPC   C36 8139   5.997   2.863   3.667  0.4719 -0.2215 -0.1093
   85SLPC   H6X 8140   5.979   2.754   3.666  0.9123 -0.2911 -0.3912
   85SLPC   H6Y 8141   5.895   2.906   3.683 -1.3924 -2.1948 -5.0018
   85SLPC   C37 8142   6.106   2.906   3.776  1.1121 -0.4258  0.4296
   85SLPC   H7X 8143   6.205   2.935   3.734 -0.0532  2.6093 -0.4799
   85SLPC   H7Y 8144   6.103   2.833   3.859 -2.5314 -0.3220  0.5589
   85SLPC   C38 8145   6.062   3.033   3.847  0.5717 -0.1408  0.6436
   85SLPC   H8X 8146   5.957   3.027   3.882  0.3566  0.3063  0.0889
   85SLPC   H8Y 8147   6.056   3.120   3.778 -2.0366 -0.9774 -0.3180
   85SLPC   C39 8148   6.165   3.064   3.960  0.7316  0.9748 -0.2635
   85SLPC   H9X 8149   6.265   3.083   3.915  1.2896 -1.2592 -0.1100
   85SLPC   H9Y 8150   6.165   2.974   4.026  1.8928  0.7703 -0.5123
   85SLPC  C310 8151   6.136   3.183   4.054 -0.1206 -0.1892  0.2777
   85SLPC  H10X 8152   6.133   3.280   4.000 -1.0197 -0.1824  0.3141
   85SLPC  H10Y 8153   6.226   3.189   4.118  0.9641  0.0073 -1.2283
   85SLPC  C311 8154   6.008   3.181   4.147 -0.0715  0.2089 -0.2069
   85SLPC  H11X 8155   6.010   3.089   4.209  1.0911 -1.5994 -2.7672
   85SLPC  H11Y 8156   5.916   3.180   4.084 -0.4793 -2.2785  0.3344
   85SLPC  C312 8157   6.005   3.312   4.224 -0.2182 -0.4115 -0.0769
   85SLPC  H12X 8158   5.996   3.390   4.145 -1.5444  0.6004  1.0211
   85SLPC  H12Y 8159   6.099   3.329   4.281  1.4643 -2.2571 -2.1170
   85SLPC  C313 8160   5.883   3.318   4.324  0.1598  0.0826 -0.9460
   85SLPC  H13X 8161   5.790   3.283   4.275 -0.5177 -0.1808  0.4845
   85SLPC  H13Y 8162   5.863   3.422   4.357 -1.6801  0.1667 -2.1891
   85SLPC  C314 8163   5.904   3.224   4.440 -0.5595  0.3143  0.2857
   85SLPC  H14X 8164   5.998   3.254   4.491  0.2078  0.1999 -1.0296
   85SLPC  H14Y 8165   5.908   3.119   4.405 -1.7549  0.4486 -0.2978
   85SLPC  C315 8166   5.784   3.246   4.536  0.5545 -0.2884 -0.1682
   85SLPC  H15X 8167   5.692   3.199   4.497  0.7787 -0.7660 -0.1222
   85SLPC  H15Y 8168   5.766   3.355   4.549 -4.3225 -0.8667 -0.4355
   85SLPC  C316 8169   5.823   3.187   4.669  0.4555  0.3151 -0.1866
   85SLPC  H16X 8170   5.926   3.214   4.701  1.1424  0.3225 -2.2942
   85SLPC  H16Y 8171   5.805   3.079   4.653 -1.9708  0.8299 -1.3701
   85SLPC  C317 8172   5.727   3.233   4.781 -0.2145  0.2705 -0.0697
   85SLPC  H17X 8173   5.619   3.228   4.757 -0.0617  0.8309 -0.9345
   85SLPC  H17Y 8174   5.737   3.343   4.793  1.6436  0.1753 -0.3576
   85SLPC  C318 8175   5.744   3.159   4.919 -0.3851  0.6317 -0.0916
   85SLPC  H18X 8176   5.694   3.060   4.909  1.0456 -0.1273 -0.0168
   85SLPC  H18Y 8177   5.694   3.226   4.992  0.1318  0.3904  0.4831
   85SLPC  H18Z 8178   5.850   3.153   4.953 -0.6354  0.7624  0.7311
   86SLPC     N 8179   0.955   5.543   2.740 -0.3169 -0.3825 -0.0640
   86SLPC   C13 8180   1.062   5.633   2.804 -0.1243 -0.8288 -0.2419
   86SLPC  H13A 8181   1.161   5.596   2.781 -0.6950 -0.6240 -3.5078
   86SLPC  H13B 8182   1.047   5.737   2.778 -2.6284 -1.3569 -1.1689
   86SLPC  H13C 8183   1.044   5.639   2.910  0.7225  1.5863 -0.1763
   86SLPC   C14 8184   0.973   5.405   2.791  0.4614 -0.1184 -0.3442
   86SLPC  H14A 8185   1.079   5.386   2.791  0.9020  2.0582 -0.6357
   86SLPC  H14B 8186   0.926   5.394   2.887  0.8466  2.4026  0.2029
   86SLPC  H14C 8187   0.924   5.327   2.734 -1.9580 -0.1847  1.6670
   86SLPC   C15 8188   0.976   5.539   2.591 -0.0141 -0.4513 -0.3244
   86SLPC  H15A 8189   0.922   5.456   2.548 -2.1871 -1.4260  3.7951
   86SLPC  H15B 8190   0.924   5.626   2.555  2.5581  1.2848 -0.1337
   86SLPC  H15C 8191   1.082   5.540   2.569  0.6357 -3.3812  1.9701
   86SLPC   C12 8192   0.812   5.595   2.758 -0.0039  0.3593  0.3502
   86SLPC  H12A 8193   0.747   5.508   2.757 -1.9139  1.7269 -0.3010
   86SLPC  H12B 8194   0.783   5.656   2.674 -1.5322 -2.8548 -1.6510
   86SLPC   C11 8195   0.797   5.673   2.892 -0.1639 -1.1507 -0.6809
   86SLPC  H11A 8196   0.854   5.616   2.969  0.7926  0.1065 -0.4341
   86SLPC  H11B 8197   0.691   5.681   2.924  0.3534  1.7709  0.5544
   86SLPC     P 8198   0.802   5.908   2.781  0.0674  0.0945  0.3324
   86SLPC   O13 8199   0.889   5.895   2.659 -0.8906  0.4393 -0.1317
   86SLPC   O14 8200   0.659   5.878   2.752 -0.0149  0.4930 -0.1950
   86SLPC   O12 8201   0.853   5.802   2.892  0.5448 -0.5370 -0.2370
   86SLPC   O11 8202   0.821   6.052   2.841 -0.4196  0.5688  0.3525
   86SLPC    C1 8203   0.890   6.066   2.963  0.1755 -0.4911  0.5796
   86SLPC    HA 8204   0.984   6.007   2.969  1.3686  1.1568 -0.8734
   86SLPC    HB 8205   0.921   6.173   2.966 -1.1861 -0.0767  3.5772
   86SLPC    C2 8206   0.802   6.042   3.091  0.5706 -0.5960  0.1801
   86SLPC    HS 8207   0.760   5.940   3.078  0.8802 -0.5625 -1.3189
   86SLPC   O21 8208   0.712   6.154   3.115 -0.2930 -0.4219  0.2920
   86SLPC   C21 8209   0.592   6.115   3.082  0.5199 -0.1619 -0.6682
   86SLPC   O22 8210   0.555   6.008   3.033  0.7491  0.2128  0.1104
   86SLPC   C22 8211   0.496   6.228   3.130 -0.4418 -0.2252 -0.2003
   86SLPC   H2R 8212   0.544   6.325   3.104 -0.6444  0.3146  1.3265
   86SLPC   H2S 8213   0.414   6.221   3.055  1.4479  0.8669 -2.5181
   86SLPC    C3 8214   0.907   6.028   3.208 -0.7087 -0.0383  0.0631
   86SLPC    HX 8215   0.971   6.119   3.210 -1.1558  0.2717  1.4430
   86SLPC    HY 8216   0.975   5.948   3.174 -0.9765 -0.1455 -0.2268
   86SLPC   O31 8217   0.843   6.004   3.332 -0.3056 -0.4415 -0.6136
   86SLPC   C31 8218   0.854   5.888   3.384 -0.0607  0.8207 -0.3047
   86SLPC   O32 8219   0.919   5.791   3.340 -0.5275  0.2228 -0.0526
   86SLPC   C32 8220   0.770   5.881   3.513 -0.0486 -0.7194  0.7904
   86SLPC   H2X 8221   0.669   5.916   3.484 -0.8942 -2.1701  1.8447
   86SLPC   H2Y 8222   0.818   5.949   3.587 -1.2583 -0.8076  1.6886
   86SLPC   C23 8223   0.445   6.199   3.272  1.1888  0.6046  0.1437
   86SLPC   H3R 8224   0.393   6.101   3.273  1.6357  0.3628  1.4614
   86SLPC   H3S 8225   0.361   6.270   3.286  1.1178  1.0351 -2.0593
   86SLPC   C24 8226   0.545   6.189   3.380 -0.5205  0.2416 -0.5153
   86SLPC   H4R 8227   0.584   6.292   3.396  1.3684 -0.8356  2.6583
   86SLPC   H4S 8228   0.625   6.119   3.349  0.3081  2.1517 -3.0101
   86SLPC   C25 8229   0.479   6.144   3.514  0.5605 -0.4809  0.1252
   86SLPC   H5R 8230   0.463   6.035   3.500 -1.4556 -0.0046 -1.8305
   86SLPC   H5S 8231   0.385   6.202   3.522  0.7402 -0.2187  0.3331
   86SLPC   C26 8232   0.555   6.188   3.638  0.2244 -0.1569  0.0210
   86SLPC   H6R 8233   0.554   6.299   3.642 -3.1805 -0.0870 -0.2400
   86SLPC   H6S 8234   0.656   6.142   3.628  0.1689 -0.1622 -0.4991
   86SLPC   C27 8235   0.480   6.138   3.764  0.7959 -0.4106  0.5937
   86SLPC   H7R 8236   0.470   6.027   3.764 -0.9914 -0.2927  0.5313
   86SLPC   H7S 8237   0.371   6.161   3.756  0.3115 -2.2975  1.2309
   86SLPC   C28 8238   0.533   6.193   3.901  0.0592  0.0229  0.9105
   86SLPC   H8R 8239   0.544   6.303   3.887 -0.5496 -0.1722 -1.6800
   86SLPC   H8S 8240   0.632   6.144   3.917  1.1216  0.9222 -2.0906
   86SLPC   C29 8241   0.436   6.152   4.010 -1.4075 -0.0727  0.3662
   86SLPC   H9R 8242   0.422   6.043   4.011  0.1477 -0.3114  2.1849
   86SLPC  C210 8243   0.382   6.230   4.101 -0.3567  0.0766  0.2371
   86SLPC  H10R 8244   0.328   6.180   4.182  0.0690  2.1314  1.8711
   86SLPC  C211 8245   0.407   6.381   4.110 -0.3203  0.2187  0.4544
   86SLPC  H11R 8246   0.320   6.425   4.164  0.2950  1.9175  0.1220
   86SLPC  H11S 8247   0.410   6.430   4.010  2.4794  1.4674  1.0620
   86SLPC  C212 8248   0.548   6.412   4.158 -0.2403  0.1072  0.0566
   86SLPC  H12R 8249   0.632   6.366   4.103  0.2019  1.1458 -0.1690
   86SLPC  C213 8250   0.578   6.478   4.273  0.1194  0.6436  1.0299
   86SLPC  H13R 8251   0.681   6.513   4.289  0.9903  0.5468 -3.3189
   86SLPC  C214 8252   0.478   6.546   4.362 -0.9891  0.5344  0.1283
   86SLPC  H14R 8253   0.371   6.541   4.334 -0.7973  0.5375 -0.6382
   86SLPC  H14S 8254   0.491   6.656   4.367  0.2737  0.5102 -1.6394
   86SLPC  C215 8255   0.487   6.501   4.508 -0.6629  0.4091 -0.0311
   86SLPC  H15R 8256   0.410   6.563   4.559 -2.6298 -0.8868 -1.2974
   86SLPC  H15S 8257   0.580   6.533   4.559 -1.1340  0.9365  0.5131
   86SLPC  C216 8258   0.472   6.355   4.550  0.5883  0.1983  1.2072
   86SLPC  H16R 8259   0.448   6.363   4.658  0.5973  0.2451  1.2055
   86SLPC  H16S 8260   0.565   6.300   4.524 -0.6452 -1.8376  0.9407
   86SLPC  C217 8261   0.353   6.292   4.478 -0.3782  0.0380 -0.2972
   86SLPC  H17R 8262   0.344   6.191   4.524 -0.9675 -1.0459 -2.6358
   86SLPC  H17S 8263   0.373   6.273   4.371 -2.3871 -0.9114 -0.5571
   86SLPC  C218 8264   0.218   6.366   4.495 -0.4874  0.2133  0.7873
   86SLPC  H18R 8265   0.142   6.309   4.437  3.4440 -1.3735 -3.3691
   86SLPC  H18S 8266   0.223   6.470   4.455 -2.8974  0.7779  1.7742
   86SLPC  H18T 8267   0.179   6.383   4.598  0.1790 -0.8384  1.2253
   86SLPC   C33 8268   0.765   5.740   3.566 -0.0419  0.1478  0.5250
   86SLPC   H3X 8269   0.868   5.699   3.575  1.3329  3.1137 -0.5285
   86SLPC   H3Y 8270   0.715   5.671   3.495 -0.3450  1.2248 -0.3276
   86SLPC   C34 8271   0.690   5.729   3.699  0.0614 -0.2050  0.3796
   86SLPC   H4X 8272   0.684   5.622   3.727 -0.7489  0.1797  1.7068
   86SLPC   H4Y 8273   0.585   5.760   3.683  0.2835  0.5119  0.3093
   86SLPC   C35 8274   0.748   5.795   3.829 -0.0249 -0.6071 -0.0817
   86SLPC   H5X 8275   0.793   5.892   3.798 -0.1849  0.0790  1.7216
   86SLPC   H5Y 8276   0.834   5.739   3.871  1.3816  3.0097  2.4131
   86SLPC   C36 8277   0.655   5.799   3.955  0.6150  0.5899  1.3172
   86SLPC   H6X 8278   0.605   5.700   3.946  1.5382  0.2805 -1.9616
   86SLPC   H6Y 8279   0.581   5.877   3.927  0.1649 -0.6024 -1.1520
   86SLPC   C37 8280   0.719   5.815   4.094 -0.6654 -0.3119  0.0904
   86SLPC   H7X 8281   0.796   5.895   4.086 -0.0727 -1.0620 -3.0507
   86SLPC   H7Y 8282   0.769   5.722   4.127  4.4119  1.1375 -2.5263
   86SLPC   C38 8283   0.620   5.854   4.209  0.5062  0.2509  0.6836
   86SLPC   H8X 8284   0.533   5.788   4.190 -1.0237  2.2703  0.3043
   86SLPC   H8Y 8285   0.585   5.958   4.192 -1.8449 -0.3106  1.7848
   86SLPC   C39 8286   0.674   5.846   4.354  0.5417  0.1387 -0.2758
   86SLPC   H9X 8287   0.767   5.906   4.352  0.7189 -0.0958  0.5542
   86SLPC   H9Y 8288   0.702   5.741   4.378  2.2159  0.5787 -0.2074
   86SLPC  C310 8289   0.577   5.907   4.455 -0.2430  0.7941  0.6120
   86SLPC  H10X 8290   0.492   5.836   4.447  1.5228 -1.8390  2.9168
   86SLPC  H10Y 8291   0.533   6.000   4.414 -0.1816  2.8889  4.7239
   86SLPC  C311 8292   0.630   5.907   4.593 -0.5413 -0.3314  0.1408
   86SLPC  H11X 8293   0.730   5.954   4.586 -0.7478 -0.0072 -0.9656
   86SLPC  H11Y 8294   0.640   5.802   4.626 -0.2038 -0.4843 -0.4287
   86SLPC  C312 8295   0.552   5.993   4.693  0.6272  0.2888  0.0557
   86SLPC  H12X 8296   0.521   6.084   4.636  0.0687  0.2625  0.3098
   86SLPC  H12Y 8297   0.605   6.017   4.787  1.2428  0.1094 -0.2398
   86SLPC  C313 8298   0.422   5.918   4.726  0.7355 -0.0604 -0.4605
   86SLPC  H13X 8299   0.433   5.826   4.788 -1.4361 -0.3152 -0.3898
   86SLPC  H13Y 8300   0.353   5.891   4.643 -0.9942  0.7932  0.6313
   86SLPC  C314 8301   0.343   6.019   4.821 -0.2346  0.2788 -0.6138
   86SLPC  H14X 8302   0.305   6.112   4.773  0.0865  1.3382  1.1052
   86SLPC  H14Y 8303   0.409   6.073   4.892  0.8315 -0.9907 -0.6078
   86SLPC  C315 8304   0.211   5.961   4.881  0.5510  0.1067 -0.3089
   86SLPC  H15X 8305   0.178   5.887   4.806  0.0796 -2.2178  2.0466
   86SLPC  H15Y 8306   0.127   6.032   4.898  0.9347  0.3751  0.5422
   86SLPC  C316 8307   0.229   5.877   5.009 -0.0127 -0.0289  0.4817
   86SLPC  H16X 8308   0.256   5.944   5.094 -1.6359  1.6625 -0.2788
   86SLPC  H16Y 8309   0.316   5.807   5.007  0.1138  0.1398 -0.3721
   86SLPC  C317 8310   0.106   5.797   5.040  0.2002 -0.5681 -0.1894
   86SLPC  H17X 8311   0.144   5.719   5.109  1.9044 -0.4277 -0.9083
   86SLPC  H17Y 8312   0.078   5.728   4.957  1.3689 -0.9182 -0.3195
   86SLPC  C318 8313  -0.011   5.872   5.104  0.3111  0.2549 -0.2445
   86SLPC  H18X 8314   0.031   5.948   5.173 -0.7793  0.6898 -0.0398
   86SLPC  H18Y 8315  -0.073   5.797   5.158  1.9933 -0.4287  0.7842
   86SLPC  H18Z 8316  -0.082   5.921   5.033 -0.3090  1.3735  1.1026
   87SLPC     N 8317   4.386   5.507   1.846 -0.0264 -0.1970 -0.3506
   87SLPC   C13 8318   4.263   5.565   1.790  0.7159 -0.0298  0.2795
   87SLPC  H13A 8319   4.238   5.506   1.703  1.1667  0.3186 -0.0923
   87SLPC  H13B 8320   4.188   5.572   1.866 -0.0140 -1.7253 -0.2336
   87SLPC  H13C 8321   4.274   5.662   1.743  0.0265 -0.6289 -1.2033
   87SLPC   C14 8322   4.495   5.529   1.746 -0.0547 -0.1769  0.0677
   87SLPC  H14A 8323   4.472   5.479   1.653  4.1110 -2.4285 -0.0116
   87SLPC  H14B 8324   4.521   5.633   1.731  0.6656  0.0304  2.3843
   87SLPC  H14C 8325   4.583   5.472   1.773 -0.1984  0.0945  1.1254
   87SLPC   C15 8326   4.374   5.366   1.863  0.7742  0.1515 -0.3563
   87SLPC  H15A 8327   4.470   5.318   1.876  0.9740  0.8079  0.7364
   87SLPC  H15B 8328   4.320   5.349   1.955  1.2549 -0.5070 -0.1849
   87SLPC  H15C 8329   4.322   5.313   1.784 -1.3976 -1.0346  1.7370
   87SLPC   C12 8330   4.419   5.582   1.974 -0.0666 -0.1157 -0.1768
   87SLPC  H12A 8331   4.451   5.681   1.946 -0.3227  0.1180  0.3327
   87SLPC  H12B 8332   4.502   5.538   2.026 -1.2187  0.1596  2.0289
   87SLPC   C11 8333   4.312   5.606   2.087 -0.4363 -0.3205  0.5094
   87SLPC  H11A 8334   4.237   5.673   2.042 -1.1863 -0.6056  1.3007
   87SLPC  H11B 8335   4.352   5.671   2.168  2.7310 -0.8859 -0.4429
   87SLPC     P 8336   4.130   5.518   2.237  0.1928 -0.4747 -0.0254
   87SLPC   O13 8337   4.058   5.644   2.197 -0.5948  0.0055 -0.0411
   87SLPC   O14 8338   4.047   5.394   2.258 -0.7595  0.4090  0.1287
   87SLPC   O12 8339   4.247   5.485   2.127  0.5170  0.3557  0.2308
   87SLPC   O11 8340   4.205   5.540   2.376 -0.0120 -0.1083  0.0632
   87SLPC    C1 8341   4.271   5.423   2.429 -0.3239 -0.1727 -0.1093
   87SLPC    HA 8342   4.202   5.341   2.457  1.2183 -1.0908  1.1818
   87SLPC    HB 8343   4.341   5.374   2.357 -1.0229 -2.7982  0.8904
   87SLPC    C2 8344   4.348   5.467   2.556  0.1325  0.0673  0.0939
   87SLPC    HS 8345   4.395   5.558   2.512  3.1013 -2.0735 -1.5162
   87SLPC   O21 8346   4.426   5.357   2.600  0.0647  0.9858  0.0305
   87SLPC   C21 8347   4.537   5.394   2.669 -0.1081  1.0200 -0.1351
   87SLPC   O22 8348   4.571   5.506   2.686  0.0015 -0.1149 -0.1280
   87SLPC   C22 8349   4.593   5.263   2.726 -0.1893 -0.2841 -0.0773
   87SLPC   H2R 8350   4.623   5.201   2.639  1.9696  0.7526 -0.1320
   87SLPC   H2S 8351   4.692   5.277   2.774  0.5364 -0.9892 -1.2982
   87SLPC    C3 8352   4.243   5.513   2.663  0.2013  0.3988  0.6329
   87SLPC    HX 8353   4.179   5.424   2.685 -0.8775  0.3002 -2.4407
   87SLPC    HY 8354   4.170   5.582   2.616 -0.0518 -1.2958 -1.6068
   87SLPC   O31 8355   4.296   5.554   2.786 -0.1146  0.0733 -0.2865
   87SLPC   C31 8356   4.320   5.683   2.790  0.1723  0.2775 -0.9338
   87SLPC   O32 8357   4.317   5.764   2.700  0.7901 -0.3759 -0.2008
   87SLPC   C32 8358   4.385   5.701   2.927  0.0232 -0.4013  0.0425
   87SLPC   H2X 8359   4.418   5.804   2.951  0.2785 -0.5648  0.4097
   87SLPC   H2Y 8360   4.473   5.635   2.916  1.6671  1.8578 -1.1181
   87SLPC   C23 8361   4.492   5.183   2.813 -0.2768 -0.4558  0.5923
   87SLPC   H3R 8362   4.543   5.086   2.831  0.8474  0.0559  0.2785
   87SLPC   H3S 8363   4.400   5.174   2.751 -0.8532  1.6476  1.0585
   87SLPC   C24 8364   4.451   5.255   2.941  0.0850 -0.0356  0.1909
   87SLPC   H4R 8365   4.428   5.359   2.911  3.1330  1.1191  1.4130
   87SLPC   H4S 8366   4.533   5.265   3.016 -1.1679  1.0513  1.4712
   87SLPC   C25 8367   4.339   5.190   3.021 -0.1966  0.1362 -0.2346
   87SLPC   H5R 8368   4.347   5.083   3.047  2.5550  0.7063  1.6670
   87SLPC   H5S 8369   4.250   5.202   2.954 -0.6505  3.2434  0.7367
   87SLPC   C26 8370   4.302   5.269   3.147 -0.6308  0.7266  0.3906
   87SLPC   H6R 8371   4.303   5.380   3.139  0.3213  0.7727  0.9674
   87SLPC   H6S 8372   4.391   5.241   3.208  1.2351  1.0999 -1.9920
   87SLPC   C27 8373   4.172   5.227   3.212 -0.4948  0.3191  0.0717
   87SLPC   H7R 8374   4.187   5.124   3.249  1.4076 -0.4719 -2.5753
   87SLPC   H7S 8375   4.090   5.243   3.138 -0.1833  1.0604 -0.1280
   87SLPC   C28 8376   4.133   5.308   3.343  0.2106 -0.5456  0.1085
   87SLPC   H8R 8377   4.128   5.410   3.300  2.1074 -0.3982  0.1759
   87SLPC   H8S 8378   4.210   5.306   3.423 -1.5306  1.7904  1.9726
   87SLPC   C29 8379   3.995   5.251   3.381  0.3360  0.0724 -0.0794
   87SLPC   H9R 8380   3.912   5.282   3.316 -2.8717 -1.0555  3.1117
   87SLPC  C210 8381   3.966   5.175   3.487 -0.5311 -0.3263 -0.6177
   87SLPC  H10R 8382   3.860   5.159   3.512  0.2504  0.2673  3.8290
   87SLPC  C211 8383   4.067   5.116   3.585  0.3534  0.2683 -0.2896
   87SLPC  H11R 8384   4.140   5.197   3.609  0.4589  0.0423  0.1690
   87SLPC  H11S 8385   4.128   5.036   3.538 -0.7044 -1.4086  1.0733
   87SLPC  C212 8386   4.010   5.052   3.709 -0.1896  0.0952 -0.0581
   87SLPC  H12R 8387   4.042   4.948   3.720 -0.6465  0.1390  2.1357
   87SLPC  C213 8388   3.979   5.111   3.823 -0.4057 -0.6547 -0.4247
   87SLPC  H13R 8389   3.943   5.049   3.907  1.7645 -0.8859  0.3968
   87SLPC  C214 8390   3.974   5.260   3.841  0.2667  0.8129 -0.5536
   87SLPC  H14R 8391   3.949   5.314   3.748  0.2564  0.3287 -0.8363
   87SLPC  H14S 8392   4.077   5.287   3.872 -0.0179  0.1504  1.0900
   87SLPC  C215 8393   3.871   5.284   3.956  0.3387  0.2556 -0.3921
   87SLPC  H15R 8394   3.772   5.246   3.924 -1.0486  3.0388  0.2833
   87SLPC  H15S 8395   3.850   5.393   3.964  1.4893  0.5116 -0.7125
   87SLPC  C216 8396   3.923   5.236   4.094 -0.0278 -0.1919 -0.0623
   87SLPC  H16R 8397   3.945   5.316   4.168  0.9702 -1.6429  1.2720
   87SLPC  H16S 8398   4.023   5.188   4.084 -0.6379 -2.0951  2.0708
   87SLPC  C217 8399   3.846   5.123   4.155  0.1356  0.0466  0.3770
   87SLPC  H17R 8400   3.831   5.042   4.081 -1.4533 -0.2655  0.9988
   87SLPC  H17S 8401   3.747   5.162   4.187  0.9768  1.5037  1.3349
   87SLPC  C218 8402   3.926   5.070   4.275 -0.2620  0.1366 -0.1221
   87SLPC  H18R 8403   4.014   5.015   4.237 -0.3529 -1.8516  2.2773
   87SLPC  H18S 8404   3.855   4.995   4.316 -0.6502  0.5192 -0.0856
   87SLPC  H18T 8405   3.949   5.153   4.344 -0.2244 -0.1378  0.2014
   87SLPC   C33 8406   4.292   5.660   3.044 -0.2334  0.7403 -0.4724
   87SLPC   H3X 8407   4.367   5.646   3.125  0.9253  1.7552 -1.3184
   87SLPC   H3Y 8408   4.233   5.568   3.028  1.1924  0.0843 -2.3520
   87SLPC   C34 8409   4.194   5.759   3.093 -0.7707 -0.1661 -0.3397
   87SLPC   H4X 8410   4.098   5.775   3.040 -1.1367 -0.2746  0.2863
   87SLPC   H4Y 8411   4.244   5.856   3.073  0.6323 -0.9196 -0.6815
   87SLPC   C35 8412   4.171   5.741   3.244  0.4142 -0.4535  0.0295
   87SLPC   H5X 8413   4.265   5.698   3.284  1.2314  0.7919 -0.4876
   87SLPC   H5Y 8414   4.087   5.668   3.246  0.4996 -0.5873 -0.9906
   87SLPC   C36 8415   4.135   5.868   3.320  0.2691  0.4176 -0.5985
   87SLPC   H6X 8416   4.045   5.925   3.288  1.5194  2.7140 -0.2391
   87SLPC   H6Y 8417   4.222   5.936   3.317 -0.4089  1.6539  2.6395
   87SLPC   C37 8418   4.120   5.831   3.472 -0.3716 -0.7212  0.0925
   87SLPC   H7X 8419   4.189   5.754   3.513  0.7724  1.2979  2.1436
   87SLPC   H7Y 8420   4.015   5.803   3.493 -1.1257  3.6737  3.4714
   87SLPC   C38 8421   4.142   5.955   3.552 -0.5299 -0.6434 -0.2423
   87SLPC   H8X 8422   4.061   6.024   3.522 -0.2054 -1.6570 -3.9100
   87SLPC   H8Y 8423   4.239   6.001   3.522 -0.2001  0.7118  2.5559
   87SLPC   C39 8424   4.165   5.929   3.703  0.3192  0.2151 -0.2698
   87SLPC   H9X 8425   4.223   6.014   3.745  1.1605 -0.7419  0.5663
   87SLPC   H9Y 8426   4.225   5.835   3.705  0.4036  0.2711 -0.1676
   87SLPC  C310 8427   4.037   5.921   3.788  0.4738  0.2031  1.0713
   87SLPC  H10X 8428   3.964   5.859   3.733  0.2095  1.1198  0.3509
   87SLPC  H10Y 8429   4.001   6.026   3.798 -1.8306 -0.2056 -1.8048
   87SLPC  C311 8430   4.058   5.861   3.923  0.3536  0.2630 -0.7077
   87SLPC  H11X 8431   3.980   5.889   3.998  0.8594 -1.7983  0.6808
   87SLPC  H11Y 8432   4.150   5.917   3.950 -0.3852  1.0958  0.1871
   87SLPC  C312 8433   4.077   5.703   3.920  0.1899  0.1155 -0.4983
   87SLPC  H12X 8434   4.117   5.665   3.823  1.3694 -1.6542  0.6204
   87SLPC  H12Y 8435   3.975   5.660   3.919  0.1067  0.3211 -0.9138
   87SLPC  C313 8436   4.155   5.638   4.037  0.3446  0.1148 -0.2057
   87SLPC  H13X 8437   4.251   5.692   4.051 -0.9494  1.8905  2.9914
   87SLPC  H13Y 8438   4.181   5.534   4.011 -0.6681 -0.4132  0.7890
   87SLPC  C314 8439   4.073   5.626   4.171 -0.8613  0.7402 -0.5794
   87SLPC  H14X 8440   3.977   5.578   4.143 -0.5726 -0.9474  1.0651
   87SLPC  H14Y 8441   4.055   5.727   4.214 -2.8191 -0.0348  0.5453
   87SLPC  C315 8442   4.153   5.542   4.275 -0.7038 -0.2857 -0.5163
   87SLPC  H15X 8443   4.256   5.584   4.280 -1.1886  0.9303 -0.3398
   87SLPC  H15Y 8444   4.159   5.437   4.240 -2.0137 -0.9018  0.9633
   87SLPC  C316 8445   4.105   5.548   4.425  0.6733  0.2700  0.1599
   87SLPC  H16X 8446   3.995   5.533   4.422  0.9082 -1.6394 -2.9825
   87SLPC  H16Y 8447   4.124   5.644   4.478 -2.5070 -1.1490  4.4565
   87SLPC  C317 8448   4.147   5.425   4.518 -0.4434  0.3762 -0.0652
   87SLPC  H17X 8449   4.234   5.372   4.473  0.0038  1.7494 -0.8793
   87SLPC  H17Y 8450   4.059   5.357   4.507 -0.6543  0.3285  1.7245
   87SLPC  C318 8451   4.165   5.453   4.665  0.4886 -0.5207  0.2114
   87SLPC  H18X 8452   4.264   5.501   4.678 -0.1137  0.6874  0.4441
   87SLPC  H18Y 8453   4.162   5.355   4.718 -0.1092 -0.1901  0.8145
   87SLPC  H18Z 8454   4.085   5.523   4.699  0.0995 -0.9299  0.1495
   88SLPC     N 8455   2.178   4.588   2.557 -0.0513 -0.7206  0.3037
   88SLPC   C13 8456   2.079   4.491   2.497 -0.0435  0.3080 -0.1097
   88SLPC  H13A 8457   2.101   4.389   2.526 -1.9156  0.6502  3.0077
   88SLPC  H13B 8458   1.977   4.517   2.521 -0.5428 -1.6658  0.0983
   88SLPC  H13C 8459   2.092   4.495   2.390  1.7778 -0.8516  0.0267
   88SLPC   C14 8460   2.172   4.712   2.476  0.3952 -0.4569 -0.2929
   88SLPC  H14A 8461   2.227   4.700   2.383  0.8879 -1.1983  0.0847
   88SLPC  H14B 8462   2.074   4.750   2.453  0.8692  1.3748  0.5287
   88SLPC  H14C 8463   2.229   4.793   2.520  1.0618 -1.5692  0.9571
   88SLPC   C15 8464   2.309   4.518   2.551  0.1086 -0.6693  0.5621
   88SLPC  H15A 8465   2.342   4.491   2.452  2.7800  2.2232  0.4870
   88SLPC  H15B 8466   2.382   4.588   2.589 -0.8507 -0.4688  2.0987
   88SLPC  H15C 8467   2.319   4.429   2.612  2.3584 -0.4891  0.5537
   88SLPC   C12 8468   2.136   4.600   2.703  0.0152 -0.2065 -0.4719
   88SLPC  H12A 8469   2.103   4.500   2.727 -2.6924  0.5240 -0.7927
   88SLPC  H12B 8470   2.049   4.663   2.720 -0.2178 -0.6019 -0.1875
   88SLPC   C11 8471   2.245   4.649   2.799  0.1185 -0.4228  0.2547
   88SLPC  H11A 8472   2.327   4.575   2.808  0.3486  0.1139  4.3849
   88SLPC  H11B 8473   2.186   4.642   2.893 -1.8137  1.8844 -0.6720
   88SLPC     P 8474   2.442   4.818   2.784 -0.2684  0.2172 -0.2543
   88SLPC   O13 8475   2.527   4.741   2.688  0.4286  0.4041 -0.6114
   88SLPC   O14 8476   2.450   4.965   2.783 -0.2776  0.4438  0.2275
   88SLPC   O12 8477   2.294   4.774   2.764 -0.1930 -0.2313  0.6380
   88SLPC   O11 8478   2.479   4.772   2.932 -0.3467 -0.2282  0.4901
   88SLPC    C1 8479   2.420   4.852   3.040  0.4636 -0.0151  0.0822
   88SLPC    HA 8480   2.433   4.962   3.040  2.2292 -0.1868  0.8567
   88SLPC    HB 8481   2.311   4.832   3.029  1.0068 -2.9558 -0.9429
   88SLPC    C2 8482   2.477   4.794   3.173  0.3644  0.3603 -0.3517
   88SLPC    HS 8483   2.585   4.818   3.173  0.4036  0.2357 -1.4155
   88SLPC   O21 8484   2.441   4.652   3.187  0.3642 -0.3436  0.3675
   88SLPC   C21 8485   2.523   4.576   3.263  0.2258 -0.3328 -0.5033
   88SLPC   O22 8486   2.624   4.610   3.322 -0.3964 -0.4992  0.4434
   88SLPC   C22 8487   2.469   4.424   3.268  1.1277  0.2376  0.6221
   88SLPC   H2R 8488   2.365   4.438   3.305  0.0171  0.1175 -2.2466
   88SLPC   H2S 8489   2.465   4.385   3.165  2.8339 -0.6145  0.8500
   88SLPC    C3 8490   2.406   4.870   3.285  0.1311  0.2977  0.6263
   88SLPC    HX 8491   2.436   4.819   3.380  1.9414 -1.2382 -0.6831
   88SLPC    HY 8492   2.298   4.849   3.267  0.5422 -0.9597 -0.5507
   88SLPC   O31 8493   2.438   5.010   3.291 -0.1976  0.0697  0.8388
   88SLPC   C31 8494   2.354   5.104   3.246 -0.5815  1.1541  0.6251
   88SLPC   O32 8495   2.244   5.090   3.210 -0.0357 -0.1079  0.3407
   88SLPC   C32 8496   2.438   5.230   3.232 -1.0221 -0.6711  0.4148
   88SLPC   H2X 8497   2.526   5.206   3.169  0.5624 -1.5037  2.7971
   88SLPC   H2Y 8498   2.490   5.244   3.329  0.7702 -0.0692 -0.5866
   88SLPC   C23 8499   2.553   4.326   3.350  0.1007 -0.2531  0.2811
   88SLPC   H3R 8500   2.556   4.368   3.453  1.9726  2.1984 -0.6667
   88SLPC   H3S 8501   2.655   4.332   3.305 -0.3022  1.7512 -0.4945
   88SLPC   C24 8502   2.498   4.180   3.337  0.6514  0.2414  0.2834
   88SLPC   H4R 8503   2.478   4.168   3.229  1.7471  2.2817 -0.2194
   88SLPC   H4S 8504   2.400   4.172   3.388  1.0833  1.7084  1.4351
   88SLPC   C25 8505   2.592   4.069   3.385  0.2991 -0.1305 -0.6922
   88SLPC   H5R 8506   2.675   4.069   3.312  1.1972  0.1904  0.3085
   88SLPC   H5S 8507   2.555   3.964   3.376  2.2707 -0.8423 -0.8061
   88SLPC   C26 8508   2.636   4.082   3.536  0.3100  0.0995  0.1743
   88SLPC   H6R 8509   2.550   4.096   3.605  0.6362 -2.8316  1.2916
   88SLPC   H6S 8510   2.695   4.176   3.546  1.8578 -0.8111 -0.1009
   88SLPC   C27 8511   2.708   3.961   3.601  0.3035  0.0543 -0.2303
   88SLPC   H7R 8512   2.790   3.928   3.534  2.4041  2.4850  0.9875
   88SLPC   H7S 8513   2.631   3.881   3.603 -1.1635  1.4248  1.4748
   88SLPC   C28 8514   2.788   3.985   3.735  0.6850  0.2901 -0.0230
   88SLPC   H8R 8515   2.837   4.085   3.745  1.0460  0.0512  0.7018
   88SLPC   H8S 8516   2.879   3.922   3.731  0.1665 -0.3922 -2.3103
   88SLPC   C29 8517   2.702   3.966   3.860  0.6291  0.4047 -0.1683
   88SLPC   H9R 8518   2.652   3.869   3.855  0.8802  0.1017  2.1532
   88SLPC  C210 8519   2.679   4.050   3.965 -0.2672 -0.1867  0.6995
   88SLPC  H10R 8520   2.619   4.005   4.045  0.2660 -1.6451  0.2958
   88SLPC  C211 8521   2.739   4.188   3.995  0.5220 -0.5827 -0.1747
   88SLPC  H11R 8522   2.803   4.217   3.909 -0.8573  2.6976 -0.2486
   88SLPC  H11S 8523   2.804   4.188   4.085 -0.8942 -0.3601  0.8843
   88SLPC  C212 8524   2.614   4.273   4.017  0.1771 -0.0570 -0.3921
   88SLPC  H12R 8525   2.545   4.284   3.932 -1.6279  1.4995  1.1696
   88SLPC  C213 8526   2.592   4.345   4.136  0.3168  0.1277 -0.4664
   88SLPC  H13R 8527   2.495   4.394   4.152  0.2617 -0.2612  0.4653
   88SLPC  C214 8528   2.673   4.341   4.263 -0.2143  0.7808  0.0375
   88SLPC  H14R 8529   2.716   4.440   4.289 -0.5572  0.2379  3.0696
   88SLPC  H14S 8530   2.762   4.274   4.260 -0.9794 -0.2258 -2.1263
   88SLPC  C215 8531   2.598   4.301   4.387  0.0739  0.3578 -0.3200
   88SLPC  H15R 8532   2.496   4.346   4.392 -0.9896 -1.9250  0.1536
   88SLPC  H15S 8533   2.664   4.337   4.468  1.1827 -2.8674  0.3692
   88SLPC  C216 8534   2.582   4.151   4.401  0.1036  0.4937  0.2852
   88SLPC  H16R 8535   2.681   4.105   4.381  0.4226  1.3043 -0.0574
   88SLPC  H16S 8536   2.517   4.103   4.324  3.3403 -1.8227 -1.2391
   88SLPC  C217 8537   2.517   4.108   4.536  0.5343 -0.3633 -0.0286
   88SLPC  H17R 8538   2.577   4.156   4.616 -0.1597 -0.6409  0.6653
   88SLPC  H17S 8539   2.522   3.998   4.552 -0.2161 -0.3637  0.2305
   88SLPC  C218 8540   2.370   4.142   4.560 -0.1431  0.2659 -0.3096
   88SLPC  H18R 8541   2.300   4.091   4.491 -1.4222  0.2685  0.9453
   88SLPC  H18S 8542   2.352   4.251   4.553 -1.2384  0.0780 -0.7057
   88SLPC  H18T 8543   2.348   4.122   4.667  0.7446  2.5875  0.3524
   88SLPC   C33 8544   2.353   5.349   3.186  0.3192  1.0088  0.4944
   88SLPC   H3X 8545   2.292   5.338   3.094  1.1680 -0.8678  0.1206
   88SLPC   H3Y 8546   2.416   5.439   3.169  1.3613  0.2225  0.0726
   88SLPC   C34 8547   2.258   5.382   3.295  0.4110 -0.4285 -0.1096
   88SLPC   H4X 8548   2.202   5.289   3.319  0.9448 -0.9682 -0.8927
   88SLPC   H4Y 8549   2.180   5.453   3.260 -0.6793 -1.7769 -0.5444
   88SLPC   C35 8550   2.313   5.442   3.430 -0.5935 -0.0942  0.5729
   88SLPC   H5X 8551   2.329   5.551   3.411 -2.7197  0.4507  1.6433
   88SLPC   H5Y 8552   2.399   5.383   3.468 -1.5897 -1.9284  0.0839
   88SLPC   C36 8553   2.206   5.439   3.536  0.2590 -0.1554  0.1264
   88SLPC   H6X 8554   2.135   5.355   3.524 -1.4498  1.4754 -2.3280
   88SLPC   H6Y 8555   2.155   5.537   3.523  0.0542 -0.0428  1.6405
   88SLPC   C37 8556   2.246   5.425   3.681 -0.5304 -0.2837 -0.4364
   88SLPC   H7X 8557   2.316   5.506   3.711  0.5987 -1.1083 -0.7686
   88SLPC   H7Y 8558   2.315   5.338   3.687  0.2050  0.3636  1.2672
   88SLPC   C38 8559   2.129   5.428   3.773 -0.2368 -0.0773 -0.3378
   88SLPC   H8X 8560   2.051   5.359   3.735  1.6098 -2.0419 -0.7310
   88SLPC   H8Y 8561   2.097   5.535   3.770  2.9062  1.0638  1.6238
   88SLPC   C39 8562   2.162   5.393   3.920  0.5176  0.6753  0.2345
   88SLPC   H9X 8563   2.259   5.438   3.952  2.1590 -3.2682  1.4769
   88SLPC   H9Y 8564   2.176   5.284   3.939  0.2275  0.3592 -1.2918
   88SLPC  C310 8565   2.050   5.439   4.018  0.8591  0.2181  0.0054
   88SLPC  H10X 8566   1.947   5.413   3.988  0.5744 -0.0285  1.1337
   88SLPC  H10Y 8567   2.050   5.550   4.018  2.2035  0.2983 -2.9631
   88SLPC  C311 8568   2.066   5.387   4.164 -0.1000  0.2705  1.2320
   88SLPC  H11X 8569   2.165   5.418   4.202  1.0894 -2.1856  0.4038
   88SLPC  H11Y 8570   2.083   5.277   4.169  1.0841  0.4789  2.3199
   88SLPC  C312 8571   1.949   5.406   4.261  0.0729 -0.7254  0.6794
   88SLPC  H12X 8572   1.959   5.350   4.356  0.3919  0.8616  1.6207
   88SLPC  H12Y 8573   1.855   5.371   4.214  0.8017 -2.3746  0.3603
   88SLPC  C313 8574   1.937   5.553   4.305  0.2528  0.3228  0.1584
   88SLPC  H13X 8575   1.915   5.609   4.211  2.1270  0.2327 -0.3737
   88SLPC  H13Y 8576   2.036   5.592   4.338  0.8058 -0.3940 -0.6086
   88SLPC  C314 8577   1.835   5.570   4.417 -0.7643  0.1535  0.1371
   88SLPC  H14X 8578   1.748   5.502   4.404 -1.5787  1.1448  0.2734
   88SLPC  H14Y 8579   1.805   5.676   4.402  1.0016  1.0053  2.0901
   88SLPC  C315 8580   1.898   5.539   4.556  0.0238 -0.6538  0.1054
   88SLPC  H15X 8581   1.984   5.608   4.565 -1.7520  1.9957 -1.8790
   88SLPC  H15Y 8582   1.932   5.433   4.568  0.2018 -1.0560 -3.2289
   88SLPC  C316 8583   1.799   5.566   4.669 -0.4459 -0.0615  0.5203
   88SLPC  H16X 8584   1.711   5.503   4.644 -0.6067 -0.1383  1.2546
   88SLPC  H16Y 8585   1.767   5.672   4.657 -0.3109 -0.1334 -0.5497
   88SLPC  C317 8586   1.846   5.521   4.808 -0.1245 -0.6571  0.3371
   88SLPC  H17X 8587   1.811   5.594   4.883 -0.3819 -2.3895  1.9690
   88SLPC  H17Y 8588   1.956   5.536   4.817 -0.1578  0.2228 -0.5390
   88SLPC  C318 8589   1.802   5.378   4.844 -0.1403 -0.4591 -1.0596
   88SLPC  H18X 8590   1.691   5.375   4.845 -0.2791  1.2028  2.1002
   88SLPC  H18Y 8591   1.840   5.346   4.943  1.4240 -1.3845 -1.9239
   88SLPC  H18Z 8592   1.845   5.302   4.775  0.4911 -2.2789  1.1876
   89SAPE     N 8593   5.142   1.456   6.963  0.2585 -0.0691  0.5531
   89SAPE   HN1 8594   5.177   1.364   6.995  0.6124  0.5060  1.8547
   89SAPE   HN2 8595   5.229   1.513   6.970  1.7456 -1.7113 -2.3923
   89SAPE   HN3 8596   5.062   1.480   7.025  0.3723 -0.2383  0.7658
   89SAPE   C12 8597   5.099   1.440   6.814 -0.4779  0.3411  0.0168
   89SAPE  H12A 8598   5.160   1.359   6.768 -0.9055 -1.3964  2.2942
   89SAPE  H12B 8599   5.108   1.536   6.760 -1.8924  0.2374 -0.4535
   89SAPE   C11 8600   4.952   1.396   6.805 -0.1803 -0.6872 -0.7651
   89SAPE  H11A 8601   4.930   1.308   6.869 -1.3457  0.0889 -0.0461
   89SAPE  H11B 8602   4.929   1.365   6.701 -0.4986 -1.6999 -0.4075
   89SAPE     P 8603   4.806   1.540   6.981 -0.0825 -0.4258  0.1621
   89SAPE   O13 8604   4.915   1.610   7.051  0.6490  0.9294 -0.3033
   89SAPE   O14 8605   4.679   1.615   6.964 -0.2532 -0.2408 -0.1283
   89SAPE   O12 8606   4.861   1.502   6.839 -0.0428 -0.2629 -0.6660
   89SAPE   O11 8607   4.770   1.410   7.053 -0.6389  0.5342  0.0475
   89SAPE    C1 8608   4.641   1.381   7.112 -0.4820  0.2588 -0.1454
   89SAPE    HA 8609   4.650   1.354   7.220  0.8220  0.9723 -0.0495
   89SAPE    HB 8610   4.568   1.465   7.107  0.3343  0.8859 -2.9440
   89SAPE    C2 8611   4.584   1.246   7.051  0.2562  0.0607  0.4028
   89SAPE    HS 8612   4.648   1.159   7.078  0.4650  0.5434  1.5134
   89SAPE   O21 8613   4.571   1.270   6.912 -0.1559  0.2438 -0.0924
   89SAPE   C21 8614   4.615   1.177   6.827  0.0945 -0.5125  0.0044
   89SAPE   O22 8615   4.652   1.066   6.860  0.3294  0.6207  0.7578
   89SAPE   C22 8616   4.614   1.231   6.677 -0.1670 -0.2944 -0.4582
   89SAPE   H2R 8617   4.508   1.244   6.645 -0.0769  1.2716 -0.1914
   89SAPE   H2S 8618   4.662   1.330   6.692  3.3682 -2.1630  1.6455
   89SAPE    C3 8619   4.447   1.203   7.116  0.3645 -0.5849 -0.5388
   89SAPE    HX 8620   4.383   1.291   7.093 -1.4799 -2.0964 -1.5172
   89SAPE    HY 8621   4.464   1.198   7.226 -1.6035  2.0657 -0.0148
   89SAPE   O31 8622   4.398   1.084   7.046 -0.1501 -0.0720 -0.3766
   89SAPE   C31 8623   4.273   1.085   7.037  0.0459  0.1300  0.6325
   89SAPE   O32 8624   4.188   1.168   7.064  0.1015 -0.0941  0.4305
   89SAPE   C32 8625   4.235   0.959   6.971  0.1065 -0.0313 -0.1953
   89SAPE   H2X 8626   4.126   0.948   6.952  0.2683 -1.2047 -0.5752
   89SAPE   H2Y 8627   4.258   0.886   7.052 -0.4572  1.5835  1.4760
   89SAPE   C23 8628   4.696   1.135   6.584  0.3015  0.2845  0.4765
   89SAPE   H3R 8629   4.645   1.037   6.575 -1.9582  1.3494  1.1895
   89SAPE   H3S 8630   4.788   1.119   6.644 -1.2108  1.2002  3.2125
   89SAPE   C24 8631   4.714   1.203   6.452  0.2540  0.2222 -0.4024
   89SAPE   H4R 8632   4.760   1.301   6.475  4.0030 -1.7786  1.7351
   89SAPE   H4S 8633   4.614   1.219   6.407  0.4962 -2.2504 -2.0428
   89SAPE   C25 8634   4.789   1.108   6.366  0.3384  0.4883  0.6969
   89SAPE   H5R 8635   4.826   1.017   6.416  0.5018 -1.5757 -2.8498
   89SAPE   C26 8636   4.820   1.132   6.237 -0.8816  0.5884 -0.1212
   89SAPE   H6R 8637   4.876   1.051   6.189  0.3977 -0.3586  2.7243
   89SAPE   C27 8638   4.791   1.262   6.165 -0.2151 -0.3326 -0.2733
   89SAPE   H7R 8639   4.815   1.341   6.240  1.8030  0.5758 -1.7777
   89SAPE   H7S 8640   4.682   1.261   6.140 -0.3615 -2.2130  0.2813
   89SAPE   C28 8641   4.868   1.295   6.041 -0.0203  0.3806  0.2681
   89SAPE   H8R 8642   4.917   1.393   6.048  1.5411 -0.4933  2.4973
   89SAPE   C29 8643   4.846   1.238   5.920 -0.4636  0.3624 -0.2782
   89SAPE   H9R 8644   4.901   1.283   5.836  0.1504  2.3309  1.1048
   89SAPE  C210 8645   4.754   1.115   5.900 -0.8423 -0.2347 -0.2461
   89SAPE  H10R 8646   4.653   1.145   5.866 -0.7485 -1.7881 -2.1014
   89SAPE  H10S 8647   4.755   1.035   5.977  1.2179  0.5888  0.6693
   89SAPE  C211 8648   4.811   1.043   5.785 -0.6376  1.2165 -0.3425
   89SAPE  H11R 8649   4.832   0.936   5.798 -1.0626  1.2364  0.5658
   89SAPE  C212 8650   4.829   1.078   5.658 -0.2767 -0.6771  0.0600
   89SAPE  H12R 8651   4.880   1.018   5.581 -1.8522 -0.0438 -1.5567
   89SAPE  C213 8652   4.796   1.218   5.605  0.3255  0.0028  0.5843
   89SAPE  H13R 8653   4.738   1.289   5.667  0.5214 -1.6583  2.8056
   89SAPE  H13S 8654   4.727   1.193   5.521 -0.9294 -2.9525  2.3341
   89SAPE  C214 8655   4.926   1.278   5.571  0.4123 -0.9210 -0.0012
   89SAPE  H14R 8656   5.012   1.246   5.633  0.2196 -2.3011 -0.4000
   89SAPE  C215 8657   4.946   1.358   5.463  0.1067  0.0168 -0.0871
   89SAPE  H15R 8658   5.047   1.396   5.445 -0.1917  0.2830 -1.3248
   89SAPE  C216 8659   4.838   1.409   5.372 -0.0626  0.8691  0.0775
   89SAPE  H16R 8660   4.839   1.520   5.385  1.8279  1.2735 -2.6371
   89SAPE  H16S 8661   4.737   1.371   5.398  1.1814 -1.4015  1.9322
   89SAPE  C217 8662   4.858   1.349   5.223 -0.3068  0.7695 -0.3020
   89SAPE  H17R 8663   4.816   1.247   5.236 -0.9497  1.1400  0.6977
   89SAPE  H17S 8664   4.961   1.337   5.185  0.4901  1.4527  1.5113
   89SAPE  C218 8665   4.764   1.424   5.136  0.2299  0.1482  0.1086
   89SAPE  H18R 8666   4.664   1.448   5.179  1.3075  3.7281  0.9189
   89SAPE  H18S 8667   4.737   1.364   5.046 -0.5503  1.6627 -0.7030
   89SAPE  C219 8668   4.832   1.552   5.081  1.0090  0.4696 -0.3524
   89SAPE  H19R 8669   4.932   1.524   5.040  0.9899 -0.5601  0.2789
   89SAPE  H19S 8670   4.853   1.618   5.168  0.0578 -0.3442  0.5116
   89SAPE  C220 8671   4.764   1.624   4.959  0.0679  0.1620 -0.8559
   89SAPE  H20R 8672   4.745   1.558   4.871  0.6806  1.5534 -2.0760
   89SAPE  H20S 8673   4.831   1.704   4.919  1.6990 -0.8474 -0.2611
   89SAPE  H20T 8674   4.671   1.670   4.997  2.4081  1.9667  3.3338
   89SAPE   C33 8675   4.305   0.931   6.838  0.0789  0.4619  0.0275
   89SAPE   H3X 8676   4.334   0.824   6.831  0.9471  0.6959 -0.0401
   89SAPE   H3Y 8677   4.395   0.996   6.830  1.2644 -1.2731 -2.0828
   89SAPE   C34 8678   4.217   0.964   6.712 -0.4276  0.3161  0.3036
   89SAPE   H4X 8679   4.179   1.066   6.729 -0.2589  0.7145 -1.4685
   89SAPE   H4Y 8680   4.132   0.895   6.693 -0.5789  0.6051 -0.0900
   89SAPE   C35 8681   4.313   0.964   6.592  0.0037 -0.4037  0.6102
   89SAPE   H5X 8682   4.360   0.865   6.574  3.2803  1.3776 -1.6117
   89SAPE   H5Y 8683   4.406   1.018   6.621 -0.5824  0.5351  0.7986
   89SAPE   C36 8684   4.263   1.049   6.471  0.4307  0.1786 -1.1222
   89SAPE   H6X 8685   4.343   1.047   6.394  1.9347 -1.3969  0.4153
   89SAPE   H6Y 8686   4.245   1.152   6.510 -1.5391 -0.8470  0.8773
   89SAPE   C37 8687   4.133   0.985   6.403  0.3534  0.4856  0.5945
   89SAPE   H7X 8688   4.046   1.005   6.470 -0.9368  0.7674 -1.0900
   89SAPE   H7Y 8689   4.156   0.879   6.380  0.7432  0.6334  0.2969
   89SAPE   C38 8690   4.104   1.065   6.276  0.1410  0.1022 -0.0753
   89SAPE   H8X 8691   4.197   1.041   6.221  0.9302 -0.2356  1.3530
   89SAPE   H8Y 8692   4.101   1.174   6.297  0.2260  0.3672 -1.3591
   89SAPE   C39 8693   3.980   1.017   6.205  0.1516  0.3513 -0.2220
   89SAPE   H9X 8694   3.886   1.040   6.260 -0.7181 -0.6708 -1.2352
   89SAPE   H9Y 8695   3.982   0.907   6.187 -1.5108  0.3765 -0.7252
   89SAPE  C310 8696   3.945   1.080   6.070 -0.5170 -0.5592 -0.3175
   89SAPE  H10X 8697   4.036   1.089   6.007  0.9272 -0.6789  1.6546
   89SAPE  H10Y 8698   3.885   1.171   6.089  0.0490  0.6807 -3.6576
   89SAPE  C311 8699   3.856   0.996   5.983 -0.5807  0.4377 -0.4359
   89SAPE  H11X 8700   3.773   0.957   6.046 -1.2821  1.7462 -0.5068
   89SAPE  H11Y 8701   3.923   0.912   5.957 -0.1960  0.4880  0.3764
   89SAPE  C312 8702   3.808   1.068   5.855 -0.2192 -0.0484 -0.0030
   89SAPE  H12X 8703   3.892   1.132   5.819 -0.6332  1.2803  1.3147
   89SAPE  H12Y 8704   3.726   1.137   5.884  0.4882  1.0810 -0.5947
   89SAPE  C313 8705   3.748   0.966   5.756 -0.1499  0.4547 -0.2193
   89SAPE  H13X 8706   3.684   0.905   5.823 -0.0616  0.8108  0.1981
   89SAPE  H13Y 8707   3.826   0.897   5.716 -1.6017 -0.4048 -1.6893
   89SAPE  C314 8708   3.681   1.025   5.637  0.4269  0.0125  0.4098
   89SAPE  H14X 8709   3.620   1.111   5.673 -0.9827 -0.4659 -0.7255
   89SAPE  H14Y 8710   3.609   0.950   5.597  0.5932 -0.4947  1.0505
   89SAPE  C315 8711   3.768   1.066   5.517  0.8692 -0.4835  0.4954
   89SAPE  H15X 8712   3.803   0.972   5.469 -1.6029 -1.7065  0.9267
   89SAPE  H15Y 8713   3.856   1.125   5.548  1.8568 -1.9626  0.6020
   89SAPE  C316 8714   3.686   1.154   5.423 -0.8863  0.3379 -0.2945
   89SAPE  H16X 8715   3.675   1.256   5.467  1.7551  0.1172  1.1056
   89SAPE  H16Y 8716   3.584   1.113   5.409 -0.6037 -0.7039  0.5909
   89SAPE  C317 8717   3.759   1.181   5.295 -0.1021 -0.0484 -0.1495
   89SAPE  H17X 8718   3.777   1.093   5.230  0.8205  0.3060 -0.3951
   89SAPE  H17Y 8719   3.858   1.223   5.324 -0.4604 -0.4899  1.8292
   89SAPE  C318 8720   3.684   1.278   5.203  0.7469  0.6281 -0.4585
   89SAPE  H18X 8721   3.587   1.230   5.179  0.6362  1.3163 -1.4295
   89SAPE  H18Y 8722   3.741   1.308   5.113  3.3750 -1.6450  0.3140
   89SAPE  H18Z 8723   3.672   1.375   5.256  2.1565  1.0087 -0.8138
   90SAPE     N 8724   5.432   5.699   7.433  0.3106 -0.1113  0.2606
   90SAPE   HN1 8725   5.335   5.698   7.469 -0.0511 -0.0746 -0.6948
   90SAPE   HN2 8726   5.482   5.627   7.489 -0.0846 -1.7319 -1.3734
   90SAPE   HN3 8727   5.475   5.792   7.452 -0.7242  0.1764  1.3427
   90SAPE   C12 8728   5.419   5.668   7.291 -0.4535 -0.2947  0.3800
   90SAPE  H12A 8729   5.313   5.665   7.257 -1.4094  1.6744  2.8738
   90SAPE  H12B 8730   5.471   5.571   7.274 -0.1610  0.0335 -0.6331
   90SAPE   C11 8731   5.496   5.777   7.210 -0.5541  0.0260  0.4557
   90SAPE  H11A 8732   5.476   5.751   7.104 -1.9044  0.0132  0.7082
   90SAPE  H11B 8733   5.605   5.761   7.225 -0.4019  0.5143 -0.0630
   90SAPE     P 8734   5.326   5.975   7.192 -0.2578  0.1330  0.2856
   90SAPE   O13 8735   5.220   5.871   7.177 -0.2923 -0.0608  0.3772
   90SAPE   O14 8736   5.295   6.099   7.260 -0.0524 -0.3346  0.7527
   90SAPE   O12 8737   5.457   5.910   7.248 -0.4568 -0.0599 -0.7479
   90SAPE   O11 8738   5.376   6.016   7.050 -0.2292 -0.5960  0.2505
   90SAPE    C1 8739   5.448   6.140   7.034 -0.0744  0.5812 -0.4402
   90SAPE    HA 8740   5.373   6.222   7.041 -1.6433 -0.6806 -1.6916
   90SAPE    HB 8741   5.524   6.153   7.114 -0.9595  0.5832  0.4180
   90SAPE    C2 8742   5.516   6.156   6.896 -0.3738 -0.4341 -0.0567
   90SAPE    HS 8743   5.531   6.265   6.880  0.9721 -0.4733  0.7508
   90SAPE   O21 8744   5.441   6.086   6.794 -0.0833 -0.2088 -0.7580
   90SAPE   C21 8745   5.336   6.143   6.766 -0.5903  0.1093  0.5490
   90SAPE   O22 8746   5.276   6.233   6.824  0.0254  0.0454 -0.1690
   90SAPE   C22 8747   5.298   6.088   6.628  0.0380 -0.0950 -0.0073
   90SAPE   H2R 8748   5.387   6.071   6.564  1.0955 -1.1047  1.6387
   90SAPE   H2S 8749   5.248   5.992   6.654  0.6812 -0.3822  0.1872
   90SAPE    C3 8750   5.667   6.113   6.887  0.0641  0.0273  0.2480
   90SAPE    HX 8751   5.681   6.006   6.914  0.8131  0.3973  1.3564
   90SAPE    HY 8752   5.722   6.170   6.964 -1.2298 -1.1003  2.0711
   90SAPE   O31 8753   5.721   6.144   6.758  0.6194 -0.3375  0.1903
   90SAPE   C31 8754   5.737   6.050   6.666 -0.2867 -0.5714  0.4892
   90SAPE   O32 8755   5.708   5.934   6.685  0.0821 -0.4394 -0.2096
   90SAPE   C32 8756   5.785   6.114   6.538  0.0426 -0.0043  0.3950
   90SAPE   H2X 8757   5.892   6.083   6.528  0.3891  1.5111 -0.9727
   90SAPE   H2Y 8758   5.787   6.225   6.540  2.6660  0.0405 -0.4852
   90SAPE   C23 8759   5.196   6.180   6.569  0.3022  0.2381  0.2559
   90SAPE   H3R 8760   5.129   6.232   6.640 -0.4914 -1.2713  0.6572
   90SAPE   H3S 8761   5.128   6.123   6.502  1.0392 -0.8682  0.4170
   90SAPE   C24 8762   5.254   6.282   6.465 -0.4475  0.3861  0.2807
   90SAPE   H4R 8763   5.320   6.230   6.392  0.6480  4.2988 -1.7614
   90SAPE   H4S 8764   5.325   6.360   6.502 -0.4843 -0.6179  2.7110
   90SAPE   C25 8765   5.143   6.360   6.396  0.5882 -0.5804 -0.0040
   90SAPE   H5R 8766   5.077   6.428   6.452 -1.9751 -1.1850 -2.0780
   90SAPE   C26 8767   5.113   6.341   6.264  0.7327 -0.3570  0.1159
   90SAPE   H6R 8768   5.038   6.403   6.213  1.8988 -0.3442 -1.6810
   90SAPE   C27 8769   5.177   6.261   6.159  0.7110  0.1400  0.5654
   90SAPE   H7R 8770   5.108   6.245   6.074 -1.5607  1.4100  2.0513
   90SAPE   H7S 8771   5.196   6.158   6.198 -2.3733  0.3926  3.2213
   90SAPE   C28 8772   5.310   6.325   6.112  0.1463  0.0010 -0.0236
   90SAPE   H8R 8773   5.397   6.296   6.172 -0.5824 -1.2516  0.4588
   90SAPE   C29 8774   5.316   6.394   5.997 -0.4909 -0.3179  0.4528
   90SAPE   H9R 8775   5.415   6.421   5.958 -1.2718 -2.9481 -3.9949
   90SAPE  C210 8776   5.210   6.433   5.898 -0.1755 -0.3499  0.3052
   90SAPE  H10R 8777   5.203   6.543   5.884 -0.4705 -0.3587  0.3647
   90SAPE  H10S 8778   5.106   6.417   5.935 -0.1384  0.5322  0.8123
   90SAPE  C211 8779   5.225   6.357   5.765  0.6913 -0.2724 -0.0130
   90SAPE  H11R 8780   5.317   6.298   5.754  0.9675 -0.1518  1.4654
   90SAPE  C212 8781   5.131   6.352   5.668  0.4026 -0.1455  0.3251
   90SAPE  H12R 8782   5.160   6.285   5.585 -0.0252 -1.8180  1.4806
   90SAPE  C213 8783   4.993   6.411   5.665  0.2046  0.5786 -0.5315
   90SAPE  H13R 8784   4.984   6.478   5.753 -0.3033  0.8167 -0.7602
   90SAPE  H13S 8785   4.921   6.326   5.669  1.1164 -0.1755  0.1638
   90SAPE  C214 8786   4.960   6.485   5.542  0.0824  0.3056  1.1760
   90SAPE  H14R 8787   4.981   6.592   5.553 -1.8128  0.6389  2.0536
   90SAPE  C215 8788   4.891   6.444   5.432 -0.2735 -0.1720 -0.0684
   90SAPE  H15R 8789   4.876   6.508   5.344 -0.9338 -0.9597 -0.5492
   90SAPE  C216 8790   4.853   6.303   5.411  0.6664  1.1189 -0.0133
   90SAPE  H16R 8791   4.744   6.300   5.435  0.6772 -0.4903 -0.0017
   90SAPE  H16S 8792   4.906   6.231   5.477 -0.6673  0.5786  0.4962
   90SAPE  C217 8793   4.877   6.236   5.271  0.0709  0.2753  0.6055
   90SAPE  H17R 8794   4.837   6.133   5.280 -0.1305  0.3080  0.1240
   90SAPE  H17S 8795   4.986   6.218   5.261  0.5981  2.7601  1.1473
   90SAPE  C218 8796   4.803   6.317   5.164  0.2663 -0.1812  0.0280
   90SAPE  H18R 8797   4.803   6.261   5.068 -1.1916  3.5237 -2.3653
   90SAPE  H18S 8798   4.858   6.410   5.138 -0.9754  1.3169  2.3624
   90SAPE  C219 8799   4.657   6.347   5.196 -0.1005 -0.3128 -0.0545
   90SAPE  H19R 8800   4.649   6.420   5.278 -1.9842 -0.1358 -0.3577
   90SAPE  H19S 8801   4.614   6.251   5.233 -1.0419 -0.4092 -1.3107
   90SAPE  C220 8802   4.572   6.387   5.078  0.2079 -0.1418 -0.6811
   90SAPE  H20R 8803   4.566   6.306   5.002 -0.3860  0.4923 -1.3224
   90SAPE  H20S 8804   4.621   6.473   5.027  0.3670  0.2498  0.1143
   90SAPE  H20T 8805   4.471   6.420   5.111  0.7222 -0.1530  1.0120
   90SAPE   C33 8806   5.700   6.053   6.421 -0.1588 -0.2633  0.3978
   90SAPE   H3X 8807   5.590   6.064   6.433 -0.5901 -2.9836 -0.2486
   90SAPE   H3Y 8808   5.710   5.942   6.427 -1.2516 -0.5133 -1.6006
   90SAPE   C34 8809   5.757   6.091   6.278  0.0907  1.4265 -0.2664
   90SAPE   H4X 8810   5.779   6.198   6.294  2.2664  0.8298  1.2952
   90SAPE   H4Y 8811   5.683   6.083   6.196 -0.2113  0.5132  0.0757
   90SAPE   C35 8812   5.896   6.024   6.237  0.2351 -0.7042  0.5459
   90SAPE   H5X 8813   5.880   5.915   6.243  3.4852 -1.2482  2.0876
   90SAPE   H5Y 8814   5.972   6.064   6.308  1.6352  1.2057 -1.8909
   90SAPE   C36 8815   5.941   6.069   6.096  0.8469 -0.2058 -0.2988
   90SAPE   H6X 8816   5.968   6.176   6.102 -1.2745  0.4098 -0.9408
   90SAPE   H6Y 8817   5.856   6.048   6.028  0.2101 -0.3657  0.5291
   90SAPE   C37 8818   6.062   5.983   6.051 -0.9685 -0.2035  0.4911
   90SAPE   H7X 8819   6.031   5.876   6.047 -2.2344  0.0403  2.2703
   90SAPE   H7Y 8820   6.136   5.981   6.134 -1.5401 -0.6410  1.0013
   90SAPE   C38 8821   6.121   6.037   5.917  0.6502  0.1033  0.6102
   90SAPE   H8X 8822   6.221   5.992   5.900 -0.5139 -1.9672 -1.4443
   90SAPE   H8Y 8823   6.129   6.145   5.940  0.9299  0.3270 -0.4525
   90SAPE   C39 8824   6.026   6.014   5.800 -0.5288  0.2319  0.6805
   90SAPE   H9X 8825   5.921   6.039   5.824 -0.2867  1.0990  0.8696
   90SAPE   H9Y 8826   6.043   5.905   5.782 -0.0999  0.3659  0.2617
   90SAPE  C310 8827   6.083   6.096   5.683  0.1554  0.0265 -0.7826
   90SAPE  H10X 8828   6.194   6.104   5.688  0.2212 -1.2716  0.6448
   90SAPE  H10Y 8829   6.047   6.201   5.694 -1.0328 -0.5546  1.5168
   90SAPE  C311 8830   6.020   6.053   5.550  0.2597  0.9052  0.3143
   90SAPE  H11X 8831   6.034   6.135   5.476 -0.5397  1.8178  1.1330
   90SAPE  H11Y 8832   5.912   6.030   5.562  0.3254 -1.3264 -2.2603
   90SAPE  C312 8833   6.072   5.920   5.499  0.5086  0.1389 -0.1096
   90SAPE  H12X 8834   6.027   5.836   5.556 -0.5725 -0.5969 -1.9400
   90SAPE  H12Y 8835   6.179   5.921   5.526 -0.1414  1.3574  2.7926
   90SAPE  C313 8836   6.039   5.885   5.353 -0.1852  0.1173 -0.2537
   90SAPE  H13X 8837   5.929   5.879   5.347 -0.0656 -1.2989 -1.6332
   90SAPE  H13Y 8838   6.078   5.782   5.336 -2.6263 -0.7314 -1.1232
   90SAPE  C314 8839   6.092   5.986   5.248 -0.1284 -0.2439  0.1855
   90SAPE  H14X 8840   6.040   6.083   5.261  1.5966  0.8413 -0.7121
   90SAPE  H14Y 8841   6.067   5.951   5.146 -0.2491 -1.1382  0.5132
   90SAPE  C315 8842   6.239   6.027   5.260 -0.1422 -0.1282 -0.2126
   90SAPE  H15X 8843   6.258   6.038   5.369  1.2860 -2.7027 -0.1310
   90SAPE  H15Y 8844   6.263   6.123   5.210  0.4524  0.7401  1.6631
   90SAPE  C316 8845   6.340   5.912   5.214  0.4572  0.0137 -0.3071
   90SAPE  H16X 8846   6.342   5.823   5.281  0.8082 -0.8223 -1.3888
   90SAPE  H16Y 8847   6.437   5.961   5.238 -0.4710  1.5125  0.4784
   90SAPE  C317 8848   6.334   5.871   5.068 -0.1023  0.5691  0.4679
   90SAPE  H17X 8849   6.251   5.799   5.056  1.0838 -0.7051 -0.4709
   90SAPE  H17Y 8850   6.426   5.814   5.042 -1.7931 -2.2299  0.1530
   90SAPE  C318 8851   6.326   5.980   4.957  0.0566  0.0229  0.4719
   90SAPE  H18X 8852   6.410   6.050   4.978  1.8079 -1.5362 -0.9732
   90SAPE  H18Y 8853   6.235   6.044   4.953  0.7642  1.0566  0.4518
   90SAPE  H18Z 8854   6.338   5.931   4.858 -2.9318  1.0020 -0.4744
   91SAPE     N 8855   5.132   3.713   6.829  0.0005 -0.3622 -0.2165
   91SAPE   HN1 8856   5.078   3.659   6.899  0.5613  0.5195  0.9324
   91SAPE   HN2 8857   5.202   3.770   6.881 -0.8889  0.3092  0.2676
   91SAPE   HN3 8858   5.073   3.782   6.778 -0.8960  1.3247  2.8700
   91SAPE   C12 8859   5.213   3.635   6.726  0.4560 -0.5076 -0.4212
   91SAPE  H12A 8860   5.277   3.711   6.677  0.2754  1.0391  1.6628
   91SAPE  H12B 8861   5.146   3.591   6.648  1.9817 -2.4551 -0.7279
   91SAPE   C11 8862   5.300   3.528   6.794 -0.5184  0.0171 -0.6194
   91SAPE  H11A 8863   5.380   3.582   6.849 -0.9547  0.3587 -0.3166
   91SAPE  H11B 8864   5.343   3.457   6.720 -0.4718  0.0315 -0.6057
   91SAPE     P 8865   5.277   3.368   7.006 -0.5437 -0.4139  0.1710
   91SAPE   O13 8866   5.290   3.458   7.124 -0.0576  0.4002 -0.5355
   91SAPE   O14 8867   5.189   3.255   7.024 -0.6936 -0.5586 -0.6095
   91SAPE   O12 8868   5.223   3.461   6.894 -0.2244 -0.1136  0.7539
   91SAPE   O11 8869   5.419   3.316   6.952 -0.1286 -0.0854  0.1439
   91SAPE    C1 8870   5.435   3.201   6.876 -0.3101 -0.5441  0.4666
   91SAPE    HA 8871   5.393   3.112   6.926 -1.1682  0.0301  0.7848
   91SAPE    HB 8872   5.377   3.210   6.782  0.6368  0.0272 -0.0850
   91SAPE    C2 8873   5.588   3.168   6.838 -0.2866 -1.1080  0.4770
   91SAPE    HS 8874   5.653   3.223   6.909  2.7163  2.5657 -4.4258
   91SAPE   O21 8875   5.618   3.225   6.707  0.3985  0.5746  0.3320
   91SAPE   C21 8876   5.641   3.356   6.712  0.2709  0.8519 -0.3436
   91SAPE   O22 8877   5.650   3.426   6.815 -0.6540 -0.0426  0.1894
   91SAPE   C22 8878   5.629   3.413   6.570  0.2729 -0.0684 -0.2133
   91SAPE   H2R 8879   5.638   3.336   6.491  1.2922  0.2644 -0.4426
   91SAPE   H2S 8880   5.540   3.478   6.552  0.8336  0.8912  0.3673
   91SAPE    C3 8881   5.614   3.020   6.829  0.0326  0.1432 -0.1735
   91SAPE    HX 8882   5.591   2.983   6.931 -2.7251  2.5911  0.2299
   91SAPE    HY 8883   5.722   2.997   6.818  0.0626 -0.0789  0.5302
   91SAPE   O31 8884   5.540   2.946   6.728  0.1273  0.1212  0.2903
   91SAPE   C31 8885   5.437   2.865   6.769 -0.6023  0.2362  0.2387
   91SAPE   O32 8886   5.407   2.850   6.887  0.2528 -0.5452 -1.1633
   91SAPE   C32 8887   5.395   2.789   6.640  0.1568 -0.6516 -0.0899
   91SAPE   H2X 8888   5.451   2.693   6.638  1.8420  0.2756  0.7551
   91SAPE   H2Y 8889   5.447   2.837   6.554  0.0324 -1.0737 -0.4084
   91SAPE   C23 8890   5.758   3.501   6.550 -0.0963 -0.0444 -0.7057
   91SAPE   H3R 8891   5.846   3.434   6.563  1.3470  2.0132  0.6937
   91SAPE   H3S 8892   5.760   3.570   6.637  0.4195  0.6310 -1.2367
   91SAPE   C24 8893   5.754   3.589   6.430  1.1231 -0.1462  0.0346
   91SAPE   H4R 8894   5.761   3.513   6.350 -1.1348 -0.3877  0.0006
   91SAPE   H4S 8895   5.850   3.642   6.446  1.6095 -0.9544 -0.1967
   91SAPE   C25 8896   5.635   3.683   6.417 -0.8652  0.5110 -0.3516
   91SAPE   H5R 8897   5.653   3.777   6.470  2.3041 -1.0966  1.7422
   91SAPE   C26 8898   5.519   3.658   6.362  0.6063  0.4180  0.3785
   91SAPE   H6R 8899   5.445   3.737   6.345  0.3886  0.4300  1.3361
   91SAPE   C27 8900   5.485   3.539   6.278  1.2891  0.0725  0.3952
   91SAPE   H7R 8901   5.440   3.466   6.349  0.2167  0.0570 -0.2676
   91SAPE   H7S 8902   5.574   3.487   6.236  0.0028 -1.2998 -0.7569
   91SAPE   C28 8903   5.365   3.565   6.192  0.6621  0.0264  0.3183
   91SAPE   H8R 8904   5.278   3.613   6.240  0.9200  1.0000 -0.1517
   91SAPE   C29 8905   5.363   3.538   6.057  1.0648  0.1621 -0.9082
   91SAPE   H9R 8906   5.273   3.571   6.004 -0.4707 -0.9075  0.8645
   91SAPE  C210 8907   5.479   3.480   5.979 -0.2556  0.3239 -0.1314
   91SAPE  H10R 8908   5.437   3.399   5.915  1.8353  0.2745 -1.5519
   91SAPE  H10S 8909   5.553   3.425   6.042  2.6541  2.2455 -1.6474
   91SAPE  C211 8910   5.565   3.569   5.891 -0.1499 -0.7968  1.4381
   91SAPE  H11R 8911   5.625   3.647   5.939  0.0143 -0.4506  0.6858
   91SAPE  C212 8912   5.541   3.582   5.752 -0.0886 -0.0803  0.1828
   91SAPE  H12R 8913   5.613   3.639   5.692 -0.5050  2.3259  1.7991
   91SAPE  C213 8914   5.432   3.508   5.676  0.7735 -0.1403 -0.6305
   91SAPE  H13R 8915   5.372   3.586   5.624 -0.8449  1.0431  2.7042
   91SAPE  H13S 8916   5.362   3.456   5.745  0.1441  2.2550  0.6528
   91SAPE  C214 8917   5.482   3.401   5.584  0.1311 -0.3870  0.7145
   91SAPE  H14R 8918   5.529   3.319   5.641  2.1142  0.7363  0.7942
   91SAPE  C215 8919   5.491   3.399   5.449  0.0911  0.1507  0.2777
   91SAPE  H15R 8920   5.538   3.312   5.401  1.2616 -0.7082  2.8125
   91SAPE  C216 8921   5.447   3.515   5.363  0.5557  0.1639 -0.0640
   91SAPE  H16R 8922   5.493   3.609   5.403  1.2279 -1.0288  2.1655
   91SAPE  H16S 8923   5.337   3.527   5.371  0.4933  1.4840 -2.2009
   91SAPE  C217 8924   5.482   3.486   5.217 -0.1570  0.8715  0.0209
   91SAPE  H17R 8925   5.446   3.388   5.178  0.0143  1.2229 -1.0625
   91SAPE  H17S 8926   5.591   3.479   5.196 -0.2321  1.9832 -0.8444
   91SAPE  C218 8927   5.423   3.590   5.123 -0.4777 -0.1157 -0.3852
   91SAPE  H18R 8928   5.449   3.692   5.159 -1.6971 -0.2064  0.8055
   91SAPE  H18S 8929   5.313   3.585   5.133 -0.3145 -0.9688  1.3774
   91SAPE  C219 8930   5.472   3.566   4.979 -0.0144 -0.2025  0.6892
   91SAPE  H19R 8931   5.428   3.467   4.955 -1.7114  0.4667  0.8861
   91SAPE  H19S 8932   5.583   3.569   4.982  0.2200  3.4440 -2.7876
   91SAPE  C220 8933   5.421   3.669   4.873 -0.7010  0.5081  0.2322
   91SAPE  H20R 8934   5.483   3.761   4.875  0.0072  0.0316  0.6305
   91SAPE  H20S 8935   5.313   3.685   4.893 -1.2297  1.7256 -2.9316
   91SAPE  H20T 8936   5.416   3.640   4.766  3.5861  0.3019 -0.0780
   91SAPE   C33 8937   5.248   2.776   6.585 -0.9561 -0.4135 -0.2956
   91SAPE   H3X 8938   5.203   2.876   6.569 -3.0824 -0.7580  2.6529
   91SAPE   H3Y 8939   5.181   2.743   6.667  0.2518  0.3709  1.0402
   91SAPE   C34 8940   5.237   2.700   6.456 -0.1180  0.0254  0.2436
   91SAPE   H4X 8941   5.271   2.597   6.476 -0.1967 -0.5313 -2.1706
   91SAPE   H4Y 8942   5.295   2.753   6.377  0.4713  1.9467  1.8938
   91SAPE   C35 8943   5.096   2.696   6.390 -0.3718 -0.4503 -0.0502
   91SAPE   H5X 8944   5.051   2.797   6.372  1.3326  0.2860 -0.3545
   91SAPE   H5Y 8945   5.011   2.652   6.446 -0.5851 -0.5007 -0.4050
   91SAPE   C36 8946   5.109   2.633   6.254  0.1554  0.9242 -0.3536
   91SAPE   H6X 8947   5.188   2.556   6.265 -0.7264 -0.0845 -0.9541
   91SAPE   H6Y 8948   5.153   2.704   6.181 -0.9641 -0.0314 -2.0100
   91SAPE   C37 8949   4.977   2.572   6.209 -0.4597 -0.9760  0.1311
   91SAPE   H7X 8950   4.898   2.647   6.188 -0.1065 -0.9449 -1.1904
   91SAPE   H7Y 8951   4.944   2.501   6.288  1.4393 -0.8022  1.1698
   91SAPE   C38 8952   5.004   2.486   6.084  0.1974 -0.0175  0.3224
   91SAPE   H8X 8953   5.087   2.414   6.098  1.2992  1.0088 -0.7753
   91SAPE   H8Y 8954   5.031   2.554   6.001 -1.9922  2.6906  1.6792
   91SAPE   C39 8955   4.870   2.425   6.045 -0.0547  0.4392 -0.0134
   91SAPE   H9X 8956   4.790   2.499   6.024  2.8842  3.4182 -1.5657
   91SAPE   H9Y 8957   4.835   2.358   6.127  0.1332 -1.5119 -1.4548
   91SAPE  C310 8958   4.880   2.325   5.928  0.0633 -0.2644  0.5268
   91SAPE  H10X 8959   4.778   2.282   5.916 -0.3285  1.4011 -3.3910
   91SAPE  H10Y 8960   4.947   2.239   5.951 -0.2482 -1.4582 -2.5753
   91SAPE  C311 8961   4.914   2.392   5.794  0.0205  0.3902 -0.1143
   91SAPE  H11X 8962   5.020   2.422   5.783  0.7795 -1.4970  1.4100
   91SAPE  H11Y 8963   4.847   2.481   5.784  1.0824  1.1487 -0.6225
   91SAPE  C312 8964   4.888   2.294   5.676 -0.5637  0.3511 -0.3939
   91SAPE  H12X 8965   4.787   2.251   5.696 -0.8032  1.1071  0.1048
   91SAPE  H12Y 8966   4.959   2.210   5.688  0.5599  1.5321  1.8798
   91SAPE  C313 8967   4.893   2.363   5.543 -0.6304  0.6258  0.6925
   91SAPE  H13X 8968   4.996   2.406   5.542 -1.0050  1.7893 -3.0310
   91SAPE  H13Y 8969   4.827   2.451   5.531 -2.2144 -0.6696 -0.4782
   91SAPE  C314 8970   4.889   2.269   5.417 -0.3493 -0.0609  0.2270
   91SAPE  H14X 8971   4.943   2.177   5.450  2.3040  1.6740  1.0513
   91SAPE  H14Y 8972   4.948   2.306   5.330 -0.7076 -0.8547 -0.3633
   91SAPE  C315 8973   4.755   2.250   5.353 -0.0400 -0.3344  0.0006
   91SAPE  H15X 8974   4.712   2.345   5.315  1.5630  0.0895 -0.8445
   91SAPE  H15Y 8975   4.686   2.220   5.435 -0.4989 -1.4175 -0.7593
   91SAPE  C316 8976   4.755   2.139   5.247  0.1795 -0.0304 -0.1812
   91SAPE  H16X 8977   4.648   2.128   5.219 -1.1071 -1.5026  4.3971
   91SAPE  H16Y 8978   4.806   2.047   5.282 -0.2195 -0.6108 -1.0910
   91SAPE  C317 8979   4.828   2.179   5.122 -0.0173 -0.5557  0.1490
   91SAPE  H17X 8980   4.938   2.191   5.132 -0.0998 -0.2204  0.7016
   91SAPE  H17Y 8981   4.793   2.279   5.089  1.5219  0.1618  0.6100
   91SAPE  C318 8982   4.791   2.078   5.019  0.0468  0.9428  0.8691
   91SAPE  H18X 8983   4.682   2.058   5.017  0.2473 -0.1991  0.2704
   91SAPE  H18Y 8984   4.841   1.983   5.047  0.0462  1.0406  1.1981
   91SAPE  H18Z 8985   4.831   2.100   4.917 -1.8694  1.8210  0.2658
   92SAPE     N 8986   4.607   3.986   7.049 -0.4520  0.0662  0.4613
   92SAPE   HN1 8987   4.697   3.938   7.068  1.2626  2.5863 -0.7877
   92SAPE   HN2 8988   4.605   4.073   7.105 -0.8518  0.2200  0.2173
   92SAPE   HN3 8989   4.521   3.932   7.072 -0.2896 -0.4791 -0.1638
   92SAPE   C12 8990   4.608   4.025   6.905 -0.2070 -0.2022 -0.4671
   92SAPE  H12A 8991   4.657   3.947   6.843 -0.2217 -0.8105  0.2596
   92SAPE  H12B 8992   4.663   4.120   6.891 -1.0000  0.3862  0.2975
   92SAPE   C11 8993   4.464   4.037   6.839  0.3509  0.0288 -0.3115
   92SAPE  H11A 8994   4.407   3.953   6.885  2.7312 -1.0743  0.7795
   92SAPE  H11B 8995   4.485   4.023   6.731  2.2729  0.3167 -0.0053
   92SAPE     P 8996   4.415   4.286   6.759  0.1518 -0.3332 -0.4539
   92SAPE   O13 8997   4.278   4.292   6.705  0.2804 -0.0490 -0.2025
   92SAPE   O14 8998   4.467   4.408   6.821 -0.0671 -0.4743  0.5276
   92SAPE   O12 8999   4.418   4.166   6.878 -0.4834  0.5618 -0.2635
   92SAPE   O11 9000   4.507   4.227   6.644 -0.4004  0.6527 -0.7428
   92SAPE    C1 9001   4.543   4.309   6.539  0.7806  0.2301 -0.3499
   92SAPE    HA 9002   4.456   4.358   6.490  0.2363 -0.5526 -0.1934
   92SAPE    HB 9003   4.608   4.390   6.577  0.4347 -0.8089  2.7224
   92SAPE    C2 9004   4.628   4.239   6.436 -0.2436  0.2035 -0.3540
   92SAPE    HS 9005   4.660   4.312   6.359  1.9627 -0.5103 -0.2101
   92SAPE   O21 9006   4.545   4.133   6.383 -0.0705  0.2561  0.4562
   92SAPE   C21 9007   4.556   4.099   6.258  0.0042 -0.2241  0.1793
   92SAPE   O22 9008   4.647   4.138   6.182 -0.1736  0.0594 -0.6741
   92SAPE   C22 9009   4.444   4.008   6.216  0.5620  0.9145 -0.6816
   92SAPE   H2R 9010   4.432   3.914   6.275  3.1645 -1.7437 -3.9727
   92SAPE   H2S 9011   4.354   4.062   6.252 -0.0236 -0.8908  0.7894
   92SAPE    C3 9012   4.753   4.169   6.505  1.0871  0.0365 -0.1670
   92SAPE    HX 9013   4.793   4.100   6.428  0.8073  0.9323 -1.1418
   92SAPE    HY 9014   4.715   4.097   6.580  0.7244  0.3314 -0.0573
   92SAPE   O31 9015   4.849   4.258   6.561  0.1331  0.1449 -0.0715
   92SAPE   C31 9016   4.978   4.222   6.561  0.4285  0.0164  0.2423
   92SAPE   O32 9017   5.015   4.109   6.531  0.5042 -0.0644 -0.5813
   92SAPE   C32 9018   5.064   4.330   6.613  0.6712 -0.3573  0.1430
   92SAPE   H2X 9019   5.092   4.299   6.717  0.1698  2.3721  1.1656
   92SAPE   H2Y 9020   5.005   4.422   6.630  2.2443  1.1266 -1.9429
   92SAPE   C23 9021   4.440   3.966   6.068 -0.2145  0.3166 -0.1057
   92SAPE   H3R 9022   4.444   4.058   6.005 -0.9369  1.4321  1.3905
   92SAPE   H3S 9023   4.345   3.911   6.057 -0.1163 -0.8232  3.5005
   92SAPE   C24 9024   4.564   3.882   6.018  0.5540  0.2114  0.5522
   92SAPE   H4R 9025   4.657   3.937   6.045  0.4224  0.5569  0.3168
   92SAPE   H4S 9026   4.553   3.895   5.908  3.2891  1.8002  0.3576
   92SAPE   C25 9027   4.575   3.736   6.066  0.1405  0.2855 -0.3747
   92SAPE   H5R 9028   4.560   3.725   6.174 -1.0088  0.6076 -0.4917
   92SAPE   C26 9029   4.596   3.624   5.986  0.7912  0.8108  0.1211
   92SAPE   H6R 9030   4.613   3.531   6.041 -0.2250 -0.4880 -1.6321
   92SAPE   C27 9031   4.609   3.617   5.835  0.1006  0.3497  0.2597
   92SAPE   H7R 9032   4.639   3.516   5.801 -0.6518  0.2876 -0.2565
   92SAPE   H7S 9033   4.701   3.669   5.802  0.7556 -0.9454  0.0177
   92SAPE   C28 9034   4.501   3.667   5.751  0.3629  0.1650  0.0658
   92SAPE   H8R 9035   4.424   3.718   5.811  1.5205 -1.8894  3.6108
   92SAPE   C29 9036   4.491   3.664   5.613 -0.2031  0.0654  0.9119
   92SAPE   H9R 9037   4.406   3.702   5.554 -0.0665 -1.8116 -0.5827
   92SAPE  C210 9038   4.589   3.599   5.522 -0.4384  0.0664 -0.7439
   92SAPE  H10R 9039   4.543   3.508   5.479  2.2067 -1.4074 -0.6069
   92SAPE  H10S 9040   4.678   3.569   5.582 -0.7710  3.6905  1.9562
   92SAPE  C211 9041   4.627   3.690   5.409 -0.2498 -0.0942 -0.0456
   92SAPE  H11R 9042   4.664   3.790   5.434  0.7893 -0.7801  1.2654
   92SAPE  C212 9043   4.633   3.650   5.276  0.0001 -0.1582  0.0498
   92SAPE  H12R 9044   4.638   3.723   5.194 -2.5638 -1.8225 -1.7460
   92SAPE  C213 9045   4.592   3.511   5.228  0.4735 -0.0768 -0.9374
   92SAPE  H13R 9046   4.548   3.529   5.128 -0.8953  1.3499 -0.1222
   92SAPE  H13S 9047   4.510   3.467   5.288  0.2384  1.0044 -0.4260
   92SAPE  C214 9048   4.718   3.426   5.204  0.7258 -0.3023 -0.3252
   92SAPE  H14R 9049   4.810   3.472   5.165  0.8289 -0.1521  0.0859
   92SAPE  C215 9050   4.734   3.298   5.230  0.0914  0.1302  0.9124
   92SAPE  H15R 9051   4.831   3.249   5.215 -1.9614 -3.6896 -1.2051
   92SAPE  C216 9052   4.638   3.206   5.302  1.0193  0.2107  0.1149
   92SAPE  H16R 9053   4.590   3.133   5.233  1.5186 -0.1413  0.1332
   92SAPE  H16S 9054   4.561   3.264   5.357  1.3756  0.3811  0.4397
   92SAPE  C217 9055   4.717   3.142   5.423 -0.0942  0.2379 -0.0159
   92SAPE  H17R 9056   4.790   3.065   5.393 -0.3587 -1.1258  2.5709
   92SAPE  H17S 9057   4.642   3.078   5.474  2.0298 -1.2277  1.4192
   92SAPE  C218 9058   4.770   3.241   5.527 -0.1138 -0.6358  0.2569
   92SAPE  H18R 9059   4.712   3.336   5.535 -0.0375 -0.6165  0.6086
   92SAPE  H18S 9060   4.873   3.267   5.494 -0.5398  1.0914  0.1993
   92SAPE  C219 9061   4.787   3.208   5.671 -0.2960 -0.4545  0.7171
   92SAPE  H19R 9062   4.708   3.134   5.699 -0.8621  0.8487  2.8180
   92SAPE  H19S 9063   4.771   3.303   5.727 -0.0724  0.3412 -0.5422
   92SAPE  C220 9064   4.919   3.154   5.712  0.8134  0.6801 -0.0015
   92SAPE  H20R 9065   4.919   3.137   5.822 -2.1013 -1.9560 -0.3100
   92SAPE  H20S 9066   4.989   3.237   5.687  0.8438  0.3629 -0.9756
   92SAPE  H20T 9067   4.948   3.064   5.655  2.9898  1.7607 -0.7240
   92SAPE   C33 9068   5.189   4.349   6.521 -0.2921  0.1076 -0.4581
   92SAPE   H3X 9069   5.275   4.284   6.549  0.5795  0.2729 -2.5861
   92SAPE   H3Y 9070   5.232   4.447   6.550  1.8262 -0.5558 -1.1825
   92SAPE   C34 9071   5.170   4.346   6.372  0.0338 -0.3045  0.3485
   92SAPE   H4X 9072   5.075   4.394   6.340  1.2692  1.3599 -0.9991
   92SAPE   H4Y 9073   5.159   4.245   6.326 -0.2720 -0.2586  0.3170
   92SAPE   C35 9074   5.284   4.417   6.285  0.2326 -0.2391 -0.1162
   92SAPE   H5X 9075   5.383   4.367   6.289 -0.1098 -0.9260 -0.0548
   92SAPE   H5Y 9076   5.270   4.516   6.334 -3.6961 -0.7821  0.2069
   92SAPE   C36 9077   5.252   4.434   6.134 -0.4654 -0.3669  0.2638
   92SAPE   H6X 9078   5.295   4.532   6.107 -0.2836 -0.0759  1.5307
   92SAPE   H6Y 9079   5.145   4.457   6.116 -0.0407  0.8889 -0.7953
   92SAPE   C37 9080   5.321   4.328   6.042 -0.0844  0.8586  0.0573
   92SAPE   H7X 9081   5.268   4.231   6.052 -0.0348  1.0317  2.4360
   92SAPE   H7Y 9082   5.426   4.307   6.070 -0.2478  0.2991  0.2589
   92SAPE   C38 9083   5.347   4.368   5.893  0.5614  0.2905  0.0862
   92SAPE   H8X 9084   5.419   4.300   5.842  0.5288 -1.8223  2.6802
   92SAPE   H8Y 9085   5.394   4.468   5.888  0.1827  0.4616 -0.0878
   92SAPE   C39 9086   5.213   4.366   5.821  0.1767  0.0061  0.3761
   92SAPE   H9X 9087   5.137   4.415   5.885  0.2689 -0.9349  1.2252
   92SAPE   H9Y 9088   5.175   4.262   5.819  0.8906 -0.2947  1.4786
   92SAPE  C310 9089   5.219   4.429   5.679 -0.4754 -0.3111 -0.3839
   92SAPE  H10X 9090   5.293   4.512   5.682  1.3580 -1.8873  0.1304
   92SAPE  H10Y 9091   5.115   4.460   5.655 -0.0218 -0.1757 -2.2827
   92SAPE  C311 9092   5.270   4.339   5.569  0.7032 -0.1279 -0.2497
   92SAPE  H11X 9093   5.229   4.237   5.582  1.0941 -0.4528 -1.4188
   92SAPE  H11Y 9094   5.380   4.321   5.569  1.5783  3.6221 -3.7901
   92SAPE  C312 9095   5.216   4.403   5.444  0.4223  0.5070 -0.6019
   92SAPE  H12X 9096   5.255   4.507   5.443 -1.8036  1.4590  1.6095
   92SAPE  H12Y 9097   5.106   4.408   5.461  0.6850  1.1995  1.0783
   92SAPE  C313 9098   5.243   4.313   5.318  0.0422 -0.4146  0.3051
   92SAPE  H13X 9099   5.221   4.206   5.340  1.0287 -0.4274  1.3052
   92SAPE  H13Y 9100   5.350   4.325   5.291  0.4609 -0.8963  1.6466
   92SAPE  C314 9101   5.162   4.360   5.198  0.3402  0.2115  0.0041
   92SAPE  H14X 9102   5.197   4.460   5.163  1.1753 -0.3732 -0.8796
   92SAPE  H14Y 9103   5.053   4.358   5.218  0.3705 -1.0609  0.1010
   92SAPE  C315 9104   5.183   4.268   5.076 -0.2748 -0.0440  0.0732
   92SAPE  H15X 9105   5.180   4.159   5.099 -2.0537  0.1737  1.0131
   92SAPE  H15Y 9106   5.285   4.286   5.034  0.3074 -3.7042 -0.4847
   92SAPE  C316 9107   5.076   4.281   4.968 -0.0177 -0.8181  0.6859
   92SAPE  H16X 9108   5.060   4.390   4.951 -1.8275 -0.9172  1.6272
   92SAPE  H16Y 9109   4.985   4.228   5.002 -1.0286 -0.5822 -1.4762
   92SAPE  C317 9110   5.113   4.196   4.846 -0.4985 -0.6366  0.7082
   92SAPE  H17X 9111   5.140   4.098   4.890  1.0260  0.2702  1.8964
   92SAPE  H17Y 9112   5.208   4.233   4.801 -0.3541 -1.2836  0.4742
   92SAPE  C318 9113   5.005   4.173   4.739 -0.6664 -0.5667 -0.1075
   92SAPE  H18X 9114   4.959   4.268   4.705  0.1645 -0.5184 -1.1558
   92SAPE  H18Y 9115   4.931   4.108   4.792 -0.9251 -0.2292 -0.0528
   92SAPE  H18Z 9116   5.042   4.113   4.652  1.1454 -2.9190  2.1330
   93SAPE     N 9117   5.616   0.174   7.173 -0.0746 -0.1333 -0.0973
   93SAPE   HN1 9118   5.568   0.247   7.115  0.8753  1.6501  1.2639
   93SAPE   HN2 9119   5.566   0.086   7.151 -0.9531  0.1182  0.8431
   93SAPE   HN3 9120   5.614   0.211   7.270 -0.3050  2.2477 -0.9326
   93SAPE   C12 9121   5.760   0.166   7.135  0.2520  0.3835 -0.1470
   93SAPE  H12A 9122   5.811   0.094   7.203 -0.8927 -1.6486 -1.3209
   93SAPE  H12B 9123   5.816   0.262   7.141  3.9588 -1.3875 -2.1851
   93SAPE   C11 9124   5.766   0.107   6.992 -0.3209 -0.3524 -0.4251
   93SAPE  H11A 9125   5.715   0.181   6.928 -0.1673  2.0918  2.1094
   93SAPE  H11B 9126   5.708   0.012   6.979  2.1996 -2.2525  1.2145
   93SAPE     P 9127   6.005  -0.013   7.005 -0.2356 -0.0474 -0.2313
   93SAPE   O13 9128   6.093   0.052   7.106 -0.3591  0.2131 -0.2263
   93SAPE   O14 9129   5.928  -0.124   7.060 -0.5239  0.4495  0.0029
   93SAPE   O12 9130   5.902   0.095   6.950  0.6792  0.5023  0.1511
   93SAPE   O11 9131   6.087  -0.065   6.875 -0.1800  0.2294  0.2240
   93SAPE    C1 9132   6.149   0.008   6.767  0.4403  0.6499 -0.0152
   93SAPE    HA 9133   6.080  -0.009   6.682  2.6051  0.6726 -1.8556
   93SAPE    HB 9134   6.161   0.116   6.790  2.1693  0.4737  0.0708
   93SAPE    C2 9135   6.291  -0.046   6.737 -0.0918  0.2171  0.5751
   93SAPE    HS 9136   6.334   0.019   6.657  1.5392 -0.1393  1.1311
   93SAPE   O21 9137   6.268  -0.183   6.704 -0.0556  0.2796 -0.2855
   93SAPE   C21 9138   6.230  -0.217   6.578 -0.7768 -0.4289  0.6414
   93SAPE   O22 9139   6.206  -0.138   6.486 -0.0556  0.2258 -0.0107
   93SAPE   C22 9140   6.230  -0.366   6.572  0.5985  0.4851 -0.4028
   93SAPE   H2R 9141   6.257  -0.411   6.671 -0.1590  1.2658  0.1700
   93SAPE   H2S 9142   6.127  -0.407   6.562  1.3728 -1.3686 -1.2158
   93SAPE    C3 9143   6.390  -0.035   6.854  0.3008 -0.0258  0.1811
   93SAPE    HX 9144   6.348  -0.076   6.949  1.7860  1.2701  1.4654
   93SAPE    HY 9145   6.400   0.073   6.878 -1.4393 -0.0680  1.3419
   93SAPE   O31 9146   6.514  -0.097   6.818  0.5802  0.8622  1.0481
   93SAPE   C31 9147   6.526  -0.225   6.871 -0.3891 -0.4591 -0.4982
   93SAPE   O32 9148   6.456  -0.271   6.957  0.0765 -0.3861 -0.0957
   93SAPE   C32 9149   6.647  -0.296   6.804  0.6232  0.3129 -0.1054
   93SAPE   H2X 9150   6.662  -0.389   6.863 -0.7775  0.0842 -0.0940
   93SAPE   H2Y 9151   6.737  -0.233   6.825  0.5853  0.9653 -1.7914
   93SAPE   C23 9152   6.318  -0.445   6.471 -0.4828  0.2449  0.1621
   93SAPE   H3R 9153   6.386  -0.509   6.532  0.3324  0.6583 -0.3012
   93SAPE   H3S 9154   6.382  -0.368   6.423 -2.1557  1.2548 -0.5220
   93SAPE   C24 9155   6.227  -0.498   6.366 -0.4402 -0.5359 -0.0753
   93SAPE   H4R 9156   6.176  -0.410   6.319  0.9684 -0.6420 -1.9280
   93SAPE   H4S 9157   6.143  -0.561   6.402 -1.0327 -0.9503 -2.0379
   93SAPE   C25 9158   6.303  -0.583   6.264 -0.1548  0.4538 -0.3656
   93SAPE   H5R 9159   6.322  -0.687   6.296  0.6343  0.4476 -0.8403
   93SAPE   C26 9160   6.324  -0.544   6.137 -0.0222 -0.0743  0.3868
   93SAPE   H6R 9161   6.384  -0.609   6.072  0.7994 -0.5664  1.5907
   93SAPE   C27 9162   6.292  -0.409   6.080  0.7545  0.0801 -0.2592
   93SAPE   H7R 9163   6.295  -0.321   6.148 -0.4377  0.2071 -0.3431
   93SAPE   H7S 9164   6.196  -0.413   6.024  0.5461 -0.0881  0.1014
   93SAPE   C28 9165   6.388  -0.374   5.973 -0.1967  0.8970 -0.2598
   93SAPE   H8R 9166   6.490  -0.350   6.006  0.1959  2.0273 -2.1350
   93SAPE   C29 9167   6.366  -0.349   5.841 -0.3088 -0.0078  0.1017
   93SAPE   H9R 9168   6.444  -0.322   5.768 -0.7605  0.3059 -0.2646
   93SAPE  C210 9169   6.230  -0.360   5.775 -0.0947  0.0868  0.8598
   93SAPE  H10R 9170   6.167  -0.447   5.802 -2.0734  1.2925  0.3405
   93SAPE  H10S 9171   6.256  -0.367   5.667 -1.3648 -0.4063  0.5718
   93SAPE  C211 9172   6.137  -0.242   5.811 -0.0935 -0.4365  0.1334
   93SAPE  H11R 9173   6.135  -0.205   5.915  0.6703 -1.0806  0.3921
   93SAPE  C212 9174   6.047  -0.193   5.720  0.2522  0.1355  0.1420
   93SAPE  H12R 9175   5.982  -0.108   5.745  0.9224  0.9684 -0.8578
   93SAPE  C213 9176   6.030  -0.232   5.576 -0.1458  0.3900 -0.3724
   93SAPE  H13R 9177   5.996  -0.338   5.568 -2.1510  0.9302  0.3706
   93SAPE  H13S 9178   6.129  -0.229   5.525 -0.5279  0.5803 -1.1268
   93SAPE  C214 9179   5.919  -0.164   5.504 -0.0233  0.0007  0.6413
   93SAPE  H14R 9180   5.847  -0.115   5.571 -0.0302 -1.6564  1.8830
   93SAPE  C215 9181   5.910  -0.159   5.369 -0.1209  0.1550 -0.2593
   93SAPE  H15R 9182   5.821  -0.119   5.318 -0.8069 -0.0395  0.7584
   93SAPE  C216 9183   6.012  -0.229   5.274  0.0711 -0.0214  0.0804
   93SAPE  H16R 9184   6.110  -0.252   5.322 -0.0030  0.2658  0.3750
   93SAPE  H16S 9185   6.039  -0.163   5.189 -1.9818  1.4530  0.5071
   93SAPE  C217 9186   5.949  -0.347   5.199 -0.1013  0.2692 -0.1396
   93SAPE  H17R 9187   5.907  -0.425   5.265  0.1054 -0.8954 -1.3347
   93SAPE  H17S 9188   6.023  -0.396   5.132 -1.1401 -0.1202 -1.0386
   93SAPE  C218 9189   5.839  -0.308   5.105  0.1247 -0.2115 -0.5867
   93SAPE  H18R 9190   5.866  -0.216   5.048  3.4050 -0.2142  0.7280
   93SAPE  H18S 9191   5.743  -0.286   5.156 -1.3488 -3.8302 -1.4928
   93SAPE  C219 9192   5.828  -0.403   4.989  0.6603 -0.3694  0.1568
   93SAPE  H19R 9193   5.926  -0.440   4.950  0.9279  0.1147  0.3611
   93SAPE  H19S 9194   5.777  -0.356   4.902  2.6268  0.2938 -0.6985
   93SAPE  C220 9195   5.734  -0.517   5.031  0.6847  0.0871  0.1930
   93SAPE  H20R 9196   5.644  -0.467   5.072  2.0062  1.4866  1.5327
   93SAPE  H20S 9197   5.776  -0.591   5.103 -1.9557 -0.0482  1.7423
   93SAPE  H20T 9198   5.704  -0.576   4.942  0.2595  1.3417 -0.5218
   93SAPE   C33 9199   6.623  -0.339   6.657 -0.0792 -0.0986 -0.6464
   93SAPE   H3X 9200   6.533  -0.405   6.647  0.1887 -0.9370  1.8477
   93SAPE   H3Y 9201   6.707  -0.407   6.633 -0.2707 -1.6782  2.6296
   93SAPE   C34 9202   6.614  -0.222   6.565  0.2129 -0.4126  0.1877
   93SAPE   H4X 9203   6.681  -0.138   6.594 -1.0250  0.2937  1.1223
   93SAPE   H4Y 9204   6.513  -0.176   6.567 -0.1239 -1.0139 -1.4813
   93SAPE   C35 9205   6.636  -0.264   6.425 -0.4022  0.5939  0.7443
   93SAPE   H5X 9206   6.582  -0.359   6.404  1.7865 -0.5019 -0.2128
   93SAPE   H5Y 9207   6.746  -0.283   6.420 -0.2700  0.7625  2.3134
   93SAPE   C36 9208   6.611  -0.160   6.315 -0.2456 -0.7676  0.3926
   93SAPE   H6X 9209   6.506  -0.128   6.297 -0.5008 -1.8564 -0.1613
   93SAPE   H6Y 9210   6.635  -0.213   6.221 -1.7143 -2.1215  0.7364
   93SAPE   C37 9211   6.681  -0.021   6.337 -0.2063  0.2465  0.6893
   93SAPE   H7X 9212   6.787  -0.030   6.367  0.0975  1.2931 -0.0325
   93SAPE   H7Y 9213   6.608   0.027   6.407 -2.6631  0.1952 -1.6628
   93SAPE   C38 9214   6.686   0.062   6.209 -0.1322 -0.6306  0.7286
   93SAPE   H8X 9215   6.721   0.166   6.226  0.5184 -0.6584 -0.3292
   93SAPE   H8Y 9216   6.582   0.072   6.173  0.4783  2.2703 -0.5135
   93SAPE   C39 9217   6.774   0.010   6.098 -0.0544 -0.0349 -0.2524
   93SAPE   H9X 9218   6.801  -0.096   6.117  2.5035  0.6046  0.1503
   93SAPE   H9Y 9219   6.865   0.075   6.106  0.1035 -0.5019  3.0756
   93SAPE  C310 9220   6.703   0.019   5.958  0.4552 -0.5056  0.3586
   93SAPE  H10X 9221   6.646   0.113   5.938 -2.1305 -2.0693 -0.0698
   93SAPE  H10Y 9222   6.626  -0.060   5.959  0.2137 -0.3531 -1.5042
   93SAPE  C311 9223   6.789  -0.006   5.833  0.5470 -0.1752 -0.3150
   93SAPE  H11X 9224   6.831  -0.109   5.831  1.1299  0.0665 -2.4469
   93SAPE  H11Y 9225   6.860   0.079   5.824 -0.6742  0.9413  0.3861
   93SAPE  C312 9226   6.713  -0.007   5.702 -0.0891 -0.5715  0.2404
   93SAPE  H12X 9227   6.785  -0.027   5.620 -0.8300  0.7876 -0.7856
   93SAPE  H12Y 9228   6.656   0.087   5.687 -0.6062 -0.9331 -0.1274
   93SAPE  C313 9229   6.613  -0.116   5.689  0.6519  0.1715  0.2071
   93SAPE  H13X 9230   6.522  -0.099   5.752  1.3263  1.9305  0.7807
   93SAPE  H13Y 9231   6.665  -0.209   5.720 -0.0174  0.0561  1.0033
   93SAPE  C314 9232   6.561  -0.141   5.550 -0.1653 -0.8345  0.2411
   93SAPE  H14X 9233   6.505  -0.236   5.548 -1.9679  0.1067  2.0360
   93SAPE  H14Y 9234   6.650  -0.148   5.484  0.3462 -1.7559  0.9926
   93SAPE  C315 9235   6.476  -0.029   5.497  0.1007  1.1647  0.3104
   93SAPE  H15X 9236   6.540   0.061   5.478 -1.0644  1.7262 -1.1449
   93SAPE  H15Y 9237   6.390  -0.008   5.565 -0.6716 -1.7818  0.3493
   93SAPE  C316 9238   6.412  -0.064   5.358  0.9847 -0.6097  0.4034
   93SAPE  H16X 9239   6.361  -0.163   5.358 -2.1064  0.8327 -1.4071
   93SAPE  H16Y 9240   6.492  -0.083   5.283 -0.8230 -0.1039 -1.7669
   93SAPE  C317 9241   6.325   0.053   5.309  0.6584 -0.0055 -0.3324
   93SAPE  H17X 9242   6.287   0.037   5.205 -2.1166  0.3267  0.5441
   93SAPE  H17Y 9243   6.387   0.145   5.311  0.5689  0.0513  1.8495
   93SAPE  C318 9244   6.199   0.084   5.399 -0.5372 -0.5357 -0.1691
   93SAPE  H18X 9245   6.230   0.165   5.468  0.4124  2.1259 -3.4604
   93SAPE  H18Y 9246   6.171  -0.012   5.449 -0.2233 -0.7745 -0.4464
   93SAPE  H18Z 9247   6.111   0.121   5.342  0.4361  1.4114 -0.4813
   94SAPE     N 9248   1.805   1.249   7.207 -0.3311 -0.3389  0.1346
   94SAPE   HN1 9249   1.725   1.230   7.270 -1.1160 -3.3248 -1.5510
   94SAPE   HN2 9250   1.856   1.158   7.200  0.4711  0.1998 -2.0852
   94SAPE   HN3 9251   1.870   1.313   7.256 -0.8925  0.8627 -0.6216
   94SAPE   C12 9252   1.757   1.323   7.085 -0.4788  0.0947 -0.4267
   94SAPE  H12A 9253   1.784   1.261   6.997  3.7096 -1.6890  1.8874
   94SAPE  H12B 9254   1.831   1.405   7.080 -0.6621  0.4397  1.5898
   94SAPE   C11 9255   1.609   1.359   7.083 -1.0222 -0.1882  0.1246
   94SAPE  H11A 9256   1.607   1.400   6.980 -1.4921  1.8540  0.8960
   94SAPE  H11B 9257   1.578   1.440   7.153  1.3231  1.5187 -0.6893
   94SAPE     P 9258   1.370   1.245   7.088 -0.0408 -0.1241  0.3305
   94SAPE   O13 9259   1.319   1.118   7.028 -0.3808  0.1667 -0.0584
   94SAPE   O14 9260   1.322   1.280   7.225 -0.2074  0.4132 -0.3714
   94SAPE   O12 9261   1.530   1.239   7.083 -0.3283  0.1996 -0.3337
   94SAPE   O11 9262   1.348   1.373   6.995  0.2751 -0.6011  0.4287
   94SAPE    C1 9263   1.292   1.358   6.859  0.2924 -0.4123  0.4427
   94SAPE    HA 9264   1.357   1.421   6.794  2.5893 -1.5753  1.5369
   94SAPE    HB 9265   1.312   1.253   6.830 -0.2362 -0.9853  2.0552
   94SAPE    C2 9266   1.146   1.421   6.847  0.9570 -0.1743  0.3216
   94SAPE    HS 9267   1.131   1.463   6.745  1.8686  0.2897  0.3707
   94SAPE   O21 9268   1.121   1.523   6.945 -0.8024  0.2305 -0.1027
   94SAPE   C21 9269   1.212   1.616   6.943 -0.2195 -0.4806 -0.4708
   94SAPE   O22 9270   1.304   1.629   6.864  0.7788 -0.1224  0.2424
   94SAPE   C22 9271   1.194   1.711   7.065 -0.8412  0.1844  0.0107
   94SAPE   H2R 9272   1.092   1.696   7.106 -0.5500  0.8671  1.0133
   94SAPE   H2S 9273   1.272   1.685   7.140 -0.3057 -2.0189 -1.2169
   94SAPE    C3 9274   1.035   1.314   6.871 -0.0367  0.2859  0.4779
   94SAPE    HX 9275   0.935   1.362   6.858  0.3237  0.9995  0.2933
   94SAPE    HY 9276   1.048   1.284   6.977 -1.9956 -1.5855  0.2522
   94SAPE   O31 9277   1.057   1.215   6.766 -0.2571 -0.1329  0.1920
   94SAPE   C31 9278   1.032   1.089   6.796 -0.5642 -0.1496  0.3850
   94SAPE   O32 9279   0.998   1.047   6.903  0.2078 -0.3081  0.3341
   94SAPE   C32 9280   1.059   1.008   6.679 -0.0963 -0.4574  0.0820
   94SAPE   H2X 9281   1.169   0.991   6.674  0.0231  0.2800  0.0996
   94SAPE   H2Y 9282   1.034   1.054   6.582  0.1717  0.7622  0.5754
   94SAPE   C23 9283   1.206   1.859   7.035  0.2473  0.4587 -0.4388
   94SAPE   H3R 9284   1.303   1.873   6.983  0.0855 -0.8023 -1.1146
   94SAPE   H3S 9285   1.210   1.917   7.130 -2.0016  0.4102 -0.2653
   94SAPE   C24 9286   1.089   1.919   6.946 -0.3117 -0.0573 -0.3020
   94SAPE   H4R 9287   1.000   1.916   7.012 -0.9580  0.0092 -1.1636
   94SAPE   H4S 9288   1.069   1.849   6.862 -1.8046 -0.2018  0.1416
   94SAPE   C25 9289   1.108   2.055   6.905 -0.4361 -0.0975  0.2931
   94SAPE   H5R 9290   1.150   2.113   6.989  1.5601 -2.1172  0.7972
   94SAPE   C26 9291   1.122   2.111   6.784 -0.7788  0.8637 -0.3893
   94SAPE   H6R 9292   1.142   2.219   6.779 -1.5971  1.1362  1.4267
   94SAPE   C27 9293   1.085   2.039   6.658  0.0843  0.0819  0.5298
   94SAPE   H7R 9294   1.032   2.108   6.588  0.4820 -2.6853 -2.8002
   94SAPE   H7S 9295   1.018   1.953   6.679  0.9571 -0.9113 -0.5865
   94SAPE   C28 9296   1.198   1.993   6.566 -0.8493 -0.1306 -0.2016
   94SAPE   H8R 9297   1.213   1.884   6.570  2.7284  0.2310 -0.3042
   94SAPE   C29 9298   1.276   2.068   6.479  0.0078  0.6250 -0.5779
   94SAPE   H9R 9299   1.357   2.014   6.428 -1.7636 -2.9928  0.0998
   94SAPE  C210 9300   1.254   2.212   6.439 -0.0725  0.0272  0.7551
   94SAPE  H10R 9301   1.350   2.258   6.410 -0.5680  0.5911 -0.0276
   94SAPE  H10S 9302   1.209   2.282   6.513 -1.2531  1.2189 -0.9988
   94SAPE  C211 9303   1.178   2.227   6.312 -0.1060  0.3275 -0.0144
   94SAPE  H11R 9304   1.073   2.254   6.330  0.0905  1.2734 -0.2349
   94SAPE  C212 9305   1.228   2.217   6.188  0.3933  0.2291  0.1655
   94SAPE  H12R 9306   1.159   2.236   6.104  1.3212 -0.3057 -0.7366
   94SAPE  C213 9307   1.367   2.189   6.153 -0.0032  0.2384  0.1603
   94SAPE  H13R 9308   1.370   2.109   6.076 -0.1659 -0.4990  0.9010
   94SAPE  H13S 9309   1.416   2.127   6.232  0.2091  0.5833  0.2982
   94SAPE  C214 9310   1.446   2.312   6.125  0.0118 -0.0852 -0.9050
   94SAPE  H14R 9311   1.523   2.336   6.200 -2.3053  1.2449  1.1638
   94SAPE  C215 9312   1.434   2.391   6.009 -0.9574  0.5027  0.1439
   94SAPE  H15R 9313   1.489   2.486   6.002 -0.4972  0.3307  1.2610
   94SAPE  C216 9314   1.335   2.364   5.897 -0.2413  0.0879  0.8306
   94SAPE  H16R 9315   1.282   2.462   5.887  0.8408  0.6127 -0.0943
   94SAPE  H16S 9316   1.275   2.275   5.925  0.4375 -0.1190  1.6726
   94SAPE  C217 9317   1.400   2.350   5.756  0.1534 -0.1565  0.1712
   94SAPE  H17R 9318   1.440   2.446   5.717  0.5788  0.9379  3.0264
   94SAPE  H17S 9319   1.320   2.320   5.685 -0.5172 -0.5879  1.0907
   94SAPE  C218 9320   1.520   2.248   5.735  0.2454  0.1447 -0.5232
   94SAPE  H18R 9321   1.489   2.167   5.805 -5.9224  4.8508  3.1558
   94SAPE  H18S 9322   1.609   2.299   5.777  0.4681 -1.2245  0.7468
   94SAPE  C219 9323   1.560   2.234   5.583 -0.0931  0.4425 -0.1917
   94SAPE  H19R 9324   1.663   2.195   5.575  0.0734  1.2221 -2.7393
   94SAPE  H19S 9325   1.580   2.338   5.550 -2.6771  1.3710  0.8909
   94SAPE  C220 9326   1.457   2.164   5.495 -0.6111  0.1003  0.1836
   94SAPE  H20R 9327   1.504   2.147   5.396  0.3347 -0.1390  0.6695
   94SAPE  H20S 9328   1.368   2.230   5.486  0.4120  1.5688  0.5278
   94SAPE  H20T 9329   1.433   2.066   5.540  2.1825  0.5127  2.8973
   94SAPE   C33 9330   0.984   0.870   6.694 -0.3340 -0.1147 -0.5555
   94SAPE   H3X 9331   0.879   0.890   6.723 -0.3600 -0.3148 -0.5103
   94SAPE   H3Y 9332   1.032   0.821   6.781  0.7451  0.2128 -0.9547
   94SAPE   C34 9333   0.989   0.766   6.577 -0.1970  0.5006  0.3765
   94SAPE   H4X 9334   0.926   0.679   6.607 -0.5739 -0.2115 -2.2750
   94SAPE   H4Y 9335   1.094   0.730   6.574 -0.8548 -1.5166  0.2150
   94SAPE   C35 9336   0.943   0.830   6.448 -0.5600 -0.1463  0.6834
   94SAPE   H5X 9337   1.020   0.889   6.393 -0.1128 -0.6663  0.7436
   94SAPE   H5Y 9338   0.858   0.899   6.465  1.0974  2.6375 -1.4555
   94SAPE   C36 9339   0.895   0.720   6.349  0.0791  0.3643  0.1006
   94SAPE   H6X 9340   0.821   0.649   6.392  2.0860 -1.2341  1.0617
   94SAPE   H6Y 9341   0.988   0.663   6.326  0.6839  0.7184  1.5521
   94SAPE   C37 9342   0.833   0.778   6.226  0.0095 -0.0071  0.0243
   94SAPE   H7X 9343   0.906   0.847   6.180  0.8256 -1.9744 -1.8126
   94SAPE   H7Y 9344   0.740   0.832   6.254  1.7352  1.6179  3.0571
   94SAPE   C38 9345   0.784   0.672   6.122  0.4635 -0.3545  0.1595
   94SAPE   H8X 9346   0.708   0.610   6.174 -0.6066  0.5092 -0.3376
   94SAPE   H8Y 9347   0.872   0.610   6.096  1.4350  1.1865 -0.3533
   94SAPE   C39 9348   0.722   0.739   5.995 -0.6543 -0.5559  0.3453
   94SAPE   H9X 9349   0.790   0.816   5.953 -3.4818  0.5285 -2.6938
   94SAPE   H9Y 9350   0.627   0.791   6.019 -1.2154 -0.6771 -1.4683
   94SAPE  C310 9351   0.701   0.634   5.887  0.4572 -0.1565  0.1225
   94SAPE  H10X 9352   0.611   0.572   5.906 -0.1947  0.0182 -2.0637
   94SAPE  H10Y 9353   0.786   0.564   5.875  0.0878 -1.1304  2.6261
   94SAPE  C311 9354   0.673   0.719   5.764 -0.2509  0.5173 -0.2926
   94SAPE  H11X 9355   0.746   0.793   5.725  0.4608  0.7995  1.4807
   94SAPE  H11Y 9356   0.590   0.787   5.793 -0.2190 -0.6378  2.9096
   94SAPE  C312 9357   0.626   0.625   5.648  0.2197 -0.3005 -0.0824
   94SAPE  H12X 9358   0.526   0.577   5.661  0.1513 -0.2541 -0.4283
   94SAPE  H12Y 9359   0.697   0.541   5.651 -0.3670 -0.7755  0.8521
   94SAPE  C313 9360   0.629   0.680   5.506  0.3242  0.0333  0.2909
   94SAPE  H13X 9361   0.560   0.766   5.503  0.3324  0.0127 -1.6326
   94SAPE  H13Y 9362   0.589   0.594   5.448  0.4931  0.4474 -0.4592
   94SAPE  C314 9363   0.773   0.716   5.450 -0.0160  0.3497  1.2356
   94SAPE  H14X 9364   0.839   0.628   5.466 -0.5587 -0.7843 -2.0253
   94SAPE  H14Y 9365   0.808   0.811   5.496  0.1106  0.3786  1.0797
   94SAPE  C315 9366   0.764   0.736   5.300  0.7143  0.2271  0.2408
   94SAPE  H15X 9367   0.684   0.811   5.280  2.0235  1.1486 -2.0326
   94SAPE  H15Y 9368   0.733   0.644   5.245 -0.6830 -0.4506  2.0779
   94SAPE  C316 9369   0.887   0.793   5.236 -0.9434 -0.1003  0.1302
   94SAPE  H16X 9370   0.971   0.720   5.240 -3.0498 -2.8485 -1.8870
   94SAPE  H16Y 9371   0.926   0.885   5.286 -0.2718 -0.4267  0.2150
   94SAPE  C317 9372   0.860   0.821   5.088 -0.2342  0.2049 -0.4702
   94SAPE  H17X 9373   0.828   0.927   5.083 -1.9222 -0.0076  2.8412
   94SAPE  H17Y 9374   0.767   0.768   5.059  0.1124  0.8009 -2.8104
   94SAPE  C318 9375   0.956   0.769   4.993 -0.0621  0.2091  0.4129
   94SAPE  H18X 9376   1.041   0.839   4.977  0.3670 -0.8645 -2.5380
   94SAPE  H18Y 9377   0.912   0.767   4.891  0.4626  0.9558  0.1579
   94SAPE  H18Z 9378   0.989   0.666   5.017  0.4772 -0.0115 -1.1514
   95SAPE     N 9379   4.614   3.466   7.508 -0.1344  0.3350 -0.1215
   95SAPE   HN1 9380   4.604   3.367   7.477  0.0112 -0.1775  1.4055
   95SAPE   HN2 9381   4.698   3.512   7.467  1.0088 -1.3491  0.2246
   95SAPE   HN3 9382   4.618   3.468   7.612 -2.0107  2.0283 -0.0159
   95SAPE   C12 9383   4.501   3.555   7.454  0.3909  0.0494 -0.2764
   95SAPE  H12A 9384   4.527   3.660   7.482 -1.1870  0.2203  0.6852
   95SAPE  H12B 9385   4.404   3.524   7.499 -0.1192  0.6043 -0.9791
   95SAPE   C11 9386   4.476   3.548   7.304 -0.3241 -0.0302  0.5200
   95SAPE  H11A 9387   4.387   3.609   7.277 -0.3993 -0.6075 -0.6042
   95SAPE  H11B 9388   4.444   3.443   7.288  2.8079 -0.8949 -0.9739
   95SAPE     P 9389   4.618   3.518   7.087  0.5367 -0.3285 -0.1032
   95SAPE   O13 9390   4.686   3.619   7.006 -1.2027  0.4150  0.3960
   95SAPE   O14 9391   4.698   3.396   7.112  0.5468 -0.5198 -0.7759
   95SAPE   O12 9392   4.593   3.585   7.230 -0.2596  0.0627  0.2091
   95SAPE   O11 9393   4.472   3.484   7.045  0.3643 -0.3011 -0.1816
   95SAPE    C1 9394   4.391   3.578   6.982  0.8698 -0.5516  0.0070
   95SAPE    HA 9395   4.325   3.620   7.061  0.0838 -0.0262 -0.9114
   95SAPE    HB 9396   4.439   3.673   6.951 -0.5180  0.2507  0.2333
   95SAPE    C2 9397   4.314   3.523   6.855  0.0598 -0.0510 -0.4746
   95SAPE    HS 9398   4.234   3.458   6.895  0.2155 -0.7017 -1.1869
   95SAPE   O21 9399   4.399   3.442   6.767  0.2166  0.7606  0.4613
   95SAPE   C21 9400   4.430   3.321   6.805  0.5396 -0.3435  0.4447
   95SAPE   O22 9401   4.381   3.249   6.892 -0.2408 -0.6652  0.0842
   95SAPE   C22 9402   4.540   3.276   6.713 -0.3431  0.7265  0.0986
   95SAPE   H2R 9403   4.537   3.340   6.622  1.3981  0.5313 -0.1252
   95SAPE   H2S 9404   4.641   3.291   6.757 -0.4719  1.4322  0.1584
   95SAPE    C3 9405   4.238   3.635   6.773  0.1862  0.4796  0.9050
   95SAPE    HX 9406   4.186   3.691   6.853 -0.3999 -2.2852  2.5803
   95SAPE    HY 9407   4.166   3.586   6.704  0.2142 -0.9731  1.8496
   95SAPE   O31 9408   4.339   3.718   6.710 -0.3985  0.0428  0.1836
   95SAPE   C31 9409   4.362   3.698   6.585 -0.2840  0.9963  0.4026
   95SAPE   O32 9410   4.312   3.606   6.516  0.2582 -0.2255 -0.4878
   95SAPE   C32 9411   4.478   3.792   6.554 -0.0255  0.2930  0.2098
   95SAPE   H2X 9412   4.527   3.820   6.650  0.4750 -3.2401  1.1628
   95SAPE   H2Y 9413   4.422   3.876   6.508  0.4860 -0.2386 -1.4489
   95SAPE   C23 9414   4.515   3.136   6.663  0.2274 -0.3885  0.1035
   95SAPE   H3R 9415   4.432   3.141   6.590  1.6784  2.9380 -1.5592
   95SAPE   H3S 9416   4.491   3.064   6.744  3.2725 -0.5933  0.9432
   95SAPE   C24 9417   4.644   3.088   6.590  0.1317  0.2856 -0.5229
   95SAPE   H4R 9418   4.734   3.114   6.649  1.1673 -3.0012 -0.4763
   95SAPE   H4S 9419   4.645   3.134   6.489 -1.8622 -0.7372 -1.0734
   95SAPE   C25 9420   4.645   2.941   6.555  0.4077 -0.5049  0.3303
   95SAPE   H5R 9421   4.639   2.875   6.643 -0.7393  2.7452  2.8984
   95SAPE   C26 9422   4.650   2.876   6.435  0.0577 -0.4650 -0.1324
   95SAPE   H6R 9423   4.639   2.766   6.431 -3.9852 -0.2270 -0.5900
   95SAPE   C27 9424   4.618   2.942   6.306  0.3133 -0.7707 -0.4536
   95SAPE   H7R 9425   4.556   3.032   6.326  2.8313  0.5772  1.9071
   95SAPE   H7S 9426   4.562   2.874   6.238 -0.4392  1.3844 -2.0905
   95SAPE   C28 9427   4.735   2.999   6.233 -0.1180 -0.3601  0.3563
   95SAPE   H8R 9428   4.811   3.040   6.301  0.5257  0.3966 -0.7870
   95SAPE   C29 9429   4.770   3.001   6.103  0.4601 -0.2359  0.1477
   95SAPE   H9R 9430   4.872   3.027   6.072  1.2666 -3.4958 -0.2767
   95SAPE  C210 9431   4.692   2.948   5.988 -0.8407  0.3365 -0.1724
   95SAPE  H10R 9432   4.688   3.028   5.911 -1.2572  0.7556  0.2825
   95SAPE  H10S 9433   4.585   2.928   6.010 -0.3475 -1.9967  0.4155
   95SAPE  C211 9434   4.767   2.830   5.931 -0.1333  0.2009  1.0171
   95SAPE  H11R 9435   4.854   2.808   5.995  0.2183  0.9368  0.7963
   95SAPE  C212 9436   4.745   2.756   5.823  0.3190 -0.1315 -0.4807
   95SAPE  H12R 9437   4.814   2.675   5.796 -0.8296 -0.6921 -1.8785
   95SAPE  C213 9438   4.630   2.772   5.727  0.6356  0.3113 -0.7559
   95SAPE  H13R 9439   4.632   2.863   5.664 -1.1477 -0.1467 -1.5472
   95SAPE  H13S 9440   4.533   2.782   5.781  0.0145  0.0275 -1.7926
   95SAPE  C214 9441   4.612   2.643   5.652 -0.7638 -0.2839  0.5319
   95SAPE  H14R 9442   4.603   2.551   5.712  0.1963 -0.8451 -0.1675
   95SAPE  C215 9443   4.611   2.630   5.519  0.2568  0.7816 -0.3238
   95SAPE  H15R 9444   4.587   2.531   5.478 -0.8984  0.8472  0.1602
   95SAPE  C216 9445   4.635   2.744   5.423  0.2292 -0.4854 -0.0447
   95SAPE  H16R 9446   4.718   2.727   5.352  3.0876  1.0987  2.6723
   95SAPE  H16S 9447   4.671   2.837   5.472  0.5803 -1.0510  0.8056
   95SAPE  C217 9448   4.503   2.772   5.343  1.0632  0.5025  0.0928
   95SAPE  H17R 9449   4.517   2.857   5.272 -2.2753 -1.6254 -3.4971
   95SAPE  H17S 9450   4.427   2.810   5.415 -0.4344 -0.0878 -1.1208
   95SAPE  C218 9451   4.453   2.650   5.259  0.2334 -0.7680  0.9537
   95SAPE  H18R 9452   4.368   2.690   5.200  1.9358 -0.4455 -1.4407
   95SAPE  H18S 9453   4.411   2.569   5.322 -0.2929 -0.3056  1.2045
   95SAPE  C219 9454   4.549   2.590   5.146 -0.2116  0.0008 -0.4421
   95SAPE  H19R 9455   4.625   2.537   5.207  1.8231 -0.0318 -2.8321
   95SAPE  H19S 9456   4.593   2.673   5.088 -0.6765  0.7835  0.3063
   95SAPE  C220 9457   4.478   2.488   5.056 -0.3987 -0.1278 -0.2994
   95SAPE  H20R 9458   4.404   2.541   4.993  0.3923 -1.0266 -2.0645
   95SAPE  H20S 9459   4.417   2.410   5.106  1.8756 -1.5037  0.4792
   95SAPE  H20T 9460   4.546   2.435   4.985  0.1255 -1.2740  1.0069
   95SAPE   C33 9461   4.568   3.725   6.451 -0.6099 -0.4730  0.7125
   95SAPE   H3X 9462   4.632   3.803   6.404 -0.4997  0.0148  1.6363
   95SAPE   H3Y 9463   4.517   3.687   6.360  0.0431  0.8029 -0.2039
   95SAPE   C34 9464   4.659   3.614   6.502  0.8874 -0.0177 -0.2279
   95SAPE   H4X 9465   4.604   3.552   6.576  0.2132  2.2602  1.2990
   95SAPE   H4Y 9466   4.748   3.661   6.550  0.3039  1.5565 -0.6075
   95SAPE   C35 9467   4.712   3.521   6.395 -0.3862  0.3483  0.4101
   95SAPE   H5X 9468   4.777   3.575   6.323 -0.5886 -0.7267 -0.6103
   95SAPE   H5Y 9469   4.636   3.463   6.338 -0.1938 -1.6850  2.0959
   95SAPE   C36 9470   4.804   3.421   6.458 -0.0585  0.0294  0.4104
   95SAPE   H6X 9471   4.750   3.353   6.527  0.4390 -0.9126 -0.1000
   95SAPE   H6Y 9472   4.888   3.478   6.503 -0.1482  0.6977 -0.2618
   95SAPE   C37 9473   4.875   3.336   6.353 -0.1891  0.1994 -0.4930
   95SAPE   H7X 9474   4.910   3.398   6.268 -1.0925  0.2221 -0.8577
   95SAPE   H7Y 9475   4.802   3.269   6.303 -1.8480  2.1635 -0.8447
   95SAPE   C38 9476   4.998   3.268   6.422 -0.0274 -0.3918  0.2595
   95SAPE   H8X 9477   4.980   3.214   6.518  0.0062 -2.2809 -0.7432
   95SAPE   H8Y 9478   5.059   3.355   6.456 -2.5058  0.8834  1.6639
   95SAPE   C39 9479   5.073   3.188   6.322  0.0481  0.3230  0.4387
   95SAPE   H9X 9480   5.101   3.242   6.229  1.4723 -0.2043  0.5352
   95SAPE   H9Y 9481   5.013   3.098   6.294  2.3715 -1.6733  1.5406
   95SAPE  C310 9482   5.199   3.136   6.389  0.8127 -0.0183 -0.2344
   95SAPE  H10X 9483   5.175   3.087   6.486  1.8957 -0.4161 -0.1603
   95SAPE  H10Y 9484   5.260   3.217   6.433 -1.8064  0.9793  1.8644
   95SAPE  C311 9485   5.275   3.041   6.300 -0.7497 -0.4980  0.0395
   95SAPE  H11X 9486   5.222   2.997   6.214  2.2033 -1.1911 -1.5473
   95SAPE  H11Y 9487   5.285   2.956   6.372 -0.6512  0.8311  1.6554
   95SAPE  C312 9488   5.414   3.086   6.266  0.2730 -0.0463  0.0265
   95SAPE  H12X 9489   5.472   3.103   6.359  1.2995  0.9645 -0.7626
   95SAPE  H12Y 9490   5.401   3.193   6.239 -0.2656 -0.3038 -0.7802
   95SAPE  C313 9491   5.487   3.006   6.163 -1.1042  0.3662 -0.0576
   95SAPE  H13X 9492   5.419   2.940   6.105 -2.1679  0.1055  1.4180
   95SAPE  H13Y 9493   5.560   2.941   6.215 -0.8468  1.7277  1.3776
   95SAPE  C314 9494   5.553   3.103   6.057  0.4131 -0.7444 -0.7414
   95SAPE  H14X 9495   5.618   3.180   6.103 -0.7167 -0.1197 -0.1424
   95SAPE  H14Y 9496   5.474   3.166   6.010 -2.5125 -4.7454 -1.6766
   95SAPE  C315 9497   5.641   3.036   5.949 -0.4367  0.4926  0.7758
   95SAPE  H15X 9498   5.588   2.947   5.909  0.6501  1.3398 -2.8760
   95SAPE  H15Y 9499   5.740   3.009   5.993 -0.1253  0.8522  0.3126
   95SAPE  C316 9500   5.669   3.122   5.833  0.3527 -0.5562  0.4933
   95SAPE  H16X 9501   5.568   3.155   5.800 -0.1668 -1.3162  1.2942
   95SAPE  H16Y 9502   5.727   3.074   5.751  0.0938  0.2979 -0.2079
   95SAPE  C317 9503   5.757   3.245   5.858  0.1192  0.8286 -0.5482
   95SAPE  H17X 9504   5.838   3.208   5.924 -0.8335 -1.5082 -0.5920
   95SAPE  H17Y 9505   5.695   3.312   5.922 -0.1126 -2.6236  3.2098
   95SAPE  C318 9506   5.810   3.318   5.740 -0.2581  0.4933  0.5443
   95SAPE  H18X 9507   5.850   3.235   5.679 -1.0584  0.2398  0.3464
   95SAPE  H18Y 9508   5.896   3.378   5.776  0.0087  0.8531 -0.6669
   95SAPE  H18Z 9509   5.733   3.373   5.681  2.1881  1.8726 -1.5362
   96SAPE     N 9510   6.379   3.131   7.501  0.5071  0.4079 -0.3849
   96SAPE   HN1 9511   6.397   3.031   7.480  0.6363 -0.3047  2.6511
   96SAPE   HN2 9512   6.391   3.196   7.421 -1.7500  0.5958 -0.6425
   96SAPE   HN3 9513   6.434   3.179   7.575 -0.7583  3.1458 -1.0802
   96SAPE   C12 9514   6.245   3.149   7.563 -0.1163  0.2132  0.5422
   96SAPE  H12A 9515   6.228   3.259   7.561 -0.9532  0.0893 -1.5341
   96SAPE  H12B 9516   6.241   3.112   7.668  0.3995 -0.9346  0.1649
   96SAPE   C11 9517   6.139   3.086   7.475 -0.0438 -0.1025 -0.5359
   96SAPE  H11A 9518   6.148   3.142   7.379  4.6723  0.8516  0.2095
   96SAPE  H11B 9519   6.048   3.102   7.537 -0.3325 -2.9669 -0.1167
   96SAPE     P 9520   6.054   2.847   7.388 -0.2667 -0.1375  0.5648
   96SAPE   O13 9521   6.061   2.723   7.468 -0.1314  0.3506 -0.5363
   96SAPE   O14 9522   5.926   2.909   7.357 -0.0468  0.1049 -0.0783
   96SAPE   O12 9523   6.146   2.949   7.463 -0.3036 -0.0678  0.7504
   96SAPE   O11 9524   6.128   2.804   7.256  0.4552  0.3260 -0.1950
   96SAPE    C1 9525   6.220   2.887   7.181 -0.4329  0.0671 -0.7155
   96SAPE    HA 9526   6.173   2.987   7.171  2.7200  1.5549 -2.5441
   96SAPE    HB 9527   6.322   2.898   7.225 -1.0952 -0.5274  1.0420
   96SAPE    C2 9528   6.239   2.840   7.040  0.8169 -0.8521  0.7172
   96SAPE    HS 9529   6.328   2.773   7.046  0.9774 -0.6723  0.3630
   96SAPE   O21 9530   6.279   2.959   6.965 -0.8137 -0.0294 -0.1443
   96SAPE   C21 9531   6.358   2.941   6.863  0.1751  0.2770 -0.1255
   96SAPE   O22 9532   6.396   2.835   6.809  0.5948 -0.1035  0.3761
   96SAPE   C22 9533   6.384   3.080   6.793 -0.4294  0.3884 -0.2516
   96SAPE   H2R 9534   6.300   3.147   6.819 -0.6166  0.4171 -0.9071
   96SAPE   H2S 9535   6.484   3.114   6.829 -0.7247  0.5209  0.4531
   96SAPE    C3 9536   6.124   2.762   6.979  0.0733 -0.4341 -0.1252
   96SAPE    HX 9537   6.040   2.834   6.977  0.9524  0.6076 -1.6603
   96SAPE    HY 9538   6.096   2.686   7.055  1.2945  0.9334  1.7431
   96SAPE   O31 9539   6.138   2.711   6.848  0.6620  0.1195  1.0044
   96SAPE   C31 9540   6.210   2.609   6.833 -0.6785  0.7870 -0.0415
   96SAPE   O32 9541   6.266   2.549   6.927 -0.0823 -0.3935 -0.5203
   96SAPE   C32 9542   6.223   2.567   6.687 -0.9611 -0.2189 -0.1122
   96SAPE   H2X 9543   6.157   2.478   6.674 -2.0327  0.1938  2.0719
   96SAPE   H2Y 9544   6.328   2.539   6.663 -0.4959  0.9992  0.4295
   96SAPE   C23 9545   6.409   3.058   6.637  0.6557  0.1052 -0.5615
   96SAPE   H3R 9546   6.318   3.018   6.589 -0.4846 -0.3692  1.8505
   96SAPE   H3S 9547   6.492   2.986   6.618 -0.5086 -1.1586 -1.0648
   96SAPE   C24 9548   6.446   3.189   6.576 -0.3799  0.2126 -0.7089
   96SAPE   H4R 9549   6.494   3.162   6.480  0.5295 -0.7003 -0.0097
   96SAPE   H4S 9550   6.524   3.242   6.634 -1.6168  0.6695  0.5870
   96SAPE   C25 9551   6.326   3.291   6.566 -0.1006 -0.3650 -0.3248
   96SAPE   H5R 9552   6.270   3.298   6.661  0.5939  0.7813  0.0212
   96SAPE   C26 9553   6.283   3.349   6.449 -0.2939 -0.2820 -1.0898
   96SAPE   H6R 9554   6.196   3.416   6.445  1.1597  1.6558 -2.3231
   96SAPE   C27 9555   6.357   3.342   6.319  0.1747  0.1879  0.4005
   96SAPE   H7R 9556   6.466   3.360   6.333  0.3058 -0.6663  0.5070
   96SAPE   H7S 9557   6.319   3.425   6.256  1.2828 -0.0642 -0.6511
   96SAPE   C28 9558   6.346   3.213   6.243  0.1646 -0.5000 -0.5397
   96SAPE   H8R 9559   6.387   3.133   6.306 -1.8290 -0.8952  0.3629
   96SAPE   C29 9560   6.323   3.204   6.109 -0.3655  0.0428  0.2692
   96SAPE   H9R 9561   6.296   3.102   6.077 -0.6930  0.0482  0.5147
   96SAPE  C210 9562   6.286   3.311   6.011  0.0853 -0.1087 -0.4372
   96SAPE  H10R 9563   6.378   3.329   5.952  0.9725 -1.5808  0.4319
   96SAPE  H10S 9564   6.239   3.409   6.036 -0.3009 -0.2987 -0.4067
   96SAPE  C211 9565   6.185   3.249   5.912  0.0794 -0.1356 -0.4138
   96SAPE  H11R 9566   6.118   3.173   5.953  2.7436 -2.5242 -0.1573
   96SAPE  C212 9567   6.182   3.267   5.776 -0.0407  0.2730 -0.8510
   96SAPE  H12R 9568   6.093   3.225   5.726 -0.7628 -0.4148  0.9545
   96SAPE  C213 9569   6.264   3.364   5.702 -0.7154  0.5122 -0.3441
   96SAPE  H13R 9570   6.359   3.317   5.669 -0.2195  0.3631  1.1759
   96SAPE  H13S 9571   6.298   3.442   5.775 -0.0166 -0.9611  0.9771
   96SAPE  C214 9572   6.188   3.432   5.588 -0.8762 -0.0753 -0.5726
   96SAPE  H14R 9573   6.148   3.531   5.613 -3.3673 -0.4913 -2.5140
   96SAPE  C215 9574   6.177   3.380   5.467 -0.0450 -0.4234 -0.2538
   96SAPE  H15R 9575   6.118   3.428   5.389  2.1227 -0.1942 -1.8345
   96SAPE  C216 9576   6.248   3.258   5.412 -1.0155 -0.4841 -0.6761
   96SAPE  H16R 9577   6.305   3.204   5.490  0.3866  1.7640 -0.0547
   96SAPE  H16S 9578   6.311   3.284   5.325  0.8441  3.2788  1.5466
   96SAPE  C217 9579   6.146   3.155   5.379  0.3767  0.0404  0.1709
   96SAPE  H17R 9580   6.082   3.180   5.292 -1.9086 -1.2796  1.3835
   96SAPE  H17S 9581   6.077   3.143   5.465  0.7473  1.0066  0.6224
   96SAPE  C218 9582   6.217   3.025   5.330 -0.4336 -0.0930  0.7256
   96SAPE  H18R 9583   6.266   2.968   5.412  0.8757 -2.3984 -1.5173
   96SAPE  H18S 9584   6.302   3.049   5.263 -0.3032 -1.3950  0.4001
   96SAPE  C219 9585   6.115   2.929   5.255  0.3508  0.3161  0.0912
   96SAPE  H19R 9586   6.170   2.833   5.245 -1.7414 -0.7108 -2.9820
   96SAPE  H19S 9587   6.105   2.973   5.154  0.2290 -0.6851 -0.3405
   96SAPE  C220 9588   5.967   2.912   5.305 -0.2738  0.5232 -0.0328
   96SAPE  H20R 9589   5.918   2.833   5.245  1.7722 -1.0127  0.1992
   96SAPE  H20S 9590   5.916   3.008   5.287  2.7004  2.5441  1.3880
   96SAPE  H20T 9591   5.978   2.891   5.414  0.6307 -0.7443 -0.3481
   96SAPE   C33 9592   6.186   2.673   6.587  0.2717 -0.0044 -0.1132
   96SAPE   H3X 9593   6.255   2.757   6.607  0.9067 -1.2877  3.8989
   96SAPE   H3Y 9594   6.082   2.713   6.591  0.5934  0.9440 -0.7718
   96SAPE   C34 9595   6.200   2.622   6.441  0.0318  0.2060  0.0572
   96SAPE   H4X 9596   6.153   2.521   6.434  0.8379 -0.0479 -2.8427
   96SAPE   H4Y 9597   6.304   2.601   6.409 -0.1710 -0.3519 -0.2528
   96SAPE   C35 9598   6.133   2.707   6.332  0.2033 -0.3057  0.1320
   96SAPE   H5X 9599   6.172   2.810   6.343 -1.1889  0.2636 -0.1655
   96SAPE   H5Y 9600   6.024   2.699   6.347 -0.1415 -1.1034 -2.3807
   96SAPE   C36 9601   6.162   2.657   6.190  1.0767 -0.0426  0.6760
   96SAPE   H6X 9602   6.122   2.555   6.173 -0.5671  0.3310  1.9829
   96SAPE   H6Y 9603   6.268   2.674   6.163  0.9990 -1.3354 -0.5605
   96SAPE   C37 9604   6.083   2.747   6.094 -0.1384 -0.1787  0.4425
   96SAPE   H7X 9605   6.052   2.833   6.158 -0.3576 -1.0267  1.5113
   96SAPE   H7Y 9606   5.991   2.698   6.056 -0.5072  0.6111  0.2851
   96SAPE   C38 9607   6.174   2.799   5.983 -0.1498 -0.3610  0.6875
   96SAPE   H8X 9608   6.215   2.717   5.921 -2.3837 -0.0640 -1.3292
   96SAPE   H8Y 9609   6.260   2.852   6.029  1.2365 -0.6909 -1.3973
   96SAPE   C39 9610   6.117   2.914   5.890  0.1348 -0.5014 -0.1996
   96SAPE   H9X 9611   6.210   2.965   5.856  1.1879 -2.5158 -0.5345
   96SAPE   H9Y 9612   6.068   2.985   5.959  0.2441 -1.0867  0.4901
   96SAPE  C310 9613   6.055   2.863   5.762  0.5659  0.5503  0.5794
   96SAPE  H10X 9614   6.116   2.780   5.721  0.2581  1.3429 -1.6184
   96SAPE  H10Y 9615   6.053   2.936   5.679 -0.3593  0.1414  0.2229
   96SAPE  C311 9616   5.917   2.792   5.779 -0.0233 -0.1765 -0.8214
   96SAPE  H11X 9617   5.846   2.847   5.844  1.2497  1.6133 -0.8556
   96SAPE  H11Y 9618   5.919   2.687   5.816 -2.4746 -0.8887 -2.5263
   96SAPE  C312 9619   5.846   2.775   5.646  0.0929 -0.3084 -0.3680
   96SAPE  H12X 9620   5.902   2.699   5.588 -0.4520 -0.5231 -0.6144
   96SAPE  H12Y 9621   5.858   2.871   5.591  0.5090 -0.8151 -1.1755
   96SAPE  C313 9622   5.698   2.728   5.657 -0.1302  0.2899 -0.0227
   96SAPE  H13X 9623   5.648   2.816   5.704 -0.7714  0.2067 -0.5362
   96SAPE  H13Y 9624   5.702   2.645   5.731  1.8536 -0.5484 -1.0050
   96SAPE  C314 9625   5.647   2.691   5.517  0.2870  0.0487 -0.4896
   96SAPE  H14X 9626   5.564   2.618   5.524  2.3571 -2.3793  0.3234
   96SAPE  H14Y 9627   5.731   2.642   5.463 -0.7743 -0.9366 -1.2760
   96SAPE  C315 9628   5.602   2.820   5.440 -0.9002  0.4619  0.1031
   96SAPE  H15X 9629   5.681   2.897   5.424  0.2334 -0.8197 -0.6827
   96SAPE  H15Y 9630   5.524   2.862   5.507  0.5357 -1.9858  3.6059
   96SAPE  C316 9631   5.532   2.782   5.305  0.3631 -0.2309  0.4816
   96SAPE  H16X 9632   5.471   2.695   5.340 -0.0474  0.2923  1.1020
   96SAPE  H16Y 9633   5.597   2.740   5.225  0.9339  1.3081  0.1128
   96SAPE  C317 9634   5.441   2.895   5.248 -0.0815  0.6536  0.0289
   96SAPE  H17X 9635   5.370   2.923   5.329 -2.6573 -1.5262 -1.3214
   96SAPE  H17Y 9636   5.381   2.856   5.163  0.4169 -2.4471  0.9934
   96SAPE  C318 9637   5.502   3.025   5.204 -0.3084  0.4437 -0.0200
   96SAPE  H18X 9638   5.429   3.071   5.134 -0.1276 -1.4063 -1.5011
   96SAPE  H18Y 9639   5.598   3.016   5.148  0.9694 -0.3386  2.1799
   96SAPE  H18Z 9640   5.514   3.093   5.292 -2.7892 -1.7966  2.2407
   97SAPE     N 9641   0.829   3.858   7.358  0.2980 -0.0097  0.0112
   97SAPE   HN1 9642   0.780   3.888   7.445  2.8155  0.4973  1.3537
   97SAPE   HN2 9643   0.931   3.873   7.368  0.2137  0.1231  0.7588
   97SAPE   HN3 9644   0.793   3.911   7.276 -0.4668  1.7798  1.4250
   97SAPE   C12 9645   0.789   3.716   7.361  0.3682 -1.1943 -0.1029
   97SAPE  H12A 9646   0.879   3.666   7.403  1.4780  0.0313 -0.9205
   97SAPE  H12B 9647   0.782   3.689   7.253  0.0727 -0.7654 -0.1946
   97SAPE   C11 9648   0.652   3.686   7.426  0.4394  0.3666 -1.5313
   97SAPE  H11A 9649   0.654   3.724   7.531 -2.1360  0.7284 -1.5399
   97SAPE  H11B 9650   0.636   3.577   7.421 -0.4476  0.4085 -0.1785
   97SAPE     P 9651   0.412   3.691   7.318 -0.2284 -0.0810  0.0617
   97SAPE   O13 9652   0.374   3.594   7.426  0.6898 -0.2027 -0.0170
   97SAPE   O14 9653   0.317   3.795   7.298  0.3763 -0.3932 -0.2879
   97SAPE   O12 9654   0.546   3.756   7.363  0.1757  0.2987  0.7486
   97SAPE   O11 9655   0.462   3.618   7.190  0.6147 -0.4140  0.2074
   97SAPE    C1 9656   0.476   3.694   7.067 -0.3298  0.4652 -0.7323
   97SAPE    HA 9657   0.436   3.798   7.067  0.4703  0.7897  0.2718
   97SAPE    HB 9658   0.579   3.727   7.044 -0.3733 -0.1593 -1.9284
   97SAPE    C2 9659   0.441   3.612   6.936  0.0556 -0.6921  0.3621
   97SAPE    HS 9660   0.535   3.624   6.877 -1.0564  2.4102 -1.0153
   97SAPE   O21 9661   0.331   3.671   6.869  0.0147 -0.2394  0.1105
   97SAPE   C21 9662   0.368   3.744   6.767  0.3560 -0.3314 -0.6721
   97SAPE   O22 9663   0.481   3.742   6.718  0.6338 -0.2545  0.5521
   97SAPE   C22 9664   0.259   3.849   6.728 -0.2594  0.5674 -0.6537
   97SAPE   H2R 9665   0.164   3.794   6.713 -0.0569  0.3370 -1.0990
   97SAPE   H2S 9666   0.252   3.934   6.800 -1.2462  0.5524 -0.7212
   97SAPE    C3 9667   0.419   3.460   6.963 -0.9647  0.2843 -0.0922
   97SAPE    HX 9668   0.319   3.442   7.007 -1.3041  1.0762 -0.5331
   97SAPE    HY 9669   0.485   3.418   7.043 -0.8484 -1.0732 -0.8701
   97SAPE   O31 9670   0.440   3.388   6.834 -0.0422 -0.3528 -0.5095
   97SAPE   C31 9671   0.410   3.265   6.847 -0.4006  1.1007  0.3319
   97SAPE   O32 9672   0.370   3.207   6.946  0.2609  0.0900 -0.0169
   97SAPE   C32 9673   0.420   3.198   6.700 -0.1932 -0.4653  0.2533
   97SAPE   H2X 9674   0.503   3.256   6.654  0.7506  0.2154  2.6771
   97SAPE   H2Y 9675   0.319   3.202   6.655 -1.5888 -2.1952  2.9416
   97SAPE   C23 9676   0.302   3.911   6.587 -0.5019 -0.0977 -0.7942
   97SAPE   H3R 9677   0.336   3.829   6.521  0.9724  0.2069 -0.4562
   97SAPE   H3S 9678   0.385   3.979   6.616 -0.5228 -0.9216  1.4454
   97SAPE   C24 9679   0.189   3.997   6.529  1.2145  1.1859 -0.3332
   97SAPE   H4R 9680   0.223   4.058   6.443 -0.1790  1.1142 -0.9763
   97SAPE   H4S 9681   0.165   4.071   6.608 -1.3271  1.0299 -0.8585
   97SAPE   C25 9682   0.057   3.921   6.496 -0.1314  0.9981  0.2074
   97SAPE   H5R 9683  -0.003   3.906   6.587 -0.2535  0.6430  0.0703
   97SAPE   C26 9684   0.007   3.875   6.373 -0.1495  0.2476  0.0552
   97SAPE   H6R 9685  -0.095   3.833   6.369 -1.5677  3.1859  1.4957
   97SAPE   C27 9686   0.063   3.896   6.238  0.4710  0.6641  0.1398
   97SAPE   H7R 9687   0.147   3.968   6.240  2.6022 -1.5821 -2.0681
   97SAPE   H7S 9688  -0.022   3.941   6.181 -1.2870 -1.8773  0.5787
   97SAPE   C28 9689   0.112   3.774   6.162  0.6283  0.0534 -0.0557
   97SAPE   H8R 9690   0.123   3.687   6.229 -2.5374 -0.1102  0.4141
   97SAPE   C29 9691   0.107   3.749   6.032  0.5760  0.2870 -0.3311
   97SAPE   H9R 9692   0.125   3.645   5.999  0.3957 -0.0049  0.4749
   97SAPE  C210 9693   0.093   3.851   5.922 -0.1704  0.0312 -0.1900
   97SAPE  H10R 9694   0.008   3.923   5.930  0.3020  0.7897 -1.5142
   97SAPE  H10S 9695   0.066   3.789   5.833 -0.7654 -0.5927  0.4092
   97SAPE  C211 9696   0.211   3.935   5.910  0.5634  0.4031 -0.2847
   97SAPE  H11R 9697   0.243   3.981   6.005  0.2653 -0.7076  0.3781
   97SAPE  C212 9698   0.286   3.944   5.796  0.3352  0.1209 -0.1689
   97SAPE  H12R 9699   0.374   4.010   5.801  1.2787 -1.1817  2.3202
   97SAPE  C213 9700   0.257   3.896   5.661 -0.3209 -0.7257 -0.0110
   97SAPE  H13R 9701   0.281   3.974   5.586 -1.1998 -0.8903 -0.4758
   97SAPE  H13S 9702   0.147   3.882   5.653  0.0127 -3.7363 -0.4223
   97SAPE  C214 9703   0.312   3.766   5.619  0.3380  0.5843  0.7794
   97SAPE  H14R 9704   0.331   3.695   5.701  1.8476  0.2027  0.1300
   97SAPE  C215 9705   0.367   3.732   5.500 -0.2935 -0.4050  0.2495
   97SAPE  H15R 9706   0.397   3.628   5.482  0.8560  0.2311 -1.9459
   97SAPE  C216 9707   0.345   3.817   5.377 -0.1129  1.0386 -0.3674
   97SAPE  H16R 9708   0.438   3.822   5.315  0.4686 -0.2192  0.3685
   97SAPE  H16S 9709   0.322   3.924   5.396 -1.7930  0.9220 -1.4924
   97SAPE  C217 9710   0.241   3.754   5.278 -0.2553  0.0559  0.1844
   97SAPE  H17R 9711   0.143   3.759   5.330 -1.0439 -1.3251 -1.0786
   97SAPE  H17S 9712   0.234   3.645   5.256 -0.0489 -0.5007  2.5286
   97SAPE  C218 9713   0.236   3.821   5.135 -0.1510  0.6068 -0.1822
   97SAPE  H18R 9714   0.320   3.796   5.067 -0.9114 -0.3134 -0.8067
   97SAPE  H18S 9715   0.240   3.928   5.164 -2.5626  0.0827  2.5492
   97SAPE  C219 9716   0.104   3.812   5.059  0.7608 -0.1306 -0.3809
   97SAPE  H19R 9717   0.112   3.866   4.963  1.5366 -3.2652 -2.2179
   97SAPE  H19S 9718   0.013   3.855   5.105  2.0690  1.1595  1.1199
   97SAPE  C220 9719   0.080   3.667   5.007 -0.0528  0.7133  0.1662
   97SAPE  H20R 9720   0.145   3.651   4.918  0.5340 -0.5687  0.7893
   97SAPE  H20S 9721  -0.026   3.653   4.975  0.1904 -1.2079  0.0673
   97SAPE  H20T 9722   0.107   3.590   5.083  0.1552  0.5439 -0.0786
   97SAPE   C33 9723   0.462   3.053   6.688  0.1594 -0.2997  0.0759
   97SAPE   H3X 9724   0.392   2.987   6.744  2.3980 -2.4273  0.5174
   97SAPE   H3Y 9725   0.561   3.023   6.728  0.0136  1.0565  1.5580
   97SAPE   C34 9726   0.458   3.002   6.540 -0.2067 -0.2979  0.0831
   97SAPE   H4X 9727   0.375   3.046   6.482  1.8436 -0.0873 -2.9318
   97SAPE   H4Y 9728   0.462   2.891   6.544 -0.0338 -0.2912  0.1159
   97SAPE   C35 9729   0.578   3.056   6.459 -0.1578  0.1743  0.3996
   97SAPE   H5X 9730   0.675   3.045   6.512  0.0440  1.2402  0.2797
   97SAPE   H5Y 9731   0.574   3.165   6.439 -0.0243 -0.0057 -0.7088
   97SAPE   C36 9732   0.577   2.981   6.321  0.5337 -0.3330  0.2967
   97SAPE   H6X 9733   0.486   3.013   6.266  1.2326 -0.2732 -0.8505
   97SAPE   H6Y 9734   0.559   2.872   6.334 -0.5231 -0.5387 -2.3543
   97SAPE   C37 9735   0.696   3.011   6.228  0.4670  0.2071  0.2174
   97SAPE   H7X 9736   0.791   2.984   6.278 -0.7696 -1.8586  1.6234
   97SAPE   H7Y 9737   0.706   3.117   6.197  2.1785  0.0433  0.1049
   97SAPE   C38 9738   0.679   2.933   6.090  0.0191  0.1473 -0.6545
   97SAPE   H8X 9739   0.577   2.934   6.048 -0.1796 -1.6516 -0.3351
   97SAPE   H8Y 9740   0.676   2.826   6.122 -1.6945  0.0328 -1.1272
   97SAPE   C39 9741   0.792   2.948   5.989 -0.0285 -0.3204  0.3451
   97SAPE   H9X 9742   0.880   2.901   6.037  0.8940  1.5012  0.5274
   97SAPE   H9Y 9743   0.803   3.054   5.956  1.3729 -0.0607  1.5553
   97SAPE  C310 9744   0.756   2.876   5.863  0.1037 -0.8497 -0.5001
   97SAPE  H10X 9745   0.707   2.780   5.892 -0.1981 -0.2814  0.9187
   97SAPE  H10Y 9746   0.854   2.850   5.816  0.1562 -1.7599  0.0849
   97SAPE  C311 9747   0.683   2.963   5.766 -0.4662 -0.3899  0.2946
   97SAPE  H11X 9748   0.746   3.053   5.747  0.4896 -1.1441 -0.1961
   97SAPE  H11Y 9749   0.586   2.997   5.809 -0.2823 -0.5563  0.8480
   97SAPE  C312 9750   0.641   2.885   5.645 -0.5987  0.4613  0.6900
   97SAPE  H12X 9751   0.566   2.810   5.679 -0.3610 -1.1111 -1.9888
   97SAPE  H12Y 9752   0.730   2.835   5.601 -0.8343  1.1024 -0.5814
   97SAPE  C313 9753   0.580   2.979   5.533  0.3097  0.3194 -0.0470
   97SAPE  H13X 9754   0.661   3.033   5.479  0.8355 -0.5851 -0.1911
   97SAPE  H13Y 9755   0.519   3.052   5.590  0.2258  0.2002  0.0164
   97SAPE  C314 9756   0.497   2.888   5.430  0.4884 -0.3858  0.4957
   97SAPE  H14X 9757   0.433   2.815   5.484 -0.1033  0.7151  1.3169
   97SAPE  H14Y 9758   0.560   2.825   5.364 -0.8726 -2.5853  1.1870
   97SAPE  C315 9759   0.403   2.976   5.348 -0.4804  0.0308  0.0686
   97SAPE  H15X 9760   0.454   3.074   5.347  1.2641 -0.8346 -1.2671
   97SAPE  H15Y 9761   0.309   2.980   5.407 -0.5002 -1.3818  0.1686
   97SAPE  C316 9762   0.386   2.934   5.200  0.3888 -0.2200  0.4641
   97SAPE  H16X 9763   0.358   2.826   5.200  0.4721 -0.2501 -0.4618
   97SAPE  H16Y 9764   0.482   2.955   5.149  0.0878  0.2163  0.0690
   97SAPE  C317 9765   0.282   3.018   5.125  0.0771  0.0306 -0.5608
   97SAPE  H17X 9766   0.294   3.122   5.163 -1.7579 -0.1087  0.5626
   97SAPE  H17Y 9767   0.178   2.990   5.154  0.6026 -0.2935  1.1336
   97SAPE  C318 9768   0.278   3.025   4.974  0.2485 -0.6027 -0.2152
   97SAPE  H18X 9769   0.193   3.089   4.942  0.8401 -0.3243 -1.3010
   97SAPE  H18Y 9770   0.259   2.924   4.931 -1.5472  0.2712 -1.6416
   97SAPE  H18Z 9771   0.372   3.070   4.934  0.2314 -0.5973 -0.2500
   98SAPE     N 9772   6.584   3.746   7.392 -0.2793  0.4214  0.4367
   98SAPE   HN1 9773   6.563   3.664   7.453 -0.7676  0.8570  0.8734
   98SAPE   HN2 9774   6.687   3.751   7.386 -0.0873 -0.5318  2.1715
   98SAPE   HN3 9775   6.544   3.831   7.439 -1.5394 -1.0044  2.0856
   98SAPE   C12 9776   6.526   3.722   7.256  0.6482 -1.0834  0.3782
   98SAPE  H12A 9777   6.418   3.706   7.274  0.7697 -0.1613  2.1388
   98SAPE  H12B 9778   6.591   3.641   7.216  3.2215  0.7865  0.4602
   98SAPE   C11 9779   6.567   3.837   7.171 -0.0962 -0.2704  0.1869
   98SAPE  H11A 9780   6.523   3.817   7.071 -0.1636 -0.5983  0.2798
   98SAPE  H11B 9781   6.678   3.838   7.171 -0.0332 -1.3833  2.1926
   98SAPE     P 9782   6.565   4.099   7.155 -0.1375 -0.2768 -0.0108
   98SAPE   O13 9783   6.615   4.194   7.261 -0.1188 -0.3241 -0.0721
   98SAPE   O14 9784   6.667   4.070   7.050 -0.2768  0.2419 -0.4955
   98SAPE   O12 9785   6.518   3.966   7.221  0.3248  0.0183  0.3172
   98SAPE   O11 9786   6.446   4.164   7.087  0.2739  0.0811  0.0585
   98SAPE    C1 9787   6.320   4.096   7.063  0.1409 -0.5840  0.0315
   98SAPE    HA 9788   6.328   3.991   7.099 -1.0527 -1.4968 -2.1124
   98SAPE    HB 9789   6.239   4.140   7.125  1.5222  0.3061  1.2521
   98SAPE    C2 9790   6.294   4.103   6.912  0.6697 -0.1895  0.7604
   98SAPE    HS 9791   6.208   4.039   6.883  1.3800 -1.2088  0.8174
   98SAPE   O21 9792   6.406   4.058   6.839 -0.1299 -0.7807  0.2903
   98SAPE   C21 9793   6.411   3.931   6.819  0.2721  0.5246 -0.5928
   98SAPE   O22 9794   6.332   3.848   6.867  0.1860 -0.7783 -0.1207
   98SAPE   C22 9795   6.542   3.903   6.740 -0.4010  0.2207 -0.2039
   98SAPE   H2R 9796   6.571   4.002   6.698  2.0294 -0.3773 -0.1054
   98SAPE   H2S 9797   6.613   3.880   6.822  1.6490 -0.6567 -2.0847
   98SAPE    C3 9798   6.240   4.249   6.868  0.1445 -0.3992 -0.0184
   98SAPE    HX 9799   6.307   4.321   6.919 -3.2122  1.9041  1.5293
   98SAPE    HY 9800   6.139   4.273   6.907  0.3020  0.5718 -0.1697
   98SAPE   O31 9801   6.253   4.272   6.724  0.7440  0.1573  0.0528
   98SAPE   C31 9802   6.158   4.219   6.645 -0.0712  0.2060 -0.3334
   98SAPE   O32 9803   6.078   4.135   6.688  0.2735  0.3383 -0.0498
   98SAPE   C32 9804   6.182   4.264   6.504  0.6557  0.0212  0.6405
   98SAPE   H2X 9805   6.287   4.251   6.472  0.1841 -0.3332 -0.8800
   98SAPE   H2Y 9806   6.143   4.366   6.483 -2.3536 -1.0928  0.3429
   98SAPE   C23 9807   6.532   3.794   6.627 -0.1924  0.1215  0.2129
   98SAPE   H3R 9808   6.510   3.696   6.675  1.4483 -0.3552  0.0655
   98SAPE   H3S 9809   6.633   3.782   6.581 -0.3265 -0.2925  0.0194
   98SAPE   C24 9810   6.442   3.836   6.509 -0.2158 -0.6501  0.2610
   98SAPE   H4R 9811   6.470   3.934   6.465  0.8444 -1.5329 -1.1209
   98SAPE   H4S 9812   6.335   3.841   6.540  0.0050 -2.5835  1.4920
   98SAPE   C25 9813   6.455   3.727   6.406  0.4177 -0.2102 -0.1907
   98SAPE   H5R 9814   6.460   3.629   6.455  1.4763 -0.4858 -0.8245
   98SAPE   C26 9815   6.469   3.731   6.275  1.2260  0.3236  0.0470
   98SAPE   H6R 9816   6.494   3.639   6.221  3.3669  1.0389 -0.2712
   98SAPE   C27 9817   6.471   3.851   6.182 -0.2877 -0.1717  0.2054
   98SAPE   H7R 9818   6.569   3.831   6.132 -0.1476  0.3161  0.2779
   98SAPE   H7S 9819   6.473   3.954   6.223 -0.3680  0.9558 -2.4103
   98SAPE   C28 9820   6.358   3.849   6.087 -0.2312 -0.0031 -0.1075
   98SAPE   H8R 9821   6.256   3.854   6.128  0.1398  2.0899  0.6409
   98SAPE   C29 9822   6.371   3.857   5.955  0.6174 -0.4327 -0.0000
   98SAPE   H9R 9823   6.286   3.852   5.886 -1.0559 -2.9032  2.0478
   98SAPE  C210 9824   6.504   3.853   5.886 -0.2812  0.7474  0.1471
   98SAPE  H10R 9825   6.495   3.772   5.810  0.6460 -1.8977  2.6966
   98SAPE  H10S 9826   6.586   3.802   5.941  0.5732 -0.3253 -1.9938
   98SAPE  C211 9827   6.553   3.991   5.848 -0.4973  0.3644  0.2943
   98SAPE  H11R 9828   6.580   4.056   5.933 -1.2643 -1.0357  1.6674
   98SAPE  C212 9829   6.590   4.043   5.731 -0.0596  0.0738 -0.1938
   98SAPE  H12R 9830   6.620   4.148   5.724 -0.4023  0.0449 -4.1825
   98SAPE  C213 9831   6.605   3.975   5.599 -0.4037  0.4363  0.4819
   98SAPE  H13R 9832   6.561   3.873   5.604  0.9031 -0.1333  0.9519
   98SAPE  H13S 9833   6.710   3.957   5.568 -1.1023 -0.2710 -1.6252
   98SAPE  C214 9834   6.573   4.063   5.475  0.4135  0.3857 -0.2423
   98SAPE  H14R 9835   6.654   4.134   5.453 -0.3055  1.8733  1.5873
   98SAPE  C215 9836   6.470   4.059   5.398 -0.4278  0.2059 -0.1025
   98SAPE  H15R 9837   6.469   4.114   5.302 -1.6917 -1.3052 -1.0037
   98SAPE  C216 9838   6.353   3.968   5.401  0.7771  0.4466 -0.2834
   98SAPE  H16R 9839   6.266   4.033   5.380  1.4036  1.2228 -0.5575
   98SAPE  H16S 9840   6.333   3.938   5.506 -0.5220 -2.4954 -1.2786
   98SAPE  C217 9841   6.351   3.846   5.311 -0.2054  0.4245  0.3982
   98SAPE  H17R 9842   6.246   3.814   5.291  0.8888 -0.8520 -4.7908
   98SAPE  H17S 9843   6.425   3.770   5.343  0.1116 -1.4523 -4.1381
   98SAPE  C218 9844   6.388   3.882   5.166 -0.1224 -0.0451  0.1061
   98SAPE  H18R 9845   6.472   3.955   5.168  2.5741 -2.8726  2.6573
   98SAPE  H18S 9846   6.303   3.933   5.117  0.2256 -0.1955 -0.6738
   98SAPE  C219 9847   6.422   3.757   5.079 -0.0393 -0.2714  0.1009
   98SAPE  H19R 9848   6.338   3.734   5.010  0.8682 -1.4941 -0.6263
   98SAPE  H19S 9849   6.436   3.665   5.139  0.1111 -1.4533 -1.6918
   98SAPE  C220 9850   6.550   3.774   5.004  0.2673  0.1968 -0.3549
   98SAPE  H20R 9851   6.585   3.677   4.963 -3.1640 -0.8786 -1.0614
   98SAPE  H20S 9852   6.630   3.801   5.077  0.0201  1.1673 -0.4346
   98SAPE  H20T 9853   6.542   3.854   4.928 -0.0413  0.6352  0.1267
   98SAPE   C33 9854   6.106   4.170   6.397 -0.2504 -0.0582  0.1578
   98SAPE   H3X 9855   6.024   4.211   6.335 -0.0391 -1.9068 -1.4128
   98SAPE   H3Y 9856   6.042   4.090   6.440  0.4629 -0.5646  0.3048
   98SAPE   C34 9857   6.201   4.095   6.297  0.8086  0.6183  0.0153
   98SAPE   H4X 9858   6.153   3.998   6.272  1.6938 -0.6173  2.7548
   98SAPE   H4Y 9859   6.296   4.075   6.350 -0.2055 -0.5015  1.4814
   98SAPE   C35 9860   6.234   4.164   6.172 -0.0286 -0.0659  0.0379
   98SAPE   H5X 9861   6.291   4.098   6.103  0.4416  2.8552 -2.6166
   98SAPE   H5Y 9862   6.289   4.260   6.187  0.4540 -0.4211  0.5464
   98SAPE   C36 9863   6.107   4.199   6.089  1.0488 -0.2789 -0.2971
   98SAPE   H6X 9864   6.055   4.283   6.140  1.1957  0.1518 -0.8490
   98SAPE   H6Y 9865   6.026   4.123   6.086 -1.0109  1.7078  0.8493
   98SAPE   C37 9866   6.135   4.246   5.944  0.0237 -0.3780  0.2916
   98SAPE   H7X 9867   6.193   4.341   5.953 -0.4119 -0.1297  0.5450
   98SAPE   H7Y 9868   6.034   4.266   5.903  0.9920  1.3213 -1.4651
   98SAPE   C38 9869   6.201   4.140   5.856  0.1810 -0.0201 -0.0322
   98SAPE   H8X 9870   6.143   4.047   5.877 -1.6131  0.9859 -0.2752
   98SAPE   H8Y 9871   6.308   4.121   5.878 -0.4068 -2.9709  0.6302
   98SAPE   C39 9872   6.186   4.173   5.707 -0.7761  0.1023  0.6360
   98SAPE   H9X 9873   6.082   4.200   5.679  0.1851  2.0225 -1.4264
   98SAPE   H9Y 9874   6.197   4.083   5.644 -0.1614  1.1859 -0.8718
   98SAPE  C310 9875   6.278   4.283   5.648 -0.3104 -0.2528  1.1925
   98SAPE  H10X 9876   6.380   4.246   5.670 -0.5190 -1.2701  0.5131
   98SAPE  H10Y 9877   6.278   4.374   5.712  1.2575  1.3475 -0.9378
   98SAPE  C311 9878   6.269   4.322   5.497 -0.8911 -0.4820  0.1511
   98SAPE  H11X 9879   6.247   4.225   5.447 -3.5688 -0.1729  0.5582
   98SAPE  H11Y 9880   6.366   4.367   5.468 -0.1515 -2.0763  0.0356
   98SAPE  C312 9881   6.148   4.417   5.463 -0.2085  0.5744  0.2116
   98SAPE  H12X 9882   6.139   4.513   5.518 -1.3130  0.3347  0.4645
   98SAPE  H12Y 9883   6.066   4.360   5.510  1.1903 -0.3982  1.5705
   98SAPE  C313 9884   6.136   4.434   5.313 -0.6739 -0.2632  0.5430
   98SAPE  H13X 9885   6.238   4.466   5.283 -0.5084 -1.7182 -0.5041
   98SAPE  H13Y 9886   6.073   4.523   5.290 -0.5453 -0.2883  0.0876
   98SAPE  C314 9887   6.094   4.318   5.235 -0.2140 -0.2489  0.2378
   98SAPE  H14X 9888   5.983   4.312   5.238 -0.4037  1.2199 -1.8538
   98SAPE  H14Y 9889   6.131   4.226   5.285 -1.2883 -1.1141 -0.4907
   98SAPE  C315 9890   6.146   4.324   5.095  0.3239 -0.2659 -0.0007
   98SAPE  H15X 9891   6.246   4.373   5.085 -0.0488  0.4556 -0.2990
   98SAPE  H15Y 9892   6.082   4.389   5.032  0.2275  1.0152  1.3563
   98SAPE  C316 9893   6.145   4.189   5.011  0.1079  0.7404  0.4342
   98SAPE  H16X 9894   6.039   4.162   4.996 -0.0540  1.0779  0.9385
   98SAPE  H16Y 9895   6.189   4.109   5.073 -0.8630  0.1547  0.3809
   98SAPE  C317 9896   6.234   4.192   4.892 -0.8898 -0.2617  0.3833
   98SAPE  H17X 9897   6.332   4.221   4.935 -1.5888 -1.0673  2.6075
   98SAPE  H17Y 9898   6.207   4.275   4.823 -0.6755  0.8548  1.5987
   98SAPE  C318 9899   6.233   4.055   4.812 -0.1686 -0.5377  0.1937
   98SAPE  H18X 9900   6.273   3.974   4.877  0.1613  0.7106  1.6257
   98SAPE  H18Y 9901   6.295   4.069   4.721 -1.6532  0.5245 -0.6928
   98SAPE  H18Z 9902   6.131   4.031   4.775 -0.2563 -0.3972  0.3431
   99SAPE     N 9903   0.187   2.089   7.797  0.2697  0.0107  0.5115
   99SAPE   HN1 9904   0.167   1.987   7.794  0.0707  0.0462 -2.0572
   99SAPE   HN2 9905   0.281   2.109   7.835 -0.3205  0.0619  1.9791
   99SAPE   HN3 9906   0.110   2.135   7.849 -0.8304 -1.8074  0.6045
   99SAPE   C12 9907   0.183   2.133   7.658  0.0003  0.3088  0.3561
   99SAPE  H12A 9908   0.254   2.075   7.594  0.5750  2.4013 -1.0005
   99SAPE  H12B 9909   0.201   2.242   7.651 -1.0094  0.4136 -0.9117
   99SAPE   C11 9910   0.049   2.109   7.594  0.0902 -1.1200 -0.7212
   99SAPE  H11A 9911   0.016   2.004   7.604 -0.5727 -0.8217  0.4618
   99SAPE  H11B 9912   0.052   2.123   7.484 -0.1814  1.0449 -0.4989
   99SAPE     P 9913  -0.188   2.219   7.609 -0.2085 -0.1186  0.1339
   99SAPE   O13 9914  -0.243   2.089   7.563  0.2519  0.7689 -0.3035
   99SAPE   O14 9915  -0.257   2.294   7.721 -0.5374  0.2428 -0.2027
   99SAPE   O12 9916  -0.042   2.203   7.662  0.1974  0.0337 -0.6714
   99SAPE   O11 9917  -0.178   2.313   7.482 -0.0219  0.3866  0.4698
   99SAPE    C1 9918  -0.079   2.415   7.486  0.2151 -0.1480 -0.1196
   99SAPE    HA 9919  -0.070   2.461   7.587  1.9878  2.1074 -1.2121
   99SAPE    HB 9920   0.020   2.375   7.456  1.9415  4.3101 -1.1799
   99SAPE    C2 9921  -0.136   2.523   7.392 -0.0771 -0.2052 -0.8539
   99SAPE    HS 9922  -0.244   2.536   7.415  0.6908  0.5044  3.2326
   99SAPE   O21 9923  -0.104   2.487   7.260 -0.0470 -0.0903  0.0010
   99SAPE   C21 9924  -0.203   2.511   7.176 -0.1073 -0.3517  0.4038
   99SAPE   O22 9925  -0.312   2.565   7.201 -0.6079  0.9903  0.6317
   99SAPE   C22 9926  -0.156   2.477   7.039 -0.8288  0.4920 -0.9702
   99SAPE   H2R 9927  -0.084   2.562   7.027 -0.3988  0.6233  1.8323
   99SAPE   H2S 9928  -0.112   2.375   7.034  0.1611  0.8319  0.2933
   99SAPE    C3 9929  -0.070   2.664   7.416 -0.5382  0.4764 -0.2751
   99SAPE    HX 9930   0.033   2.669   7.375 -0.8116  1.8051 -0.8316
   99SAPE    HY 9931  -0.065   2.674   7.526 -0.0815 -2.0753 -0.0092
   99SAPE   O31 9932  -0.149   2.776   7.364  0.2206  0.6165 -0.0219
   99SAPE   C31 9933  -0.109   2.818   7.238 -0.0102 -0.3852 -0.1916
   99SAPE   O32 9934  -0.009   2.779   7.179 -0.1438  0.2887 -0.0947
   99SAPE   C32 9935  -0.202   2.921   7.180  0.7783 -0.2037 -0.6058
   99SAPE   H2X 9936  -0.244   2.983   7.262  0.2075 -0.8876 -0.3789
   99SAPE   H2Y 9937  -0.283   2.866   7.129  1.1758 -0.3646 -1.0762
   99SAPE   C23 9938  -0.264   2.475   6.929  0.4631 -0.1810 -0.3389
   99SAPE   H3R 9939  -0.297   2.579   6.912 -2.3519 -1.0606 -0.7397
   99SAPE   H3S 9940  -0.343   2.410   6.973  1.4961  0.4864  2.7530
   99SAPE   C24 9941  -0.194   2.422   6.800  0.0266 -0.2253  0.0364
   99SAPE   H4R 9942  -0.127   2.336   6.824 -0.9511 -0.3752  2.4573
   99SAPE   H4S 9943  -0.119   2.498   6.769 -0.0095 -0.8509 -1.7193
   99SAPE   C25 9944  -0.289   2.406   6.683 -0.2593  0.4734  0.1097
   99SAPE   H5R 9945  -0.373   2.336   6.692  1.0397 -1.6597 -2.7324
   99SAPE   C26 9946  -0.280   2.472   6.567  0.4125 -0.0771  0.9523
   99SAPE   H6R 9947  -0.368   2.462   6.502 -0.6073  2.4573  1.7903
   99SAPE   C27 9948  -0.182   2.574   6.515  0.1269  0.2074 -0.3705
   99SAPE   H7R 9949  -0.108   2.533   6.442 -0.1454 -0.6671 -0.1690
   99SAPE   H7S 9950  -0.116   2.603   6.600 -0.8888  2.8624 -0.3863
   99SAPE   C28 9951  -0.251   2.695   6.462 -0.2208 -0.7669 -0.7869
   99SAPE   H8R 9952  -0.289   2.765   6.538 -3.9944 -2.2119 -1.1115
   99SAPE   C29 9953  -0.249   2.736   6.335  0.0794  0.7140 -0.2379
   99SAPE   H9R 9954  -0.305   2.825   6.303 -2.0987 -0.5424 -0.1302
   99SAPE  C210 9955  -0.193   2.653   6.218 -1.0336  0.6428  0.3899
   99SAPE  H10R 9956  -0.173   2.551   6.256 -0.2596  0.8654  0.5892
   99SAPE  H10S 9957  -0.099   2.693   6.176 -1.8583  1.3673 -0.8416
   99SAPE  C211 9958  -0.288   2.656   6.108  0.1684 -0.1996  0.1606
   99SAPE  H11R 9959  -0.367   2.581   6.128 -0.5185  0.9101  1.8524
   99SAPE  C212 9960  -0.298   2.743   6.009 -0.0976  0.1829  0.6242
   99SAPE  H12R 9961  -0.371   2.721   5.929  1.8380 -1.6991 -0.7478
   99SAPE  C213 9962  -0.199   2.854   5.977 -0.5644  0.4198  0.6332
   99SAPE  H13R 9963  -0.132   2.827   5.893 -0.2139  0.6319  0.8439
   99SAPE  H13S 9964  -0.128   2.876   6.060 -2.1144  2.2422  1.5383
   99SAPE  C214 9965  -0.277   2.980   5.945  0.2435 -0.1029 -0.3165
   99SAPE  H14R 9966  -0.327   3.020   6.035  1.2971 -2.7429  1.5891
   99SAPE  C215 9967  -0.286   3.038   5.829  0.5916 -0.7873 -0.3421
   99SAPE  H15R 9968  -0.360   3.119   5.822  1.6739  0.2597 -0.0742
   99SAPE  C216 9969  -0.224   2.994   5.698  0.0109  0.2348 -0.2940
   99SAPE  H16R 9970  -0.298   2.923   5.655  0.3878 -0.2162 -0.2035
   99SAPE  H16S 9971  -0.148   2.914   5.709 -1.7922 -2.0023 -2.8632
   99SAPE  C217 9972  -0.197   3.104   5.600 -1.0850  0.2113  0.2692
   99SAPE  H17R 9973  -0.090   3.131   5.605 -0.9564 -0.1689 -0.3110
   99SAPE  H17S 9974  -0.263   3.192   5.618 -1.3939  0.1339 -0.4249
   99SAPE  C218 9975  -0.230   3.060   5.453 -0.5511  0.0416 -0.1142
   99SAPE  H18R 9976  -0.334   3.022   5.447  0.4175 -2.6474 -1.8880
   99SAPE  H18S 9977  -0.158   2.979   5.426  0.8133  0.6458  1.5515
   99SAPE  C219 9978  -0.220   3.175   5.348  0.0807 -0.4140  0.5737
   99SAPE  H19R 9979  -0.289   3.258   5.373 -0.0394 -0.2618 -0.2251
   99SAPE  H19S 9980  -0.262   3.127   5.257  0.8558 -0.7130  0.3617
   99SAPE  C220 9981  -0.076   3.219   5.316 -0.3282 -0.2726  0.8598
   99SAPE  H20R 9982  -0.026   3.131   5.271 -0.7105  0.0638 -0.2814
   99SAPE  H20S 9983  -0.028   3.264   5.405  0.1071 -0.1713  0.5758
   99SAPE  H20T 9984  -0.075   3.297   5.236  1.3817 -0.1840  0.9370
   99SAPE   C33 9985  -0.136   3.008   7.069  0.2320  0.1612 -0.2753
   99SAPE   H3X 9986  -0.046   3.061   7.108  0.6679  0.1753 -1.2591
   99SAPE   H3Y 9987  -0.209   3.087   7.043 -2.2590 -1.2710  1.9175
   99SAPE   C34 9988  -0.096   2.941   6.940 -0.6016  0.1338  1.1505
   99SAPE   H4X 9989  -0.183   2.882   6.902  0.3093 -0.6968  0.2686
   99SAPE   H4Y 9990  -0.009   2.872   6.951 -0.6338 -0.0631  0.3195
   99SAPE   C35 9991  -0.041   3.025   6.822 -0.3396  0.0719  0.1091
   99SAPE   H5X 9992   0.052   3.073   6.860  0.2236 -0.1191 -0.9878
   99SAPE   H5Y 9993  -0.116   3.104   6.801 -0.2234 -0.2184 -1.5063
   99SAPE   C36 9994  -0.003   2.930   6.701  0.8789  0.2245 -1.2252
   99SAPE   H6X 9995  -0.096   2.882   6.665  1.5129 -1.4675 -0.7210
   99SAPE   H6Y 9996   0.071   2.855   6.736  0.3182  0.5351  0.7651
   99SAPE   C37 9997   0.057   3.019   6.605 -0.5356  0.2232 -0.0923
   99SAPE   H7X 9998   0.119   2.949   6.546 -1.2621 -0.9384  0.4827
   99SAPE   H7Y 9999   0.133   3.088   6.647 -0.8745  0.5036  0.0678
   99SAPE   C3810000  -0.045   3.086   6.506  0.2620  0.2449 -0.1270
   99SAPE   H8X10001  -0.118   3.154   6.555 -0.3679 -0.2268 -0.3892
   99SAPE   H8Y10002  -0.108   3.003   6.469 -1.5879  1.8369 -0.7377
   99SAPE   C3910003   0.022   3.155   6.384  0.1430  0.6170  0.4601
   99SAPE   H9X10004   0.107   3.093   6.346 -2.3501 -2.4610 -0.4836
   99SAPE   H9Y10005   0.056   3.247   6.437 -1.3873 -0.6767  4.0278
   99SAPE  C31010006  -0.071   3.184   6.263 -0.0809  0.6299  0.0725
   99SAPE  H10X10007  -0.158   3.249   6.285  0.3456  0.5355  2.1923
   99SAPE  H10Y10008  -0.105   3.088   6.219  1.7958 -0.1942  0.2877
   99SAPE  C31110009  -0.000   3.261   6.156 -0.0890 -0.3402  0.0237
   99SAPE  H11X10010   0.088   3.196   6.136 -0.5656 -1.2948  0.9300
   99SAPE  H11Y10011   0.036   3.358   6.197 -1.8222  1.0781 -1.6077
   99SAPE  C31210012  -0.085   3.279   6.030 -0.2321 -0.7534 -0.7328
   99SAPE  H12X10013  -0.192   3.287   6.061 -0.2834  1.3060 -1.2919
   99SAPE  H12Y10014  -0.085   3.184   5.973 -1.0333 -0.2134 -1.6672
   99SAPE  C31310015  -0.050   3.404   5.943 -0.1839 -0.5416 -0.2951
   99SAPE  H13X10016   0.056   3.394   5.914 -0.1832  1.6422 -1.1928
   99SAPE  H13Y10017  -0.071   3.493   6.006  0.7453 -1.2053  0.9930
   99SAPE  C31410018  -0.134   3.418   5.819 -0.1077 -0.3040  0.1483
   99SAPE  H14X10019  -0.241   3.428   5.846 -0.4110 -0.3971 -0.9433
   99SAPE  H14Y10020  -0.127   3.335   5.745  0.5714 -0.8083  0.7637
   99SAPE  C31510021  -0.078   3.529   5.732  0.2839 -0.3167  0.5426
   99SAPE  H15X10022   0.032   3.539   5.736  0.3181  0.0895 -0.9071
   99SAPE  H15Y10023  -0.119   3.625   5.769 -1.1780 -0.1085 -1.4379
   99SAPE  C31610024  -0.125   3.519   5.588  0.6492  0.3236 -0.5115
   99SAPE  H16X10025  -0.236   3.527   5.586  0.5017 -0.7147  1.4601
   99SAPE  H16Y10026  -0.093   3.420   5.546 -0.7378 -0.1517 -0.5038
   99SAPE  C31710027  -0.070   3.631   5.499 -0.3484 -0.2357  0.2347
   99SAPE  H17X10028   0.041   3.637   5.500 -0.4273  2.3621  0.4830
   99SAPE  H17Y10029  -0.109   3.725   5.543 -0.6015 -1.2323  2.3215
   99SAPE  C31810030  -0.123   3.634   5.354 -0.1621 -0.0258  0.5531
   99SAPE  H18X10031  -0.097   3.545   5.293 -0.6542  0.0541  0.2249
   99SAPE  H18Y10032  -0.078   3.723   5.305 -0.2105 -0.0951  0.3834
   99SAPE  H18Z10033  -0.232   3.641   5.370 -0.0199  1.5882  1.0029
  100SAPE     N10034   1.382   2.092   7.569 -0.0130 -1.1376 -0.2209
  100SAPE   HN110035   1.347   2.061   7.661  0.1407 -0.3267  0.1144
  100SAPE   HN210036   1.363   2.194   7.561  0.0912 -1.0440  0.6946
  100SAPE   HN310037   1.318   2.054   7.496  0.3220 -0.6693 -0.7684
  100SAPE   C1210038   1.525   2.049   7.534 -0.0796  0.0720  0.6553
  100SAPE  H12A10039   1.527   1.945   7.496 -1.2993 -0.2454  1.3649
  100SAPE  H12B10040   1.593   2.059   7.621 -0.5922 -2.1179  1.3815
  100SAPE   C1110041   1.577   2.131   7.420 -0.2280 -0.7495  0.4844
  100SAPE  H11A10042   1.539   2.109   7.318 -0.7082 -1.4897  0.8142
  100SAPE  H11B10043   1.687   2.122   7.409 -0.0178  3.0288 -2.7858
  100SAPE     P10044   1.670   2.375   7.472 -0.2373  0.4420 -0.2178
  100SAPE   O1310045   1.615   2.489   7.551 -0.4152 -0.2969 -0.4660
  100SAPE   O1410046   1.789   2.307   7.523  0.4100 -0.2004 -0.3914
  100SAPE   O1210047   1.549   2.270   7.443 -0.4214 -0.0775 -0.0128
  100SAPE   O1110048   1.707   2.421   7.325 -0.2064 -0.4031  0.5731
  100SAPE    C110049   1.613   2.504   7.259 -0.2355  0.7559  0.5192
  100SAPE    HA10050   1.507   2.469   7.263  0.4932 -1.6675  0.1391
  100SAPE    HB10051   1.619   2.605   7.306 -0.2367 -0.1087  2.4646
  100SAPE    C210052   1.652   2.515   7.109  0.6422  0.7319 -0.0115
  100SAPE    HS10053   1.562   2.563   7.065  0.2526  1.0552  1.0976
  100SAPE   O2110054   1.670   2.384   7.052 -0.1206  1.1760 -0.0261
  100SAPE   C2110055   1.563   2.321   7.014  0.2378 -0.6479 -0.1709
  100SAPE   O2210056   1.452   2.355   7.053  0.0030  0.0930 -0.3051
  100SAPE   C2210057   1.607   2.197   6.937  0.3911  0.3088 -0.5996
  100SAPE   H2R10058   1.715   2.192   6.912  0.9013  0.3145  1.4474
  100SAPE   H2S10059   1.586   2.104   6.994  1.1196 -1.1591 -2.5948
  100SAPE    C310060   1.775   2.594   7.080  0.3267  0.3918 -0.3328
  100SAPE    HX10061   1.866   2.568   7.138 -0.5016 -0.6425  0.5683
  100SAPE    HY10062   1.761   2.696   7.121  1.2526  0.7066 -0.7803
  100SAPE   O3110063   1.810   2.596   6.943  0.2715  0.2430  0.1334
  100SAPE   C3110064   1.762   2.701   6.874  0.2404 -0.4763  0.6253
  100SAPE   O3210065   1.711   2.801   6.932 -0.4874  0.0102 -0.1939
  100SAPE   C3210066   1.795   2.688   6.723 -0.1501 -0.1434 -0.0715
  100SAPE   H2X10067   1.797   2.583   6.688 -0.0725 -1.4621  3.4509
  100SAPE   H2Y10068   1.899   2.727   6.724  0.1370 -0.8915  0.0124
  100SAPE   C2310069   1.534   2.197   6.797 -0.1286  0.4398  0.4189
  100SAPE   H3R10070   1.424   2.190   6.811 -0.4080 -0.0410 -1.6785
  100SAPE   H3S10071   1.563   2.103   6.744 -0.3303 -0.7751  2.3487
  100SAPE   C2410072   1.574   2.321   6.710 -0.3705 -0.0591 -0.1434
  100SAPE   H4R10073   1.557   2.413   6.770  1.2649  0.9923 -1.2299
  100SAPE   H4S10074   1.509   2.321   6.620 -1.0210 -0.6517  0.3098
  100SAPE   C2510075   1.721   2.309   6.668  1.1945  0.0620  0.2627
  100SAPE   H5R10076   1.803   2.350   6.729  1.1311 -0.2894  0.5870
  100SAPE   C2610077   1.749   2.245   6.553 -0.6522  0.0163 -0.3877
  100SAPE   H6R10078   1.851   2.225   6.517 -0.7822  0.3801 -0.9730
  100SAPE   C2710079   1.644   2.178   6.464  0.3860 -0.4678  0.0754
  100SAPE   H7R10080   1.564   2.251   6.442  0.8099 -0.1373 -0.4029
  100SAPE   H7S10081   1.604   2.088   6.515 -0.2289 -0.2913 -0.0969
  100SAPE   C2810082   1.716   2.157   6.329  0.5918  0.6677  0.9030
  100SAPE   H8R10083   1.730   2.248   6.269 -2.0208  0.9162  0.5428
  100SAPE   C2910084   1.760   2.033   6.287  0.5895  0.4198  0.1385
  100SAPE   H9R10085   1.812   2.017   6.191 -1.2528 -0.6147 -0.7392
  100SAPE  C21010086   1.760   1.905   6.371  0.2821 -0.1159 -0.9189
  100SAPE  H10R10087   1.731   1.819   6.306 -0.6253 -0.6952  0.2303
  100SAPE  H10S10088   1.694   1.910   6.460  0.2700  0.3952 -0.9553
  100SAPE  C21110089   1.903   1.883   6.406  0.3239  0.3125 -0.1805
  100SAPE  H11R10090   1.928   1.921   6.506  1.5641  1.8317 -1.0170
  100SAPE  C21210091   1.997   1.818   6.331 -0.4489 -0.4550  0.4107
  100SAPE  H12R10092   2.098   1.810   6.373 -0.8583  0.6644  1.7110
  100SAPE  C21310093   1.972   1.754   6.198  0.3220  0.1556  0.8250
  100SAPE  H13R10094   1.885   1.803   6.149  0.7722 -0.0891 -0.2483
  100SAPE  H13S10095   1.943   1.648   6.212 -0.2693  0.2715  0.5082
  100SAPE  C21410096   2.100   1.769   6.113 -0.1193  0.2798  0.1356
  100SAPE  H14R10097   2.114   1.876   6.093 -1.3928  0.2092 -1.3549
  100SAPE  C21510098   2.182   1.674   6.069  0.5713 -0.2020 -0.7427
  100SAPE  H15R10099   2.281   1.705   6.031  0.0346  3.8498  0.7492
  100SAPE  C21610100   2.173   1.528   6.104  0.1070  0.2268 -0.5945
  100SAPE  H16R10101   2.229   1.465   6.032 -0.1576 -2.2482  1.2064
  100SAPE  H16S10102   2.075   1.484   6.079 -0.1044  0.1499  0.3207
  100SAPE  C21710103   2.218   1.489   6.247  0.2652  0.2895 -0.8354
  100SAPE  H17R10104   2.190   1.564   6.324 -0.4922  0.1342 -0.9511
  100SAPE  H17S10105   2.328   1.497   6.254  0.2174  1.6211 -1.3813
  100SAPE  C21810106   2.178   1.343   6.284 -0.3038  0.4323  0.1524
  100SAPE  H18R10107   2.231   1.264   6.227 -1.2189  0.4263 -0.7304
  100SAPE  H18S10108   2.072   1.340   6.249  0.3060 -0.4658 -1.7730
  100SAPE  C21910109   2.191   1.303   6.433  0.0240 -0.1748  0.3753
  100SAPE  H19R10110   2.128   1.216   6.458 -1.8225  0.5155 -1.5724
  100SAPE  H19S10111   2.152   1.384   6.498  0.9547  1.0994 -0.5890
  100SAPE  C22010112   2.332   1.258   6.480  0.0608 -1.3959  0.2990
  100SAPE  H20R10113   2.370   1.181   6.410 -0.6675 -2.0403  0.6005
  100SAPE  H20S10114   2.319   1.219   6.583  0.9118  1.3706  1.5608
  100SAPE  H20T10115   2.398   1.347   6.474  0.6792 -1.6209  2.6934
  100SAPE   C3310116   1.696   2.769   6.630  0.0626  0.4430 -1.6673
  100SAPE   H3X10117   1.689   2.867   6.681  0.0479 -1.4174  2.2434
  100SAPE   H3Y10118   1.597   2.718   6.630 -0.8925  2.1639  0.3253
  100SAPE   C3410119   1.730   2.781   6.481 -0.2725  0.5066  0.0946
  100SAPE   H4X10120   1.690   2.687   6.435  1.2440 -0.2520  0.2761
  100SAPE   H4Y10121   1.839   2.795   6.469 -0.1953  0.6481  0.8971
  100SAPE   C3510122   1.668   2.899   6.403 -0.5115 -0.4622  0.2210
  100SAPE   H5X10123   1.718   2.989   6.444  1.8796 -1.3238 -0.6213
  100SAPE   H5Y10124   1.558   2.910   6.401 -0.8249 -2.8179 -2.5549
  100SAPE   C3610125   1.694   2.885   6.250 -0.2886 -0.1785 -0.3017
  100SAPE   H6X10126   1.655   2.785   6.220 -1.3348  0.0972  0.1052
  100SAPE   H6Y10127   1.803   2.872   6.233 -0.3894 -2.3161  0.3462
  100SAPE   C3710128   1.648   3.007   6.182  0.2513  0.6374 -0.5123
  100SAPE   H7X10129   1.704   3.090   6.231  0.5355 -0.0217  0.3090
  100SAPE   H7Y10130   1.539   3.022   6.198  0.2541 -0.0947  0.2465
  100SAPE   C3810131   1.683   3.003   6.034  0.9607 -0.0514 -0.6305
  100SAPE   H8X10132   1.793   3.013   6.022  1.0316 -0.0361  0.0245
  100SAPE   H8Y10133   1.645   3.100   5.994  2.0997  0.1116 -1.3779
  100SAPE   C3910134   1.638   2.880   5.956 -0.7239  0.2568 -0.3214
  100SAPE   H9X10135   1.536   2.840   5.978 -0.3125 -1.7693 -1.8214
  100SAPE   H9Y10136   1.712   2.804   5.988 -0.2487  0.7777 -0.1767
  100SAPE  C31010137   1.665   2.891   5.803  0.0323  0.5278 -0.0211
  100SAPE  H10X10138   1.767   2.928   5.777 -0.6969  3.8009  1.2696
  100SAPE  H10Y10139   1.586   2.962   5.769 -1.9040 -1.9503 -1.0109
  100SAPE  C31110140   1.626   2.761   5.724 -0.2490  0.3531  0.0786
  100SAPE  H11X10141   1.523   2.739   5.757  0.7053 -0.0234  3.0893
  100SAPE  H11Y10142   1.690   2.678   5.761 -0.2407  1.6381  3.3052
  100SAPE  C31210143   1.645   2.781   5.571 -0.0744 -0.6104 -0.2846
  100SAPE  H12X10144   1.750   2.813   5.555 -0.3195 -0.6852 -2.2197
  100SAPE  H12Y10145   1.579   2.866   5.544  1.7955  1.0198  0.0532
  100SAPE  C31310146   1.614   2.656   5.483 -0.2821  0.4310  0.0418
  100SAPE  H13X10147   1.505   2.653   5.464 -0.8294  3.6930  1.8976
  100SAPE  H13Y10148   1.651   2.562   5.529  0.7958  0.9800  0.3255
  100SAPE  C31410149   1.684   2.668   5.348  0.3127 -0.5194  0.3319
  100SAPE  H14X10150   1.669   2.580   5.282 -3.6881  0.2034 -0.0345
  100SAPE  H14Y10151   1.792   2.686   5.361  0.3453 -1.7268  2.1461
  100SAPE  C31510152   1.621   2.782   5.269 -0.3881  0.1095  0.9408
  100SAPE  H15X10153   1.638   2.880   5.319  0.4037 -0.0903  1.0824
  100SAPE  H15Y10154   1.511   2.773   5.254 -0.4463  0.4622  1.1378
  100SAPE  C31610155   1.685   2.786   5.119 -0.0046 -0.2837  0.3839
  100SAPE  H16X10156   1.665   2.686   5.075  0.0619  0.4349 -1.3243
  100SAPE  H16Y10157   1.796   2.786   5.128 -0.0763 -1.7799  1.8559
  100SAPE  C31710158   1.630   2.907   5.041 -0.0362  0.0694  0.2504
  100SAPE  H17X10159   1.634   3.001   5.100  0.2848  0.8497 -0.9826
  100SAPE  H17Y10160   1.524   2.896   5.011 -1.1136  0.3654  3.5054
  100SAPE  C31810161   1.701   2.931   4.908  0.4295 -0.1507 -0.9939
  100SAPE  H18X10162   1.669   3.029   4.866  1.6879  0.3985 -0.7305
  100SAPE  H18Y10163   1.683   2.858   4.827 -1.4186  0.0328 -0.7795
  100SAPE  H18Z10164   1.810   2.941   4.928  0.0115  1.7250  0.6966
  101SAPE     N10165   0.981   5.469   6.876  0.2810 -0.2232 -0.2211
  101SAPE   HN110166   0.988   5.531   6.960 -0.1388 -2.2416  1.3761
  101SAPE   HN210167   0.887   5.469   6.833  0.8182 -0.3242 -1.4280
  101SAPE   HN310168   0.985   5.373   6.916 -1.6748 -0.6872 -1.0270
  101SAPE   C1210169   1.073   5.509   6.762  0.0748  0.9568 -0.2056
  101SAPE  H12A10170   1.173   5.527   6.807 -0.9078  1.1678  2.0006
  101SAPE  H12B10171   1.029   5.597   6.710  1.5283  1.1640 -1.1785
  101SAPE   C1110172   1.085   5.385   6.666 -0.0710 -0.3285  0.5293
  101SAPE  H11A10173   1.161   5.418   6.592 -0.9710  2.1815  0.6344
  101SAPE  H11B10174   0.986   5.371   6.618 -0.9989 -1.1542  2.5603
  101SAPE     P10175   1.287   5.222   6.725  0.4913  0.1311 -0.0630
  101SAPE   O1310176   1.308   5.188   6.868 -0.3849  0.2719 -0.4037
  101SAPE   O1410177   1.317   5.103   6.638  0.5015 -0.4059  0.3395
  101SAPE   O1210178   1.136   5.261   6.713  0.0971 -0.0153 -0.1820
  101SAPE   O1110179   1.368   5.357   6.683 -0.2738  0.4882  0.5847
  101SAPE    C110180   1.499   5.351   6.623 -0.1853  0.6204 -0.7945
  101SAPE    HA10181   1.555   5.420   6.689 -0.6018  1.1182 -0.9538
  101SAPE    HB10182   1.541   5.250   6.640  0.9450  1.3719  1.2109
  101SAPE    C210183   1.501   5.391   6.469  0.1493  0.0064 -0.1351
  101SAPE    HS10184   1.606   5.421   6.450  0.6479 -1.4292  0.1966
  101SAPE   O2110185   1.404   5.500   6.436 -0.2824 -0.1649 -0.1044
  101SAPE   C2110186   1.446   5.612   6.496  1.1772  0.5613 -0.1973
  101SAPE   O2210187   1.546   5.633   6.557  0.5193 -0.1524  0.1804
  101SAPE   C2210188   1.334   5.715   6.481 -0.4929 -0.2194  0.1380
  101SAPE   H2R10189   1.283   5.695   6.384 -0.0279 -0.6379 -0.0310
  101SAPE   H2S10190   1.256   5.685   6.554  1.9094 -2.8713  1.8373
  101SAPE    C310191   1.468   5.269   6.385 -0.8678  1.0544  0.4290
  101SAPE    HX10192   1.361   5.241   6.388 -0.7441  0.6298  1.0486
  101SAPE    HY10193   1.517   5.181   6.432 -1.2577 -0.5465 -1.9453
  101SAPE   O3110194   1.511   5.292   6.250 -0.6845  0.4317 -0.3470
  101SAPE   C3110195   1.504   5.177   6.173 -0.3577  0.0313 -0.0713
  101SAPE   O3210196   1.454   5.073   6.214 -0.7767 -0.7236  0.6514
  101SAPE   C3210197   1.579   5.188   6.036 -0.4185  0.3672  0.6706
  101SAPE   H2X10198   1.687   5.185   6.062  0.5890  0.6826 -2.8938
  101SAPE   H2Y10199   1.556   5.282   5.981  1.3772  1.1368  1.1572
  101SAPE   C2310200   1.381   5.861   6.486  0.8508  0.1256  0.0749
  101SAPE   H3R10201   1.438   5.870   6.581 -1.0704  2.2407  1.1246
  101SAPE   H3S10202   1.292   5.925   6.469 -0.0221 -1.0566  0.0346
  101SAPE   C2410203   1.486   5.884   6.381 -0.2106  0.6041  0.6072
  101SAPE   H4R10204   1.563   5.804   6.384 -1.1656 -0.2995  2.8898
  101SAPE   H4S10205   1.541   5.978   6.403  1.5500 -0.6734  1.9508
  101SAPE   C2510206   1.414   5.905   6.246  0.6271  1.0535 -0.0165
  101SAPE   H5R10207   1.356   5.998   6.240  0.1407  0.7289 -0.4095
  101SAPE   C2610208   1.401   5.818   6.143  0.2579 -0.3754 -0.2105
  101SAPE   H6R10209   1.323   5.840   6.069  0.8909 -0.1924 -0.8373
  101SAPE   C2710210   1.472   5.693   6.113  0.3494  0.0497 -0.8564
  101SAPE   H7R10211   1.540   5.668   6.197  0.5321  2.4461 -0.1934
  101SAPE   H7S10212   1.527   5.703   6.017  1.4246 -2.7146 -0.6250
  101SAPE   C2810213   1.360   5.584   6.104 -0.2915 -0.1103  1.1785
  101SAPE   H8R10214   1.323   5.563   6.205  0.4689  0.3956  1.5733
  101SAPE   C2910215   1.311   5.523   5.991  0.0881 -0.1083 -0.6008
  101SAPE   H9R10216   1.246   5.435   6.003  1.3531 -1.1953 -1.3434
  101SAPE  C21010217   1.349   5.556   5.847  0.3386 -0.6938  0.0633
  101SAPE  H10R10218   1.337   5.463   5.789 -2.7602 -0.8977  0.8656
  101SAPE  H10S10219   1.459   5.571   5.840  0.4487 -1.3669  0.2593
  101SAPE  C21110220   1.270   5.661   5.772 -0.0773  0.8136 -0.0675
  101SAPE  H11R10221   1.249   5.758   5.817 -2.2957  0.8052 -0.9663
  101SAPE  C21210222   1.244   5.651   5.641  0.1262  0.3282 -0.8493
  101SAPE  H12R10223   1.193   5.738   5.596  0.7025  1.1565  0.0479
  101SAPE  C21310224   1.263   5.527   5.552 -0.3376 -0.1829 -0.1861
  101SAPE  H13R10225   1.269   5.432   5.609 -0.3984  0.3888  0.8018
  101SAPE  H13S10226   1.364   5.525   5.506 -0.5835 -2.6087 -0.7098
  101SAPE  C21410227   1.151   5.514   5.452 -0.4360 -0.7218 -0.2932
  101SAPE  H14R10228   1.068   5.448   5.478 -0.0984 -1.9231 -2.0721
  101SAPE  C21510229   1.132   5.596   5.347  0.9515 -0.1312  0.0530
  101SAPE  H15R10230   1.048   5.563   5.283  0.0304 -0.2984  1.3054
  101SAPE  C21610231   1.227   5.703   5.290 -0.0231 -0.1728  0.0601
  101SAPE  H16R10232   1.334   5.698   5.319 -0.0746 -0.8455  0.1703
  101SAPE  H16S10233   1.189   5.802   5.323 -1.3613 -0.8026  0.4778
  101SAPE  C21710234   1.210   5.707   5.139 -0.1093  0.7138 -0.0485
  101SAPE  H17R10235   1.260   5.792   5.086 -0.0089 -0.4472 -1.8996
  101SAPE  H17S10236   1.100   5.712   5.126 -0.6425 -2.1901  2.2516
  101SAPE  C21810237   1.241   5.583   5.050 -0.6154  1.0407 -0.5054
  101SAPE  H18R10238   1.168   5.505   5.076  0.4234  0.3716  0.4962
  101SAPE  H18S10239   1.348   5.553   5.061 -0.9878 -0.3949 -0.7110
  101SAPE  C21910240   1.228   5.605   4.895 -0.3702  0.2704 -0.4372
  101SAPE  H19R10241   1.134   5.659   4.872 -0.1711  1.3939  1.2409
  101SAPE  H19S10242   1.235   5.508   4.841 -3.0084 -0.6149  0.6767
  101SAPE  C22010243   1.343   5.680   4.831 -0.0553  0.0442 -0.2192
  101SAPE  H20R10244   1.441   5.630   4.844  0.2399  0.8396  0.7580
  101SAPE  H20S10245   1.360   5.779   4.878 -1.3425 -0.6905  1.9404
  101SAPE  H20T10246   1.330   5.687   4.721  0.4910  3.4984 -0.1770
  101SAPE   C3310247   1.547   5.073   5.925 -0.1319 -0.2693 -0.1221
  101SAPE   H3X10248   1.441   5.076   5.892  0.7124  1.9732 -3.0121
  101SAPE   H3Y10249   1.567   4.976   5.976  1.6782 -0.0903 -0.4387
  101SAPE   C3410250   1.630   5.091   5.804 -0.7198  0.1303  0.6111
  101SAPE   H4X10251   1.737   5.096   5.835 -1.2105  1.1610  2.2808
  101SAPE   H4Y10252   1.607   5.192   5.764  0.8924 -0.0076 -0.7878
  101SAPE   C3510253   1.599   4.988   5.691 -0.6658  0.2214  0.1488
  101SAPE   H5X10254   1.490   4.989   5.666 -0.5888 -0.6568 -0.2880
  101SAPE   H5Y10255   1.621   4.883   5.720  1.2732  1.0419  1.9195
  101SAPE   C3610256   1.681   5.014   5.563  0.1848  0.2999  0.3279
  101SAPE   H6X10257   1.786   5.013   5.602  0.5796  3.5721 -0.3474
  101SAPE   H6Y10258   1.664   5.115   5.520 -2.9716  1.0972  3.0146
  101SAPE   C3710259   1.668   4.908   5.452  0.1263  0.0389 -0.6637
  101SAPE   H7X10260   1.559   4.892   5.442  0.1475 -0.5512 -0.0367
  101SAPE   H7Y10261   1.718   4.817   5.491  2.2143  0.9971 -0.9839
  101SAPE   C3810262   1.715   4.947   5.307  0.0065 -0.5824 -0.2711
  101SAPE   H8X10263   1.826   4.945   5.307  0.1064  1.6196  0.7958
  101SAPE   H8Y10264   1.681   5.049   5.281  0.0573 -1.3735 -3.9651
  101SAPE   C3910265   1.654   4.844   5.206 -0.4923  0.2404 -0.4730
  101SAPE   H9X10266   1.546   4.835   5.230  0.1055 -2.3409  1.6107
  101SAPE   H9Y10267   1.692   4.741   5.221 -3.5207 -0.9856 -0.4117
  101SAPE  C31010268   1.690   4.895   5.062  0.0251  0.1910 -0.7954
  101SAPE  H10X10269   1.799   4.882   5.043  0.1797  0.1273  0.1052
  101SAPE  H10Y10270   1.656   5.001   5.059 -0.1422  0.2053  0.7258
  101SAPE  C31110271   1.627   4.825   4.945 -0.0488  0.4184 -0.7487
  101SAPE  H11X10272   1.658   4.876   4.852 -0.9957  1.9049 -0.2711
  101SAPE  H11Y10273   1.518   4.809   4.953  0.4353 -2.8203  1.0301
  101SAPE  C31210274   1.675   4.675   4.932  0.5582 -0.4071  0.0675
  101SAPE  H12X10275   1.624   4.646   4.837 -1.0198 -1.0635  1.0733
  101SAPE  H12Y10276   1.650   4.616   5.022  0.7714  0.5555  0.7758
  101SAPE  C31310277   1.826   4.661   4.906  0.2720 -0.0984 -0.1801
  101SAPE  H13X10278   1.897   4.684   4.989 -0.0469  1.7030 -0.3532
  101SAPE  H13Y10279   1.858   4.731   4.826 -0.7641 -0.7931 -1.2226
  101SAPE  C31410280   1.851   4.526   4.854 -0.0796  0.3991  0.0937
  101SAPE  H14X10281   1.757   4.484   4.813 -0.7513  1.2060  0.7798
  101SAPE  H14Y10282   1.875   4.459   4.939  0.7191  1.0032  0.3614
  101SAPE  C31510283   1.969   4.513   4.758 -0.3735  0.3281  0.2688
  101SAPE  H15X10284   2.049   4.564   4.816 -1.0641  1.4191  0.2908
  101SAPE  H15Y10285   1.967   4.573   4.664  2.0765  1.4597  0.8670
  101SAPE  C31610286   2.013   4.364   4.723  0.4757  0.3183 -0.1301
  101SAPE  H16X10287   2.013   4.301   4.814  2.3390  2.4337  1.4449
  101SAPE  H16Y10288   2.108   4.362   4.665  0.0843 -0.4587 -0.7531
  101SAPE  C31710289   1.908   4.306   4.627  0.8860 -0.1645 -0.7339
  101SAPE  H17X10290   1.907   4.370   4.536  0.2329  0.2160 -0.4628
  101SAPE  H17Y10291   1.806   4.309   4.669  0.6852 -1.8350 -1.0087
  101SAPE  C31810292   1.945   4.170   4.591  1.1404  0.5026  0.4836
  101SAPE  H18X10293   1.852   4.122   4.552  3.0610 -0.9151 -2.8545
  101SAPE  H18Y10294   1.967   4.115   4.685 -0.7212 -3.7988 -1.3295
  101SAPE  H18Z10295   2.031   4.160   4.522  1.0443  0.0048  0.4331
  102SAPE     N10296   2.972   3.312   7.404  0.4089  0.2797  0.3497
  102SAPE   HN110297   2.915   3.274   7.482 -0.8612  0.7155 -0.3349
  102SAPE   HN210298   3.071   3.283   7.420  0.7283  0.8537 -0.5431
  102SAPE   HN310299   2.972   3.416   7.398 -2.2466  0.3626  0.7116
  102SAPE   C1210300   2.957   3.237   7.272  0.3341  0.5491  0.7987
  102SAPE  H12A10301   2.858   3.257   7.225  1.3384  0.1337 -1.6894
  102SAPE  H12B10302   2.955   3.127   7.288 -0.2257  0.2493 -1.0198
  102SAPE   C1110303   3.066   3.272   7.178  0.6271 -0.3575 -0.1812
  102SAPE  H11A10304   3.047   3.380   7.160 -2.1888 -0.8834 -0.8608
  102SAPE  H11B10305   3.049   3.212   7.086 -0.6008 -1.2920  0.6176
  102SAPE     P10306   3.312   3.305   7.157  0.0190 -0.1328 -0.2094
  102SAPE   O1310307   3.318   3.452   7.176  0.3194  0.0801 -0.6999
  102SAPE   O1410308   3.442   3.242   7.184  0.0680 -0.1805  0.4615
  102SAPE   O1210309   3.190   3.239   7.237  0.4823 -0.2950 -0.5518
  102SAPE   O1110310   3.274   3.255   7.016  0.7463 -0.0867 -0.3970
  102SAPE    C110311   3.275   3.345   6.904 -0.6085 -0.3721 -0.0534
  102SAPE    HA10312   3.174   3.388   6.886  0.2653  2.1830  0.6347
  102SAPE    HB10313   3.338   3.435   6.921 -0.0237 -0.3779 -1.9543
  102SAPE    C210314   3.311   3.280   6.765  0.2333 -0.3214 -0.1895
  102SAPE    HS10315   3.227   3.210   6.745 -1.6169  1.6240  0.4087
  102SAPE   O2110316   3.431   3.210   6.778  0.0442 -0.2171  0.1403
  102SAPE   C2110317   3.443   3.099   6.694  0.9925 -0.0037  0.3093
  102SAPE   O2210318   3.353   3.043   6.632 -0.6178 -0.4049  0.2548
  102SAPE   C2210319   3.590   3.057   6.683  0.8243 -0.5762 -0.2489
  102SAPE   H2R10320   3.648   3.129   6.745 -0.7598  0.0707  0.5597
  102SAPE   H2S10321   3.599   2.957   6.731 -0.2289 -1.5324 -1.9490
  102SAPE    C310322   3.326   3.388   6.645 -0.0927  0.4339 -0.1794
  102SAPE    HX10323   3.429   3.429   6.653  0.2592  0.3251 -3.0762
  102SAPE    HY10324   3.246   3.463   6.663 -0.9572 -1.1984  3.6085
  102SAPE   O3110325   3.319   3.327   6.513  0.2854  0.6120  0.6217
  102SAPE   C3110326   3.198   3.270   6.475 -0.2051  0.8233  0.2757
  102SAPE   O3210327   3.093   3.290   6.528 -0.5658  0.5037 -0.4071
  102SAPE   C3210328   3.226   3.170   6.361  0.1482  0.0017  0.1776
  102SAPE   H2X10329   3.274   3.084   6.411 -1.0580 -0.8291 -0.0479
  102SAPE   H2Y10330   3.290   3.229   6.292 -0.0275  1.8628  1.5212
  102SAPE   C2310331   3.641   3.060   6.535  0.2271 -0.1908 -0.3717
  102SAPE   H3R10332   3.604   2.967   6.486 -2.9711  0.6075  0.3025
  102SAPE   H3S10333   3.751   3.060   6.551 -0.2051 -0.3653  3.6701
  102SAPE   C2410334   3.605   3.186   6.459  0.2481  0.5162 -0.1861
  102SAPE   H4R10335   3.586   3.272   6.527  2.4727  1.5776 -0.8503
  102SAPE   H4S10336   3.507   3.172   6.408  0.7705 -1.3217 -0.7762
  102SAPE   C2510337   3.711   3.232   6.367  0.8440  0.8451 -0.3118
  102SAPE   H5R10338   3.814   3.214   6.402  0.9639  0.0386 -1.0420
  102SAPE   C2610339   3.683   3.273   6.239 -1.3127 -1.0035 -0.7239
  102SAPE   H6R10340   3.771   3.315   6.187 -1.7404  3.7823  1.8063
  102SAPE   C2710341   3.551   3.275   6.160 -0.4173 -0.1421 -0.2901
  102SAPE   H7R10342   3.543   3.351   6.079  0.7547 -2.6116 -2.9308
  102SAPE   H7S10343   3.476   3.304   6.236 -0.9711  0.8856 -1.1986
  102SAPE   C2810344   3.495   3.145   6.097 -0.1231  0.4462 -0.5006
  102SAPE   H8R10345   3.442   3.089   6.175  1.5243 -0.3104  0.1422
  102SAPE   C2910346   3.467   3.122   5.967 -0.3854 -0.4919 -0.2863
  102SAPE   H9R10347   3.406   3.034   5.944  1.7039 -1.6180 -1.8782
  102SAPE  C21010348   3.515   3.197   5.842  0.4736  0.0069  0.6703
  102SAPE  H10R10349   3.493   3.303   5.866  2.5611  0.9338 -1.1771
  102SAPE  H10S10350   3.446   3.171   5.759  0.3675  0.6408  0.5583
  102SAPE  C21110351   3.660   3.180   5.804 -0.1199 -0.2445  0.1034
  102SAPE  H11R10352   3.732   3.192   5.886 -0.9183 -0.5355  0.8611
  102SAPE  C21210353   3.710   3.148   5.682 -0.4324 -0.2026  0.0810
  102SAPE  H12R10354   3.818   3.133   5.673 -0.4587 -0.5338  0.2789
  102SAPE  C21310355   3.632   3.138   5.551  0.1542  0.7455  0.7704
  102SAPE  H13R10356   3.687   3.173   5.460 -1.2939 -1.6974 -1.1642
  102SAPE  H13S10357   3.540   3.199   5.548  1.5565  3.1822  2.9742
  102SAPE  C21410358   3.608   2.991   5.527  0.2992  0.6090 -0.6035
  102SAPE  H14R10359   3.592   2.939   5.622 -0.8207  1.6966 -0.1806
  102SAPE  C21510360   3.578   2.932   5.403 -0.1419 -0.0725  0.1682
  102SAPE  H15R10361   3.540   2.829   5.396  0.8159 -0.4302  0.0186
  102SAPE  C21610362   3.592   2.991   5.260  0.1401 -0.3501 -0.4770
  102SAPE  H16R10363   3.681   3.057   5.262 -0.6492  0.7468 -0.1691
  102SAPE  H16S10364   3.506   3.059   5.241  0.1023  0.0758  1.0621
  102SAPE  C21710365   3.612   2.892   5.145 -0.3460 -0.3609  0.7185
  102SAPE  H17R10366   3.522   2.826   5.146 -0.9564  0.3974 -0.7181
  102SAPE  H17S10367   3.703   2.827   5.147  1.2546  1.6926 -0.7550
  102SAPE  C21810368   3.619   2.969   5.010 -0.1829  0.5794 -0.5507
  102SAPE  H18R10369   3.725   3.001   5.005 -0.1521  0.4589 -0.6542
  102SAPE  H18S10370   3.555   3.059   5.017 -0.5516  0.2084  2.0480
  102SAPE  C21910371   3.585   2.880   4.886 -0.3613 -0.8408 -0.7351
  102SAPE  H19R10372   3.478   2.852   4.898 -1.9741  3.7289 -2.0189
  102SAPE  H19S10373   3.657   2.796   4.883  3.5089  2.1849 -1.7000
  102SAPE  C22010374   3.616   2.958   4.758 -0.1235  0.0187  0.3825
  102SAPE  H20R10375   3.572   3.060   4.755  0.1053  0.1086 -0.1501
  102SAPE  H20S10376   3.581   2.904   4.667 -1.5206  2.5340 -0.6609
  102SAPE  H20T10377   3.726   2.977   4.754 -0.2363  0.7026  0.3592
  102SAPE   C3310378   3.097   3.124   6.281  0.1945 -0.1609 -0.0291
  102SAPE   H3X10379   3.040   3.215   6.252  2.6022  0.3936 -3.5805
  102SAPE   H3Y10380   3.034   3.073   6.357 -0.0680 -0.3157 -0.3449
  102SAPE   C3410381   3.124   3.036   6.161 -0.4030  0.0164  0.0292
  102SAPE   H4X10382   3.163   2.938   6.196  0.1511  0.4174  0.5514
  102SAPE   H4Y10383   3.198   3.085   6.095 -1.5119  0.5647 -0.8522
  102SAPE   C3510384   3.004   3.027   6.073  0.6738 -0.0549 -0.4858
  102SAPE   H5X10385   2.977   3.133   6.052 -1.7269 -0.1841  1.4514
  102SAPE   H5Y10386   2.922   2.976   6.129  1.7910  0.2389  1.5052
  102SAPE   C3610387   3.026   2.936   5.955  0.5098  0.5322 -0.5320
  102SAPE   H6X10388   3.049   2.835   5.994  0.3625  1.8043  3.2649
  102SAPE   H6Y10389   3.111   2.974   5.894 -0.4304  1.5021 -1.2810
  102SAPE   C3710390   2.904   2.931   5.864 -0.2059  0.5972  0.7871
  102SAPE   H7X10391   2.880   3.039   5.853 -1.6909  0.5060  2.6527
  102SAPE   H7Y10392   2.817   2.880   5.911 -1.2270  0.0225 -1.5830
  102SAPE   C3810393   2.927   2.862   5.732  0.4809 -0.1531  0.3317
  102SAPE   H8X10394   2.976   2.762   5.739 -4.6304 -3.0633 -0.4413
  102SAPE   H8Y10395   2.999   2.923   5.674  0.2241 -2.2575 -2.3987
  102SAPE   C3910396   2.811   2.844   5.633 -0.3048 -0.1315 -0.8388
  102SAPE   H9X10397   2.757   2.940   5.620  2.6808  1.7400 -0.2589
  102SAPE   H9Y10398   2.734   2.775   5.672 -0.9123 -0.2608 -2.1975
  102SAPE  C31010399   2.857   2.808   5.494 -0.5903 -0.4215 -0.7832
  102SAPE  H10X10400   2.904   2.708   5.498 -0.1343 -0.1808  1.5666
  102SAPE  H10Y10401   2.933   2.877   5.452  3.0822 -4.2029 -1.0342
  102SAPE  C31110402   2.734   2.805   5.393 -0.5653 -1.0759 -0.0453
  102SAPE  H11X10403   2.774   2.773   5.295  0.6702  2.0705 -0.6700
  102SAPE  H11Y10404   2.701   2.910   5.380 -0.4322 -1.2780 -2.3264
  102SAPE  C31210405   2.610   2.727   5.430  0.6882  0.2722  0.3188
  102SAPE  H12X10406   2.572   2.752   5.531  0.3198 -0.2167  0.3098
  102SAPE  H12Y10407   2.630   2.619   5.411  1.5823  0.3824  0.6124
  102SAPE  C31310408   2.488   2.766   5.339 -0.1914 -0.6246 -0.1250
  102SAPE  H13X10409   2.461   2.872   5.358  2.2052  0.0793 -0.3626
  102SAPE  H13Y10410   2.401   2.711   5.382 -0.1617  0.6933  1.7374
  102SAPE  C31410411   2.520   2.748   5.189 -0.0739  0.5243 -0.1470
  102SAPE  H14X10412   2.541   2.639   5.176 -3.6383 -0.3163  0.0863
  102SAPE  H14Y10413   2.604   2.816   5.162 -0.9850  0.9310 -2.1582
  102SAPE  C31510414   2.407   2.782   5.100  0.2287  0.1472 -0.6432
  102SAPE  H15X10415   2.456   2.800   5.001 -0.3688 -2.0297 -1.3868
  102SAPE  H15Y10416   2.356   2.878   5.123 -1.7377 -1.1036  0.4535
  102SAPE  C31610417   2.299   2.672   5.090 -0.3780 -0.1942  0.5036
  102SAPE  H16X10418   2.243   2.662   5.186  1.1834 -1.3500  1.3555
  102SAPE  H16Y10419   2.355   2.578   5.072 -0.3059 -0.0121 -0.2462
  102SAPE  C31710420   2.202   2.696   4.974 -0.7140 -0.2371  0.4505
  102SAPE  H17X10421   2.138   2.606   4.973 -0.8285 -0.1527  0.1091
  102SAPE  H17Y10422   2.272   2.710   4.888  1.2891  0.9028  2.1751
  102SAPE  C31810423   2.098   2.815   4.973 -0.6944  0.6463 -0.6701
  102SAPE  H18X10424   2.029   2.805   5.060 -0.5315 -0.0996 -0.6134
  102SAPE  H18Y10425   2.041   2.798   4.879  0.5416 -0.3022 -1.2771
  102SAPE  H18Z10426   2.149   2.913   4.968 -2.3055  1.5272 -0.5711
  103SAPE     N10427   6.244   6.825   2.789 -0.3992  0.1573  0.1397
  103SAPE   HN110428   6.334   6.778   2.766  0.1861  0.0496  2.4364
  103SAPE   HN210429   6.175   6.755   2.822  1.3861 -2.4630 -1.3790
  103SAPE   HN310430   6.203   6.854   2.698 -1.8683 -1.0854  0.3750
  103SAPE   C1210431   6.290   6.935   2.879  0.4386 -0.2813 -0.0385
  103SAPE  H12A10432   6.368   7.000   2.835  0.0195 -1.4227 -2.6663
  103SAPE  H12B10433   6.339   6.889   2.967  3.2944  0.4661 -1.1198
  103SAPE   C1110434   6.169   7.026   2.911 -0.9853 -0.0089 -0.1602
  103SAPE  H11A10435   6.199   7.109   2.978 -0.0105  0.3046 -0.9540
  103SAPE  H11B10436   6.083   6.971   2.955 -0.0300 -0.5168  1.1404
  103SAPE     P10437   5.983   7.128   2.765 -0.3152  0.4559 -0.1638
  103SAPE   O1310438   5.980   7.228   2.647  0.2876  0.0237  0.0505
  103SAPE   O1410439   5.897   7.009   2.752 -0.5370  0.7111 -0.2867
  103SAPE   O1210440   6.129   7.084   2.788  1.0322  0.1589  0.1389
  103SAPE   O1110441   5.934   7.208   2.890  0.6331  0.2417 -0.4452
  103SAPE    C110442   6.010   7.326   2.929  0.3281 -0.2788 -0.4720
  103SAPE    HA10443   6.118   7.300   2.934  0.1947 -0.6538  0.7737
  103SAPE    HB10444   6.007   7.416   2.864  1.4655  2.0048  2.3994
  103SAPE    C210445   5.967   7.375   3.074  0.0886 -0.6125  0.0914
  103SAPE    HS10446   6.022   7.466   3.104 -1.8648  0.4676  0.5501
  103SAPE   O2110447   5.969   7.263   3.167 -0.0467 -0.4706  0.2898
  103SAPE   C2110448   6.090   7.245   3.206  0.5514  0.1875  0.4521
  103SAPE   O2210449   6.185   7.315   3.182 -0.2432  0.1895 -0.1057
  103SAPE   C2210450   6.096   7.115   3.298 -1.1475 -0.4453  0.0212
  103SAPE   H2R10451   6.035   7.133   3.389 -0.4400  1.7315  0.1078
  103SAPE   H2S10452   6.039   7.033   3.248 -1.5817 -0.5356  0.6568
  103SAPE    C310453   5.820   7.425   3.067  0.0179  0.2223  0.6617
  103SAPE    HX10454   5.755   7.348   3.021 -1.3836  1.6694  0.1433
  103SAPE    HY10455   5.837   7.513   3.002  2.7315 -0.0612  0.8611
  103SAPE   O3110456   5.767   7.478   3.191  0.3658  0.7495 -1.0092
  103SAPE   C3110457   5.811   7.588   3.236  0.3231 -0.3188  0.0906
  103SAPE   O3210458   5.895   7.661   3.183  0.1647 -0.3406 -0.2435
  103SAPE   C3210459   5.744   7.606   3.376 -0.4646  0.9590 -0.1735
  103SAPE   H2X10460   5.821   7.663   3.433  0.2776  1.5038 -1.6884
  103SAPE   H2Y10461   5.751   7.505   3.423  1.4486  1.5279  0.9029
  103SAPE   C2310462   6.241   7.086   3.339  0.5591 -0.2550  0.2941
  103SAPE   H3R10463   6.308   7.111   3.254  1.1259  1.0668  1.0866
  103SAPE   H3S10464   6.254   6.982   3.375 -2.0249 -0.5109  0.6534
  103SAPE   C2410465   6.283   7.170   3.458  0.5114  0.4291 -0.7152
  103SAPE   H4R10466   6.217   7.152   3.545  0.3831  0.4215 -0.8153
  103SAPE   H4S10467   6.271   7.278   3.436 -0.7155  0.6313  0.7609
  103SAPE   C2510468   6.428   7.128   3.491  0.1826  0.3026 -0.2839
  103SAPE   H5R10469   6.489   7.095   3.406 -0.8124  0.0403 -0.9065
  103SAPE   C2610470   6.480   7.105   3.613 -0.1249 -0.5593 -0.2291
  103SAPE   H6R10471   6.582   7.063   3.620  0.1436  0.1393  0.2055
  103SAPE   C2710472   6.408   7.125   3.741 -0.1955  0.5417 -0.6558
  103SAPE   H7R10473   6.309   7.173   3.731 -1.0170 -1.0559 -0.4999
  103SAPE   H7S10474   6.470   7.186   3.809 -0.7074  0.8680 -0.4781
  103SAPE   C2810475   6.371   6.989   3.797  0.2173  0.0227  0.2196
  103SAPE   H8R10476   6.305   6.936   3.726  1.0670  0.9122 -1.2978
  103SAPE   C2910477   6.402   6.936   3.918  0.0970 -0.8654  0.7567
  103SAPE   H9R10478   6.375   6.831   3.935  1.5999 -1.3031  0.5397
  103SAPE  C21010479   6.496   7.005   4.016  0.3045 -0.1219  0.4592
  103SAPE  H10R10480   6.432   7.075   4.074  0.6462  2.1473 -1.7528
  103SAPE  H10S10481   6.579   7.065   3.973  0.4184 -0.3313  0.3826
  103SAPE  C21110482   6.565   6.908   4.109 -0.1114  0.5348  0.0259
  103SAPE  H11R10483   6.600   6.813   4.066 -2.5822 -1.5280  2.2309
  103SAPE  C21210484   6.587   6.918   4.238  0.0549  1.0216 -0.2852
  103SAPE  H12R10485   6.652   6.836   4.274 -0.4037 -0.3698 -2.4259
  103SAPE  C21310486   6.536   7.024   4.327  0.5370 -0.6208  0.1955
  103SAPE  H13R10487   6.514   7.118   4.273  1.3049 -0.0430  0.8706
  103SAPE  H13S10488   6.613   7.053   4.401 -0.0277  0.3328  0.4354
  103SAPE  C21410489   6.409   6.979   4.394  0.2431  0.4764  0.0567
  103SAPE  H14R10490   6.350   6.910   4.331 -0.8546  1.4571 -0.0293
  103SAPE  C21510491   6.357   7.014   4.511 -0.1530 -0.0154 -0.0385
  103SAPE  H15R10492   6.264   6.963   4.539 -0.7872  0.7840 -0.6668
  103SAPE  C21610493   6.420   7.107   4.615 -0.1171 -0.0253  0.0254
  103SAPE  H16R10494   6.395   7.214   4.597 -1.5036 -0.4081 -0.3856
  103SAPE  H16S10495   6.531   7.117   4.616 -0.1879  0.7896  0.2212
  103SAPE  C21710496   6.411   7.055   4.764  0.5306 -0.0800 -0.0527
  103SAPE  H17R10497   6.438   6.948   4.761 -0.7861 -0.4316  0.3613
  103SAPE  H17S10498   6.305   7.052   4.796 -0.3399 -2.9409 -2.7890
  103SAPE  C21810499   6.480   7.133   4.877 -0.2960 -0.3069  0.0243
  103SAPE  H18R10500   6.499   7.236   4.838  0.7339 -0.6645 -0.4668
  103SAPE  H18S10501   6.584   7.094   4.883  0.5038  1.1993 -2.4017
  103SAPE  C21910502   6.402   7.134   5.011 -0.9369  0.5906  0.6402
  103SAPE  H19R10503   6.464   7.184   5.089 -1.6872  0.6745  1.1921
  103SAPE  H19S10504   6.389   7.028   5.040  3.6212  0.0881  1.5315
  103SAPE  C22010505   6.262   7.198   5.017 -0.1495 -0.5412  0.1476
  103SAPE  H20R10506   6.214   7.181   5.116  0.3141  0.5556  0.5752
  103SAPE  H20S10507   6.191   7.165   4.938 -1.3389  3.2347 -0.5712
  103SAPE  H20T10508   6.269   7.308   5.007 -0.4158 -0.4853  0.5553
  103SAPE   C3310509   5.609   7.687   3.373 -0.4707 -0.2455  0.4312
  103SAPE   H3X10510   5.542   7.630   3.307  0.7006 -1.1797  0.0165
  103SAPE   H3Y10511   5.628   7.789   3.332  2.7523 -0.9414 -0.1108
  103SAPE   C3410512   5.535   7.703   3.508  0.2217 -0.2098  0.4121
  103SAPE   H4X10513   5.613   7.747   3.574  1.6110 -0.1581 -1.1793
  103SAPE   H4Y10514   5.498   7.609   3.554  1.4739 -0.5374  0.7892
  103SAPE   C3510515   5.410   7.797   3.494  1.0014 -0.5399 -1.1630
  103SAPE   H5X10516   5.342   7.750   3.420 -0.6006  0.1192 -0.1736
  103SAPE   H5Y10517   5.452   7.897   3.468  2.4999 -0.8000  0.1221
  103SAPE   C3610518   5.328   7.806   3.630 -0.7205  0.2370  0.7032
  103SAPE   H6X10519   5.281   7.708   3.652  1.7239 -0.6976  2.1058
  103SAPE   H6Y10520   5.244   7.878   3.622  0.2914  1.6969  2.4019
  103SAPE   C3710521   5.419   7.838   3.750  0.6534  0.3388 -0.0160
  103SAPE   H7X10522   5.496   7.917   3.736  0.9797  0.1325  0.5774
  103SAPE   H7Y10523   5.482   7.751   3.777 -0.9517 -0.6142  0.8529
  103SAPE   C3810524   5.334   7.863   3.878 -0.6145 -0.1892  0.3293
  103SAPE   H8X10525   5.255   7.786   3.892 -0.4012 -0.4725  0.0008
  103SAPE   H8Y10526   5.274   7.955   3.865 -0.3975 -0.1645 -0.5497
  103SAPE   C3910527   5.420   7.875   4.006  0.2449 -0.8180 -0.0322
  103SAPE   H9X10528   5.489   7.961   3.998  0.5034 -0.9366  0.8029
  103SAPE   H9Y10529   5.478   7.781   4.018  1.6730  0.1442  0.9113
  103SAPE  C31010530   5.339   7.919   4.125  0.4025 -0.9042  0.0508
  103SAPE  H10X10531   5.264   7.993   4.090  0.5154 -2.1302 -3.0695
  103SAPE  H10Y10532   5.408   7.961   4.202  2.3037 -1.1867 -1.4060
  103SAPE  C31110533   5.261   7.815   4.197  0.3121  0.2512 -0.6712
  103SAPE  H11X10534   5.330   7.736   4.235  0.4682  0.8461  0.3063
  103SAPE  H11Y10535   5.199   7.760   4.122  0.8935 -0.5135 -0.6047
  103SAPE  C31210536   5.182   7.871   4.316 -0.0809  0.3478  0.0652
  103SAPE  H12X10537   5.098   7.924   4.265  0.5584  1.0459 -0.2771
  103SAPE  H12Y10538   5.231   7.944   4.383  1.8823 -1.4415  0.6946
  103SAPE  C31310539   5.128   7.754   4.398  0.7088  0.4961 -0.0596
  103SAPE  H13X10540   5.208   7.736   4.472  1.4018  2.1982 -0.3466
  103SAPE  H13Y10541   5.109   7.665   4.334 -1.0165  0.7170  0.0944
  103SAPE  C31410542   4.992   7.788   4.460  0.4302 -0.2270 -0.2624
  103SAPE  H14X10543   4.964   7.711   4.536 -1.4162  1.2518  0.6163
  103SAPE  H14Y10544   4.927   7.776   4.371  0.0857  0.2667 -0.0818
  103SAPE  C31510545   4.979   7.925   4.527 -0.0875 -0.2255 -0.5667
  103SAPE  H15X10546   4.874   7.948   4.553 -1.4359 -2.3244 -3.6391
  103SAPE  H15Y10547   5.009   8.011   4.463  1.7378 -0.5704 -0.2392
  103SAPE  C31610548   5.070   7.918   4.652  0.0556  0.7928 -0.3263
  103SAPE  H16X10549   5.177   7.937   4.628  0.9739 -1.1094  1.8742
  103SAPE  H16Y10550   5.081   7.811   4.681  0.9232  1.2918  1.2929
  103SAPE  C31710551   5.001   7.989   4.766 -0.1572  0.4404 -0.6292
  103SAPE  H17X10552   4.898   7.949   4.772  1.2229 -3.5526 -0.9380
  103SAPE  H17Y10553   4.991   8.097   4.740 -1.2376  0.1802 -1.3682
  103SAPE  C31810554   5.063   7.962   4.903  0.3364  0.6469 -0.0116
  103SAPE  H18X10555   5.173   7.976   4.901  0.6687 -1.3827  0.8723
  103SAPE  H18Y10556   5.051   7.852   4.919 -1.1340  0.8529  0.4599
  103SAPE  H18Z10557   5.003   8.003   4.988 -3.0902 -1.6665 -1.1024
  104SAPE     N10558   6.371   1.467   2.547  0.0142  0.4092  0.5774
  104SAPE   HN110559   6.339   1.560   2.580  0.3626  0.2725  1.3299
  104SAPE   HN210560   6.352   1.475   2.445  1.1666  1.3201  0.4043
  104SAPE   HN310561   6.308   1.391   2.579  0.4192 -0.8449 -1.4150
  104SAPE   C1210562   6.506   1.439   2.598 -0.1973  0.3064 -0.6203
  104SAPE  H12A10563   6.514   1.428   2.709  0.7239 -1.2391 -0.8068
  104SAPE  H12B10564   6.586   1.511   2.569 -0.5554  1.0757  0.2371
  104SAPE   C1110565   6.558   1.310   2.536  0.6140  0.4956 -0.1461
  104SAPE  H11A10566   6.660   1.293   2.577  0.7539  1.2053 -0.1799
  104SAPE  H11B10567   6.567   1.339   2.429 -2.2851  1.4958 -0.2196
  104SAPE     P10568   6.534   1.055   2.545  0.4123 -0.0649 -0.4132
  104SAPE   O1310569   6.432   0.964   2.497  0.0846  0.8521  0.0719
  104SAPE   O1410570   6.667   1.071   2.474 -0.0065 -0.3909 -0.2902
  104SAPE   O1210571   6.470   1.202   2.568  0.2127  0.9623  0.2400
  104SAPE   O1110572   6.566   1.017   2.697  0.3817 -0.4962  0.5327
  104SAPE    C110573   6.475   1.059   2.796  0.7002 -0.7016 -0.2803
  104SAPE    HA10574   6.469   1.167   2.819 -4.0507 -1.2258  2.1406
  104SAPE    HB10575   6.374   1.017   2.776  0.1621  1.4610 -2.5958
  104SAPE    C210576   6.499   0.977   2.927  0.1870 -0.4114 -1.0025
  104SAPE    HS10577   6.486   0.869   2.905  1.3280 -0.9417  0.7029
  104SAPE   O2110578   6.397   1.012   3.016  0.2782 -0.3514  0.0820
  104SAPE   C2110579   6.362   0.929   3.112 -0.3198  0.1544 -0.8244
  104SAPE   O2210580   6.398   0.812   3.114  0.3223  0.2197  0.5721
  104SAPE   C2210581   6.252   0.995   3.196 -0.2787 -0.0362  0.0608
  104SAPE   H2R10582   6.237   1.097   3.154 -2.0876 -0.3585 -0.1776
  104SAPE   H2S10583   6.165   0.928   3.177  1.2832 -2.1891  0.1147
  104SAPE    C310584   6.630   1.017   2.980 -0.6362  0.3643 -0.6984
  104SAPE    HX10585   6.637   1.128   2.974  2.0377  0.2845 -0.4675
  104SAPE    HY10586   6.712   0.982   2.915 -1.7103 -1.6425 -1.0441
  104SAPE   O3110587   6.667   0.977   3.119  0.7341  0.2507 -0.0658
  104SAPE   C3110588   6.715   0.845   3.111  0.5004 -0.0448  0.7032
  104SAPE   O3210589   6.705   0.776   3.007  0.8728  0.0453  0.6677
  104SAPE   C3210590   6.776   0.812   3.245 -0.2492  0.0467  0.4445
  104SAPE   H2X10591   6.830   0.895   3.295 -0.2337  1.1596 -1.3219
  104SAPE   H2Y10592   6.847   0.731   3.221 -0.0921 -0.3687  2.1801
  104SAPE   C2310593   6.274   0.974   3.352 -0.5640  0.1180  0.2193
  104SAPE   H3R10594   6.330   1.066   3.378  1.2141 -1.1804  1.1929
  104SAPE   H3S10595   6.336   0.885   3.375  1.4162  1.8472  1.9628
  104SAPE   C2410596   6.141   0.961   3.429  0.2003 -0.5554 -0.5410
  104SAPE   H4R10597   6.085   0.872   3.392 -0.1633 -0.4272 -0.3125
  104SAPE   H4S10598   6.076   1.051   3.426 -0.0499 -0.7639 -1.8153
  104SAPE   C2510599   6.176   0.943   3.576  0.0975 -0.4930  0.2944
  104SAPE   H5R10600   6.173   1.036   3.633 -2.8335  0.1625 -0.7878
  104SAPE   C2610601   6.188   0.822   3.634  0.3152  0.1685  0.6072
  104SAPE   H6R10602   6.200   0.819   3.743 -0.5531  2.5204  0.8260
  104SAPE   C2710603   6.178   0.691   3.562 -0.1359 -0.1459 -0.1212
  104SAPE   H7R10604   6.284   0.682   3.528  1.4797  2.8755  3.3612
  104SAPE   H7S10605   6.117   0.680   3.470 -0.6787 -0.7306  0.3026
  104SAPE   C2810606   6.154   0.579   3.656  0.2462  0.3048  0.5434
  104SAPE   H8R10607   6.246   0.533   3.696 -1.8786 -2.4496  2.6631
  104SAPE   C2910608   6.037   0.522   3.674  0.6536  0.2689 -0.1880
  104SAPE   H9R10609   6.037   0.432   3.738 -0.0266  1.5851  1.7472
  104SAPE  C21010610   5.904   0.563   3.609  0.0450  0.1403 -0.6465
  104SAPE  H10R10611   5.914   0.582   3.500  0.7548  0.5009 -0.5296
  104SAPE  H10S10612   5.882   0.658   3.662  1.1708  0.3086 -0.4418
  104SAPE  C21110613   5.803   0.454   3.620 -0.0626  0.1322  0.1896
  104SAPE  H11R10614   5.814   0.377   3.543  0.0371 -0.2476  0.5748
  104SAPE  C21210615   5.704   0.435   3.714 -0.3287  0.2314 -0.0999
  104SAPE  H12R10616   5.634   0.352   3.703  2.1389 -2.2347  1.5934
  104SAPE  C21310617   5.674   0.523   3.837 -0.9367  0.3726 -0.0490
  104SAPE  H13R10618   5.754   0.599   3.851  2.0345 -2.3773 -0.8995
  104SAPE  H13S10619   5.659   0.462   3.929  2.6335  1.4372  1.4135
  104SAPE  C21410620   5.543   0.595   3.789  0.0080 -0.2313 -0.0590
  104SAPE  H14R10621   5.552   0.644   3.691  2.1433 -1.9424 -0.7886
  104SAPE  C21510622   5.424   0.588   3.848 -0.0445 -0.2168 -0.1247
  104SAPE  H15R10623   5.339   0.652   3.819 -0.8773 -1.3292 -0.2232
  104SAPE  C21610624   5.400   0.532   3.986 -0.3584  0.0208 -0.2833
  104SAPE  H16R10625   5.492   0.505   4.042  0.7602  1.7382 -1.2079
  104SAPE  H16S10626   5.335   0.443   3.975 -0.1864 -0.0251 -0.9579
  104SAPE  C21710627   5.327   0.639   4.066  0.9813  0.5304  0.2385
  104SAPE  H17R10628   5.224   0.646   4.024  1.3095  0.7907 -0.5334
  104SAPE  H17S10629   5.397   0.726   4.068  0.4227  1.0195 -0.7042
  104SAPE  C21810630   5.314   0.595   4.212 -0.0915 -0.2658 -0.5556
  104SAPE  H18R10631   5.272   0.678   4.273 -1.0449  0.1217 -1.7117
  104SAPE  H18S10632   5.417   0.571   4.247 -0.0023  0.8603 -0.0059
  104SAPE  C21910633   5.227   0.473   4.246 -0.2666  0.1463  0.2419
  104SAPE  H19R10634   5.287   0.383   4.220 -1.6913 -1.0443  0.9457
  104SAPE  H19S10635   5.142   0.477   4.175 -0.9138  2.5409  1.0506
  104SAPE  C22010636   5.200   0.451   4.395  0.3197 -0.6157 -0.1696
  104SAPE  H20R10637   5.289   0.483   4.453  0.7562 -0.1961 -1.0528
  104SAPE  H20S10638   5.192   0.341   4.407  3.5236 -0.8218  0.8172
  104SAPE  H20T10639   5.115   0.511   4.436  1.9773  1.3751  0.5028
  104SAPE   C3310640   6.669   0.750   3.331  0.1191 -0.3256 -0.2281
  104SAPE   H3X10641   6.640   0.651   3.290 -0.4609 -1.4386  2.6541
  104SAPE   H3Y10642   6.574   0.808   3.332  0.7030  0.7256  2.1868
  104SAPE   C3410643   6.724   0.722   3.469  0.1346 -0.2702 -0.8525
  104SAPE   H4X10644   6.776   0.810   3.512 -0.2895 -1.3116  1.9646
  104SAPE   H4Y10645   6.808   0.649   3.468  0.1146 -0.3153  0.3232
  104SAPE   C3510646   6.607   0.674   3.568 -0.1427 -0.4584  0.3853
  104SAPE   H5X10647   6.611   0.563   3.564 -0.3727 -0.4685  0.4163
  104SAPE   H5Y10648   6.502   0.699   3.541 -0.7823 -0.8092  2.3490
  104SAPE   C3610649   6.621   0.728   3.712 -0.1808  0.1470  0.2491
  104SAPE   H6X10650   6.602   0.838   3.712  1.7214  0.5436  2.1519
  104SAPE   H6Y10651   6.728   0.717   3.742 -0.3881 -0.5740  0.7279
  104SAPE   C3710652   6.526   0.656   3.810  0.3085 -0.0397  0.2752
  104SAPE   H7X10653   6.565   0.557   3.841  0.5427  0.8292  3.1086
  104SAPE   H7Y10654   6.429   0.645   3.758  0.2416 -0.4936  0.4952
  104SAPE   C3810655   6.498   0.736   3.938 -0.1377 -0.5090  0.5204
  104SAPE   H8X10656   6.444   0.828   3.905 -0.0876  0.4222  2.8549
  104SAPE   H8Y10657   6.590   0.764   3.994 -1.0711 -4.1363  4.3087
  104SAPE   C3910658   6.411   0.649   4.032  0.3686 -0.5507 -0.1451
  104SAPE   H9X10659   6.455   0.547   4.028  1.7950 -0.0610  1.5450
  104SAPE   H9Y10660   6.312   0.638   3.983  0.5446  1.2906 -0.9737
  104SAPE  C31010661   6.394   0.703   4.180 -0.1749  0.0300 -0.5200
  104SAPE  H10X10662   6.316   0.782   4.174  1.4822  1.7161 -0.6083
  104SAPE  H10Y10663   6.486   0.752   4.216 -0.0492  1.1763 -2.2487
  104SAPE  C31110664   6.365   0.590   4.274  0.3842  0.3047  0.0390
  104SAPE  H11X10665   6.366   0.628   4.379  1.0335 -0.5467  0.3550
  104SAPE  H11Y10666   6.443   0.512   4.261 -0.1583 -0.5555  1.6421
  104SAPE  C31210667   6.217   0.540   4.234 -0.7243  0.3182  0.0664
  104SAPE  H12X10668   6.222   0.470   4.148 -0.3802  0.3848  0.0290
  104SAPE  H12Y10669   6.151   0.626   4.211  1.4740  1.9480 -0.4496
  104SAPE  C31310670   6.177   0.451   4.348 -0.1392  0.2954 -0.0909
  104SAPE  H13X10671   6.265   0.391   4.380  0.3248  1.6129  1.1791
  104SAPE  H13Y10672   6.092   0.391   4.309 -0.2227  1.0693 -1.1259
  104SAPE  C31410673   6.131   0.530   4.477 -0.6904 -0.0767  0.2039
  104SAPE  H14X10674   6.166   0.635   4.469 -0.2356 -0.1455  1.1998
  104SAPE  H14Y10675   6.164   0.487   4.574  0.8697  0.7000  0.0455
  104SAPE  C31510676   5.983   0.556   4.491 -0.3637  0.8103  0.4051
  104SAPE  H15X10677   5.924   0.477   4.439  0.2943  0.3135  0.4020
  104SAPE  H15Y10678   5.954   0.654   4.446 -0.9065  0.4050 -0.1459
  104SAPE  C31610679   5.943   0.563   4.632  0.1239  0.0649 -0.6285
  104SAPE  H16X10680   5.985   0.652   4.684 -0.4880  1.4675 -2.4619
  104SAPE  H16Y10681   5.986   0.471   4.679  1.3453  0.6053 -0.6453
  104SAPE  C31710682   5.796   0.560   4.668  0.1565  0.0759 -0.6112
  104SAPE  H17X10683   5.746   0.491   4.596 -0.9419 -0.4049  0.5774
  104SAPE  H17Y10684   5.765   0.666   4.662  1.3452  0.4882  0.0715
  104SAPE  C31810685   5.769   0.514   4.812 -0.4171  0.1814  0.0038
  104SAPE  H18X10686   5.826   0.423   4.841 -0.9559  0.1914  1.1540
  104SAPE  H18Y10687   5.659   0.499   4.822 -0.2874 -1.4801 -0.7880
  104SAPE  H18Z10688   5.795   0.598   4.881  0.5638  1.1364 -1.4482
  105SAPE     N10689   3.185   0.589   2.688 -0.0651 -0.1423  0.4997
  105SAPE   HN110690   3.164   0.691   2.681 -2.2166 -0.3989  2.2259
  105SAPE   HN210691   3.111   0.559   2.623 -0.6771  0.4794  0.8960
  105SAPE   HN310692   3.171   0.562   2.788 -2.0814  0.0109  0.2867
  105SAPE   C1210693   3.321   0.557   2.631 -0.5238  0.4134  0.3981
  105SAPE  H12A10694   3.386   0.628   2.685 -2.3545  2.2139  0.3490
  105SAPE  H12B10695   3.317   0.588   2.524  1.2961 -3.8060 -1.1218
  105SAPE   C1110696   3.355   0.416   2.662  0.0624 -0.2208 -0.3277
  105SAPE  H11A10697   3.378   0.408   2.770  0.0431 -1.6172 -0.4201
  105SAPE  H11B10698   3.452   0.398   2.610 -0.5710  0.0357 -1.6501
  105SAPE     P10699   3.239   0.172   2.664 -0.4860  0.1464 -0.1886
  105SAPE   O1310700   3.131   0.158   2.761 -0.4574  0.1434 -1.0192
  105SAPE   O1410701   3.218   0.089   2.543 -0.3691  0.1367 -0.1009
  105SAPE   O1210702   3.260   0.315   2.610 -0.5140 -0.0042 -0.3239
  105SAPE   O1110703   3.379   0.128   2.723 -0.4460 -0.6697  0.3163
  105SAPE    C110704   3.412  -0.014   2.719  0.4072  0.3092  0.0706
  105SAPE    HA10705   3.351  -0.070   2.645  1.5407  0.7757 -1.2697
  105SAPE    HB10706   3.517  -0.029   2.685  0.5458  0.0491  0.5978
  105SAPE    C210707   3.415  -0.076   2.872 -0.1008  0.7622 -0.1949
  105SAPE    HS10708   3.452  -0.179   2.852 -1.4649  0.5085 -1.5993
  105SAPE   O2110709   3.281  -0.070   2.939 -0.5867 -0.2835 -0.3554
  105SAPE   C2110710   3.188  -0.140   2.882 -0.0007 -0.6759 -0.0307
  105SAPE   O2210711   3.201  -0.221   2.795  0.4776  0.5320 -0.0878
  105SAPE   C2210712   3.056  -0.123   2.959 -0.6927 -0.5074  0.1439
  105SAPE   H2R10713   3.038  -0.014   2.974 -1.0248 -0.6864  1.1279
  105SAPE   H2S10714   2.980  -0.150   2.882  1.2993 -1.9264 -1.4514
  105SAPE    C310715   3.529  -0.009   2.954 -0.4951 -0.1671 -0.9117
  105SAPE    HX10716   3.491   0.092   2.981 -0.2158 -0.2965 -0.0027
  105SAPE    HY10717   3.626  -0.000   2.901  1.3752 -1.0610  2.1005
  105SAPE   O3110718   3.557  -0.076   3.081 -0.4635 -0.2911 -0.5579
  105SAPE   C3110719   3.675  -0.133   3.095  0.0134  0.2373  0.2916
  105SAPE   O3210720   3.774  -0.136   3.022  0.8390  0.0006  0.2465
  105SAPE   C3210721   3.686  -0.191   3.231  0.1494 -0.0050 -0.5182
  105SAPE   H2X10722   3.789  -0.231   3.240  0.2159  0.4431  1.1494
  105SAPE   H2Y10723   3.604  -0.264   3.248  0.0329  0.4972  1.3474
  105SAPE   C2310724   3.054  -0.189   3.098  0.0983 -0.3019 -0.4793
  105SAPE   H3R10725   2.962  -0.152   3.147  0.0777 -2.0235  0.8968
  105SAPE   H3S10726   3.140  -0.158   3.162  0.1150  0.6924 -0.9571
  105SAPE   C2410727   3.040  -0.343   3.091  0.4458  0.0787  0.4240
  105SAPE   H4R10728   2.973  -0.368   3.006  0.4626  0.8496  0.1726
  105SAPE   H4S10729   2.989  -0.379   3.183 -1.0465 -0.3283 -0.5429
  105SAPE   C2510730   3.178  -0.408   3.097  0.6147  0.1567 -0.1063
  105SAPE   H5R10731   3.222  -0.443   3.002 -0.3879 -0.1653 -0.4563
  105SAPE   C2610732   3.254  -0.422   3.209 -0.1472 -0.0062 -0.0470
  105SAPE   H6R10733   3.357  -0.457   3.195 -0.1786 -0.4170  0.6805
  105SAPE   C2710734   3.214  -0.366   3.347  0.7488  0.6970  0.1225
  105SAPE   H7R10735   3.225  -0.445   3.425 -2.4179 -2.3320 -2.1695
  105SAPE   H7S10736   3.106  -0.342   3.355  0.6170 -0.3417  2.0851
  105SAPE   C2810737   3.287  -0.241   3.383 -0.5052 -0.5117  0.2117
  105SAPE   H8R10738   3.331  -0.181   3.302  2.7692 -0.6065  1.7538
  105SAPE   C2910739   3.317  -0.202   3.509  0.5146  0.3535  0.5829
  105SAPE   H9R10740   3.391  -0.121   3.521  1.2564 -0.1908 -0.2147
  105SAPE  C21010741   3.264  -0.267   3.636 -0.0467 -0.0073  0.6389
  105SAPE  H10R10742   3.227  -0.371   3.627  2.3320 -0.8114 -0.7703
  105SAPE  H10S10743   3.174  -0.213   3.672  0.4739  0.4166  1.3454
  105SAPE  C21110744   3.363  -0.275   3.749 -0.1487  0.5146  0.4256
  105SAPE  H11R10745   3.455  -0.321   3.710 -0.3827  1.3476 -1.1737
  105SAPE  C21210746   3.349  -0.246   3.878 -0.3704  0.0695  0.5949
  105SAPE  H12R10747   3.428  -0.270   3.952  0.7803  1.2984 -0.1944
  105SAPE  C21310748   3.226  -0.191   3.941 -0.7965 -0.3795  0.1567
  105SAPE  H13R10749   3.147  -0.171   3.865  0.0377  0.5215 -0.5035
  105SAPE  H13S10750   3.249  -0.086   3.969 -0.9198 -0.4586  0.5586
  105SAPE  C21410751   3.182  -0.264   4.062 -0.4507  0.9010 -0.0151
  105SAPE  H14R10752   3.102  -0.334   4.032 -0.1818 -0.4748  2.2289
  105SAPE  C21510753   3.229  -0.247   4.187  0.4296 -0.1932 -0.1596
  105SAPE  H15R10754   3.185  -0.315   4.261  1.3178 -0.0224  0.5409
  105SAPE  C21610755   3.324  -0.143   4.235  0.0515  0.0754 -0.8715
  105SAPE  H16R10756   3.318  -0.053   4.170 -0.5167  0.2353 -0.6058
  105SAPE  H16S10757   3.428  -0.181   4.227  0.1835  0.2758 -0.1564
  105SAPE  C21710758   3.301  -0.096   4.376  0.5400 -0.3891  0.2475
  105SAPE  H17R10759   3.201  -0.047   4.384  1.8019  2.3449  0.4308
  105SAPE  H17S10760   3.383  -0.023   4.394  1.4384 -0.8149 -1.9122
  105SAPE  C21810761   3.321  -0.201   4.488 -0.5254 -0.1356  0.4926
  105SAPE  H18R10762   3.410  -0.264   4.462 -0.4939 -0.0641  0.4271
  105SAPE  H18S10763   3.233  -0.269   4.488  0.4615 -1.5511 -1.5098
  105SAPE  C21910764   3.361  -0.135   4.623  0.7956 -0.3122  0.2808
  105SAPE  H19R10765   3.447  -0.068   4.602 -0.0164  1.0003  0.9899
  105SAPE  H19S10766   3.387  -0.224   4.683  0.2976 -1.7092 -1.4851
  105SAPE  C22010767   3.255  -0.044   4.684 -0.2171  0.0973 -0.0859
  105SAPE  H20R10768   3.213   0.016   4.601  2.4308  1.2671 -0.7124
  105SAPE  H20S10769   3.301   0.012   4.769  3.5441  0.4653 -2.1321
  105SAPE  H20T10770   3.166  -0.102   4.716  0.1002 -0.2332  0.2077
  105SAPE   C3310771   3.690  -0.091   3.346 -0.1776 -0.4536 -0.4395
  105SAPE   H3X10772   3.590  -0.049   3.367  1.2000  2.8645  0.2277
  105SAPE   H3Y10773   3.759  -0.008   3.321 -0.0234 -1.0874 -2.2366
  105SAPE   C3410774   3.725  -0.162   3.482 -0.1338 -0.6342  0.6879
  105SAPE   H4X10775   3.832  -0.193   3.483  0.3480  0.7843 -0.9890
  105SAPE   H4Y10776   3.663  -0.249   3.510  0.6532 -1.3281  0.3268
  105SAPE   C3510777   3.707  -0.070   3.600 -0.7093  0.5282 -0.1239
  105SAPE   H5X10778   3.605  -0.027   3.596 -0.6493  0.6376 -0.5467
  105SAPE   H5Y10779   3.776   0.017   3.592 -0.8059  0.6230  0.0876
  105SAPE   C3610780   3.714  -0.146   3.731 -0.0847  0.4107 -0.4023
  105SAPE   H6X10781   3.784  -0.230   3.711 -1.0709 -0.3506 -0.6996
  105SAPE   H6Y10782   3.619  -0.196   3.759  0.3643 -0.0063  0.4357
  105SAPE   C3710783   3.740  -0.056   3.851 -0.2251 -0.4855  0.6441
  105SAPE   H7X10784   3.653   0.011   3.871 -0.2776 -0.5384  0.5916
  105SAPE   H7Y10785   3.820   0.018   3.828  2.2905 -2.8077  1.3316
  105SAPE   C3810786   3.763  -0.120   3.990  0.5522  0.3228  0.2680
  105SAPE   H8X10787   3.811  -0.049   4.060  0.8068  0.3558  0.0644
  105SAPE   H8Y10788   3.835  -0.204   3.972  0.2147  0.0021  0.3959
  105SAPE   C3910789   3.654  -0.204   4.046 -0.3867  1.0926  0.0888
  105SAPE   H9X10790   3.627  -0.275   3.964  2.5164  0.0860 -0.0879
  105SAPE   H9Y10791   3.567  -0.137   4.061  0.9983  3.3564 -1.4159
  105SAPE  C31010792   3.686  -0.271   4.181 -0.1560  0.3195  0.3518
  105SAPE  H10X10793   3.766  -0.347   4.177 -2.3350 -2.0313 -1.3079
  105SAPE  H10Y10794   3.595  -0.329   4.206  0.4905 -1.5095 -1.2770
  105SAPE  C31110795   3.712  -0.183   4.307  0.6874 -0.0578  0.8788
  105SAPE  H11X10796   3.636  -0.104   4.322 -0.2287 -1.1608  2.3594
  105SAPE  H11Y10797   3.811  -0.136   4.289 -0.1436  0.6519 -2.7635
  105SAPE  C31210798   3.733  -0.271   4.437  0.0530 -0.0763 -0.3817
  105SAPE  H12X10799   3.818  -0.342   4.443  1.2190  1.3416  0.5169
  105SAPE  H12Y10800   3.643  -0.336   4.436  0.9725 -1.4015  0.5986
  105SAPE  C31310801   3.736  -0.186   4.563  0.3227 -0.3280 -0.6890
  105SAPE  H13X10802   3.653  -0.113   4.553  0.6222  0.5383  2.1131
  105SAPE  H13Y10803   3.829  -0.130   4.541 -0.0090 -0.4117 -2.4119
  105SAPE  C31410804   3.727  -0.247   4.703  0.0625  0.6214 -0.5871
  105SAPE  H14X10805   3.809  -0.321   4.707  0.4485  1.0255 -0.9255
  105SAPE  H14Y10806   3.632  -0.304   4.707  1.3277 -1.5554 -0.4221
  105SAPE  C31510807   3.750  -0.146   4.814  0.0625 -0.3012 -0.2002
  105SAPE  H15X10808   3.647  -0.108   4.833 -0.1407 -1.9619  2.6305
  105SAPE  H15Y10809   3.828  -0.068   4.804 -0.7742  0.5734 -0.0974
  105SAPE  C31610810   3.790  -0.224   4.949 -0.8522 -0.4927  0.1625
  105SAPE  H16X10811   3.882  -0.283   4.929 -1.0020 -0.5689 -0.3299
  105SAPE  H16Y10812   3.708  -0.291   4.979 -1.6810  0.3433 -0.1752
  105SAPE  C31710813   3.828  -0.123   5.061  0.0969 -0.9528  1.1117
  105SAPE  H17X10814   3.746  -0.048   5.056 -1.7946 -2.9757 -2.1307
  105SAPE  H17Y10815   3.929  -0.083   5.037 -0.7036  0.8176  0.5181
  105SAPE  C31810816   3.838  -0.189   5.202  0.6067  0.0675  0.6783
  105SAPE  H18X10817   3.923  -0.260   5.211  0.2167 -0.1267  3.8834
  105SAPE  H18Y10818   3.742  -0.245   5.208 -0.9500  2.1502 -2.2737
  105SAPE  H18Z10819   3.849  -0.113   5.282 -0.7905  1.7543 -0.6499
  106SAPE     N10820   3.216   1.347   2.753 -0.6307 -0.1216 -0.2211
  106SAPE   HN110821   3.243   1.307   2.845  0.1226  2.0158  0.5580
  106SAPE   HN210822   3.282   1.332   2.675 -0.5450  2.6216 -0.7635
  106SAPE   HN310823   3.199   1.450   2.755 -1.4129 -0.2232 -1.2310
  106SAPE   C1210824   3.095   1.266   2.723 -0.1946 -0.4667  0.7492
  106SAPE  H12A10825   3.061   1.301   2.623 -0.1704  2.1023  1.5593
  106SAPE  H12B10826   3.016   1.294   2.795 -1.2671  0.7781 -0.8327
  106SAPE   C1110827   3.132   1.117   2.712 -0.3926  0.3072 -0.4022
  106SAPE  H11A10828   3.032   1.078   2.684 -1.6792  2.0988  1.3595
  106SAPE  H11B10829   3.154   1.088   2.817  0.9184 -0.5853 -0.9141
  106SAPE     P10830   3.297   0.946   2.599 -0.2203 -0.2294  0.1168
  106SAPE   O1310831   3.190   0.845   2.608  0.1154  0.5955  0.1123
  106SAPE   O1410832   3.372   0.947   2.469 -0.2683  0.1399 -0.2563
  106SAPE   O1210833   3.234   1.091   2.614 -0.1186 -0.5717  0.0456
  106SAPE   O1110834   3.390   0.924   2.721 -0.3055 -0.0771  0.4190
  106SAPE    C110835   3.469   1.019   2.792  0.6113  0.1177  0.1758
  106SAPE    HA10836   3.576   1.009   2.761 -0.1951 -2.5839 -2.1938
  106SAPE    HB10837   3.438   1.122   2.764  2.3359  0.2832 -1.3994
  106SAPE    C210838   3.457   0.999   2.946  0.7955 -0.3925  0.3769
  106SAPE    HS10839   3.357   1.000   2.994  0.7150 -1.1216  0.2378
  106SAPE   O2110840   3.533   1.106   3.001 -0.1849  0.4179  0.2298
  106SAPE   C2110841   3.478   1.225   3.010 -0.2827 -0.7976 -0.1826
  106SAPE   O2210842   3.374   1.255   2.953  0.4400  0.3367 -0.1528
  106SAPE   C2210843   3.560   1.333   3.091  0.1508  0.5992  0.7639
  106SAPE   H2R10844   3.642   1.279   3.144  0.4962  1.0299  0.6787
  106SAPE   H2S10845   3.605   1.397   3.012  2.5470 -2.5725 -0.6441
  106SAPE    C310846   3.511   0.860   2.981 -0.1171  0.5057 -0.2660
  106SAPE    HX10847   3.611   0.858   2.933  0.0159 -3.3168 -0.1081
  106SAPE    HY10848   3.432   0.800   2.930 -0.0551  0.4292 -0.2719
  106SAPE   O3110849   3.522   0.847   3.127 -0.0748  0.4058  0.1691
  106SAPE   C3110850   3.446   0.759   3.178  0.0984  0.5561 -0.1797
  106SAPE   O3210851   3.374   0.672   3.121 -0.2685  0.2158 -0.1609
  106SAPE   C3210852   3.447   0.775   3.334 -0.1895 -0.5190  0.5208
  106SAPE   H2X10853   3.395   0.872   3.346 -3.3492 -1.7630 -1.7122
  106SAPE   H2Y10854   3.555   0.780   3.360 -0.3206 -1.9506  1.4443
  106SAPE   C2310855   3.487   1.419   3.196  0.6940  0.7206  0.2298
  106SAPE   H3R10856   3.427   1.495   3.141  1.3680  0.6679 -0.6017
  106SAPE   H3S10857   3.566   1.467   3.257  1.7100  0.5188 -0.8673
  106SAPE   C2410858   3.395   1.341   3.285 -0.2086  0.4024 -0.7716
  106SAPE   H4R10859   3.315   1.289   3.229  0.7403 -2.1019  0.0593
  106SAPE   H4S10860   3.341   1.414   3.350 -0.7788 -0.6985  0.0241
  106SAPE   C2510861   3.470   1.247   3.375 -0.2855  0.3600 -0.1467
  106SAPE   H5R10862   3.493   1.149   3.332 -1.3920 -0.9311  2.0422
  106SAPE   C2610863   3.516   1.277   3.502 -0.5488  0.5259 -0.9353
  106SAPE   H6R10864   3.580   1.200   3.548 -1.5827  0.1559 -0.0697
  106SAPE   C2710865   3.487   1.393   3.588  0.3435 -0.2696  0.3440
  106SAPE   H7R10866   3.484   1.486   3.528  1.2120 -0.9793 -0.8361
  106SAPE   H7S10867   3.566   1.407   3.664  0.8602  1.5013 -0.4852
  106SAPE   C2810868   3.350   1.368   3.649  0.1603 -0.0098  0.3891
  106SAPE   H8R10869   3.259   1.370   3.586 -0.4966 -0.6456  1.2917
  106SAPE   C2910870   3.321   1.346   3.780 -0.2351  0.4942  0.2529
  106SAPE   H9R10871   3.217   1.336   3.813 -0.1960  0.1767  0.2784
  106SAPE  C21010872   3.429   1.350   3.886  0.2821 -0.7533  0.7098
  106SAPE  H10R10873   3.494   1.438   3.866 -4.0649  2.4648 -0.6449
  106SAPE  H10S10874   3.490   1.258   3.874  1.0583 -0.0477 -1.0227
  106SAPE  C21110875   3.363   1.358   4.023  0.6531 -0.1027 -0.5577
  106SAPE  H11R10876   3.256   1.383   4.028  1.1838  2.0009  3.1573
  106SAPE  C21210877   3.424   1.325   4.137 -0.2467  0.1573  0.6728
  106SAPE  H12R10878   3.362   1.344   4.225 -2.7156  1.1214 -1.1434
  106SAPE  C21310879   3.566   1.295   4.146  0.5981 -0.1978 -0.0748
  106SAPE  H13R10880   3.621   1.386   4.179 -2.0042  0.7355  2.0079
  106SAPE  H13S10881   3.611   1.263   4.050 -2.8318 -0.2199 -1.8297
  106SAPE  C21410882   3.597   1.183   4.237 -0.1446  0.2330 -0.2849
  106SAPE  H14R10883   3.609   1.088   4.183  1.3531  1.3859 -2.0952
  106SAPE  C21510884   3.599   1.187   4.370 -0.0550  0.6878 -0.5412
  106SAPE  H15R10885   3.612   1.094   4.428 -0.2486  0.5325 -0.7448
  106SAPE  C21610886   3.567   1.311   4.448  0.2068 -0.3746 -0.0529
  106SAPE  H16R10887   3.490   1.373   4.398  0.7701 -0.3551 -0.9230
  106SAPE  H16S10888   3.659   1.373   4.460 -0.9639  1.1213  1.8093
  106SAPE  C21710889   3.500   1.281   4.585  0.1958  0.0491  0.4231
  106SAPE  H17R10890   3.414   1.216   4.557 -1.0729  0.8203  2.3773
  106SAPE  H17S10891   3.461   1.371   4.638  1.8229  0.8908  0.2643
  106SAPE  C21810892   3.599   1.220   4.688  0.1557 -0.0331 -0.1043
  106SAPE  H18R10893   3.681   1.288   4.721 -1.0528  1.4647 -0.0560
  106SAPE  H18S10894   3.652   1.135   4.640 -1.3267 -0.5450 -0.9173
  106SAPE  C21910895   3.542   1.173   4.818  0.0509  0.4712 -0.2611
  106SAPE  H19R10896   3.457   1.102   4.811  1.0039 -0.8922  1.4204
  106SAPE  H19S10897   3.481   1.262   4.847 -1.0162 -0.2849 -0.1277
  106SAPE  C22010898   3.636   1.132   4.926 -0.2122  0.8612 -0.0896
  106SAPE  H20R10899   3.688   1.037   4.902  0.5087  0.9018  1.1970
  106SAPE  H20S10900   3.567   1.122   5.013 -1.4303 -0.3591 -1.1403
  106SAPE  H20T10901   3.715   1.207   4.947  0.5959 -0.0081  0.0548
  106SAPE   C3310902   3.395   0.658   3.420  0.7269  0.3455 -0.0969
  106SAPE   H3X10903   3.441   0.561   3.391  0.2160  0.2712 -0.6857
  106SAPE   H3Y10904   3.287   0.638   3.405  0.3256 -0.6609  3.2552
  106SAPE   C3410905   3.429   0.672   3.567 -0.0097 -0.0121  0.2959
  106SAPE   H4X10906   3.539   0.666   3.578  0.0859 -1.1579 -0.9695
  106SAPE   H4Y10907   3.373   0.589   3.616 -2.0174  0.3792 -1.1880
  106SAPE   C3510908   3.377   0.799   3.633  0.1144 -0.0096 -0.1623
  106SAPE   H5X10909   3.274   0.810   3.591 -0.5145 -0.1036  1.2899
  106SAPE   H5Y10910   3.445   0.881   3.602  1.0062 -0.7487 -0.2106
  106SAPE   C3610911   3.373   0.785   3.785 -0.0700 -0.9583 -0.1057
  106SAPE   H6X10912   3.477   0.754   3.811  0.2706 -0.9266 -1.3287
  106SAPE   H6Y10913   3.302   0.707   3.821 -0.2946  0.0833  1.8077
  106SAPE   C3710914   3.339   0.917   3.848 -0.9172 -0.7363 -0.0986
  106SAPE   H7X10915   3.228   0.920   3.851 -1.0736 -1.0446 -2.9509
  106SAPE   H7Y10916   3.375   1.012   3.803 -3.6222  0.0417 -0.8327
  106SAPE   C3810917   3.390   0.929   3.997  0.3762  0.4108  0.7348
  106SAPE   H8X10918   3.358   1.032   4.025 -0.8282  0.8288 -1.8570
  106SAPE   H8Y10919   3.501   0.924   4.001  0.4598  1.5904  0.2619
  106SAPE   C3910920   3.327   0.828   4.102  0.2365 -0.6069 -0.4888
  106SAPE   H9X10921   3.362   0.723   4.093 -0.6753 -0.8531 -1.3284
  106SAPE   H9Y10922   3.216   0.823   4.101  0.2402 -0.9112  0.0075
  106SAPE  C31010923   3.352   0.882   4.249  0.1092  0.1273  0.0769
  106SAPE  H10X10924   3.434   0.957   4.249 -1.1766  1.6666 -2.4859
  106SAPE  H10Y10925   3.365   0.798   4.320 -0.7034 -0.0507  0.0252
  106SAPE  C31110926   3.225   0.949   4.302  1.0931 -0.7803 -0.6262
  106SAPE  H11X10927   3.148   0.869   4.288 -0.1000  0.2541 -0.2115
  106SAPE  H11Y10928   3.205   1.033   4.232  2.8811 -0.9000 -1.3261
  106SAPE  C31210929   3.246   0.990   4.451 -0.3048  0.0335  0.0501
  106SAPE  H12X10930   3.343   1.041   4.471  0.4464 -1.4702  0.3762
  106SAPE  H12Y10931   3.245   0.897   4.513 -2.0998  0.3521  0.5768
  106SAPE  C31310932   3.138   1.082   4.494  0.9045 -0.5214  0.4180
  106SAPE  H13X10933   3.045   1.033   4.458  1.0667 -0.5794  0.0767
  106SAPE  H13Y10934   3.139   1.180   4.442 -0.3614 -0.7577 -0.1024
  106SAPE  C31410935   3.138   1.123   4.641 -0.1262 -0.7037 -0.4966
  106SAPE  H14X10936   3.065   1.206   4.658  0.7370  0.5352 -2.3842
  106SAPE  H14Y10937   3.235   1.170   4.669 -1.0492  0.6056  0.6566
  106SAPE  C31510938   3.106   1.004   4.725  0.1182  0.5334 -0.4105
  106SAPE  H15X10939   3.192   0.937   4.749 -1.4268 -2.3877 -2.4770
  106SAPE  H15Y10940   3.037   0.932   4.677 -0.9294  1.0351  0.3096
  106SAPE  C31610941   3.035   1.048   4.852 -0.2146 -0.4481  0.4069
  106SAPE  H16X10942   3.082   1.144   4.883  1.1854 -0.8896 -0.2265
  106SAPE  H16Y10943   3.051   0.971   4.930  0.9902  0.4202  1.0492
  106SAPE  C31710944   2.889   1.060   4.833  0.4794 -0.9460 -0.4192
  106SAPE  H17X10945   2.851   0.959   4.805  1.2185 -0.7973 -2.1278
  106SAPE  H17Y10946   2.857   1.119   4.744  3.1552  1.9627  0.3657
  106SAPE  C31810947   2.817   1.106   4.958 -0.5893  0.2377  0.3942
  106SAPE  H18X10948   2.708   1.119   4.942 -0.9303 -0.4719  1.9889
  106SAPE  H18Y10949   2.858   1.202   4.998 -0.7051 -0.6714  2.8505
  106SAPE  H18Z10950   2.833   1.028   5.035 -0.9533 -1.5697 -1.2916
  107SAPE     N10951   2.142   6.468   2.288 -0.1872 -0.1270  0.2617
  107SAPE   HN110952   2.155   6.508   2.193  1.8386  0.6255  0.8072
  107SAPE   HN210953   2.223   6.403   2.297 -0.5305 -0.8073 -1.3054
  107SAPE   HN310954   2.055   6.412   2.287  0.4438 -1.1317 -0.0825
  107SAPE   C1210955   2.142   6.566   2.390 -0.3785 -0.4284 -0.0523
  107SAPE  H12A10956   2.069   6.644   2.361  0.6381  0.4813 -0.2187
  107SAPE  H12B10957   2.240   6.618   2.386 -1.0864  0.8473 -1.6381
  107SAPE   C1110958   2.128   6.503   2.527 -0.8287  1.3065 -0.3224
  107SAPE  H11A10959   2.031   6.450   2.522  0.3539 -0.9442 -0.8803
  107SAPE  H11B10960   2.126   6.569   2.617 -0.3172 -0.7946  1.3111
  107SAPE     P10961   2.213   6.255   2.574  0.1925  0.2821 -0.0629
  107SAPE   O1310962   2.132   6.189   2.472 -0.6151 -0.1946  0.6993
  107SAPE   O1410963   2.343   6.198   2.616 -0.2902 -0.0121 -0.1912
  107SAPE   O1210964   2.240   6.407   2.537  0.2622  0.2946  0.3941
  107SAPE   O1110965   2.127   6.262   2.704  0.7294 -0.0497  0.4684
  107SAPE    C110966   2.103   6.362   2.797  0.6230  0.1258 -0.0196
  107SAPE    HA10967   2.192   6.426   2.817 -0.6058  1.9798 -0.1672
  107SAPE    HB10968   2.031   6.433   2.750 -0.7633 -0.9360  0.4292
  107SAPE    C210969   2.036   6.305   2.925 -0.5711 -0.4722  0.5642
  107SAPE    HS10970   1.932   6.345   2.924 -1.0894 -1.7902  0.2579
  107SAPE   O2110971   2.105   6.327   3.049 -0.0507  0.3685 -0.0614
  107SAPE   C2110972   2.099   6.453   3.083 -0.1707  0.2414 -0.9650
  107SAPE   O2210973   2.033   6.538   3.027  0.7173 -0.5971  0.0298
  107SAPE   C2210974   2.171   6.470   3.217  0.8946  1.4038 -0.2151
  107SAPE   H2R10975   2.211   6.370   3.248  2.3380  1.2463 -2.3169
  107SAPE   H2S10976   2.262   6.528   3.190  0.3248  1.9803 -0.9261
  107SAPE    C310977   2.013   6.154   2.917  0.2969  0.5987  0.0655
  107SAPE    HX10978   2.104   6.098   2.887 -0.7588 -1.3584  0.3444
  107SAPE    HY10979   1.948   6.133   2.829  0.5197 -1.1109  0.2854
  107SAPE   O3110980   1.959   6.099   3.045 -0.3985 -0.3915 -0.3332
  107SAPE   C3110981   1.834   6.058   3.059 -0.6627  0.0247 -0.3511
  107SAPE   O3210982   1.750   6.054   2.971  0.0724  0.7646  0.3307
  107SAPE   C3210983   1.818   6.013   3.207 -0.4119  0.3584 -0.0474
  107SAPE   H2X10984   1.921   6.001   3.246 -0.3335  0.4166 -0.2377
  107SAPE   H2Y10985   1.755   5.922   3.200 -0.0340  0.1025 -0.1059
  107SAPE   C2310986   2.083   6.518   3.335 -0.3291  0.4694 -0.2531
  107SAPE   H3R10987   2.039   6.617   3.313 -0.5024  0.9278  1.9102
  107SAPE   H3S10988   2.155   6.534   3.418 -1.3026 -0.5220  0.8164
  107SAPE   C2410989   1.974   6.416   3.385  0.2355  0.4240  0.2476
  107SAPE   H4R10990   1.921   6.374   3.296  0.7058  1.0061 -0.3101
  107SAPE   H4S10991   1.909   6.478   3.450 -0.7771 -0.4643  0.1132
  107SAPE   C2510992   2.022   6.299   3.466 -0.4872  0.3435  0.3807
  107SAPE   H5R10993   2.075   6.225   3.404 -0.4775  0.2260  0.5303
  107SAPE   C2610994   2.034   6.289   3.603 -0.6142  0.3411 -0.4869
  107SAPE   H6R10995   2.068   6.198   3.655  0.6719  0.2906 -1.3669
  107SAPE   C2710996   1.977   6.390   3.705  0.2944 -0.3624 -0.2544
  107SAPE   H7R10997   1.923   6.349   3.792 -0.3064  1.7498  0.4407
  107SAPE   H7S10998   1.904   6.454   3.651 -0.7606  0.7964  2.4224
  107SAPE   C2810999   2.086   6.478   3.759 -0.1310  0.1769 -0.6008
  107SAPE   H8R11000   2.172   6.491   3.692  0.2307 -0.2079 -0.2211
  107SAPE   C2911001   2.092   6.547   3.880 -0.4383  0.3660  0.0074
  107SAPE   H9R11002   2.185   6.603   3.894  0.3859 -0.4439 -1.8392
  107SAPE  C21011003   1.989   6.531   3.996  0.0215  0.3886  0.2239
  107SAPE  H10R11004   1.887   6.513   3.955  0.1587  1.0333 -0.4133
  107SAPE  H10S11005   1.980   6.626   4.053  0.9378  0.7175 -0.1630
  107SAPE  C21111006   2.028   6.414   4.081  0.6207  0.0875  0.2681
  107SAPE  H11R11007   2.014   6.316   4.033  2.8650 -0.4034  0.4748
  107SAPE  C21211008   2.055   6.413   4.210  0.0490 -0.1756 -0.7163
  107SAPE  H12R11009   2.062   6.321   4.269 -2.1564  0.1785  0.1908
  107SAPE  C21311010   2.082   6.539   4.286  0.3340  0.2144  0.5313
  107SAPE  H13R11011   1.994   6.605   4.268  1.2262  1.0991 -0.7749
  107SAPE  H13S11012   2.165   6.595   4.237 -1.0269  2.5805  0.7395
  107SAPE  C21411013   2.120   6.520   4.428  0.2002  0.4934  0.1853
  107SAPE  H14R11014   2.163   6.423   4.457  0.6631  1.4804  3.2031
  107SAPE  C21511015   2.124   6.614   4.523 -0.1282  0.6091 -0.9390
  107SAPE  H15R11016   2.163   6.586   4.622 -0.4420  1.2494 -0.6279
  107SAPE  C21611017   2.073   6.751   4.514 -0.8110  0.1032 -0.8074
  107SAPE  H16R11018   2.008   6.782   4.599  0.7359 -2.0423  1.2798
  107SAPE  H16S11019   1.997   6.753   4.433 -0.7018 -0.2056 -0.9178
  107SAPE  C21711020   2.182   6.856   4.487  0.4770  0.3336 -0.3717
  107SAPE  H17R11021   2.253   6.813   4.413  0.9008 -1.5386  1.0613
  107SAPE  H17S11022   2.242   6.874   4.578  0.0090 -1.4358  0.3241
  107SAPE  C21811023   2.126   6.987   4.445  0.2125 -0.0568 -0.4487
  107SAPE  H18R11024   2.075   6.968   4.348  1.7336  1.8605 -1.7062
  107SAPE  H18S11025   2.207   7.060   4.421  2.2861 -2.0934 -0.0558
  107SAPE  C21911026   2.020   7.044   4.541  0.3472  1.1133  0.2870
  107SAPE  H19R11027   2.057   7.033   4.645 -0.8566 -0.5275  0.5927
  107SAPE  H19S11028   1.919   7.001   4.528  1.0773  0.1199 -3.1157
  107SAPE  C22011029   1.984   7.188   4.514  0.0934 -0.0476 -0.2818
  107SAPE  H20R11030   1.900   7.219   4.580  0.3563 -1.5423  0.7908
  107SAPE  H20S11031   1.962   7.207   4.407 -1.2113 -1.5281 -0.3133
  107SAPE  H20T11032   2.057   7.266   4.545 -1.5708  1.6042 -0.3129
  107SAPE   C3311033   1.725   6.101   3.298 -0.1747 -0.0577 -0.1915
  107SAPE   H3X11034   1.626   6.068   3.259  0.8868 -3.4831 -0.3162
  107SAPE   H3Y11035   1.732   6.211   3.284  1.9306  0.2604  2.5879
  107SAPE   C3411036   1.734   6.063   3.445 -0.8946  0.1968  0.2731
  107SAPE   H4X11037   1.832   6.102   3.479 -1.2810 -1.3508  3.5671
  107SAPE   H4Y11038   1.719   5.953   3.457  0.5627 -0.0631 -0.0979
  107SAPE   C3511039   1.629   6.136   3.527 -0.4742  0.2053  0.5504
  107SAPE   H5X11040   1.531   6.083   3.523  0.5253 -1.6735 -0.4464
  107SAPE   H5Y11041   1.611   6.235   3.480 -5.0416 -0.1245  1.1660
  107SAPE   C3611042   1.662   6.163   3.674  0.1090 -0.6862 -0.4730
  107SAPE   H6X11043   1.588   6.232   3.719  1.3141 -0.5294  1.3478
  107SAPE   H6Y11044   1.756   6.220   3.684 -0.1214 -0.1361 -1.3535
  107SAPE   C3711045   1.657   6.033   3.756 -0.2502  0.1791  0.7801
  107SAPE   H7X11046   1.753   5.978   3.746  0.3531  1.2778  0.4486
  107SAPE   H7Y11047   1.572   5.968   3.725  0.1134 -0.2064  0.5827
  107SAPE   C3811048   1.657   6.067   3.905 -1.1169  0.0166  0.0769
  107SAPE   H8X11049   1.570   6.133   3.919 -0.9486 -0.0529  1.6247
  107SAPE   H8Y11050   1.746   6.119   3.947 -0.0215 -1.2813 -0.5386
  107SAPE   C3911051   1.623   5.941   3.992  0.2122  0.7098 -0.3944
  107SAPE   H9X11052   1.705   5.866   3.985 -1.0355 -0.6156 -2.1442
  107SAPE   H9Y11053   1.533   5.892   3.948  0.8943 -2.4268  1.3704
  107SAPE  C31011054   1.599   5.974   4.141  0.2573  0.4669 -0.9901
  107SAPE  H10X11055   1.526   5.911   4.196  0.6659  1.5543  0.8970
  107SAPE  H10Y11056   1.549   6.072   4.145 -0.8213 -0.0749  3.1188
  107SAPE  C31111057   1.723   5.956   4.221 -0.2907  0.3363  0.2246
  107SAPE  H11X11058   1.809   5.987   4.159 -0.5264  0.3820 -0.0796
  107SAPE  H11Y11059   1.737   5.849   4.251  2.7180  0.4586 -0.4226
  107SAPE  C31211060   1.740   6.044   4.344 -0.9206 -0.4167  0.2312
  107SAPE  H12X11061   1.739   6.154   4.329  0.4529 -0.3021  0.8754
  107SAPE  H12Y11062   1.838   6.035   4.394 -0.0447  0.4690 -1.2583
  107SAPE  C31311063   1.637   5.997   4.449 -0.2553 -0.2369 -0.3148
  107SAPE  H13X11064   1.679   5.960   4.545 -1.8605  0.3588  0.6639
  107SAPE  H13Y11065   1.581   5.907   4.416 -1.1239 -0.1524  0.8353
  107SAPE  C31411066   1.529   6.107   4.481 -0.5703  0.0982  0.1996
  107SAPE  H14X11067   1.505   6.156   4.384 -0.7099 -2.9838 -1.4549
  107SAPE  H14Y11068   1.566   6.170   4.564 -1.7649  0.6819  0.3088
  107SAPE  C31511069   1.391   6.034   4.504 -0.5988 -0.0013 -0.3115
  107SAPE  H15X11070   1.392   5.961   4.588  1.0509  2.2590  1.7935
  107SAPE  H15Y11071   1.376   5.976   4.411 -1.9237 -0.8605  0.4089
  107SAPE  C31611072   1.282   6.137   4.521  0.0776  0.2370 -0.1198
  107SAPE  H16X11073   1.188   6.079   4.537  0.0883  1.0898  4.1564
  107SAPE  H16Y11074   1.287   6.215   4.442  0.4455  1.0367  0.6835
  107SAPE  C31711075   1.288   6.216   4.653  0.1162  0.2056  0.3703
  107SAPE  H17X11076   1.374   6.284   4.636  0.5084 -0.6717 -1.3363
  107SAPE  H17Y11077   1.321   6.150   4.736 -1.9335 -2.6930 -0.9760
  107SAPE  C31811078   1.159   6.291   4.693 -0.9081  0.4141  0.0291
  107SAPE  H18X11079   1.185   6.340   4.790 -1.7931 -1.5363  1.3137
  107SAPE  H18Y11080   1.066   6.232   4.709 -1.3707 -0.4139 -4.4917
  107SAPE  H18Z11081   1.138   6.362   4.610 -2.3423 -0.0957 -0.0588
  108SAPE     N11082   5.737   5.663   2.362  0.1595 -0.5057  0.1758
  108SAPE   HN111083   5.646   5.620   2.336 -0.5854  0.8825  0.3843
  108SAPE   HN211084   5.732   5.758   2.319 -2.2295  0.0407  1.4582
  108SAPE   HN311085   5.808   5.603   2.317 -0.2432 -2.2464  1.7190
  108SAPE   C1211086   5.739   5.665   2.515 -0.5696 -0.3039 -0.0038
  108SAPE  H12A11087   5.757   5.557   2.536  0.0276 -0.2121 -0.0310
  108SAPE  H12B11088   5.640   5.704   2.546  0.0803  3.1515 -1.7424
  108SAPE   C1111089   5.859   5.740   2.579 -0.2528 -0.4540 -0.2777
  108SAPE  H11A11090   5.864   5.709   2.685  2.1870  1.5918  0.2989
  108SAPE  H11B11091   5.839   5.850   2.582  0.9662 -0.1984 -0.7588
  108SAPE     P11092   6.095   5.638   2.587 -0.0109 -0.3178  0.2082
  108SAPE   O1311093   6.044   5.527   2.663 -0.3325  0.2909 -0.0625
  108SAPE   O1411094   6.201   5.619   2.491  0.1285  0.4093  0.5592
  108SAPE   O1211095   5.983   5.704   2.505 -0.2768  0.9479  0.3569
  108SAPE   O1111096   6.126   5.758   2.691 -0.2448 -0.1433  0.5658
  108SAPE    C111097   6.262   5.761   2.743  0.0974 -0.0002 -0.3626
  108SAPE    HA11098   6.337   5.757   2.661  1.5727 -3.3354  0.9648
  108SAPE    HB11099   6.265   5.857   2.798 -2.9263  0.0331 -0.0717
  108SAPE    C211100   6.284   5.648   2.851  0.7511 -0.5083 -0.1308
  108SAPE    HS11101   6.299   5.550   2.799 -0.7674 -1.0737  0.4531
  108SAPE   O2111102   6.171   5.655   2.944 -0.0762  0.8168 -0.0504
  108SAPE   C2111103   6.137   5.532   2.997 -0.0189 -0.2594  0.3470
  108SAPE   O2211104   6.191   5.428   2.964  0.4773  0.2430  0.1475
  108SAPE   C2211105   6.030   5.550   3.092  1.0095  0.8680  0.5598
  108SAPE   H2R11106   6.066   5.620   3.171 -1.0485  1.3822  1.1043
  108SAPE   H2S11107   5.942   5.591   3.038 -1.0163 -2.0116  1.4034
  108SAPE    C311108   6.416   5.678   2.925  0.1282  0.6631  0.2104
  108SAPE    HX11109   6.401   5.769   2.986  2.4857  0.0350  1.8846
  108SAPE    HY11110   6.496   5.692   2.849  1.5221 -0.3192  1.4376
  108SAPE   O3111111   6.452   5.578   3.027 -0.3646 -0.1788 -0.1436
  108SAPE   C3111112   6.561   5.508   3.009  0.0967  0.2834 -0.4861
  108SAPE   O3211113   6.643   5.524   2.921  0.4712 -0.0967  0.0950
  108SAPE   C3211114   6.572   5.391   3.108  0.8599  0.2447  1.2497
  108SAPE   H2X11115   6.648   5.415   3.186  2.2893 -2.6307  0.8699
  108SAPE   H2Y11116   6.615   5.302   3.059 -0.1267 -0.6091  1.9083
  108SAPE   C2311117   5.996   5.415   3.177  0.2514  0.3130  0.4837
  108SAPE   H3R11118   6.092   5.373   3.212 -0.8867  0.9155  4.9630
  108SAPE   H3S11119   5.958   5.344   3.100 -1.3882 -0.2390  1.7441
  108SAPE   C2411120   5.892   5.442   3.283 -0.1137 -0.6232  0.3964
  108SAPE   H4R11121   5.796   5.465   3.233  0.8465  1.8157 -0.4927
  108SAPE   H4S11122   5.907   5.532   3.346 -1.7058 -0.6343  0.8130
  108SAPE   C2511123   5.863   5.320   3.366 -0.1000 -0.0599 -0.2768
  108SAPE   H5R11124   5.862   5.229   3.304 -1.3391 -0.0837 -0.2439
  108SAPE   C2611125   5.861   5.310   3.505  0.2839 -0.2762  0.0003
  108SAPE   H6R11126   5.833   5.213   3.550  0.5121 -0.1842  0.3433
  108SAPE   C2711127   5.870   5.417   3.605  0.6138 -0.0777 -0.3105
  108SAPE   H7R11128   5.905   5.514   3.564 -1.3826  0.8434  0.0123
  108SAPE   H7S11129   5.946   5.389   3.681  1.4081 -0.5904 -1.2787
  108SAPE   C2811130   5.744   5.451   3.679 -0.1366  0.2031 -0.7016
  108SAPE   H8R11131   5.658   5.461   3.612 -2.6309 -1.0562  2.0839
  108SAPE   C2911132   5.718   5.466   3.813  0.2189 -0.2866 -0.2577
  108SAPE   H9R11133   5.619   5.497   3.850  1.0501  0.5121  1.4244
  108SAPE  C21011134   5.822   5.439   3.926 -0.0047 -0.8006  0.0587
  108SAPE  H10R11135   5.919   5.396   3.894  0.0143 -0.4142 -0.4223
  108SAPE  H10S11136   5.775   5.379   4.006 -1.3488  0.8633  0.5788
  108SAPE  C21111137   5.856   5.566   3.992 -0.5268  0.1706  0.2531
  108SAPE  H11R11138   5.925   5.628   3.933 -2.9172  1.8069 -0.9743
  108SAPE  C21211139   5.818   5.611   4.108  0.4555  0.1430 -0.6795
  108SAPE  H12R11140   5.845   5.714   4.137  3.9120 -0.8945  0.2499
  108SAPE  C21311141   5.707   5.546   4.192 -0.0157  0.2728 -0.1592
  108SAPE  H13R11142   5.645   5.497   4.114  0.1953  0.1385 -0.2446
  108SAPE  H13S11143   5.650   5.632   4.235 -0.9744  0.2850 -1.3999
  108SAPE  C21411144   5.761   5.458   4.297  0.2016  1.0437 -0.7706
  108SAPE  H14R11145   5.835   5.382   4.266 -0.1546  0.6001 -0.5444
  108SAPE  C21511146   5.722   5.451   4.428  0.6529  0.1768 -0.6884
  108SAPE  H15R11147   5.768   5.372   4.490 -1.1482 -1.1373 -0.9481
  108SAPE  C21611148   5.618   5.530   4.496 -0.0296 -0.2594  0.3952
  108SAPE  H16R11149   5.539   5.461   4.532  0.0070 -0.3438  0.3146
  108SAPE  H16S11150   5.559   5.606   4.441  3.0549  1.8268 -0.2634
  108SAPE  C21711151   5.686   5.607   4.617 -0.1142  0.6666  0.3696
  108SAPE  H17R11152   5.769   5.674   4.586  1.8899 -2.5224 -1.7385
  108SAPE  H17S11153   5.727   5.539   4.695  1.0587  1.5535  0.5604
  108SAPE  C21811154   5.580   5.698   4.690 -0.0984  0.3106  0.2105
  108SAPE  H18R11155   5.541   5.770   4.615  1.4823 -1.2205 -2.2148
  108SAPE  H18S11156   5.634   5.760   4.765 -1.7965  3.6731 -1.1547
  108SAPE  C21911157   5.461   5.614   4.741 -0.8513  0.2748  0.4334
  108SAPE  H19R11158   5.514   5.542   4.806  0.9457 -0.2930 -1.5389
  108SAPE  H19S11159   5.403   5.566   4.659  2.1878 -1.3075 -0.9446
  108SAPE  C22011160   5.367   5.691   4.837  0.4267  0.6892 -0.1065
  108SAPE  H20R11161   5.285   5.730   4.773 -0.1476 -0.2503  0.0327
  108SAPE  H20S11162   5.428   5.760   4.899 -2.0074  1.6367  1.3673
  108SAPE  H20T11163   5.324   5.617   4.909  1.4423 -2.5695 -2.5812
  108SAPE   C3311164   6.448   5.349   3.191  0.2472  1.0479 -0.5328
  108SAPE   H3X11165   6.365   5.319   3.124  0.5146 -0.3516 -0.2735
  108SAPE   H3Y11166   6.400   5.422   3.259 -2.0321  0.5528 -1.5132
  108SAPE   C3411167   6.476   5.227   3.280  0.2500 -0.2681 -0.5351
  108SAPE   H4X11168   6.581   5.241   3.312 -0.3330 -0.0739  1.4159
  108SAPE   H4Y11169   6.487   5.141   3.211  0.7111 -0.0935 -0.6771
  108SAPE   C3511170   6.387   5.190   3.397 -0.1488  0.4693  0.2193
  108SAPE   H5X11171   6.282   5.167   3.366 -1.1785 -0.4268  3.9456
  108SAPE   H5Y11172   6.437   5.113   3.458  1.6311  0.2306 -1.4471
  108SAPE   C3611173   6.361   5.299   3.500 -0.7314 -0.1407  0.4627
  108SAPE   H6X11174   6.352   5.399   3.454 -1.5771  0.1702  1.2656
  108SAPE   H6Y11175   6.446   5.311   3.570 -0.4573 -0.3167  0.1620
  108SAPE   C3711176   6.238   5.273   3.585 -0.2420  0.0537  0.1295
  108SAPE   H7X11177   6.225   5.163   3.578  2.4805 -0.2040 -3.1478
  108SAPE   H7Y11178   6.149   5.331   3.554 -0.8046 -1.5982 -1.5146
  108SAPE   C3811179   6.263   5.305   3.739  0.8483 -0.0699  0.3039
  108SAPE   H8X11180   6.273   5.416   3.748 -3.3546  0.5593 -0.6599
  108SAPE   H8Y11181   6.359   5.254   3.761  2.1780  1.6152 -1.2389
  108SAPE   C3911182   6.162   5.250   3.840  1.0251  0.1367 -0.0312
  108SAPE   H9X11183   6.170   5.139   3.841  0.6338  0.0402 -2.0627
  108SAPE   H9Y11184   6.055   5.272   3.817  0.7823 -0.8852  0.0705
  108SAPE  C31011185   6.191   5.312   3.977  0.2461 -0.1640  0.0722
  108SAPE  H10X11186   6.183   5.423   3.985  1.1006 -0.1038  0.1533
  108SAPE  H10Y11187   6.295   5.286   4.006 -0.1820  0.1733  2.0351
  108SAPE  C31111188   6.104   5.252   4.091  0.5329  0.2238 -0.4288
  108SAPE  H11X11189   6.141   5.150   4.112 -0.1868 -0.5116 -2.4743
  108SAPE  H11Y11190   6.006   5.235   4.042  1.5166 -1.6698 -1.8956
  108SAPE  C31211191   6.075   5.347   4.208  0.2250  0.6003 -0.2589
  108SAPE  H12X11192   6.035   5.289   4.294  2.3247 -0.2582  0.2112
  108SAPE  H12Y11193   6.002   5.426   4.181 -0.5720  0.9930  2.7911
  108SAPE  C31311194   6.200   5.415   4.265 -0.8020  0.4442  0.3239
  108SAPE  H13X11195   6.225   5.503   4.202  1.5135 -0.3449  0.0398
  108SAPE  H13Y11196   6.274   5.332   4.269 -2.0050 -0.7453 -0.9176
  108SAPE  C31411197   6.182   5.452   4.415  0.5132 -0.0943 -0.0183
  108SAPE  H14X11198   6.078   5.491   4.419  0.1318 -1.1767  2.0207
  108SAPE  H14Y11199   6.268   5.517   4.441  0.9593 -0.4402 -0.6098
  108SAPE  C31511200   6.184   5.337   4.518 -0.3232 -0.8495 -0.2377
  108SAPE  H15X11201   6.280   5.281   4.516  0.7338  0.8745 -3.0589
  108SAPE  H15Y11202   6.106   5.258   4.505 -0.2837 -0.9710  0.2351
  108SAPE  C31611203   6.162   5.386   4.658  0.3167  0.4683  0.1008
  108SAPE  H16X11204   6.219   5.480   4.675  2.3451 -0.5392 -0.8674
  108SAPE  H16Y11205   6.195   5.310   4.732  0.5377 -0.5307 -0.9934
  108SAPE  C31711206   6.011   5.398   4.688  0.1115  0.3272 -0.7667
  108SAPE  H17X11207   5.945   5.445   4.612  1.8449  0.9890 -1.8959
  108SAPE  H17Y11208   6.008   5.462   4.779 -0.1044 -2.5573  1.4093
  108SAPE  C31811209   5.951   5.263   4.735  0.0994  0.2927 -0.2395
  108SAPE  H18X11210   5.949   5.184   4.656  1.2024 -0.0978  0.1112
  108SAPE  H18Y11211   5.845   5.269   4.768  0.6561  0.4097  1.6083
  108SAPE  H18Z11212   6.011   5.227   4.821  0.3765  2.5238  0.5605
  109SAPE     N11213   2.422   3.627   2.687  0.2926 -0.8454  0.1278
  109SAPE   HN111214   2.505   3.690   2.683  0.7990 -1.2868  2.2501
  109SAPE   HN211215   2.412   3.602   2.788  0.9434 -1.3853  0.0643
  109SAPE   HN311216   2.440   3.540   2.634 -0.9429  0.4828 -2.6713
  109SAPE   C1211217   2.280   3.688   2.648  0.3169  0.0387  0.0998
  109SAPE  H12A11218   2.293   3.706   2.539 -0.1390  1.6615  0.2940
  109SAPE  H12B11219   2.280   3.788   2.695  1.9425  0.3764 -0.5662
  109SAPE   C1111220   2.165   3.589   2.674  0.1172  0.1845 -0.2575
  109SAPE  H11A11221   2.081   3.642   2.625  0.8563  1.9158  0.2450
  109SAPE  H11B11222   2.155   3.579   2.784 -0.4005 -0.6753 -0.3741
  109SAPE     P11223   2.119   3.332   2.626 -0.1546 -0.7055 -0.0593
  109SAPE   O1311224   1.980   3.354   2.577  0.1164  0.5299  0.6476
  109SAPE   O1411225   2.194   3.217   2.564  0.5365 -0.8538  0.3376
  109SAPE   O1211226   2.204   3.466   2.607  0.3858  0.1092 -0.0408
  109SAPE   O1111227   2.114   3.302   2.781 -0.4947 -0.3615 -0.4160
  109SAPE    C111228   2.242   3.278   2.850 -0.3124 -0.0021  0.5264
  109SAPE    HA11229   2.265   3.169   2.841  1.5188  0.1756  2.3056
  109SAPE    HB11230   2.330   3.337   2.816  1.2847 -2.6280 -0.2564
  109SAPE    C211231   2.219   3.312   3.005  0.5255  0.3904  0.3317
  109SAPE    HS11232   2.140   3.388   3.021 -0.4735 -0.3279 -0.9654
  109SAPE   O2111233   2.347   3.337   3.066  0.2919 -0.2365  0.3202
  109SAPE   C2111234   2.399   3.455   3.026 -0.4287  0.4116 -0.3670
  109SAPE   O2211235   2.356   3.535   2.946  0.5135  0.5413  0.4937
  109SAPE   C2211236   2.517   3.462   3.114 -0.2705  0.0060 -0.4707
  109SAPE   H2R11237   2.548   3.365   3.159 -0.3724  0.1833 -0.0074
  109SAPE   H2S11238   2.600   3.494   3.048 -0.3597 -1.1888 -1.1824
  109SAPE    C311239   2.154   3.194   3.083  0.1844 -0.4534  0.5205
  109SAPE    HX11240   2.227   3.111   3.075  0.0993 -0.4218 -0.6965
  109SAPE    HY11241   2.061   3.171   3.027  1.9397 -1.2618 -2.2688
  109SAPE   O3111242   2.132   3.243   3.225  0.0562  0.0198  0.0580
  109SAPE   C3111243   2.135   3.148   3.322  0.5234 -0.3178 -0.2721
  109SAPE   O3211244   2.109   3.032   3.300  0.0881  0.0707  0.0848
  109SAPE   C3211245   2.162   3.220   3.447 -0.4473 -0.7093 -0.4572
  109SAPE   H2X11246   2.100   3.312   3.456  2.2094  1.3595 -1.8293
  109SAPE   H2Y11247   2.266   3.260   3.439 -0.4643 -0.3572  0.7838
  109SAPE   C2311248   2.490   3.562   3.231  1.0421 -0.6226  0.3244
  109SAPE   H3R11249   2.422   3.526   3.311 -2.1361 -1.4352 -2.4874
  109SAPE   H3S11250   2.443   3.655   3.193  2.0481 -0.0080  0.5650
  109SAPE   C2411251   2.621   3.607   3.291  0.4648  0.3868  0.4712
  109SAPE   H4R11252   2.593   3.693   3.355 -1.2651 -1.5670  2.5154
  109SAPE   H4S11253   2.696   3.646   3.219  2.9781  0.1158  2.7492
  109SAPE   C2511254   2.676   3.500   3.383  0.4706 -0.3170  0.1479
  109SAPE   H5R11255   2.737   3.430   3.324  0.9448 -0.8922  1.3043
  109SAPE   C2611256   2.672   3.493   3.515 -0.1956  0.1963 -0.4659
  109SAPE   H6R11257   2.723   3.406   3.560 -0.8685  0.0520  0.0459
  109SAPE   C2711258   2.601   3.584   3.615 -0.6816 -0.0500  0.0103
  109SAPE   H7R11259   2.578   3.685   3.576  0.0593  0.1271  0.0277
  109SAPE   H7S11260   2.663   3.604   3.705  0.1434  0.0220 -0.5755
  109SAPE   C2811261   2.465   3.533   3.655 -0.7383  0.1160 -0.3360
  109SAPE   H8R11262   2.409   3.481   3.576 -0.0591  1.3223 -1.6476
  109SAPE   C2911263   2.406   3.555   3.774 -0.3539 -0.0426  0.3860
  109SAPE   H9R11264   2.304   3.519   3.794  0.0207 -1.4448 -0.1753
  109SAPE  C21011265   2.475   3.619   3.890 -0.3079  0.9356  0.2388
  109SAPE  H10R11266   2.393   3.649   3.959  1.6779  2.5978  2.0422
  109SAPE  H10S11267   2.530   3.708   3.851  1.6733  0.5269  1.9063
  109SAPE  C21111268   2.568   3.535   3.973  0.3099  0.0491  0.0403
  109SAPE  H11R11269   2.599   3.440   3.926 -0.3222 -0.3835  0.4719
  109SAPE  C21211270   2.623   3.566   4.090 -0.3340 -0.9772 -0.0483
  109SAPE  H12R11271   2.698   3.506   4.144 -0.4836 -1.0213  0.1122
  109SAPE  C21311272   2.607   3.703   4.158  0.4629 -0.1096 -0.3129
  109SAPE  H13R11273   2.601   3.781   4.081  1.0753  1.9236  1.5951
  109SAPE  H13S11274   2.693   3.730   4.223 -1.1759 -2.9175  3.4744
  109SAPE  C21411275   2.475   3.705   4.228  0.6251  0.2707  0.4760
  109SAPE  H14R11276   2.386   3.735   4.170  0.8921 -2.0712 -1.3061
  109SAPE  C21511277   2.452   3.674   4.356 -0.2317  0.2152 -0.4611
  109SAPE  H15R11278   2.349   3.661   4.393 -0.4077  0.5072 -0.8485
  109SAPE  C21611279   2.565   3.618   4.446  0.2605  0.3937 -0.0175
  109SAPE  H16R11280   2.645   3.591   4.375 -0.2064  0.7058 -0.6669
  109SAPE  H16S11281   2.542   3.524   4.502  1.7522 -0.5988 -1.0033
  109SAPE  C21711282   2.627   3.718   4.542  0.1771  0.5425  0.3050
  109SAPE  H17R11283   2.648   3.811   4.486 -0.4850  1.7053  1.9298
  109SAPE  H17S11284   2.724   3.670   4.569 -0.3794 -1.5124 -1.1301
  109SAPE  C21811285   2.540   3.737   4.673 -0.5776  0.2597 -0.5165
  109SAPE  H18R11286   2.507   3.640   4.716  1.4186  0.8210  2.6346
  109SAPE  H18S11287   2.455   3.807   4.663 -1.7844 -0.4854  3.1347
  109SAPE  C21911288   2.635   3.800   4.782 -0.0543  0.3473  0.2324
  109SAPE  H19R11289   2.642   3.904   4.743 -1.1569  0.5057  0.4111
  109SAPE  H19S11290   2.734   3.751   4.789 -0.4202 -0.2746  1.4610
  109SAPE  C22011291   2.555   3.796   4.910 -0.9764 -0.3291  0.1290
  109SAPE  H20R11292   2.466   3.861   4.899  0.4446  1.5859 -0.4410
  109SAPE  H20S11293   2.603   3.828   5.005 -3.7764  1.8108  0.9754
  109SAPE  H20T11294   2.519   3.693   4.935 -1.5397 -0.2749 -0.4452
  109SAPE   C3311295   2.148   3.142   3.576 -0.5794  0.0154  0.1798
  109SAPE   H3X11296   2.214   3.053   3.566 -1.1066 -0.1623 -2.4310
  109SAPE   H3Y11297   2.045   3.102   3.581 -0.5678 -0.7134 -3.0512
  109SAPE   C3411298   2.188   3.236   3.694 -0.9828 -0.0504  0.3546
  109SAPE   H4X11299   2.112   3.314   3.714 -1.2204 -0.4367  0.9865
  109SAPE   H4Y11300   2.295   3.268   3.695 -0.8068 -0.6114  1.6436
  109SAPE   C3511301   2.179   3.164   3.826 -0.7308 -0.1670  0.5962
  109SAPE   H5X11302   2.251   3.080   3.826  1.0047  1.2673 -0.6016
  109SAPE   H5Y11303   2.072   3.133   3.830 -1.0771  0.8564 -0.2595
  109SAPE   C3611304   2.203   3.257   3.943  0.0666  0.3904 -0.3702
  109SAPE   H6X11305   2.124   3.334   3.953  0.8927  1.2461 -0.1820
  109SAPE   H6Y11306   2.303   3.307   3.940 -0.6134  1.7907 -0.4174
  109SAPE   C3711307   2.206   3.190   4.079  0.3736 -0.0522  0.3739
  109SAPE   H7X11308   2.277   3.104   4.082  0.8559  0.3511  2.3733
  109SAPE   H7Y11309   2.103   3.160   4.106  1.0390 -0.9983  2.0672
  109SAPE   C3811310   2.259   3.280   4.195  0.7489 -0.2376  0.3808
  109SAPE   H8X11311   2.201   3.375   4.189 -0.1694 -0.7824  0.4682
  109SAPE   H8Y11312   2.367   3.298   4.177  0.6330  0.4136  0.3137
  109SAPE   C3911313   2.233   3.220   4.337  0.3750  0.1496 -0.3623
  109SAPE   H9X11314   2.303   3.136   4.359  0.7617  1.0599  2.2402
  109SAPE   H9Y11315   2.131   3.178   4.341  0.5585 -0.2385  0.5051
  109SAPE  C31011316   2.237   3.316   4.451  0.1647 -1.1904  0.6926
  109SAPE  H10X11317   2.192   3.413   4.423 -0.9201 -1.4953  1.2914
  109SAPE  H10Y11318   2.343   3.339   4.476  0.2716 -0.3687 -0.4645
  109SAPE  C31111319   2.176   3.275   4.577 -0.5106 -0.0781  0.9146
  109SAPE  H11X11320   2.215   3.171   4.591  1.3507  0.3524 -0.6050
  109SAPE  H11Y11321   2.065   3.272   4.573 -0.5030 -0.5686  0.9122
  109SAPE  C31211322   2.220   3.356   4.692 -0.4529 -1.2119 -0.7812
  109SAPE  H12X11323   2.195   3.463   4.672  0.8183  0.4835  5.0040
  109SAPE  H12Y11324   2.330   3.368   4.702 -0.5272 -1.8880  1.3316
  109SAPE  C31311325   2.160   3.315   4.830  0.4937 -0.1109 -0.9100
  109SAPE  H13X11326   2.219   3.225   4.856 -2.2808 -2.1415 -1.1871
  109SAPE  H13Y11327   2.056   3.279   4.814  0.0755  0.9726 -0.7532
  109SAPE  C31411328   2.166   3.428   4.943  0.3786 -0.1850  0.0539
  109SAPE  H14X11329   2.097   3.509   4.912  0.4501 -0.0889  0.1489
  109SAPE  H14Y11330   2.267   3.475   4.947 -0.4853  1.6732  3.5741
  109SAPE  C31511331   2.123   3.383   5.076  0.5150 -0.4230 -0.2619
  109SAPE  H15X11332   2.171   3.291   5.115 -0.8121 -1.3079 -0.6792
  109SAPE  H15Y11333   2.016   3.354   5.075  0.4821 -0.4491  1.6163
  109SAPE  C31611334   2.143   3.500   5.180  0.0693  0.4820  0.6058
  109SAPE  H16X11335   2.087   3.581   5.128 -1.3110 -0.5537  0.4277
  109SAPE  H16Y11336   2.252   3.518   5.184  0.9115 -3.3540 -0.9376
  109SAPE  C31711337   2.091   3.467   5.320  0.1000 -0.3017  0.5242
  109SAPE  H17X11338   2.173   3.415   5.374 -0.3672  1.0332  2.6525
  109SAPE  H17Y11339   2.012   3.392   5.297 -0.7501  0.7231  0.0160
  109SAPE  C31811340   2.026   3.582   5.400  0.2161  0.5798  0.2632
  109SAPE  H18X11341   2.107   3.646   5.441 -0.1479 -0.1788  2.3201
  109SAPE  H18Y11342   1.963   3.545   5.484 -0.1296  0.2581 -0.1310
  109SAPE  H18Z11343   1.967   3.646   5.331  0.8940 -0.1241 -0.9981
  110SAPE     N11344   0.836   1.299   2.775 -0.1107  0.2676 -0.2074
  110SAPE   HN111345   0.850   1.242   2.689 -0.3068 -1.9168  1.1229
  110SAPE   HN211346   0.785   1.386   2.751 -0.7423 -0.6746 -2.6435
  110SAPE   HN311347   0.930   1.323   2.812 -0.8479 -0.1571  2.1145
  110SAPE   C1211348   0.770   1.209   2.881  0.0399  0.0941 -0.0632
  110SAPE  H12A11349   0.839   1.122   2.894  0.0259  0.0652 -0.1787
  110SAPE  H12B11350   0.670   1.180   2.843 -0.0312 -0.9742  0.8800
  110SAPE   C1111351   0.770   1.294   3.004  0.6948 -0.6317 -0.0749
  110SAPE  H11A11352   0.870   1.337   3.027  0.6164 -1.0144  1.0079
  110SAPE  H11B11353   0.744   1.218   3.080  0.2991  0.1344  0.5723
  110SAPE     P11354   0.678   1.547   2.970  0.0749  0.0108  0.0437
  110SAPE   O1311355   0.776   1.552   2.854  0.1713  0.4571 -0.1193
  110SAPE   O1411356   0.545   1.609   2.961 -0.7387  0.4290 -0.2794
  110SAPE   O1211357   0.661   1.391   3.001 -0.3320 -0.0830  0.2580
  110SAPE   O1111358   0.744   1.601   3.095 -0.1682 -0.0976  0.0911
  110SAPE    C111359   0.767   1.545   3.219  0.4660 -0.1361 -0.5166
  110SAPE    HA11360   0.796   1.438   3.219 -0.6344 -0.4477 -0.7659
  110SAPE    HB11361   0.853   1.595   3.269  0.0358  0.2622 -0.1671
  110SAPE    C211362   0.644   1.577   3.312 -0.0913  0.4827  0.2996
  110SAPE    HS11363   0.682   1.566   3.415  0.9469  0.3880 -0.0809
  110SAPE   O2111364   0.540   1.481   3.285 -0.6147  0.3439  0.3771
  110SAPE   C2111365   0.568   1.358   3.319 -0.0993 -0.4003 -0.2829
  110SAPE   O2211366   0.667   1.326   3.389  0.1717 -0.8125 -0.1358
  110SAPE   C2211367   0.463   1.261   3.274 -0.6626 -0.3626  0.8455
  110SAPE   H2R11368   0.385   1.302   3.206  1.1244 -0.4745 -1.3703
  110SAPE   H2S11369   0.516   1.188   3.210  0.7032  0.0938  1.4152
  110SAPE    C311370   0.591   1.721   3.291  0.7027 -0.9488 -0.2812
  110SAPE    HX11371   0.671   1.797   3.275 -1.1336  1.2623  0.4575
  110SAPE    HY11372   0.542   1.721   3.191 -1.4445 -0.4969  0.7218
  110SAPE   O3111373   0.499   1.760   3.393 -0.5399 -0.2049  0.2570
  110SAPE   C3111374   0.540   1.837   3.494  1.0178 -0.2303  0.1527
  110SAPE   O3211375   0.655   1.878   3.505  0.4245 -0.2551  0.1766
  110SAPE   C3211376   0.410   1.863   3.584  0.2991 -0.0568  0.6788
  110SAPE   H2X11377   0.338   1.778   3.580 -0.7429  0.7844  1.1163
  110SAPE   H2Y11378   0.365   1.954   3.541  1.0639 -0.5134 -1.2141
  110SAPE   C2311379   0.377   1.187   3.379 -0.6202 -0.1104 -0.6314
  110SAPE   H3R11380   0.441   1.149   3.461 -1.6086 -0.8480 -0.1978
  110SAPE   H3S11381   0.333   1.104   3.321 -0.8536  0.0646 -0.7073
  110SAPE   C2411382   0.256   1.260   3.444  0.0233  0.6282  0.4720
  110SAPE   H4R11383   0.218   1.190   3.522 -1.1113 -0.3468 -0.8953
  110SAPE   H4S11384   0.169   1.262   3.376  0.0480  4.3365  0.3459
  110SAPE   C2511385   0.289   1.395   3.503 -0.0698 -0.2763 -0.5560
  110SAPE   H5R11386   0.306   1.475   3.430 -0.9223  0.2641 -0.1889
  110SAPE   C2611387   0.290   1.429   3.634 -0.0617  0.2904 -0.8454
  110SAPE   H6R11388   0.321   1.529   3.667  1.2085 -1.3010  3.6019
  110SAPE   C2711389   0.265   1.351   3.761 -0.0838  0.3340  0.2997
  110SAPE   H7R11390   0.353   1.351   3.828 -1.0486  2.3587  1.6656
  110SAPE   H7S11391   0.250   1.242   3.741  0.6257 -0.0528  1.7609
  110SAPE   C2811392   0.144   1.385   3.841 -0.1599 -0.8033 -0.0234
  110SAPE   H8R11393   0.055   1.387   3.777 -1.0794  0.3836  1.2262
  110SAPE   C2911394   0.134   1.418   3.970 -0.0328  0.0520  0.0045
  110SAPE   H9R11395   0.032   1.428   4.011 -0.5533 -2.4939 -0.4947
  110SAPE  C21011396   0.245   1.435   4.065 -0.2007  0.1926  0.0555
  110SAPE  H10R11397   0.233   1.535   4.111  2.8454  0.2008  1.0630
  110SAPE  H10S11398   0.344   1.413   4.020 -0.6967 -0.8390 -0.5602
  110SAPE  C21111399   0.238   1.347   4.188 -0.0545  0.0939  0.7362
  110SAPE  H11R11400   0.218   1.240   4.169 -0.9793  0.3626  0.1329
  110SAPE  C21211401   0.251   1.385   4.320  0.0548 -0.2903  0.0493
  110SAPE  H12R11402   0.267   1.307   4.395 -0.0937 -1.8161 -1.4443
  110SAPE  C21311403   0.263   1.524   4.376 -0.3499 -0.5034  0.1115
  110SAPE  H13R11404   0.176   1.580   4.335  1.0106  1.2275 -0.4918
  110SAPE  H13S11405   0.347   1.572   4.322  0.3657  2.2906  3.3231
  110SAPE  C21411406   0.286   1.533   4.524 -1.0076 -0.8193  0.4602
  110SAPE  H14R11407   0.371   1.602   4.532 -2.4989  1.0858  0.6822
  110SAPE  C21511408   0.206   1.497   4.624 -0.2141  1.0384 -0.4193
  110SAPE  H15R11409   0.227   1.514   4.730  0.1994  1.0679 -0.5055
  110SAPE  C21611410   0.071   1.425   4.604 -0.7098  0.3416  0.2091
  110SAPE  H16R11411   0.083   1.323   4.648 -0.9116  1.5999  3.4207
  110SAPE  H16S11412   0.050   1.407   4.496 -1.5957 -1.2368  0.6123
  110SAPE  C21711413  -0.038   1.521   4.650  0.5361 -0.7648  0.4649
  110SAPE  H17R11414  -0.136   1.504   4.601 -0.2054 -0.1089  1.6773
  110SAPE  H17S11415  -0.014   1.622   4.611 -0.0024 -0.9139 -0.2824
  110SAPE  C21811416  -0.044   1.547   4.802 -0.2898  1.2073 -0.2542
  110SAPE  H18R11417   0.039   1.606   4.847 -0.3286 -1.1167  3.2736
  110SAPE  H18S11418  -0.054   1.446   4.848  0.6403  1.0558 -0.3648
  110SAPE  C21911419  -0.167   1.626   4.839 -0.1709  0.6266 -0.7219
  110SAPE  H19R11420  -0.249   1.601   4.769 -0.7462 -0.0315  0.1576
  110SAPE  H19S11421  -0.141   1.733   4.824 -1.6317  1.0361 -0.5271
  110SAPE  C22011422  -0.187   1.628   4.987  0.6077  0.8464  0.1479
  110SAPE  H20R11423  -0.212   1.528   5.028 -0.1563  1.1950  0.5505
  110SAPE  H20S11424  -0.260   1.700   5.030  3.4409  1.6792  4.1015
  110SAPE  H20T11425  -0.094   1.657   5.039  2.2243 -0.5749 -1.7969
  110SAPE   C3311426   0.444   1.896   3.728 -0.7710  0.9277 -0.0973
  110SAPE   H3X11427   0.357   1.936   3.784 -0.6945 -0.5257  1.0875
  110SAPE   H3Y11428   0.518   1.979   3.736 -0.9927  0.9678  2.3299
  110SAPE   C3411429   0.497   1.772   3.796 -0.6239  0.3947 -0.0478
  110SAPE   H4X11430   0.601   1.744   3.768 -1.0300  1.5412 -3.0176
  110SAPE   H4Y11431   0.448   1.682   3.753  0.4469  0.0119 -0.5036
  110SAPE   C3511432   0.473   1.760   3.950 -0.3231  0.0617 -0.0987
  110SAPE   H5X11433   0.486   1.651   3.966 -1.5635 -0.8797 -4.1645
  110SAPE   H5Y11434   0.371   1.797   3.972  0.2077  0.2373  2.3502
  110SAPE   C3611435   0.573   1.840   4.033 -0.1269 -0.0340  0.3194
  110SAPE   H6X11436   0.590   1.943   3.995 -0.6760 -0.0924 -0.0937
  110SAPE   H6Y11437   0.669   1.786   4.049  0.8437  1.5375  0.0034
  110SAPE   C3711438   0.521   1.862   4.175  0.5560  0.0757 -0.1378
  110SAPE   H7X11439   0.612   1.887   4.233  2.0622  0.1379 -2.4150
  110SAPE   H7Y11440   0.475   1.770   4.217  0.6743 -0.6473 -1.5425
  110SAPE   C3811441   0.410   1.968   4.176 -0.8854 -0.7544 -0.1836
  110SAPE   H8X11442   0.341   1.953   4.090 -1.4019  1.0704 -0.1125
  110SAPE   H8Y11443   0.455   2.067   4.156 -0.5368 -1.0669 -1.0057
  110SAPE   C3911444   0.350   1.985   4.317  0.0680 -0.9733 -0.3247
  110SAPE   H9X11445   0.291   2.079   4.317 -1.6897 -2.0294 -0.9326
  110SAPE   H9Y11446   0.429   1.986   4.395  1.6119 -0.5069 -1.8266
  110SAPE  C31011447   0.253   1.869   4.347  0.7875 -0.2615 -0.6123
  110SAPE  H10X11448   0.245   1.859   4.457  1.8385 -0.1983 -0.5214
  110SAPE  H10Y11449   0.301   1.776   4.311  0.3640 -0.9298  0.5162
  110SAPE  C31111450   0.106   1.877   4.307  0.3568  0.6269  0.0913
  110SAPE  H11X11451   0.063   1.775   4.304  0.3145  0.6692 -1.0232
  110SAPE  H11Y11452   0.110   1.927   4.208  1.3103 -0.0734 -0.2404
  110SAPE  C31211453   0.027   1.974   4.386  0.1560 -0.5384 -0.7192
  110SAPE  H12X11454  -0.064   2.016   4.337  0.5549  2.2849  0.7290
  110SAPE  H12Y11455   0.093   2.060   4.410 -0.8959 -0.0177  0.4241
  110SAPE  C31311456  -0.027   1.920   4.523 -0.4396  0.3122 -0.4957
  110SAPE  H13X11457   0.040   1.838   4.559 -3.1092 -3.1734 -2.7141
  110SAPE  H13Y11458  -0.132   1.885   4.509 -0.8417  1.2973 -0.0112
  110SAPE  C31411459  -0.040   2.036   4.621  0.1286 -1.4493 -0.3507
  110SAPE  H14X11460  -0.137   2.084   4.597  0.8030 -0.1721 -0.6111
  110SAPE  H14Y11461   0.045   2.105   4.607 -0.2624 -1.0819 -0.9612
  110SAPE  C31511462  -0.048   1.993   4.772  0.1371 -0.3543 -0.0039
  110SAPE  H15X11463   0.037   1.961   4.835 -0.5384 -2.1888  0.0195
  110SAPE  H15Y11464  -0.124   1.912   4.776 -0.7197  0.4597  2.0074
  110SAPE  C31611465  -0.114   2.105   4.860  0.0414  0.0575 -0.0856
  110SAPE  H16X11466  -0.198   2.145   4.800  0.8947  0.9586 -0.7136
  110SAPE  H16Y11467  -0.032   2.179   4.875  1.7575 -1.3698 -1.8310
  110SAPE  C31711468  -0.161   2.063   5.001 -0.1439  0.0827 -0.1163
  110SAPE  H17X11469  -0.255   2.007   4.981  0.2231 -0.1823 -1.1962
  110SAPE  H17Y11470  -0.188   2.141   5.075 -0.7563 -1.2370  1.0911
  110SAPE  C31811471  -0.056   1.985   5.074  0.3964  0.1588 -0.1376
  110SAPE  H18X11472  -0.097   1.978   5.177 -1.1539 -0.5714 -0.7622
  110SAPE  H18Y11473   0.042   2.037   5.076  0.6400 -0.3058  0.5644
  110SAPE  H18Z11474  -0.038   1.880   5.041 -0.0682 -0.3264  1.0702
  111SAPE     N11475   6.496   4.705   2.818  0.4515  0.3293  0.0404
  111SAPE   HN111476   6.491   4.619   2.760  1.1712 -0.0307  0.4943
  111SAPE   HN211477   6.501   4.670   2.916 -1.2213 -0.7453 -0.2279
  111SAPE   HN311478   6.404   4.751   2.803 -0.4986 -1.7021 -0.6989
  111SAPE   C1211479   6.618   4.789   2.778  0.3945  0.2099 -0.6833
  111SAPE  H12A11480   6.632   4.848   2.872 -0.0901  0.3168 -0.6708
  111SAPE  H12B11481   6.577   4.834   2.685  0.3551  0.1464 -0.6956
  111SAPE   C1111482   6.735   4.699   2.750  0.0481 -0.1124  0.6072
  111SAPE  H11A11483   6.780   4.662   2.844  0.0701  2.5365  1.7419
  111SAPE  H11B11484   6.817   4.762   2.707 -1.2931  1.0154 -0.4004
  111SAPE     P11485   6.664   4.451   2.671 -0.3268 -0.3271 -0.2847
  111SAPE   O1311486   6.522   4.452   2.698  0.6447  0.2553  0.4324
  111SAPE   O1411487   6.707   4.380   2.545  0.4545  0.0052  0.4855
  111SAPE   O1211488   6.707   4.600   2.660 -0.0115 -0.0574  0.3760
  111SAPE   O1111489   6.760   4.403   2.786  0.3929 -0.0422 -0.4906
  111SAPE    C111490   6.729   4.280   2.854  0.7908  0.6282  0.4757
  111SAPE    HA11491   6.681   4.204   2.789  0.6690 -0.4828  1.8164
  111SAPE    HB11492   6.817   4.229   2.899 -0.3584  0.0712  2.2000
  111SAPE    C211493   6.632   4.302   2.974  0.3961  0.4019 -0.4001
  111SAPE    HS11494   6.549   4.363   2.933 -2.0272 -2.5701 -0.3140
  111SAPE   O2111495   6.703   4.367   3.083  0.4549 -0.1644  0.0667
  111SAPE   C2111496   6.666   4.486   3.102  0.4009 -0.3347  0.1278
  111SAPE   O2211497   6.587   4.553   3.041 -0.5210 -0.1563  0.3522
  111SAPE   C2211498   6.735   4.530   3.238  0.7129 -1.0780 -0.1173
  111SAPE   H2R11499   6.745   4.440   3.303  1.7046 -1.4015 -0.6819
  111SAPE   H2S11500   6.836   4.560   3.202 -0.6287  0.8157 -2.5261
  111SAPE    C311501   6.563   4.164   3.023  0.1615 -0.4570 -0.3200
  111SAPE    HX11502   6.501   4.128   2.938  0.3022 -0.6296 -0.3505
  111SAPE    HY11503   6.507   4.179   3.117 -0.7536  1.3170 -1.1046
  111SAPE   O3111504   6.669   4.069   3.050 -0.0677 -0.0654  0.3188
  111SAPE   C3111505   6.624   3.948   3.072 -0.4441 -0.1761  0.8353
  111SAPE   O3211506   6.508   3.912   3.077 -0.3651 -0.2051 -0.2863
  111SAPE   C3211507   6.739   3.850   3.085 -0.1163 -0.0356 -0.5320
  111SAPE   H2X11508   6.828   3.898   3.040 -0.0204 -0.2221 -0.5426
  111SAPE   H2Y11509   6.712   3.757   3.032 -0.3621 -0.2325 -0.0693
  111SAPE   C2311510   6.662   4.654   3.307  0.8789 -0.3459  0.0929
  111SAPE   H3R11511   6.552   4.635   3.312  0.8381 -0.1240  0.0544
  111SAPE   H3S11512   6.680   4.742   3.242  0.6481 -0.4632 -0.1326
  111SAPE   C2411513   6.723   4.674   3.450  0.2646  0.3193  0.1875
  111SAPE   H4R11514   6.834   4.664   3.450  0.2250 -0.4475 -1.4042
  111SAPE   H4S11515   6.691   4.583   3.504 -3.0418  0.9011 -0.5798
  111SAPE   C2511516   6.664   4.808   3.492 -0.1443 -0.3877  0.1120
  111SAPE   H5R11517   6.707   4.893   3.437 -0.5639  1.3247  2.2496
  111SAPE   C2611518   6.567   4.822   3.579 -0.3867 -0.0015  0.4436
  111SAPE   H6R11519   6.529   4.923   3.603 -2.5721 -0.5298 -0.5484
  111SAPE   C2711520   6.489   4.707   3.651  0.6029 -0.3298 -0.0081
  111SAPE   H7R11521   6.546   4.683   3.744 -0.3494 -2.4731  0.0791
  111SAPE   H7S11522   6.471   4.618   3.588 -1.5479 -1.0689  1.5119
  111SAPE   C2811523   6.345   4.744   3.695 -0.2414 -0.0358  0.1298
  111SAPE   H8R11524   6.311   4.836   3.644  1.1112  0.7200  0.5309
  111SAPE   C2911525   6.269   4.688   3.788  0.1310  0.6609 -1.0709
  111SAPE   H9R11526   6.167   4.728   3.802  0.6407  1.7488 -0.3038
  111SAPE  C21011527   6.292   4.572   3.874 -0.3453  0.1154 -0.4156
  111SAPE  H10R11528   6.196   4.544   3.922 -1.1233 -0.3420 -2.1533
  111SAPE  H10S11529   6.353   4.608   3.960 -0.1034 -2.2483  0.4681
  111SAPE  C21111530   6.352   4.445   3.812  0.5100 -0.4986 -0.2465
  111SAPE  H11R11531   6.308   4.418   3.716  1.4558  1.2691 -1.2297
  111SAPE  C21211532   6.457   4.376   3.861  0.4087  0.1956  0.7561
  111SAPE  H12R11533   6.473   4.285   3.801  0.6925 -0.8708  2.4088
  111SAPE  C21311534   6.523   4.405   3.993 -0.2435  0.7454 -0.6817
  111SAPE  H13R11535   6.450   4.439   4.070 -1.4201 -0.5095 -1.1956
  111SAPE  H13S11536   6.597   4.487   3.983  1.6427 -0.8086 -0.0488
  111SAPE  C21411537   6.583   4.287   4.056  0.3582  0.3749 -0.1915
  111SAPE  H14R11538   6.539   4.191   4.026  0.4930 -0.2197  1.3963
  111SAPE  C21511539   6.686   4.281   4.149  0.4609  0.8054  0.9787
  111SAPE  H15R11540   6.712   4.183   4.191  0.7711  0.3710 -0.1821
  111SAPE  C21611541   6.735   4.403   4.213 -0.2982  0.2675 -0.0227
  111SAPE  H16R11542   6.653   4.475   4.238 -0.2545  0.5712 -0.7281
  111SAPE  H16S11543   6.798   4.459   4.140 -1.5540  3.2069  0.9612
  111SAPE  C21711544   6.813   4.365   4.342 -0.1882 -0.0588  0.2630
  111SAPE  H17R11545   6.904   4.308   4.313 -0.0068  0.0655  0.5779
  111SAPE  H17S11546   6.755   4.293   4.403 -1.8824  3.1326  2.7441
  111SAPE  C21811547   6.851   4.493   4.420 -0.1147  0.7567 -1.0404
  111SAPE  H18R11548   6.776   4.569   4.450  1.1360  1.6221  0.0152
  111SAPE  H18S11549   6.931   4.541   4.359  2.3201 -0.5873  0.9204
  111SAPE  C21911550   6.930   4.455   4.543  0.1483  0.3241  0.5654
  111SAPE  H19R11551   7.029   4.427   4.501  0.4891  1.2360  0.7246
  111SAPE  H19S11552   6.892   4.364   4.592 -2.0742  0.0338 -1.5310
  111SAPE  C22011553   6.956   4.563   4.650  0.0106 -0.4849  0.1940
  111SAPE  H20R11554   7.025   4.522   4.727  1.0389 -1.6052 -1.2524
  111SAPE  H20S11555   6.863   4.585   4.707  0.1162 -2.0162  1.0015
  111SAPE  H20T11556   6.998   4.660   4.614  0.4809 -0.3346  1.1132
  111SAPE   C3311557   6.755   3.823   3.231  0.2948 -0.0272  0.5327
  111SAPE   H3X11558   6.673   3.772   3.285  1.7669 -1.3986  1.5879
  111SAPE   H3Y11559   6.777   3.922   3.277  2.0580  0.4135 -1.1385
  111SAPE   C3411560   6.880   3.733   3.261  0.1948 -0.2127  0.1328
  111SAPE   H4X11561   6.966   3.776   3.206  0.4200 -1.1035 -0.2283
  111SAPE   H4Y11562   6.866   3.626   3.237 -0.9071  0.3581 -2.0428
  111SAPE   C3511563   6.929   3.747   3.411  0.7305  0.5225  0.4981
  111SAPE   H5X11564   6.923   3.855   3.438 -3.7352  1.1428 -1.8719
  111SAPE   H5Y11565   7.035   3.716   3.421  0.1549 -0.9236  2.9537
  111SAPE   C3611566   6.855   3.651   3.509  0.2498  0.1788  0.1747
  111SAPE   H6X11567   6.862   3.546   3.472 -2.4466 -0.4221  1.1321
  111SAPE   H6Y11568   6.753   3.694   3.513  1.2490  2.7126  0.8417
  111SAPE   C3711569   6.897   3.665   3.655 -0.4384 -0.0482 -0.0664
  111SAPE   H7X11570   6.995   3.616   3.670  0.3752  1.3741 -0.5927
  111SAPE   H7Y11571   6.826   3.604   3.716  2.2355 -0.9289  2.3871
  111SAPE   C3811572   6.909   3.809   3.702 -0.3422  0.0355 -0.7589
  111SAPE   H8X11573   6.817   3.869   3.689 -0.6444  0.4077  2.2630
  111SAPE   H8Y11574   6.992   3.851   3.642  0.1171  0.7970  0.3865
  111SAPE   C3911575   6.965   3.822   3.845  0.5565 -0.7155 -0.0681
  111SAPE   H9X11576   7.066   3.776   3.848 -0.0609 -2.0705  1.5819
  111SAPE   H9Y11577   6.904   3.757   3.912 -0.1045 -0.1579 -0.1130
  111SAPE  C31011578   6.958   3.962   3.912 -0.2671  0.0199  0.3260
  111SAPE  H10X11579   6.984   4.024   3.824  0.3749 -1.9760 -0.9437
  111SAPE  H10Y11580   7.044   3.966   3.982  0.2324 -1.9053 -0.1030
  111SAPE  C31111581   6.825   3.993   3.971 -0.7915  0.1060 -0.4278
  111SAPE  H11X11582   6.746   3.988   3.893  1.0480 -2.6904 -2.3216
  111SAPE  H11Y11583   6.837   4.103   3.978  1.6943  0.0730 -2.6104
  111SAPE  C31211584   6.782   3.925   4.101 -0.3337 -0.3859  0.0729
  111SAPE  H12X11585   6.779   3.815   4.081  0.1939 -0.1788 -1.2288
  111SAPE  H12Y11586   6.686   3.973   4.127  0.6666  1.6867  0.1387
  111SAPE  C31311587   6.874   3.962   4.216 -0.1947  0.3409  0.1102
  111SAPE  H13X11588   6.903   4.069   4.224 -1.9320  0.8833 -0.3217
  111SAPE  H13Y11589   6.971   3.911   4.199  0.5958  1.7986  0.0375
  111SAPE  C31411590   6.815   3.910   4.351 -0.0211 -0.0734 -0.7201
  111SAPE  H14X11591   6.777   3.806   4.339 -2.8259  0.6535  1.0293
  111SAPE  H14Y11592   6.721   3.969   4.360 -2.3507 -3.6028  0.5787
  111SAPE  C31511593   6.917   3.918   4.469 -0.0773  0.4720  0.2008
  111SAPE  H15X11594   6.953   4.022   4.479  2.1063 -0.1618 -0.3745
  111SAPE  H15Y11595   7.016   3.873   4.444 -0.1939  1.1552 -1.6381
  111SAPE  C31611596   6.851   3.862   4.603  0.1646  0.0385  0.6446
  111SAPE  H16X11597   6.927   3.860   4.684 -1.9698 -2.8645  2.7479
  111SAPE  H16Y11598   6.807   3.762   4.583  0.5172 -0.0304  0.1775
  111SAPE  C31711599   6.739   3.957   4.651 -0.2851  0.1075 -0.4332
  111SAPE  H17X11600   6.697   3.904   4.739  2.4192 -0.6427  0.5050
  111SAPE  H17Y11601   6.658   3.966   4.575 -0.5838  0.2958 -0.0973
  111SAPE  C31811602   6.790   4.090   4.701  0.2453  0.0943  0.9276
  111SAPE  H18X11603   6.859   4.129   4.624  2.8599  1.2132  3.6213
  111SAPE  H18Y11604   6.850   4.079   4.794  1.7656  1.9016  0.2314
  111SAPE  H18Z11605   6.701   4.154   4.722  1.4521  2.0474  0.3185
  112SAPE     N11606   4.304   3.317   2.738  0.2389  0.4036 -0.3020
  112SAPE   HN111607   4.316   3.301   2.841  0.8080  1.2187 -0.2316
  112SAPE   HN211608   4.327   3.416   2.718  3.5385 -0.3832 -0.9307
  112SAPE   HN311609   4.206   3.290   2.714  1.1728 -4.6991  0.3881
  112SAPE   C1211610   4.407   3.235   2.674 -0.2698 -1.1062  0.1302
  112SAPE  H12A11611   4.437   3.283   2.578 -2.2877  0.2416  0.1171
  112SAPE  H12B11612   4.366   3.134   2.655  0.3407 -1.4706  0.7122
  112SAPE   C1111613   4.528   3.233   2.768 -0.3371  0.0714  0.5023
  112SAPE  H11A11614   4.565   3.332   2.803  0.9963  0.6647 -2.2943
  112SAPE  H11B11615   4.618   3.192   2.717 -0.3951 -0.4530  0.8204
  112SAPE     P11616   4.541   3.004   2.903  0.3524 -0.6965  0.4839
  112SAPE   O1311617   4.476   2.952   3.025 -0.2633 -0.2559  0.6813
  112SAPE   O1411618   4.501   2.944   2.778 -0.0329  0.4430 -0.1866
  112SAPE   O1211619   4.504   3.158   2.883  0.2714 -0.2727  0.4388
  112SAPE   O1111620   4.696   2.997   2.902 -0.2154 -0.6403 -0.3652
  112SAPE    C111621   4.764   2.969   3.022 -0.1110 -0.1989 -0.0384
  112SAPE    HA11622   4.711   2.889   3.079 -2.4891  0.0935 -1.7197
  112SAPE    HB11623   4.865   2.927   3.000  0.6338 -0.2576  3.0465
  112SAPE    C211624   4.777   3.096   3.114 -0.1780 -0.2888  0.5041
  112SAPE    HS11625   4.678   3.139   3.137 -0.0054  0.3935  0.0078
  112SAPE   O2111626   4.868   3.175   3.035  0.3735  0.0503  0.5222
  112SAPE   C2111627   4.838   3.303   3.064  0.3117  0.0702 -0.0330
  112SAPE   O2211628   4.758   3.332   3.152 -0.3440 -0.1179 -0.1225
  112SAPE   C2211629   4.911   3.394   2.961  0.0189 -0.6096  0.2068
  112SAPE   H2R11630   5.015   3.364   2.937  0.5795  1.8026 -0.7418
  112SAPE   H2S11631   4.855   3.397   2.865  0.3593 -1.8246 -0.0403
  112SAPE    C311632   4.843   3.047   3.247 -0.1004 -0.8634  1.0760
  112SAPE    HX11633   4.885   3.132   3.305  0.2958 -1.0501  1.0616
  112SAPE    HY11634   4.928   2.984   3.214 -0.9433 -1.2188 -0.5069
  112SAPE   O3111635   4.737   2.978   3.319 -0.6330 -0.3023  0.3098
  112SAPE   C3111636   4.771   2.876   3.390  0.8173  0.4086  0.9006
  112SAPE   O3211637   4.881   2.835   3.409  0.1831 -0.6155  0.0455
  112SAPE   C3211638   4.645   2.802   3.436 -0.8667  0.2913 -0.3945
  112SAPE   H2X11639   4.647   2.692   3.422 -3.1134  0.1738 -0.1611
  112SAPE   H2Y11640   4.557   2.832   3.376  0.2969  0.6222 -1.9754
  112SAPE   C2311641   4.933   3.542   3.012 -0.1482 -0.3018  0.2401
  112SAPE   H3R11642   4.842   3.597   3.045 -1.1923 -0.6749 -1.8247
  112SAPE   H3S11643   4.976   3.591   2.922  2.3651 -2.4560  0.1495
  112SAPE   C2411644   5.026   3.528   3.138 -0.0390  0.1381 -0.8010
  112SAPE   H4R11645   5.095   3.442   3.129  1.5915  1.1562  1.1233
  112SAPE   H4S11646   4.952   3.501   3.216 -0.5137  0.6161 -1.0721
  112SAPE   C2511647   5.103   3.649   3.174  0.9666 -0.1842 -0.6952
  112SAPE   H5R11648   5.159   3.680   3.085 -0.2151 -1.0968 -1.8021
  112SAPE   C2611649   5.104   3.722   3.289  0.2056  0.3422 -0.0494
  112SAPE   H6R11650   5.170   3.810   3.279 -0.4085  0.7142 -1.0290
  112SAPE   C2711651   5.032   3.709   3.421  0.7814  0.7180 -0.3852
  112SAPE   H7R11652   5.111   3.719   3.499  0.4778  1.1649 -0.1294
  112SAPE   H7S11653   4.984   3.610   3.430 -0.5796  1.3664 -0.3211
  112SAPE   C2811654   4.921   3.819   3.425  0.1596 -0.1950 -0.8071
  112SAPE   H8R11655   4.864   3.825   3.331 -1.8578  1.3024  0.4556
  112SAPE   C2911656   4.903   3.917   3.518  0.3743  0.6500  0.2431
  112SAPE   H9R11657   4.828   3.995   3.499  0.0996  0.7227  1.5625
  112SAPE  C21011658   4.978   3.926   3.648  0.3701 -0.2197  0.3347
  112SAPE  H10R11659   5.064   3.997   3.643 -2.0659  2.8781 -0.3493
  112SAPE  H10S11660   5.035   3.831   3.662 -0.5619 -0.7211  0.8359
  112SAPE  C21111661   4.888   3.942   3.767 -0.2361 -0.0076 -0.2574
  112SAPE  H11R11662   4.798   3.879   3.767  0.4721 -1.0958  1.1981
  112SAPE  C21211663   4.922   4.008   3.877 -0.2908  0.3900 -0.2463
  112SAPE  H12R11664   4.843   4.015   3.953  0.7299  0.0347  0.8779
  112SAPE  C21311665   5.058   4.081   3.905  0.0923  0.4466  0.4096
  112SAPE  H13R11666   5.142   4.042   3.844  0.0202  0.9964 -0.0594
  112SAPE  H13S11667   5.087   4.057   4.009 -1.6771 -0.9517  0.6366
  112SAPE  C21411668   5.043   4.227   3.873 -0.0130  0.3222  0.6581
  112SAPE  H14R11669   5.049   4.245   3.765 -2.0106 -0.7726  0.3181
  112SAPE  C21511670   5.021   4.329   3.961 -0.3421  0.5812 -0.4619
  112SAPE  H15R11671   5.011   4.431   3.920  0.9311  0.6073 -0.7549
  112SAPE  C21611672   5.001   4.318   4.110 -0.1035  1.1078 -0.2144
  112SAPE  H16R11673   4.911   4.257   4.133  0.0975  1.3137  1.2124
  112SAPE  H16S11674   4.974   4.423   4.136  0.7221  1.6930 -1.6451
  112SAPE  C21711675   5.127   4.275   4.203 -0.0696  0.8208  0.5968
  112SAPE  H17R11676   5.210   4.319   4.144 -1.1062  1.6622 -0.3071
  112SAPE  H17S11677   5.139   4.165   4.203 -0.1902  0.7957 -0.3970
  112SAPE  C21811678   5.122   4.325   4.348 -0.1332  0.0628 -0.6011
  112SAPE  H18R11679   5.048   4.272   4.412  1.4827  0.4919  1.7272
  112SAPE  H18S11680   5.099   4.433   4.350 -3.8734 -0.5805  0.2162
  112SAPE  C21911681   5.260   4.320   4.409 -0.4934 -0.1166 -0.1915
  112SAPE  H19R11682   5.330   4.365   4.336  0.0036  0.2471  0.4999
  112SAPE  H19S11683   5.291   4.214   4.426  1.4613  0.4384 -0.0617
  112SAPE  C22011684   5.278   4.395   4.544 -0.3705 -0.0731  0.4286
  112SAPE  H20R11685   5.287   4.503   4.519  0.9929  0.0046  1.1614
  112SAPE  H20S11686   5.381   4.366   4.575  0.5374  0.0464 -2.1741
  112SAPE  H20T11687   5.206   4.378   4.627  0.1412  1.3265  1.1934
  112SAPE   C3311688   4.609   2.830   3.579 -0.7264  0.4459  0.3755
  112SAPE   H3X11689   4.516   2.772   3.600  1.3816 -3.3958 -0.0127
  112SAPE   H3Y11690   4.585   2.938   3.591  0.7383  0.7690  0.4858
  112SAPE   C3411691   4.724   2.786   3.669 -0.9159  0.0752  0.1427
  112SAPE   H4X11692   4.799   2.868   3.676 -0.4806 -0.1951 -1.1367
  112SAPE   H4Y11693   4.769   2.692   3.632 -3.0673 -1.5082  1.3129
  112SAPE   C3511694   4.675   2.745   3.807 -0.9429  0.5725 -0.2231
  112SAPE   H5X11695   4.759   2.707   3.870 -1.4296  0.2060  0.2108
  112SAPE   H5Y11696   4.606   2.658   3.802 -0.2739  0.0366 -0.3036
  112SAPE   C3611697   4.623   2.857   3.895 -0.6264 -0.0333  0.4635
  112SAPE   H6X11698   4.534   2.919   3.871  0.1682  0.2335 -2.0614
  112SAPE   H6Y11699   4.698   2.939   3.893  0.7166 -1.2371  0.2132
  112SAPE   C3711700   4.598   2.823   4.046  0.4027  0.1552  0.1343
  112SAPE   H7X11701   4.590   2.916   4.106 -2.6560 -0.6373  1.1018
  112SAPE   H7Y11702   4.687   2.766   4.081  0.0635  1.5265  3.6184
  112SAPE   C3811703   4.466   2.748   4.071 -0.4868 -0.9350  0.2747
  112SAPE   H8X11704   4.464   2.658   4.006 -0.6514  0.1318 -1.2428
  112SAPE   H8Y11705   4.389   2.812   4.024  1.5945  0.0176 -2.1244
  112SAPE   C3911706   4.440   2.717   4.215  0.4056 -0.4952  0.1119
  112SAPE   H9X11707   4.361   2.638   4.223  0.0608  0.0092  2.1632
  112SAPE   H9Y11708   4.387   2.801   4.264  0.1819  1.8479 -3.7486
  112SAPE  C31011709   4.577   2.667   4.280 -0.1487 -0.4483  0.7078
  112SAPE  H10X11710   4.644   2.756   4.283  0.8162 -1.0111 -1.7648
  112SAPE  H10Y11711   4.610   2.584   4.214 -1.6805 -2.2057  2.0279
  112SAPE  C31111712   4.551   2.613   4.420  0.9214  0.1850  0.1423
  112SAPE  H11X11713   4.635   2.550   4.457  0.6815 -1.5227 -2.0246
  112SAPE  H11Y11714   4.457   2.555   4.428  1.4342 -0.4768  1.6683
  112SAPE  C31211715   4.538   2.735   4.517  0.3543  0.1055  0.2248
  112SAPE  H12X11716   4.472   2.815   4.476  0.7772  0.6500  0.5921
  112SAPE  H12Y11717   4.639   2.780   4.513  0.4444 -0.1307 -0.1982
  112SAPE  C31311718   4.478   2.710   4.658  0.1038  0.4506 -0.1849
  112SAPE  H13X11719   4.532   2.617   4.682  0.4566  1.3573  2.9896
  112SAPE  H13Y11720   4.371   2.689   4.635  0.4836 -1.0823 -0.6210
  112SAPE  C31411721   4.486   2.809   4.774  0.1512 -0.5783 -0.2246
  112SAPE  H14X11722   4.431   2.773   4.864  0.2666  0.8877  0.4634
  112SAPE  H14Y11723   4.435   2.902   4.742 -1.4129 -0.9833  0.9637
  112SAPE  C31511724   4.640   2.830   4.817 -0.5143  0.6366  0.1177
  112SAPE  H15X11725   4.711   2.841   4.732 -0.6407 -0.9266 -0.2125
  112SAPE  H15Y11726   4.663   2.734   4.867 -1.4570 -0.6628 -1.8056
  112SAPE  C31611727   4.651   2.941   4.924 -0.6401 -0.8572 -0.4855
  112SAPE  H16X11728   4.565   2.921   4.991  2.0859 -3.0023  2.6686
  112SAPE  H16Y11729   4.630   3.037   4.872  2.7189  0.5490  0.5007
  112SAPE  C31711730   4.783   2.960   4.992  0.8057 -0.3967  0.2475
  112SAPE  H17X11731   4.794   3.066   5.024  0.7783  0.4200 -2.2554
  112SAPE  H17Y11732   4.872   2.948   4.927  0.7504 -0.2033  0.1362
  112SAPE  C31811733   4.811   2.871   5.112 -0.2249 -0.1360 -0.2388
  112SAPE  H18X11734   4.742   2.890   5.197 -1.1926 -2.6511 -0.3647
  112SAPE  H18Y11735   4.918   2.886   5.137  0.9636 -2.4125 -3.3134
  112SAPE  H18Z11736   4.800   2.762   5.093  0.1527 -0.3233  0.5617
  113SAPE     N11737   5.233   6.532   2.463  0.1779 -0.1492 -0.0645
  113SAPE   HN111738   5.328   6.571   2.482 -0.9553  2.4415  0.7434
  113SAPE   HN211739   5.234   6.428   2.454  1.1056 -0.1328 -0.3120
  113SAPE   HN311740   5.204   6.566   2.369  0.3192 -2.0553 -0.8497
  113SAPE   C1211741   5.126   6.580   2.561 -0.9817  0.0617 -0.3545
  113SAPE  H12A11742   5.145   6.513   2.648 -0.9375 -2.1174 -1.9578
  113SAPE  H12B11743   5.027   6.553   2.520 -1.1753 -0.7029  0.5787
  113SAPE   C1111744   5.157   6.723   2.598  1.2892  0.0042 -0.4768
  113SAPE  H11A11745   5.070   6.757   2.659  0.9712 -0.4379 -0.6740
  113SAPE  H11B11746   5.149   6.782   2.503 -1.0142 -0.0361 -0.3712
  113SAPE     P11747   5.341   6.873   2.688 -0.0524  0.1723  0.1760
  113SAPE   O1311748   5.453   6.867   2.782 -0.1713  0.1240  0.7767
  113SAPE   O1411749   5.363   6.920   2.551 -0.2275 -0.5216  0.5651
  113SAPE   O1211750   5.278   6.732   2.665  0.5743  0.0163 -0.3474
  113SAPE   O1111751   5.222   6.957   2.749  0.1330  0.0035  0.3019
  113SAPE    C111752   5.210   7.099   2.760  0.3141  0.0778  0.5343
  113SAPE    HA11753   5.285   7.152   2.697 -0.3869  0.7834  0.2816
  113SAPE    HB11754   5.119   7.118   2.700  1.0432 -0.4824 -0.7947
  113SAPE    C211755   5.208   7.156   2.908 -0.7484  0.2127  0.2795
  113SAPE    HS11756   5.206   7.267   2.907 -0.3437  0.2190 -0.0124
  113SAPE   O2111757   5.329   7.109   2.981  0.7639  0.2197 -0.4095
  113SAPE   C2111758   5.442   7.178   2.967 -0.6622  1.3086 -0.6907
  113SAPE   O2211759   5.438   7.287   2.913 -0.0780 -0.4546 -0.3966
  113SAPE   C2211760   5.559   7.097   3.015  0.2062 -0.0656  0.4485
  113SAPE   H2R11761   5.529   6.990   3.016 -1.1898  0.2940 -0.5211
  113SAPE   H2S11762   5.648   7.104   2.949  1.0069 -0.6903  1.4233
  113SAPE    C311763   5.082   7.092   2.985  0.3112 -0.8292  0.2002
  113SAPE    HX11764   5.075   6.982   2.971 -1.9594 -0.7983  0.6554
  113SAPE    HY11765   4.993   7.126   2.927 -0.8060 -0.7565  1.8675
  113SAPE   O3111766   5.075   7.147   3.120 -0.0122 -0.4160 -0.9791
  113SAPE   C3111767   4.990   7.080   3.197  0.5472  0.0670 -0.4459
  113SAPE   O3211768   4.917   6.992   3.155 -0.5794  0.7267 -0.3059
  113SAPE   C3211769   4.991   7.127   3.342 -0.8903 -0.3425  0.4503
  113SAPE   H2X11770   4.943   7.226   3.362 -1.3591 -0.1733 -1.3653
  113SAPE   H2Y11771   5.097   7.143   3.370 -1.3074 -0.2149  2.0618
  113SAPE   C2311772   5.606   7.133   3.161  0.0630 -0.0955  0.2257
  113SAPE   H3R11773   5.519   7.121   3.229  0.2103  1.8286  0.8243
  113SAPE   H3S11774   5.633   7.241   3.157  2.1203 -0.6029 -1.2626
  113SAPE   C2411775   5.730   7.055   3.208 -0.1399  0.5890  0.4672
  113SAPE   H4R11776   5.784   7.118   3.281 -0.0065  0.2410  0.6722
  113SAPE   H4S11777   5.792   7.045   3.117  0.2564 -0.8202  0.8754
  113SAPE   C2511778   5.701   6.916   3.259 -0.1955  0.3976 -0.9294
  113SAPE   H5R11779   5.701   6.836   3.184  0.0328  0.7751 -1.3347
  113SAPE   C2611780   5.664   6.881   3.389  0.0103  0.7498  0.5958
  113SAPE   H6R11781   5.653   6.777   3.421  2.1772  0.9746  2.2757
  113SAPE   C2711782   5.647   6.976   3.497 -0.1017 -0.7802 -0.7487
  113SAPE   H7R11783   5.715   7.063   3.484  0.5676 -0.5351  3.2355
  113SAPE   H7S11784   5.691   6.927   3.587  0.2149 -1.6454 -1.3559
  113SAPE   C2811785   5.505   6.998   3.521  0.5854 -0.9003 -0.6543
  113SAPE   H8R11786   5.461   7.035   3.427 -1.3226  2.1121  1.2484
  113SAPE   C2911787   5.419   6.970   3.623 -0.5928  0.0871 -0.2523
  113SAPE   H9R11788   5.313   6.985   3.600 -0.7777  1.0877  1.1195
  113SAPE  C21011789   5.442   6.903   3.766  0.2895 -0.6970 -0.3154
  113SAPE  H10R11790   5.550   6.889   3.784  0.8540  3.6549  0.8278
  113SAPE  H10S11791   5.387   6.810   3.792 -0.3088  0.1006  1.4336
  113SAPE  C21111792   5.408   7.008   3.869 -0.6620  0.0136  0.3491
  113SAPE  H11R11793   5.410   7.112   3.834 -1.2481  0.0401  0.3945
  113SAPE  C21211794   5.397   6.988   4.001  0.7181 -0.4843 -0.3389
  113SAPE  H12R11795   5.364   7.072   4.064 -2.7538 -1.6252 -0.4112
  113SAPE  C21311796   5.394   6.861   4.064  0.0186  0.0708 -0.7680
  113SAPE  H13R11797   5.502   6.846   4.086 -0.1264 -0.3316 -0.3071
  113SAPE  H13S11798   5.371   6.778   3.995 -0.2373  1.0687 -1.9076
  113SAPE  C21411799   5.320   6.863   4.197 -0.1550  0.1543 -0.0498
  113SAPE  H14R11800   5.256   6.949   4.222 -1.0432 -0.5287  0.0808
  113SAPE  C21511801   5.311   6.773   4.297 -0.3051 -0.1712 -0.2825
  113SAPE  H15R11802   5.247   6.805   4.380 -1.0269  0.7343 -1.1571
  113SAPE  C21611803   5.378   6.644   4.321 -0.4018 -0.1009 -0.5600
  113SAPE  H16R11804   5.451   6.624   4.239  3.9355  1.6025  2.4844
  113SAPE  H16S11805   5.301   6.564   4.328 -0.8480  0.3556 -0.2062
  113SAPE  C21711806   5.452   6.626   4.458  0.2875 -1.2484 -0.7336
  113SAPE  H17R11807   5.532   6.703   4.453 -1.4508  0.6011 -1.4031
  113SAPE  H17S11808   5.497   6.525   4.455 -1.0097 -1.8987  0.6228
  113SAPE  C21811809   5.356   6.618   4.585 -0.1585  0.1750 -0.4098
  113SAPE  H18R11810   5.263   6.577   4.540 -2.5233  4.1422  0.4056
  113SAPE  H18S11811   5.329   6.723   4.608 -0.7772 -0.5004  2.2239
  113SAPE  C21911812   5.414   6.552   4.708 -0.2898  0.7279 -0.1480
  113SAPE  H19R11813   5.424   6.444   4.684 -1.2603  0.6357 -0.2082
  113SAPE  H19S11814   5.341   6.565   4.792  0.2336  1.4531  0.1975
  113SAPE  C22011815   5.550   6.606   4.743  0.2964  0.3805  0.2562
  113SAPE  H20R11816   5.550   6.713   4.774  4.8176 -0.0359  2.5217
  113SAPE  H20S11817   5.619   6.596   4.656  1.2249  1.2061  0.8743
  113SAPE  H20T11818   5.587   6.557   4.836  1.7617  1.3511  0.2174
  113SAPE   C3311819   4.927   7.032   3.444  0.2612 -0.1002 -0.3623
  113SAPE   H3X11820   4.948   6.929   3.409  0.4533 -0.4498  0.7318
  113SAPE   H3Y11821   4.818   7.052   3.439 -0.1628 -1.1440  2.5963
  113SAPE   C3411822   4.973   7.057   3.591  0.4721  0.1088 -0.5549
  113SAPE   H4X11823   4.945   7.158   3.628  3.1990 -0.0231  2.2272
  113SAPE   H4Y11824   5.081   7.045   3.615  0.0844 -0.5449  0.9800
  113SAPE   C3511825   4.889   6.969   3.683 -1.1486 -0.0845 -0.0041
  113SAPE   H5X11826   4.885   6.867   3.638 -0.1378 -0.0424 -0.2125
  113SAPE   H5Y11827   4.788   7.015   3.684 -1.0989  0.0404 -0.7152
  113SAPE   C3611828   4.932   6.971   3.831 -0.4668 -0.7162  0.1711
  113SAPE   H6X11829   5.040   6.950   3.847 -0.6418 -0.9307  1.1476
  113SAPE   H6Y11830   4.873   6.888   3.875  0.7249 -2.3525 -1.1891
  113SAPE   C3711831   4.909   7.103   3.902 -0.2498 -0.0152 -0.4355
  113SAPE   H7X11832   4.804   7.132   3.882 -0.3084 -0.3572 -0.6262
  113SAPE   H7Y11833   4.964   7.182   3.847 -0.1242 -0.5463 -1.0785
  113SAPE   C3811834   4.962   7.105   4.050 -0.0123 -0.1720  0.0535
  113SAPE   H8X11835   5.071   7.097   4.070 -0.2216  1.0234  1.8056
  113SAPE   H8Y11836   4.928   7.201   4.094  1.9849  1.0757 -0.9743
  113SAPE   C3911837   4.922   6.974   4.124 -0.1016  0.6844 -0.4179
  113SAPE   H9X11838   4.998   6.900   4.091  1.3318  0.4593  2.9139
  113SAPE   H9Y11839   4.816   6.942   4.113  0.1560  0.2215 -1.7246
  113SAPE  C31011840   4.944   6.993   4.276 -0.3760 -0.2215 -0.1303
  113SAPE  H10X11841   4.889   7.084   4.309 -0.2591 -1.5530  4.4052
  113SAPE  H10Y11842   5.053   7.008   4.289 -0.2244  0.8612 -2.1720
  113SAPE  C31111843   4.886   6.876   4.354 -0.7370 -0.0593 -0.5604
  113SAPE  H11X11844   4.970   6.803   4.353 -0.9368 -0.3667  1.3601
  113SAPE  H11Y11845   4.802   6.827   4.301 -2.1077 -0.7678  2.0818
  113SAPE  C31211846   4.866   6.909   4.501 -0.4487  0.7093 -0.0455
  113SAPE  H12X11847   4.814   6.828   4.557  1.6660  0.6729  2.0421
  113SAPE  H12Y11848   4.807   7.003   4.507 -1.7393  0.0234 -1.2212
  113SAPE  C31311849   4.998   6.922   4.585  0.3554 -0.0623  0.6778
  113SAPE  H13X11850   5.057   7.004   4.539 -1.6058  0.2479 -1.4813
  113SAPE  H13Y11851   5.064   6.834   4.574  0.1969 -0.4521  2.4617
  113SAPE  C31411852   4.966   6.939   4.735  0.2973  0.4291 -0.5248
  113SAPE  H14X11853   4.909   6.849   4.767 -0.5563  0.5290 -1.6847
  113SAPE  H14Y11854   4.895   7.025   4.746 -0.6663 -0.1489 -1.9718
  113SAPE  C31511855   5.083   6.953   4.837 -0.8514  0.2695  0.5704
  113SAPE  H15X11856   5.138   6.860   4.812 -1.0784  0.6211 -1.3454
  113SAPE  H15Y11857   5.044   6.963   4.941  0.5898  1.5358  1.0328
  113SAPE  C31611858   5.176   7.075   4.817  0.1829 -0.6408  0.1013
  113SAPE  H16X11859   5.117   7.165   4.843 -0.0643 -0.6375 -0.4603
  113SAPE  H16Y11860   5.180   7.083   4.707 -0.7392  1.2137  0.1629
  113SAPE  C31711861   5.316   7.065   4.886  0.1076 -0.5508  0.1435
  113SAPE  H17X11862   5.378   7.135   4.825  0.9151 -1.6014 -0.2760
  113SAPE  H17Y11863   5.361   6.965   4.867 -1.4377 -0.9938 -1.3639
  113SAPE  C31811864   5.316   7.113   5.029  0.1552 -0.0889 -0.2727
  113SAPE  H18X11865   5.278   7.034   5.097 -1.6066 -0.2076 -1.3519
  113SAPE  H18Y11866   5.247   7.199   5.041 -0.7025 -0.5868 -1.3840
  113SAPE  H18Z11867   5.411   7.157   5.067 -0.5401  0.9709  0.2790
  114SAPE     N11868   0.907   0.138   2.941  0.1069 -0.2900 -0.6888
  114SAPE   HN111869   0.817   0.087   2.957  0.8422 -1.7402 -1.0209
  114SAPE   HN211870   0.974   0.115   3.017 -0.8318  0.4161  0.3879
  114SAPE   HN311871   0.888   0.241   2.943 -1.6839 -0.5733 -0.9921
  114SAPE   C1211872   0.947   0.089   2.803  0.5806 -0.0699 -0.3162
  114SAPE  H12A11873   0.961  -0.021   2.808  2.8791  0.2008  0.2520
  114SAPE  H12B11874   1.040   0.142   2.774 -0.1895  1.2725 -0.4232
  114SAPE   C1111875   0.828   0.117   2.709  0.2303  0.5300 -0.1133
  114SAPE  H11A11876   0.849   0.089   2.604  1.2150  0.2877  0.1393
  114SAPE  H11B11877   0.817   0.228   2.705 -0.9592  0.4318  0.0038
  114SAPE     P11878   0.594  -0.001   2.679  0.0861  0.2746 -0.1798
  114SAPE   O1311879   0.659  -0.071   2.570  0.5611  0.5639  0.2073
  114SAPE   O1411880   0.514  -0.085   2.770  0.1750 -0.4371  0.1017
  114SAPE   O1211881   0.709   0.053   2.768  0.1038  0.2183 -0.7458
  114SAPE   O1111882   0.512   0.125   2.629 -1.1764 -0.5564 -0.3914
  114SAPE    C111883   0.514   0.245   2.706  0.3594 -0.4627 -0.9314
  114SAPE    HA11884   0.621   0.269   2.728  0.3935 -1.7373  0.4544
  114SAPE    HB11885   0.483   0.334   2.647 -0.6752  0.3583  0.7921
  114SAPE    C211886   0.432   0.250   2.840  0.0910 -0.7328  0.2593
  114SAPE    HS11887   0.511   0.243   2.918  0.5205 -0.9661 -0.1941
  114SAPE   O2111888   0.340   0.145   2.843 -0.0680 -0.1901 -0.1343
  114SAPE   C2111889   0.312   0.093   2.963 -0.2752  0.5453  0.5694
  114SAPE   O2211890   0.379   0.108   3.065 -0.6090  0.2733  0.8273
  114SAPE   C2211891   0.178   0.017   2.945 -0.4680  0.1337  0.3598
  114SAPE   H2R11892   0.100   0.097   2.945  1.0657  1.7338  2.1068
  114SAPE   H2S11893   0.176  -0.020   2.840 -1.9097 -1.1094  0.7876
  114SAPE    C311894   0.358   0.387   2.858 -0.7837 -0.3479 -0.1126
  114SAPE    HX11895   0.283   0.401   2.778 -0.7145  0.2121 -0.0873
  114SAPE    HY11896   0.436   0.463   2.835 -0.6373 -0.4053  0.1827
  114SAPE   O3111897   0.312   0.417   2.989  0.5056 -0.0789 -0.3391
  114SAPE   C3111898   0.181   0.397   3.010 -0.0777 -1.0048 -0.0976
  114SAPE   O3211899   0.097   0.384   2.925  0.6894  0.0995 -0.4318
  114SAPE   C3211900   0.168   0.349   3.156  1.0663  0.4371  1.0546
  114SAPE   H2X11901   0.178   0.239   3.165  1.1322  0.2635 -0.7857
  114SAPE   H2Y11902   0.066   0.380   3.190  0.4147 -1.1014  0.5601
  114SAPE   C2311903   0.154  -0.091   3.047  0.6392  0.5495 -0.0261
  114SAPE   H3R11904   0.240  -0.162   3.045 -0.5072 -0.8542 -0.6028
  114SAPE   H3S11905   0.060  -0.138   3.013 -0.2951  1.6240  0.9716
  114SAPE   C2411906   0.112  -0.047   3.190  0.8229 -0.6193  0.0760
  114SAPE   H4R11907   0.033   0.027   3.167  0.4046 -0.8460  0.7705
  114SAPE   H4S11908   0.204   0.010   3.217 -0.6637  2.3904 -0.6943
  114SAPE   C2511909   0.065  -0.154   3.287  0.4212  0.1835 -0.1460
  114SAPE   H5R11910   0.116  -0.251   3.278  2.2858  1.0424  0.5798
  114SAPE   C2611911  -0.026  -0.140   3.379  0.2261 -0.1174  0.2276
  114SAPE   H6R11912  -0.045  -0.216   3.456  2.0070  0.8427  1.6985
  114SAPE   C2711913  -0.094  -0.014   3.412 -0.0027  0.3866 -0.1110
  114SAPE   H7R11914  -0.088   0.069   3.338  2.3144  1.5012  1.1882
  114SAPE   H7S11915  -0.032   0.024   3.497  1.0481  0.0333 -0.7086
  114SAPE   C2811916  -0.242  -0.023   3.443 -0.1948 -0.3033  0.1107
  114SAPE   H8R11917  -0.312   0.030   3.376  0.0964 -0.5179 -0.3708
  114SAPE   C2911918  -0.297  -0.082   3.551 -0.3931 -0.4306  0.2793
  114SAPE   H9R11919  -0.406  -0.094   3.557 -0.4987  0.3814  0.1747
  114SAPE  C21011920  -0.232  -0.173   3.651  0.5087  0.0567 -0.4725
  114SAPE  H10R11921  -0.255  -0.129   3.751  0.9607 -0.7767  0.0094
  114SAPE  H10S11922  -0.121  -0.171   3.641  0.5052 -1.1754 -0.8169
  114SAPE  C21111923  -0.286  -0.315   3.644 -0.6365 -0.0079  0.2643
  114SAPE  H11R11924  -0.267  -0.367   3.549 -0.2460 -2.0981  1.4220
  114SAPE  C21211925  -0.350  -0.379   3.745 -0.4649  0.1781  0.5779
  114SAPE  H12R11926  -0.388  -0.481   3.729  0.0827 -0.0856  0.9303
  114SAPE  C21311927  -0.368  -0.326   3.877  0.2014 -0.5753  0.3343
  114SAPE  H13R11928  -0.443  -0.244   3.880  1.5692  0.7468 -0.1464
  114SAPE  H13S11929  -0.272  -0.272   3.897 -1.6114  3.6229 -1.1432
  114SAPE  C21411930  -0.393  -0.433   3.979 -0.4517  0.1189 -0.5941
  114SAPE  H14R11931  -0.299  -0.479   4.013  0.2430  1.0396 -1.2134
  114SAPE  C21511932  -0.518  -0.463   4.029  0.5700  0.6762 -0.0921
  114SAPE  H15R11933  -0.529  -0.546   4.100 -0.1045  1.0632  0.2711
  114SAPE  C21611934  -0.654  -0.406   3.975 -0.9379  0.6989 -0.5683
  114SAPE  H16R11935  -0.638  -0.309   3.924 -0.7284  1.4696  0.9219
  114SAPE  H16S11936  -0.721  -0.388   4.062 -1.1715  1.0263 -0.8119
  114SAPE  C21711937  -0.725  -0.512   3.887  0.5702 -0.7501  0.2216
  114SAPE  H17R11938  -0.833  -0.491   3.894  0.8688  0.3579  3.2294
  114SAPE  H17S11939  -0.715  -0.616   3.925 -2.6800 -1.4936 -0.7356
  114SAPE  C21811940  -0.686  -0.505   3.742  0.4088  0.7536  0.0595
  114SAPE  H18R11941  -0.580  -0.540   3.737  0.0760 -0.5465  1.3883
  114SAPE  H18S11942  -0.698  -0.406   3.693 -2.7132 -0.7765 -2.6021
  114SAPE  C21911943  -0.772  -0.599   3.656  0.2000 -0.4168 -0.2225
  114SAPE  H19R11944  -0.873  -0.553   3.651 -0.0759 -1.0389 -0.5346
  114SAPE  H19S11945  -0.764  -0.701   3.701  0.9690 -0.4610 -0.4597
  114SAPE  C22011946  -0.731  -0.628   3.511  0.0744  0.3267  0.1997
  114SAPE  H20R11947  -0.635  -0.682   3.520  0.4542  0.3864 -2.5294
  114SAPE  H20S11948  -0.715  -0.535   3.451 -2.3812 -0.6685 -2.2379
  114SAPE  H20T11949  -0.803  -0.695   3.459  1.0110 -0.3218 -0.2774
  114SAPE   C3311950   0.270   0.407   3.255  0.0241  0.3496  0.3726
  114SAPE   H3X11951   0.295   0.508   3.215  3.1584 -0.3886  0.1673
  114SAPE   H3Y11952   0.366   0.352   3.258  0.5873  1.3527  2.2609
  114SAPE   C3411953   0.220   0.428   3.397 -1.2208  0.2324 -0.6425
  114SAPE   H4X11954   0.149   0.513   3.393 -2.6799 -0.9643 -4.5206
  114SAPE   H4Y11955   0.307   0.459   3.459  0.2082 -2.2725 -1.2729
  114SAPE   C3511956   0.146   0.309   3.454 -0.5228 -0.1882  0.3068
  114SAPE   H5X11957   0.202   0.213   3.441 -2.8405 -1.4819 -0.8213
  114SAPE   H5Y11958   0.047   0.306   3.403  1.2604 -0.2221 -3.5128
  114SAPE   C3611959   0.133   0.325   3.605 -1.3552 -0.0327 -0.2161
  114SAPE   H6X11960   0.222   0.347   3.669 -0.6718  1.3506 -1.5814
  114SAPE   H6Y11961   0.093   0.225   3.630  0.9832 -1.0869 -0.3932
  114SAPE   C3711962   0.024   0.425   3.649  0.0859 -0.1547  0.4541
  114SAPE   H7X11963  -0.064   0.417   3.582  0.2916 -0.5961  0.2329
  114SAPE   H7Y11964   0.055   0.531   3.646 -1.5967  0.3528 -1.2243
  114SAPE   C3811965  -0.029   0.398   3.793 -0.0969  0.4739 -0.6208
  114SAPE   H8X11966  -0.039   0.289   3.810  0.5414  0.6456  1.1032
  114SAPE   H8Y11967  -0.134   0.435   3.798  0.0795  1.0193 -0.8759
  114SAPE   C3911968   0.048   0.464   3.908 -0.9820  0.1478 -0.7315
  114SAPE   H9X11969   0.024   0.572   3.891 -2.2944 -0.1382 -0.8217
  114SAPE   H9Y11970   0.155   0.437   3.903 -0.2056  2.9379 -1.0185
  114SAPE  C31011971  -0.014   0.442   4.042  0.4691  0.3210 -0.7874
  114SAPE  H10X11972  -0.007   0.337   4.078  2.7614  1.2259  1.8203
  114SAPE  H10Y11973  -0.123   0.458   4.029  0.7170  2.3351 -0.6933
  114SAPE  C31111974   0.031   0.547   4.146  0.4375  0.8372  0.4043
  114SAPE  H11X11975  -0.021   0.639   4.112 -0.6183  0.1719  0.2026
  114SAPE  H11Y11976   0.141   0.563   4.155  0.9920 -2.3022  0.4918
  114SAPE  C31211977  -0.018   0.505   4.289 -0.0755  0.1404  0.7044
  114SAPE  H12X11978   0.066   0.456   4.342 -0.5076 -0.1152  1.1616
  114SAPE  H12Y11979  -0.110   0.444   4.277 -0.0628  0.5086 -1.9239
  114SAPE  C31311980  -0.055   0.625   4.380  0.5808 -0.0428 -0.3255
  114SAPE  H13X11981  -0.093   0.706   4.313  0.6827 -0.3207 -0.7226
  114SAPE  H13Y11982   0.037   0.668   4.423  1.2424 -1.0972 -0.6463
  114SAPE  C31411983  -0.149   0.599   4.495 -0.1694 -0.7949  1.0152
  114SAPE  H14X11984  -0.088   0.548   4.573  0.3598 -0.1942  0.9997
  114SAPE  H14Y11985  -0.231   0.530   4.467  0.9705 -2.0473  0.6524
  114SAPE  C31511986  -0.199   0.726   4.550 -0.2203  0.2042 -0.4892
  114SAPE  H15X11987  -0.276   0.766   4.482  0.2980  0.6128 -0.8433
  114SAPE  H15Y11988  -0.119   0.803   4.556 -1.7806  1.9855 -1.6047
  114SAPE  C31611989  -0.270   0.726   4.693 -0.3366  0.1227  0.1370
  114SAPE  H16X11990  -0.269   0.834   4.717  1.5728  0.5122 -1.4306
  114SAPE  H16Y11991  -0.213   0.669   4.770 -0.9275 -0.6028  0.0574
  114SAPE  C31711992  -0.408   0.675   4.691  0.3178  0.4982  1.0354
  114SAPE  H17X11993  -0.420   0.567   4.666 -2.9178  1.1941 -1.0737
  114SAPE  H17Y11994  -0.463   0.726   4.609 -2.1489  0.0993  2.3173
  114SAPE  C31811995  -0.478   0.699   4.820 -0.5192  0.0394  0.7165
  114SAPE  H18X11996  -0.583   0.664   4.819 -1.3212  2.2618  0.7033
  114SAPE  H18Y11997  -0.479   0.809   4.837  1.1489  0.5929 -2.1219
  114SAPE  H18Z11998  -0.418   0.646   4.897  0.2976 -1.8322 -1.1314
  115SAPE     N11999   5.375   3.929   2.314  0.5887  0.3735  0.7026
  115SAPE   HN112000   5.275   3.923   2.340 -0.0678  1.5180 -1.3804
  115SAPE   HN212001   5.403   4.018   2.268 -0.8366  0.3177 -0.3284
  115SAPE   HN312002   5.401   3.850   2.253 -0.0971 -0.4747  1.4885
  115SAPE   C1212003   5.454   3.927   2.438 -0.2667  0.0661 -0.8075
  115SAPE  H12A12004   5.558   3.953   2.409  0.5115  0.0291  1.6731
  115SAPE  H12B12005   5.444   3.822   2.476  1.9874  0.8021  2.2972
  115SAPE   C1112006   5.402   4.016   2.553  0.9556  0.8940  0.6160
  115SAPE  H11A12007   5.457   4.014   2.649 -0.1344 -2.1227  1.3205
  115SAPE  H11B12008   5.299   3.974   2.568  0.7715  0.8513 -0.6722
  115SAPE     P12009   5.508   4.257   2.544 -0.0467  0.3670  0.0161
  115SAPE   O1312010   5.623   4.224   2.459 -0.4303 -0.3697  0.1143
  115SAPE   O1412011   5.464   4.399   2.536  0.1190 -0.0497  0.1533
  115SAPE   O1212012   5.394   4.152   2.508  0.6558 -0.9094  0.6200
  115SAPE   O1112013   5.548   4.227   2.701  0.6975 -0.0810 -0.7133
  115SAPE    C112014   5.617   4.326   2.774 -0.4012 -0.5671 -0.2648
  115SAPE    HA12015   5.637   4.419   2.716  0.2148 -0.7096 -0.2904
  115SAPE    HB12016   5.567   4.349   2.870  2.3037 -0.1654  1.1271
  115SAPE    C212017   5.758   4.267   2.824  0.4079  0.3107 -0.3459
  115SAPE    HS12018   5.813   4.220   2.739  1.1518  0.0992  0.2519
  115SAPE   O2112019   5.735   4.169   2.924 -0.2013  0.4749  0.0494
  115SAPE   C2112020   5.826   4.068   2.932 -0.1274 -0.4220 -0.9179
  115SAPE   O2212021   5.907   4.052   2.843  0.1169  0.3101  0.2984
  115SAPE   C2212022   5.826   3.993   3.064  0.5908 -0.9085  0.3420
  115SAPE   H2R12023   5.825   4.068   3.146  0.9384  1.6241 -1.8285
  115SAPE   H2S12024   5.724   3.949   3.066 -0.8903  2.2721  1.6364
  115SAPE    C312025   5.854   4.367   2.885 -0.1668 -0.1286 -0.5297
  115SAPE    HX12026   5.897   4.430   2.805 -1.7190  0.4055 -0.9777
  115SAPE    HY12027   5.940   4.307   2.922  0.3433 -0.2263 -1.8463
  115SAPE   O3112028   5.789   4.447   2.989 -0.0420 -0.1259  0.1294
  115SAPE   C3112029   5.879   4.522   3.047  0.3645 -0.1444  0.0785
  115SAPE   O3212030   6.003   4.518   3.022  0.1235 -0.1165 -0.4047
  115SAPE   C3212031   5.807   4.603   3.151 -0.9644 -0.2118 -0.2574
  115SAPE   H2X12032   5.803   4.704   3.106  0.9483 -0.0767 -0.1734
  115SAPE   H2Y12033   5.872   4.604   3.242 -0.7696  2.5518 -0.3315
  115SAPE   C2312034   5.947   3.904   3.093  0.2745 -0.2675 -0.3439
  115SAPE   H3R12035   6.049   3.944   3.075  0.9387 -1.7570  0.0054
  115SAPE   H3S12036   5.938   3.819   3.023  0.4609 -0.3835 -0.2270
  115SAPE   C2412037   5.936   3.859   3.243  0.1119  0.3972 -1.2213
  115SAPE   H4R12038   5.846   3.795   3.254  0.2312  0.6566  3.3958
  115SAPE   H4S12039   5.911   3.953   3.297  2.2537 -0.4638  1.5195
  115SAPE   C2512040   6.063   3.783   3.292  0.0591  0.0326 -0.6618
  115SAPE   H5R12041   6.163   3.817   3.260  0.1375  2.0109  1.4681
  115SAPE   C2612042   6.063   3.673   3.374 -0.3492 -0.2652 -0.3597
  115SAPE   H6R12043   6.161   3.634   3.404  0.1209  0.4377 -0.9345
  115SAPE   C2712044   5.947   3.611   3.455 -0.1166  0.1740 -0.0608
  115SAPE   H7R12045   5.973   3.519   3.512 -0.5896 -0.9072 -1.5368
  115SAPE   H7S12046   5.880   3.569   3.376  0.5943 -1.9933  0.4146
  115SAPE   C2812047   5.878   3.707   3.550  0.7814  0.6794 -0.1148
  115SAPE   H8R12048   5.793   3.765   3.510  0.6877  1.5648  1.2671
  115SAPE   C2912049   5.904   3.728   3.683 -0.5290 -0.0262 -0.4435
  115SAPE   H9R12050   5.851   3.800   3.748 -1.9003  2.0504 -3.6376
  115SAPE  C21012051   6.010   3.646   3.760  0.4703 -0.2010  0.0267
  115SAPE  H10R12052   6.093   3.632   3.687 -1.0291  1.1530 -2.0714
  115SAPE  H10S12053   5.963   3.546   3.774  1.2875 -0.4622  0.9969
  115SAPE  C21112054   6.060   3.702   3.898 -0.0643 -0.2146  0.1729
  115SAPE  H11R12055   6.162   3.743   3.896 -0.9312  2.0790  0.0081
  115SAPE  C21212056   5.999   3.689   4.018 -0.6984 -0.1012 -0.1855
  115SAPE  H12R12057   6.047   3.715   4.113 -1.3534 -0.2160  0.1797
  115SAPE  C21312058   5.860   3.640   4.041  0.6432 -0.1453 -0.3483
  115SAPE  H13R12059   5.838   3.567   4.121 -0.6053  0.5504 -0.0357
  115SAPE  H13S12060   5.825   3.585   3.951  0.1231  1.5544 -1.2453
  115SAPE  C21412061   5.768   3.756   4.057  0.7927 -0.3529  0.0021
  115SAPE  H14R12062   5.767   3.819   3.966  0.8524  0.2556  0.4185
  115SAPE  C21512063   5.674   3.769   4.151  0.4196 -0.3735  0.4948
  115SAPE  H15R12064   5.601   3.851   4.159 -0.0684 -0.8924  1.7271
  115SAPE  C21612065   5.664   3.695   4.279 -0.5140  0.0576 -0.7827
  115SAPE  H16R12066   5.745   3.619   4.284 -2.2091 -1.8052 -0.4572
  115SAPE  H16S12067   5.574   3.630   4.270 -0.7938  0.4197 -0.6348
  115SAPE  C21712068   5.657   3.796   4.396  0.0303 -0.5953 -0.1928
  115SAPE  H17R12069   5.557   3.838   4.420  0.6269  1.1031 -0.5126
  115SAPE  H17S12070   5.727   3.879   4.375 -0.9950  0.0835 -1.0126
  115SAPE  C21812071   5.717   3.730   4.524  0.0631  0.4431 -0.3602
  115SAPE  H18R12072   5.662   3.638   4.553 -0.8286  1.2322  0.5193
  115SAPE  H18S12073   5.697   3.799   4.609  1.0201 -0.5329  0.6942
  115SAPE  C21912074   5.868   3.712   4.517  0.5787  0.1256 -0.5184
  115SAPE  H19R12075   5.915   3.810   4.495 -1.2337  1.0322 -0.5658
  115SAPE  H19S12076   5.901   3.643   4.437 -0.5639  0.7934 -1.5968
  115SAPE  C22012077   5.918   3.653   4.645 -0.2129  0.4369  0.2694
  115SAPE  H20R12078   5.867   3.694   4.735 -2.0171 -3.6953  1.3858
  115SAPE  H20S12079   6.028   3.667   4.653  0.5497 -1.7853 -3.5370
  115SAPE  H20T12080   5.904   3.542   4.651  1.4697  0.1312 -0.8159
  115SAPE   C3312081   5.659   4.560   3.204 -0.3269  0.7044 -0.0830
  115SAPE   H3X12082   5.591   4.548   3.117 -0.2430 -2.6928  0.1860
  115SAPE   H3Y12083   5.625   4.625   3.287 -1.0744 -1.0129  1.0199
  115SAPE   C3412084   5.665   4.412   3.260  0.8739  0.3509  0.1454
  115SAPE   H4X12085   5.733   4.350   3.197 -0.9203 -0.9516 -0.6048
  115SAPE   H4Y12086   5.563   4.368   3.256  1.4558 -0.9396 -1.6981
  115SAPE   C3512087   5.722   4.405   3.400 -0.5426  0.0012  0.1162
  115SAPE   H5X12088   5.654   4.458   3.470  0.4742  0.2713  0.9403
  115SAPE   H5Y12089   5.814   4.467   3.403 -0.9951  0.6470  1.6108
  115SAPE   C3612090   5.746   4.262   3.441 -0.9402  0.3946 -0.7136
  115SAPE   H6X12091   5.809   4.201   3.373  2.7140  1.1412  1.7616
  115SAPE   H6Y12092   5.652   4.202   3.442 -0.8959  0.3376 -0.0074
  115SAPE   C3712093   5.815   4.259   3.578  0.8264  0.0034  0.2538
  115SAPE   H7X12094   5.767   4.292   3.672 -1.3494 -0.6961 -0.5513
  115SAPE   H7Y12095   5.906   4.322   3.577  0.8421 -0.0186  0.3132
  115SAPE   C3812096   5.854   4.115   3.599  0.7301 -0.8542 -0.1514
  115SAPE   H8X12097   5.902   4.069   3.510 -1.6805 -0.8792 -1.5304
  115SAPE   H8Y12098   5.763   4.061   3.631 -0.5633  1.0105 -0.4698
  115SAPE   C3912099   5.948   4.096   3.721  0.2423  0.3099  0.9659
  115SAPE   H9X12100   5.989   3.993   3.719 -0.8378 -0.1237  0.6589
  115SAPE   H9Y12101   5.884   4.105   3.810 -0.1783 -1.1731  0.8363
  115SAPE  C31012102   6.067   4.191   3.750  0.1001 -0.5061  0.8335
  115SAPE  H10X12103   6.046   4.291   3.704  0.9469  0.1136  1.7667
  115SAPE  H10Y12104   6.163   4.164   3.701  0.2861  0.5329  0.6013
  115SAPE  C31112105   6.079   4.208   3.903  0.1488 -0.2870  0.5386
  115SAPE  H11X12106   5.982   4.227   3.954 -0.4106 -1.1327 -0.1733
  115SAPE  H11Y12107   6.132   4.304   3.921  0.0748 -0.0372 -0.4624
  115SAPE  C31212108   6.154   4.100   3.975  0.3336  0.9610  0.3273
  115SAPE  H12X12109   6.257   4.091   3.936  0.0252  1.8909 -0.7526
  115SAPE  H12Y12110   6.114   4.002   3.942 -0.0454  0.6327  1.6941
  115SAPE  C31312111   6.164   4.113   4.130  0.2791 -0.6406  0.1780
  115SAPE  H13X12112   6.067   4.120   4.183  0.7102  1.6313  0.7844
  115SAPE  H13Y12113   6.229   4.202   4.147  2.0599 -1.8423 -0.0331
  115SAPE  C31412114   6.249   4.000   4.194 -0.5861 -0.3182 -0.6350
  115SAPE  H14X12115   6.350   4.006   4.149 -0.4906  1.5606 -0.2539
  115SAPE  H14Y12116   6.202   3.904   4.162 -0.2272 -0.2862 -1.2527
  115SAPE  C31512117   6.254   4.017   4.345  0.6046  0.3793  0.1654
  115SAPE  H15X12118   6.151   4.041   4.378  1.5188  3.6829  1.0399
  115SAPE  H15Y12119   6.333   4.094   4.360  1.6229 -0.4766 -0.6909
  115SAPE  C31612120   6.295   3.879   4.405  0.0071  0.0453 -0.0335
  115SAPE  H16X12121   6.226   3.806   4.358 -2.0434 -0.5044  3.4445
  115SAPE  H16Y12122   6.272   3.898   4.512  0.5691  2.6698 -0.3099
  115SAPE  C31712123   6.444   3.855   4.382 -0.1204  0.2373 -0.0596
  115SAPE  H17X12124   6.503   3.949   4.395  1.8748 -1.0729  0.7723
  115SAPE  H17Y12125   6.461   3.815   4.280  0.2753 -1.8341  0.7740
  115SAPE  C31812126   6.506   3.763   4.481  0.3884  0.8276  0.4901
  115SAPE  H18X12127   6.491   3.655   4.460  4.3357 -0.1903  2.0202
  115SAPE  H18Y12128   6.465   3.786   4.581 -0.0643 -0.0811  0.5233
  115SAPE  H18Z12129   6.615   3.782   4.480  0.4905  0.2775 -0.2040
  116SAPE     N12130   2.035   5.217   2.834 -0.8700  0.2566 -0.5134
  116SAPE   HN112131   2.100   5.166   2.771  1.5697  0.8469  1.3825
  116SAPE   HN212132   1.963   5.259   2.772 -0.9734  3.0540  1.2959
  116SAPE   HN312133   2.079   5.307   2.864 -0.0823 -0.7543  1.5302
  116SAPE   C1212134   1.954   5.143   2.932 -0.0556 -0.0008 -0.4648
  116SAPE  H12A12135   2.019   5.080   2.997 -0.2740 -0.3305 -0.5587
  116SAPE  H12B12136   1.891   5.070   2.876 -2.0208  0.6942  0.7425
  116SAPE   C1112137   1.868   5.234   3.023  0.0615 -0.2364  0.5310
  116SAPE  H11A12138   1.940   5.297   3.079  1.5074 -1.1178 -0.2829
  116SAPE  H11B12139   1.805   5.176   3.094 -1.8744  3.1977  1.8750
  116SAPE     P12140   1.633   5.300   2.905  0.3994  0.4517  0.1894
  116SAPE   O1312141   1.560   5.434   2.905 -0.0634 -0.1845 -0.6466
  116SAPE   O1412142   1.630   5.231   2.776  0.0690 -0.1500 -0.1848
  116SAPE   O1212143   1.784   5.330   2.951 -0.1140 -0.6416 -0.0160
  116SAPE   O1112144   1.589   5.209   3.017  0.4015 -0.7194 -0.4087
  116SAPE    C112145   1.482   5.242   3.107 -0.6128 -0.5612  0.4583
  116SAPE    HA12146   1.525   5.305   3.188  1.2856 -0.0046 -0.9120
  116SAPE    HB12147   1.398   5.296   3.059  0.3141 -0.2492 -0.8564
  116SAPE    C212148   1.442   5.111   3.182  0.2779  0.3939 -0.2426
  116SAPE    HS12149   1.364   5.140   3.255  0.4602  0.8561 -0.2294
  116SAPE   O2112150   1.549   5.054   3.260 -0.3784  0.7697 -0.3431
  116SAPE   C2112151   1.586   5.110   3.378  0.0085  0.2887 -0.2450
  116SAPE   O2212152   1.519   5.196   3.435 -0.2460 -0.7070  0.5430
  116SAPE   C2212153   1.713   5.044   3.427  0.3815  0.9548 -0.5963
  116SAPE   H2R12154   1.692   4.976   3.512  1.9473  0.3067 -0.6958
  116SAPE   H2S12155   1.765   4.985   3.349 -2.4004 -1.0892 -1.0206
  116SAPE    C312156   1.377   5.012   3.080  0.0049  0.4433 -0.7046
  116SAPE    HX12157   1.444   4.990   2.994 -0.5986  0.8285 -1.2848
  116SAPE    HY12158   1.294   5.056   3.021  0.3188  1.1018 -0.6656
  116SAPE   O3112159   1.343   4.882   3.143 -0.3721  0.1268 -0.3578
  116SAPE   C3112160   1.238   4.882   3.225  0.8386 -0.2659 -0.1840
  116SAPE   O3212161   1.174   4.979   3.258  0.0744  0.7081 -0.4887
  116SAPE   C3212162   1.200   4.737   3.264 -0.0898  0.0441  0.1493
  116SAPE   H2X12163   1.292   4.675   3.274 -0.5913 -0.8375 -0.6014
  116SAPE   H2Y12164   1.149   4.695   3.175 -0.3861 -2.4505  1.3985
  116SAPE   C2312165   1.815   5.142   3.489  0.1200 -0.1071  0.0069
  116SAPE   H3R12166   1.757   5.211   3.554 -1.7349 -0.9535 -0.6971
  116SAPE   H3S12167   1.880   5.191   3.414 -1.9096 -1.5424 -2.8442
  116SAPE   C2412168   1.897   5.068   3.602  0.0455  0.2707  0.1671
  116SAPE   H4R12169   1.830   5.004   3.663 -0.2824 -1.4650 -1.8982
  116SAPE   H4S12170   1.951   5.137   3.671 -1.2733  1.4500  0.0758
  116SAPE   C2512171   1.993   4.970   3.536 -0.1836  0.1634 -0.3622
  116SAPE   H5R12172   1.954   4.897   3.464 -1.1853 -2.6356  2.7907
  116SAPE   C2612173   2.124   4.966   3.563 -0.0048  0.4575  0.3913
  116SAPE   H6R12174   2.197   4.896   3.519  1.7257  1.6141  1.2687
  116SAPE   C2712175   2.209   5.052   3.656  0.6638 -0.0758 -0.5421
  116SAPE   H7R12176   2.153   5.132   3.710  0.1000 -1.6433  1.2932
  116SAPE   H7S12177   2.299   5.089   3.604  0.8982 -1.3099 -1.0429
  116SAPE   C2812178   2.270   4.976   3.767  0.2379  0.3838 -0.1206
  116SAPE   H8R12179   2.369   4.936   3.744  1.2271  3.2276 -1.2151
  116SAPE   C2912180   2.221   4.968   3.891 -1.0007 -0.0562 -0.5871
  116SAPE   H9R12181   2.279   4.925   3.975 -2.1942  2.0820  1.4363
  116SAPE  C21012182   2.101   5.032   3.958  0.3361  0.2269 -0.2013
  116SAPE  H10R12183   2.058   5.117   3.900 -0.1132 -0.7498 -1.3627
  116SAPE  H10S12184   2.119   5.077   4.058 -2.8400  4.3531 -1.2177
  116SAPE  C21112185   1.995   4.932   3.982 -0.3518  0.0723  0.0795
  116SAPE  H11R12186   1.947   4.894   3.891 -1.9847 -1.9975  1.6975
  116SAPE  C21212187   1.952   4.889   4.111 -0.2033  0.1358  0.3566
  116SAPE  H12R12188   1.884   4.803   4.115 -0.7638  0.4534 -1.4812
  116SAPE  C21312189   1.998   4.926   4.246 -0.1774 -0.2686 -0.3373
  116SAPE  H13R12190   1.949   5.024   4.267  0.2119 -0.2421  0.4845
  116SAPE  H13S12191   2.108   4.942   4.251 -0.4443  2.4633 -1.2870
  116SAPE  C21412192   1.972   4.848   4.367  1.0284 -0.5351  0.0692
  116SAPE  H14R12193   2.031   4.756   4.378  1.2421 -0.2124  1.8894
  116SAPE  C21512194   1.890   4.877   4.467  0.3078 -0.2902  0.5805
  116SAPE  H15R12195   1.898   4.811   4.554 -2.9137  0.0488  1.2427
  116SAPE  C21612196   1.792   4.996   4.488  0.2251  0.0236  0.2218
  116SAPE  H16R12197   1.787   5.063   4.399  1.0845 -0.3993 -0.1570
  116SAPE  H16S12198   1.834   5.058   4.569 -2.1594  0.6775  1.0511
  116SAPE  C21712199   1.653   4.949   4.507  0.4536  0.2657 -0.2593
  116SAPE  H17R12200   1.639   4.896   4.604  1.3944 -0.8005 -0.6868
  116SAPE  H17S12201   1.610   4.883   4.430 -1.8546  0.8349  0.4566
  116SAPE  C21812202   1.547   5.063   4.524 -0.0548 -0.8853  0.1057
  116SAPE  H18R12203   1.450   5.010   4.536  0.9767 -3.2651 -1.4022
  116SAPE  H18S12204   1.539   5.135   4.440  0.1278  1.5952  2.0800
  116SAPE  C21912205   1.571   5.146   4.645 -0.1153 -0.0785  0.0380
  116SAPE  H19R12206   1.661   5.208   4.625 -0.1728  0.4187  1.1955
  116SAPE  H19S12207   1.584   5.082   4.735 -0.0917  0.0246  0.1092
  116SAPE  C22012208   1.448   5.234   4.677  0.3007 -0.1921 -0.1012
  116SAPE  H20R12209   1.352   5.177   4.683 -0.3858  1.1011  3.0400
  116SAPE  H20S12210   1.429   5.319   4.608 -2.0647 -0.3876  0.2019
  116SAPE  H20T12211   1.456   5.277   4.779  1.5707 -1.5452  0.3991
  116SAPE   C3312212   1.107   4.726   3.392 -0.0814  0.5913 -0.4670
  116SAPE   H3X12213   1.052   4.629   3.394 -1.8875  1.5905  1.5738
  116SAPE   H3Y12214   1.023   4.797   3.378 -0.1707  0.1809 -2.4335
  116SAPE   C3412215   1.181   4.746   3.525  0.0493  0.2934  0.0685
  116SAPE   H4X12216   1.236   4.842   3.513  0.9895 -0.1781  0.4752
  116SAPE   H4Y12217   1.252   4.663   3.544 -2.2238 -1.6747  0.3816
  116SAPE   C3512218   1.085   4.761   3.646 -0.2125  0.1443  0.1167
  116SAPE   H5X12219   1.052   4.658   3.674  0.9128 -0.2284  0.1453
  116SAPE   H5Y12220   0.999   4.818   3.606  0.1140  0.2012 -0.5069
  116SAPE   C3612221   1.151   4.830   3.766  0.1434  0.3411 -0.2949
  116SAPE   H6X12222   1.206   4.918   3.726  1.4939 -0.3872 -0.1183
  116SAPE   H6Y12223   1.224   4.765   3.819 -1.1149 -1.6452 -0.9110
  116SAPE   C3712224   1.053   4.877   3.873  0.0526  1.1702 -0.2974
  116SAPE   H7X12225   0.966   4.914   3.815 -0.6788 -2.5623 -1.9178
  116SAPE   H7Y12226   1.089   4.961   3.936  0.6535  0.4159  0.3992
  116SAPE   C3812227   1.004   4.744   3.948 -0.2494 -0.4926  0.6770
  116SAPE   H8X12228   1.093   4.683   3.974  0.8614  0.8659  0.1448
  116SAPE   H8Y12229   0.941   4.688   3.875 -1.1562 -1.6535  2.2779
  116SAPE   C3912230   0.928   4.777   4.073  0.7842  0.3338 -1.1493
  116SAPE   H9X12231   0.885   4.686   4.121  0.8742  0.6121 -0.5256
  116SAPE   H9Y12232   0.842   4.841   4.041 -0.6891 -0.9960 -0.0245
  116SAPE  C31012233   1.004   4.847   4.188 -0.2290 -0.1219  0.2429
  116SAPE  H10X12234   1.060   4.935   4.150  3.2206 -0.7890  3.2096
  116SAPE  H10Y12235   1.087   4.783   4.226  0.9297  2.2534  1.9571
  116SAPE  C31112236   0.923   4.882   4.309  0.2403 -0.6956  0.6035
  116SAPE  H11X12237   0.858   4.793   4.322  0.5508 -0.7508  1.9098
  116SAPE  H11Y12238   0.851   4.963   4.286 -0.6324 -1.1231  1.7501
  116SAPE  C31212239   1.003   4.888   4.433  0.6476  0.0497 -0.2542
  116SAPE  H12X12240   1.075   4.971   4.417  1.4684 -0.4978  0.5287
  116SAPE  H12Y12241   1.065   4.798   4.450 -0.4086 -0.8175 -0.8476
  116SAPE  C31312242   0.922   4.931   4.559 -0.5872  0.3002 -0.4427
  116SAPE  H13X12243   0.880   5.033   4.552  0.5827  0.7079 -1.8980
  116SAPE  H13Y12244   0.994   4.932   4.644 -0.7786 -0.1592 -0.2691
  116SAPE  C31412245   0.810   4.830   4.606  0.5312  0.1039 -0.9016
  116SAPE  H14X12246   0.851   4.733   4.640  1.8139  0.1412 -2.2428
  116SAPE  H14Y12247   0.749   4.802   4.517  0.7735  0.3909 -1.1573
  116SAPE  C31512248   0.708   4.884   4.711 -0.1581 -0.2548  0.4670
  116SAPE  H15X12249   0.666   4.980   4.674 -0.9953 -0.3055  1.2610
  116SAPE  H15Y12250   0.756   4.898   4.810 -2.2485  0.1541  1.4813
  116SAPE  C31612251   0.590   4.788   4.732 -0.1103  0.2485 -0.2100
  116SAPE  H16X12252   0.632   4.689   4.760  0.7419  1.1377  1.8308
  116SAPE  H16Y12253   0.531   4.788   4.638 -1.4764 -0.1406  0.6242
  116SAPE  C31712254   0.487   4.844   4.835 -0.7912  0.1727  0.6416
  116SAPE  H17X12255   0.537   4.841   4.934 -2.0695 -1.2396  1.2807
  116SAPE  H17Y12256   0.406   4.768   4.831 -0.6453  0.0656 -1.6948
  116SAPE  C31812257   0.439   4.989   4.815  0.1587 -0.2451  0.1329
  116SAPE  H18X12258   0.511   5.060   4.772  0.2120 -0.1643  0.3518
  116SAPE  H18Y12259   0.410   5.027   4.916  2.2711 -1.6910  1.3849
  116SAPE  H18Z12260   0.344   4.988   4.758 -0.3001  0.6108  0.8548
  117SOPE     N12261   4.254   1.887   6.879  0.0919 -0.1131  0.7595
  117SOPE   HN112262   4.316   1.824   6.823  1.1358 -1.6159  3.4408
  117SOPE   HN212263   4.319   1.957   6.921 -1.0366  1.3154  0.2318
  117SOPE   HN312264   4.202   1.837   6.953  0.7021  0.6129  1.7086
  117SOPE   C1212265   4.155   1.961   6.786 -0.2196 -0.4721 -0.0935
  117SOPE  H12A12266   4.199   1.982   6.686 -0.7568 -2.1905 -0.7236
  117SOPE  H12B12267   4.121   2.053   6.839 -2.1429 -1.5031  0.5430
  117SOPE   C1112268   4.036   1.858   6.760 -0.6778  0.4274 -0.2821
  117SOPE  H11A12269   4.092   1.772   6.719  0.3381  0.3307  1.2710
  117SOPE  H11B12270   3.957   1.887   6.686 -0.6762  0.3914 -0.2977
  117SOPE     P12271   3.832   1.898   6.927  0.0022 -0.2926  0.6985
  117SOPE   O1312272   3.854   2.043   6.914  0.1442  0.1328  0.1265
  117SOPE   O1412273   3.779   1.846   7.057  0.0356  0.2748  0.4860
  117SOPE   O1212274   3.971   1.831   6.884  0.3832  0.3098 -0.1636
  117SOPE   O1112275   3.730   1.852   6.811  0.3411  0.0031 -0.1352
  117SOPE    C112276   3.712   1.708   6.780 -1.0870  0.4878 -0.9452
  117SOPE    HA12277   3.646   1.648   6.846  0.5231  0.1021  0.3968
  117SOPE    HB12278   3.810   1.656   6.792 -1.8507 -0.9932 -1.0138
  117SOPE    C212279   3.659   1.684   6.637  0.4614 -0.3979  0.1607
  117SOPE    HS12280   3.567   1.747   6.635  2.8782  3.5193  1.5931
  117SOPE   O2112281   3.613   1.547   6.620 -0.0022  0.1005  0.4179
  117SOPE   C2112282   3.698   1.446   6.624 -0.5089 -0.6797  0.8306
  117SOPE   O2212283   3.822   1.457   6.636 -0.0934 -0.3775  0.1167
  117SOPE   C2212284   3.624   1.319   6.602 -0.0165 -0.3414  0.1591
  117SOPE   H2R12285   3.514   1.325   6.616 -0.1031  0.7902 -0.9470
  117SOPE   H2S12286   3.659   1.251   6.683  1.7141 -0.1613 -0.3940
  117SOPE    C312287   3.754   1.729   6.521 -0.4310 -0.7273 -0.7280
  117SOPE    HX12288   3.855   1.685   6.513  0.9663  2.2958 -1.3908
  117SOPE    HY12289   3.772   1.836   6.547 -3.4201 -0.3333  0.1636
  117SOPE   O3112290   3.692   1.708   6.390  0.6030  1.0010 -1.0073
  117SOPE   C3112291   3.599   1.803   6.364 -0.2129  0.0226 -0.4562
  117SOPE   O3212292   3.572   1.893   6.442  0.1518  0.3930  0.0861
  117SOPE   C3212293   3.543   1.787   6.223 -0.3440 -0.2103 -1.1181
  117SOPE   H2X12294   3.473   1.702   6.233 -0.0188 -0.6011 -2.0424
  117SOPE   H2Y12295   3.627   1.753   6.159  1.1610 -1.4457  1.3527
  117SOPE   C2312296   3.658   1.272   6.456 -0.0730  0.0499 -0.1012
  117SOPE   H3R12297   3.633   1.164   6.459 -0.2340  0.1031  0.5614
  117SOPE   H3S12298   3.766   1.271   6.429 -0.8520 -2.0989 -3.9072
  117SOPE   C2412299   3.585   1.342   6.344  0.3236  0.0929 -0.4177
  117SOPE   H4R12300   3.483   1.354   6.386  0.9177 -0.4042  1.2413
  117SOPE   H4S12301   3.627   1.443   6.324 -0.0141  0.0932 -1.1525
  117SOPE   C2512302   3.580   1.263   6.211  0.0430 -0.0726 -0.0363
  117SOPE   H5R12303   3.680   1.226   6.182 -1.0280 -1.3319 -2.3843
  117SOPE   H5S12304   3.530   1.166   6.227  0.3648 -0.1745  0.3585
  117SOPE   C2612305   3.521   1.336   6.088  0.2661 -0.0683 -0.2851
  117SOPE   H6R12306   3.501   1.251   6.018  0.3632  0.0515 -0.4590
  117SOPE   H6S12307   3.426   1.389   6.112  0.1755 -0.7500  0.9439
  117SOPE   C2712308   3.622   1.437   6.032 -0.3142  0.1108  0.7452
  117SOPE   H7R12309   3.651   1.519   6.103 -1.8509  1.0464  0.3371
  117SOPE   H7S12310   3.714   1.378   6.012 -0.0825  0.5225  0.5794
  117SOPE   C2812311   3.561   1.501   5.906  0.4673  0.2629  0.3759
  117SOPE   H8R12312   3.504   1.426   5.846 -0.1337  0.9955  0.0163
  117SOPE   H8S12313   3.492   1.581   5.940  0.1187 -0.0137  0.3210
  117SOPE   C2912314   3.672   1.564   5.817 -0.0797 -0.2404 -0.3735
  117SOPE   H9112315   3.761   1.590   5.876 -0.3901 -0.0946  0.0360
  117SOPE  C21012316   3.680   1.568   5.681 -0.2408  0.1770  0.0798
  117SOPE  H10112317   3.775   1.597   5.634  0.4186 -2.1736 -0.1889
  117SOPE  C21112318   3.562   1.525   5.592 -0.1032 -0.5890  0.0644
  117SOPE  H11R12319   3.470   1.519   5.653 -1.1793  0.2161 -1.4378
  117SOPE  H11S12320   3.581   1.423   5.552 -1.8164 -0.7148 -0.5048
  117SOPE  C21212321   3.540   1.618   5.465  0.1118 -0.0415  0.0176
  117SOPE  H12R12322   3.635   1.630   5.408 -1.5203  1.1897 -2.6000
  117SOPE  H12S12323   3.513   1.721   5.497 -0.2628  0.0703 -0.6452
  117SOPE  C21312324   3.445   1.561   5.367 -0.2434  0.5150  0.2080
  117SOPE  H13R12325   3.341   1.552   5.404 -0.5888 -1.2775 -1.0288
  117SOPE  H13S12326   3.476   1.455   5.349 -1.0941  0.4411 -0.9624
  117SOPE  C21412327   3.429   1.640   5.238 -0.3895 -0.4046  1.1744
  117SOPE  H14R12328   3.529   1.660   5.195 -0.9379  2.1692  0.9727
  117SOPE  H14S12329   3.379   1.738   5.251  1.0353  0.4005  0.7302
  117SOPE  C21512330   3.333   1.571   5.135  0.1794 -0.0892 -0.6425
  117SOPE  H15R12331   3.344   1.639   5.047 -1.0676 -0.0308 -0.7618
  117SOPE  H15S12332   3.227   1.574   5.168  0.2192  1.6315 -0.5731
  117SOPE  C21612333   3.371   1.425   5.102  0.3041  0.7286  0.3450
  117SOPE  H16R12334   3.387   1.360   5.191 -1.3920 -1.9357 -1.2023
  117SOPE  H16S12335   3.466   1.431   5.045 -0.3076 -2.8766 -1.3119
  117SOPE  C21712336   3.263   1.353   5.015  0.1181 -0.4822 -0.3164
  117SOPE  H17R12337   3.174   1.346   5.081 -0.3122  1.1344 -0.6709
  117SOPE  H17S12338   3.303   1.250   5.007  3.9621  0.9098 -1.2987
  117SOPE  C21812339   3.227   1.416   4.884 -0.5144  0.5272  0.0967
  117SOPE  H18R12340   3.323   1.426   4.829  0.1706 -2.8253  0.4467
  117SOPE  H18S12341   3.191   1.520   4.902 -3.2887 -0.4320  0.6700
  117SOPE  H18T12342   3.153   1.358   4.824  1.5253 -0.2568 -1.8174
  117SOPE   C3312343   3.484   1.920   6.162 -0.2861  0.1762 -0.2504
  117SOPE   H3X12344   3.568   1.991   6.177 -0.2004 -0.2098  1.3041
  117SOPE   H3Y12345   3.399   1.949   6.227  1.3613  0.6272  1.8213
  117SOPE   C3412346   3.440   1.904   6.013  0.3647 -0.5277 -0.1415
  117SOPE   H4X12347   3.380   1.814   5.988  3.4622 -2.2841 -1.8531
  117SOPE   H4Y12348   3.533   1.888   5.955 -0.0439  0.7414 -1.1973
  117SOPE   C3512349   3.360   2.023   5.952  0.2753  0.4557 -0.0683
  117SOPE   H5X12350   3.419   2.108   5.991 -2.0747  1.6193  1.2151
  117SOPE   H5Y12351   3.255   2.012   5.986 -0.3457  0.5480 -1.8191
  117SOPE   C3612352   3.369   2.037   5.801  0.0557  0.0336 -0.4087
  117SOPE   H6X12353   3.466   1.994   5.769  0.9674  1.2664  0.6194
  117SOPE   H6Y12354   3.367   2.146   5.780  0.0734 -0.0920 -1.0780
  117SOPE   C3712355   3.245   1.972   5.724  0.1231  0.6697  0.2995
  117SOPE   H7X12356   3.144   2.010   5.749 -0.3690  0.5096 -1.3382
  117SOPE   H7Y12357   3.245   1.863   5.745  0.1219  0.2868 -1.5671
  117SOPE   C3812358   3.248   1.993   5.570  0.0345 -0.3257 -0.4913
  117SOPE   H8X12359   3.146   2.003   5.527  0.1471  1.8413 -0.3791
  117SOPE   H8Y12360   3.303   1.906   5.530  1.4641 -0.7298  2.1319
  117SOPE   C3912361   3.316   2.125   5.526 -0.1474 -0.0438 -0.5329
  117SOPE   H9X12362   3.423   2.123   5.554 -0.3795 -1.9449  0.4190
  117SOPE   H9Y12363   3.266   2.205   5.585 -2.0235  0.0070 -2.0846
  117SOPE  C31012364   3.294   2.164   5.376  0.5164  0.7097  0.2827
  117SOPE  H10X12365   3.184   2.170   5.363  0.1910 -2.9866  0.3332
  117SOPE  H10Y12366   3.320   2.078   5.310  0.1385  1.6987 -1.2109
  117SOPE  C31112367   3.348   2.300   5.325 -0.2698 -0.3406 -0.4638
  117SOPE  H11X12368   3.315   2.376   5.399 -1.0173  1.7368 -2.7699
  117SOPE  H11Y12369   3.297   2.334   5.232 -0.5525  0.0774 -0.1608
  117SOPE  C31212370   3.501   2.311   5.299 -0.3641  1.0329 -0.1106
  117SOPE  H12X12371   3.555   2.313   5.396 -0.5289  2.2287 -0.0358
  117SOPE  H12Y12372   3.510   2.409   5.247  0.1341  0.5090 -1.0624
  117SOPE  C31312373   3.557   2.207   5.198  0.1240  0.5692  0.5667
  117SOPE  H13X12374   3.552   2.114   5.257 -1.6479  0.3056  0.0675
  117SOPE  H13Y12375   3.660   2.243   5.177  0.9379 -0.9810  1.7795
  117SOPE  C31412376   3.463   2.206   5.072  0.0625 -0.1793 -0.8338
  117SOPE  H14X12377   3.458   2.307   5.025 -0.4494 -0.2388 -0.9142
  117SOPE  H14Y12378   3.357   2.190   5.102  0.1926  1.3623  0.5517
  117SOPE  C31512379   3.514   2.102   4.972  0.2444 -0.3268  0.5300
  117SOPE  H15X12380   3.529   2.004   5.022 -0.2344 -0.8050 -0.2445
  117SOPE  H15Y12381   3.609   2.136   4.926  2.0056 -0.1247  3.9524
  117SOPE  C31612382   3.415   2.089   4.855  0.1658 -0.0246  0.3492
  117SOPE  H16X12383   3.477   2.050   4.771 -0.3840 -1.3619  0.5364
  117SOPE  H16Y12384   3.377   2.186   4.817 -1.4840  0.5036  3.0723
  117SOPE  C31712385   3.288   2.006   4.890 -0.1024  0.4190 -0.2476
  117SOPE  H17X12386   3.221   2.050   4.968  0.2987 -0.5689  0.6891
  117SOPE  H17Y12387   3.321   1.908   4.929 -0.2811  0.0958 -0.8992
  117SOPE  C31812388   3.195   1.981   4.770 -0.2824 -0.3870  0.1895
  117SOPE  H18X12389   3.244   1.927   4.686 -2.5709  1.5671 -2.6190
  117SOPE  H18Y12390   3.163   2.077   4.725  0.4263  0.5394  1.6106
  117SOPE  H18Z12391   3.106   1.917   4.791 -0.5905  0.3615  1.2009
  118SOPE     N12392   4.774   2.289   7.276 -0.1573 -0.4971 -0.0238
  118SOPE   HN112393   4.739   2.212   7.216 -2.3778  0.7512 -0.4068
  118SOPE   HN212394   4.807   2.256   7.370  1.0650 -3.0920 -1.2594
  118SOPE   HN312395   4.692   2.351   7.289 -1.6097 -2.2245 -0.4702
  118SOPE   C1212396   4.879   2.357   7.191 -0.8172 -0.4101 -0.3856
  118SOPE  H12A12397   4.921   2.442   7.247 -0.1833 -2.0883  1.8308
  118SOPE  H12B12398   4.828   2.397   7.101  3.2628 -1.1054 -3.2641
  118SOPE   C1112399   4.975   2.258   7.136  0.0391 -0.1330  0.5996
  118SOPE  H11A12400   5.039   2.300   7.056  1.5333 -0.4211  1.6074
  118SOPE  H11B12401   4.926   2.170   7.088 -0.0986  1.0799 -1.6364
  118SOPE     P12402   5.216   2.199   7.247 -0.2323 -0.0985  0.3241
  118SOPE   O1312403   5.252   2.088   7.335 -0.4383  0.5984  1.0327
  118SOPE   O1412404   5.273   2.331   7.282 -0.7592  0.0432 -0.1383
  118SOPE   O1212405   5.056   2.212   7.239  0.3327 -0.2968  0.5663
  118SOPE   O1112406   5.265   2.160   7.101  0.1786  0.2207  0.0468
  118SOPE    C112407   5.201   2.062   7.017 -0.2139  0.2983  0.0186
  118SOPE    HA12408   5.113   2.112   6.971 -0.5057  0.3438  0.6237
  118SOPE    HB12409   5.155   1.980   7.077  1.4557 -0.0973  0.8024
  118SOPE    C212410   5.297   2.006   6.913  0.4018 -0.3305  0.0355
  118SOPE    HS12411   5.377   1.957   6.973  2.0513  3.2486  1.0608
  118SOPE   O2112412   5.354   2.116   6.846  0.6056  0.8098 -0.2552
  118SOPE   C2112413   5.472   2.093   6.791  0.4428  0.5284  0.3254
  118SOPE   O2212414   5.551   2.004   6.819  0.3584 -0.3306 -0.4014
  118SOPE   C2212415   5.513   2.205   6.693 -0.1429 -0.6042  0.2801
  118SOPE   H2R12416   5.546   2.296   6.748 -1.1176  0.1077 -0.2838
  118SOPE   H2S12417   5.421   2.235   6.639 -0.5664 -0.7775  0.8926
  118SOPE    C312418   5.228   1.905   6.811 -0.5204 -0.6159 -0.4461
  118SOPE    HX12419   5.131   1.955   6.790  0.6191  0.8461 -2.6911
  118SOPE    HY12420   5.214   1.809   6.865 -2.2148 -0.5744 -0.7594
  118SOPE   O3112421   5.310   1.886   6.692  0.3370  0.0926  0.6528
  118SOPE   C3112422   5.262   1.795   6.611  0.8380  0.5442  0.5258
  118SOPE   O3212423   5.151   1.743   6.620  0.3702 -0.1242  0.0435
  118SOPE   C3212424   5.356   1.779   6.496  0.3602 -0.1443 -0.4607
  118SOPE   H2X12425   5.447   1.733   6.541  1.3722  1.4369 -0.8292
  118SOPE   H2Y12426   5.390   1.876   6.456 -1.2879 -0.1247 -1.9636
  118SOPE   C2312427   5.614   2.156   6.588 -0.3520 -0.2441  0.9610
  118SOPE   H3R12428   5.586   2.059   6.542 -1.5370  1.2356 -1.6069
  118SOPE   H3S12429   5.713   2.127   6.632 -0.6992 -3.1389  0.0612
  118SOPE   C2412430   5.638   2.257   6.477 -0.2314 -0.2447  0.2498
  118SOPE   H4R12431   5.541   2.300   6.443 -0.5312 -0.4492  0.8268
  118SOPE   H4S12432   5.696   2.338   6.525  4.2314 -1.7054 -2.0632
  118SOPE   C2512433   5.714   2.196   6.359 -0.1096  0.3520  0.0665
  118SOPE   H5R12434   5.798   2.143   6.409  0.5383 -0.1497 -1.5093
  118SOPE   H5S12435   5.643   2.126   6.312  1.3363 -0.9652 -0.2256
  118SOPE   C2612436   5.782   2.283   6.254  0.0382 -0.3039  0.4734
  118SOPE   H6R12437   5.707   2.364   6.242 -1.8909 -1.6625  2.5618
  118SOPE   H6S12438   5.875   2.334   6.288 -0.1519  0.3106  0.0803
  118SOPE   C2712439   5.811   2.206   6.123  0.3218  0.1144 -0.0559
  118SOPE   H7R12440   5.920   2.183   6.117  0.4844  0.4345  1.3969
  118SOPE   H7S12441   5.750   2.114   6.136 -1.3825  1.3986  1.5830
  118SOPE   C2812442   5.771   2.279   5.997 -0.6935 -1.2824  0.1356
  118SOPE   H8R12443   5.783   2.199   5.920 -0.4064 -2.6257  1.5312
  118SOPE   H8S12444   5.664   2.308   6.003  0.1723  2.3528  0.3673
  118SOPE   C2912445   5.861   2.401   5.964 -0.6046 -0.6958  0.0594
  118SOPE   H9112446   5.837   2.498   6.011 -1.1702  0.8993 -3.2319
  118SOPE  C21012447   5.965   2.394   5.877  0.1471 -0.2804  0.0168
  118SOPE  H10112448   6.027   2.481   5.850 -1.0612 -0.0972 -2.4537
  118SOPE  C21112449   6.001   2.265   5.804 -0.1190 -0.7243  0.2367
  118SOPE  H11R12450   5.973   2.177   5.866 -0.9503 -0.2004  0.6182
  118SOPE  H11S12451   6.111   2.258   5.790 -0.0829 -2.2946  1.0476
  118SOPE  C21212452   5.936   2.245   5.668 -0.2647  0.2251 -0.3373
  118SOPE  H12R12453   5.825   2.237   5.673 -0.1105 -1.3216  1.8092
  118SOPE  H12S12454   5.978   2.146   5.644  0.0660  0.3217 -0.1542
  118SOPE  C21312455   5.983   2.340   5.558  0.8249  0.0077  0.5637
  118SOPE  H13R12456   6.092   2.363   5.557  0.5506  1.5306 -1.6354
  118SOPE  H13S12457   5.929   2.434   5.581 -0.2699 -0.7481  1.1915
  118SOPE  C21412458   5.935   2.296   5.418 -0.4460  0.0967  0.0421
  118SOPE  H14R12459   5.825   2.288   5.431 -0.5219 -0.3627 -0.7737
  118SOPE  H14S12460   5.984   2.199   5.394  1.4947  0.7747  1.0791
  118SOPE  C21512461   5.942   2.401   5.304  0.7795 -0.7449  0.0276
  118SOPE  H15R12462   6.049   2.407   5.274  0.4933 -3.2213 -1.8009
  118SOPE  H15S12463   5.898   2.492   5.351  1.4163 -0.1343 -0.5311
  118SOPE  C21612464   5.856   2.370   5.183 -0.1736  0.2433  1.1464
  118SOPE  H16R12465   5.751   2.344   5.205 -0.0986  0.5011  1.8429
  118SOPE  H16S12466   5.893   2.277   5.135 -1.2198  1.2538 -1.8286
  118SOPE  C21712467   5.863   2.485   5.084  0.3513 -0.3213  0.4313
  118SOPE  H17R12468   5.920   2.572   5.124  1.2000 -0.6322 -0.0591
  118SOPE  H17S12469   5.763   2.519   5.049  1.5199  1.0917 -1.8400
  118SOPE  C21812470   5.932   2.451   4.948  1.1830 -0.2015  0.0604
  118SOPE  H18R12471   5.928   2.533   4.874  0.5170  1.6122  2.0071
  118SOPE  H18S12472   5.897   2.352   4.911 -0.6851 -0.4329  2.2583
  118SOPE  H18T12473   6.042   2.436   4.962  1.1185 -2.1404 -1.0973
  118SOPE   C3312474   5.297   1.695   6.377  0.0188 -0.0374 -0.0187
  118SOPE   H3X12475   5.246   1.602   6.412 -0.2034 -0.2917 -0.9965
  118SOPE   H3Y12476   5.382   1.665   6.312 -0.0688  0.5416 -0.3955
  118SOPE   C3412477   5.198   1.784   6.297 -0.0595  0.8934  1.2206
  118SOPE   H4X12478   5.244   1.871   6.247  1.3403  0.4747  1.7241
  118SOPE   H4Y12479   5.110   1.810   6.359 -1.2922 -1.1946  0.4595
  118SOPE   C3512480   5.133   1.713   6.182  0.0611  0.1425  0.2374
  118SOPE   H5X12481   5.045   1.773   6.150 -0.1809  0.8399  2.0858
  118SOPE   H5Y12482   5.104   1.614   6.224  0.4173  0.0551  0.2852
  118SOPE   C3612483   5.233   1.688   6.071  0.7031 -0.4247 -0.2330
  118SOPE   H6X12484   5.330   1.650   6.109  1.2933 -0.1239 -1.3936
  118SOPE   H6Y12485   5.242   1.787   6.022 -0.9407  0.0822  0.4148
  118SOPE   C3712486   5.164   1.597   5.965 -0.2422  0.4045 -0.0802
  118SOPE   H7X12487   5.057   1.583   5.992 -1.0134 -2.3777 -3.7414
  118SOPE   H7Y12488   5.210   1.496   5.966 -1.4284 -0.1764 -1.6083
  118SOPE   C3812489   5.164   1.650   5.822 -0.1103  0.5313  0.6840
  118SOPE   H8X12490   5.103   1.577   5.765  0.4422  2.5497 -2.7934
  118SOPE   H8Y12491   5.269   1.638   5.788  0.0170 -1.8770  1.7780
  118SOPE   C3912492   5.101   1.791   5.798 -0.1111 -0.5140 -0.0669
  118SOPE   H9X12493   5.175   1.861   5.843  0.3591  1.6797 -3.8733
  118SOPE   H9Y12494   5.002   1.808   5.847 -0.6448 -0.4277 -1.1462
  118SOPE  C31012495   5.085   1.816   5.649 -0.1209 -0.3908  0.5387
  118SOPE  H10X12496   5.025   1.909   5.650  1.4017  0.6314  0.3705
  118SOPE  H10Y12497   5.012   1.739   5.615 -1.0850 -0.0331  1.7333
  118SOPE  C31112498   5.209   1.842   5.567  0.0789  0.1276 -0.0393
  118SOPE  H11X12499   5.267   1.747   5.568 -1.7753 -1.0603  0.3389
  118SOPE  H11Y12500   5.267   1.928   5.606 -3.7542  2.3080  1.4103
  118SOPE  C31212501   5.172   1.896   5.428 -0.3169 -0.2214  0.0467
  118SOPE  H12X12502   5.125   1.997   5.437 -0.2829 -0.2376  0.4190
  118SOPE  H12Y12503   5.093   1.827   5.393 -0.2817 -0.7006  0.8913
  118SOPE  C31312504   5.293   1.909   5.327  0.7220 -0.5758 -0.2973
  118SOPE  H13X12505   5.323   1.803   5.311  0.3976 -0.4286 -2.1860
  118SOPE  H13Y12506   5.387   1.955   5.365  0.5773 -2.2174  2.2258
  118SOPE  C31412507   5.242   1.972   5.203 -0.1396  0.4001 -0.4485
  118SOPE  H14X12508   5.328   2.026   5.158  0.1071  0.1099 -0.3275
  118SOPE  H14Y12509   5.166   2.049   5.228 -0.1480  1.0000 -2.1859
  118SOPE  C31512510   5.175   1.882   5.097 -0.7742  0.6812 -0.4840
  118SOPE  H15X12511   5.082   1.830   5.130  0.4812 -1.1150  0.4028
  118SOPE  H15Y12512   5.244   1.801   5.066  0.9501  1.5404  0.9283
  118SOPE  C31612513   5.152   1.960   4.969  0.5043 -0.1999  0.0808
  118SOPE  H16X12514   5.248   1.999   4.931 -0.4136 -0.4398 -2.6898
  118SOPE  H16Y12515   5.078   2.040   4.991  0.7358  0.0066  0.1098
  118SOPE  C31712516   5.104   1.859   4.863 -0.3062 -0.2409 -0.0696
  118SOPE  H17X12517   5.013   1.805   4.898  0.1481 -0.1927  1.2570
  118SOPE  H17Y12518   5.186   1.785   4.849  2.0749  2.2609 -0.2548
  118SOPE  C31812519   5.081   1.940   4.738 -0.1286  0.3435 -0.7829
  118SOPE  H18X12520   5.028   1.882   4.659  0.1198 -0.4333 -0.3952
  118SOPE  H18Y12521   5.184   1.957   4.701  0.7289  0.4832  1.4937
  118SOPE  H18Z12522   5.034   2.036   4.765 -1.5319 -0.5164 -0.0366
  119SOPE     N12523   3.646   1.958   7.244 -0.5245 -0.6111  0.0766
  119SOPE   HN112524   3.556   2.004   7.221 -0.4378 -0.4655  0.0256
  119SOPE   HN212525   3.709   2.040   7.258 -1.8457  0.0948  2.3963
  119SOPE   HN312526   3.692   1.903   7.169 -4.0582 -2.1980 -1.1400
  119SOPE   C1212527   3.641   1.892   7.378  0.1975  0.1622  0.8924
  119SOPE  H12A12528   3.605   1.970   7.449 -0.6189  0.0603  0.5960
  119SOPE  H12B12529   3.745   1.878   7.416  0.0278 -0.1467  1.2399
  119SOPE   C1112530   3.542   1.774   7.385 -0.3043  0.1683  0.7110
  119SOPE  H11A12531   3.448   1.804   7.334 -0.9735 -0.9125  1.2621
  119SOPE  H11B12532   3.519   1.747   7.490  0.7153 -0.8255  0.7035
  119SOPE     P12533   3.511   1.529   7.302  0.2388  0.6431 -0.7291
  119SOPE   O1312534   3.410   1.522   7.414 -0.0015  0.3117 -0.3154
  119SOPE   O1412535   3.591   1.409   7.285 -0.1133  0.7978 -0.8117
  119SOPE   O1212536   3.592   1.656   7.323  0.1502 -0.8026 -0.2881
  119SOPE   O1112537   3.431   1.553   7.172  0.4952  0.0917 -0.3091
  119SOPE    C112538   3.460   1.642   7.061 -0.5724 -0.0863 -0.1332
  119SOPE    HA12539   3.506   1.581   6.981  0.1674 -0.3726  0.4886
  119SOPE    HB12540   3.539   1.715   7.089  0.0514 -0.9268  0.3434
  119SOPE    C212541   3.330   1.707   7.012 -0.2562 -0.0369  0.3719
  119SOPE    HS12542   3.283   1.778   7.083 -1.0929 -2.0256  1.9038
  119SOPE   O2112543   3.234   1.609   6.969 -0.5360 -0.0346  0.2441
  119SOPE   C2112544   3.110   1.631   6.988  0.0460 -0.7750  0.1139
  119SOPE   O2212545   3.058   1.737   7.032 -0.1399 -0.0676 -0.0817
  119SOPE   C2212546   3.034   1.511   6.934  0.1523  0.5873 -0.5969
  119SOPE   H2R12547   2.976   1.476   7.022  0.2811 -0.8465 -1.0573
  119SOPE   H2S12548   3.104   1.429   6.907  1.5486  1.1070  1.2294
  119SOPE    C312549   3.354   1.783   6.883  0.0217 -1.0780 -0.0359
  119SOPE    HX12550   3.393   1.712   6.807  0.7663 -0.6461 -0.0657
  119SOPE    HY12551   3.437   1.853   6.903 -2.6924  2.0630  1.1192
  119SOPE   O3112552   3.243   1.849   6.830 -0.0594 -0.2707 -0.1714
  119SOPE   C3112553   3.256   1.974   6.786 -0.0428  0.4669  0.0847
  119SOPE   O3212554   3.362   2.043   6.792  0.8130  0.1629 -0.5652
  119SOPE   C3212555   3.126   2.024   6.740  0.3857 -0.7973  0.1642
  119SOPE   H2X12556   3.061   2.028   6.829 -0.3554  0.9758 -0.4021
  119SOPE   H2Y12557   3.077   1.958   6.665 -0.1128  0.4442 -0.6398
  119SOPE   C2312558   2.938   1.544   6.819 -0.2881  0.1632  0.1508
  119SOPE   H3R12559   2.862   1.606   6.871  0.4778  2.2463 -1.0959
  119SOPE   H3S12560   2.888   1.455   6.775 -0.8730  0.0681  0.9886
  119SOPE   C2412561   2.998   1.626   6.706  0.2556 -0.2574  1.1517
  119SOPE   H4R12562   2.923   1.615   6.625  0.0035 -3.4796  1.7011
  119SOPE   H4S12563   3.019   1.728   6.745  1.4016  0.0498 -0.1781
  119SOPE   C2512564   3.132   1.570   6.660 -0.3287  0.3161  0.0279
  119SOPE   H5R12565   3.210   1.570   6.738  0.4197 -0.9461 -0.6842
  119SOPE   H5S12566   3.125   1.467   6.619  0.3584  0.7548 -1.2644
  119SOPE   C2612567   3.195   1.660   6.547  0.2103  0.3836  0.7183
  119SOPE   H6R12568   3.235   1.755   6.589  2.0419 -0.2148  0.4330
  119SOPE   H6S12569   3.284   1.605   6.509  2.0961  3.5753  0.0882
  119SOPE   C2712570   3.098   1.682   6.432  0.2160  0.2753 -0.1314
  119SOPE   H7R12571   3.036   1.595   6.401 -0.0337 -0.0489  1.1811
  119SOPE   H7S12572   3.012   1.750   6.450  0.1730  0.7385 -1.9594
  119SOPE   C2812573   3.181   1.744   6.318  0.6584 -0.6635  0.2441
  119SOPE   H8R12574   3.221   1.844   6.348  0.1362 -0.3687 -0.0269
  119SOPE   H8S12575   3.266   1.677   6.292  1.3788  0.3561 -0.0991
  119SOPE   C2912576   3.086   1.779   6.200 -0.0934  0.5088 -1.0560
  119SOPE   H9112577   3.016   1.863   6.217 -0.9831 -0.0369 -1.9288
  119SOPE  C21012578   3.083   1.713   6.087  0.7525  0.1200  0.1296
  119SOPE  H10112579   2.995   1.729   6.023 -1.2662 -2.3514  2.0881
  119SOPE  C21112580   3.167   1.598   6.046 -0.5596 -0.2976 -0.2974
  119SOPE  H11R12581   3.165   1.518   6.123  2.5393 -1.1516 -0.9638
  119SOPE  H11S12582   3.270   1.634   6.023  0.6084 -3.2120 -0.0858
  119SOPE  C21212583   3.104   1.524   5.920  0.1380  0.5929  0.1834
  119SOPE  H12R12584   3.013   1.472   5.957 -0.7025 -0.9183 -3.5667
  119SOPE  H12S12585   3.178   1.451   5.882  0.2289  1.0557 -0.5610
  119SOPE  C21312586   3.066   1.614   5.803 -0.1384 -0.5534 -0.1459
  119SOPE  H13R12587   3.149   1.685   5.782 -0.0392 -0.2257  1.2435
  119SOPE  H13S12588   2.980   1.676   5.838  1.5875  1.3786  0.8832
  119SOPE  C21412589   3.048   1.535   5.668 -0.1204  0.4926  0.3663
  119SOPE  H14R12590   3.125   1.455   5.658 -0.5775  0.1477 -0.5977
  119SOPE  H14S12591   3.079   1.601   5.583 -1.2132 -1.1515 -1.4029
  119SOPE  C21512592   2.910   1.477   5.650 -0.2321  0.3920 -0.0464
  119SOPE  H15R12593   2.837   1.557   5.673 -1.6824 -0.6546 -0.8433
  119SOPE  H15S12594   2.908   1.408   5.738  1.3468  2.0999  1.4182
  119SOPE  C21612595   2.895   1.396   5.521  0.4568 -0.8605  0.0106
  119SOPE  H16R12596   2.996   1.362   5.492  0.7743 -1.0201  1.2598
  119SOPE  H16S12597   2.858   1.450   5.431  1.0540  0.7327  0.6713
  119SOPE  C21712598   2.805   1.279   5.545 -0.9583 -0.2972  0.0188
  119SOPE  H17R12599   2.703   1.309   5.577 -1.3554 -0.6615 -0.8876
  119SOPE  H17S12600   2.846   1.216   5.627 -1.5978  1.6941  1.9799
  119SOPE  C21812601   2.795   1.201   5.418  0.4066  0.1130  0.1468
  119SOPE  H18R12602   2.774   1.264   5.329  2.2482  1.9275  0.9121
  119SOPE  H18S12603   2.711   1.128   5.428  0.4962  0.1930  1.8712
  119SOPE  H18T12604   2.875   1.127   5.397  0.8746  0.2125  1.4742
  119SOPE   C3312605   3.139   2.152   6.655  0.4037  0.0760  0.0911
  119SOPE   H3X12606   3.220   2.223   6.682 -1.0305  3.2701 -3.1008
  119SOPE   H3Y12607   3.044   2.208   6.659  1.0328  1.2594 -0.7082
  119SOPE   C3412608   3.177   2.113   6.505  0.3761 -0.1405 -0.2276
  119SOPE   H4X12609   3.121   2.025   6.468 -0.7574  0.2577  0.4791
  119SOPE   H4Y12610   3.283   2.079   6.510  0.8976  0.7504 -3.3949
  119SOPE   C3512611   3.148   2.232   6.410  0.2921  0.1351 -0.1119
  119SOPE   H5X12612   3.212   2.320   6.434 -1.6115  1.9525 -1.3942
  119SOPE   H5Y12613   3.045   2.269   6.430 -0.6285 -1.4254 -1.7438
  119SOPE   C3612614   3.171   2.203   6.260  0.7728 -0.0568 -0.0766
  119SOPE   H6X12615   3.129   2.100   6.250 -2.6262  1.2463 -0.7108
  119SOPE   H6Y12616   3.281   2.197   6.248  0.5807 -0.2905 -1.9801
  119SOPE   C3712617   3.107   2.318   6.180  0.5338  0.1302  0.1291
  119SOPE   H7X12618   3.148   2.417   6.207 -1.1511  0.1677  2.9038
  119SOPE   H7Y12619   2.999   2.320   6.205  0.3766  0.6884 -0.5724
  119SOPE   C3812620   3.126   2.281   6.032  0.6582 -0.7465  0.6823
  119SOPE   H8X12621   3.089   2.177   6.017 -4.0197  0.6988  0.4388
  119SOPE   H8Y12622   3.234   2.292   6.008  0.3775  1.8318  0.3637
  119SOPE   C3912623   3.050   2.368   5.930 -0.3977 -0.5997 -0.5656
  119SOPE   H9X12624   3.079   2.475   5.932 -2.2106 -0.0057 -2.5130
  119SOPE   H9Y12625   2.944   2.377   5.963  0.2295 -0.2760  1.5049
  119SOPE  C31012626   3.067   2.317   5.789  0.0335 -0.2463  0.3193
  119SOPE  H10X12627   3.060   2.207   5.788  0.6703 -0.2927  0.5220
  119SOPE  H10Y12628   3.166   2.342   5.745 -0.8404  0.9759 -1.0642
  119SOPE  C31112629   2.960   2.378   5.702 -0.3805 -0.6528  0.5564
  119SOPE  H11X12630   2.965   2.487   5.719 -0.5406 -0.6305  0.4681
  119SOPE  H11Y12631   2.858   2.342   5.729 -0.6296 -2.0546 -1.9609
  119SOPE  C31212632   2.994   2.341   5.558 -0.3649  0.3364  0.6084
  119SOPE  H12X12633   3.020   2.234   5.546  0.3104  0.3689  1.7038
  119SOPE  H12Y12634   3.087   2.388   5.520  1.3720 -2.4986  1.0807
  119SOPE  C31312635   2.885   2.390   5.465 -0.1427 -0.0162 -0.8057
  119SOPE  H13X12636   2.852   2.492   5.493  0.0084 -0.3513  0.7109
  119SOPE  H13Y12637   2.808   2.314   5.487  0.7376  0.1003  3.4929
  119SOPE  C31412638   2.906   2.386   5.314  0.4504  0.3227 -0.1985
  119SOPE  H14X12639   2.990   2.449   5.278  0.7838 -0.4854 -0.8616
  119SOPE  H14Y12640   2.815   2.404   5.253  0.4004 -0.5948 -0.4062
  119SOPE  C31512641   2.930   2.242   5.269  0.5125  0.3421 -0.6721
  119SOPE  H15X12642   2.831   2.194   5.254  1.1337 -1.6695  1.1147
  119SOPE  H15Y12643   2.974   2.184   5.353  1.2448  0.2372 -1.1138
  119SOPE  C31612644   3.013   2.230   5.140  0.2529 -0.2998 -0.5287
  119SOPE  H16X12645   3.035   2.125   5.109 -0.5866  0.1802 -2.9988
  119SOPE  H16Y12646   3.116   2.272   5.143  0.4128 -0.5428 -2.0366
  119SOPE  C31712647   2.934   2.292   5.026  0.8299  0.2764  0.8807
  119SOPE  H17X12648   2.930   2.401   5.045 -0.0395  0.6279 -1.0526
  119SOPE  H17Y12649   2.833   2.247   5.040  0.5334  1.3497  2.5116
  119SOPE  C31812650   2.992   2.266   4.885  0.1702 -0.6686  0.2072
  119SOPE  H18X12651   2.990   2.155   4.880 -1.2799 -0.8722  3.1718
  119SOPE  H18Y12652   3.095   2.305   4.875 -0.0890  0.5318  1.8927
  119SOPE  H18Z12653   2.940   2.298   4.792  2.0336  1.2473 -0.2660
  120SOPE     N12654   5.003   6.431   7.182 -0.1086  0.3696 -0.3077
  120SOPE   HN112655   4.965   6.350   7.234  0.3514  1.1704  1.3403
  120SOPE   HN212656   4.941   6.514   7.192 -0.7812 -0.1107 -0.3836
  120SOPE   HN312657   5.016   6.418   7.080  1.2884  1.1112 -0.2378
  120SOPE   C1212658   5.134   6.455   7.238  0.4260 -0.1117 -0.0683
  120SOPE  H12A12659   5.202   6.372   7.209  1.9383  1.5370 -1.5123
  120SOPE  H12B12660   5.121   6.469   7.348 -1.3940  1.7183 -0.4610
  120SOPE   C1112661   5.198   6.582   7.179 -0.0619 -0.2221  0.4778
  120SOPE  H11A12662   5.140   6.658   7.236  0.0074  0.2684 -0.0918
  120SOPE  H11B12663   5.187   6.590   7.069  2.9563  2.8094  0.2246
  120SOPE     P12664   5.460   6.648   7.156 -0.2230 -0.1221  0.2890
  120SOPE   O1312665   5.570   6.567   7.201 -0.3089  0.3604  0.1631
  120SOPE   O1412666   5.465   6.797   7.180 -0.0745 -0.2657 -0.0410
  120SOPE   O1212667   5.328   6.597   7.226 -0.2804 -0.7582 -0.0119
  120SOPE   O1112668   5.441   6.640   7.002  0.0315  0.3259 -0.4344
  120SOPE    C112669   5.461   6.525   6.929 -0.8579  0.1363 -0.4788
  120SOPE    HA12670   5.385   6.450   6.960  0.4816 -0.1895  2.2579
  120SOPE    HB12671   5.562   6.483   6.946 -0.8521  0.1027 -0.5914
  120SOPE    C212672   5.428   6.542   6.779 -0.9841  0.0563  0.0121
  120SOPE    HS12673   5.427   6.446   6.724  1.8217 -0.3428  0.5141
  120SOPE   O2112674   5.521   6.636   6.713 -0.1551  0.1172  0.0940
  120SOPE   C2112675   5.640   6.584   6.700 -0.2124 -0.0878  0.0140
  120SOPE   O2212676   5.668   6.467   6.716  0.4824 -0.3949  0.6130
  120SOPE   C2212677   5.739   6.700   6.673  0.4622 -0.3480  0.3306
  120SOPE   H2R12678   5.784   6.721   6.772 -0.4821  1.6264  0.4031
  120SOPE   H2S12679   5.683   6.793   6.649  2.5230  0.9208  0.2694
  120SOPE    C312680   5.290   6.612   6.774 -0.2408  0.0728  0.2788
  120SOPE    HX12681   5.285   6.715   6.816  0.4275  0.4195 -0.4524
  120SOPE    HY12682   5.220   6.551   6.833 -0.2278  0.5453  0.7928
  120SOPE   O3112683   5.240   6.613   6.641 -0.0057  0.3437  0.1794
  120SOPE   C3112684   5.266   6.722   6.571 -0.4699  0.3849  0.4376
  120SOPE   O3212685   5.303   6.830   6.609  0.5849 -0.5202  0.1719
  120SOPE   C3212686   5.242   6.693   6.425  0.3907 -0.0025  0.1833
  120SOPE   H2X12687   5.134   6.681   6.406  0.2397  3.1784 -1.6216
  120SOPE   H2Y12688   5.280   6.592   6.398  0.7280 -0.0342  0.7421
  120SOPE   C2312689   5.844   6.663   6.563  0.3768 -0.0200 -0.1842
  120SOPE   H3R12690   5.903   6.572   6.588 -1.2158 -1.1221 -0.2952
  120SOPE   H3S12691   5.919   6.743   6.579 -1.2640  1.7690 -0.9562
  120SOPE   C2412692   5.791   6.665   6.423  0.4418  0.0302  0.6540
  120SOPE   H4R12693   5.697   6.608   6.435 -0.0350  0.6183 -0.1993
  120SOPE   H4S12694   5.758   6.760   6.376  2.6368  0.6984  0.3278
  120SOPE   C2512695   5.879   6.587   6.321  0.7299 -0.7220 -0.0771
  120SOPE   H5R12696   5.973   6.647   6.330  0.8974 -0.8911 -0.6568
  120SOPE   H5S12697   5.902   6.493   6.376  1.2381 -0.1733  0.6731
  120SOPE   C2612698   5.824   6.569   6.185  0.8477 -0.1323 -0.1707
  120SOPE   H6R12699   5.721   6.528   6.178 -0.8562  3.3295  1.8516
  120SOPE   H6S12700   5.811   6.667   6.135 -0.6061 -0.4831 -0.5154
  120SOPE   C2712701   5.911   6.499   6.081 -0.4417  0.9200 -0.7883
  120SOPE   H7R12702   5.995   6.568   6.063  0.5392  0.2748  1.1311
  120SOPE   H7S12703   5.950   6.405   6.126 -1.8636 -0.0071 -1.3987
  120SOPE   C2812704   5.843   6.470   5.946  0.7441 -0.3173  0.5749
  120SOPE   H8R12705   5.808   6.566   5.903  0.7752 -1.2534 -1.7124
  120SOPE   H8S12706   5.923   6.441   5.874 -0.3119  0.4672 -0.9938
  120SOPE   C2912707   5.732   6.370   5.950  0.5223  0.4494 -0.2499
  120SOPE   H9112708   5.685   6.362   6.049  1.4318  1.7156  0.3202
  120SOPE  C21012709   5.692   6.284   5.851 -0.0364 -0.0802  0.5592
  120SOPE  H10112710   5.612   6.211   5.871  0.4964 -0.4963  1.2152
  120SOPE  C21112711   5.741   6.290   5.710 -0.7130 -0.4584 -0.3930
  120SOPE  H11R12712   5.754   6.187   5.669 -1.0544  0.7693 -3.9098
  120SOPE  H11S12713   5.835   6.349   5.703 -0.8822  0.1914  1.9488
  120SOPE  C21212714   5.630   6.362   5.629 -0.1413 -0.6468  0.2703
  120SOPE  H12R12715   5.579   6.439   5.690 -1.9065 -2.4966  1.2535
  120SOPE  H12S12716   5.545   6.292   5.615 -0.7875 -0.0381  1.1051
  120SOPE  C21312717   5.671   6.418   5.493  0.6867  0.1762 -0.1007
  120SOPE  H13R12718   5.735   6.355   5.428  1.3284 -0.7995  1.4178
  120SOPE  H13S12719   5.741   6.501   5.515  4.2799 -2.5518 -0.4413
  120SOPE  C21412720   5.543   6.470   5.414  0.1505 -0.2887 -0.5300
  120SOPE  H14R12721   5.575   6.531   5.326  0.8434  1.9843  1.1979
  120SOPE  H14S12722   5.499   6.540   5.488  2.3775  0.7492 -0.0786
  120SOPE  C21512723   5.442   6.364   5.373 -0.0923 -0.8211  0.5435
  120SOPE  H15R12724   5.417   6.297   5.458 -2.1039 -0.8511 -0.0202
  120SOPE  H15S12725   5.496   6.313   5.291 -1.8341  0.0265 -1.2246
  120SOPE  C21612726   5.310   6.425   5.322  0.0359 -0.1103 -0.3245
  120SOPE  H16R12727   5.268   6.484   5.406  2.3202  1.8996 -0.4702
  120SOPE  H16S12728   5.244   6.339   5.299  1.9179 -2.3183  1.9005
  120SOPE  C21712729   5.333   6.512   5.194  0.1187  0.0541 -0.4831
  120SOPE  H17R12730   5.429   6.484   5.145  0.5664  2.9681 -1.5105
  120SOPE  H17S12731   5.343   6.618   5.225 -2.1045  0.3495 -0.5930
  120SOPE  C21812732   5.229   6.517   5.093  0.5117 -0.3800 -0.4018
  120SOPE  H18R12733   5.150   6.588   5.124  0.2140 -0.7942 -0.2055
  120SOPE  H18S12734   5.175   6.423   5.069 -1.5850  0.3964  0.9406
  120SOPE  H18T12735   5.267   6.555   4.995  1.2833 -2.7848 -1.1083
  120SOPE   C3312736   5.290   6.806   6.337  0.4831  0.0452  0.7059
  120SOPE   H3X12737   5.400   6.804   6.343  0.6489 -0.1661 -1.6692
  120SOPE   H3Y12738   5.245   6.907   6.351 -0.7711 -0.4207  0.1876
  120SOPE   C3412739   5.252   6.770   6.186  0.0174 -1.0753  1.0818
  120SOPE   H4X12740   5.141   6.760   6.181 -0.0995  0.1233  0.9698
  120SOPE   H4Y12741   5.298   6.673   6.157  1.0983 -0.3654  0.3611
  120SOPE   C3512742   5.292   6.884   6.093  0.6715 -0.1616  0.0395
  120SOPE   H5X12743   5.251   6.983   6.121  2.2198  0.1031  1.5407
  120SOPE   H5Y12744   5.259   6.865   5.989  3.0395 -0.4045 -0.7107
  120SOPE   C3612745   5.445   6.903   6.071 -0.1929 -0.3356  0.3657
  120SOPE   H6X12746   5.497   6.920   6.168  0.3876 -1.3718  0.2532
  120SOPE   H6Y12747   5.458   6.986   5.999 -0.9282 -0.5989 -0.0827
  120SOPE   C3712748   5.515   6.783   6.007 -0.0875 -0.1218 -0.1550
  120SOPE   H7X12749   5.504   6.695   6.074  0.5688  1.2328  1.8306
  120SOPE   H7Y12750   5.625   6.797   5.999 -0.3409  1.9357 -0.6166
  120SOPE   C3812751   5.453   6.742   5.869 -0.1028 -0.4646  0.2059
  120SOPE   H8X12752   5.352   6.700   5.888  1.0046 -1.4454  5.7413
  120SOPE   H8Y12753   5.511   6.665   5.814 -1.1025  0.3338 -2.0758
  120SOPE   C3912754   5.444   6.851   5.764  0.4959  0.5965 -0.1529
  120SOPE   H9X12755   5.539   6.903   5.741  0.6257 -0.6383 -2.8230
  120SOPE   H9Y12756   5.373   6.932   5.792  0.0277 -0.5183  2.0844
  120SOPE  C31012757   5.402   6.797   5.629 -0.5498  0.0940  0.3263
  120SOPE  H10X12758   5.310   6.735   5.634 -0.2266 -0.4581 -0.3231
  120SOPE  H10Y12759   5.480   6.731   5.584 -0.3279  0.3237  0.3728
  120SOPE  C31112760   5.388   6.918   5.540  0.5839  0.4155 -0.2054
  120SOPE  H11X12761   5.472   6.983   5.572  1.0025 -1.4784  2.9399
  120SOPE  H11Y12762   5.293   6.966   5.571  0.1532 -0.1525 -0.6129
  120SOPE  C31212763   5.395   6.893   5.389 -0.1498  0.1919 -0.4534
  120SOPE  H12X12764   5.316   6.940   5.326 -1.4104 -0.1601  0.8148
  120SOPE  H12Y12765   5.380   6.783   5.380 -1.8011  0.3500 -0.0520
  120SOPE  C31312766   5.537   6.922   5.331 -0.0224 -0.0770  1.1320
  120SOPE  H13X12767   5.604   6.886   5.412 -0.8606 -0.1664  1.7969
  120SOPE  H13Y12768   5.535   7.031   5.310 -1.2336 -0.1183  0.9575
  120SOPE  C31412769   5.562   6.859   5.195  0.7810  0.1623  0.0662
  120SOPE  H14X12770   5.476   6.876   5.127 -0.4788 -0.9480  1.3334
  120SOPE  H14Y12771   5.561   6.749   5.208 -1.6563  0.1407  0.1429
  120SOPE  C31512772   5.687   6.912   5.122 -0.2811  0.8573 -0.2110
  120SOPE  H15X12773   5.767   6.860   5.180  0.9258  2.1092 -0.6821
  120SOPE  H15Y12774   5.703   7.021   5.132  0.1770  0.8421 -0.7248
  120SOPE  C31612775   5.689   6.862   4.975  0.8515  0.6615  0.0815
  120SOPE  H16X12776   5.604   6.894   4.911  1.5133 -2.8471 -2.9098
  120SOPE  H16Y12777   5.680   6.751   4.965  0.8124  0.6223  0.4974
  120SOPE  C31712778   5.820   6.906   4.899 -0.4011  0.0096  0.3168
  120SOPE  H17X12779   5.905   6.839   4.926  0.2087  0.3320 -0.7347
  120SOPE  H17Y12780   5.849   7.005   4.940 -1.4113  0.0392  1.0078
  120SOPE  C31812781   5.803   6.915   4.744  0.2241 -0.0796 -0.0267
  120SOPE  H18X12782   5.762   6.816   4.713  1.5034  0.0006 -2.1674
  120SOPE  H18Y12783   5.901   6.930   4.694  0.5306  0.4199  0.7109
  120SOPE  H18Z12784   5.736   6.999   4.715 -0.4400 -0.7372 -0.4492
  121SOPE     N12785   1.154   2.295   8.038  0.1486  0.2452  0.2563
  121SOPE   HN112786   1.208   2.232   8.102  0.0107  0.2679  0.3946
  121SOPE   HN212787   1.074   2.340   8.085 -1.0636 -0.6973 -0.8376
  121SOPE   HN312788   1.115   2.232   7.965 -0.1211  0.9835 -0.2488
  121SOPE   C1212789   1.237   2.401   7.969 -0.8624 -0.6237  0.1638
  121SOPE  H12A12790   1.308   2.345   7.904  0.0640 -1.5136  1.8546
  121SOPE  H12B12791   1.292   2.461   8.045 -0.7740  0.8346 -1.0089
  121SOPE   C1112792   1.146   2.486   7.888  0.5980 -0.3167 -0.2389
  121SOPE  H11A12793   1.216   2.566   7.857  2.4509 -1.0519  1.8457
  121SOPE  H11B12794   1.066   2.531   7.951  0.2160  0.0612 -0.9812
  121SOPE     P12795   1.152   2.405   7.632  0.3526 -0.1449 -0.1577
  121SOPE   O1312796   1.055   2.349   7.534 -0.2389  0.5759 -0.0321
  121SOPE   O1412797   1.285   2.341   7.650  0.2074 -0.7551  0.3185
  121SOPE   O1212798   1.077   2.413   7.778 -0.7843  0.2534  0.2108
  121SOPE   O1112799   1.177   2.552   7.584  0.0818  0.0272 -0.7076
  121SOPE    C112800   1.061   2.636   7.587  0.2038 -0.5502 -0.0853
  121SOPE    HA12801   1.098   2.737   7.615  0.2500 -0.6182  0.1050
  121SOPE    HB12802   0.991   2.619   7.671  0.1331  0.5465  0.0923
  121SOPE    C212803   0.988   2.636   7.453  0.2311  0.0575 -0.3031
  121SOPE    HS12804   0.935   2.539   7.444  0.2335  0.1474 -1.4038
  121SOPE   O2112805   1.071   2.661   7.341  0.1912 -0.3244 -0.3533
  121SOPE   C2112806   1.040   2.588   7.231 -0.2312  0.5800 -0.5689
  121SOPE   O2212807   0.952   2.504   7.228 -0.1119  0.4985 -0.4343
  121SOPE   C2212808   1.122   2.637   7.110 -0.6217  0.4073 -0.6671
  121SOPE   H2R12809   1.221   2.655   7.155 -2.0276 -0.5038  3.1243
  121SOPE   H2S12810   1.085   2.737   7.082  0.7502  0.8857 -0.8552
  121SOPE    C312811   0.879   2.745   7.463 -0.1431  0.0829 -0.3190
  121SOPE    HX12812   0.921   2.848   7.460  2.7610 -0.9947  0.1941
  121SOPE    HY12813   0.827   2.747   7.561  0.1713  0.5586 -0.1577
  121SOPE   O3112814   0.788   2.735   7.353  0.0214 -0.5375 -0.2605
  121SOPE   C3112815   0.690   2.636   7.362 -0.0094  0.4055 -0.3541
  121SOPE   O3212816   0.670   2.562   7.454  0.4399 -0.7257 -0.2309
  121SOPE   C3212817   0.599   2.661   7.239 -0.0236  0.6983  0.0905
  121SOPE   H2X12818   0.566   2.767   7.232  1.8678  1.2914 -0.6814
  121SOPE   H2Y12819   0.515   2.590   7.244  0.2333  0.4472  1.1820
  121SOPE   C2312820   1.116   2.535   6.994  0.2025 -0.6924 -0.0800
  121SOPE   H3R12821   1.008   2.530   6.967  0.2062 -1.3364  0.0009
  121SOPE   H3S12822   1.145   2.431   7.020 -0.5418 -0.4843  1.7555
  121SOPE   C2412823   1.211   2.567   6.878 -0.8129  0.1281 -0.6133
  121SOPE   H4R12824   1.317   2.564   6.912 -1.2185  1.9905  1.0055
  121SOPE   H4S12825   1.208   2.494   6.794  0.1101  0.6195 -1.0925
  121SOPE   C2512826   1.187   2.701   6.808 -0.3151 -0.4113  0.0797
  121SOPE   H5R12827   1.080   2.703   6.777 -0.3651 -0.2545  0.2609
  121SOPE   H5S12828   1.202   2.779   6.885 -1.2236 -0.4738  0.3303
  121SOPE   C2612829   1.271   2.719   6.685 -0.4727 -0.1962  0.7890
  121SOPE   H6R12830   1.275   2.825   6.650 -1.5949 -0.0516  1.0524
  121SOPE   H6S12831   1.375   2.706   6.723 -0.6502 -2.3224  0.6463
  121SOPE   C2712832   1.239   2.637   6.560  0.0330 -0.5539  0.2518
  121SOPE   H7R12833   1.271   2.531   6.572  1.3581 -0.3568 -1.1830
  121SOPE   H7S12834   1.128   2.633   6.557 -0.0339  0.7339  0.6029
  121SOPE   C2812835   1.319   2.692   6.439  0.2048  0.2237 -0.0495
  121SOPE   H8R12836   1.297   2.800   6.428 -0.8098  0.2168  1.4672
  121SOPE   H8S12837   1.427   2.683   6.462  0.2420  3.2035  1.3971
  121SOPE   C2912838   1.294   2.612   6.306  0.6294 -0.8679  0.6239
  121SOPE   H9112839   1.312   2.503   6.304  0.5497 -0.8929 -1.7937
  121SOPE  C21012840   1.256   2.668   6.191 -0.6169 -0.9395 -0.2133
  121SOPE  H10112841   1.269   2.604   6.102 -0.5837 -0.7478 -0.3479
  121SOPE  C21112842   1.227   2.820   6.170 -0.2421  0.5041 -0.2346
  121SOPE  H11R12843   1.306   2.879   6.222 -0.7471 -0.3046  1.5165
  121SOPE  H11S12844   1.128   2.839   6.218  1.0808  1.1686  2.4546
  121SOPE  C21212845   1.210   2.858   6.022  0.4948 -0.4513  0.2984
  121SOPE  H12R12846   1.120   2.805   5.984  1.7580 -2.9788  0.5901
  121SOPE  H12S12847   1.303   2.827   5.968  0.0131  1.6525 -1.9045
  121SOPE  C21312848   1.196   3.010   5.995  0.3442 -0.0836  0.1901
  121SOPE  H13R12849   1.264   3.077   6.052  1.3167 -0.5895 -0.3435
  121SOPE  H13S12850   1.090   3.033   6.017  0.2032 -1.7342  1.3802
  121SOPE  C21412851   1.214   3.061   5.852  0.0375  0.2319 -0.5812
  121SOPE  H14R12852   1.324   3.053   5.834  0.3044 -0.3430  1.1838
  121SOPE  H14S12853   1.176   3.166   5.848  0.8477  0.5093 -1.4504
  121SOPE  C21512854   1.146   2.994   5.741 -0.1728 -0.4908 -0.5945
  121SOPE  H15R12855   1.044   2.959   5.767  0.2817  0.0222  2.2871
  121SOPE  H15S12856   1.212   2.909   5.712 -0.3981 -0.7749 -0.2757
  121SOPE  C21612857   1.141   3.096   5.628  0.1883  0.3564  1.3078
  121SOPE  H16R12858   1.242   3.142   5.621  0.3325 -0.1540 -0.7179
  121SOPE  H16S12859   1.059   3.165   5.657  0.0142  0.2915  0.9731
  121SOPE  C21712860   1.118   3.025   5.493  0.8500  0.2150 -0.6675
  121SOPE  H17R12861   1.197   2.946   5.484  0.3630 -0.2227 -1.2356
  121SOPE  H17S12862   1.137   3.100   5.413 -0.4485 -0.8467 -2.0421
  121SOPE  C21812863   0.983   2.959   5.471  0.2096 -0.3925  0.2163
  121SOPE  H18R12864   0.988   2.885   5.388  0.1202  0.3208 -0.4383
  121SOPE  H18S12865   0.914   3.041   5.443 -0.2261 -1.3090 -1.5503
  121SOPE  H18T12866   0.951   2.915   5.568  0.4340 -1.1297 -0.0322
  121SOPE   C3312867   0.674   2.637   7.106  0.2889 -0.1474  1.3536
  121SOPE   H3X12868   0.714   2.534   7.113 -0.2977 -0.6751 -1.6688
  121SOPE   H3Y12869   0.756   2.710   7.089 -0.1709  0.6844  2.5881
  121SOPE   C3412870   0.570   2.659   6.993 -0.6590 -0.3176  0.3535
  121SOPE   H4X12871   0.526   2.760   7.004  1.0317  0.7895 -2.1829
  121SOPE   H4Y12872   0.490   2.582   7.001  1.1875 -2.2937  0.7129
  121SOPE   C3512873   0.638   2.658   6.855  0.5842 -0.4140 -0.6898
  121SOPE   H5X12874   0.724   2.728   6.855  0.5051 -0.3174 -0.4163
  121SOPE   H5Y12875   0.566   2.691   6.776  0.4987  0.6895 -0.1648
  121SOPE   C3612876   0.706   2.527   6.811 -0.2053 -0.2510 -0.2453
  121SOPE   H6X12877   0.648   2.444   6.858  0.6406 -1.3500 -1.1135
  121SOPE   H6Y12878   0.809   2.521   6.853  0.1607  0.6707 -0.9901
  121SOPE   C3712879   0.709   2.500   6.663 -0.1553  0.3063 -0.5062
  121SOPE   H7X12880   0.605   2.473   6.634  0.5792 -0.8845 -2.2106
  121SOPE   H7Y12881   0.764   2.406   6.639 -0.7397 -0.3597  0.6581
  121SOPE   C3812882   0.763   2.613   6.579  0.4524  0.0230  0.5527
  121SOPE   H8X12883   0.867   2.632   6.613 -0.3126 -0.3679  3.3670
  121SOPE   H8Y12884   0.706   2.705   6.607  0.6644  1.4305 -3.0869
  121SOPE   C3912885   0.749   2.578   6.433  0.1893 -0.2180 -0.3385
  121SOPE   H9X12886   0.739   2.671   6.373  1.3052  2.3782  3.1145
  121SOPE   H9Y12887   0.650   2.531   6.423 -0.0465 -0.6790  2.9848
  121SOPE  C31012888   0.861   2.488   6.373  0.3953 -0.5331 -0.4379
  121SOPE  H10X12889   0.844   2.390   6.424 -0.0330  0.9304  2.4725
  121SOPE  H10Y12890   0.965   2.525   6.390 -0.4596  1.2124  1.5478
  121SOPE  C31112891   0.837   2.463   6.229 -0.0388 -0.0871  0.3960
  121SOPE  H11X12892   0.735   2.427   6.205  0.7369 -1.5959 -0.8045
  121SOPE  H11Y12893   0.905   2.380   6.201 -0.8987 -1.0373  1.0692
  121SOPE  C31212894   0.885   2.583   6.141  1.1527  0.1305  0.9186
  121SOPE  H12X12895   0.995   2.591   6.142  1.0721  1.7058  0.3679
  121SOPE  H12Y12896   0.837   2.675   6.181  0.1490 -0.7686  1.8590
  121SOPE  C31312897   0.844   2.571   5.992 -0.3953  0.1491 -0.0456
  121SOPE  H13X12898   0.896   2.652   5.935 -2.4240  1.3449 -0.3011
  121SOPE  H13Y12899   0.734   2.583   5.992 -0.6076 -1.4487 -1.0182
  121SOPE  C31412900   0.869   2.433   5.929 -0.4688  1.2500  0.1492
  121SOPE  H14X12901   0.813   2.361   5.993  0.0473  1.3360  0.7065
  121SOPE  H14Y12902   0.976   2.405   5.931 -1.0019 -1.0394 -0.6540
  121SOPE  C31512903   0.819   2.416   5.782 -0.9053 -0.3898 -0.3803
  121SOPE  H15X12904   0.713   2.448   5.785 -0.6109  0.5629  1.6696
  121SOPE  H15Y12905   0.827   2.308   5.760 -0.9780  0.0484 -2.7733
  121SOPE  C31612906   0.915   2.479   5.681 -0.3347 -0.1577  0.3069
  121SOPE  H16X12907   1.014   2.432   5.701 -0.8568 -1.1530  0.5925
  121SOPE  H16Y12908   0.934   2.588   5.694  1.7257 -0.5586  1.1933
  121SOPE  C31712909   0.866   2.457   5.534  0.6528 -0.2527 -0.2452
  121SOPE  H17X12910   0.784   2.530   5.517  0.9239 -0.0373 -0.6489
  121SOPE  H17Y12911   0.825   2.354   5.536 -0.4728  0.1826  0.3274
  121SOPE  C31812912   0.980   2.468   5.428  0.5853  0.1255 -0.5431
  121SOPE  H18X12913   1.025   2.570   5.424  0.0323  0.3820 -0.3932
  121SOPE  H18Y12914   0.960   2.440   5.323  3.0069 -0.0557 -0.9907
  121SOPE  H18Z12915   1.063   2.402   5.462  0.9338  0.2756 -1.0980
  122SOPE     N12916   1.410   3.189   7.260 -0.0117 -0.1216 -0.8589
  122SOPE   HN112917   1.399   3.088   7.286 -0.9357 -0.4483 -2.4047
  122SOPE   HN212918   1.512   3.200   7.248 -0.0897 -0.0362 -1.4304
  122SOPE   HN312919   1.369   3.237   7.343  0.1621 -2.0063  0.4142
  122SOPE   C1212920   1.325   3.221   7.145  0.4963 -1.0035 -0.6988
  122SOPE  H12A12921   1.251   3.138   7.132 -0.1021 -0.5137 -0.4659
  122SOPE  H12B12922   1.394   3.226   7.058  0.8933  2.9893 -0.3390
  122SOPE   C1112923   1.270   3.370   7.161 -0.1219 -0.0746 -0.1595
  122SOPE  H11A12924   1.236   3.393   7.058 -0.0857 -1.1934 -0.4442
  122SOPE  H11B12925   1.357   3.437   7.181  0.5159 -0.4878 -1.4313
  122SOPE     P12926   1.016   3.381   7.226 -0.1043 -0.1016  0.2766
  122SOPE   O1312927   0.934   3.454   7.329 -0.5490 -0.1642 -0.2887
  122SOPE   O1412928   0.993   3.240   7.206 -0.1879  0.0331 -0.0439
  122SOPE   O1212929   1.169   3.391   7.263  0.2859 -0.0705  0.0356
  122SOPE   O1112930   1.016   3.459   7.092 -0.0784  0.1563  0.5638
  122SOPE    C112931   0.897   3.494   7.025 -0.0779  0.0249 -0.7841
  122SOPE    HA12932   0.889   3.604   7.023  1.3851  0.1491 -0.5744
  122SOPE    HB12933   0.806   3.454   7.077 -1.4905  2.3615 -1.3011
  122SOPE    C212934   0.900   3.443   6.875  0.3221  0.5619  0.0525
  122SOPE    HS12935   0.803   3.473   6.832 -0.0248  0.6479  0.8675
  122SOPE   O2112936   0.937   3.304   6.861 -0.1582  0.4711 -0.6688
  122SOPE   C2112937   0.851   3.216   6.907  0.0895  0.8653  0.2562
  122SOPE   O2212938   0.733   3.250   6.938 -0.2166  0.2893  0.0748
  122SOPE   C2212939   0.909   3.081   6.916  0.1109  0.4117  0.0887
  122SOPE   H2R12940   0.866   3.022   6.999 -0.0675  0.1601 -0.1825
  122SOPE   H2S12941   1.020   3.093   6.922  0.0470  2.8730 -1.9759
  122SOPE    C312942   1.012   3.519   6.799  0.6241  0.6604  1.1460
  122SOPE    HX12943   1.110   3.502   6.848  1.1367  1.6090  0.4886
  122SOPE    HY12944   0.990   3.626   6.816 -0.4766  0.4427  1.1798
  122SOPE   O3112945   1.016   3.474   6.662  0.3810  0.2612 -0.2925
  122SOPE   C3112946   0.913   3.514   6.587  0.1614  0.5503 -0.2011
  122SOPE   O3212947   0.837   3.603   6.622  0.1769  0.3080 -0.6271
  122SOPE   C3212948   0.915   3.435   6.453  0.0061 -0.8850  0.2835
  122SOPE   H2X12949   0.900   3.326   6.469  1.0292 -1.0102  0.4475
  122SOPE   H2Y12950   1.013   3.448   6.403  0.1381  1.6059  1.0796
  122SOPE   C2312951   0.877   2.990   6.791 -0.0792 -0.4663  0.0881
  122SOPE   H3R12952   0.781   3.022   6.746 -0.9836 -2.6579  0.3334
  122SOPE   H3S12953   0.862   2.890   6.838  1.1971 -0.4958  0.4659
  122SOPE   C2412954   0.991   2.982   6.685  0.4023  0.7852  0.0387
  122SOPE   H4R12955   1.091   2.980   6.734  0.5627 -0.2406 -0.3062
  122SOPE   H4S12956   0.967   2.891   6.626  0.3109  0.7814  0.0803
  122SOPE   C2512957   1.002   3.101   6.594  0.7397  0.2545 -0.2938
  122SOPE   H5R12958   0.902   3.131   6.556  1.4039  1.3014 -1.2695
  122SOPE   H5S12959   1.046   3.186   6.650  0.0374  0.0466  0.5936
  122SOPE   C2612960   1.104   3.087   6.480 -0.2462  0.4125 -0.2125
  122SOPE   H6R12961   1.131   2.982   6.456  2.9272  0.8731  0.8972
  122SOPE   H6S12962   1.060   3.131   6.388  0.2809  1.7724  0.1505
  122SOPE   C2712963   1.246   3.148   6.510  0.3412 -0.3225  0.5453
  122SOPE   H7R12964   1.228   3.255   6.532  4.0210  0.6625 -0.4728
  122SOPE   H7S12965   1.291   3.103   6.601  0.4292 -0.1276  0.5996
  122SOPE   C2812966   1.343   3.137   6.382 -0.6747  0.3985  0.2637
  122SOPE   H8R12967   1.371   3.033   6.355 -0.3162  0.3114  0.9437
  122SOPE   H8S12968   1.287   3.182   6.298 -1.4726 -1.4128 -0.2297
  122SOPE   C2912969   1.469   3.208   6.419  0.0102 -0.0869  0.1401
  122SOPE   H9112970   1.538   3.131   6.457 -1.8164 -2.6946 -1.4758
  122SOPE  C21012971   1.492   3.340   6.405 -0.6991 -0.0052  0.9528
  122SOPE  H10112972   1.591   3.375   6.437  0.4907 -1.7483 -0.5461
  122SOPE  C21112973   1.399   3.440   6.354  0.4547  0.4427  0.0082
  122SOPE  H11R12974   1.444   3.537   6.385  0.3187  0.0431  1.5410
  122SOPE  H11S12975   1.300   3.427   6.401  0.8465 -0.3305  0.6348
  122SOPE  C21212976   1.370   3.428   6.201  0.3885 -0.4352  0.2438
  122SOPE  H12R12977   1.300   3.511   6.176 -1.3005 -2.4494 -2.2672
  122SOPE  H12S12978   1.317   3.332   6.181  1.7623 -0.9910 -0.9102
  122SOPE  C21312979   1.488   3.419   6.102  0.5703 -0.6065 -0.3083
  122SOPE  H13R12980   1.546   3.338   6.151 -0.6239 -0.8847  0.7018
  122SOPE  H13S12981   1.550   3.511   6.104  1.0086 -0.7973 -2.4614
  122SOPE  C21412982   1.437   3.385   5.963 -0.6656 -0.4571  0.3262
  122SOPE  H14R12983   1.349   3.449   5.943 -1.8606 -0.9660  3.3550
  122SOPE  H14S12984   1.381   3.289   5.957 -4.2609  1.5588 -1.6598
  122SOPE  C21512985   1.541   3.405   5.853 -0.5980  0.4396 -0.0341
  122SOPE  H15R12986   1.625   3.335   5.867 -1.6227 -1.2241 -1.8004
  122SOPE  H15S12987   1.582   3.508   5.850 -0.3195  0.3048 -2.6954
  122SOPE  C21612988   1.486   3.380   5.707 -0.0618  0.5424 -0.1593
  122SOPE  H16R12989   1.435   3.473   5.673  0.8928  1.1105 -0.0788
  122SOPE  H16S12990   1.407   3.302   5.698 -0.3425  0.9174 -1.0335
  122SOPE  C21712991   1.604   3.356   5.618 -0.1400 -0.2407  0.2492
  122SOPE  H17R12992   1.650   3.258   5.643 -0.9473 -0.3390  1.3993
  122SOPE  H17S12993   1.676   3.435   5.645  0.4913 -0.3332 -1.0522
  122SOPE  C21812994   1.580   3.359   5.462  0.1117  0.1098 -0.1966
  122SOPE  H18R12995   1.512   3.439   5.425 -2.6066 -1.8342  0.3162
  122SOPE  H18S12996   1.538   3.269   5.412  0.7193  0.0929 -0.6867
  122SOPE  H18T12997   1.681   3.377   5.419 -0.1865 -0.2302 -1.0610
  122SOPE   C3312998   0.820   3.498   6.346 -0.1698 -0.3563 -0.5278
  122SOPE   H3X12999   0.859   3.598   6.319 -2.1170  0.6460  0.1983
  122SOPE   H3Y13000   0.720   3.508   6.393  0.0238  0.1027 -0.2081
  122SOPE   C3413001   0.814   3.399   6.221  0.0091  0.3466  0.2258
  122SOPE   H4X13002   0.727   3.439   6.166  0.4732  1.4434  0.2561
  122SOPE   H4Y13003   0.792   3.298   6.262  0.5179  0.0999 -0.1011
  122SOPE   C3513004   0.947   3.390   6.148  0.2485 -0.7033  0.3574
  122SOPE   H5X13005   1.029   3.335   6.199  2.3879  0.8502 -1.2239
  122SOPE   H5Y13006   0.981   3.494   6.130  0.9486 -0.7126  1.5284
  122SOPE   C3613007   0.936   3.319   6.012 -0.2957  0.3488  0.5437
  122SOPE   H6X13008   0.895   3.216   6.019 -0.9789  0.5841  0.0454
  122SOPE   H6Y13009   1.038   3.310   5.969 -1.2291 -1.9799 -1.3800
  122SOPE   C3713010   0.840   3.402   5.916  0.1724  0.8285 -0.3760
  122SOPE   H7X13011   0.869   3.509   5.923  0.4589  0.8765 -1.8921
  122SOPE   H7Y13012   0.738   3.377   5.952 -0.1035  0.5190 -1.3305
  122SOPE   C3813013   0.855   3.362   5.773 -0.6273  0.2711  0.1653
  122SOPE   H8X13014   0.825   3.255   5.770 -0.6974  0.1745  2.7299
  122SOPE   H8Y13015   0.959   3.355   5.735 -0.8293 -0.6145 -0.2624
  122SOPE   C3913016   0.773   3.436   5.667  0.6032 -0.7614  0.4260
  122SOPE   H9X13017   0.838   3.518   5.630 -2.0298  0.1155 -2.7633
  122SOPE   H9Y13018   0.677   3.475   5.706  0.4619 -1.0011  0.3235
  122SOPE  C31013019   0.748   3.346   5.547  0.0971  0.6388 -0.0587
  122SOPE  H10X13020   0.691   3.255   5.577 -0.2981  0.9991  0.2993
  122SOPE  H10Y13021   0.841   3.296   5.513 -0.4392 -0.6864  0.3578
  122SOPE  C31113022   0.692   3.426   5.425  0.6287  0.2681 -0.6622
  122SOPE  H11X13023   0.760   3.511   5.403 -0.4521  1.0260 -1.1506
  122SOPE  H11Y13024   0.596   3.477   5.448  0.0206  0.0443 -2.5028
  122SOPE  C31213025   0.668   3.328   5.306 -0.0851 -0.3555  1.3357
  122SOPE  H12X13026   0.584   3.260   5.330 -2.5124  2.5066  1.4794
  122SOPE  H12Y13027   0.763   3.275   5.284 -1.1067 -1.7551  0.1051
  122SOPE  C31313028   0.605   3.404   5.189 -0.3447  0.2449 -0.4267
  122SOPE  H13X13029   0.684   3.450   5.126 -1.0772 -0.0547 -1.5836
  122SOPE  H13Y13030   0.541   3.491   5.216 -0.1447  0.5830 -1.0317
  122SOPE  C31413031   0.515   3.314   5.098 -0.5344 -0.6124 -0.7021
  122SOPE  H14X13032   0.409   3.317   5.131 -0.3034 -1.6445  0.1994
  122SOPE  H14Y13033   0.562   3.214   5.091  3.0543  0.7402  1.3254
  122SOPE  C31513034   0.518   3.371   4.953 -0.2746 -0.0653  0.4761
  122SOPE  H15X13035   0.455   3.298   4.897  0.6118  0.8519 -1.8273
  122SOPE  H15Y13036   0.618   3.391   4.909 -1.6308  1.8047 -1.9950
  122SOPE  C31613037   0.459   3.514   4.945  0.0119  0.1191 -0.5514
  122SOPE  H16X13038   0.509   3.586   5.014 -0.2620 -0.8918  0.7256
  122SOPE  H16Y13039   0.349   3.512   4.951  0.0285 -0.1065 -0.3424
  122SOPE  C31713040   0.476   3.566   4.799  0.0529  0.2363  0.3602
  122SOPE  H17X13041   0.583   3.594   4.790  0.1712  0.2933  1.6932
  122SOPE  H17Y13042   0.430   3.665   4.777  2.4225  0.8230 -2.4571
  122SOPE  C31813043   0.438   3.459   4.690  0.1702  0.1717 -0.0041
  122SOPE  H18X13044   0.528   3.398   4.667  0.2455  0.4239 -0.3822
  122SOPE  H18Y13045   0.424   3.508   4.591 -0.6075 -1.1028 -0.5508
  122SOPE  H18Z13046   0.356   3.397   4.732  2.2783 -1.9521  1.2157
  123SOPE     N13047   6.581   3.057   2.655 -0.6252 -0.3376  0.1175
  123SOPE   HN113048   6.564   3.011   2.563  0.2334  0.3498 -0.4143
  123SOPE   HN213049   6.491   3.054   2.707 -1.0442 -0.2131 -0.5797
  123SOPE   HN313050   6.608   3.157   2.642  0.0077 -0.3064  1.5471
  123SOPE   C1213051   6.683   2.982   2.743  0.1375 -0.2264 -0.2674
  123SOPE  H12A13052   6.672   3.010   2.850  3.2849 -1.4609  0.4695
  123SOPE  H12B13053   6.778   3.021   2.700 -0.1015  0.3260 -0.3120
  123SOPE   C1113054   6.673   2.827   2.732  0.4496  0.6359  0.1474
  123SOPE  H11A13055   6.764   2.784   2.779 -0.1373  1.3019  1.9497
  123SOPE  H11B13056   6.673   2.802   2.623  1.4375  0.3458  0.2011
  123SOPE     P13057   6.523   2.620   2.797 -0.1470 -0.5691 -0.4339
  123SOPE   O1313058   6.610   2.540   2.885 -0.0218 -0.4219 -0.3703
  123SOPE   O1413059   6.510   2.562   2.659 -0.0401 -0.6257  0.4747
  123SOPE   O1213060   6.566   2.772   2.801  0.7208  0.1362 -0.1240
  123SOPE   O1113061   6.379   2.610   2.866  0.0252  1.2880  0.3987
  123SOPE    C113062   6.299   2.704   2.926  0.1302  0.2393 -0.9325
  123SOPE    HA13063   6.193   2.691   2.896 -0.6524  1.1763  1.2361
  123SOPE    HB13064   6.329   2.809   2.904  2.9634 -0.2367  0.3126
  123SOPE    C213065   6.309   2.694   3.080  0.0791  0.3244 -0.3160
  123SOPE    HS13066   6.224   2.751   3.121  0.9104  0.8251  0.7835
  123SOPE   O2113067   6.440   2.756   3.117  0.4947  0.3889 -0.2417
  123SOPE   C2113068   6.442   2.890   3.123 -0.4394 -0.4182 -0.0581
  123SOPE   O2213069   6.345   2.961   3.114 -0.1414 -0.0097 -0.9647
  123SOPE   C2213070   6.591   2.938   3.141  0.2535  0.4518  0.9759
  123SOPE   H2R13071   6.593   3.046   3.113 -2.5400  0.2511 -0.4015
  123SOPE   H2S13072   6.651   2.887   3.063 -1.7752 -0.9953  0.2690
  123SOPE    C313073   6.305   2.550   3.147 -0.2356  0.5442 -0.5129
  123SOPE    HX13074   6.393   2.484   3.131  0.2126  1.4213 -1.8686
  123SOPE    HY13075   6.209   2.519   3.101 -0.5246  0.9509 -0.1905
  123SOPE   O3113076   6.301   2.565   3.290 -0.0906  0.2094 -0.4820
  123SOPE   C3113077   6.212   2.496   3.353 -0.1452  0.0212  0.0064
  123SOPE   O3213078   6.134   2.413   3.308 -0.9106  0.3204  0.7010
  123SOPE   C3213079   6.243   2.514   3.510  0.4281  0.0891  0.4927
  123SOPE   H2X13080   6.268   2.621   3.525 -1.3240  0.5199  0.5096
  123SOPE   H2Y13081   6.342   2.464   3.524 -0.3459 -1.2586  1.4133
  123SOPE   C2313082   6.654   2.900   3.282  0.7599 -0.1155  0.2417
  123SOPE   H3R13083   6.756   2.940   3.300  0.6178 -0.3237  1.6003
  123SOPE   H3S13084   6.665   2.790   3.292  1.3076 -0.1032 -0.2156
  123SOPE   C2413085   6.574   2.969   3.396  0.0534  0.5259 -0.4271
  123SOPE   H4R13086   6.565   3.078   3.378  1.9231  0.9944  1.2106
  123SOPE   H4S13087   6.471   2.926   3.390 -0.4828  1.1911  2.5943
  123SOPE   C2513088   6.634   2.936   3.532 -0.3197 -0.3177 -0.2092
  123SOPE   H5R13089   6.632   2.825   3.543 -0.4469 -0.5088 -1.8269
  123SOPE   H5S13090   6.739   2.972   3.537 -0.3959 -0.0227 -0.6694
  123SOPE   C2613091   6.550   3.005   3.642  0.0923  0.3555  0.3466
  123SOPE   H6R13092   6.514   3.107   3.620  0.4880  0.3819 -0.2175
  123SOPE   H6S13093   6.458   2.943   3.644 -1.3186  2.3358 -0.2121
  123SOPE   C2713094   6.636   3.001   3.770 -0.5012 -0.7158  0.3568
  123SOPE   H7R13095   6.688   2.903   3.774  1.1041 -0.0387 -1.8492
  123SOPE   H7S13096   6.715   3.079   3.769 -1.7143  0.7048  3.3859
  123SOPE   C2813097   6.549   3.033   3.897 -0.0091  0.0512 -0.2394
  123SOPE   H8R13098   6.498   3.130   3.878 -2.2216 -0.4883  2.3179
  123SOPE   H8S13099   6.463   2.964   3.911  0.9734 -1.3442 -0.8536
  123SOPE   C2913100   6.633   3.050   4.021 -0.1653  0.2725 -0.6169
  123SOPE   H9113101   6.678   3.150   4.031 -3.0531  1.4725  2.3912
  123SOPE  C21013102   6.629   2.953   4.123  0.4306 -0.5044 -0.5757
  123SOPE  H10113103   6.681   2.963   4.220  0.3783 -0.9930 -0.4948
  123SOPE  C21113104   6.549   2.828   4.127 -0.2180  0.1627  0.4085
  123SOPE  H11R13105   6.628   2.750   4.122 -0.5449 -0.0907 -1.4443
  123SOPE  H11S13106   6.482   2.810   4.040 -1.2869 -0.9351  1.4164
  123SOPE  C21213107   6.459   2.799   4.249 -0.6887 -0.2644 -0.2293
  123SOPE  H12R13108   6.533   2.796   4.331  1.0360 -2.8486 -1.7417
  123SOPE  H12S13109   6.420   2.696   4.240 -0.5118 -0.2571 -1.2735
  123SOPE  C21313110   6.356   2.908   4.265  0.6794  1.0382  0.2261
  123SOPE  H13R13111   6.271   2.870   4.205  0.0530  0.6783  1.3128
  123SOPE  H13S13112   6.376   3.004   4.213  0.9811 -1.0367 -3.8737
  123SOPE  C21413113   6.298   2.916   4.406  0.7591  0.5818  0.2957
  123SOPE  H14R13114   6.281   2.810   4.436  0.1745  0.9654  1.3454
  123SOPE  H14S13115   6.199   2.968   4.407 -0.6089 -1.7823 -1.1698
  123SOPE  C21513116   6.391   2.989   4.503  0.7170 -0.6665 -0.1519
  123SOPE  H15R13117   6.406   3.086   4.450  0.1491 -1.9412 -2.8332
  123SOPE  H15S13118   6.486   2.935   4.519  1.1365  0.8989  3.6731
  123SOPE  C21613119   6.326   3.011   4.640 -0.1705 -0.5895 -1.5334
  123SOPE  H16R13120   6.233   3.067   4.620 -1.1738 -2.3401 -2.0083
  123SOPE  H16S13121   6.385   3.064   4.718 -0.5303 -0.1196 -1.5780
  123SOPE  C21713122   6.279   2.888   4.721 -0.3288 -0.0739  0.2344
  123SOPE  H17R13123   6.372   2.853   4.771  0.4879  2.5734  0.6981
  123SOPE  H17S13124   6.239   2.813   4.649 -0.1315  0.2460 -0.2149
  123SOPE  C21813125   6.172   2.918   4.820 -0.1268 -0.6586 -0.6797
  123SOPE  H18R13126   6.099   2.991   4.779  0.7868  0.3722 -0.5338
  123SOPE  H18S13127   6.207   2.965   4.915 -0.8334  2.8178 -1.9786
  123SOPE  H18T13128   6.125   2.823   4.854  0.1744 -0.3095  0.7868
  123SOPE   C3313129   6.135   2.465   3.606 -0.6672 -0.3439 -0.2796
  123SOPE   H3X13130   6.094   2.372   3.560 -0.6592  0.0796 -1.1535
  123SOPE   H3Y13131   6.054   2.541   3.615  0.6816  1.5211 -2.5555
  123SOPE   C3413132   6.191   2.451   3.748 -0.0020 -1.1236  0.3815
  123SOPE   H4X13133   6.294   2.408   3.749  1.3919  1.5878 -3.6105
  123SOPE   H4Y13134   6.116   2.393   3.806 -0.0816 -1.1162  0.2857
  123SOPE   C3513135   6.209   2.576   3.829  0.1640 -0.1265 -0.1996
  123SOPE   H5X13136   6.122   2.629   3.873  0.7286  2.7274 -2.2236
  123SOPE   H5Y13137   6.256   2.651   3.762 -0.8569  0.2460 -0.5177
  123SOPE   C3613138   6.312   2.571   3.938 -0.1657  0.2120 -0.0993
  123SOPE   H6X13139   6.329   2.669   3.987  1.9984 -0.7835  1.3148
  123SOPE   H6Y13140   6.408   2.525   3.906  0.1657  1.1942 -0.5567
  123SOPE   C3713141   6.256   2.484   4.056 -0.0451  0.3938 -0.0101
  123SOPE   H7X13142   6.332   2.476   4.136  0.4777  1.9928 -0.3138
  123SOPE   H7Y13143   6.234   2.384   4.011  1.1443 -0.0933  0.4513
  123SOPE   C3813144   6.131   2.528   4.127 -0.3331  0.6396 -0.6103
  123SOPE   H8X13145   6.046   2.516   4.056 -1.8476 -3.2608  1.5597
  123SOPE   H8Y13146   6.139   2.633   4.162 -2.0625  0.0624  1.7649
  123SOPE   C3913147   6.098   2.444   4.253 -0.0782 -0.2145 -0.5648
  123SOPE   H9X13148   6.182   2.458   4.324  0.9966  1.7307 -2.1381
  123SOPE   H9Y13149   6.087   2.336   4.228  0.3740 -0.3352 -0.2542
  123SOPE  C31013150   5.978   2.512   4.329 -0.5051  0.1510  0.6488
  123SOPE  H10X13151   5.911   2.447   4.389 -1.3896 -0.3681 -0.8316
  123SOPE  H10Y13152   5.904   2.541   4.251  1.4331  0.8426 -1.0031
  123SOPE  C31113153   6.028   2.631   4.411  0.1444  0.7420 -0.5014
  123SOPE  H11X13154   6.105   2.690   4.358  0.4990 -0.6964 -1.6187
  123SOPE  H11Y13155   6.077   2.595   4.504 -0.2597 -0.8146 -0.8607
  123SOPE  C31213156   5.905   2.717   4.457 -0.6624  0.6409  0.7286
  123SOPE  H12X13157   5.843   2.754   4.372  1.6444  1.4659 -0.6941
  123SOPE  H12Y13158   5.944   2.810   4.502  2.5715  0.8317 -2.0766
  123SOPE  C31313159   5.806   2.649   4.557  0.3051 -0.5815 -0.5726
  123SOPE  H13X13160   5.865   2.585   4.627 -0.5920  0.5852  1.3201
  123SOPE  H13Y13161   5.742   2.585   4.494  0.7542  0.5541 -2.2266
  123SOPE  C31413162   5.733   2.759   4.640 -0.3363  0.2299 -0.1309
  123SOPE  H14X13163   5.655   2.800   4.573 -0.2766 -0.5667 -0.6960
  123SOPE  H14Y13164   5.808   2.839   4.661 -2.2764  2.1025  0.0774
  123SOPE  C31513165   5.656   2.700   4.757  0.1500  0.1764 -0.0730
  123SOPE  H15X13166   5.720   2.681   4.846  0.4890 -1.0348 -0.5490
  123SOPE  H15Y13167   5.628   2.596   4.728 -1.2721  0.2290  1.0013
  123SOPE  C31613168   5.522   2.763   4.783 -0.0858 -0.9259  0.3476
  123SOPE  H16X13169   5.474   2.782   4.685 -0.5896  1.4525  0.9989
  123SOPE  H16Y13170   5.541   2.863   4.827  0.4061 -2.0791  2.9812
  123SOPE  C31713171   5.429   2.670   4.862  0.1656 -0.4197 -0.6486
  123SOPE  H17X13172   5.463   2.658   4.967  0.4888  0.1994 -0.6753
  123SOPE  H17Y13173   5.428   2.571   4.810 -0.2350 -0.5355 -0.4195
  123SOPE  C31813174   5.283   2.731   4.870  0.7884  0.9894 -0.1267
  123SOPE  H18X13175   5.211   2.648   4.887  1.3019  0.4863 -0.4005
  123SOPE  H18Y13176   5.256   2.779   4.774 -1.0708 -0.9932 -0.6554
  123SOPE  H18Z13177   5.279   2.805   4.953 -0.2440 -0.2030  0.9373
  124SOPE     N13178   3.625   1.899   1.884 -1.0436 -0.2723 -0.1483
  124SOPE   HN113179   3.701   1.889   1.813  0.0259 -0.5002  0.9925
  124SOPE   HN213180   3.622   1.816   1.947 -1.8207  1.2782  1.9712
  124SOPE   HN313181   3.530   1.910   1.844 -0.6700  0.3909 -0.8684
  124SOPE   C1213182   3.671   1.998   1.986 -0.0085 -0.0917 -0.0282
  124SOPE  H12A13183   3.685   2.087   1.921  0.5414  0.3320  0.6609
  124SOPE  H12B13184   3.764   1.966   2.036 -0.3811  1.3418  1.6891
  124SOPE   C1113185   3.562   2.036   2.093 -0.2328  1.1234 -0.5556
  124SOPE  H11A13186   3.488   2.104   2.047  0.1255  1.0992 -1.1850
  124SOPE  H11B13187   3.603   2.089   2.182 -3.9861  1.5071  1.1268
  124SOPE     P13188   3.419   1.914   2.270 -0.0889 -0.0917 -0.0941
  124SOPE   O1313189   3.357   1.782   2.291 -0.2446  0.6396 -0.3401
  124SOPE   O1413190   3.321   2.023   2.279 -0.4198 -0.3732  0.0338
  124SOPE   O1213191   3.491   1.912   2.132  0.2307  0.6900 -0.0104
  124SOPE   O1113192   3.532   1.933   2.379 -0.4001 -0.4623  0.2792
  124SOPE    C113193   3.667   1.879   2.392 -0.5331  0.1369  0.2197
  124SOPE    HA13194   3.735   1.964   2.416 -2.1361  1.4837  0.1922
  124SOPE    HB13195   3.695   1.838   2.293 -0.9105  0.4589 -0.0227
  124SOPE    C213196   3.675   1.762   2.494  0.5850 -0.3662 -0.7584
  124SOPE    HS13197   3.618   1.673   2.461  0.9993  0.0220 -2.6795
  124SOPE   O2113198   3.640   1.806   2.627  0.4746 -0.4717  0.2252
  124SOPE   C2113199   3.595   1.706   2.699 -0.1966  0.0779  0.1683
  124SOPE   O2213200   3.592   1.589   2.664 -0.1213  0.0740 -0.1771
  124SOPE   C2213201   3.542   1.749   2.833 -0.8371 -0.4484 -0.2487
  124SOPE   H2R13202   3.472   1.673   2.875 -0.3451  0.6226  2.7782
  124SOPE   H2S13203   3.490   1.846   2.820 -0.5051 -0.0190  1.3431
  124SOPE    C313204   3.822   1.715   2.498  0.0728  0.4144  0.2581
  124SOPE    HX13205   3.830   1.671   2.396 -2.9913 -0.2326  0.1937
  124SOPE    HY13206   3.829   1.624   2.562 -0.7210  0.4647  0.4207
  124SOPE   O3113207   3.930   1.804   2.531  0.4031 -0.2900  0.0226
  124SOPE   C3113208   3.963   1.809   2.665  0.5467  0.3953 -0.0156
  124SOPE   O3213209   3.928   1.728   2.746  0.1528  0.9162  0.0733
  124SOPE   C3213210   4.059   1.930   2.690 -0.0528  0.6461 -0.6622
  124SOPE   H2X13211   4.061   1.989   2.596  0.5772 -0.0481 -1.0989
  124SOPE   H2Y13212   4.159   1.880   2.690 -0.1051  0.1476 -4.7748
  124SOPE   C2313213   3.659   1.760   2.937 -0.7094 -0.4640  0.1568
  124SOPE   H3R13214   3.737   1.833   2.905 -0.4483 -1.0531 -0.5876
  124SOPE   H3S13215   3.704   1.660   2.950 -2.2189 -0.9634  1.9996
  124SOPE   C2413216   3.598   1.806   3.075  0.1395 -0.7555  0.1247
  124SOPE   H4R13217   3.546   1.899   3.043 -0.0621 -0.7331  0.5077
  124SOPE   H4S13218   3.525   1.730   3.112 -1.2240  0.2294 -0.4547
  124SOPE   C2513219   3.712   1.825   3.175 -0.2221 -0.1110  0.5625
  124SOPE   H5R13220   3.808   1.859   3.132  0.2823  0.0042  1.7549
  124SOPE   H5S13221   3.683   1.914   3.235 -1.4589  0.7779 -1.2470
  124SOPE   C2613222   3.727   1.710   3.276  0.0021 -0.2236 -0.6629
  124SOPE   H6R13223   3.621   1.700   3.306 -0.5702  1.2240 -2.0623
  124SOPE   H6S13224   3.762   1.614   3.233 -0.1072 -0.3309 -0.5137
  124SOPE   C2713225   3.798   1.742   3.403 -0.2863  0.1645  1.2254
  124SOPE   H7R13226   3.907   1.759   3.389 -0.2706 -1.3727 -0.9007
  124SOPE   H7S13227   3.758   1.840   3.437 -1.1870 -0.5318  2.2319
  124SOPE   C2813228   3.771   1.640   3.512  0.5399 -0.7058  0.0091
  124SOPE   H8R13229   3.671   1.651   3.559  0.7593 -0.1384  0.3431
  124SOPE   H8S13230   3.776   1.535   3.474  0.6534 -0.8365  0.3856
  124SOPE   C2913231   3.873   1.636   3.620 -0.7606  0.1844 -0.4338
  124SOPE   H9113232   3.975   1.612   3.588 -0.7456 -0.4389  0.0630
  124SOPE  C21013233   3.867   1.670   3.754  0.0939  0.0347 -0.4031
  124SOPE  H10113234   3.964   1.690   3.802  0.2497 -3.1323  0.8267
  124SOPE  C21113235   3.743   1.690   3.836  0.4407 -0.9136 -0.2935
  124SOPE  H11R13236   3.648   1.670   3.782 -0.6683  1.1703  0.7729
  124SOPE  H11S13237   3.740   1.801   3.843 -0.8761 -0.8698 -1.1201
  124SOPE  C21213238   3.744   1.629   3.980  0.1907  0.3666  0.1442
  124SOPE  H12R13239   3.753   1.520   3.961 -4.0672 -0.3515  1.2202
  124SOPE  H12S13240   3.642   1.633   4.024  0.1443 -0.7246  0.1575
  124SOPE  C21313241   3.833   1.692   4.087  0.3623 -0.2618 -0.1428
  124SOPE  H13R13242   3.811   1.794   4.123 -0.4039  0.5794 -2.7846
  124SOPE  H13S13243   3.938   1.683   4.052  1.0459  0.3943  1.6312
  124SOPE  C21413244   3.838   1.595   4.208 -0.2060  0.4351  0.8473
  124SOPE  H14R13245   3.874   1.491   4.195 -1.2869 -0.1846  2.4704
  124SOPE  H14S13246   3.732   1.574   4.237  0.0251 -0.2657  1.2164
  124SOPE  C21513247   3.897   1.655   4.330 -0.2171 -0.5799  0.3665
  124SOPE  H15R13248   3.828   1.732   4.370 -2.0587 -1.6152 -0.7034
  124SOPE  H15S13249   3.996   1.702   4.313 -0.2563 -1.0011 -1.1209
  124SOPE  C21613250   3.926   1.544   4.442  0.0027  0.1952  0.3482
  124SOPE  H16R13251   4.006   1.473   4.411 -2.4406 -2.3196 -0.5346
  124SOPE  H16S13252   3.829   1.491   4.445  0.8848 -1.7575 -2.1104
  124SOPE  C21713253   3.943   1.591   4.589 -0.5592 -0.4061 -0.5414
  124SOPE  H17R13254   3.845   1.642   4.606 -2.1779 -2.4539 -2.9265
  124SOPE  H17S13255   4.020   1.670   4.583 -1.2489  0.1816 -2.7197
  124SOPE  C21813256   3.970   1.483   4.694 -0.1829  0.3274 -0.1320
  124SOPE  H18R13257   3.990   1.515   4.798 -1.8059 -1.1226  0.6728
  124SOPE  H18S13258   4.067   1.442   4.658 -0.3045  2.3222 -3.1781
  124SOPE  H18T13259   3.884   1.413   4.686  0.3666 -0.2551 -1.1704
  124SOPE   C3313260   4.028   2.018   2.813  0.0944  0.4165 -0.1402
  124SOPE   H3X13261   3.919   2.031   2.830 -0.0153  2.0897 -1.7698
  124SOPE   H3Y13262   4.075   2.118   2.798 -1.3920  1.0994 -0.3738
  124SOPE   C3413263   4.107   1.964   2.933 -0.3209  0.3537 -0.1999
  124SOPE   H4X13264   4.205   1.917   2.908 -0.4058 -0.6362  1.2518
  124SOPE   H4Y13265   4.046   1.882   2.974 -1.0412  1.3205  0.7223
  124SOPE   C3513266   4.145   2.058   3.052 -0.4908 -0.5151  0.1781
  124SOPE   H5X13267   4.042   2.097   3.070 -1.1324 -1.9046 -0.3566
  124SOPE   H5Y13268   4.214   2.145   3.044 -0.6166 -0.2364  1.8463
  124SOPE   C3613269   4.180   1.973   3.166  0.0803  0.7864  0.5109
  124SOPE   H6X13270   4.278   1.924   3.145  0.3853  1.8027 -0.5557
  124SOPE   H6Y13271   4.106   1.891   3.167 -0.5690  1.2828  3.4764
  124SOPE   C3713272   4.181   2.057   3.294 -0.6601  0.5962  0.9967
  124SOPE   H7X13273   4.111   2.143   3.287  1.2822  2.2730  1.1951
  124SOPE   H7Y13274   4.277   2.112   3.289 -0.8494  0.8405 -1.2183
  124SOPE   C3813275   4.169   1.973   3.420  0.2065 -0.2940 -0.2451
  124SOPE   H8X13276   4.242   1.890   3.419 -0.9040 -1.2948 -0.8308
  124SOPE   H8Y13277   4.072   1.920   3.411 -1.8525  2.8155  1.7316
  124SOPE   C3913278   4.174   2.045   3.554  0.8682  0.1028  0.9164
  124SOPE   H9X13279   4.092   2.119   3.560  0.4803 -0.1165 -0.9678
  124SOPE   H9Y13280   4.273   2.096   3.556  2.5225 -2.8312  0.9754
  124SOPE  C31013281   4.177   1.951   3.674  0.4089  0.6177 -0.1816
  124SOPE  H10X13282   4.272   1.893   3.671  0.8935  1.3962 -0.0779
  124SOPE  H10Y13283   4.092   1.884   3.650  0.3208  0.2957  0.9478
  124SOPE  C31113284   4.165   2.021   3.805  0.0018 -0.4829 -0.2251
  124SOPE  H11X13285   4.059   2.050   3.826  0.3976 -0.4740  1.9378
  124SOPE  H11Y13286   4.225   2.115   3.804  0.5411 -0.6820  2.9362
  124SOPE  C31213287   4.218   1.921   3.915 -0.0413 -1.0742  0.5923
  124SOPE  H12X13288   4.325   1.915   3.888 -0.5822 -0.0302 -2.0034
  124SOPE  H12Y13289   4.172   1.820   3.910 -0.4596 -0.8847  0.5301
  124SOPE  C31313290   4.204   1.972   4.064 -0.1508 -0.4643 -0.0413
  124SOPE  H13X13291   4.099   1.996   4.092 -0.4868 -0.7415 -1.0442
  124SOPE  H13Y13292   4.258   2.068   4.075  1.0383 -1.2304  1.0319
  124SOPE  C31413293   4.255   1.873   4.167  0.0588  0.6697  0.7684
  124SOPE  H14X13294   4.341   1.823   4.117 -0.4735  0.7427 -0.2429
  124SOPE  H14Y13295   4.189   1.786   4.187  2.5904 -1.8292 -0.9914
  124SOPE  C31513296   4.290   1.937   4.306  0.1561  0.5110 -0.0088
  124SOPE  H15X13297   4.347   2.032   4.303  1.0760  0.0018  0.8630
  124SOPE  H15Y13298   4.358   1.868   4.361  0.9131  0.7450 -0.6291
  124SOPE  C31613299   4.160   1.960   4.385 -0.1837 -0.3496 -0.1621
  124SOPE  H16X13300   4.099   1.871   4.360  0.5934 -0.7496 -0.7082
  124SOPE  H16Y13301   4.109   2.054   4.354  0.1176 -0.0251  0.3040
  124SOPE  C31713302   4.182   1.955   4.534 -0.4346  0.2646 -0.6872
  124SOPE  H17X13303   4.239   2.047   4.561  1.7099 -0.4963 -2.3148
  124SOPE  H17Y13304   4.238   1.866   4.569 -0.4930  0.5551  0.1686
  124SOPE  C31813305   4.051   1.965   4.612  0.2989  0.6448  0.0579
  124SOPE  H18X13306   3.978   1.895   4.567  1.0376 -0.1170  0.0177
  124SOPE  H18Y13307   4.013   2.067   4.590 -0.8925  0.2722  0.3153
  124SOPE  H18Z13308   4.071   1.941   4.719  1.1824  0.4250 -0.1503
  125SOPE     N13309   6.032   1.690   2.615 -0.2116  0.3239  0.1682
  125SOPE   HN113310   6.120   1.685   2.558 -1.4150 -0.6105 -1.7214
  125SOPE   HN213311   6.024   1.780   2.665 -0.0581 -0.6186  1.9945
  125SOPE   HN313312   6.036   1.629   2.699 -0.8922 -0.8229 -0.5920
  125SOPE   C1213313   5.920   1.681   2.510 -0.3431  0.1663  0.0053
  125SOPE  H12A13314   5.892   1.575   2.493 -0.1615  0.3854 -1.8267
  125SOPE  H12B13315   5.949   1.727   2.413  1.7648 -0.2581  0.3878
  125SOPE   C1113316   5.792   1.759   2.555  0.2093 -0.0542 -0.2133
  125SOPE  H11A13317   5.771   1.728   2.660  1.5433 -1.6668 -0.3792
  125SOPE  H11B13318   5.715   1.712   2.491 -1.8934  2.9853 -0.1296
  125SOPE     P13319   5.651   1.968   2.524 -0.1543  0.2681  0.0767
  125SOPE   O1313320   5.586   1.928   2.400 -0.3577 -0.3979 -0.2597
  125SOPE   O1413321   5.675   2.112   2.545 -0.7515 -0.0774 -0.0042
  125SOPE   O1213322   5.789   1.899   2.534 -0.1030  0.0316  0.2554
  125SOPE   O1113323   5.575   1.907   2.645  0.4572  0.5959 -0.5898
  125SOPE    C113324   5.592   1.967   2.776  0.0928  0.1376  0.0977
  125SOPE    HA13325   5.562   2.074   2.775  2.2793  0.9142  2.9577
  125SOPE    HB13326   5.695   1.967   2.817 -0.3196 -0.0833  1.1641
  125SOPE    C213327   5.495   1.897   2.878 -0.3654  0.0220  0.5158
  125SOPE    HS13328   5.391   1.906   2.838  0.4794  1.9285 -1.4796
  125SOPE   O2113329   5.501   1.956   3.008 -0.3057 -0.2548 -0.2991
  125SOPE   C2113330   5.437   2.072   3.009 -0.2877 -0.0741 -0.1487
  125SOPE   O2213331   5.381   2.122   2.909 -0.3548  0.1326  0.1990
  125SOPE   C2213332   5.459   2.137   3.142 -0.0586  0.8925 -0.8732
  125SOPE   H2R13333   5.415   2.239   3.130 -0.4743  0.9535  0.8838
  125SOPE   H2S13334   5.564   2.155   3.175 -0.8688 -0.4294  2.9692
  125SOPE    C313335   5.516   1.744   2.886  0.1324  0.6440  1.0353
  125SOPE    HX13336   5.615   1.729   2.933  0.2838  0.6346  0.7155
  125SOPE    HY13337   5.515   1.702   2.783 -0.3944  0.6949  1.0133
  125SOPE   O3113338   5.401   1.679   2.953  0.6085 -0.0721 -0.2210
  125SOPE   C3113339   5.432   1.572   3.027  0.8443 -0.2092  0.0589
  125SOPE   O3213340   5.544   1.534   3.043 -0.3556  0.8657 -0.0660
  125SOPE   C3213341   5.306   1.524   3.095  0.2424  0.2628 -0.5385
  125SOPE   H2X13342   5.265   1.436   3.042 -1.5626  0.4154  0.5331
  125SOPE   H2Y13343   5.225   1.599   3.096  0.6755  0.8890 -3.3985
  125SOPE   C2313344   5.386   2.059   3.252 -0.2692  0.6506 -0.6857
  125SOPE   H3R13345   5.404   1.950   3.249  1.0718  0.8574 -0.7789
  125SOPE   H3S13346   5.280   2.087   3.236  0.3554  2.8538 -1.4030
  125SOPE   C2413347   5.436   2.119   3.389  0.4382  0.3786  0.6014
  125SOPE   H4R13348   5.544   2.143   3.387 -0.2576  4.2703 -1.6148
  125SOPE   H4S13349   5.389   2.219   3.394 -0.0601  0.1256  1.1519
  125SOPE   C2513350   5.385   2.029   3.498  0.0992  0.4860  0.5523
  125SOPE   H5R13351   5.278   2.001   3.483 -0.2087  2.4049 -1.3784
  125SOPE   H5S13352   5.431   1.930   3.483 -0.6733  0.2705 -0.5284
  125SOPE   C2613353   5.389   2.087   3.632  0.1867 -0.3748  0.0718
  125SOPE   H6R13354   5.499   2.101   3.645  0.1093  0.6093 -0.3090
  125SOPE   H6S13355   5.351   2.191   3.629 -1.0258 -0.8075  0.1054
  125SOPE   C2713356   5.323   1.995   3.733  0.5138 -0.0166 -0.6442
  125SOPE   H7R13357   5.216   1.999   3.704 -0.0411 -0.7591  1.1863
  125SOPE   H7S13358   5.373   1.897   3.721 -0.0375 -1.0755  3.8130
  125SOPE   C2813359   5.313   2.037   3.890  0.2388  0.2598  0.3234
  125SOPE   H8R13360   5.400   2.000   3.949  0.1550  0.6644  0.7065
  125SOPE   H8S13361   5.302   2.148   3.891 -1.8458  0.0880  0.3583
  125SOPE   C2913362   5.184   1.984   3.955  0.4087  0.2974  0.3273
  125SOPE   H9113363   5.109   1.933   3.892  0.7707  0.0710  0.0759
  125SOPE  C21013364   5.150   1.977   4.084  0.0644 -0.6162 -0.5550
  125SOPE  H10113365   5.054   1.930   4.108  1.7525 -3.3415  1.3321
  125SOPE  C21113366   5.234   2.011   4.205  0.0695 -0.1015 -0.1668
  125SOPE  H11R13367   5.175   2.078   4.270  0.1263 -0.1206 -0.0958
  125SOPE  H11S13368   5.323   2.076   4.189 -1.5981  3.0032  2.1852
  125SOPE  C21213369   5.274   1.884   4.286  0.2716 -0.6388  1.3236
  125SOPE  H12R13370   5.326   1.811   4.220 -1.0505  1.4924 -2.3722
  125SOPE  H12S13371   5.177   1.843   4.320 -1.7603  2.2554 -0.5513
  125SOPE  C21313372   5.355   1.924   4.409 -0.2043 -0.2501 -0.2877
  125SOPE  H13R13373   5.293   1.986   4.477  0.7423  2.2565 -1.6035
  125SOPE  H13S13374   5.435   1.992   4.372 -1.7494  0.1736 -3.1237
  125SOPE  C21413375   5.411   1.795   4.471 -0.0678  0.1136  1.4834
  125SOPE  H14R13376   5.459   1.745   4.384 -2.4356  0.1621  0.0669
  125SOPE  H14S13377   5.323   1.737   4.504 -0.8656  0.2373 -0.2781
  125SOPE  C21513378   5.520   1.812   4.584  0.5226  0.0110 -0.7505
  125SOPE  H15R13379   5.606   1.868   4.542  0.1085  2.3320  1.2820
  125SOPE  H15S13380   5.561   1.716   4.621  0.6980  0.4124  0.1121
  125SOPE  C21613381   5.463   1.903   4.697 -0.1803  0.0203 -0.2924
  125SOPE  H16R13382   5.367   1.859   4.730  0.0549 -0.8124 -0.7081
  125SOPE  H16S13383   5.437   2.004   4.657 -0.1427  0.2498  0.2450
  125SOPE  C21713384   5.547   1.913   4.822 -0.2958 -1.0256 -0.2257
  125SOPE  H17R13385   5.551   1.817   4.877 -1.1755 -1.9339 -1.6713
  125SOPE  H17S13386   5.489   1.969   4.899  0.4708 -1.6878  0.8567
  125SOPE  C21813387   5.667   1.991   4.797 -0.3772  0.5545  0.1346
  125SOPE  H18R13388   5.729   1.944   4.718 -2.8875 -1.1254 -0.9565
  125SOPE  H18S13389   5.734   2.010   4.883 -1.8448  0.1897  1.4227
  125SOPE  H18T13390   5.642   2.091   4.754 -1.4667  0.3345  0.2281
  125SOPE   C3313391   5.337   1.475   3.238 -0.6297 -0.5490 -0.3956
  125SOPE   H3X13392   5.395   1.381   3.252  0.3865  0.3561  1.9405
  125SOPE   H3Y13393   5.238   1.450   3.280 -0.4168  0.5962  0.8476
  125SOPE   C3413394   5.401   1.587   3.329  0.2871  0.1447  0.6798
  125SOPE   H4X13395   5.362   1.686   3.298 -2.0697 -0.1115  2.5533
  125SOPE   H4Y13396   5.509   1.597   3.304  0.5407 -0.8215  1.3299
  125SOPE   C3513397   5.372   1.582   3.484  0.1793 -0.5696  0.6371
  125SOPE   H5X13398   5.265   1.563   3.508  0.1663  0.9294  1.8806
  125SOPE   H5Y13399   5.410   1.676   3.528  0.9765  0.8998 -2.8485
  125SOPE   C3613400   5.437   1.467   3.549 -0.2227 -0.7188 -0.1780
  125SOPE   H6X13401   5.547   1.476   3.545 -0.3539  1.2401 -0.3986
  125SOPE   H6Y13402   5.406   1.371   3.503 -1.7003  0.0726 -0.9374
  125SOPE   C3713403   5.413   1.455   3.699  0.5080  0.0301  0.1586
  125SOPE   H7X13404   5.465   1.362   3.732  0.4461 -0.1743 -0.3086
  125SOPE   H7Y13405   5.305   1.435   3.716  0.0895  2.2366  0.3397
  125SOPE   C3813406   5.449   1.580   3.786 -0.8785 -0.3232  0.2248
  125SOPE   H8X13407   5.403   1.667   3.735 -0.0435 -1.3335 -2.4043
  125SOPE   H8Y13408   5.559   1.593   3.778 -0.8958  1.3666  2.0220
  125SOPE   C3913409   5.387   1.576   3.929 -0.2574 -0.1449  1.2156
  125SOPE   H9X13410   5.278   1.555   3.921 -0.1415 -0.2267 -0.6161
  125SOPE   H9Y13411   5.400   1.677   3.973  2.1210 -0.5480  1.5441
  125SOPE  C31013412   5.449   1.486   4.028 -0.7077  0.1203 -0.2598
  125SOPE  H10X13413   5.433   1.380   4.000  0.0674 -0.6067  1.8832
  125SOPE  H10Y13414   5.393   1.503   4.122  0.4515  1.7456  0.1723
  125SOPE  C31113415   5.599   1.511   4.071  0.1654  0.1808 -0.7123
  125SOPE  H11X13416   5.613   1.611   4.116 -3.9147  1.0642 -1.0429
  125SOPE  H11Y13417   5.662   1.496   3.980  1.9777 -1.6540  0.7496
  125SOPE  C31213418   5.632   1.416   4.190 -0.5879 -0.0224  0.1754
  125SOPE  H12X13419   5.612   1.312   4.156 -0.1208  0.7317 -2.6873
  125SOPE  H12Y13420   5.566   1.432   4.278 -0.6625 -0.8031  0.2708
  125SOPE  C31313421   5.782   1.422   4.225  0.2317 -0.1212 -0.3930
  125SOPE  H13X13422   5.837   1.408   4.130  1.5737 -0.5713  0.4253
  125SOPE  H13Y13423   5.812   1.337   4.290 -1.4437  0.2880  0.9977
  125SOPE  C31413424   5.830   1.544   4.307  0.5163  0.7551  0.0346
  125SOPE  H14X13425   5.805   1.629   4.240  0.4527  0.8922  0.2308
  125SOPE  H14Y13426   5.940   1.534   4.313  0.7170  3.1943  2.4978
  125SOPE  C31513427   5.779   1.571   4.455  0.0789 -0.3320  0.2262
  125SOPE  H15X13428   5.669   1.560   4.454 -0.1729  1.6094  1.6055
  125SOPE  H15Y13429   5.803   1.677   4.478 -0.5183 -0.3815  1.1346
  125SOPE  C31613430   5.831   1.481   4.571 -0.2880  0.0433  0.5744
  125SOPE  H16X13431   5.942   1.487   4.570 -0.2870  0.0166 -0.6621
  125SOPE  H16Y13432   5.808   1.377   4.539 -1.8244  0.6506 -0.4027
  125SOPE  C31713433   5.779   1.522   4.702 -0.1480 -0.2272 -0.0996
  125SOPE  H17X13434   5.798   1.437   4.771 -1.4133  1.3601  2.3605
  125SOPE  H17Y13435   5.669   1.536   4.700 -0.1197  0.0803 -2.8066
  125SOPE  C31813436   5.843   1.648   4.759  0.1925 -0.6785 -0.8144
  125SOPE  H18X13437   5.953   1.640   4.774  0.2163  1.0923  0.1790
  125SOPE  H18Y13438   5.801   1.656   4.861  1.0471 -0.0453 -0.4951
  125SOPE  H18Z13439   5.820   1.738   4.698  2.7131  0.9447  0.4451
  126SOPE     N13440   1.594   3.573   2.264 -0.6449 -0.6867  0.1334
  126SOPE   HN113441   1.581   3.626   2.176  3.4182 -1.8081 -1.3941
  126SOPE   HN213442   1.674   3.615   2.316 -1.9016  1.7037  0.2433
  126SOPE   HN313443   1.629   3.481   2.230  1.3130 -0.8862  2.3870
  126SOPE   C1213444   1.476   3.549   2.358  0.4383  0.0474 -0.0365
  126SOPE  H12A13445   1.507   3.488   2.445 -0.3315 -1.2449 -0.6441
  126SOPE  H12B13446   1.398   3.491   2.306  1.0317 -0.7172 -0.0926
  126SOPE   C1113447   1.429   3.678   2.424  0.0908 -0.0137 -0.2076
  126SOPE  H11A13448   1.504   3.725   2.490  0.9858  0.4951 -1.5381
  126SOPE  H11B13449   1.350   3.644   2.493  1.2444  0.8933  1.6178
  126SOPE     P13450   1.233   3.824   2.320 -0.2608 -0.2047 -0.0865
  126SOPE   O1313451   1.140   3.711   2.329  0.4921 -0.2224 -0.3539
  126SOPE   O1413452   1.215   3.915   2.199 -0.7530  0.0139 -0.0812
  126SOPE   O1213453   1.377   3.773   2.324 -0.1254  0.0941 -0.0442
  126SOPE   O1113454   1.215   3.909   2.451  0.7045 -0.2105  0.2888
  126SOPE    C113455   1.315   4.005   2.491  0.2219 -0.3106  0.6462
  126SOPE    HA13456   1.314   4.096   2.428  1.2109 -0.6886  0.0710
  126SOPE    HB13457   1.418   3.966   2.477  0.7713  0.8673  1.2675
  126SOPE    C213458   1.304   4.040   2.648  0.0575  0.0487  0.2646
  126SOPE    HS13459   1.393   4.100   2.676  1.5201 -1.5441 -0.8011
  126SOPE   O2113460   1.272   3.921   2.726 -0.0315  0.7067  0.1928
  126SOPE   C2113461   1.360   3.908   2.825  0.3210  0.9632  0.3215
  126SOPE   O2213462   1.446   3.986   2.856  0.4752 -0.0193 -0.4933
  126SOPE   C2213463   1.330   3.777   2.912 -0.0677  0.1407 -0.1563
  126SOPE   H2R13464   1.419   3.757   2.974  0.4254 -1.2106 -1.2424
  126SOPE   H2S13465   1.320   3.701   2.831 -0.3823  0.2651 -0.2357
  126SOPE    C313466   1.190   4.142   2.660 -0.1680 -0.0050 -1.1736
  126SOPE    HX13467   1.108   4.089   2.607 -0.5716 -1.9429  1.2433
  126SOPE    HY13468   1.211   4.238   2.608  0.3733 -0.7357 -2.3392
  126SOPE   O3113469   1.158   4.162   2.802  0.1442 -0.3584  0.3505
  126SOPE   C3113470   1.197   4.278   2.851 -0.5924 -1.0864 -0.2556
  126SOPE   O3213471   1.294   4.342   2.816 -0.0855  0.1681 -0.2921
  126SOPE   C3213472   1.127   4.312   2.983 -0.1073 -0.2319 -0.3801
  126SOPE   H2X13473   1.090   4.217   3.027  0.2537 -1.4444 -2.5398
  126SOPE   H2Y13474   1.039   4.372   2.952  0.4328 -0.2379 -2.0325
  126SOPE   C2313475   1.204   3.801   3.003 -0.2849 -0.4855  0.2876
  126SOPE   H3R13476   1.181   3.701   3.048 -0.0905 -0.1732  1.1014
  126SOPE   H3S13477   1.122   3.836   2.936  0.0553 -0.1496  0.0490
  126SOPE   C2413478   1.222   3.904   3.119 -0.0427 -0.1087 -0.6601
  126SOPE   H4R13479   1.257   3.997   3.069  0.2818 -0.1203 -0.4549
  126SOPE   H4S13480   1.122   3.921   3.164  1.0294  2.1365  1.0504
  126SOPE   C2513481   1.320   3.861   3.222 -0.2125  0.3369 -0.5464
  126SOPE   H5R13482   1.296   3.765   3.272  1.0735  0.1189 -0.3186
  126SOPE   H5S13483   1.424   3.844   3.189 -0.8623  1.3386 -3.3765
  126SOPE   C2613484   1.350   3.963   3.333  0.5035  0.0129  0.2317
  126SOPE   H6R13485   1.409   4.043   3.282  1.4081 -0.1767  0.9491
  126SOPE   H6S13486   1.248   4.000   3.356  0.8040  0.7340  0.4351
  126SOPE   C2713487   1.420   3.898   3.455 -0.5205  0.3502 -0.5632
  126SOPE   H7R13488   1.364   3.807   3.485 -1.5405  1.2740  0.4454
  126SOPE   H7S13489   1.520   3.860   3.427  0.6063  2.8775 -0.2801
  126SOPE   C2813490   1.442   3.994   3.572 -0.5234 -0.4335 -0.0872
  126SOPE   H8R13491   1.351   4.058   3.578  0.1288  0.6440 -1.2046
  126SOPE   H8S13492   1.457   3.923   3.655 -0.2484 -1.2693 -0.8413
  126SOPE   C2913493   1.552   4.096   3.560  0.0702 -0.0078 -0.5367
  126SOPE   H9113494   1.544   4.161   3.472 -2.3230 -0.4432 -0.7121
  126SOPE  C21013495   1.648   4.131   3.649 -0.4075 -0.1448  1.5295
  126SOPE  H10113496   1.719   4.205   3.609 -1.6100 -0.7439 -2.0744
  126SOPE  C21113497   1.689   4.063   3.780 -0.5825  0.0286  0.5428
  126SOPE  H11R13498   1.765   3.986   3.760  0.0691  0.5319  1.0469
  126SOPE  H11S13499   1.605   4.000   3.817  0.2676 -0.4651  1.6647
  126SOPE  C21213500   1.745   4.165   3.883 -0.0518 -0.3257 -0.2381
  126SOPE  H12R13501   1.691   4.260   3.903 -0.7411 -1.2560  3.0354
  126SOPE  H12S13502   1.842   4.204   3.846  1.2724  0.8835  3.9904
  126SOPE  C21313503   1.768   4.115   4.025  0.0205  0.9904 -0.7970
  126SOPE  H13R13504   1.828   4.188   4.084 -0.5711  1.4115 -0.7028
  126SOPE  H13S13505   1.817   4.016   4.019 -0.7842  0.5664 -0.6020
  126SOPE  C21413506   1.629   4.117   4.099 -0.0781 -0.0554  0.2474
  126SOPE  H14R13507   1.555   4.047   4.054  1.0213 -0.9247 -0.2562
  126SOPE  H14S13508   1.583   4.215   4.076 -1.6357 -1.0364 -1.1183
  126SOPE  C21513509   1.633   4.098   4.250  0.1880  0.5445  0.5844
  126SOPE  H15R13510   1.689   4.180   4.301  2.3003 -0.7566  0.4786
  126SOPE  H15S13511   1.683   3.999   4.258 -3.8336 -1.7823 -0.4415
  126SOPE  C21613512   1.486   4.082   4.299  0.1222  0.4130  0.3845
  126SOPE  H16R13513   1.454   3.982   4.264  3.3556 -1.3954  2.1728
  126SOPE  H16S13514   1.420   4.159   4.253 -1.6608  0.3929  2.7597
  126SOPE  C21713515   1.459   4.091   4.446 -0.1888 -0.6952 -0.0575
  126SOPE  H17R13516   1.355   4.059   4.467 -0.6599  0.3021 -0.8021
  126SOPE  H17S13517   1.467   4.198   4.474 -0.6516 -0.3882 -1.0581
  126SOPE  C21813518   1.552   4.006   4.528  0.3767  0.0798 -0.4258
  126SOPE  H18R13519   1.539   3.901   4.494  0.5319  0.1416 -0.6825
  126SOPE  H18S13520   1.528   4.004   4.636  0.8189 -1.1459 -0.3361
  126SOPE  H18T13521   1.660   4.018   4.503  0.2668 -0.3626 -1.1613
  126SOPE   C3313522   1.210   4.383   3.085  0.1344  0.4986  0.3777
  126SOPE   H3X13523   1.138   4.404   3.166 -0.5017  2.6351 -0.6494
  126SOPE   H3Y13524   1.249   4.478   3.042 -0.6662  1.8387  2.4899
  126SOPE   C3413525   1.321   4.300   3.146 -0.1221  0.7018  0.2195
  126SOPE   H4X13526   1.376   4.256   3.059  0.8306  1.3116  0.4930
  126SOPE   H4Y13527   1.274   4.218   3.204  0.4002 -0.7796 -1.3676
  126SOPE   C3513528   1.401   4.374   3.248 -0.2380  0.0685  0.5058
  126SOPE   H5X13529   1.455   4.297   3.308  1.2783  1.6598  1.2745
  126SOPE   H5Y13530   1.330   4.424   3.316  1.6776  0.4079  2.3670
  126SOPE   C3613531   1.499   4.473   3.184  0.0368 -0.0040 -0.7434
  126SOPE   H6X13532   1.452   4.571   3.161 -1.3086 -0.2899  0.6690
  126SOPE   H6Y13533   1.536   4.426   3.090 -0.5540 -2.3839  0.1591
  126SOPE   C3713534   1.621   4.494   3.274 -0.3129 -0.5425  0.0529
  126SOPE   H7X13535   1.684   4.573   3.229 -0.7454  0.1214  0.5947
  126SOPE   H7Y13536   1.678   4.398   3.273 -1.1366 -1.0678 -2.3017
  126SOPE   C3813537   1.587   4.538   3.414 -0.5404  0.0668 -0.1578
  126SOPE   H8X13538   1.574   4.445   3.473 -1.7922  0.6661  0.5725
  126SOPE   H8Y13539   1.490   4.590   3.430  0.0034  0.7515  1.0310
  126SOPE   C3913540   1.701   4.627   3.476 -0.7188  0.5717 -0.3575
  126SOPE   H9X13541   1.683   4.717   3.413  1.1026  1.1738 -0.0527
  126SOPE   H9Y13542   1.797   4.576   3.457 -0.0660  1.2755  0.9416
  126SOPE  C31013543   1.690   4.644   3.623  0.7288  0.5332 -0.1063
  126SOPE  H10X13544   1.586   4.673   3.649  2.2614  3.7664  3.3423
  126SOPE  H10Y13545   1.753   4.728   3.659  1.0332  0.2540  0.0119
  126SOPE  C31113546   1.726   4.510   3.705 -0.0998  0.5081 -0.3707
  126SOPE  H11X13547   1.831   4.484   3.678 -0.3666 -1.2072  0.1519
  126SOPE  H11Y13548   1.658   4.427   3.676  1.8742 -1.9470  1.6161
  126SOPE  C31213549   1.715   4.536   3.854 -0.6469 -0.0757 -0.2514
  126SOPE  H12X13550   1.771   4.625   3.890  0.0108 -0.5479 -0.0778
  126SOPE  H12Y13551   1.769   4.453   3.906  2.7762  2.2454  0.1762
  126SOPE  C31313552   1.579   4.540   3.907  0.4363 -0.3837  0.6297
  126SOPE  H13X13553   1.533   4.443   3.878  2.2860 -1.4373  1.0584
  126SOPE  H13Y13554   1.520   4.619   3.856  0.4748 -0.8830 -0.2112
  126SOPE  C31413555   1.574   4.579   4.053 -0.6557  0.0002 -0.2908
  126SOPE  H14X13556   1.669   4.526   4.079 -1.8375 -2.1636 -0.1104
  126SOPE  H14Y13557   1.488   4.532   4.106 -1.6397  2.3540  0.2910
  126SOPE  C31513558   1.561   4.727   4.081  0.3317 -0.5625 -0.0207
  126SOPE  H15X13559   1.625   4.782   4.009 -2.7883  2.3234 -0.8894
  126SOPE  H15Y13560   1.599   4.734   4.185 -1.1282 -1.3037  0.5968
  126SOPE  C31613561   1.424   4.791   4.060  0.0392  0.2706  0.0624
  126SOPE  H16X13562   1.352   4.724   4.113  1.0351 -1.2268 -0.4194
  126SOPE  H16Y13563   1.398   4.783   3.953 -2.6948  0.6242  0.6383
  126SOPE  C31713564   1.412   4.942   4.091 -0.1584  0.3796  0.2830
  126SOPE  H17X13565   1.419   4.947   4.202  1.4662  1.2538  0.1652
  126SOPE  H17Y13566   1.314   4.979   4.054 -0.1633  0.3475  0.2631
  126SOPE  C31813567   1.518   5.027   4.017 -0.2803  0.3611 -1.3327
  126SOPE  H18X13568   1.507   5.009   3.908 -2.3651 -2.8473 -0.7346
  126SOPE  H18Y13569   1.619   5.001   4.054 -1.0376  1.1329  1.4945
  126SOPE  H18Z13570   1.499   5.130   4.055 -1.5194 -0.0485 -0.8143
  127SOPE     N13571   4.239   0.624   2.473  0.4397 -0.5723  0.8744
  127SOPE   HN113572   4.160   0.631   2.406 -1.4563 -0.4939  2.9856
  127SOPE   HN213573   4.198   0.648   2.566 -1.2788  0.2892 -0.0423
  127SOPE   HN313574   4.300   0.704   2.448  0.2425 -0.3871  0.9734
  127SOPE   C1213575   4.303   0.491   2.475 -0.5121  0.4178  0.0336
  127SOPE  H12A13576   4.358   0.483   2.379  1.1225  0.6185  0.9204
  127SOPE  H12B13577   4.223   0.416   2.493 -0.4067  0.3349  0.1525
  127SOPE   C1113578   4.403   0.479   2.602  0.1495  0.6401 -0.0644
  127SOPE  H11A13579   4.459   0.383   2.588 -1.3232 -0.9342  3.5456
  127SOPE  H11B13580   4.344   0.461   2.694 -0.4230 -2.1288 -0.8735
  127SOPE     P13581   4.655   0.569   2.573  0.0779  0.2593 -0.3319
  127SOPE   O1313582   4.723   0.693   2.602  0.3225 -0.3355 -0.1196
  127SOPE   O1413583   4.666   0.508   2.439 -0.3732  0.8021  0.2009
  127SOPE   O1213584   4.502   0.583   2.611 -0.3496  0.1884 -0.1558
  127SOPE   O1113585   4.719   0.467   2.676 -0.1370  0.2627  0.4673
  127SOPE    C113586   4.690   0.328   2.677  0.1044 -0.1851  0.3381
  127SOPE    HA13587   4.789   0.281   2.659 -0.6932 -0.7512 -3.5679
  127SOPE    HB13588   4.627   0.295   2.592 -2.5528 -0.1517  2.1674
  127SOPE    C213589   4.628   0.280   2.812  0.1645 -0.3562 -0.5934
  127SOPE    HS13590   4.517   0.284   2.818  0.2505  0.1616  1.1644
  127SOPE   O2113591   4.686   0.353   2.916 -0.2020  0.0079 -1.4793
  127SOPE   C2113592   4.621   0.440   2.982 -0.2392  0.3790 -0.3588
  127SOPE   O2213593   4.501   0.461   2.963  0.2494  0.5250 -0.1570
  127SOPE   C2213594   4.717   0.509   3.084  0.8949  0.0806  0.2805
  127SOPE   H2R13595   4.769   0.587   3.024 -2.2842  0.5981 -2.0548
  127SOPE   H2S13596   4.777   0.431   3.135  1.3113  1.3842  1.8597
  127SOPE    C313597   4.673   0.130   2.826  0.0110 -0.8137  0.9418
  127SOPE    HX13598   4.783   0.133   2.816  0.0527  2.1482  1.4714
  127SOPE    HY13599   4.621   0.072   2.746  0.0890 -0.6238  0.7521
  127SOPE   O3113600   4.631   0.083   2.958  0.1109 -0.2621  0.1130
  127SOPE   C3113601   4.698  -0.025   3.010  0.7238 -0.5844 -0.3570
  127SOPE   O3213602   4.782  -0.094   2.956 -0.2718  0.2525 -0.3556
  127SOPE   C3213603   4.656  -0.036   3.157 -0.5359 -0.0195 -0.0257
  127SOPE   H2X13604   4.655   0.071   3.187  2.0200  0.7973 -2.4108
  127SOPE   H2Y13605   4.744  -0.084   3.206  0.6477  3.1250  1.2167
  127SOPE   C2313606   4.624   0.585   3.192 -0.3166 -0.4713 -0.0458
  127SOPE   H3R13607   4.549   0.655   3.150 -1.2561 -1.3423  0.1481
  127SOPE   H3S13608   4.693   0.638   3.262  0.3541  0.0760 -1.1008
  127SOPE   C2413609   4.529   0.497   3.276 -0.1044 -0.8368 -0.1522
  127SOPE   H4R13610   4.436   0.490   3.216 -0.3717  2.0145 -0.1741
  127SOPE   H4S13611   4.581   0.400   3.296  0.1646 -0.2589  2.2968
  127SOPE   C2513612   4.492   0.560   3.414 -0.6973  0.1656  0.9039
  127SOPE   H5R13613   4.586   0.592   3.463  0.4800 -1.9194  0.1140
  127SOPE   H5S13614   4.435   0.655   3.402 -0.0739  0.5937  1.3141
  127SOPE   C2613615   4.429   0.467   3.514 -0.2108  0.0614 -0.2435
  127SOPE   H6R13616   4.325   0.443   3.483  0.1989  0.0046 -1.6460
  127SOPE   H6S13617   4.473   0.365   3.507 -0.9890 -0.5514  2.4353
  127SOPE   C2713618   4.420   0.512   3.660  0.4970 -0.4597  0.6787
  127SOPE   H7R13619   4.523   0.544   3.684  0.6983 -1.7004  1.5549
  127SOPE   H7S13620   4.351   0.599   3.658 -0.0955 -0.9030  1.3905
  127SOPE   C2813621   4.361   0.416   3.762 -0.1753  0.4961 -0.2408
  127SOPE   H8R13622   4.324   0.461   3.856 -0.3332 -2.9895  1.5223
  127SOPE   H8S13623   4.277   0.356   3.720  0.5812 -0.9915  0.2951
  127SOPE   C2913624   4.455   0.300   3.780 -0.2923  0.4107  0.3382
  127SOPE   H9113625   4.456   0.252   3.682 -2.5337  0.0136  0.4492
  127SOPE  C21013626   4.537   0.265   3.880  0.3529 -0.4539 -0.3469
  127SOPE  H10113627   4.597   0.174   3.865 -0.2719 -0.8683 -0.3666
  127SOPE  C21113628   4.538   0.329   4.019  0.7998  0.5162 -0.2657
  127SOPE  H11R13629   4.460   0.407   4.031 -0.2620 -0.4392 -0.7257
  127SOPE  H11S13630   4.637   0.374   4.043  0.6204 -0.4343  2.7153
  127SOPE  C21213631   4.503   0.229   4.133 -0.3287 -0.0144 -0.2363
  127SOPE  H12R13632   4.596   0.175   4.161 -0.6696 -0.2932  0.3966
  127SOPE  H12S13633   4.431   0.153   4.096 -1.7251  0.6603  0.9628
  127SOPE  C21313634   4.444   0.286   4.255  0.9290 -0.3581  0.0641
  127SOPE  H13R13635   4.351   0.327   4.210  2.2401  0.3147 -2.1918
  127SOPE  H13S13636   4.508   0.363   4.302  0.3428 -0.3373  0.8285
  127SOPE  C21413637   4.416   0.165   4.341 -1.0025  0.4240  0.8197
  127SOPE  H14R13638   4.508   0.107   4.362 -0.1831  0.3000 -2.5223
  127SOPE  H14S13639   4.351   0.104   4.275  1.7655 -0.2149 -1.5064
  127SOPE  C21513640   4.352   0.216   4.467  0.2170  1.0853  0.3064
  127SOPE  H15R13641   4.266   0.282   4.444  0.4515  1.2264 -0.1664
  127SOPE  H15S13642   4.432   0.275   4.516  1.2900 -0.2673  0.2359
  127SOPE  C21613643   4.299   0.118   4.570 -0.3463  0.0748 -0.8765
  127SOPE  H16R13644   4.269   0.168   4.665 -0.2595  1.3251 -1.4926
  127SOPE  H16S13645   4.375   0.042   4.598 -0.8944  0.1145  0.8253
  127SOPE  C21713646   4.181   0.041   4.516 -0.0960  0.8076  0.4257
  127SOPE  H17R13647   4.162  -0.046   4.583  0.2273  0.5033  0.1292
  127SOPE  H17S13648   4.208   0.014   4.411  0.0172  0.6370  0.4981
  127SOPE  C21813649   4.050   0.104   4.494 -0.9970  0.1569 -0.5462
  127SOPE  H18R13650   4.025   0.130   4.389 -0.7750  3.8463  0.1838
  127SOPE  H18S13651   4.036   0.196   4.555  0.4841 -0.6729  1.1240
  127SOPE  H18T13652   3.968   0.034   4.519 -0.2553 -1.6541 -2.8469
  127SOPE   C3313653   4.513  -0.100   3.175 -0.2087 -0.1471 -0.3216
  127SOPE   H3X13654   4.522  -0.211   3.169 -0.9989 -0.1905 -1.0494
  127SOPE   H3Y13655   4.446  -0.065   3.093 -2.7802  3.0823  2.8379
  127SOPE   C3413656   4.438  -0.065   3.315 -1.0930 -0.0117 -0.2192
  127SOPE   H4X13657   4.330  -0.086   3.307 -1.6595  2.5739 -0.2173
  127SOPE   H4Y13658   4.446   0.043   3.340 -1.2672 -0.0694  0.0895
  127SOPE   C3513659   4.490  -0.150   3.437 -0.5558 -0.4558  0.2291
  127SOPE   H5X13660   4.597  -0.123   3.451 -0.5813  0.5332 -1.2001
  127SOPE   H5Y13661   4.478  -0.257   3.408  2.4149 -0.7114 -0.4069
  127SOPE   C3613662   4.421  -0.112   3.573  0.2891  0.6237  1.7468
  127SOPE   H6X13663   4.314  -0.141   3.563  0.3032  1.2137 -1.0590
  127SOPE   H6Y13664   4.432  -0.003   3.591  0.1911  0.8981  0.2971
  127SOPE   C3713665   4.477  -0.204   3.681  0.2942 -0.5779 -0.1851
  127SOPE   H7X13666   4.584  -0.173   3.681  0.3046 -0.4060  2.2484
  127SOPE   H7Y13667   4.469  -0.314   3.668 -0.8154 -0.5168 -0.1143
  127SOPE   C3813668   4.412  -0.163   3.815 -0.2253  0.3677  0.0573
  127SOPE   H8X13669   4.301  -0.165   3.814 -0.3395 -0.7693  3.1153
  127SOPE   H8Y13670   4.427  -0.053   3.825  0.6074  0.3316 -0.7188
  127SOPE   C3913671   4.473  -0.230   3.930 -0.0220 -0.4337  0.3879
  127SOPE   H9X13672   4.584  -0.226   3.940 -0.0284  3.0498  0.3534
  127SOPE   H9Y13673   4.443  -0.337   3.933 -1.0946 -0.1231  1.7409
  127SOPE  C31013674   4.408  -0.177   4.063 -0.4260  0.1870 -0.1992
  127SOPE  H10X13675   4.302  -0.208   4.067 -0.8879  1.5793 -0.9946
  127SOPE  H10Y13676   4.397  -0.066   4.062 -1.6055  0.0768 -0.3175
  127SOPE  C31113677   4.492  -0.209   4.191  0.4675  0.2056  0.0640
  127SOPE  H11X13678   4.432  -0.181   4.280  0.2600 -1.7183  0.5662
  127SOPE  H11Y13679   4.597  -0.171   4.196  0.4035  0.3398  0.4139
  127SOPE  C31213680   4.510  -0.362   4.202  0.6265  0.0316  0.2269
  127SOPE  H12X13681   4.598  -0.401   4.145 -0.0526  0.1914 -0.9644
  127SOPE  H12Y13682   4.418  -0.403   4.155  0.7924 -0.7174  0.5367
  127SOPE  C31313683   4.528  -0.413   4.344  0.8949  0.7901 -0.6566
  127SOPE  H13X13684   4.608  -0.356   4.395  1.1382  0.2499 -0.4249
  127SOPE  H13Y13685   4.546  -0.523   4.338  0.1187  0.6483 -0.5189
  127SOPE  C31413686   4.397  -0.402   4.436 -0.2696 -0.1737  0.1765
  127SOPE  H14X13687   4.316  -0.450   4.377 -1.2904  0.8992  0.6650
  127SOPE  H14Y13688   4.375  -0.297   4.464 -0.3325  0.6283 -2.5738
  127SOPE  C31513689   4.400  -0.490   4.564 -0.7912  0.3872  0.3456
  127SOPE  H15X13690   4.498  -0.476   4.615 -0.8434 -1.2272  0.9436
  127SOPE  H15Y13691   4.391  -0.597   4.538 -1.0284  0.7774 -1.2847
  127SOPE  C31613692   4.289  -0.466   4.667  0.2026  0.0173 -0.2731
  127SOPE  H16X13693   4.192  -0.491   4.619 -0.2299 -1.7157  1.3427
  127SOPE  H16Y13694   4.296  -0.358   4.692 -3.4182  0.5328 -0.9092
  127SOPE  C31713695   4.311  -0.553   4.787  0.4537  0.5221  0.6779
  127SOPE  H17X13696   4.402  -0.520   4.842 -0.7414 -0.3842  3.3787
  127SOPE  H17Y13697   4.327  -0.657   4.751  0.8320  0.9982 -0.5976
  127SOPE  C31813698   4.194  -0.540   4.892  0.2415  0.6665 -0.4748
  127SOPE  H18X13699   4.094  -0.561   4.850 -1.0243 -2.2486  3.3694
  127SOPE  H18Y13700   4.180  -0.435   4.925 -3.0250 -0.1795  1.2739
  127SOPE  H18Z13701   4.209  -0.600   4.984  0.3064  0.3980 -0.6590
  128SOPE     N13702   0.008   4.734   2.385  0.7848 -0.2336 -0.3693
  128SOPE   HN113703  -0.080   4.711   2.437  1.3462 -0.9560  0.2937
  128SOPE   HN213704   0.007   4.836   2.365  1.3281  0.0459  0.9387
  128SOPE   HN313705   0.014   4.684   2.294 -0.3738 -1.0291 -0.0323
  128SOPE   C1213706   0.131   4.727   2.475 -0.2579 -0.0435 -0.7846
  128SOPE  H12A13707   0.153   4.620   2.496 -1.7828 -0.7195 -2.3558
  128SOPE  H12B13708   0.106   4.786   2.566 -1.7336  0.2483 -1.3474
  128SOPE   C1113709   0.244   4.789   2.401 -0.1352 -0.6065  0.0217
  128SOPE  H11A13710   0.218   4.893   2.374  1.4794 -0.5446 -1.5153
  128SOPE  H11B13711   0.272   4.747   2.302  1.9609  0.2084  0.2006
  128SOPE     P13712   0.429   4.887   2.558  0.5014 -0.3361  0.1680
  128SOPE   O1313713   0.323   4.981   2.605 -0.7053 -0.3549  0.5355
  128SOPE   O1413714   0.543   4.950   2.487  0.6813 -0.1775  0.5505
  128SOPE   O1213715   0.366   4.772   2.472 -0.2236 -0.0191 -0.2099
  128SOPE   O1113716   0.490   4.812   2.680 -0.8596 -0.0073  0.0787
  128SOPE    C113717   0.400   4.730   2.748  0.4199  0.0671 -0.6946
  128SOPE    HA13718   0.458   4.638   2.774  1.7354  0.5944 -1.6356
  128SOPE    HB13719   0.308   4.693   2.699 -0.8387  0.0566  1.5589
  128SOPE    C213720   0.368   4.790   2.892 -0.6703  0.3650  0.4118
  128SOPE    HS13721   0.302   4.876   2.866 -0.9394 -0.7197 -3.0828
  128SOPE   O2113722   0.490   4.824   2.962 -0.0079  0.6949  0.4445
  128SOPE   C2113723   0.528   4.955   2.970 -0.1399 -0.5878  0.3994
  128SOPE   O2213724   0.479   5.045   2.908  0.6726  0.2163  0.2219
  128SOPE   C2213725   0.649   4.971   3.063  0.5817 -0.3894  0.0392
  128SOPE   H2R13726   0.738   5.001   3.004  0.6005  0.2542  0.3880
  128SOPE   H2S13727   0.680   4.871   3.099  1.4893 -0.0332  0.2862
  128SOPE    C313728   0.283   4.700   2.975  0.2676 -0.5474  0.2725
  128SOPE    HX13729   0.343   4.608   2.992  1.6928  0.0003 -1.4280
  128SOPE    HY13730   0.192   4.674   2.918  1.8768 -0.8416 -2.3362
  128SOPE   O3113731   0.256   4.754   3.104 -0.0083  0.0044 -0.3516
  128SOPE   C3113732   0.147   4.825   3.105 -0.0463 -0.1620 -0.0114
  128SOPE   O3213733   0.075   4.845   3.012  0.1340  0.0691 -0.2079
  128SOPE   C3213734   0.118   4.877   3.242  0.3379  0.2885 -0.3934
  128SOPE   H2X13735   0.129   4.788   3.307  0.2365  0.2883 -0.3771
  128SOPE   H2Y13736   0.011   4.905   3.247  0.5356  0.9138  0.8826
  128SOPE   C2313737   0.609   5.072   3.176 -0.1821  0.2189 -0.1061
  128SOPE   H3R13738   0.516   5.045   3.229  0.9633 -2.1911  0.8118
  128SOPE   H3S13739   0.588   5.170   3.128 -0.4273 -0.3497 -1.1703
  128SOPE   C2413740   0.713   5.102   3.282 -0.4453 -0.1862 -0.1790
  128SOPE   H4R13741   0.803   5.156   3.245  0.6230  0.1416  2.6306
  128SOPE   H4S13742   0.676   5.175   3.357 -1.0171 -2.3730  1.7827
  128SOPE   C2513743   0.762   4.980   3.358  0.0846  0.7906  0.1144
  128SOPE   H5R13744   0.791   4.902   3.285 -1.3496  2.8073 -2.7799
  128SOPE   H5S13745   0.845   5.008   3.427  1.6864  0.2753 -1.5466
  128SOPE   C2613746   0.649   4.924   3.451 -0.1344  0.1835  0.1489
  128SOPE   H6R13747   0.598   5.001   3.513 -1.5318 -2.0508  1.8996
  128SOPE   H6S13748   0.565   4.889   3.387 -0.6831 -0.0278  0.9830
  128SOPE   C2713749   0.707   4.805   3.521  0.5687  0.5736  0.0629
  128SOPE   H7R13750   0.762   4.738   3.453  1.0577 -1.1508  2.0484
  128SOPE   H7S13751   0.779   4.838   3.600  0.9023  0.4423 -0.1857
  128SOPE   C2813752   0.602   4.718   3.591  0.2977 -0.3709 -0.2783
  128SOPE   H8R13753   0.556   4.787   3.665 -0.6839 -1.8769  0.5720
  128SOPE   H8S13754   0.515   4.705   3.523 -0.6702  0.4423  0.7754
  128SOPE   C2913755   0.652   4.583   3.644 -0.6836 -0.1475  0.0334
  128SOPE   H9113756   0.694   4.517   3.568 -2.2266  0.5146 -1.4694
  128SOPE  C21013757   0.650   4.541   3.767  0.1063  0.1595 -0.5171
  128SOPE  H10113758   0.688   4.442   3.796 -0.9232  0.6615  3.0306
  128SOPE  C21113759   0.611   4.612   3.896 -0.7388 -0.1189  0.2322
  128SOPE  H11R13760   0.585   4.719   3.876 -1.5451 -0.2660  0.4409
  128SOPE  H11S13761   0.701   4.618   3.960 -0.4743 -4.3609  0.4946
  128SOPE  C21213762   0.493   4.554   3.977  0.8877  0.0192  0.3200
  128SOPE  H12R13763   0.518   4.453   4.015  2.2662  0.4728  0.6683
  128SOPE  H12S13764   0.413   4.537   3.901 -0.8049 -1.2821  2.2716
  128SOPE  C21313765   0.428   4.654   4.074 -0.2054 -0.3375  0.0492
  128SOPE  H13R13766   0.340   4.610   4.125  1.7302 -0.2590  3.8002
  128SOPE  H13S13767   0.395   4.743   4.016  1.9102  1.0313  0.8302
  128SOPE  C21413768   0.524   4.708   4.176 -0.5620 -0.3813 -0.5624
  128SOPE  H14R13769   0.604   4.775   4.136  0.2523 -0.2417  1.2074
  128SOPE  H14S13770   0.571   4.622   4.228  0.3880  0.8007  0.6123
  128SOPE  C21513771   0.442   4.792   4.283 -0.1974 -1.0952  0.0997
  128SOPE  H15R13772   0.506   4.777   4.373 -0.6113 -0.4718  0.5010
  128SOPE  H15S13773   0.342   4.747   4.303  0.4228 -1.8014  1.8185
  128SOPE  C21613774   0.428   4.943   4.244  0.1196  0.1159 -0.7140
  128SOPE  H16R13775   0.366   4.977   4.158  3.0748  1.7030 -2.3722
  128SOPE  H16S13776   0.533   4.973   4.228 -0.1626  0.5911 -1.7767
  128SOPE  C21713777   0.376   5.031   4.361  0.9473  0.0837 -0.0022
  128SOPE  H17R13778   0.376   5.133   4.318 -1.3634  0.3836  0.5820
  128SOPE  H17S13779   0.454   5.038   4.440 -1.5752 -0.3869  2.6917
  128SOPE  C21813780   0.233   4.996   4.415 -0.3029  0.3137 -0.5409
  128SOPE  H18R13781   0.201   5.063   4.497 -1.1177 -0.4001 -0.2671
  128SOPE  H18S13782   0.243   4.897   4.463  0.6213 -0.2236 -1.7792
  128SOPE  H18T13783   0.171   4.984   4.323  4.4923  0.8954 -4.3194
  128SOPE   C3313784   0.222   4.990   3.293  0.3339 -0.5880  0.3547
  128SOPE   H3X13785   0.212   5.078   3.227 -0.1612  0.0686  1.2809
  128SOPE   H3Y13786   0.327   4.955   3.283  1.1414  2.1817 -2.0833
  128SOPE   C3413787   0.175   5.030   3.436 -0.0838  0.0148  0.7846
  128SOPE   H4X13788   0.265   5.085   3.472  1.6347 -0.6267 -2.1587
  128SOPE   H4Y13789   0.173   4.946   3.509  0.7845 -0.8163 -0.1119
  128SOPE   C3513790   0.045   5.113   3.439  0.0874  0.2333 -0.4404
  128SOPE   H5X13791  -0.046   5.060   3.403  0.5789 -1.9695  1.2796
  128SOPE   H5Y13792   0.062   5.202   3.376  2.5131  0.9693  1.1085
  128SOPE   C3613793   0.005   5.163   3.584  0.5498  0.4019  0.3425
  128SOPE   H6X13794   0.096   5.205   3.631  1.6661  0.2482 -1.5657
  128SOPE   H6Y13795  -0.039   5.074   3.635 -0.1949 -0.5489 -1.8431
  128SOPE   C3713796  -0.096   5.283   3.574 -0.0517  0.0458 -0.1999
  128SOPE   H7X13797  -0.130   5.309   3.676  2.1632 -2.1749  1.2088
  128SOPE   H7Y13798  -0.182   5.248   3.513  0.1014 -2.3248  0.8346
  128SOPE   C3813799  -0.030   5.414   3.531  0.1103 -0.7393 -0.1430
  128SOPE   H8X13800   0.029   5.399   3.438 -1.4705  0.0208 -1.3123
  128SOPE   H8Y13801   0.042   5.448   3.608 -0.9811 -0.8768  0.9676
  128SOPE   C3913802  -0.127   5.529   3.491  0.2633  0.4007 -1.0042
  128SOPE   H9X13803  -0.201   5.486   3.420  2.4805 -2.6850 -1.6628
  128SOPE   H9Y13804  -0.073   5.613   3.443  3.1469  0.0083  1.2645
  128SOPE  C31013805  -0.213   5.582   3.617 -0.0980 -0.3323  0.7495
  128SOPE  H10X13806  -0.276   5.496   3.645 -1.1739  0.3496  0.4809
  128SOPE  H10Y13807  -0.279   5.663   3.580  0.3708  0.1698  0.9981
  128SOPE  C31113808  -0.148   5.633   3.747 -0.0260  0.0525 -0.6761
  128SOPE  H11X13809  -0.091   5.724   3.719 -0.0225  0.0678 -0.6183
  128SOPE  H11Y13810  -0.068   5.560   3.773  0.0915  0.7201  0.9257
  128SOPE  C31213811  -0.247   5.664   3.862 -0.5010 -0.4487  0.0047
  128SOPE  H12X13812  -0.291   5.569   3.899  0.4469  0.3773  3.6654
  128SOPE  H12Y13813  -0.315   5.734   3.809  1.3845  1.1386 -0.4380
  128SOPE  C31313814  -0.172   5.726   3.986 -0.1351 -0.3716 -0.4497
  128SOPE  H13X13815  -0.093   5.792   3.945  1.2050  0.1590  2.6627
  128SOPE  H13Y13816  -0.120   5.650   4.048  0.8963 -0.3840 -1.3012
  128SOPE  C31413817  -0.277   5.791   4.071 -0.1013  0.8963  0.1230
  128SOPE  H14X13818  -0.341   5.711   4.113 -0.8270  2.3366  1.9263
  128SOPE  H14Y13819  -0.332   5.855   3.998  1.2704  0.3903 -1.4189
  128SOPE  C31513820  -0.219   5.867   4.196  0.7734  0.0952  0.6470
  128SOPE  H15X13821  -0.140   5.939   4.165 -0.6013  0.9443 -1.0588
  128SOPE  H15Y13822  -0.189   5.777   4.254  0.0657 -0.6546 -0.1163
  128SOPE  C31613823  -0.329   5.957   4.264 -0.1912 -0.5859 -0.1257
  128SOPE  H16X13824  -0.368   6.032   4.192  0.5489 -0.8418 -0.8118
  128SOPE  H16Y13825  -0.276   6.005   4.349 -0.4292  1.4205 -1.0582
  128SOPE  C31713826  -0.445   5.881   4.319 -0.0082  0.0828  0.4617
  128SOPE  H17X13827  -0.473   5.807   4.241  0.7903 -1.9716  2.0133
  128SOPE  H17Y13828  -0.521   5.958   4.344  3.7442  3.4500  2.7956
  128SOPE  C31813829  -0.409   5.794   4.443  0.0274  0.1750  0.7781
  128SOPE  H18X13830  -0.352   5.853   4.518 -0.3317  0.2597  0.9840
  128SOPE  H18Y13831  -0.349   5.706   4.409 -0.0448  0.8821 -1.3207
  128SOPE  H18Z13832  -0.502   5.765   4.496 -0.5604 -0.0859 -0.3629
  129OSM      N13833   5.298   1.077   7.383 -0.0182  0.3743 -0.4095
  129OSM    C1513834   5.231   0.972   7.468  0.1951 -0.3685 -0.5250
  129OSM   H15A13835   5.222   0.995   7.573  1.2065 -3.9293  0.5036
  129OSM   H15B13836   5.291   0.883   7.454  0.2457 -0.3511 -0.4171
  129OSM   H15C13837   5.135   0.948   7.424 -0.9294  1.7627  0.6230
  129OSM    C1413838   5.201   1.194   7.368 -0.1610 -0.1532  1.1129
  129OSM   H14A13839   5.166   1.235   7.462 -0.8365  1.3154  0.2641
  129OSM   H14B13840   5.118   1.157   7.309 -0.3240 -1.4947  2.1504
  129OSM   H14C13841   5.241   1.275   7.309 -1.7045  0.8248  1.3408
  129OSM    C1313842   5.420   1.118   7.459  0.9630 -0.3422  0.4475
  129OSM   H13A13843   5.387   1.173   7.546 -0.4866  4.3214 -2.6413
  129OSM   H13B13844   5.484   1.184   7.402 -0.9217  1.0181 -0.2181
  129OSM   H13C13845   5.485   1.033   7.470  0.3199 -1.1198 -1.3492
  129OSM    C1213846   5.329   1.020   7.236 -0.7200  0.1924  0.1682
  129OSM   H12A13847   5.333   1.108   7.173 -2.6186  0.0173 -0.2598
  129OSM   H12B13848   5.243   0.971   7.193 -0.4147 -0.8224  0.6749
  129OSM    C1113849   5.444   0.925   7.203  0.4335  0.5768  0.1858
  129OSM   H11A13850   5.545   0.965   7.228  0.3001 -0.2254  2.1803
  129OSM   H11B13851   5.449   0.915   7.092  1.9610 -2.3862  0.4074
  129OSM      P13852   5.346   0.678   7.226 -0.2202  0.2654  0.4273
  129OSM    O1313853   5.452   0.574   7.229 -0.2210  0.0096  0.6856
  129OSM    O1413854   5.231   0.652   7.313  0.2181  0.7319 -0.5299
  129OSM    O1113855   5.301   0.709   7.072 -0.1101  0.4482 -0.3678
  129OSM    O1213856   5.421   0.804   7.274  0.4052 -0.6466  0.0083
  129OSM    C1S13857   5.184   0.647   7.025 -0.0530 -0.2347  0.9195
  129OSM    H1S13858   5.100   0.645   7.098 -1.7165  1.5194 -0.8108
  129OSM    H1T13859   5.202   0.539   7.010  0.0546 -0.3308  1.7077
  129OSM     NF13860   4.995   0.654   6.867  0.3446  0.2012  0.7497
  129OSM    HNF13861   4.996   0.587   6.793 -0.7078  0.1075  0.8038
  129OSM    C2S13862   5.121   0.718   6.894  0.6068 -1.3005 -0.6103
  129OSM    H2S13863   5.112   0.827   6.918 -0.1929 -1.8891  2.0599
  129OSM    C3S13864   5.219   0.687   6.771 -0.5117 -0.2380 -0.8050
  129OSM    H3S13865   5.213   0.580   6.741 -2.2750  0.0726 -1.6904
  129OSM     O313866   5.355   0.714   6.814  0.2774 -0.1405 -0.0581
  129OSM    HO313867   5.346   0.717   6.909 -0.9793 -0.9861 -0.1361
  129OSM    C4S13868   5.170   0.765   6.652  0.5121 -0.3977 -0.2364
  129OSM    H4S13869   5.068   0.806   6.649  0.7657  0.3754  0.9843
  129OSM    C5S13870   5.249   0.809   6.553  0.6353  0.4754  0.5534
  129OSM    H5S13871   5.358   0.794   6.560  0.9868  1.4571 -1.7925
  129OSM    C6S13872   5.210   0.896   6.436  0.1430  0.5202  0.4111
  129OSM    H6S13873   5.281   0.981   6.423 -0.0192  0.4236 -1.3335
  129OSM    H6T13874   5.106   0.933   6.448  0.3415  0.7423  1.5723
  129OSM    C7S13875   5.218   0.821   6.300 -0.9326  0.8732  0.2015
  129OSM    H7S13876   5.134   0.749   6.300 -0.0034 -0.2533  1.2654
  129OSM    H7T13877   5.309   0.765   6.271 -0.6899  1.3110  0.1020
  129OSM    C8S13878   5.197   0.927   6.189 -0.7997 -0.3786  0.0268
  129OSM    H8S13879   5.275   1.006   6.184  1.0737 -2.2080 -2.4380
  129OSM    H8T13880   5.100   0.973   6.213 -0.6514 -0.9732  1.9275
  129OSM    C9S13881   5.196   0.862   6.049  0.0104  0.2028  0.9882
  129OSM    H9S13882   5.106   0.797   6.043  0.7477 -0.7778  0.0215
  129OSM    H9T13883   5.290   0.803   6.048 -1.9683 -3.2014  2.0165
  129OSM   C10S13884   5.181   0.972   5.945 -0.3429 -0.1169  0.2491
  129OSM   H10S13885   5.250   1.053   5.976 -0.9853  0.8005 -0.6414
  129OSM   H10T13886   5.077   1.008   5.957  0.0681  1.1391  0.1838
  129OSM   C11S13887   5.215   0.922   5.805 -0.3373  0.3662 -0.2296
  129OSM   H11S13888   5.146   0.840   5.778  2.0922 -1.7097 -0.4260
  129OSM   H11T13889   5.321   0.890   5.804 -0.0310  1.3521 -0.2193
  129OSM   C12S13890   5.197   1.022   5.687 -0.4880 -0.0173  0.7164
  129OSM   H12S13891   5.258   1.111   5.711  0.1795 -0.1101 -0.5434
  129OSM   H12T13892   5.090   1.049   5.681 -0.3320  0.3044 -1.0911
  129OSM   C13S13893   5.246   0.963   5.556  0.2772 -0.1712  0.1256
  129OSM   H13S13894   5.185   0.874   5.528  2.7678 -2.2619  0.9438
  129OSM   H13T13895   5.351   0.931   5.571  0.3416 -0.5828 -1.0371
  129OSM   C14S13896   5.234   1.067   5.443 -0.3938 -0.0076  0.3824
  129OSM   H14S13897   5.303   1.154   5.454 -2.4533  1.6716  0.6503
  129OSM   H14T13898   5.131   1.109   5.447  0.1251  1.3134  0.6808
  129OSM   C15S13899   5.253   1.005   5.303  0.2448 -0.0616 -0.5528
  129OSM   H15S13900   5.170   0.931   5.299  0.9514 -1.2304  2.9307
  129OSM   H15T13901   5.354   0.959   5.300  1.1348  1.8424 -2.0721
  129OSM   C16S13902   5.245   1.119   5.198 -0.0024  0.5568  0.5953
  129OSM   H16S13903   5.253   1.213   5.257 -2.0142  0.3772  1.2073
  129OSM   H16T13904   5.147   1.115   5.147 -0.3669 -1.3644  1.3718
  129OSM   C17S13905   5.371   1.113   5.102  0.4901  0.0815 -0.4187
  129OSM   H17S13906   5.372   1.204   5.038 -1.9697  1.3350  1.1598
  129OSM   H17T13907   5.356   1.024   5.037  0.5987 -1.9691  2.1795
  129OSM   C18S13908   5.510   1.122   5.170  0.4133 -0.3732 -0.1486
  129OSM   H18S13909   5.511   1.195   5.254  0.5832  0.8958 -1.2113
  129OSM   H18T13910   5.591   1.157   5.103  2.0409  0.6132  2.1913
  129OSM   H18U13911   5.541   1.022   5.206  0.7900 -0.8132 -1.6285
  129OSM    C1F13912   4.881   0.682   6.936 -0.0048  0.9777  1.0908
  129OSM     OF13913   4.882   0.777   7.014 -0.4962  0.7627  0.9049
  129OSM    C2F13914   4.764   0.592   6.918  0.3357  0.3104 -0.4259
  129OSM    H2F13915   4.700   0.582   7.008  0.7659 -0.9291 -0.2385
  129OSM    H2G13916   4.808   0.493   6.894 -0.1994 -0.4896  1.6450
  129OSM    C3F13917   4.665   0.642   6.806 -0.6192 -0.2176 -1.0285
  129OSM    H3F13918   4.642   0.749   6.825 -2.9797 -0.6694 -1.0164
  129OSM    H3G13919   4.568   0.589   6.815  0.6450 -2.5084 -0.2666
  129OSM    C4F13920   4.719   0.634   6.660  0.5011  0.5833  0.5122
  129OSM    H4F13921   4.730   0.524   6.648 -0.4342  0.3783  1.3991
  129OSM    H4G13922   4.819   0.683   6.663 -0.3291  2.3763  0.3655
  129OSM    C5F13923   4.609   0.683   6.560 -0.6654  0.4992 -0.2673
  129OSM    H5F13924   4.578   0.785   6.594 -2.9432 -0.9279  2.3904
  129OSM    H5G13925   4.521   0.617   6.572  1.0102 -1.5372  1.5940
  129OSM    C6F13926   4.654   0.691   6.413 -0.3408 -0.4951 -0.4316
  129OSM    H6F13927   4.652   0.588   6.373 -0.8366 -0.5538 -0.2665
  129OSM    H6G13928   4.755   0.737   6.412 -0.3765 -0.4071 -1.6826
  129OSM    C7F13929   4.560   0.775   6.323  1.0746 -0.5099  0.0950
  129OSM    H7F13930   4.557   0.877   6.367  1.9327 -0.0967 -0.7604
  129OSM    H7G13931   4.459   0.729   6.316  0.1995  0.8768  2.4718
  129OSM    C8F13932   4.609   0.796   6.178 -0.1809 -0.4994 -0.3070
  129OSM    H8F13933   4.574   0.710   6.116  1.3325 -1.9516  0.7554
  129OSM    H8G13934   4.719   0.793   6.173 -0.2088 -2.9194 -0.9419
  129OSM    C9F13935   4.555   0.926   6.124 -0.1046 -0.1126  1.0643
  129OSM    H9F13936   4.618   1.009   6.159 -1.5175  1.0527  0.9546
  129OSM   C10F13937   4.455   0.950   6.036  0.2853  0.1050  0.2560
  129OSM   H10F13938   4.455   1.055   6.005  0.3513  1.0230  3.0707
  129OSM   C11F13939   4.357   0.854   5.969  0.5186 -0.6313 -0.2419
  129OSM   H11F13940   4.276   0.835   6.043  0.6003  0.9034  0.2941
  129OSM   H11G13941   4.408   0.760   5.942 -1.6069 -1.3774 -1.9390
  129OSM   C12F13942   4.305   0.908   5.834 -0.1240  0.3781 -0.1880
  129OSM   H12F13943   4.388   0.934   5.765 -1.3790 -1.5416 -2.6174
  129OSM   H12G13944   4.250   1.004   5.846 -0.8827  0.0304 -0.7297
  129OSM   C13F13945   4.227   0.804   5.762  0.3588  0.8561 -0.9194
  129OSM   H13F13946   4.149   0.758   5.827  0.5016  0.5539 -0.9592
  129OSM   H13G13947   4.294   0.719   5.735 -0.1813  0.0533  0.1772
  129OSM   C14F13948   4.167   0.860   5.633  0.0026  0.2780 -0.1101
  129OSM   H14F13949   4.249   0.903   5.572 -0.0135  1.3183  0.5756
  129OSM   H14G13950   4.093   0.943   5.638 -2.5268 -1.6643 -2.3513
  129OSM   C15F13951   4.092   0.754   5.547  1.0953 -0.1438  0.2817
  129OSM   H15F13952   3.991   0.740   5.591  0.9467  1.0334  0.3367
  129OSM   H15G13953   4.147   0.657   5.554 -1.8825 -1.9674  0.0859
  129OSM   C16F13954   4.079   0.810   5.400  0.4168  0.2487  0.6381
  129OSM   H16F13955   4.040   0.913   5.386 -0.7725 -0.0498  1.5520
  129OSM   H16G13956   3.998   0.750   5.353 -0.0061 -0.7761  2.5490
  129OSM   C17F13957   4.203   0.796   5.313 -0.6140  0.7345  0.3185
  129OSM   H17F13958   4.275   0.875   5.343  0.8638 -1.4314  2.8827
  129OSM   H17G13959   4.177   0.806   5.206  1.0555  0.8171 -0.0983
  129OSM   C18F13960   4.274   0.657   5.337 -0.5535 -0.2647 -0.3300
  129OSM   H18F13961   4.201   0.577   5.314 -2.7144  1.6338 -0.5068
  129OSM   H18G13962   4.316   0.661   5.439 -1.9564 -1.2225  0.3169
  129OSM   H18H13963   4.359   0.658   5.265 -0.7382  1.6456 -0.5875
  130OSM      N13964   6.747   1.257   7.331  0.4684 -0.3210 -0.1566
  130OSM    C1513965   6.703   1.157   7.423  0.1384  0.6400 -0.4325
  130OSM   H15A13966   6.736   1.057   7.398  0.1107  0.0645  1.5986
  130OSM   H15B13967   6.595   1.157   7.422  0.1406  0.7296 -0.6657
  130OSM   H15C13968   6.730   1.183   7.525 -0.7785 -0.1281  0.0202
  130OSM    C1413969   6.690   1.388   7.377  0.3330  0.0896  0.4927
  130OSM   H14A13970   6.711   1.462   7.301  1.8185 -0.9685 -0.1820
  130OSM   H14B13971   6.749   1.417   7.463  1.1429 -0.6852  0.2164
  130OSM   H14C13972   6.587   1.372   7.406  0.5163 -2.5849 -0.0250
  130OSM    C1313973   6.892   1.265   7.345  0.5412 -0.2643 -0.2026
  130OSM   H13A13974   6.933   1.197   7.272 -1.2316 -0.1938 -1.3154
  130OSM   H13B13975   6.921   1.249   7.448  0.4072  2.0604  0.2545
  130OSM   H13C13976   6.927   1.363   7.316  0.8092  0.5354  2.5626
  130OSM    C1213977   6.690   1.229   7.191  0.0895  0.7429 -0.3316
  130OSM   H12A13978   6.582   1.222   7.199  0.2454 -0.5613  0.8658
  130OSM   H12B13979   6.727   1.133   7.161  0.2550  0.6231  0.2484
  130OSM    C1113980   6.730   1.313   7.067 -0.2778  0.1013 -0.7121
  130OSM   H11A13981   6.705   1.419   7.090 -1.1855  0.1450 -1.8083
  130OSM   H11B13982   6.663   1.284   6.983  0.9049  1.2109 -2.1017
  130OSM      P13983   6.925   1.181   6.938  0.4447  0.1302 -0.1350
  130OSM    O1313984   7.059   1.156   6.980  0.2194  0.1447  0.1988
  130OSM    O1413985   6.821   1.072   6.952  0.1528  0.3862 -0.3065
  130OSM    O1113986   6.922   1.240   6.786  0.2797  0.0573 -0.3149
  130OSM    O1213987   6.866   1.303   7.028 -0.1547 -0.4211  0.3691
  130OSM    C1S13988   6.908   1.379   6.760 -0.1382  0.0387  0.6087
  130OSM    H1S13989   6.972   1.429   6.835  1.2247 -2.0020  0.9046
  130OSM    H1T13990   6.803   1.414   6.763 -0.0459  0.4341 -0.4058
  130OSM     NF13991   6.961   1.560   6.605 -0.0974 -0.1851  0.1297
  130OSM    HNF13992   6.893   1.598   6.542  0.6110  0.3688 -0.3206
  130OSM    C2S13993   6.963   1.422   6.618 -0.4064 -0.1658  0.2286
  130OSM    H2S13994   7.069   1.392   6.608 -0.5046 -0.0897 -1.1882
  130OSM    C3S13995   6.872   1.346   6.512  0.1378  0.6666 -0.0711
  130OSM    H3S13996   6.770   1.387   6.527 -0.5737 -1.2100  0.5231
  130OSM     O313997   6.857   1.203   6.541  0.6989  0.0489  0.1066
  130OSM    HO313998   6.890   1.193   6.630 -1.0123 -0.4373  0.7178
  130OSM    C4S13999   6.911   1.363   6.369  0.6495  0.0106 -0.3059
  130OSM    H4S14000   6.859   1.449   6.325 -1.8870 -0.1976  2.0269
  130OSM    C5S14001   7.003   1.286   6.300  0.3734 -0.7188 -0.1296
  130OSM    H5S14002   7.043   1.201   6.358  0.3449 -1.2851 -0.9260
  130OSM    C6S14003   7.043   1.301   6.154  0.0167  0.0402 -0.1917
  130OSM    H6S14004   7.002   1.213   6.100  0.4394 -0.0647 -0.3482
  130OSM    H6T14005   7.153   1.312   6.142 -0.3067  2.1758 -2.1151
  130OSM    C7S14006   6.973   1.418   6.074 -0.3327  0.0391  0.0431
  130OSM    H7S14007   7.003   1.517   6.115 -1.7628 -0.5383  2.7315
  130OSM    H7T14008   6.863   1.411   6.083 -0.4300  2.8420  2.6444
  130OSM    C8S14009   7.021   1.418   5.923 -0.2893 -0.8253  0.1526
  130OSM    H8S14010   6.979   1.326   5.879 -0.3688 -1.3436  1.2674
  130OSM    H8T14011   7.132   1.413   5.920 -0.2352  0.5442 -0.9847
  130OSM    C9S14012   6.967   1.535   5.846 -0.8179 -0.3827  0.6692
  130OSM    H9S14013   7.015   1.628   5.885  0.4148  0.5106 -2.6217
  130OSM    H9T14014   6.858   1.534   5.866 -0.3517  1.3726  4.0926
  130OSM   C10S14015   6.985   1.535   5.692  0.1392 -0.2389  0.7553
  130OSM   H10S14016   6.949   1.436   5.655  0.3420 -0.0572  0.0566
  130OSM   H10T14017   7.095   1.538   5.675  0.2943 -0.2593  1.6678
  130OSM   C11S14018   6.919   1.660   5.639  0.2676 -0.0385  0.0465
  130OSM   H11S14019   6.964   1.740   5.701  0.5549  0.5634 -0.9241
  130OSM   H11T14020   6.811   1.650   5.662 -0.1538  1.2860 -1.2114
  130OSM   C12S14021   6.941   1.672   5.484 -0.7947 -0.2857  0.5873
  130OSM   H12S14022   7.048   1.695   5.460 -0.1754 -2.3109  1.1980
  130OSM   H12T14023   6.874   1.754   5.451 -0.1576 -0.7615 -2.1618
  130OSM   C13S14024   6.911   1.535   5.407 -0.1937  0.3638  0.0187
  130OSM   H13S14025   6.812   1.495   5.433 -1.1790  3.0764  0.7790
  130OSM   H13T14026   6.984   1.457   5.438  0.4643  1.1627  0.5230
  130OSM   C14S14027   6.898   1.566   5.252  0.6599  0.2384 -0.2524
  130OSM   H14S14028   6.826   1.650   5.242  0.4668 -0.1302 -2.5493
  130OSM   H14T14029   6.859   1.474   5.204 -0.8515  0.0877  1.1619
  130OSM   C15S14030   7.030   1.605   5.186  0.5455 -0.2540  0.0330
  130OSM   H15S14031   7.068   1.705   5.216  0.6534 -0.2084 -0.2620
  130OSM   H15T14032   7.022   1.605   5.076 -1.7406 -0.7991  0.1303
  130OSM   C16S14033   7.137   1.495   5.208 -0.5893  0.5076  0.0285
  130OSM   H16S14034   7.072   1.405   5.215 -0.7039  0.6607  1.1934
  130OSM   H16T14035   7.181   1.512   5.309 -1.8470  1.3526  0.4709
  130OSM   C17S14036   7.255   1.509   5.106  0.1819  0.5383 -0.5495
  130OSM   H17S14037   7.337   1.449   5.152  0.7393  1.9685  0.3974
  130OSM   H17T14038   7.292   1.613   5.098  2.0799 -0.1577 -1.4338
  130OSM   C18S14039   7.219   1.450   4.962 -0.4555 -0.1075 -0.1752
  130OSM   H18S14040   7.292   1.495   4.892  0.0154  0.7942  0.8662
  130OSM   H18T14041   7.120   1.487   4.928  1.0642  2.8889 -1.7137
  130OSM   H18U14042   7.232   1.340   4.956  1.0804 -0.0525  1.3363
  130OSM    C1F14043   7.048   1.640   6.672 -0.1403 -0.7475  0.5249
  130OSM     OF14044   7.138   1.595   6.740 -0.0379  0.2886 -0.4315
  130OSM    C2F14045   7.042   1.792   6.658 -0.5634 -0.0300 -0.3657
  130OSM    H2F14046   7.147   1.824   6.677 -0.3433 -0.9720  0.0647
  130OSM    H2G14047   6.979   1.846   6.732 -1.6425 -0.8196 -0.6907
  130OSM    C3F14048   6.991   1.840   6.516 -1.0017 -0.0202  0.0549
  130OSM    H3F14049   7.016   1.948   6.513  1.5396 -0.4858  1.5593
  130OSM    H3G14050   6.881   1.824   6.520 -0.6575 -2.7982  0.9164
  130OSM    C4F14051   7.064   1.778   6.396  0.3178 -0.2042 -0.2318
  130OSM    H4F14052   7.078   1.668   6.400  2.0370  0.0119  0.8349
  130OSM    H4G14053   7.164   1.826   6.406  0.1820  0.3708 -1.4824
  130OSM    C5F14054   6.999   1.816   6.256 -1.0008  0.1808 -0.9750
  130OSM    H5F14055   6.888   1.812   6.268 -0.7831 -0.3956  1.2254
  130OSM    H5G14056   7.057   1.754   6.185  0.9122  0.4932  0.2352
  130OSM    C6F14057   7.037   1.970   6.241  0.5852  0.8192 -0.2220
  130OSM    H6F14058   7.145   1.984   6.258  0.6056 -2.6201  4.1465
  130OSM    H6G14059   6.978   2.013   6.325 -1.0355 -1.8283  0.0987
  130OSM    C7F14060   6.994   2.044   6.112  0.6613  0.2481  0.5451
  130OSM    H7F14061   7.003   2.155   6.124 -1.5591  0.8741 -2.3975
  130OSM    H7G14062   6.886   2.030   6.095  0.7146  1.0065 -0.4828
  130OSM    C8F14063   7.069   1.994   5.986 -0.1684 -0.0938 -0.0453
  130OSM    H8F14064   7.056   1.884   5.971 -0.0184 -0.0161 -0.7675
  130OSM    H8G14065   7.174   2.010   6.019 -0.3255  0.5425  0.1475
  130OSM    C9F14066   7.024   2.079   5.870  0.0598 -0.5510  0.5361
  130OSM    H9F14067   6.928   2.127   5.891 -0.1201 -1.0876  0.9520
  130OSM   C10F14068   7.083   2.094   5.747  0.0922  0.7244 -0.4113
  130OSM   H10F14069   7.031   2.156   5.672 -2.1225  0.6385  0.9409
  130OSM   C11F14070   7.217   2.036   5.707  0.3147  0.0908 -0.0823
  130OSM   H11F14071   7.213   1.982   5.609  1.5984 -0.5291  0.1823
  130OSM   H11G14072   7.254   1.953   5.770  0.8842 -0.2815 -0.8879
  130OSM   C12F14073   7.334   2.138   5.693 -0.7342 -1.0720 -0.4405
  130OSM   H12F14074   7.432   2.087   5.703 -0.6295 -0.5633  1.8788
  130OSM   H12G14075   7.333   2.214   5.775  0.8363 -0.5876 -0.8482
  130OSM   C13F14076   7.321   2.225   5.566 -0.5728 -0.3649  0.1778
  130OSM   H13F14077   7.377   2.317   5.592  0.3479 -0.4251 -1.4813
  130OSM   H13G14078   7.217   2.262   5.570  0.2532  2.0239  1.3018
  130OSM   C14F14079   7.372   2.171   5.440 -0.0256  0.6080 -0.2848
  130OSM   H14F14080   7.323   2.071   5.431  1.7545 -0.3011 -0.3980
  130OSM   H14G14081   7.482   2.162   5.427 -0.0529 -1.3502  0.4863
  130OSM   C15F14082   7.307   2.244   5.319 -0.8978 -0.5037  0.0304
  130OSM   H15F14083   7.360   2.340   5.304  1.0439 -1.7343 -1.3624
  130OSM   H15G14084   7.199   2.260   5.339 -1.1537 -1.4602 -0.4988
  130OSM   C16F14085   7.329   2.153   5.197  0.1415  0.3669 -0.1090
  130OSM   H16F14086   7.434   2.122   5.176  0.1987  1.4548 -1.5604
  130OSM   H16G14087   7.317   2.217   5.107 -3.6156  2.3593  1.6198
  130OSM   C17F14088   7.228   2.040   5.182  0.2899 -0.7289 -0.0755
  130OSM   H17F14089   7.125   2.082   5.180  0.5647 -0.0007  0.5057
  130OSM   H17G14090   7.235   1.967   5.266 -2.2800  1.1867  1.9771
  130OSM   C18F14091   7.246   1.967   5.059  0.3476  0.0036  0.7481
  130OSM   H18F14092   7.256   2.043   4.980  0.0074  0.1127  0.8096
  130OSM   H18G14093   7.167   1.892   5.035  1.7523 -0.9036 -1.3995
  130OSM   H18H14094   7.328   1.892   5.060 -1.8002 -2.6324 -1.4729
  131OSM      N14095   6.221   5.583   7.352 -0.0606 -0.1024 -0.5796
  131OSM    C1514096   6.274   5.572   7.490  0.9444  0.5554  0.0938
  131OSM   H15A14097   6.249   5.659   7.548  0.1292 -0.8344  1.9440
  131OSM   H15B14098   6.376   5.536   7.491  1.6207  2.3477 -0.6339
  131OSM   H15C14099   6.220   5.488   7.531  2.3983 -0.3008  0.3344
  131OSM    C1414100   6.076   5.629   7.371 -0.5834 -0.0302 -0.1483
  131OSM   H14A14101   6.066   5.713   7.439  0.2449 -0.3461  0.3711
  131OSM   H14B14102   6.018   5.544   7.403 -1.1566  0.0292 -1.0005
  131OSM   H14C14103   6.038   5.664   7.276 -0.2895 -0.2782 -0.3560
  131OSM    C1314104   6.298   5.691   7.284  0.1767 -0.1006 -0.2804
  131OSM   H13A14105   6.397   5.653   7.264 -0.2773 -0.3683 -2.2957
  131OSM   H13B14106   6.293   5.774   7.352  1.5665 -1.2229  1.2689
  131OSM   H13C14107   6.259   5.721   7.188  0.8353 -1.2118 -0.9140
  131OSM    C1214108   6.234   5.463   7.270 -0.0281  1.2741  0.3852
  131OSM   H12A14109   6.202   5.374   7.320 -1.2863  1.2612 -0.4026
  131OSM   H12B14110   6.336   5.463   7.232  0.1542  1.2926  0.8659
  131OSM    C1114111   6.159   5.458   7.133  0.3819  0.3152  1.2878
  131OSM   H11A14112   6.056   5.492   7.157  0.7138  0.8799  1.9761
  131OSM   H11B14113   6.161   5.354   7.094  3.3199  0.4036  0.9832
  131OSM      P14114   6.346   5.542   6.972 -0.0418  0.5234  0.3929
  131OSM    O1314115   6.364   5.660   6.884 -0.0481 -0.6762 -0.1734
  131OSM    O1414116   6.452   5.527   7.070 -0.1693  0.4381 -0.1272
  131OSM    O1114117   6.337   5.412   6.891 -0.1974 -0.4074 -0.1349
  131OSM    O1214118   6.214   5.547   7.045 -0.1769  0.0738 -0.5161
  131OSM    C1S14119   6.250   5.401   6.778 -0.0633 -0.5136 -0.2006
  131OSM    H1S14120   6.158   5.459   6.801  0.2780  1.0006 -2.3690
  131OSM    H1T14121   6.212   5.298   6.766 -0.7325 -0.9728  4.2777
  131OSM     NF14122   6.182   5.480   6.550  0.0122  0.0294 -0.5074
  131OSM    HNF14123   6.164   5.405   6.487 -2.6312  0.3409 -0.2059
  131OSM    C2S14124   6.296   5.460   6.639 -0.4052  0.1299 -0.3655
  131OSM    H2S14125   6.333   5.563   6.656 -2.5977  1.2940 -2.1182
  131OSM    C3S14126   6.414   5.374   6.591  0.0980  0.7063  0.8255
  131OSM    H3S14127   6.374   5.271   6.573  1.3161 -0.0316  2.1460
  131OSM     O314128   6.512   5.333   6.687 -0.1617 -0.2739 -0.4250
  131OSM    HO314129   6.482   5.375   6.767 -1.2350  0.4413 -1.1881
  131OSM    C4S14130   6.468   5.412   6.453  0.0974 -0.0176 -0.2283
  131OSM    H4S14131   6.426   5.339   6.383 -1.7611  0.5081  0.2642
  131OSM    C5S14132   6.561   5.502   6.418  0.0622  0.2257  0.1400
  131OSM    H5S14133   6.602   5.570   6.494  0.4022  0.3224 -0.1250
  131OSM    C6S14134   6.614   5.537   6.282  0.3016  0.5067 -0.5487
  131OSM    H6S14135   6.714   5.490   6.271 -0.6146 -1.2217 -2.1486
  131OSM    H6T14136   6.635   5.645   6.274 -2.7707  1.0612 -3.1868
  131OSM    C7S14137   6.520   5.510   6.162  0.2430 -0.1048 -0.5506
  131OSM    H7S14138   6.419   5.557   6.168  0.0481 -0.2003 -2.3609
  131OSM    H7T14139   6.495   5.402   6.166  0.4531 -0.1018  1.7149
  131OSM    C8S14140   6.581   5.548   6.022 -0.1886 -0.2584 -0.9092
  131OSM    H8S14141   6.667   5.478   6.020 -1.7134 -2.2703  0.1105
  131OSM    H8T14142   6.621   5.652   6.021  0.4566 -0.4831 -3.5185
  131OSM    C9S14143   6.492   5.509   5.902 -0.1304  0.7291 -0.2181
  131OSM    H9S14144   6.403   5.575   5.910  0.3937  1.4165  0.1259
  131OSM    H9T14145   6.466   5.401   5.904  3.5746 -0.4978 -3.4667
  131OSM   C10S14146   6.567   5.549   5.774  1.0490 -0.2556  0.4034
  131OSM   H10S14147   6.609   5.651   5.787  1.5069 -0.5430  1.2587
  131OSM   H10T14148   6.491   5.547   5.693  0.0815  2.1875  1.1786
  131OSM   C11S14149   6.685   5.448   5.750 -0.0896 -0.3496 -0.3954
  131OSM   H11S14150   6.644   5.346   5.738 -1.8932  0.2685  0.0720
  131OSM   H11T14151   6.755   5.449   5.836  1.9241 -0.1127 -1.9643
  131OSM   C12S14152   6.764   5.485   5.621  0.2184 -0.3936 -0.5064
  131OSM   H12S14153   6.848   5.416   5.599 -0.0855 -0.4982 -1.3791
  131OSM   H12T14154   6.819   5.576   5.655 -0.1269 -0.8087  1.2617
  131OSM   C13S14155   6.681   5.500   5.493  0.1586 -0.0778 -0.0569
  131OSM   H13S14156   6.628   5.598   5.494  1.0212  0.4025 -0.2743
  131OSM   H13T14157   6.608   5.416   5.491 -0.4253  0.3419  1.8181
  131OSM   C14S14158   6.766   5.508   5.366  0.4950  0.5116  0.5437
  131OSM   H14S14159   6.856   5.571   5.384  2.1762 -1.5701 -0.1730
  131OSM   H14T14160   6.696   5.560   5.298  1.8220  3.1431  1.0384
  131OSM   C15S14161   6.796   5.375   5.303  0.0775 -1.2128 -0.0369
  131OSM   H15S14162   6.703   5.314   5.296 -0.8875  0.3384 -1.2624
  131OSM   H15T14163   6.868   5.325   5.372 -0.8422 -1.7022  0.6006
  131OSM   C16S14164   6.866   5.386   5.164  0.2447 -0.4334 -0.3851
  131OSM   H16S14165   6.974   5.409   5.180  0.1160  0.5966 -0.8736
  131OSM   H16T14166   6.822   5.473   5.110  1.9525 -0.7636 -2.4182
  131OSM   C17S14167   6.848   5.265   5.074 -0.0953  0.5796  0.0253
  131OSM   H17S14168   6.898   5.276   4.976  0.4997 -4.5728 -0.4740
  131OSM   H17T14169   6.742   5.235   5.065  0.1966 -0.5463  0.2796
  131OSM   C18S14170   6.905   5.139   5.133  0.8729 -0.5180  0.4722
  131OSM   H18S14171   6.878   5.126   5.241  0.8380 -1.4115  0.3600
  131OSM   H18T14172   7.016   5.143   5.136  1.2320 -2.9517 -3.4956
  131OSM   H18U14173   6.859   5.048   5.088 -0.8259 -0.8593  2.6813
  131OSM    C1F14174   6.091   5.571   6.561 -0.3309  0.0081  0.5169
  131OSM     OF14175   6.104   5.649   6.654 -1.0458 -0.1655  0.0729
  131OSM    C2F14176   5.968   5.565   6.473  0.2284 -0.2471  0.6942
  131OSM    H2F14177   5.901   5.642   6.517 -0.2657  0.1084 -0.6319
  131OSM    H2G14178   5.909   5.472   6.485  1.2180 -1.1331 -0.8256
  131OSM    C3F14179   6.006   5.624   6.335 -0.1167 -0.6959 -0.1805
  131OSM    H3F14180   6.090   5.695   6.345  0.1506 -1.1465  0.9012
  131OSM    H3G14181   5.918   5.672   6.285 -0.1513 -1.6802 -1.1087
  131OSM    C4F14182   6.045   5.511   6.235  1.1381 -0.4702 -0.2137
  131OSM    H4F14183   5.976   5.427   6.257 -0.3459  0.8590  0.4895
  131OSM    H4G14184   6.143   5.470   6.267  1.0173 -2.8732 -2.5917
  131OSM    C5F14185   6.043   5.561   6.095  0.2806 -1.1216  0.3439
  131OSM    H5F14186   6.106   5.652   6.098  2.6019 -2.6565  2.2847
  131OSM    H5G14187   5.940   5.580   6.058  0.1950 -0.8550  0.7189
  131OSM    C6F14188   6.109   5.467   5.991 -0.3912 -0.8376  0.1129
  131OSM    H6F14189   6.053   5.372   5.982 -0.0497 -0.8917 -2.1524
  131OSM    H6G14190   6.212   5.433   6.016  0.5298 -0.8062 -3.1065
  131OSM    C7F14191   6.105   5.536   5.854  0.1005 -0.2357  0.5016
  131OSM    H7F14192   6.165   5.629   5.858 -1.0641  0.5150  2.5295
  131OSM    H7G14193   5.996   5.555   5.838 -0.1463 -1.8204  0.1348
  131OSM    C8F14194   6.167   5.448   5.747  0.4122 -0.6074  0.2793
  131OSM    H8F14195   6.106   5.355   5.744 -1.3238  0.4801  0.6332
  131OSM    H8G14196   6.269   5.414   5.776  0.8774 -1.3491 -1.9872
  131OSM    C9F14197   6.163   5.519   5.616 -0.1867  0.0553  0.0110
  131OSM    H9F14198   6.173   5.628   5.625  1.1215 -0.1234  1.1409
  131OSM   C10F14199   6.132   5.468   5.493 -0.3372 -0.3156  0.2019
  131OSM   H10F14200   6.128   5.537   5.407 -0.3849  0.9630  1.1908
  131OSM   C11F14201   6.112   5.319   5.462  0.3365 -0.2196 -0.0700
  131OSM   H11F14202   6.047   5.303   5.373  1.5517  2.4753 -1.5712
  131OSM   H11G14203   6.065   5.283   5.555  1.7888 -0.2909  0.6658
  131OSM   C12F14204   6.245   5.241   5.435  0.0084  0.0701  0.4427
  131OSM   H12F14205   6.210   5.138   5.413 -1.9569  1.2145 -2.3068
  131OSM   H12G14206   6.307   5.238   5.527 -0.5562 -0.6893  0.8019
  131OSM   C13F14207   6.324   5.291   5.311  0.0468 -0.2197 -0.6383
  131OSM   H13F14208   6.420   5.237   5.301 -0.2766 -0.6699 -1.4542
  131OSM   H13G14209   6.343   5.400   5.322  0.5944 -0.3679 -0.0944
  131OSM   C14F14210   6.256   5.265   5.171 -0.1663  0.6356 -0.7072
  131OSM   H14F14211   6.147   5.260   5.190  0.0278  0.6853  0.4667
  131OSM   H14G14212   6.277   5.161   5.138 -1.0973 -0.8212  2.8683
  131OSM   C15F14213   6.273   5.373   5.069 -0.1659 -0.0427 -0.0800
  131OSM   H15F14214   6.242   5.471   5.111  2.1145  0.4769  0.5348
  131OSM   H15G14215   6.203   5.351   4.985  0.9825 -2.7585 -0.4384
  131OSM   C16F14216   6.419   5.374   5.017  0.1868 -0.5492  0.0233
  131OSM   H16F14217   6.448   5.281   4.964 -1.1116 -1.5353  0.9789
  131OSM   H16G14218   6.501   5.403   5.086 -1.1594  1.7030  0.7577
  131OSM   C17F14219   6.426   5.485   4.907 -0.6318  0.1128  0.4334
  131OSM   H17F14220   6.355   5.567   4.931  0.7216  1.9961 -1.7332
  131OSM   H17G14221   6.386   5.446   4.811 -0.5299  0.5623  0.2081
  131OSM   C18F14222   6.567   5.537   4.878 -1.0163  0.3683 -0.8131
  131OSM   H18F14223   6.554   5.612   4.797 -1.0830  0.8904 -0.3251
  131OSM   H18G14224   6.645   5.459   4.862  1.1912  2.0624  1.1020
  131OSM   H18H14225   6.601   5.589   4.970  3.3356 -0.9509 -1.4207
  132OSM      N14226   0.683   0.885   7.118 -0.2010  0.2138 -0.2957
  132OSM    C1514227   0.734   0.982   7.213 -0.0297 -0.5650 -0.2789
  132OSM   H15A14228   0.771   1.073   7.167  2.0457 -0.1909  1.9583
  132OSM   H15B14229   0.815   0.934   7.265 -0.8500 -1.5957  0.0929
  132OSM   H15C14230   0.655   1.014   7.280  1.3096 -1.5206  1.8481
  132OSM    C1414231   0.560   0.947   7.043 -1.0476  0.1263  0.2144
  132OSM   H14A14232   0.478   0.974   7.108 -1.8654 -1.8909  0.0875
  132OSM   H14B14233   0.527   0.877   6.968  0.1480  1.7296 -1.8932
  132OSM   H14C14234   0.595   1.037   6.996 -1.4380 -0.8601 -2.0744
  132OSM    C1314235   0.793   0.858   7.019 -0.2330 -0.0215  0.4600
  132OSM   H13A14236   0.882   0.807   7.054 -0.5362 -0.6537  0.3341
  132OSM   H13B14237   0.821   0.951   6.973  1.5009 -0.6427  0.1788
  132OSM   H13C14238   0.771   0.788   6.939  1.1132  0.2255 -0.1434
  132OSM    C1214239   0.639   0.759   7.192  0.2156 -0.2127 -0.3187
  132OSM   H12A14240   0.568   0.779   7.272  2.2620  2.9165  0.9346
  132OSM   H12B14241   0.730   0.721   7.235 -0.0088 -0.0963  0.2784
  132OSM    C1114242   0.587   0.641   7.110 -0.3744 -0.3882  0.2079
  132OSM   H11A14243   0.576   0.556   7.180 -0.9706  0.7255  1.4924
  132OSM   H11B14244   0.674   0.613   7.046  0.8142  4.3535 -0.6530
  132OSM      P14245   0.336   0.678   7.121 -0.0699  0.5190  0.3760
  132OSM    O1314246   0.301   0.545   7.173 -0.2802  0.2410  0.1221
  132OSM    O1414247   0.344   0.783   7.222 -0.3298 -0.4846  0.1394
  132OSM    O1114248   0.229   0.718   7.002 -0.2602 -0.7637  0.1055
  132OSM    O1214249   0.471   0.676   7.037 -0.2713 -0.0045 -0.2356
  132OSM    C1S14250   0.251   0.825   6.912 -0.7609  0.3774  0.0703
  132OSM    H1S14251   0.354   0.866   6.914  0.2592 -1.9338 -1.2794
  132OSM    H1T14252   0.190   0.906   6.957 -0.0088 -0.0039  1.8356
  132OSM     NF14253   0.253   0.904   6.680 -0.4055 -0.2040  0.1284
  132OSM    HNF14254   0.174   0.951   6.642 -1.8476 -1.4881  1.3612
  132OSM    C2S14255   0.212   0.794   6.765  0.2533 -0.5154  0.2045
  132OSM    H2S14256   0.270   0.710   6.721 -0.0826  1.4331 -4.6298
  132OSM    C3S14257   0.051   0.778   6.758  0.6293  0.0082 -0.2226
  132OSM    H3S14258   0.005   0.869   6.801 -0.8396 -1.4681  1.4662
  132OSM     O314259   0.010   0.665   6.833  0.5786 -0.2283  0.7260
  132OSM    HO314260   0.075   0.648   6.901  0.7186 -0.4726  0.5373
  132OSM    C4S14261   0.014   0.758   6.615  0.2296 -0.3473 -0.2195
  132OSM    H4S14262   0.040   0.655   6.584  1.5861 -0.7598  2.0248
  132OSM    C5S14263  -0.041   0.846   6.530 -0.1180  0.2524  0.3259
  132OSM    H5S14264  -0.060   0.950   6.561  3.0112  0.8482  0.6044
  132OSM    C6S14265  -0.085   0.813   6.391 -0.5885 -0.7727 -0.6620
  132OSM    H6S14266  -0.187   0.769   6.390 -1.5929  1.1974  2.1533
  132OSM    H6T14267  -0.015   0.749   6.334 -1.8630 -1.6120 -1.3413
  132OSM    C7S14268  -0.106   0.955   6.320  0.3704 -0.7448  0.0421
  132OSM    H7S14269  -0.012   1.013   6.310 -1.4888  2.5935  0.7708
  132OSM    H7T14270  -0.169   1.028   6.374  1.4319 -0.0950  0.4208
  132OSM    C8S14271  -0.158   0.947   6.178 -0.0910  0.4033  0.1793
  132OSM    H8S14272  -0.257   0.895   6.169  0.2773 -0.5259  1.1843
  132OSM    H8T14273  -0.086   0.886   6.119 -0.3354 -0.4507  0.7299
  132OSM    C9S14274  -0.180   1.086   6.126 -0.2739  0.3575 -0.2541
  132OSM    H9S14275  -0.091   1.146   6.153 -0.7010  0.5994  0.6599
  132OSM    H9T14276  -0.254   1.140   6.189 -0.3886  1.1799 -1.0591
  132OSM   C10S14277  -0.204   1.089   5.979  0.1247 -0.4050 -0.2134
  132OSM   H10S14278  -0.301   1.045   5.948 -0.6980 -0.7325  2.5603
  132OSM   H10T14279  -0.136   1.025   5.918  1.9806  0.8514  0.4260
  132OSM   C11S14280  -0.221   1.237   5.925  0.7206  0.2975 -0.6603
  132OSM   H11S14281  -0.120   1.282   5.940 -0.6432  3.4283 -0.0378
  132OSM   H11T14282  -0.295   1.290   5.988  1.0187 -1.1840  1.0404
  132OSM   C12S14283  -0.255   1.242   5.779 -0.4509  0.4908 -0.3754
  132OSM   H12S14284  -0.342   1.182   5.748  1.0015 -1.8100 -0.2243
  132OSM   H12T14285  -0.168   1.195   5.728 -0.5978 -0.0026 -0.1731
  132OSM   C13S14286  -0.280   1.385   5.738  0.0925  0.0777  0.0985
  132OSM   H13S14287  -0.198   1.454   5.764 -1.1801  0.5720  3.2581
  132OSM   H13T14288  -0.359   1.421   5.807  0.1648  1.0310 -0.2983
  132OSM   C14S14289  -0.328   1.408   5.599  0.1376  0.5476  0.8255
  132OSM   H14S14290  -0.433   1.374   5.587  0.0508  0.3971  1.9232
  132OSM   H14T14291  -0.270   1.336   5.537 -1.6488  1.0099 -1.5191
  132OSM   C15S14292  -0.318   1.555   5.566 -0.2283  0.3195 -0.0760
  132OSM   H15S14293  -0.211   1.583   5.575  0.0055 -1.0044  1.7816
  132OSM   H15T14294  -0.370   1.608   5.648 -0.5348 -0.6633  0.3759
  132OSM   C16S14295  -0.365   1.590   5.422 -0.5070 -0.3175 -0.4459
  132OSM   H16S14296  -0.277   1.564   5.359 -2.1530  3.0266 -4.5493
  132OSM   H16T14297  -0.394   1.696   5.408 -1.6794 -0.6604 -0.7172
  132OSM   C17S14298  -0.489   1.519   5.373 -0.6807 -0.4726 -0.5272
  132OSM   H17S14299  -0.580   1.551   5.427 -0.9457  1.5758 -2.0826
  132OSM   H17T14300  -0.470   1.409   5.376 -0.4701 -0.4349 -0.5165
  132OSM   C18S14301  -0.513   1.559   5.227 -0.0073  0.2047 -0.3720
  132OSM   H18S14302  -0.610   1.515   5.195 -0.4824 -0.5019  1.8544
  132OSM   H18T14303  -0.433   1.530   5.156  0.1422 -2.8106  0.8859
  132OSM   H18U14304  -0.517   1.669   5.214 -0.2725  0.3607  0.8661
  132OSM    C1F14305   0.383   0.933   6.653 -0.2139  0.1803  0.0926
  132OSM     OF14306   0.475   0.869   6.708 -0.4461 -0.5621 -0.4011
  132OSM    C2F14307   0.412   1.047   6.561 -0.0362 -0.0538  0.0511
  132OSM    H2F14308   0.326   1.066   6.494  0.2043  0.9459  0.0012
  132OSM    H2G14309   0.502   1.023   6.500 -0.2282 -2.5106  0.6207
  132OSM    C3F14310   0.443   1.177   6.642  0.4810 -0.5951  0.2176
  132OSM    H3F14311   0.505   1.151   6.730  1.3138 -0.9022 -0.4368
  132OSM    H3G14312   0.351   1.226   6.679  0.6924  1.5678 -1.8251
  132OSM    C4F14313   0.530   1.270   6.565 -0.3776 -0.1784  0.1396
  132OSM    H4F14314   0.628   1.229   6.532 -0.0776  1.3077 -0.9483
  132OSM    H4G14315   0.553   1.348   6.640 -2.2912 -1.1431  1.8157
  132OSM    C5F14316   0.474   1.322   6.429  0.0122  0.0632  0.4152
  132OSM    H5F14317   0.384   1.384   6.447  0.7789  0.9794  1.2817
  132OSM    H5G14318   0.454   1.239   6.358  0.8068  1.1586 -1.1455
  132OSM    C6F14319   0.576   1.419   6.365 -0.2583  0.2250 -0.7515
  132OSM    H6F14320   0.658   1.369   6.309 -1.2971 -1.4772 -0.7969
  132OSM    H6G14321   0.616   1.475   6.452  0.1965 -1.6395  0.2943
  132OSM    C7F14322   0.499   1.522   6.277 -0.8416  0.1091  0.0257
  132OSM    H7F14323   0.399   1.543   6.319 -1.1467 -0.5773 -0.3438
  132OSM    H7G14324   0.480   1.464   6.183  0.3758 -0.2833  0.0019
  132OSM    C8F14325   0.564   1.656   6.254  0.4381  0.1311 -0.5967
  132OSM    H8F14326   0.576   1.711   6.349 -2.4257 -0.4798  0.2275
  132OSM    H8G14327   0.490   1.723   6.204 -0.2510 -0.4324 -0.3477
  132OSM    C9F14328   0.695   1.633   6.179 -0.1168 -1.0273 -0.1173
  132OSM    H9F14329   0.787   1.627   6.238  0.0398 -1.9233 -0.4507
  132OSM   C10F14330   0.707   1.620   6.046 -0.9813  0.9193 -0.7459
  132OSM   H10F14331   0.804   1.613   5.995 -0.4744  0.4726  0.2355
  132OSM   C11F14332   0.601   1.622   5.950  0.2246  0.2024  0.8592
  132OSM   H11F14333   0.510   1.671   5.990 -1.2328 -0.5536 -1.3415
  132OSM   H11G14334   0.569   1.517   5.929 -1.7860  1.1610 -1.4713
  132OSM   C12F14335   0.635   1.679   5.810 -0.4912  0.2572 -0.4805
  132OSM   H12F14336   0.732   1.633   5.780  2.0530  4.4062  0.5192
  132OSM   H12G14337   0.641   1.790   5.818  2.2798  0.0416  4.1850
  132OSM   C13F14338   0.530   1.657   5.694 -0.4778 -0.0510 -0.2145
  132OSM   H13F14339   0.432   1.686   5.737 -0.3955 -2.9314  2.2470
  132OSM   H13G14340   0.523   1.547   5.682 -2.6332 -0.5948  4.1053
  132OSM   C14F14341   0.565   1.726   5.565  0.1435  0.1421  0.1777
  132OSM   H14F14342   0.597   1.828   5.594 -0.1507 -0.1424  1.5744
  132OSM   H14G14343   0.474   1.741   5.503  0.1400 -0.2671  0.0803
  132OSM   C15F14344   0.675   1.650   5.487  0.0751  0.4072  0.5256
  132OSM   H15F14345   0.633   1.548   5.474 -1.9441  1.3315 -0.8285
  132OSM   H15G14346   0.767   1.642   5.548  0.7756 -2.3781 -0.7319
  132OSM   C16F14347   0.715   1.724   5.359 -0.5927  0.4138 -0.1122
  132OSM   H16F14348   0.787   1.800   5.394 -2.3769  1.3221  1.8255
  132OSM   H16G14349   0.622   1.777   5.329 -1.6489 -1.4933 -0.4063
  132OSM   C17F14350   0.751   1.624   5.249 -0.5296 -0.2044 -0.0162
  132OSM   H17F14351   0.674   1.544   5.238  1.3860 -1.9026 -2.4896
  132OSM   H17G14352   0.843   1.578   5.291 -1.5460 -1.4840  0.8964
  132OSM   C18F14353   0.777   1.688   5.114  0.1470 -0.1927 -0.7037
  132OSM   H18F14354   0.821   1.616   5.041 -0.0017 -1.6228  0.5511
  132OSM   H18G14355   0.849   1.772   5.120  2.5546 -2.1306 -0.5224
  132OSM   H18H14356   0.681   1.728   5.077  0.5044  0.3159 -1.0777
  133OSM      N14357   5.725   3.688   7.506 -0.6271 -0.6785  0.3367
  133OSM    C1514358   5.854   3.694   7.588  0.7662  0.3120 -0.1457
  133OSM   H15A14359   5.849   3.619   7.665  1.7108  0.5909  0.1995
  133OSM   H15B14360   5.870   3.791   7.632 -0.9420  1.0434 -1.0489
  133OSM   H15C14361   5.932   3.663   7.520 -1.4301  1.6984 -3.5942
  133OSM    C1414362   5.608   3.678   7.594 -0.3855  0.0488 -0.4148
  133OSM   H14A14363   5.600   3.588   7.652 -0.9445 -0.1781 -0.8285
  133OSM   H14B14364   5.522   3.681   7.528 -0.1370 -2.5489 -0.9660
  133OSM   H14C14365   5.605   3.762   7.661  0.5593 -0.2238 -0.0256
  133OSM    C1314366   5.731   3.804   7.420  0.0630 -0.3182  0.6664
  133OSM   H13A14367   5.708   3.889   7.483 -1.7858 -0.6672  0.5280
  133OSM   H13B14368   5.648   3.799   7.351 -2.1290  1.7709  2.9404
  133OSM   H13C14369   5.828   3.808   7.372  0.6724 -0.0653  1.8871
  133OSM    C1214370   5.729   3.556   7.426 -0.0124  0.1593 -0.4107
  133OSM   H12A14371   5.635   3.540   7.375 -1.1460 -2.2659  2.1608
  133OSM   H12B14372   5.737   3.468   7.489  0.4019 -0.0388 -0.7398
  133OSM    C1114373   5.829   3.544   7.313 -0.3635  0.0261 -0.5014
  133OSM   H11A14374   5.813   3.627   7.242  1.1841  1.0680  0.3036
  133OSM   H11B14375   5.797   3.445   7.274 -2.2261  0.6766 -0.6870
  133OSM      P14376   6.027   3.427   7.419  0.3546 -0.0256 -0.2954
  133OSM    O1314377   6.162   3.465   7.473 -0.0357  0.1476 -0.5187
  133OSM    O1414378   5.940   3.350   7.519 -0.6484 -0.2680  0.6403
  133OSM    O1114379   6.047   3.344   7.285 -0.0895  0.2770  0.2586
  133OSM    O1214380   5.957   3.553   7.366 -0.5140  0.0524 -0.0965
  133OSM    C1S14381   6.108   3.415   7.175 -0.3480 -0.2277 -0.0026
  133OSM    H1S14382   6.211   3.436   7.209 -0.4369  1.9725 -0.9123
  133OSM    H1T14383   6.049   3.503   7.141  1.3920  0.9958  0.0264
  133OSM     NF14384   6.218   3.388   6.961  0.2624  0.1786  0.2467
  133OSM    HNF14385   6.186   3.435   6.880 -1.5870 -0.3323  0.6466
  133OSM    C2S14386   6.123   3.327   7.049 -1.2039  0.4164  0.7858
  133OSM    H2S14387   6.155   3.226   7.082  0.0672  1.0519  1.5696
  133OSM    C3S14388   5.984   3.310   6.990  0.1088 -0.2246 -1.0259
  133OSM    H3S14389   5.939   3.405   6.955 -1.5368 -0.7464 -0.4536
  133OSM     O314390   5.893   3.248   7.091  0.0867  0.3789  0.5372
  133OSM    HO314391   5.957   3.248   7.163  0.0615 -0.5786  0.5752
  133OSM    C4S14392   5.991   3.222   6.868  0.1390  0.6470  0.3480
  133OSM    H4S14393   5.990   3.291   6.782  0.5681 -0.7328 -0.8037
  133OSM    C5S14394   6.004   3.089   6.856 -0.3552  0.3519 -0.2929
  133OSM    H5S14395   5.993   3.027   6.946  1.7168 -2.1594 -1.6292
  133OSM    C6S14396   6.004   3.014   6.725  0.2953 -0.7851  0.9454
  133OSM    H6S14397   5.926   2.935   6.721 -0.8881  0.3663  0.3578
  133OSM    H6T14398   6.098   2.960   6.705  0.9274  0.8453 -0.8261
  133OSM    C7S14399   5.982   3.101   6.603 -0.4917  0.0167 -0.0203
  133OSM    H7S14400   6.058   3.182   6.593 -0.8657  0.2399 -1.1485
  133OSM    H7T14401   5.880   3.144   6.604 -0.3379  0.3854  0.3288
  133OSM    C8S14402   6.006   3.026   6.464  0.1998 -0.2599 -0.7505
  133OSM    H8S14403   5.934   2.941   6.463  0.9783 -1.0157  1.5881
  133OSM    H8T14404   6.106   2.983   6.483 -0.5801 -1.4365  1.0006
  133OSM    C9S14405   6.003   3.107   6.336  0.4825  0.5832  0.3245
  133OSM    H9S14406   6.019   3.031   6.257 -0.2297  0.3215  0.4219
  133OSM    H9T14407   6.093   3.171   6.334  0.4277  0.6543 -1.0316
  133OSM   C10S14408   5.879   3.199   6.314 -0.3495 -0.2720 -0.5031
  133OSM   H10S14409   5.880   3.264   6.403 -1.9211 -1.0126  0.0884
  133OSM   H10T14410   5.792   3.130   6.302  0.0774 -1.0260  0.6214
  133OSM   C11S14411   5.885   3.291   6.182 -0.3753 -0.3695  0.2359
  133OSM   H11S14412   5.780   3.318   6.159  0.4928  1.1305 -2.4312
  133OSM   H11T14413   5.922   3.233   6.095 -3.3673  1.9101 -2.8528
  133OSM   C12S14414   5.976   3.419   6.185 -0.9121 -0.0896  0.5689
  133OSM   H12S14415   6.085   3.399   6.190 -0.7089  1.2508  2.8902
  133OSM   H12T14416   5.958   3.480   6.276 -0.2788  2.0110 -0.6239
  133OSM   C13S14417   5.943   3.518   6.074 -0.2241 -0.0176  0.3072
  133OSM   H13S14418   5.833   3.532   6.060 -0.2560 -2.2668 -2.8534
  133OSM   H13T14419   5.970   3.456   5.985 -0.5165 -1.9111  1.4738
  133OSM   C14S14420   6.020   3.650   6.087  0.1888 -0.3472  0.3603
  133OSM   H14S14421   6.126   3.626   6.113 -0.2878  0.3121  3.2338
  133OSM   H14T14422   5.979   3.707   6.172  1.4422  0.1225  0.6757
  133OSM   C15S14423   6.016   3.749   5.972 -0.4933 -0.3343  0.4758
  133OSM   H15S14424   6.098   3.823   5.988 -0.8091  0.2688 -0.5887
  133OSM   H15T14425   5.914   3.795   5.977 -0.0245  1.2758 -2.4298
  133OSM   C16S14426   6.018   3.692   5.835  0.2105 -0.2303  0.3148
  133OSM   H16S14427   5.923   3.637   5.817 -0.0653 -0.2224  1.6239
  133OSM   H16T14428   6.100   3.619   5.816 -0.1093 -0.5201  0.0396
  133OSM   C17S14429   6.033   3.801   5.731  0.2410 -0.0284 -0.1587
  133OSM   H17S14430   6.134   3.846   5.742  0.2115  0.8091 -2.6236
  133OSM   H17T14431   5.955   3.877   5.756 -0.3265 -1.5531  3.2866
  133OSM   C18S14432   6.013   3.755   5.583  0.1333 -0.8150 -1.0634
  133OSM   H18S14433   5.953   3.827   5.523 -0.0725 -1.2226 -1.3509
  133OSM   H18T14434   5.959   3.658   5.573  1.6346 -1.8657  0.5162
  133OSM   H18U14435   6.109   3.742   5.529 -0.5358  0.5156 -2.6750
  133OSM    C1F14436   6.348   3.374   6.989  0.0744  0.2360  0.1745
  133OSM     OF14437   6.386   3.301   7.081  0.3377  0.2507 -0.1346
  133OSM    C2F14438   6.447   3.447   6.907  0.6554  0.2120 -0.3755
  133OSM    H2F14439   6.444   3.556   6.928 -0.6916  0.0398  0.4954
  133OSM    H2G14440   6.418   3.436   6.800  0.0234  0.8732 -0.2805
  133OSM    C3F14441   6.593   3.402   6.926 -0.8798 -0.0257 -0.1583
  133OSM    H3F14442   6.620   3.296   6.906 -2.0590 -0.6144  1.2397
  133OSM    H3G14443   6.625   3.428   7.029 -0.9862  1.2807 -0.4433
  133OSM    C4F14444   6.679   3.492   6.838 -0.9479 -0.3444 -0.1057
  133OSM    H4F14445   6.677   3.603   6.844  0.9235 -0.1832 -1.4729
  133OSM    H4G14446   6.652   3.458   6.736  0.0197 -0.1881 -0.4196
  133OSM    C5F14447   6.826   3.462   6.854 -1.0466 -0.5590  0.3963
  133OSM    H5F14448   6.843   3.352   6.853  0.9888 -0.2956 -1.2157
  133OSM    H5G14449   6.854   3.506   6.952 -2.0406  0.6748  0.1387
  133OSM    C6F14450   6.918   3.521   6.746 -0.0447  0.0840  0.5969
  133OSM    H6F14451   7.025   3.511   6.773  0.1016 -0.4626 -0.1497
  133OSM    H6G14452   6.885   3.627   6.742 -1.5439 -0.3763 -1.8417
  133OSM    C7F14453   6.908   3.447   6.614 -0.0307  0.1439  0.2353
  133OSM    H7F14454   6.802   3.440   6.579  0.6677 -1.5685 -1.7904
  133OSM    H7G14455   6.952   3.346   6.630 -1.2579 -0.5526 -0.5188
  133OSM    C8F14456   6.999   3.509   6.496 -0.4330 -0.1587 -0.9346
  133OSM    H8F14457   6.972   3.617   6.490  0.6865  0.4250  2.3695
  133OSM    H8G14458   6.957   3.457   6.408 -0.6298  0.5395 -1.2645
  133OSM    C9F14459   7.149   3.490   6.513 -0.2786 -1.0681 -0.9737
  133OSM    H9F14460   7.191   3.510   6.613  2.3992 -0.1548 -2.1782
  133OSM   C10F14461   7.243   3.459   6.422  0.1572  0.4167  0.5519
  133OSM   H10F14462   7.344   3.433   6.457 -0.4547  0.1210  2.1636
  133OSM   C11F14463   7.218   3.440   6.274 -0.4785 -0.3816  0.2082
  133OSM   H11F14464   7.297   3.494   6.217 -0.7281  1.0756  1.1636
  133OSM   H11G14465   7.118   3.479   6.248  0.1294  0.6403 -0.6813
  133OSM   C12F14466   7.216   3.290   6.246  0.6516 -0.0934  0.5689
  133OSM   H12F14467   7.128   3.248   6.300 -0.8809 -0.6685 -2.2118
  133OSM   H12G14468   7.308   3.235   6.275  0.8675 -0.4399 -0.7177
  133OSM   C13F14469   7.196   3.266   6.094 -0.0317 -0.5776  0.0982
  133OSM   H13F14470   7.118   3.341   6.069  1.9898  2.1659  1.4274
  133OSM   H13G14471   7.159   3.162   6.080  0.5062 -0.6042 -1.3279
  133OSM   C14F14472   7.311   3.296   6.002  0.6860 -0.4339 -0.0966
  133OSM   H14F14473   7.401   3.234   6.024  1.4267  0.3591 -0.7969
  133OSM   H14G14474   7.349   3.400   6.011 -1.3783  0.2705  1.0411
  133OSM   C15F14475   7.279   3.273   5.853  0.1917 -0.8032 -0.2843
  133OSM   H15F14476   7.254   3.166   5.839 -0.0124 -0.7571 -0.2769
  133OSM   H15G14477   7.371   3.301   5.798 -0.1303  2.5585  0.6839
  133OSM   C16F14478   7.171   3.371   5.804 -0.3458 -0.4631 -0.3383
  133OSM   H16F14479   7.209   3.469   5.839  0.8065 -1.7780  2.3541
  133OSM   H16G14480   7.080   3.332   5.854 -0.2370 -1.9278 -1.2168
  133OSM   C17F14481   7.149   3.359   5.655  0.7320  0.3554  0.5082
  133OSM   H17F14482   7.252   3.347   5.614  0.7255 -1.8941  1.0528
  133OSM   H17G14483   7.089   3.448   5.626 -0.3995 -0.0208  1.6020
  133OSM   C18F14484   7.077   3.231   5.608  0.4196 -0.2831 -0.0595
  133OSM   H18F14485   7.067   3.236   5.498 -2.9833  1.0150  0.1683
  133OSM   H18G14486   6.972   3.232   5.646  0.5817  1.9351  0.5053
  133OSM   H18H14487   7.124   3.133   5.630  0.3068 -0.5541 -0.9760
  134OSM      N14488   2.829   1.998   7.575  0.9386 -0.1508  1.0075
  134OSM    C1514489   2.952   2.066   7.619 -0.1196 -0.4988  0.1209
  134OSM   H15A14490   3.036   2.040   7.556  0.2427 -1.3156  0.9176
  134OSM   H15B14491   2.976   2.043   7.721  0.0126 -1.9054 -0.1956
  134OSM   H15C14492   2.932   2.172   7.613  1.1506 -0.0904  2.2341
  134OSM    C1414493   2.837   1.847   7.600  0.1312  0.1036  0.2322
  134OSM   H14A14494   2.847   1.824   7.705  0.5838  1.7899  0.5917
  134OSM   H14B14495   2.912   1.795   7.544  1.3588  0.6606  1.3082
  134OSM   H14C14496   2.744   1.811   7.558 -2.0262  3.6922  1.3888
  134OSM    C1314497   2.710   2.045   7.659 -0.0196 -0.0464  0.6324
  134OSM   H13A14498   2.719   2.153   7.662 -0.3363 -0.0423  1.7519
  134OSM   H13B14499   2.718   2.010   7.761  1.1467  0.6606  0.8052
  134OSM   H13C14500   2.617   2.010   7.616  0.6582 -0.4681 -0.5300
  134OSM    C1214501   2.804   2.025   7.425  0.0415  0.3516  0.2467
  134OSM   H12A14502   2.718   1.965   7.399  0.5567 -0.1494 -0.3257
  134OSM   H12B14503   2.894   1.995   7.373 -0.6698  0.0674 -0.8457
  134OSM    C1114504   2.772   2.176   7.399 -0.4666  0.3138 -0.1257
  134OSM   H11A14505   2.698   2.215   7.472  0.9242  0.7117  1.1295
  134OSM   H11B14506   2.717   2.188   7.303 -0.8020 -1.7250 -0.2379
  134OSM      P14507   2.876   2.402   7.393 -0.3705 -0.0695 -0.2675
  134OSM    O1314508   2.787   2.453   7.500  0.1586 -0.0142  0.2951
  134OSM    O1414509   3.010   2.458   7.391  0.1091  0.0898 -0.1284
  134OSM    O1114510   2.800   2.434   7.256 -0.3504  0.3222 -0.0005
  134OSM    O1214511   2.890   2.249   7.402 -0.3773 -0.4604  0.4127
  134OSM    C1S14512   2.874   2.498   7.144 -0.2894 -0.4881  0.4949
  134OSM    H1S14513   2.977   2.457   7.135 -0.0125  0.2143  0.3909
  134OSM    H1T14514   2.880   2.609   7.156  0.2346 -0.0949 -2.7142
  134OSM     NF14515   2.883   2.519   6.898 -0.2270  0.1522  0.3145
  134OSM    HNF14516   2.900   2.616   6.884  1.9779 -0.4206 -1.3978
  134OSM    C2S14517   2.796   2.483   7.006  0.0798 -0.2207 -0.3809
  134OSM    H2S14518   2.771   2.376   6.988 -1.8853  0.0007  0.6363
  134OSM    C3S14519   2.655   2.560   7.016  0.1585 -0.2539 -0.4283
  134OSM    H3S14520   2.673   2.663   7.053  1.6948  0.0438 -1.8639
  134OSM     O314521   2.578   2.509   7.124 -0.1134  0.0200 -0.1724
  134OSM    HO314522   2.641   2.460   7.177 -0.4479  0.6488  0.8353
  134OSM    C4S14523   2.596   2.578   6.887  0.2196  1.1530  0.3572
  134OSM    H4S14524   2.636   2.666   6.834  0.5689  1.0534  0.4516
  134OSM    C5S14525   2.496   2.503   6.828  0.0351  0.2587 -0.4248
  134OSM    H5S14526   2.456   2.418   6.885 -2.8602  1.9185  0.2906
  134OSM    C6S14527   2.423   2.513   6.698  0.4870  0.2918  0.4730
  134OSM    H6S14528   2.314   2.529   6.718 -0.8116 -0.4905 -4.6862
  134OSM    H6T14529   2.432   2.423   6.635 -1.8290  0.4107 -0.1373
  134OSM    C7S14530   2.462   2.634   6.595  0.2344 -0.3084 -0.0412
  134OSM    H7S14531   2.567   2.616   6.564  0.1345  0.7460 -1.0552
  134OSM    H7T14532   2.444   2.734   6.641 -4.2635 -0.0437 -1.8600
  134OSM    C8S14533   2.362   2.643   6.473 -0.7568 -0.6815 -0.2146
  134OSM    H8S14534   2.416   2.581   6.398 -0.1889 -2.4057  1.5252
  134OSM    H8T14535   2.365   2.745   6.429  0.8598 -0.6658 -0.1220
  134OSM    C9S14536   2.221   2.579   6.491  0.0623 -0.7693  0.0865
  134OSM    H9S14537   2.184   2.632   6.581 -2.1937  1.0321 -1.7706
  134OSM    H9T14538   2.226   2.473   6.521  0.3486 -0.2109  2.1877
  134OSM   C10S14539   2.130   2.604   6.372  0.4406  0.4358  0.4598
  134OSM   H10S14540   2.183   2.554   6.288  0.7813 -0.1033  0.9842
  134OSM   H10T14541   2.114   2.707   6.335  0.0071 -1.1481 -4.6238
  134OSM   C11S14542   1.987   2.537   6.395 -0.7175 -0.2670  0.2694
  134OSM   H11S14543   1.939   2.589   6.480 -0.7244  1.4245 -0.7182
  134OSM   H11T14544   1.995   2.429   6.419 -0.0758 -0.2532  0.1519
  134OSM   C12S14545   1.894   2.567   6.270 -0.1874  0.3583 -0.4490
  134OSM   H12S14546   1.913   2.666   6.222 -2.3291 -0.1404 -2.4840
  134OSM   H12T14547   1.787   2.577   6.296 -0.0162  1.7181 -0.1650
  134OSM   C13S14548   1.908   2.464   6.151  0.3291  0.0399 -0.3909
  134OSM   H13S14549   1.887   2.361   6.188  1.9273  0.1281  0.8845
  134OSM   H13T14550   2.014   2.472   6.118  0.1687 -0.5460 -1.0594
  134OSM   C14S14551   1.818   2.492   6.033 -0.2869  0.1605  0.3057
  134OSM   H14S14552   1.816   2.603   6.024  1.1963  0.2855  1.0686
  134OSM   H14T14553   1.714   2.455   6.046 -0.7171  1.1927 -0.0759
  134OSM   C15S14554   1.870   2.429   5.900 -0.4632 -0.5327  0.1379
  134OSM   H15S14555   1.977   2.458   5.887 -0.8864  0.7739 -0.6224
  134OSM   H15T14556   1.813   2.463   5.812  0.6029  0.9304 -0.0235
  134OSM   C16S14557   1.878   2.273   5.905  0.0535  0.2026  0.2741
  134OSM   H16S14558   1.783   2.230   5.944  0.1369 -1.5000 -1.2697
  134OSM   H16T14559   1.963   2.226   5.960  0.9174 -0.4569 -1.5613
  134OSM   C17S14560   1.899   2.215   5.764 -0.8017  0.2207  0.4581
  134OSM   H17S14561   2.008   2.219   5.741 -0.5292 -1.4422  1.3164
  134OSM   H17T14562   1.856   2.279   5.684  2.0112 -0.1278 -1.4810
  134OSM   C18S14563   1.858   2.073   5.738  0.0366  0.0080 -0.6305
  134OSM   H18S14564   1.748   2.064   5.731  0.2072 -2.9672 -0.8813
  134OSM   H18T14565   1.878   2.015   5.830  1.8831  1.4843 -0.0411
  134OSM   H18U14566   1.914   2.036   5.649  1.5401 -0.9876  0.6644
  134OSM    C1F14567   2.980   2.433   6.865  0.1210  0.4925 -0.4384
  134OSM     OF14568   2.980   2.317   6.905 -0.3578  0.0902  0.3255
  134OSM    C2F14569   3.098   2.492   6.789 -0.5127 -0.2237 -0.2231
  134OSM    H2F14570   3.175   2.414   6.779 -0.6905 -0.3975 -0.2488
  134OSM    H2G14571   3.135   2.582   6.842  1.3781 -1.2854  0.3359
  134OSM    C3F14572   3.059   2.528   6.642 -0.1976 -0.2900  1.0988
  134OSM    H3F14573   3.028   2.445   6.576  0.6177 -0.7238  1.2556
  134OSM    H3G14574   3.156   2.566   6.603 -0.8272  0.9792  0.6712
  134OSM    C4F14575   2.956   2.640   6.624  0.3207  0.6289  0.5396
  134OSM    H4F14576   2.972   2.721   6.698 -0.0032 -0.7448  2.1723
  134OSM    H4G14577   2.860   2.591   6.650  0.2222 -0.9796 -2.3709
  134OSM    C5F14578   2.954   2.701   6.485  0.3721 -0.5421  0.4538
  134OSM    H5F14579   3.052   2.751   6.469 -0.6946  1.1466 -1.0914
  134OSM    H5G14580   2.887   2.790   6.491  0.6746 -0.2213 -0.7587
  134OSM    C6F14581   2.922   2.608   6.371 -0.2800  0.2852  0.5412
  134OSM    H6F14582   2.837   2.539   6.387  1.1848 -1.9405 -0.8061
  134OSM    H6G14583   3.009   2.541   6.357 -0.1915  0.8246 -1.8303
  134OSM    C7F14584   2.905   2.687   6.234  0.3841 -0.1340  0.5965
  134OSM    H7F14585   3.006   2.731   6.216  0.1118  0.9056  1.5029
  134OSM    H7G14586   2.845   2.779   6.248 -0.3401 -0.1697 -1.8133
  134OSM    C8F14587   2.844   2.611   6.114 -0.1871 -0.3795  0.7868
  134OSM    H8F14588   2.874   2.505   6.126 -1.6167 -0.7837  0.9120
  134OSM    H8G14589   2.874   2.657   6.018  1.6964 -2.0837  0.4905
  134OSM    C9F14590   2.694   2.617   6.134 -0.1738 -0.2264  0.4693
  134OSM    H9F14591   2.670   2.655   6.234 -0.1762  0.1016  0.3456
  134OSM   C10F14592   2.596   2.567   6.055  0.2131  0.9391  0.0734
  134OSM   H10F14593   2.494   2.595   6.082 -0.7590 -0.6971 -1.6695
  134OSM   C11F14594   2.613   2.486   5.926 -0.1872  0.3192 -0.5472
  134OSM   H11F14595   2.577   2.381   5.924 -0.4768  0.4275 -1.4300
  134OSM   H11G14596   2.714   2.479   5.882 -0.8398  0.3529 -2.1325
  134OSM   C12F14597   2.527   2.541   5.808  1.2963  0.5568 -0.1744
  134OSM   H12F14598   2.529   2.651   5.798 -1.4699  0.7016  0.0430
  134OSM   H12G14599   2.420   2.515   5.826  0.5349  0.9415 -3.5418
  134OSM   C13F14600   2.559   2.467   5.676 -0.5952 -0.4044  0.1905
  134OSM   H13F14601   2.580   2.365   5.714 -1.3785 -0.3439  0.8325
  134OSM   H13G14602   2.645   2.508   5.619 -0.7854 -1.5199 -0.9109
  134OSM   C14F14603   2.435   2.465   5.590  0.0077 -0.3971 -0.3154
  134OSM   H14F14604   2.405   2.557   5.535  0.3795  1.6966  2.7104
  134OSM   H14G14605   2.349   2.438   5.654 -0.3824  0.6709 -0.3615
  134OSM   C15F14606   2.440   2.340   5.489  0.1705 -0.2422  0.2384
  134OSM   H15F14607   2.334   2.314   5.470 -0.2508  3.0566 -3.1585
  134OSM   H15G14608   2.491   2.250   5.529 -1.7340 -1.8388 -0.7061
  134OSM   C16F14609   2.508   2.373   5.352 -0.9495  0.2593  0.4658
  134OSM   H16F14610   2.618   2.367   5.371 -1.1705 -1.9300  1.3792
  134OSM   H16G14611   2.485   2.472   5.307 -0.3100 -0.8013 -2.4356
  134OSM   C17F14612   2.480   2.271   5.242  0.6292  0.6404 -0.0115
  134OSM   H17F14613   2.482   2.167   5.282 -0.5906  0.7281  0.3041
  134OSM   H17G14614   2.567   2.281   5.174 -0.1646  0.9660 -1.0092
  134OSM   C18F14615   2.346   2.297   5.170 -0.0937  0.7054 -0.6809
  134OSM   H18F14616   2.318   2.215   5.100  1.7889  0.5970 -1.3432
  134OSM   H18G14617   2.357   2.388   5.108  0.1274 -0.4497 -2.3987
  134OSM   H18H14618   2.261   2.307   5.241  1.4328 -2.0347  1.8011
  135OSM      N14619   2.928   0.090   6.859 -0.1215  0.1435 -0.8459
  135OSM    C1514620   2.915   0.231   6.918  0.9896  0.2959  0.2516
  135OSM   H15A14621   2.812   0.254   6.944  0.9158 -0.8346  1.0524
  135OSM   H15B14622   2.943   0.306   6.846 -0.3876  0.1945 -0.4156
  135OSM   H15C14623   2.962   0.249   7.014  0.5544  1.0582  0.3293
  135OSM    C1414624   2.882  -0.008   6.967 -0.0961 -0.6050 -0.2076
  135OSM   H14A14625   2.893  -0.111   6.934 -2.1105 -0.5724 -1.1203
  135OSM   H14B14626   2.778   0.017   6.983 -0.4911 -1.7305 -0.8974
  135OSM   H14C14627   2.935   0.002   7.061 -0.9212 -1.9819  0.4478
  135OSM    C1314628   2.845   0.083   6.736 -0.8199  0.3507  0.3881
  135OSM   H13A14629   2.849   0.173   6.676 -0.3184 -1.6204 -2.7127
  135OSM   H13B14630   2.739   0.066   6.747 -0.7682 -0.3245 -0.1423
  135OSM   H13C14631   2.889   0.002   6.681  1.3365 -0.6821  3.3619
  135OSM    C1214632   3.076   0.059   6.825  0.5738 -0.0969 -0.7690
  135OSM   H12A14633   3.122   0.059   6.922 -2.3976 -0.7584  0.7744
  135OSM   H12B14634   3.116   0.146   6.776 -1.9771  1.2832 -0.5950
  135OSM    C1114635   3.100  -0.066   6.739  0.6118 -0.4798 -0.1335
  135OSM   H11A14636   3.208  -0.076   6.715  0.9731  2.5531 -0.1264
  135OSM   H11B14637   3.046  -0.048   6.644  0.0901  0.1683  0.2741
  135OSM      P14638   3.145  -0.259   6.899 -0.5770  0.0951  0.0804
  135OSM    O1314639   3.212  -0.173   7.002 -0.4246  0.0273 -0.6153
  135OSM    O1414640   3.082  -0.381   6.947  0.0369 -0.4685  0.0762
  135OSM    O1114641   3.250  -0.302   6.792  0.5024  0.1339  0.4031
  135OSM    O1214642   3.046  -0.176   6.803 -0.0322  0.0415  0.1840
  135OSM    C1S14643   3.261  -0.434   6.733 -0.0945 -0.5839  0.0748
  135OSM    H1S14644   3.166  -0.492   6.740 -0.3163 -0.3399 -0.8295
  135OSM    H1T14645   3.337  -0.499   6.782 -0.3408 -1.5943 -0.8500
  135OSM     NF14646   3.278  -0.557   6.511 -0.2417 -0.2370  0.3672
  135OSM    HNF14647   3.357  -0.617   6.509 -0.4328 -0.6456  2.6060
  135OSM    C2S14648   3.296  -0.430   6.577  0.2401  0.2533 -0.5470
  135OSM    H2S14649   3.223  -0.362   6.526  1.5246  0.7271 -1.8034
  135OSM    C3S14650   3.438  -0.385   6.567  0.0688 -0.3232  0.6329
  135OSM    H3S14651   3.497  -0.473   6.600 -1.0769 -1.1422  0.5545
  135OSM     O314652   3.473  -0.277   6.658  0.0224  0.2270 -0.2788
  135OSM    HO314653   3.403  -0.252   6.718 -0.3244  1.1577 -1.0430
  135OSM    C4S14654   3.469  -0.353   6.426  0.2549 -0.4378  0.3051
  135OSM    H4S14655   3.539  -0.425   6.383  2.3362  1.7113 -0.1320
  135OSM    C5S14656   3.437  -0.237   6.362  0.3454  1.1845 -1.0013
  135OSM    H5S14657   3.395  -0.160   6.428 -1.8826 -1.8264  1.4603
  135OSM    C6S14658   3.475  -0.207   6.221 -0.3401 -0.6149 -0.1317
  135OSM    H6S14659   3.574  -0.157   6.225  0.4668 -2.1980  0.4227
  135OSM    H6T14660   3.403  -0.133   6.180  1.7876  0.6580 -1.8332
  135OSM    C7S14661   3.489  -0.319   6.115  0.2615 -0.4625  0.1047
  135OSM    H7S14662   3.396  -0.381   6.114 -0.2373  0.0442  3.2327
  135OSM    H7T14663   3.567  -0.389   6.151  1.0031  0.3135  0.0206
  135OSM    C8S14664   3.528  -0.272   5.973 -0.3373  0.3321 -0.3179
  135OSM    H8S14665   3.611  -0.197   5.972  0.9055 -0.8857  2.2745
  135OSM    H8T14666   3.442  -0.228   5.918 -0.0743  0.5161 -0.5933
  135OSM    C9S14667   3.581  -0.393   5.891 -0.9223  0.4672 -0.1713
  135OSM    H9S14668   3.501  -0.470   5.884 -0.3557 -0.2310  0.8414
  135OSM    H9T14669   3.662  -0.440   5.950 -1.6551  0.8209  1.1573
  135OSM   C10S14670   3.618  -0.365   5.736  0.4883 -0.0324 -0.5966
  135OSM   H10S14671   3.701  -0.293   5.722  1.1392 -0.2394  1.6464
  135OSM   H10T14672   3.527  -0.318   5.694 -0.1055 -0.5012  0.1281
  135OSM   C11S14673   3.642  -0.493   5.667 -0.1552 -0.4990 -0.4960
  135OSM   H11S14674   3.560  -0.563   5.692 -0.9349 -0.1803 -2.0293
  135OSM   H11T14675   3.743  -0.519   5.705  0.6861  1.9859 -0.7998
  135OSM   C12S14676   3.665  -0.490   5.512  0.0062  0.1720 -0.2107
  135OSM   H12S14677   3.717  -0.586   5.490 -0.2630  0.0954 -0.5128
  135OSM   H12T14678   3.731  -0.405   5.486 -2.3796  1.8689 -1.0173
  135OSM   C13S14679   3.537  -0.487   5.421  0.0398 -0.5394  0.4597
  135OSM   H13S14680   3.464  -0.403   5.430  1.2649  1.0087 -2.5315
  135OSM   H13T14681   3.492  -0.586   5.442 -0.6566 -0.2604  0.3040
  135OSM   C14S14682   3.559  -0.499   5.273 -0.3333  0.0349  0.5217
  135OSM   H14S14683   3.623  -0.585   5.243  0.6109  1.1266 -0.7163
  135OSM   H14T14684   3.624  -0.413   5.244  2.6892 -2.7232 -1.6553
  135OSM   C15S14685   3.438  -0.486   5.173 -0.1862  0.0053 -0.3219
  135OSM   H15S14686   3.355  -0.560   5.180 -0.0016 -0.1095  0.8612
  135OSM   H15T14687   3.494  -0.486   5.078  0.6501  0.7806  0.1522
  135OSM   C16S14688   3.373  -0.346   5.178  0.3363 -0.0861  0.2341
  135OSM   H16S14689   3.445  -0.268   5.210  1.1585  0.2870 -2.2787
  135OSM   H16T14690   3.304  -0.359   5.264  2.3023  1.1861  2.0814
  135OSM   C17S14691   3.308  -0.313   5.047  0.4832 -0.5498 -0.1236
  135OSM   H17S14692   3.397  -0.299   4.982 -0.3634  1.1850 -0.9784
  135OSM   H17T14693   3.256  -0.216   5.066  3.3202  0.5480  3.1485
  135OSM   C18S14694   3.211  -0.421   4.986  0.2793 -0.6214 -0.4904
  135OSM   H18S14695   3.264  -0.518   4.979 -2.0887 -1.9064 -1.6872
  135OSM   H18T14696   3.174  -0.402   4.883 -0.1086 -1.2882 -0.4751
  135OSM   H18U14697   3.125  -0.417   5.057  0.1609 -0.2055 -0.6559
  135OSM    C1F14698   3.161  -0.595   6.459 -0.6005  0.0234 -0.2518
  135OSM     OF14699   3.060  -0.520   6.457 -0.2947  0.5724 -0.2781
  135OSM    C2F14700   3.161  -0.733   6.409 -0.7413 -0.0024  0.1531
  135OSM    H2F14701   3.112  -0.805   6.478  1.2978  0.3390  2.0712
  135OSM    H2G14702   3.268  -0.763   6.410 -0.8413 -0.4341 -0.8015
  135OSM    C3F14703   3.106  -0.737   6.264  0.0238 -0.1765  0.6032
  135OSM    H3F14704   3.007  -0.687   6.264  0.1418  0.1421 -1.7830
  135OSM    H3G14705   3.087  -0.844   6.243  0.6677 -0.2310  0.2861
  135OSM    C4F14706   3.199  -0.676   6.160  0.6453 -0.4521  0.7851
  135OSM    H4F14707   3.201  -0.570   6.191  1.3198 -0.9995  2.7855
  135OSM    H4G14708   3.300  -0.722   6.173  0.4813 -1.3288 -0.7829
  135OSM    C5F14709   3.158  -0.688   6.012  0.1853  0.1448 -1.0034
  135OSM    H5F14710   3.062  -0.634   5.999 -0.3307 -0.6888 -0.7514
  135OSM    H5G14711   3.129  -0.795   6.004  2.2908 -0.7701  1.9096
  135OSM    C6F14712   3.265  -0.621   5.922  0.3781 -0.3671 -0.0173
  135OSM    H6F14713   3.362  -0.675   5.922  1.0868  0.8675  0.8567
  135OSM    H6G14714   3.287  -0.523   5.969 -0.0662 -0.3703  0.1999
  135OSM    C7F14715   3.214  -0.605   5.781  0.4428  0.9032  0.7791
  135OSM    H7F14716   3.266  -0.537   5.711 -2.0367  1.5235 -0.5714
  135OSM    H7G14717   3.113  -0.559   5.787 -1.1170 -2.0511 -0.2279
  135OSM    C8F14718   3.182  -0.740   5.705 -0.0203  0.2975  0.2687
  135OSM    H8F14719   3.077  -0.774   5.723 -0.2245 -0.4798 -1.9987
  135OSM    H8G14720   3.233  -0.824   5.756 -1.1699  0.6075  2.0322
  135OSM    C9F14721   3.223  -0.729   5.563  0.1282 -0.2269 -0.3895
  135OSM    H9F14722   3.331  -0.747   5.548  0.7443  2.8511 -0.4030
  135OSM   C10F14723   3.140  -0.693   5.459 -0.2512  0.8261  0.3507
  135OSM   H10F14724   3.171  -0.669   5.356 -1.4830 -0.9467 -0.4811
  135OSM   C11F14725   2.995  -0.663   5.483  1.2425  0.8436  0.3970
  135OSM   H11F14726   2.968  -0.636   5.588  0.9007  3.5900 -0.3129
  135OSM   H11G14727   2.941  -0.754   5.449 -0.7144  1.5651  1.3791
  135OSM   C12F14728   2.941  -0.527   5.406  0.6209  0.4586  0.0919
  135OSM   H12F14729   3.012  -0.450   5.443  1.3747  0.3372 -1.0670
  135OSM   H12G14730   2.842  -0.495   5.444 -0.1056 -0.2253 -1.1582
  135OSM   C13F14731   2.952  -0.537   5.253  0.3548  0.0536 -0.8667
  135OSM   H13F14732   3.052  -0.582   5.239  0.9828  0.4062  1.9427
  135OSM   H13G14733   2.947  -0.444   5.192 -2.6102  1.1316  0.7971
  135OSM   C14F14734   2.859  -0.642   5.194 -0.4569  0.6149  0.1326
  135OSM   H14F14735   2.871  -0.746   5.230  0.8400  0.3987 -0.8692
  135OSM   H14G14736   2.905  -0.648   5.093  2.2172 -0.5738  1.3053
  135OSM   C15F14737   2.712  -0.597   5.183 -0.2288  0.4766 -0.6197
  135OSM   H15F14738   2.717  -0.490   5.155 -0.1978  0.9468  1.0702
  135OSM   H15G14739   2.672  -0.617   5.285  1.4301 -0.7304 -0.1575
  135OSM   C16F14740   2.645  -0.680   5.073 -0.6747  0.6526 -0.4984
  135OSM   H16F14741   2.693  -0.664   4.975 -2.0084  0.9043 -1.1280
  135OSM   H16G14742   2.547  -0.633   5.051 -1.9825 -2.3147 -1.6579
  135OSM   C17F14743   2.614  -0.831   5.103 -0.3955 -0.5589  0.2306
  135OSM   H17F14744   2.541  -0.829   5.186 -2.4570 -2.1406 -1.4316
  135OSM   H17G14745   2.707  -0.879   5.141  0.0246  0.0622  0.0118
  135OSM   C18F14746   2.558  -0.912   4.986  0.0149  0.3609  0.6481
  135OSM   H18F14747   2.466  -0.853   4.966  0.2477  0.3134 -0.6433
  135OSM   H18G14748   2.531  -1.010   5.031 -1.0899 -0.3385 -1.3857
  135OSM   H18H14749   2.628  -0.929   4.901 -0.2419 -1.9842  0.8591
  136OSM      N14750   4.612   0.080   7.273  0.2257  0.5364  0.2551
  136OSM    C1514751   4.525   0.155   7.368  0.3297  0.8467 -0.2161
  136OSM   H15A14752   4.451   0.214   7.316  0.5112  1.1949 -0.0839
  136OSM   H15B14753   4.581   0.218   7.437 -1.0289  1.1775  0.6270
  136OSM   H15C14754   4.464   0.090   7.429 -0.9463  1.0700 -1.2280
  136OSM    C1414755   4.717   0.007   7.358 -0.6284 -0.2634 -0.0122
  136OSM   H14A14756   4.683  -0.062   7.433  2.0200  0.3873  1.9153
  136OSM   H14B14757   4.777   0.075   7.416 -1.2999 -1.2300  1.8851
  136OSM   H14C14758   4.782  -0.053   7.295  0.0061  0.8938 -0.4812
  136OSM    C1314759   4.550  -0.024   7.188  0.1656  0.6009 -0.3607
  136OSM   H13A14760   4.622  -0.087   7.138 -1.1182  0.8597 -2.7289
  136OSM   H13B14761   4.472   0.012   7.122  1.1725  0.9768 -1.3795
  136OSM   H13C14762   4.499  -0.091   7.255 -0.7856  3.4204  1.9349
  136OSM    C1214763   4.685   0.180   7.181  0.1871  0.0305  0.9092
  136OSM   H12A14764   4.748   0.241   7.244  1.7649 -1.3640  0.7182
  136OSM   H12B14765   4.610   0.245   7.137  1.6794  1.1569 -0.0833
  136OSM    C1114766   4.770   0.138   7.058 -0.7833  0.5413 -0.0385
  136OSM   H11A14767   4.778   0.225   6.989  1.0392 -0.7224 -1.5095
  136OSM   H11B14768   4.713   0.062   7.000 -1.3283  1.0082 -0.1288
  136OSM      P14769   4.988   0.192   7.185 -0.1168 -0.1252 -0.0686
  136OSM    O1314770   4.911   0.311   7.232 -0.1454  0.6432 -0.6837
  136OSM    O1414771   5.037   0.107   7.297 -0.0409 -0.1217 -0.0810
  136OSM    O1114772   5.099   0.236   7.081  0.3564 -0.3292  0.2106
  136OSM    O1214773   4.899   0.093   7.096  0.5764  0.7914 -0.2777
  136OSM    C1S14774   5.073   0.221   6.946 -0.0398 -0.0408  0.6209
  136OSM    H1S14775   4.989   0.292   6.928  0.1301  0.2316  0.8960
  136OSM    H1T14776   5.063   0.115   6.914  4.0345 -0.7714  1.2948
  136OSM     NF14777   5.168   0.268   6.714  0.4263  0.6852 -0.4259
  136OSM    HNF14778   5.231   0.218   6.655  0.4091  0.5878 -0.3625
  136OSM    C2S14779   5.199   0.268   6.862  0.3393  0.1698  0.2433
  136OSM    H2S14780   5.207   0.375   6.888  0.1520  0.0374  0.8505
  136OSM    C3S14781   5.327   0.192   6.912 -0.0653 -0.3528 -1.2863
  136OSM    H3S14782   5.303   0.086   6.930 -0.1905  0.1589  2.4210
  136OSM     O314783   5.376   0.252   7.035 -0.3738 -0.2252  0.1849
  136OSM    HO314784   5.298   0.291   7.075 -1.5422  0.4321 -2.4720
  136OSM    C4S14785   5.445   0.204   6.816  0.3528 -0.9862  0.4961
  136OSM    H4S14786   5.465   0.113   6.757  1.4095 -0.4800  0.0307
  136OSM    C5S14787   5.514   0.316   6.774  0.0698 -0.6957  0.1192
  136OSM    H5S14788   5.496   0.416   6.816 -0.4033 -1.6849  2.4215
  136OSM    C6S14789   5.613   0.336   6.664  0.0200  0.4840  0.0177
  136OSM    H6S14790   5.635   0.242   6.609  1.5824  2.5625 -3.2464
  136OSM    H6T14791   5.706   0.374   6.712 -1.4231  2.6387  1.2491
  136OSM    C7S14792   5.559   0.440   6.560 -0.3140 -0.7212  0.7092
  136OSM    H7S14793   5.647   0.459   6.495  0.2934 -2.6105  0.9071
  136OSM    H7T14794   5.546   0.533   6.619 -2.7835 -1.8421  2.0644
  136OSM    C8S14795   5.432   0.411   6.489 -0.3893 -0.1596  0.9007
  136OSM    H8S14796   5.337   0.421   6.546 -3.5095  1.1747 -3.9695
  136OSM    H8T14797   5.427   0.305   6.458 -1.2916 -0.1881  1.1302
  136OSM    C9S14798   5.414   0.501   6.364  0.6703  0.1601  0.2057
  136OSM    H9S14799   5.490   0.582   6.370  0.4228  0.3977  0.1562
  136OSM    H9T14800   5.316   0.552   6.372 -0.3500 -1.5607 -0.7280
  136OSM   C10S14801   5.420   0.429   6.230 -0.4690 -0.1344  0.0984
  136OSM   H10S14802   5.342   0.351   6.226  0.9556 -1.8232  2.4032
  136OSM   H10T14803   5.515   0.372   6.219  0.2894  1.3505 -1.6274
  136OSM   C11S14804   5.386   0.517   6.109 -0.2529  0.4513 -0.5803
  136OSM   H11S14805   5.444   0.612   6.106 -1.6718  1.3319 -0.8245
  136OSM   H11T14806   5.278   0.544   6.108 -0.2711  0.3740 -1.3450
  136OSM   C12S14807   5.421   0.447   5.976 -0.7025  0.5386  0.2556
  136OSM   H12S14808   5.389   0.340   5.972  1.1189 -0.0273 -0.4940
  136OSM   H12T14809   5.532   0.448   5.970 -0.6228  0.4991  1.4273
  136OSM   C13S14810   5.343   0.519   5.864  0.6627 -0.3912 -0.6130
  136OSM   H13S14811   5.350   0.628   5.885  1.2224 -0.5237 -0.1084
  136OSM   H13T14812   5.239   0.482   5.851  0.5111 -0.9237  1.6771
  136OSM   C14S14813   5.422   0.495   5.734  0.8272  0.0425 -0.2768
  136OSM   H14S14814   5.428   0.386   5.713 -0.7596  0.3286 -2.6454
  136OSM   H14T14815   5.521   0.544   5.739  0.2817  1.1177  0.3458
  136OSM   C15S14816   5.347   0.555   5.615 -0.0196  0.5269 -0.0261
  136OSM   H15S14817   5.428   0.536   5.542  1.0110 -0.8263  1.4189
  136OSM   H15T14818   5.320   0.662   5.631  1.0227  0.9121 -0.7489
  136OSM   C16S14819   5.218   0.482   5.566  0.0459  0.0094  0.0157
  136OSM   H16S14820   5.140   0.494   5.643 -1.2130 -2.6098 -0.7277
  136OSM   H16T14821   5.239   0.375   5.543 -0.7075  0.3155 -2.3452
  136OSM   C17S14822   5.157   0.553   5.435  0.0779 -0.2060  0.3101
  136OSM   H17S14823   5.235   0.552   5.356 -0.4657  0.0193 -0.2359
  136OSM   H17T14824   5.138   0.659   5.463  2.6008  0.7594 -1.2551
  136OSM   C18S14825   5.039   0.486   5.378  0.2492 -0.0806  0.7813
  136OSM   H18S14826   5.046   0.375   5.390 -0.4123 -0.2949 -0.6221
  136OSM   H18T14827   5.037   0.521   5.273 -0.3290 -0.1751  0.7544
  136OSM   H18U14828   4.954   0.525   5.437  0.0742 -0.6872  0.9424
  136OSM    C1F14829   5.070   0.338   6.655 -0.6785  0.6592 -0.3137
  136OSM     OF14830   4.995   0.412   6.710 -0.1503 -0.1937  0.1776
  136OSM    C2F14831   5.041   0.306   6.516 -0.7915 -0.1276  0.1772
  136OSM    H2F14832   4.998   0.203   6.517  0.8036 -0.8263 -0.0111
  136OSM    H2G14833   5.139   0.309   6.463 -0.3386  0.0938  1.0078
  136OSM    C3F14834   4.947   0.407   6.450 -0.6905  0.6268 -0.1264
  136OSM    H3F14835   4.974   0.513   6.467 -1.8622  1.1521 -1.3021
  136OSM    H3G14836   4.858   0.393   6.516 -0.4761  0.7359  0.1844
  136OSM    C4F14837   4.912   0.389   6.299 -0.2448  0.2041  0.3062
  136OSM    H4F14838   4.824   0.451   6.273 -0.7278  0.7929  3.0057
  136OSM    H4G14839   4.880   0.284   6.283 -3.4937  1.0638  0.5180
  136OSM    C5F14840   5.028   0.434   6.211 -0.7165 -0.2575 -0.4595
  136OSM    H5F14841   5.078   0.342   6.173 -2.3408 -1.5237  0.3088
  136OSM    H5G14842   5.105   0.484   6.273 -0.6222 -1.3440  0.3414
  136OSM    C6F14843   4.982   0.526   6.096 -0.2752  0.2515  0.8530
  136OSM    H6F14844   5.069   0.585   6.060 -0.7021  0.4732  0.1654
  136OSM    H6G14845   4.914   0.604   6.137  0.1681  1.7811 -1.1854
  136OSM    C7F14846   4.919   0.451   5.974 -0.5039  0.3491 -0.5385
  136OSM    H7F14847   4.824   0.404   6.006 -0.9344  0.9573 -0.9146
  136OSM    H7G14848   4.990   0.376   5.931  0.9639  2.6607 -2.4402
  136OSM    C8F14849   4.892   0.537   5.850  0.3050 -0.1495  0.4491
  136OSM    H8F14850   4.835   0.469   5.783  0.2015  0.1624  0.2169
  136OSM    H8G14851   4.991   0.562   5.805 -0.1255  1.5643  0.3986
  136OSM    C9F14852   4.816   0.663   5.873 -0.1443 -0.3006 -0.3260
  136OSM    H9F14853   4.880   0.744   5.914  0.1991 -0.5422 -0.3790
  136OSM   C10F14854   4.699   0.701   5.817 -0.2680  0.2583 -0.2129
  136OSM   H10F14855   4.667   0.801   5.849 -0.4918 -0.8070  3.2163
  136OSM   C11F14856   4.611   0.626   5.721 -0.6500 -0.0595  0.1814
  136OSM   H11F14857   4.525   0.598   5.785 -0.4893 -0.5692  0.1797
  136OSM   H11G14858   4.659   0.534   5.682  1.0459  1.7513 -2.3420
  136OSM   C12F14859   4.582   0.726   5.606 -0.5979  0.2703 -0.3106
  136OSM   H12F14860   4.538   0.818   5.651  0.6361  0.2853  0.9376
  136OSM   H12G14861   4.499   0.686   5.543 -1.7316  0.7176  0.8417
  136OSM   C13F14862   4.706   0.754   5.515 -0.1495  0.4927  0.3393
  136OSM   H13F14863   4.751   0.656   5.489  0.6136  0.9087  0.0764
  136OSM   H13G14864   4.786   0.797   5.579  0.4384 -0.2367  0.1140
  136OSM   C14F14865   4.688   0.848   5.388 -0.3038  0.2146 -0.0379
  136OSM   H14F14866   4.654   0.948   5.423  0.1062  0.1945  0.4377
  136OSM   H14G14867   4.615   0.803   5.317  0.0629 -1.7830  0.7750
  136OSM   C15F14868   4.812   0.865   5.307 -0.6505 -0.0590  0.3795
  136OSM   H15F14869   4.862   0.768   5.286  1.0153  0.1704  2.8537
  136OSM   H15G14870   4.893   0.915   5.363 -1.3797  0.5797  0.8890
  136OSM   C16F14871   4.774   0.940   5.180 -0.2116 -0.5491  0.1479
  136OSM   H16F14872   4.861   1.001   5.146 -1.7801  0.4301 -2.3990
  136OSM   H16G14873   4.696   1.016   5.202  0.6537  0.0682  1.2446
  136OSM   C17F14874   4.747   0.848   5.062 -0.2347 -0.2367 -0.2946
  136OSM   H17F14875   4.672   0.771   5.090 -0.6079  0.4006  0.4936
  136OSM   H17G14876   4.840   0.790   5.045  1.6049  1.6075  2.6401
  136OSM   C18F14877   4.707   0.912   4.934 -0.3437 -0.4130  0.8278
  136OSM   H18F14878   4.724   0.856   4.839 -1.3357  2.8335 -1.4164
  136OSM   H18G14879   4.778   0.997   4.930  0.3218 -0.7420  3.3127
  136OSM   H18H14880   4.604   0.953   4.936 -0.0624  0.7424 -2.5485
  137OSM      N14881   2.709   6.432   6.744 -0.2190 -0.5202 -0.3009
  137OSM    C1514882   2.773   6.528   6.835 -0.3370  0.5060 -0.3014
  137OSM   H15A14883   2.814   6.474   6.919 -0.2243 -1.2344 -1.4352
  137OSM   H15B14884   2.706   6.605   6.871 -1.2776 -0.0759 -0.7544
  137OSM   H15C14885   2.857   6.578   6.788 -0.1639  0.1319 -0.3940
  137OSM    C1414886   2.804   6.314   6.731  0.7306  0.2207  0.6459
  137OSM   H14A14887   2.752   6.238   6.676  2.2614 -2.3311  2.5186
  137OSM   H14B14888   2.808   6.272   6.830 -1.5878  1.9618  1.5847
  137OSM   H14C14889   2.900   6.329   6.684  0.0881 -1.0172 -1.1643
  137OSM    C1314890   2.575   6.388   6.799  0.2657 -0.1938 -0.0666
  137OSM   H13A14891   2.532   6.313   6.733 -0.3106  0.0048  0.0757
  137OSM   H13B14892   2.507   6.471   6.805 -1.2661 -1.3272 -0.8373
  137OSM   H13C14893   2.583   6.349   6.899  1.5927 -1.3740 -0.5951
  137OSM    C1214894   2.690   6.498   6.613 -0.4751 -0.0990 -0.0124
  137OSM   H12A14895   2.661   6.421   6.543  0.9006 -0.2690 -0.4098
  137OSM   H12B14896   2.787   6.530   6.579  0.2445 -2.5576 -0.4389
  137OSM    C1114897   2.573   6.606   6.599  0.1249  0.3701 -0.4394
  137OSM   H11A14898   2.475   6.556   6.615  1.2551 -2.2407 -1.1812
  137OSM   H11B14899   2.576   6.640   6.493  0.7408  2.5364  0.2072
  137OSM      P14900   2.470   6.795   6.763  0.3218 -0.0364 -0.0916
  137OSM    O1314901   2.415   6.715   6.872  0.8666  0.6049 -0.7491
  137OSM    O1414902   2.515   6.928   6.808 -0.7610 -0.1747  0.2492
  137OSM    O1114903   2.362   6.806   6.640  0.9353 -0.2350 -1.0111
  137OSM    O1214904   2.583   6.718   6.694  0.0049 -0.2068  0.2155
  137OSM    C1S14905   2.373   6.910   6.541 -0.1209 -0.9398 -0.2068
  137OSM    H1S14906   2.478   6.941   6.524 -0.7623  2.8626  1.5747
  137OSM    H1T14907   2.318   7.004   6.565 -0.2517 -0.8697 -0.7655
  137OSM     NF14908   2.338   6.966   6.304 -0.1467 -0.3956  0.1714
  137OSM    HNF14909   2.281   7.043   6.275  0.9969  0.0518 -0.9709
  137OSM    C2S14910   2.310   6.867   6.409  0.3488  0.6195 -0.6187
  137OSM    H2S14911   2.368   6.779   6.373  1.2800  0.1757  1.7942
  137OSM    C3S14912   2.161   6.825   6.428 -0.5669 -0.3518 -0.3881
  137OSM    H3S14913   2.098   6.914   6.449 -1.1636 -0.5512 -1.2762
  137OSM     O314914   2.138   6.720   6.522 -0.0025  0.3247  0.1842
  137OSM    HO314915   2.210   6.741   6.583  0.9692  0.4858 -0.9795
  137OSM    C4S14916   2.109   6.776   6.300 -0.2011 -0.1342  0.1123
  137OSM    H4S14917   2.175   6.693   6.269  1.4937  2.0729 -2.7087
  137OSM    C5S14918   2.007   6.810   6.230 -0.1284 -0.1606  0.1470
  137OSM    H5S14919   1.936   6.883   6.271 -0.0323  0.6548 -1.0748
  137OSM    C6S14920   1.972   6.742   6.096  0.7233  0.0802  0.1882
  137OSM    H6S14921   1.961   6.810   6.009  0.1024 -0.2184  0.0264
  137OSM    H6T14922   1.868   6.708   6.115  0.9330 -0.5644  0.2049
  137OSM    C7S14923   2.068   6.633   6.062  0.2291  0.4961 -0.0504
  137OSM    H7S14924   2.067   6.546   6.131  0.1983  0.0242 -0.6387
  137OSM    H7T14925   2.171   6.675   6.062  1.4520 -2.1947  2.0342
  137OSM    C8S14926   2.062   6.582   5.915 -0.4749 -0.2564  0.1788
  137OSM    H8S14927   2.147   6.513   5.896 -0.6309 -0.2414 -0.5877
  137OSM    H8T14928   2.073   6.673   5.852 -0.5998 -1.8464 -2.2366
  137OSM    C9S14929   1.924   6.529   5.870  0.0792 -0.0723  0.4593
  137OSM    H9S14930   1.851   6.612   5.859  1.3659  0.9345 -1.1065
  137OSM    H9T14931   1.880   6.460   5.944 -2.8902  1.1272 -0.0752
  137OSM   C10S14932   1.939   6.445   5.742  0.1061  0.6819  0.1727
  137OSM   H10S14933   1.998   6.352   5.755  0.1202  0.7773  0.8243
  137OSM   H10T14934   2.000   6.510   5.675  1.7021 -1.4568 -0.5682
  137OSM   C11S14935   1.803   6.417   5.676 -0.5358  0.7281 -0.4132
  137OSM   H11S14936   1.749   6.514   5.680  0.4513  1.2546  0.7269
  137OSM   H11T14937   1.744   6.351   5.742  1.5049  1.8403  2.7623
  137OSM   C12S14938   1.800   6.370   5.525  0.1298  0.4549  0.0092
  137OSM   H12S14939   1.849   6.271   5.517 -0.9714 -0.4499  2.9634
  137OSM   H12T14940   1.853   6.445   5.462  2.3595 -0.3568  0.8319
  137OSM   C13S14941   1.645   6.364   5.486 -0.0764  0.1979 -0.4485
  137OSM   H13S14942   1.607   6.468   5.491 -1.0707 -0.0386 -2.1749
  137OSM   H13T14943   1.590   6.305   5.562  1.3557 -0.9295 -0.2435
  137OSM   C14S14944   1.623   6.308   5.346  0.5267  0.3282  0.7149
  137OSM   H14S14945   1.654   6.201   5.347  0.9132  0.4388  0.7677
  137OSM   H14T14946   1.686   6.367   5.276 -2.0955  1.9110 -0.4445
  137OSM   C15S14947   1.483   6.323   5.292 -0.0850 -0.3494  0.0774
  137OSM   H15S14948   1.411   6.304   5.375 -2.4999 -0.1299 -1.8698
  137OSM   H15T14949   1.460   6.250   5.212  3.2751  0.4655 -1.8384
  137OSM   C16S14950   1.451   6.463   5.233 -0.1684 -0.6354  0.2063
  137OSM   H16S14951   1.521   6.545   5.258  0.2216 -1.5531  2.3451
  137OSM   H16T14952   1.353   6.501   5.269 -0.5955  0.6356 -2.1004
  137OSM   C17S14953   1.439   6.454   5.078 -0.0689 -1.1067 -0.1555
  137OSM   H17S14954   1.366   6.373   5.052 -0.2297 -1.5159  1.4387
  137OSM   H17T14955   1.539   6.443   5.031  1.2929  3.2212  1.2782
  137OSM   C18S14956   1.378   6.591   5.034  0.1382 -0.0331 -0.2566
  137OSM   H18S14957   1.443   6.680   5.051  1.8685 -1.0101 -1.4729
  137OSM   H18T14958   1.287   6.609   5.095  0.8593 -1.2609  1.2457
  137OSM   H18U14959   1.342   6.592   4.929  1.3598  2.0654 -0.7164
  137OSM    C1F14960   2.458   6.994   6.260 -0.1307 -0.4169 -0.4287
  137OSM     OF14961   2.553   6.921   6.292 -0.4744  0.2588  0.6256
  137OSM    C2F14962   2.471   7.122   6.175  0.5252 -0.1877 -0.3091
  137OSM    H2F14963   2.546   7.187   6.225 -0.7672 -0.8872  2.7696
  137OSM    H2G14964   2.369   7.165   6.174 -0.3355 -1.8228  2.7344
  137OSM    C3F14965   2.524   7.083   6.036  0.3774  0.6895 -0.0550
  137OSM    H3F14966   2.615   7.021   6.055 -0.7440 -0.7913  0.7623
  137OSM    H3G14967   2.554   7.174   5.980 -2.2027  2.1288  0.7634
  137OSM    C4F14968   2.429   7.000   5.954 -0.1571 -0.3586  0.2700
  137OSM    H4F14969   2.407   6.901   5.999 -2.2439 -0.3029 -0.5497
  137OSM    H4G14970   2.475   6.975   5.855 -1.7542 -0.1031 -0.5671
  137OSM    C5F14971   2.288   7.057   5.942 -0.2463 -0.1029 -0.7709
  137OSM    H5F14972   2.300   7.155   5.890 -2.0930  2.0708  2.5732
  137OSM    H5G14973   2.243   7.080   6.040 -1.3298  1.3715 -1.5781
  137OSM    C6F14974   2.185   6.971   5.867 -0.6148 -0.0158  0.4313
  137OSM    H6F14975   2.085   7.002   5.904 -0.5696 -2.3639  2.7660
  137OSM    H6G14976   2.216   6.868   5.895  1.2428  0.0339 -1.1983
  137OSM    C7F14977   2.187   6.989   5.714 -1.0377 -0.3459  0.7872
  137OSM    H7F14978   2.292   7.012   5.686 -1.3726 -1.0340 -1.2227
  137OSM    H7G14979   2.122   7.075   5.690 -0.8912 -0.2849  0.6067
  137OSM    C8F14980   2.159   6.864   5.634  0.1951 -0.2651 -0.4678
  137OSM    H8F14981   2.211   6.782   5.689  0.9343 -1.7360 -3.1102
  137OSM    H8G14982   2.200   6.856   5.531 -0.6838 -0.7425 -0.7948
  137OSM    C9F14983   2.013   6.824   5.634  0.0018  0.5778 -0.4466
  137OSM    H9F14984   1.975   6.796   5.733  0.0797  0.4358 -0.4561
  137OSM   C10F14985   1.931   6.815   5.526 -0.0116  0.0357 -0.7041
  137OSM   H10F14986   1.826   6.794   5.553 -0.1779  0.6922 -0.8195
  137OSM   C11F14987   1.970   6.864   5.393 -0.3316 -0.2362  1.1398
  137OSM   H11F14988   2.069   6.911   5.376 -0.7134 -0.2361 -1.4385
  137OSM   H11G14989   1.911   6.956   5.372  2.4306  1.3014 -0.5717
  137OSM   C12F14990   1.941   6.773   5.272  0.4648  0.2487  0.4273
  137OSM   H12F14991   1.831   6.763   5.264  0.6715 -0.1773 -3.6709
  137OSM   H12G14992   1.978   6.671   5.296  0.2674  0.2304  0.6651
  137OSM   C13F14993   1.993   6.840   5.139  0.1556 -0.0097  0.1478
  137OSM   H13F14994   1.949   6.942   5.149 -1.2516 -0.5760 -0.0638
  137OSM   H13G14995   1.935   6.803   5.052  1.7866  1.8023 -1.8135
  137OSM   C14F14996   2.145   6.831   5.115 -0.7505 -0.0826  0.4501
  137OSM   H14F14997   2.183   6.726   5.107  1.2763  0.7722 -3.9559
  137OSM   H14G14998   2.213   6.879   5.189 -1.5804  2.2883 -0.2509
  137OSM   C15F14999   2.199   6.890   4.977 -0.0879 -0.2318  0.4496
  137OSM   H15F15000   2.197   7.000   4.995 -0.6238  0.4578 -3.0743
  137OSM   H15G15001   2.124   6.871   4.898  0.7320  1.1697 -0.7111
  137OSM   C16F15002   2.335   6.859   4.918 -0.0216  0.3987 -0.3670
  137OSM   H16F15003   2.419   6.858   4.991 -0.4328 -0.1596  0.1045
  137OSM   H16G15004   2.363   6.920   4.830 -0.4042  2.4576  0.8705
  137OSM   C17F15005   2.337   6.714   4.863  0.6108  0.2726 -0.2927
  137OSM   H17F15006   2.234   6.686   4.833  0.5386  0.3067 -0.0816
  137OSM   H17G15007   2.372   6.652   4.949  0.0662  3.0558  2.1073
  137OSM   C18F15008   2.432   6.706   4.745 -0.1305  0.1496  0.2885
  137OSM   H18F15009   2.534   6.736   4.777  0.0494  0.1498 -0.2669
  137OSM   H18G15010   2.395   6.767   4.660 -0.1856 -2.0077 -1.3297
  137OSM   H18H15011   2.430   6.600   4.713 -1.1670  0.4696 -0.7693
  138OSM      N15012   5.503   5.278   7.066 -0.7604  0.1053  0.0752
  138OSM    C1515013   5.481   5.280   7.214  0.0295 -0.6908  0.5681
  138OSM   H15A15014   5.575   5.288   7.267  0.3319 -0.9635  0.0834
  138OSM   H15B15015   5.434   5.190   7.251 -0.6329  0.1668  1.8826
  138OSM   H15C15016   5.414   5.361   7.236 -0.6439 -1.2625  0.6718
  138OSM    C1415017   5.378   5.226   6.987  0.6690  0.2237  0.3195
  138OSM   H14A15018   5.412   5.197   6.889 -1.1322  0.2269 -0.3467
  138OSM   H14B15019   5.295   5.295   6.997  0.2026 -0.3409  0.4023
  138OSM   H14C15020   5.349   5.134   7.035  2.4409 -2.1486 -2.8454
  138OSM    C1315021   5.540   5.419   7.022 -0.1637 -0.1523  0.4811
  138OSM   H13A15022   5.454   5.483   7.019 -1.3346 -1.6763 -0.1770
  138OSM   H13B15023   5.585   5.420   6.923  1.2993  0.1779  1.1231
  138OSM   H13C15024   5.611   5.457   7.093  0.9019 -1.2845  0.0689
  138OSM    C1215025   5.617   5.187   7.016  0.8931 -0.1103  0.7879
  138OSM   H12A15026   5.613   5.085   7.049  1.8558 -0.8371 -1.1738
  138OSM   H12B15027   5.709   5.213   7.066  0.2053  3.1560  0.5817
  138OSM    C1115028   5.653   5.179   6.859  0.1451  0.0596  0.0259
  138OSM   H11A15029   5.557   5.155   6.808  0.7816  0.5704 -1.4590
  138OSM   H11B15030   5.726   5.097   6.843 -1.0817 -0.7099 -2.0500
  138OSM      P15031   5.859   5.343   6.844  0.2356 -0.2223 -0.0619
  138OSM    O1315032   5.890   5.478   6.782 -0.0605  0.1841  0.8798
  138OSM    O1415033   5.868   5.326   6.991 -0.3455  0.2136  0.0824
  138OSM    O1115034   5.955   5.241   6.777 -0.4903 -0.1972 -0.0540
  138OSM    O1215035   5.710   5.300   6.803 -0.3476  0.7056 -0.4963
  138OSM    C1S15036   5.935   5.193   6.640  0.5584 -0.0889  0.0692
  138OSM    H1S15037   5.925   5.272   6.563 -2.7287 -0.0900  0.3752
  138OSM    H1T15038   5.832   5.156   6.624  0.5338 -2.1238  3.7400
  138OSM     NF15039   6.039   5.059   6.457 -0.0618 -0.5263 -0.8240
  138OSM    HNF15040   6.018   4.968   6.423  0.9920 -1.8157  1.6939
  138OSM    C2S15041   6.034   5.088   6.596  0.0143  0.7341 -0.3797
  138OSM    H2S15042   6.128   5.139   6.626 -0.6739  0.9272  1.6082
  138OSM    C3S15043   6.019   4.965   6.686 -0.6179  0.2933 -0.1662
  138OSM    H3S15044   5.919   4.916   6.681 -0.0906 -0.6435 -2.1541
  138OSM     O315045   6.037   4.995   6.824 -0.1664 -0.4102  0.0667
  138OSM    HO315046   6.026   5.090   6.831  1.7407 -0.1918  0.8789
  138OSM    C4S15047   6.119   4.857   6.650 -0.0411 -0.3722 -0.1680
  138OSM    H4S15048   6.083   4.768   6.595  1.2959 -1.0453  0.0002
  138OSM    C5S15049   6.248   4.861   6.675 -0.1486  0.7066  0.5349
  138OSM    H5S15050   6.283   4.951   6.728 -0.9193  0.7322  1.0145
  138OSM    C6S15051   6.344   4.742   6.633 -0.6844 -0.9085  0.1543
  138OSM    H6S15052   6.377   4.699   6.729 -0.3725 -1.0368 -0.0095
  138OSM    H6T15053   6.431   4.793   6.587 -1.4590  0.6406  0.3049
  138OSM    C7S15054   6.290   4.627   6.538 -0.0690  0.0177 -0.0477
  138OSM    H7S15055   6.193   4.599   6.584  0.8039 -2.0819  0.6316
  138OSM    H7T15056   6.343   4.532   6.558 -0.7528 -0.8351 -2.0768
  138OSM    C8S15057   6.281   4.667   6.397  0.4500  0.2295  0.0673
  138OSM    H8S15058   6.357   4.744   6.374  0.3140  0.0024 -1.1767
  138OSM    H8T15059   6.184   4.720   6.386  0.7273  0.5550 -0.8067
  138OSM    C9S15060   6.308   4.560   6.294 -0.4296 -0.1963  0.7691
  138OSM    H9S15061   6.236   4.476   6.311 -0.7485  0.1088  0.9483
  138OSM    H9T15062   6.413   4.526   6.286  0.7131  3.3890 -2.1702
  138OSM   C10S15063   6.270   4.610   6.154  0.0491 -0.4131 -0.0119
  138OSM   H10S15064   6.269   4.523   6.085  0.8818  0.1804 -0.7874
  138OSM   H10T15065   6.352   4.675   6.117  0.1231 -1.0673 -1.0245
  138OSM   C11S15066   6.127   4.669   6.132 -0.1682  0.8602 -0.2091
  138OSM   H11S15067   6.124   4.771   6.177  1.4538  0.7074  0.2960
  138OSM   H11T15068   6.054   4.599   6.177 -2.0068  1.9863 -1.3251
  138OSM   C12S15069   6.100   4.700   5.988  0.4429 -0.0530  0.7305
  138OSM   H12S15070   6.066   4.613   5.927  0.6798 -0.6822  1.4784
  138OSM   H12T15071   6.193   4.740   5.942 -0.2568  3.9182  2.3566
  138OSM   C13S15072   5.990   4.807   5.971 -0.1106 -0.0561  0.3384
  138OSM   H13S15073   6.006   4.901   6.028  0.7908 -0.1765  0.2834
  138OSM   H13T15074   5.905   4.757   6.022  0.1314 -1.7668 -0.8622
  138OSM   C14S15075   5.953   4.833   5.823 -0.1108 -0.4092 -0.9418
  138OSM   H14S15076   5.871   4.908   5.832  1.2194  0.9762  0.0644
  138OSM   H14T15077   5.910   4.738   5.785  2.4238 -1.9161 -0.2762
  138OSM   C15S15078   6.062   4.908   5.738 -0.1508 -0.6242  0.2094
  138OSM   H15S15079   6.157   4.853   5.749  0.2997 -0.1247 -0.9767
  138OSM   H15T15080   6.082   5.013   5.769  2.1500 -1.1750  0.7448
  138OSM   C16S15081   6.030   4.927   5.584  0.0670  0.0717 -0.7582
  138OSM   H16S15082   6.125   4.945   5.529  2.3427  1.1130  3.1286
  138OSM   H16T15083   5.957   5.009   5.571 -2.3123 -1.7683  0.2362
  138OSM   C17S15084   5.956   4.814   5.505  0.7382  0.6372  0.3359
  138OSM   H17S15085   5.864   4.780   5.557  1.0134  3.2073  2.7949
  138OSM   H17T15086   6.016   4.721   5.510 -1.4656 -1.3781 -4.7659
  138OSM   C18S15087   5.950   4.848   5.358  0.3475  1.0799  0.2446
  138OSM   H18S15088   6.015   4.932   5.326 -0.0482  1.6005  0.7520
  138OSM   H18T15089   5.849   4.882   5.327  0.7011 -0.0492 -2.3749
  138OSM   H18U15090   5.983   4.762   5.297  1.4850  1.7746 -0.1368
  138OSM    C1F15091   6.082   5.149   6.369 -0.4361 -0.1560  0.2958
  138OSM     OF15092   6.130   5.257   6.416  0.2277  0.2793  0.7468
  138OSM    C2F15093   6.070   5.113   6.224  0.5625  0.1612  1.0846
  138OSM    H2F15094   5.983   5.172   6.189  1.3730  1.1152  0.6225
  138OSM    H2G15095   6.051   5.004   6.213 -1.9165  0.8117 -2.7860
  138OSM    C3F15096   6.192   5.132   6.136 -0.2081  0.1766  0.4302
  138OSM    H3F15097   6.218   5.239   6.131  0.4222  0.0793  1.3328
  138OSM    H3G15098   6.175   5.100   6.031  1.4731 -0.1730  0.2197
  138OSM    C4F15099   6.311   5.055   6.187  0.2365  0.0550 -0.5488
  138OSM    H4F15100   6.279   4.954   6.220 -0.6128  1.2202  2.4797
  138OSM    H4G15101   6.339   5.105   6.282 -3.0399 -0.6530  0.9063
  138OSM    C5F15102   6.428   5.056   6.093 -0.2892 -0.2427 -0.4607
  138OSM    H5F15103   6.523   5.049   6.150  0.3851  0.1551 -1.5155
  138OSM    H5G15104   6.432   5.158   6.050  2.9001 -0.2153 -0.3021
  138OSM    C6F15105   6.432   4.956   5.980  0.4979 -0.0095  0.2912
  138OSM    H6F15106   6.329   4.924   5.955  0.5253  0.2084 -0.0977
  138OSM    H6G15107   6.479   4.858   6.006  1.1952  0.1434 -0.3817
  138OSM    C7F15108   6.486   5.020   5.849 -0.6326  0.2620 -0.4006
  138OSM    H7F15109   6.594   5.043   5.866 -0.4469  0.5822 -1.9140
  138OSM    H7G15110   6.428   5.111   5.826 -0.8749  0.2900  0.2861
  138OSM    C8F15111   6.473   4.923   5.732 -0.0416 -0.4442 -0.1954
  138OSM    H8F15112   6.365   4.914   5.711 -0.1916  0.5916  0.0773
  138OSM    H8G15113   6.515   4.824   5.758 -1.0619 -0.8633 -0.1159
  138OSM    C9F15114   6.544   4.983   5.610  0.1294 -0.0617  0.2355
  138OSM    H9F15115   6.636   5.039   5.634 -0.0687 -0.6926  2.7532
  138OSM   C10F15116   6.512   4.963   5.480  0.0735 -0.5167 -0.6368
  138OSM   H10F15117   6.573   5.030   5.418  0.9288  0.5280  1.2486
  138OSM   C11F15118   6.417   4.863   5.420 -0.2263 -0.2199  0.1979
  138OSM   H11F15119   6.317   4.865   5.467 -0.7329  1.0268 -0.8689
  138OSM   H11G15120   6.460   4.764   5.447 -0.5837 -1.5713 -3.5531
  138OSM   C12F15121   6.421   4.864   5.271  0.1867 -0.6072  0.0498
  138OSM   H12F15122   6.524   4.869   5.230 -0.6189 -0.2904 -2.0643
  138OSM   H12G15123   6.376   4.956   5.229  2.1126 -0.8531 -2.8651
  138OSM   C13F15124   6.346   4.757   5.196 -0.4964 -0.6691  0.2334
  138OSM   H13F15125   6.248   4.755   5.248 -1.0648 -1.5601 -0.8355
  138OSM   H13G15126   6.400   4.663   5.221  0.5320  0.2217  1.4877
  138OSM   C14F15127   6.329   4.792   5.047 -0.1271 -0.1653 -0.4520
  138OSM   H14F15128   6.423   4.818   4.994 -0.7815  0.3061 -1.4046
  138OSM   H14G15129   6.268   4.885   5.055  0.2353  0.0980 -0.7213
  138OSM   C15F15130   6.242   4.681   4.986 -0.3297 -0.7397 -0.3181
  138OSM   H15F15131   6.141   4.701   5.028  0.7675  1.9991  1.2668
  138OSM   H15G15132   6.276   4.578   5.009 -0.7465 -0.5241  1.3568
  138OSM   C16F15133   6.243   4.699   4.833 -0.1893  0.1092 -0.5893
  138OSM   H16F15134   6.191   4.608   4.797 -0.9144  0.0663  0.4819
  138OSM   H16G15135   6.347   4.702   4.794  0.3570 -0.4878  0.7697
  138OSM   C17F15136   6.165   4.825   4.774 -0.5945  0.0287 -0.0918
  138OSM   H17F15137   6.221   4.917   4.804 -0.7917 -0.2023  1.0463
  138OSM   H17G15138   6.071   4.825   4.833 -0.7459 -1.0292 -0.3198
  138OSM   C18F15139   6.149   4.806   4.628  0.8132  0.2176 -0.5479
  138OSM   H18F15140   6.114   4.704   4.602  0.4019  0.2104  0.0037
  138OSM   H18G15141   6.243   4.826   4.573 -0.0989 -2.2691 -3.2941
  138OSM   H18H15142   6.073   4.879   4.594  1.4440  0.9111 -0.4894
  139OSM      N15143   2.091   0.144   7.071 -0.2373  0.0813 -0.2987
  139OSM    C1515144   2.161   0.009   7.041  0.1279  0.0095  0.8884
  139OSM   H15A15145   2.092  -0.072   7.020 -1.7625  0.8309  3.5023
  139OSM   H15B15146   2.206  -0.033   7.129 -1.1881 -0.7538  1.2225
  139OSM   H15C15147   2.249   0.020   6.979 -1.7142 -0.3879 -1.9849
  139OSM    C1415148   1.986   0.132   7.183  0.0596 -0.1229  1.2314
  139OSM   H14A15149   1.938   0.036   7.178  0.1939 -0.2260  1.8517
  139OSM   H14B15150   1.918   0.215   7.187  1.5268  1.2756 -0.8611
  139OSM   H14C15151   2.034   0.139   7.280 -0.4058 -0.6251  1.5047
  139OSM    C1315152   2.191   0.238   7.120  0.4117  0.1604  0.3469
  139OSM   H13A15153   2.154   0.340   7.123  0.6280  0.3834 -2.3190
  139OSM   H13B15154   2.279   0.246   7.058  2.3142  1.2325  2.9993
  139OSM   H13C15155   2.234   0.224   7.218 -0.9151  2.0337  1.2540
  139OSM    C1215156   2.026   0.186   6.940 -0.1542  0.1224 -0.5248
  139OSM   H12A15157   1.961   0.268   6.966 -0.4147  0.5064 -2.2961
  139OSM   H12B15158   1.950   0.110   6.929  0.4346 -0.7192  0.7955
  139OSM    C1115159   2.112   0.215   6.817  0.5253 -0.0529 -0.1322
  139OSM   H11A15160   2.049   0.231   6.726 -4.3799 -1.0452  2.7378
  139OSM   H11B15161   2.178   0.130   6.789 -0.1118 -0.3496 -0.7894
  139OSM      P15162   2.105   0.475   6.800  0.0398 -0.0945 -0.5174
  139OSM    O1315163   2.089   0.555   6.921 -0.4049 -1.1838  0.2183
  139OSM    O1415164   2.178   0.541   6.686  0.2490 -0.0590 -0.4897
  139OSM    O1115165   1.955   0.429   6.751 -0.1604 -0.8846  0.1729
  139OSM    O1215166   2.183   0.336   6.832  0.0789 -0.0967 -0.3702
  139OSM    C1S15167   1.929   0.438   6.610  0.1636  0.4367 -0.6601
  139OSM    H1S15168   1.985   0.362   6.552  0.3810 -0.5819  0.8408
  139OSM    H1T15169   1.964   0.535   6.569 -1.6902  1.4914  0.0955
  139OSM     NF15170   1.753   0.460   6.439 -0.3382  0.4895  0.3679
  139OSM    HNF15171   1.715   0.552   6.429 -0.5518  0.4994  1.2478
  139OSM    C2S15172   1.781   0.419   6.576 -0.3887 -0.4904  0.4149
  139OSM    H2S15173   1.758   0.311   6.585 -1.0900 -0.3185  0.7524
  139OSM    C3S15174   1.694   0.480   6.686  0.7737 -0.1676 -0.0021
  139OSM    H3S15175   1.712   0.590   6.692  4.0667 -0.6974  2.0281
  139OSM     O315176   1.713   0.449   6.827  0.4577 -0.0145  0.4278
  139OSM    HO315177   1.806   0.427   6.828  0.8111  1.3700 -0.1950
  139OSM    C4S15178   1.555   0.444   6.655  0.0225 -0.2368 -0.2489
  139OSM    H4S15179   1.530   0.337   6.643 -0.7867 -0.1397  0.4421
  139OSM    C5S15180   1.461   0.541   6.646  0.2406  0.0358  0.0064
  139OSM    H5S15181   1.487   0.648   6.650 -3.0915  0.9164  3.1802
  139OSM    C6S15182   1.315   0.518   6.617 -0.7250  0.3560  0.0908
  139OSM    H6S15183   1.300   0.593   6.536 -0.4073 -0.5187 -0.7896
  139OSM    H6T15184   1.265   0.549   6.711 -1.4196 -1.7306  0.4440
  139OSM    C7S15185   1.266   0.382   6.559 -0.3218 -0.3274  0.4194
  139OSM    H7S15186   1.157   0.402   6.545 -0.0506 -0.0918 -1.6310
  139OSM    H7T15187   1.288   0.303   6.633 -0.6927  0.6124  1.5598
  139OSM    C8S15188   1.325   0.340   6.422 -0.1431 -0.0403  0.1527
  139OSM    H8S15189   1.316   0.229   6.414 -1.2010 -0.0051  0.6397
  139OSM    H8T15190   1.429   0.372   6.399 -0.4495  0.8071 -0.0840
  139OSM    C9S15191   1.254   0.408   6.310  0.7800 -0.1332  0.7545
  139OSM    H9S15192   1.269   0.517   6.324  0.2272  0.4169 -2.2711
  139OSM    H9T15193   1.148   0.386   6.335  0.8548  1.5866  2.9253
  139OSM   C10S15194   1.303   0.369   6.167 -0.1374 -0.3953 -0.5629
  139OSM   H10S15195   1.330   0.263   6.187 -2.1175 -0.9220 -0.4048
  139OSM   H10T15196   1.396   0.422   6.137 -1.3421  0.9752 -2.0816
  139OSM   C11S15197   1.202   0.400   6.067  0.1321 -1.3822  0.5190
  139OSM   H11S15198   1.158   0.501   6.085 -1.6171 -2.0009 -0.1273
  139OSM   H11T15199   1.133   0.314   6.067 -0.6194 -0.8491  2.8734
  139OSM   C12S15200   1.259   0.400   5.919  0.5473 -0.1119 -0.3502
  139OSM   H12S15201   1.308   0.302   5.904 -1.4517 -1.2160 -0.0296
  139OSM   H12T15202   1.339   0.476   5.903  1.0407  0.1600  2.7260
  139OSM   C13S15203   1.148   0.396   5.811 -0.1576 -1.5491  0.0323
  139OSM   H13S15204   1.086   0.485   5.836  1.1853 -0.6897  0.4063
  139OSM   H13T15205   1.078   0.311   5.825 -0.6636 -1.3562 -1.2283
  139OSM   C14S15206   1.210   0.391   5.674 -0.3694  0.3697 -1.1044
  139OSM   H14S15207   1.249   0.288   5.660  0.2890  0.0854  2.1323
  139OSM   H14T15208   1.305   0.448   5.669  1.4219 -2.4431 -1.0279
  139OSM   C15S15209   1.120   0.442   5.564  0.3439  0.5371  0.0964
  139OSM   H15S15210   1.097   0.548   5.591 -0.5999  0.2204  0.5742
  139OSM   H15T15211   1.017   0.403   5.556 -0.4577  2.7229 -1.2314
  139OSM   C16S15212   1.192   0.431   5.425 -0.8095 -0.0066  0.2826
  139OSM   H16S15213   1.211   0.327   5.390 -0.1691  0.7594 -1.8335
  139OSM   H16T15214   1.296   0.470   5.430 -1.0258  0.5692  0.3870
  139OSM   C17S15215   1.123   0.523   5.324  0.5836  0.4108 -0.3769
  139OSM   H17S15216   1.116   0.623   5.370  0.4554 -0.6936  2.1389
  139OSM   H17T15217   1.018   0.491   5.310  0.5877 -0.1041  0.6740
  139OSM   C18S15218   1.201   0.541   5.199  0.4401  0.7854  0.9936
  139OSM   H18S15219   1.300   0.587   5.220 -0.8328  3.8599  0.7895
  139OSM   H18T15220   1.161   0.614   5.126 -0.7951 -1.7197 -1.0007
  139OSM   H18U15221   1.217   0.446   5.143 -2.4278 -0.2189  1.7310
  139OSM    C1F15222   1.807   0.410   6.330  0.5363  0.2145  0.1182
  139OSM     OF15223   1.883   0.311   6.338 -0.3768 -0.3037 -0.2183
  139OSM    C2F15224   1.771   0.467   6.203 -0.1837  0.9518  0.0425
  139OSM    H2F15225   1.763   0.577   6.216  3.2487  1.4537 -1.1034
  139OSM    H2G15226   1.672   0.426   6.173 -0.0702  0.2559  0.5989
  139OSM    C3F15227   1.873   0.435   6.089 -0.2951  0.3407 -0.4281
  139OSM    H3F15228   1.896   0.326   6.091 -0.3395  0.3350  0.5164
  139OSM    H3G15229   1.971   0.485   6.109 -0.6939  0.7241  0.6557
  139OSM    C4F15230   1.820   0.473   5.958 -0.2377  0.6623  0.5293
  139OSM    H4F15231   1.808   0.583   5.951  2.1956  0.9081 -1.0606
  139OSM    H4G15232   1.720   0.429   5.935  0.3279 -0.6940  0.5607
  139OSM    C5F15233   1.920   0.431   5.846 -0.4839 -0.1038 -0.2460
  139OSM    H5F15234   1.923   0.321   5.830 -2.8575 -0.5325  1.8201
  139OSM    H5G15235   2.021   0.451   5.890 -0.0408 -1.5909 -0.5032
  139OSM    C6F15236   1.906   0.508   5.715  0.0612  0.1364  0.0682
  139OSM    H6F15237   1.966   0.452   5.640 -1.2511 -0.0250 -0.9040
  139OSM    H6G15238   1.965   0.601   5.721 -0.0669  0.3127 -1.1973
  139OSM    C7F15239   1.764   0.533   5.674 -0.2822  0.3212  0.5708
  139OSM    H7F15240   1.728   0.610   5.746  0.4821 -0.6780  2.0857
  139OSM    H7G15241   1.709   0.437   5.688 -0.0802  0.4150  2.3531
  139OSM    C8F15242   1.751   0.596   5.532  0.0745 -0.0805  0.6692
  139OSM    H8F15243   1.782   0.518   5.460 -3.5245 -1.7632  0.7005
  139OSM    H8G15244   1.829   0.674   5.523  0.6096 -0.8337 -2.0167
  139OSM    C9F15245   1.610   0.637   5.510  0.0918 -0.4084  0.3572
  139OSM    H9F15246   1.530   0.570   5.545 -1.7953  2.0949  1.1245
  139OSM   C10F15247   1.576   0.748   5.448  0.8612  0.1728 -0.4562
  139OSM   H10F15248   1.469   0.769   5.432  1.1237  1.2341 -0.8840
  139OSM   C11F15249   1.671   0.842   5.389  0.3080 -0.6439 -0.1285
  139OSM   H11F15250   1.771   0.795   5.379 -0.6078 -3.3406  2.0050
  139OSM   H11G15251   1.686   0.928   5.458 -2.2355 -0.3860  0.1905
  139OSM   C12F15252   1.634   0.892   5.247 -0.1003 -0.0760  0.4966
  139OSM   H12F15253   1.540   0.951   5.258 -0.1108  0.2344 -1.0920
  139OSM   H12G15254   1.612   0.809   5.178 -3.1435  2.5085 -1.9622
  139OSM   C13F15255   1.739   0.999   5.203 -0.3396  0.1243 -0.0995
  139OSM   H13F15256   1.834   0.958   5.242 -0.8099  0.6336  1.6622
  139OSM   H13G15257   1.713   1.092   5.259  0.0350  0.3389 -0.2783
  139OSM   C14F15258   1.739   1.023   5.049 -0.4918  0.0760 -0.3665
  139OSM   H14F15259   1.740   0.926   4.995 -1.7942  3.0928 -6.6731
  139OSM   H14G15260   1.827   1.086   5.023 -0.2811 -0.9693 -2.3276
  139OSM   C15F15261   1.616   1.110   5.010  0.1226  0.3717  0.0464
  139OSM   H15F15262   1.531   1.047   5.044 -0.6566 -0.9281 -3.7941
  139OSM   H15G15263   1.617   1.103   4.899  0.1130  1.3357 -0.0216
  139OSM   C16F15264   1.604   1.255   5.067 -1.0613  0.6165 -0.3706
  139OSM   H16F15265   1.704   1.302   5.069 -0.2322 -1.1081  0.9484
  139OSM   H16G15266   1.587   1.238   5.175  1.6794  0.6909  0.1348
  139OSM   C17F15267   1.494   1.335   4.996  0.4990  0.2427 -0.7005
  139OSM   H17F15268   1.417   1.257   4.975  1.1758 -0.5907 -0.1443
  139OSM   H17G15269   1.528   1.363   4.894  0.5257 -3.6737 -1.9364
  139OSM   C18F15270   1.437   1.456   5.077  0.2380 -0.1487  0.1466
  139OSM   H18F15271   1.337   1.485   5.041  0.2731  0.1757  0.3104
  139OSM   H18G15272   1.500   1.545   5.056 -0.5792  0.0341 -1.6401
  139OSM   H18H15273   1.435   1.431   5.185 -1.3752 -0.0197  0.1605
  140OSM      N15274   2.127   5.851   7.431 -0.9535  1.0318 -0.5113
  140OSM    C1515275   2.238   5.807   7.522  1.0849 -0.2794 -1.0476
  140OSM   H15A15276   2.223   5.856   7.617 -3.7473 -0.1154 -1.6550
  140OSM   H15B15277   2.330   5.848   7.485  1.3520  1.3366  1.1727
  140OSM   H15C15278   2.252   5.701   7.531  2.1735  0.0120  1.4239
  140OSM    C1415279   1.994   5.825   7.507 -0.5771  0.2017  0.2233
  140OSM   H14A15280   1.906   5.870   7.463 -2.0509 -3.1715 -0.5982
  140OSM   H14B15281   2.004   5.857   7.609  1.0158 -1.3651  0.6085
  140OSM   H14C15282   1.976   5.719   7.510 -0.3772  0.1497 -0.3058
  140OSM    C1315283   2.133   5.993   7.407  0.0190 -0.9559 -0.4976
  140OSM   H13A15284   2.235   6.027   7.410 -0.3566  0.3469 -1.7546
  140OSM   H13B15285   2.081   6.048   7.485 -3.1047  2.2668 -4.4170
  140OSM   H13C15286   2.086   6.026   7.316  0.8130  2.8047  0.3195
  140OSM    C1215287   2.125   5.780   7.305  0.0010 -0.2951  0.1575
  140OSM   H12A15288   2.029   5.783   7.255  0.0951 -0.8565 -0.0693
  140OSM   H12B15289   2.144   5.674   7.320 -0.2808 -0.6358 -1.7016
  140OSM    C1115290   2.232   5.827   7.208 -0.3636 -1.0525 -0.5874
  140OSM   H11A15291   2.218   5.929   7.167  0.6786 -0.7533 -0.1978
  140OSM   H11B15292   2.214   5.773   7.112 -0.7920  0.5525 -1.4369
  140OSM      P15293   2.448   5.684   7.207 -0.1833  0.0682 -0.2546
  140OSM    O1315294   2.592   5.720   7.194  0.1515 -0.3884  0.2518
  140OSM    O1415295   2.408   5.575   7.298  0.5306 -0.1044 -0.3217
  140OSM    O1115296   2.399   5.641   7.063 -0.1292  0.4451 -0.0915
  140OSM    O1215297   2.367   5.814   7.251  0.6221 -0.0593 -0.1032
  140OSM    C1S15298   2.425   5.715   6.942  0.3556  0.0925  0.0052
  140OSM    H1S15299   2.535   5.717   6.928  0.6018  0.9889  1.7707
  140OSM    H1T15300   2.391   5.820   6.955  0.7919  0.3261 -0.6817
  140OSM     NF15301   2.365   5.755   6.707 -0.3006 -0.1039  0.4082
  140OSM    HNF15302   2.286   5.809   6.680  0.5463  0.8464 -0.2389
  140OSM    C2S15303   2.351   5.665   6.820 -0.0978  0.8166 -0.3406
  140OSM    H2S15304   2.389   5.563   6.796 -1.4628  0.3158 -0.4188
  140OSM    C3S15305   2.207   5.638   6.859  0.8314  0.9818 -0.3644
  140OSM    H3S15306   2.147   5.724   6.895 -1.4153  0.3714 -2.4224
  140OSM     O315307   2.195   5.541   6.963 -0.4685 -0.4049  0.1161
  140OSM    HO315308   2.275   5.553   7.015  0.5410 -2.4396 -0.8408
  140OSM    C4S15309   2.135   5.582   6.744  0.0294  0.0339  0.1924
  140OSM    H4S15310   2.144   5.474   6.727 -2.4826 -0.3874  1.1409
  140OSM    C5S15311   2.028   5.648   6.690  0.1885 -0.1546 -0.6571
  140OSM    H5S15312   1.984   5.734   6.744  2.5148  1.4182 -1.1432
  140OSM    C6S15313   1.933   5.575   6.593 -0.0476 -0.1881 -0.0007
  140OSM    H6S15314   1.829   5.601   6.621 -0.2582 -1.9128  0.9075
  140OSM    H6T15315   1.949   5.465   6.591  1.6649  0.0240  0.0076
  140OSM    C7S15316   1.956   5.632   6.449 -0.3546 -0.3849  0.2014
  140OSM    H7S15317   2.062   5.625   6.419 -0.1832 -1.3242  1.0078
  140OSM    H7T15318   1.924   5.739   6.457  0.1993 -0.2764  1.1350
  140OSM    C8S15319   1.879   5.554   6.340  0.0498  0.5622 -0.5509
  140OSM    H8S15320   1.773   5.537   6.366 -0.1077  3.0162  0.6282
  140OSM    H8T15321   1.938   5.460   6.343  0.1237  0.6272  0.0939
  140OSM    C9S15322   1.899   5.608   6.199  0.1530  0.2337  0.3510
  140OSM    H9S15323   2.000   5.653   6.186  0.3543 -0.4283 -0.4843
  140OSM    H9T15324   1.822   5.682   6.170 -1.4701 -0.9017  1.5970
  140OSM   C10S15325   1.885   5.494   6.091  0.2269 -0.6322  0.3419
  140OSM   H10S15326   1.815   5.414   6.121 -1.2865  1.2616  2.2327
  140OSM   H10T15327   1.982   5.441   6.098 -0.0916 -1.4039 -0.8586
  140OSM   C11S15328   1.854   5.548   5.954  0.2814  0.1663  0.4898
  140OSM   H11S15329   1.923   5.630   5.928  3.0278 -2.3079 -0.6502
  140OSM   H11T15330   1.748   5.579   5.964 -0.4008 -1.5228 -1.0157
  140OSM   C12S15331   1.852   5.446   5.838 -0.5673  0.6747 -0.1387
  140OSM   H12S15332   1.781   5.361   5.843  1.2818 -0.8660  2.2616
  140OSM   H12T15333   1.952   5.397   5.839 -0.2335  1.0403  4.8428
  140OSM   C13S15334   1.828   5.517   5.710 -0.3600 -0.3027  0.4147
  140OSM   H13S15335   1.900   5.594   5.673 -1.0467  1.4040  2.4473
  140OSM   H13T15336   1.727   5.563   5.713 -1.6733 -2.8761 -1.2633
  140OSM   C14S15337   1.813   5.418   5.593  0.8653 -0.1001 -0.0489
  140OSM   H14S15338   1.740   5.344   5.634  0.2693  0.6319  0.2227
  140OSM   H14T15339   1.910   5.369   5.572  1.0183  0.2178 -0.0869
  140OSM   C15S15340   1.757   5.482   5.469 -0.4755 -0.0655  0.5351
  140OSM   H15S15341   1.824   5.566   5.439 -1.6557  1.5622  2.2187
  140OSM   H15T15342   1.658   5.523   5.499  0.5338  2.3498  0.8348
  140OSM   C16S15343   1.760   5.385   5.353  0.6338 -0.7184  0.1358
  140OSM   H16S15344   1.702   5.294   5.381 -1.3605 -0.1038 -1.7396
  140OSM   H16T15345   1.863   5.352   5.326  0.2778 -1.1451 -0.7539
  140OSM   C17S15346   1.719   5.442   5.221  0.7378  0.2608  0.2051
  140OSM   H17S15347   1.758   5.377   5.139 -2.4181 -1.4754 -0.0730
  140OSM   H17T15348   1.766   5.541   5.200  1.6518 -0.0323  0.8257
  140OSM   C18S15349   1.570   5.443   5.187 -0.0348  0.0589  0.0225
  140OSM   H18S15350   1.524   5.343   5.173 -3.1332  1.2860  0.6193
  140OSM   H18T15351   1.543   5.497   5.093  1.7846 -0.4690 -0.8481
  140OSM   H18U15352   1.523   5.499   5.270  0.3401 -1.7050  1.4780
  140OSM    C1F15353   2.473   5.774   6.624  0.3289  0.4313 -0.4333
  140OSM     OF15354   2.575   5.710   6.641  0.3843 -0.4451  0.0757
  140OSM    C2F15355   2.454   5.867   6.503  0.1222  0.5146 -0.6043
  140OSM    H2F15356   2.548   5.860   6.445  0.5153  3.2069 -0.3813
  140OSM    H2G15357   2.438   5.970   6.539  0.1437  0.9096 -1.6863
  140OSM    C3F15358   2.328   5.826   6.427  0.5532  0.0417 -0.1802
  140OSM    H3F15359   2.246   5.845   6.500  1.6856  3.6763  0.3135
  140OSM    H3G15360   2.335   5.719   6.396  2.2872 -0.5595  2.0661
  140OSM    C4F15361   2.309   5.914   6.301 -0.3179 -0.0025  0.6666
  140OSM    H4F15362   2.412   5.906   6.259 -0.5629 -0.2984  0.1157
  140OSM    H4G15363   2.283   6.018   6.331 -1.6678 -0.5328  1.4186
  140OSM    C5F15364   2.216   5.854   6.197  0.8523  0.0471  0.1891
  140OSM    H5F15365   2.114   5.843   6.242  1.9210 -2.0924  2.3433
  140OSM    H5G15366   2.244   5.751   6.168  2.4479 -0.1251  2.1306
  140OSM    C6F15367   2.202   5.938   6.066 -0.0121  0.3798 -1.4332
  140OSM    H6F15368   2.299   5.941   6.012  0.1446  2.1172 -1.1075
  140OSM    H6G15369   2.182   6.045   6.088 -1.2541 -0.2295  0.6723
  140OSM    C7F15370   2.091   5.891   5.975  0.3484  0.4169 -0.8537
  140OSM    H7F15371   1.989   5.878   6.017 -1.5749 -0.5726 -5.3046
  140OSM    H7G15372   2.120   5.791   5.937 -0.1570 -0.3394  0.6623
  140OSM    C8F15373   2.078   5.982   5.850  0.4467  0.0617  0.0149
  140OSM    H8F15374   2.182   5.991   5.813  0.6168  2.0884  0.8583
  140OSM    H8G15375   2.056   6.085   5.888 -0.2688  0.2108 -0.7702
  140OSM    C9F15376   1.976   5.940   5.739  0.1068 -0.5451  0.3701
  140OSM    H9F15377   1.895   5.883   5.786  0.1908 -0.7294  0.2913
  140OSM   C10F15378   1.974   5.973   5.610  0.5853  0.0806  0.2374
  140OSM   H10F15379   1.883   5.939   5.558 -1.3168  0.9277  2.7706
  140OSM   C11F15380   2.074   6.055   5.533  0.2695  0.1142  0.3892
  140OSM   H11F15381   2.168   6.064   5.591 -0.0621 -0.7825  1.0989
  140OSM   H11G15382   2.034   6.155   5.507 -0.6556 -0.7032 -1.5888
  140OSM   C12F15383   2.117   5.979   5.401 -0.1042 -0.8797  0.1257
  140OSM   H12F15384   2.031   5.951   5.335  0.7469 -0.4761 -1.1892
  140OSM   H12G15385   2.172   5.889   5.435  0.5434 -1.0260 -1.2330
  140OSM   C13F15386   2.219   6.059   5.321  0.2485  0.4964  0.4445
  140OSM   H13F15387   2.288   5.993   5.265  2.2405  0.8103  2.4207
  140OSM   H13G15388   2.276   6.131   5.383  1.0551  0.8797 -0.7021
  140OSM   C14F15389   2.153   6.153   5.213  0.2932 -1.1017  0.0318
  140OSM   H14F15390   2.068   6.209   5.258 -0.2884 -1.2445 -0.8856
  140OSM   H14G15391   2.122   6.083   5.133 -1.5421  0.5579 -0.8127
  140OSM   C15F15392   2.244   6.265   5.158 -0.3955  0.2845 -0.0398
  140OSM   H15F15393   2.339   6.221   5.121 -0.1152  0.2394  0.7033
  140OSM   H15G15394   2.283   6.324   5.244 -1.3317  0.6368  0.1461
  140OSM   C16F15395   2.191   6.361   5.049  0.4056  0.3108 -0.8801
  140OSM   H16F15396   2.256   6.451   5.051  0.2666  0.5107  3.3359
  140OSM   H16G15397   2.085   6.390   5.064  0.5391  0.4613 -0.2077
  140OSM   C17F15398   2.199   6.304   4.908 -0.5653  0.1588 -0.3527
  140OSM   H17F15399   2.136   6.381   4.858 -0.5844  1.9855  2.2761
  140OSM   H17G15400   2.143   6.208   4.910 -1.1199  0.4746  1.3381
  140OSM   C18F15401   2.341   6.294   4.845 -0.1262 -0.2188 -0.8851
  140OSM   H18F15402   2.326   6.291   4.735  2.0708 -2.0767 -1.2216
  140OSM   H18G15403   2.385   6.197   4.878  1.7465  0.7021 -0.5190
  140OSM   H18H15404   2.415   6.373   4.871 -0.6389  0.5977 -1.8370
  141OSM      N15405   0.720   5.975   7.673  0.7362  0.5132 -0.6863
  141OSM    C1515406   0.707   6.124   7.683 -0.1773  0.5609  0.8845
  141OSM   H15A15407   0.607   6.141   7.721 -0.4580  2.0048 -0.3977
  141OSM   H15B15408   0.709   6.169   7.585  0.2151 -0.8842  0.1926
  141OSM   H15C15409   0.793   6.170   7.729  1.3227 -0.8090 -0.4366
  141OSM    C1415410   0.859   5.942   7.619  0.3750  0.4389 -0.0336
  141OSM   H14A15411   0.934   5.988   7.681  0.2146 -0.2350  0.6816
  141OSM   H14B15412   0.877   5.994   7.526  0.8768  1.7505  0.7747
  141OSM   H14C15413   0.880   5.836   7.608 -1.4191  0.2059 -1.8654
  141OSM    C1315414   0.713   5.914   7.807 -0.4761 -0.7601  0.5622
  141OSM   H13A15415   0.711   5.806   7.803  3.2480 -0.9414  0.2590
  141OSM   H13B15416   0.628   5.951   7.863  2.0355  3.1554  2.2231
  141OSM   H13C15417   0.795   5.929   7.876 -1.0855 -1.1530  1.3954
  141OSM    C1215418   0.602   5.911   7.592 -0.1089 -0.6662 -0.9538
  141OSM   H12A15419   0.509   5.913   7.646 -0.8634 -0.1649 -2.2345
  141OSM   H12B15420   0.617   5.805   7.578  1.6050 -0.5025 -0.6125
  141OSM    C1115421   0.568   5.976   7.455 -0.3107 -0.1038  0.9888
  141OSM   H11A15422   0.537   6.082   7.470 -2.1349  0.1395 -3.0973
  141OSM   H11B15423   0.483   5.921   7.409  0.5226 -0.1116 -0.6196
  141OSM      P15424   0.719   5.833   7.296  0.0526 -0.1183 -0.7231
  141OSM    O1315425   0.862   5.834   7.284 -0.1221  0.0696  0.3091
  141OSM    O1415426   0.651   5.717   7.369 -0.6824 -0.2195  0.2404
  141OSM    O1115427   0.652   5.841   7.152  0.0896  0.0957 -0.3433
  141OSM    O1215428   0.668   5.968   7.359  0.1541  0.8056 -0.0880
  141OSM    C1S15429   0.657   5.963   7.078 -0.5719  0.3893 -0.0207
  141OSM    H1S15430   0.759   5.973   7.036 -1.1079 -2.0347 -2.1772
  141OSM    H1T15431   0.641   6.050   7.144  2.3022  0.9900  0.0309
  141OSM     NF15432   0.580   6.048   6.880 -0.2215 -0.8486 -0.5005
  141OSM    HNF15433   0.517   6.124   6.894  1.2531  0.6154 -1.3640
  141OSM    C2S15434   0.559   5.941   6.964 -0.5627 -0.6327  0.0414
  141OSM    H2S15435   0.593   5.843   6.923 -0.0668 -0.7384  0.6850
  141OSM    C3S15436   0.411   5.920   7.012 -0.8514 -0.0157  0.6277
  141OSM    H3S15437   0.383   6.001   7.082  1.4341  0.0985  1.5122
  141OSM     O315438   0.393   5.807   7.093 -0.1706 -0.8429 -0.0925
  141OSM    HO315439   0.471   5.814   7.148 -0.1926  0.8399 -0.2192
  141OSM    C4S15440   0.316   5.925   6.889  0.0761  0.0460  0.0905
  141OSM    H4S15441   0.269   6.022   6.872 -2.5631 -0.8352  1.6919
  141OSM    C5S15442   0.285   5.817   6.819 -0.2955 -0.0579  0.2103
  141OSM    H5S15443   0.327   5.727   6.866  2.7191  0.8609 -0.4587
  141OSM    C6S15444   0.176   5.815   6.710  0.3163 -0.2375 -0.5408
  141OSM    H6S15445   0.124   5.913   6.703  1.0349  0.2048  0.1753
  141OSM    H6T15446   0.097   5.743   6.741  0.6788 -0.9422 -1.2224
  141OSM    C7S15447   0.249   5.780   6.582  0.1250 -0.3881  0.3693
  141OSM    H7S15448   0.286   5.675   6.585 -0.2360 -0.5215  0.2528
  141OSM    H7T15449   0.331   5.852   6.566 -1.1382  0.5859 -2.1404
  141OSM    C8S15450   0.154   5.779   6.459  1.0090 -0.5143 -0.1772
  141OSM    H8S15451   0.111   5.882   6.453 -0.7896 -1.1276  1.3713
  141OSM    H8T15452   0.066   5.719   6.491  2.4042 -3.0812 -0.8940
  141OSM    C9S15453   0.200   5.723   6.325  0.1120 -0.4478  0.2691
  141OSM    H9S15454   0.209   5.612   6.321  1.3524 -0.3301 -0.9934
  141OSM    H9T15455   0.302   5.760   6.303 -1.1195  2.6780 -0.8229
  141OSM   C10S15456   0.094   5.763   6.215  0.3231 -0.3101  0.0161
  141OSM   H10S15457   0.063   5.866   6.240  2.2098  1.2351 -3.4271
  141OSM   H10T15458   0.006   5.695   6.228 -1.3423  1.6981 -0.3022
  141OSM   C11S15459   0.143   5.744   6.073 -0.2649 -0.3701  0.3015
  141OSM   H11S15460   0.065   5.783   6.005  2.0411  1.4884 -1.4435
  141OSM   H11T15461   0.158   5.636   6.049 -0.8418  0.1482 -2.7234
  141OSM   C12S15462   0.275   5.820   6.041 -0.0072 -0.2537  0.0861
  141OSM   H12S15463   0.367   5.780   6.090  1.4361  0.7985 -1.6486
  141OSM   H12T15464   0.260   5.919   6.090 -1.1045 -1.2780  1.9366
  141OSM   C13S15465   0.289   5.841   5.898 -0.7047 -0.0940  0.0525
  141OSM   H13S15466   0.379   5.904   5.878  1.0208 -2.2282  0.7743
  141OSM   H13T15467   0.200   5.896   5.859 -1.0797 -1.4630 -1.0998
  141OSM   C14S15468   0.318   5.717   5.819 -0.0766  0.3123 -0.2961
  141OSM   H14S15469   0.237   5.649   5.851 -0.3305 -0.1087 -1.7706
  141OSM   H14T15470   0.412   5.684   5.868  0.6239  2.3034 -0.1811
  141OSM   C15S15471   0.315   5.720   5.665  0.1867  0.3472 -1.0622
  141OSM   H15S15472   0.404   5.773   5.625  1.1028  0.0752  0.5060
  141OSM   H15T15473   0.218   5.766   5.640  0.2824  0.1399 -1.8241
  141OSM   C16S15474   0.310   5.579   5.606 -0.4736  0.4664  1.2114
  141OSM   H16S15475   0.219   5.519   5.628 -0.3921  0.5221  1.7107
  141OSM   H16T15476   0.398   5.524   5.646 -1.1834  0.0443  2.2347
  141OSM   C17S15477   0.316   5.587   5.453  0.7287 -0.3840  0.5381
  141OSM   H17S15478   0.401   5.656   5.435  1.0860 -0.4147  1.9943
  141OSM   H17T15479   0.229   5.641   5.412  0.1197 -0.9900  1.0209
  141OSM   C18S15480   0.329   5.458   5.377 -0.4669  0.0402 -1.1192
  141OSM   H18S15481   0.303   5.468   5.270 -1.2871  0.2760 -0.9054
  141OSM   H18T15482   0.255   5.386   5.418  1.7177 -0.8463  1.5846
  141OSM   H18U15483   0.427   5.408   5.387 -1.3683 -1.6407 -0.1226
  141OSM    C1F15484   0.691   6.074   6.815 -0.3774  0.3244  0.0832
  141OSM     OF15485   0.771   5.985   6.784 -0.0447 -0.4211 -0.0269
  141OSM    C2F15486   0.716   6.223   6.790  0.6267  0.2202  0.3051
  141OSM    H2F15487   0.724   6.273   6.889  2.1917  1.8316 -0.5698
  141OSM    H2G15488   0.631   6.260   6.729  1.9381  1.6309 -0.7586
  141OSM    C3F15489   0.847   6.269   6.724 -0.1594 -1.2380  0.1795
  141OSM    H3F15490   0.929   6.238   6.792 -0.6122 -2.0115  0.3897
  141OSM    H3G15491   0.852   6.379   6.706  1.5676 -1.3884 -0.4784
  141OSM    C4F15492   0.858   6.213   6.584  0.8239 -0.1471 -0.1744
  141OSM    H4F15493   0.768   6.252   6.532  0.3619  0.4369  1.0136
  141OSM    H4G15494   0.843   6.103   6.582  3.0353 -0.4768 -1.1220
  141OSM    C5F15495   0.988   6.243   6.515  0.5293 -0.3853  0.2323
  141OSM    H5F15496   1.076   6.215   6.576 -0.0369 -2.1565  0.2811
  141OSM    H5G15497   0.992   6.353   6.498  0.7539 -0.6806 -1.9237
  141OSM    C6F15498   0.998   6.183   6.388 -0.4950 -0.0664  0.4722
  141OSM    H6F15499   0.896   6.206   6.350 -0.7062  1.1583  1.6980
  141OSM    H6G15500   1.000   6.073   6.403  0.0855 -0.1837 -0.3624
  141OSM    C7F15501   1.107   6.244   6.292 -0.1908  0.0179  0.5298
  141OSM    H7F15502   1.208   6.214   6.328 -1.0401 -1.1344  2.0289
  141OSM    H7G15503   1.112   6.355   6.292  0.6929 -0.0135  0.6798
  141OSM    C8F15504   1.100   6.205   6.141 -0.4309  0.7985 -0.1632
  141OSM    H8F15505   1.192   6.238   6.088  0.2567 -1.1257 -0.2572
  141OSM    H8G15506   1.028   6.279   6.100  0.0743  1.2036 -0.3319
  141OSM    C9F15507   1.073   6.065   6.104  0.0969  0.0559 -0.4504
  141OSM    H9F15508   1.047   6.011   6.196  2.0981  0.1751  0.2477
  141OSM   C10F15509   1.094   6.009   5.984 -0.4905  0.6510 -0.7387
  141OSM   H10F15510   1.079   5.900   5.986  0.7114  0.4859 -0.2835
  141OSM   C11F15511   1.145   6.073   5.860  0.4239  0.7596 -0.3011
  141OSM   H11F15512   1.240   6.029   5.822 -0.6504 -2.1142  0.1083
  141OSM   H11G15513   1.161   6.183   5.873  0.6937  0.4312  2.9586
  141OSM   C12F15514   1.047   6.055   5.746  0.4567  0.7299  0.3833
  141OSM   H12F15515   0.971   6.134   5.764 -0.5324 -0.4095  1.3278
  141OSM   H12G15516   0.994   5.958   5.752 -2.5041  2.2294  0.4109
  141OSM   C13F15517   1.114   6.078   5.611  0.3001 -0.2523  0.3671
  141OSM   H13F15518   1.190   5.998   5.597 -0.1043 -0.7620  0.9642
  141OSM   H13G15519   1.171   6.173   5.611 -0.9043  0.4851 -0.0410
  141OSM   C14F15520   1.010   6.074   5.497 -0.1963  0.3057 -0.2342
  141OSM   H14F15521   0.928   6.148   5.509 -0.0379  0.4551 -0.0535
  141OSM   H14G15522   0.968   5.971   5.501  1.6167 -0.5211 -1.1339
  141OSM   C15F15523   1.076   6.101   5.361 -0.3520  0.0482 -1.2616
  141OSM   H15F15524   1.171   6.044   5.351  0.3940  1.0706 -0.2907
  141OSM   H15G15525   1.110   6.206   5.350  0.5395 -0.1425 -0.4311
  141OSM   C16F15526   0.991   6.072   5.239 -0.5972 -0.0669  0.9581
  141OSM   H16F15527   0.908   6.144   5.222 -1.5351 -1.4636 -0.6687
  141OSM   H16G15528   0.955   5.967   5.244 -0.6804 -0.0764  0.2016
  141OSM   C17F15529   1.084   6.079   5.121 -0.0847  0.5810  0.1319
  141OSM   H17F15530   1.128   5.979   5.100 -1.3701  0.0198  0.0013
  141OSM   H17G15531   1.165   6.149   5.152  0.1875 -0.2313  1.3413
  141OSM   C18F15532   1.019   6.131   4.989  0.5955 -0.2839  0.1098
  141OSM   H18F15533   1.081   6.105   4.900  0.0780 -0.9292 -0.0676
  141OSM   H18G15534   1.006   6.241   4.995 -0.9261 -0.4864  0.7305
  141OSM   H18H15535   0.920   6.083   4.976  0.5806 -0.6210  1.4041
  142OSM      N15536   1.192   4.209   7.076 -0.0717  0.4204  0.0177
  142OSM    C1515537   1.147   4.292   7.184  0.7585 -0.4417 -0.6286
  142OSM   H15A15538   1.221   4.371   7.189  0.8419 -0.5921  1.9585
  142OSM   H15B15539   1.136   4.235   7.275 -0.1347  0.1319 -0.3608
  142OSM   H15C15540   1.055   4.346   7.166 -0.0428 -1.2544  0.8505
  142OSM    C1415541   1.314   4.132   7.113 -0.2136 -0.2631 -0.8789
  142OSM   H14A15542   1.343   4.060   7.039  0.7369 -0.4916 -0.3085
  142OSM   H14B15543   1.303   4.083   7.209  0.0644  1.9849  0.3751
  142OSM   H14C15544   1.400   4.194   7.133  1.7998 -3.3277  0.7739
  142OSM    C1315545   1.082   4.105   7.055 -0.4044 -0.4829  0.8096
  142OSM   H13A15546   1.099   4.050   6.964  1.6780 -0.2290  0.9869
  142OSM   H13B15547   0.983   4.148   7.058 -0.0164  0.5954 -0.9130
  142OSM   H13C15548   1.089   4.040   7.141  2.6000 -1.8334 -0.3200
  142OSM    C1215549   1.207   4.296   6.951 -0.0190 -0.0036 -1.0772
  142OSM   H12A15550   1.109   4.336   6.932 -0.6546 -1.5191 -1.1203
  142OSM   H12B15551   1.229   4.232   6.868 -0.1689 -0.1950 -0.9691
  142OSM    C1115552   1.307   4.412   6.946 -0.3202  1.2383 -0.3115
  142OSM   H11A15553   1.310   4.442   6.840  0.0161  0.0615 -0.6508
  142OSM   H11B15554   1.414   4.382   6.955 -1.1733 -1.8379  0.8185
  142OSM      P15555   1.190   4.642   7.005  0.0744  0.0612  0.0529
  142OSM    O1315556   1.052   4.614   7.041  0.3198 -0.5557  0.0805
  142OSM    O1415557   1.251   4.759   7.070 -0.5703  0.0352  0.2034
  142OSM    O1115558   1.191   4.653   6.849  0.0175 -0.9247 -0.1171
  142OSM    O1215559   1.276   4.514   7.041 -0.0496 -0.0662 -0.2190
  142OSM    C1S15560   1.281   4.746   6.778  0.4034 -0.0513  0.2727
  142OSM    H1S15561   1.384   4.748   6.819  0.5924 -0.0314 -0.1890
  142OSM    H1T15562   1.243   4.850   6.785 -1.5218 -0.7642  0.9051
  142OSM     NF15563   1.389   4.783   6.555  2.0612  0.5849  0.4360
  142OSM    HNF15564   1.346   4.853   6.498  0.8792  2.3817  3.2918
  142OSM    C2S15565   1.293   4.709   6.628  0.5564  0.4209 -0.7082
  142OSM    H2S15566   1.311   4.599   6.628 -2.7226 -0.3011  2.4371
  142OSM    C3S15567   1.151   4.712   6.567  0.3850 -0.3985  0.2425
  142OSM    H3S15568   1.115   4.817   6.560 -0.3938 -0.7332 -1.2894
  142OSM     O315569   1.048   4.640   6.637 -0.1847  0.2592  0.0401
  142OSM    HO315570   1.094   4.622   6.719 -0.5749 -1.9157 -0.1632
  142OSM    C4S15571   1.143   4.655   6.423 -0.4655 -0.7449 -0.2476
  142OSM    H4S15572   1.197   4.560   6.412  0.8881  0.1145 -1.4614
  142OSM    C5S15573   1.114   4.728   6.314  0.2725 -0.5035  0.5654
  142OSM    H5S15574   1.080   4.829   6.342  2.3665  0.0178  1.4556
  142OSM    C6S15575   1.111   4.688   6.168  0.1262 -0.8210 -0.2592
  142OSM    H6S15576   1.027   4.728   6.107  0.4662  0.8941  0.3482
  142OSM    H6T15577   1.111   4.577   6.170 -0.7938 -0.8370  1.9771
  142OSM    C7S15578   1.246   4.733   6.109  0.2606 -0.8706  0.1967
  142OSM    H7S15579   1.328   4.675   6.155 -0.3817 -1.2097  0.9537
  142OSM    H7T15580   1.260   4.842   6.126  2.0927 -1.0481 -0.0221
  142OSM    C8S15581   1.246   4.712   5.957 -0.2452 -0.2404 -0.0081
  142OSM    H8S15582   1.153   4.752   5.911 -0.4135 -1.0385 -0.3721
  142OSM    H8T15583   1.250   4.601   5.955 -1.3450 -0.2799 -0.9929
  142OSM    C9S15584   1.379   4.755   5.891  0.2720 -0.0485 -0.6645
  142OSM    H9S15585   1.458   4.769   5.967  1.5374 -1.9606 -1.5547
  142OSM    H9T15586   1.364   4.861   5.860  1.4081  0.1467 -0.5804
  142OSM   C10S15587   1.420   4.663   5.781 -0.2743 -0.0414  0.1144
  142OSM   H10S15588   1.425   4.559   5.820 -1.3786  0.4813  1.7833
  142OSM   H10T15589   1.522   4.682   5.741 -0.5003 -1.2414 -1.1241
  142OSM   C11S15590   1.329   4.674   5.657 -0.1761  0.3776 -0.1565
  142OSM   H11S15591   1.320   4.778   5.620 -0.8523  0.9073  1.4045
  142OSM   H11T15592   1.228   4.639   5.686  0.2093 -2.1283 -1.5216
  142OSM   C12S15593   1.392   4.582   5.551  0.5445  0.3811 -0.5371
  142OSM   H12S15594   1.400   4.483   5.602 -1.3061  0.3150 -0.3069
  142OSM   H12T15595   1.495   4.621   5.535 -0.4312  2.3415 -2.6716
  142OSM   C13S15596   1.326   4.588   5.416  0.6712 -0.4548  0.5905
  142OSM   H13S15597   1.318   4.694   5.383  1.2121 -1.3881 -2.9449
  142OSM   H13T15598   1.224   4.546   5.411  0.4457  0.0772  0.6364
  142OSM   C14S15599   1.406   4.513   5.311  0.2200 -0.3405 -0.4139
  142OSM   H14S15600   1.409   4.405   5.334 -1.4999 -0.8509 -2.2826
  142OSM   H14T15601   1.513   4.543   5.303  0.2188 -0.3748 -0.5620
  142OSM   C15S15602   1.341   4.517   5.173 -0.2653  0.4521 -0.4722
  142OSM   H15S15603   1.344   4.623   5.141  0.0113  0.6820  0.2916
  142OSM   H15T15604   1.238   4.480   5.193  0.2035 -0.4605  0.3101
  142OSM   C16S15605   1.408   4.436   5.069 -0.6307 -0.1048  0.5660
  142OSM   H16S15606   1.517   4.439   5.092 -0.6013 -0.8116  0.5439
  142OSM   H16T15607   1.388   4.484   4.971 -1.2017  1.1267  1.2652
  142OSM   C17S15608   1.364   4.291   5.058 -0.1190  0.4408 -0.3838
  142OSM   H17S15609   1.385   4.236   5.153  0.0193 -0.8724 -1.1429
  142OSM   H17T15610   1.426   4.245   4.978  0.8821 -1.0103  1.1538
  142OSM   C18S15611   1.209   4.280   5.025  0.4580  0.9040  0.3224
  142OSM   H18S15612   1.182   4.174   5.002 -2.0303  1.5342  0.0680
  142OSM   H18T15613   1.195   4.344   4.935  2.0432  1.4070  0.3977
  142OSM   H18U15614   1.143   4.315   5.107 -3.2744 -2.2903 -0.9785
  142OSM    C1F15615   1.515   4.773   6.583  0.3414 -0.1840  0.2984
  142OSM     OF15616   1.553   4.678   6.648  0.0519  0.1594 -0.6590
  142OSM    C2F15617   1.598   4.882   6.532 -0.9498  0.4750 -0.6758
  142OSM    H2F15618   1.683   4.899   6.602 -0.2130  0.2907 -1.5116
  142OSM    H2G15619   1.541   4.978   6.530 -1.1566  0.4361  1.4548
  142OSM    C3F15620   1.649   4.849   6.389  0.3605  0.1633  0.3691
  142OSM    H3F15621   1.701   4.937   6.347 -3.4311  0.3120 -5.1373
  142OSM    H3G15622   1.564   4.833   6.320 -1.1677  2.4264  1.5997
  142OSM    C4F15623   1.742   4.727   6.373 -0.2706 -0.6619 -0.0657
  142OSM    H4F15624   1.691   4.632   6.396 -0.9118 -0.6681 -1.4035
  142OSM    H4G15625   1.832   4.738   6.438  0.2376 -0.0035 -0.8472
  142OSM    C5F15626   1.783   4.706   6.229 -0.8162  0.5187 -0.4342
  142OSM    H5F15627   1.880   4.654   6.241 -0.8438  0.4506 -0.5085
  142OSM    H5G15628   1.797   4.806   6.181 -0.8511  0.3051 -0.8879
  142OSM    C6F15629   1.685   4.625   6.147 -0.2513  0.3186 -0.1658
  142OSM    H6F15630   1.707   4.615   6.038  1.8658 -3.1358  0.4351
  142OSM    H6G15631   1.585   4.673   6.148 -1.7926 -2.6320  0.7419
  142OSM    C7F15632   1.657   4.483   6.194 -0.4748 -0.2803 -1.0752
  142OSM    H7F15633   1.602   4.497   6.290 -0.9869 -1.6626 -1.1410
  142OSM    H7G15634   1.753   4.431   6.212  0.2597  1.0757 -0.9325
  142OSM    C8F15635   1.569   4.391   6.115  0.2491  0.3529 -0.0427
  142OSM    H8F15636   1.629   4.351   6.030 -1.5113 -3.2825  0.2463
  142OSM    H8G15637   1.494   4.463   6.077  0.5497  0.5713 -0.2320
  142OSM    C9F15638   1.514   4.270   6.190 -0.1259 -0.5736  0.1779
  142OSM    H9F15639   1.587   4.218   6.254  1.9806 -1.7799 -2.9482
  142OSM   C10F15640   1.390   4.226   6.197 -0.3161 -0.6436  0.0058
  142OSM   H10F15641   1.354   4.143   6.259 -0.6757  0.3906  1.2554
  142OSM   C11F15642   1.284   4.287   6.110 -0.4845  0.3691 -0.5152
  142OSM   H11F15643   1.259   4.388   6.150  0.0370  1.0790 -1.9145
  142OSM   H11G15644   1.187   4.234   6.118 -0.7283  0.9890  0.9196
  142OSM   C12F15645   1.298   4.297   5.963  0.1397 -0.1331  0.2018
  142OSM   H12F15646   1.379   4.367   5.934 -0.3484  0.0002 -0.8882
  142OSM   H12G15647   1.206   4.348   5.927 -0.6009 -0.3667  1.7100
  142OSM   C13F15648   1.331   4.163   5.897  0.1206  0.3520  0.9944
  142OSM   H13F15649   1.270   4.077   5.931  0.2393  0.1483  0.6954
  142OSM   H13G15650   1.427   4.130   5.944  1.2828  0.7873 -0.9447
  142OSM   C14F15651   1.332   4.158   5.740 -0.0518  0.0343 -0.8345
  142OSM   H14F15652   1.391   4.069   5.712 -0.0727 -0.8131  1.6120
  142OSM   H14G15653   1.386   4.247   5.700 -0.2889  0.5926  0.0550
  142OSM   C15F15654   1.194   4.173   5.684  0.2372 -0.3223  0.0357
  142OSM   H15F15655   1.166   4.268   5.733  0.9426 -0.1995  0.2145
  142OSM   H15G15656   1.125   4.088   5.701  0.4017 -0.1803  1.5563
  142OSM   C16F15657   1.193   4.181   5.528 -0.5197  0.6996 -1.0982
  142OSM   H16F15658   1.294   4.215   5.500 -0.3942  1.8316  0.6041
  142OSM   H16G15659   1.122   4.261   5.500  0.3383  2.4083  1.3302
  142OSM   C17F15660   1.154   4.055   5.457  0.0311  0.6709  0.3795
  142OSM   H17F15661   1.052   4.021   5.485  0.0372 -1.2956 -1.7098
  142OSM   H17G15662   1.225   3.976   5.490 -1.4164 -0.3484  1.1865
  142OSM   C18F15663   1.147   4.062   5.301  0.2236 -0.0667  0.0455
  142OSM   H18F15664   1.110   3.962   5.270 -3.5133  1.8288 -2.5029
  142OSM   H18G15665   1.247   4.080   5.258  0.1200 -0.2132 -0.2590
  142OSM   H18H15666   1.077   4.143   5.271 -0.6203 -0.3990  1.0457
  143OSM      N15667   3.205   1.180   7.369  0.1104 -0.3822 -1.1290
  143OSM    C1515668   3.225   1.041   7.421  0.1637 -0.2738 -0.9227
  143OSM   H15A15669   3.204   1.039   7.527 -0.6720 -0.8773 -1.0949
  143OSM   H15B15670   3.326   1.005   7.410  0.0073 -0.7361 -0.8703
  143OSM   H15C15671   3.166   0.969   7.368 -1.5152 -2.1688  3.1274
  143OSM    C1415672   3.291   1.263   7.460  0.0905 -0.0231 -0.7490
  143OSM   H14A15673   3.263   1.258   7.565  1.2850 -2.4059 -0.4909
  143OSM   H14B15674   3.296   1.368   7.433  1.0237  0.5800  1.4689
  143OSM   H14C15675   3.394   1.230   7.467  0.6358  1.7370  0.2208
  143OSM    C1315676   3.256   1.187   7.230 -0.0960  0.1180 -0.3764
  143OSM   H13A15677   3.360   1.159   7.220  0.1322  1.2372 -1.2584
  143OSM   H13B15678   3.242   1.288   7.195  0.6193  0.1664 -0.5408
  143OSM   H13C15679   3.199   1.118   7.170  0.0058  1.0026 -1.5123
  143OSM    C1215680   3.064   1.231   7.372 -0.4297 -0.2917 -0.3548
  143OSM   H12A15681   3.059   1.339   7.373 -0.0362 -0.2517  1.3048
  143OSM   H12B15682   3.017   1.207   7.467 -1.0934  2.7527  0.1812
  143OSM    C1115683   2.974   1.184   7.258  0.4576 -0.3664 -0.1877
  143OSM   H11A15684   2.991   1.075   7.243 -1.8300 -0.6719 -0.8870
  143OSM   H11B15685   2.999   1.221   7.157  0.6621 -1.7474 -0.6674
  143OSM      P15686   2.768   1.344   7.294 -0.1047 -0.5702  0.1865
  143OSM    O1315687   2.660   1.339   7.394  0.0708 -0.1871 -0.5541
  143OSM    O1415688   2.861   1.454   7.298 -0.5916 -0.4098 -0.3816
  143OSM    O1115689   2.702   1.350   7.150 -0.6917  0.0700  0.6687
  143OSM    O1215690   2.843   1.204   7.294  0.0397  0.1123  0.0990
  143OSM    C1S15691   2.591   1.273   7.125  0.0625  0.1295  0.1790
  143OSM    H1S15692   2.500   1.326   7.161 -0.2677 -0.6246  0.4732
  143OSM    H1T15693   2.588   1.170   7.166  1.1328 -0.2083 -0.5655
  143OSM     NF15694   2.435   1.215   6.945  0.0977 -0.2145 -0.0004
  143OSM    HNF15695   2.427   1.123   6.906 -0.0806 -0.6621  1.0291
  143OSM    C2S15696   2.572   1.248   6.971  0.1538 -0.5363 -0.0385
  143OSM    H2S15697   2.587   1.339   6.910 -0.0675  0.3892  1.2505
  143OSM    C3S15698   2.675   1.137   6.928  0.2071  0.0516  0.0238
  143OSM    H3S15699   2.655   1.049   6.993 -0.4648  0.9561  1.0801
  143OSM     O315700   2.813   1.172   6.941  0.4246  0.4051 -0.7070
  143OSM    HO315701   2.813   1.246   7.003  1.2239  0.0101 -0.2190
  143OSM    C4S15702   2.654   1.093   6.787 -0.0981  0.1634 -0.0560
  143OSM    H4S15703   2.598   0.999   6.780  0.6631 -0.1614 -2.7901
  143OSM    C5S15704   2.705   1.160   6.679  0.9309  0.3411  0.4965
  143OSM    H5S15705   2.756   1.255   6.701  1.2121  0.1115  0.8637
  143OSM    C6S15706   2.712   1.123   6.529  0.5104 -0.0316 -0.2223
  143OSM    H6S15707   2.822   1.116   6.510  0.5493  0.1234 -0.0561
  143OSM    H6T15708   2.667   1.208   6.474  1.2406  0.4039 -0.1525
  143OSM    C7S15709   2.638   0.997   6.480  0.7319 -0.4123 -0.5526
  143OSM    H7S15710   2.529   1.009   6.496  0.9855 -0.7625  1.6438
  143OSM    H7T15711   2.675   0.915   6.546 -0.4749 -0.8441 -0.3891
  143OSM    C8S15712   2.670   0.977   6.331 -0.5620  0.3419  0.1238
  143OSM    H8S15713   2.780   0.979   6.314 -0.7046  0.5799 -0.8075
  143OSM    H8T15714   2.631   1.067   6.279  2.0048  1.9368  0.7450
  143OSM    C9S15715   2.599   0.852   6.285  0.1234 -0.2230  0.4882
  143OSM    H9S15716   2.495   0.864   6.322 -0.1808 -0.5579 -0.2400
  143OSM    H9T15717   2.663   0.776   6.334  0.3850 -1.5373 -1.7881
  143OSM   C10S15718   2.590   0.835   6.130 -0.6329 -0.1542  0.1595
  143OSM   H10S15719   2.691   0.819   6.086 -1.0249 -0.4825 -0.6405
  143OSM   H10T15720   2.553   0.934   6.096  1.4213  0.3420 -0.8355
  143OSM   C11S15721   2.499   0.724   6.088  0.0377  0.1706  0.2023
  143OSM   H11S15722   2.417   0.731   6.163  1.2228  2.9850  1.3758
  143OSM   H11T15723   2.553   0.626   6.093  0.9179  0.6624  0.6170
  143OSM   C12S15724   2.447   0.739   5.945 -0.5395 -0.3572 -0.0800
  143OSM   H12S15725   2.529   0.719   5.873  2.2073 -1.1414  2.9862
  143OSM   H12T15726   2.410   0.842   5.925 -0.5340 -0.5747 -1.3005
  143OSM   C13S15727   2.328   0.648   5.905  0.0018  0.3032 -0.1160
  143OSM   H13S15728   2.242   0.654   5.975 -0.8444 -0.3123 -1.0810
  143OSM   H13T15729   2.366   0.544   5.915  0.5930  0.5974  0.8814
  143OSM   C14S15730   2.273   0.662   5.763 -0.4706  0.3638  0.0161
  143OSM   H14S15731   2.222   0.567   5.738  0.3561 -0.3090  0.8331
  143OSM   H14T15732   2.360   0.683   5.697 -1.1677  2.1358 -0.4010
  143OSM   C15S15733   2.175   0.777   5.737 -0.3482 -0.0718 -0.2714
  143OSM   H15S15734   2.211   0.870   5.786  1.0992 -0.6795 -0.1409
  143OSM   H15T15735   2.081   0.754   5.791  0.0553 -1.0613  0.0494
  143OSM   C16S15736   2.154   0.804   5.590 -0.3912  0.4682 -0.0789
  143OSM   H16S15737   2.122   0.709   5.541 -0.5475  0.8342 -0.6948
  143OSM   H16T15738   2.252   0.822   5.540  0.7662  0.9440  2.2561
  143OSM   C17S15739   2.054   0.912   5.571  0.2551  0.3295  0.7678
  143OSM   H17S15740   2.085   1.000   5.632 -0.2566  1.2277 -0.2279
  143OSM   H17T15741   1.955   0.894   5.619 -0.5521  0.9547 -0.6032
  143OSM   C18S15742   2.037   0.950   5.421  0.0063 -0.3289 -0.0250
  143OSM   H18S15743   2.004   0.862   5.361  0.0163 -0.7077  0.5157
  143OSM   H18T15744   2.138   0.975   5.382 -0.3604 -0.0291 -0.7991
  143OSM   H18U15745   1.974   1.041   5.415 -1.0192 -1.0185  0.0339
  143OSM    C1F15746   2.328   1.291   6.968  0.0781 -0.0216 -0.0156
  143OSM     OF15747   2.334   1.407   7.012  0.6674 -0.4821  0.2548
  143OSM    C2F15748   2.200   1.225   6.927 -0.2762  0.9409 -0.6041
  143OSM    H2F15749   2.162   1.162   7.010  0.7904  0.9075 -0.1248
  143OSM    H2G15750   2.233   1.151   6.851  0.4737 -0.3212  0.8978
  143OSM    C3F15751   2.099   1.333   6.886  0.3706  0.1320  0.0127
  143OSM    H3F15752   2.146   1.421   6.838  0.0929 -1.1152 -2.7819
  143OSM    H3G15753   2.043   1.365   6.976 -1.2497 -3.0977  0.3017
  143OSM    C4F15754   1.986   1.283   6.792  0.8050  0.3201 -0.0394
  143OSM    H4F15755   1.940   1.193   6.838 -1.6070  0.1884 -2.4455
  143OSM    H4G15756   2.037   1.238   6.704  0.5535  1.3611 -0.7330
  143OSM    C5F15757   1.879   1.383   6.744 -0.7802  0.1876  0.0898
  143OSM    H5F15758   1.941   1.459   6.691  0.5727 -0.4490  0.7012
  143OSM    H5G15759   1.822   1.431   6.827  1.4276 -2.3932  3.3613
  143OSM    C6F15760   1.771   1.326   6.651  0.1691  0.6560 -0.3318
  143OSM    H6F15761   1.718   1.253   6.716  1.4554 -0.3033 -0.3047
  143OSM    H6G15762   1.826   1.265   6.576 -0.0072  0.2733 -0.1505
  143OSM    C7F15763   1.685   1.430   6.584 -0.3767  0.5216  0.4253
  143OSM    H7F15764   1.615   1.476   6.658 -0.1979 -0.5940  1.3140
  143OSM    H7G15765   1.611   1.371   6.527 -0.4910  1.1520 -0.0954
  143OSM    C8F15766   1.749   1.530   6.479  0.7747  0.1231  0.0268
  143OSM    H8F15767   1.830   1.588   6.527  0.1586  0.0841  1.1330
  143OSM    H8G15768   1.671   1.605   6.453  0.6171 -0.6986 -2.0541
  143OSM    C9F15769   1.804   1.464   6.352 -0.3969 -0.0221 -0.0189
  143OSM    H9F15770   1.913   1.452   6.358 -0.3291 -0.0396 -1.0039
  143OSM   C10F15771   1.745   1.437   6.231  0.3393  0.1003 -0.0942
  143OSM   H10F15772   1.790   1.380   6.149 -2.0094  0.5429 -1.7886
  143OSM   C11F15773   1.603   1.453   6.198 -0.7637  0.8609  0.3251
  143OSM   H11F15774   1.599   1.534   6.123  1.3382  0.7979  0.0923
  143OSM   H11G15775   1.534   1.484   6.281  2.5600  0.9554  3.2852
  143OSM   C12F15776   1.530   1.316   6.158 -0.2614  0.1620  0.4078
  143OSM   H12F15777   1.538   1.245   6.242 -1.2820  0.7311  0.9988
  143OSM   H12G15778   1.581   1.269   6.071 -1.0667  1.1760 -0.6542
  143OSM   C13F15779   1.387   1.333   6.118  0.4920 -0.0155 -0.5186
  143OSM   H13F15780   1.323   1.368   6.201  0.1065 -1.2042 -0.2990
  143OSM   H13G15781   1.347   1.231   6.105  0.4287  0.0978 -1.2602
  143OSM   C14F15782   1.365   1.415   5.988 -0.0033 -0.0385 -0.1208
  143OSM   H14F15783   1.426   1.372   5.907 -0.2557  1.2570 -1.0330
  143OSM   H14G15784   1.401   1.518   6.010 -0.5450 -0.0294  0.8038
  143OSM   C15F15785   1.224   1.408   5.936 -0.6614 -0.4598 -0.5299
  143OSM   H15F15786   1.156   1.453   6.011 -0.7481 -3.4883  1.3866
  143OSM   H15G15787   1.193   1.301   5.930  0.3430 -0.7499 -0.7400
  143OSM   C16F15788   1.203   1.465   5.793  0.0060  0.5515  0.0624
  143OSM   H16F15789   1.255   1.402   5.718 -0.9587  0.8168 -0.8536
  143OSM   H16G15790   1.238   1.568   5.773 -0.8108  1.0910  1.3122
  143OSM   C17F15791   1.054   1.474   5.749 -0.2607 -0.2076  0.0339
  143OSM   H17F15792   0.993   1.525   5.826  0.1408 -0.3022  0.4161
  143OSM   H17G15793   1.018   1.369   5.747  0.0870 -0.3305 -1.7908
  143OSM   C18F15794   1.026   1.525   5.602  0.6718 -1.1964 -0.6815
  143OSM   H18F15795   0.916   1.510   5.591  0.0721  0.5433  1.8751
  143OSM   H18G15796   1.085   1.454   5.540  1.3078 -0.7351 -0.6132
  143OSM   H18H15797   1.054   1.632   5.587  0.2725 -0.5370  2.5168
  144OSM      N15798   1.556   6.312   7.195  0.5205  0.5884 -0.1899
  144OSM    C1515799   1.478   6.221   7.282  0.5462 -0.2898  0.3609
  144OSM   H15A15800   1.442   6.131   7.234  0.7037 -0.9908  1.5213
  144OSM   H15B15801   1.384   6.269   7.303  0.0310 -1.1193  0.0191
  144OSM   H15C15802   1.516   6.204   7.381 -0.0958 -0.9736  0.4963
  144OSM    C1415803   1.469   6.332   7.073 -0.5762  0.3273  0.8677
  144OSM   H14A15804   1.375   6.368   7.112 -0.9420 -0.1341  0.4152
  144OSM   H14B15805   1.439   6.240   7.027 -1.2568 -0.6947  3.1758
  144OSM   H14C15806   1.506   6.415   7.014 -1.8346  0.3925  0.1237
  144OSM    C1315807   1.574   6.435   7.272 -1.1103  0.1124  0.1330
  144OSM   H13A15808   1.658   6.490   7.232 -0.9172 -0.7421 -0.6653
  144OSM   H13B15809   1.598   6.417   7.376  1.5020  0.0554 -0.4199
  144OSM   H13C15810   1.480   6.489   7.272 -1.8785 -1.1685 -0.1899
  144OSM    C1215811   1.679   6.241   7.160  0.0061 -0.1536 -0.9541
  144OSM   H12A15812   1.653   6.156   7.098 -0.0478 -0.0846 -1.0279
  144OSM   H12B15813   1.716   6.201   7.253  0.1498  2.7230  0.3179
  144OSM    C1115814   1.791   6.316   7.085 -0.2142  0.3395  0.0170
  144OSM   H11A15815   1.738   6.364   6.999 -2.5557  2.4558  2.4537
  144OSM   H11B15816   1.869   6.250   7.043  0.3735 -0.0227  1.6407
  144OSM      P15817   1.936   6.535   7.118 -0.4033 -0.3905 -0.0553
  144OSM    O1315818   1.912   6.636   7.225  0.2778 -0.2612 -0.1329
  144OSM    O1415819   2.074   6.495   7.094  0.0689  0.7106 -0.6706
  144OSM    O1115820   1.869   6.574   6.976 -0.6843  0.1509 -0.2363
  144OSM    O1215821   1.860   6.409   7.169 -0.2332 -0.1133  0.2022
  144OSM    C1S15822   1.925   6.534   6.842  0.8261 -0.1848 -0.1016
  144OSM    H1S15823   1.911   6.425   6.826  0.0111 -0.6376  2.9722
  144OSM    H1T15824   2.028   6.568   6.820 -0.0808  2.4545 -0.6554
  144OSM     NF15825   1.909   6.568   6.610  0.1539 -0.4776  0.3737
  144OSM    HNF15826   1.983   6.626   6.579  0.1140 -0.4271  0.3731
  144OSM    C2S15827   1.841   6.608   6.735  0.3305 -0.3018 -0.5101
  144OSM    H2S15828   1.735   6.575   6.743 -0.2178  1.2991 -0.7916
  144OSM    C3S15829   1.848   6.764   6.752  0.3955  0.3074 -0.4380
  144OSM    H3S15830   1.954   6.793   6.762  0.0203  1.3791  0.6730
  144OSM     O315831   1.789   6.813   6.880 -0.7812  0.7389  0.5263
  144OSM    HO315832   1.795   6.740   6.943 -1.4044  1.7533  1.7977
  144OSM    C4S15833   1.788   6.835   6.636 -0.3746 -0.0280 -0.7338
  144OSM    H4S15834   1.854   6.848   6.549  1.4687 -1.5825  0.3465
  144OSM    C5S15835   1.659   6.852   6.621 -0.4495 -0.4790  0.1940
  144OSM    H5S15836   1.579   6.825   6.691 -1.0862 -1.2388 -0.8016
  144OSM    C6S15837   1.598   6.909   6.497  0.3010 -0.3999 -0.0614
  144OSM    H6S15838   1.573   7.015   6.515  0.3360 -0.2399 -0.9323
  144OSM    H6T15839   1.501   6.868   6.463  0.8944 -0.5781 -1.6186
  144OSM    C7S15840   1.670   6.897   6.352 -0.1975  0.0467 -0.8186
  144OSM    H7S15841   1.698   6.792   6.325  4.4432  1.4733 -2.6081
  144OSM    H7T15842   1.768   6.949   6.356 -1.0324  1.5912  2.0923
  144OSM    C8S15843   1.591   6.956   6.240  0.2448 -0.2465 -0.3999
  144OSM    H8S15844   1.563   7.063   6.255  0.7432 -0.2736  0.8968
  144OSM    H8T15845   1.499   6.894   6.230  1.9955 -2.9222 -0.8873
  144OSM    C9S15846   1.660   6.943   6.102  0.9920 -0.4379 -0.2144
  144OSM    H9S15847   1.672   6.835   6.078  1.1052 -1.3906  3.5172
  144OSM    H9T15848   1.762   6.986   6.098  1.6483 -1.9143 -0.2484
  144OSM   C10S15849   1.569   7.005   5.990  0.3492 -0.1737 -0.1389
  144OSM   H10S15850   1.554   7.113   6.015  1.2629 -0.4113  1.5832
  144OSM   H10T15851   1.473   6.949   5.991  0.1571  0.1385  1.0265
  144OSM   C11S15852   1.629   6.978   5.850  0.3360 -0.2261  0.4573
  144OSM   H11S15853   1.626   6.868   5.832 -0.4263  0.0885 -1.6240
  144OSM   H11T15854   1.737   7.005   5.844  0.7966 -2.1659 -1.0726
  144OSM   C12S15855   1.533   7.035   5.736 -0.4021  0.4959 -0.1305
  144OSM   H12S15856   1.511   7.143   5.752 -0.3074  0.2370  2.0849
  144OSM   H12T15857   1.437   6.981   5.752  0.6323 -1.0011  1.2872
  144OSM   C13S15858   1.588   7.008   5.593  0.4852  0.2801 -0.0469
  144OSM   H13S15859   1.590   6.898   5.575  0.0625 -0.1965  2.4586
  144OSM   H13T15860   1.692   7.045   5.586  0.3617  0.8603  0.9884
  144OSM   C14S15861   1.502   7.065   5.493  0.6128 -0.1216  0.8502
  144OSM   H14S15862   1.493   7.175   5.507 -0.2801  0.2273 -1.9119
  144OSM   H14T15863   1.395   7.037   5.504  0.7241 -0.9086  0.0578
  144OSM   C15S15864   1.552   7.037   5.350 -0.0458  0.2841 -1.8796
  144OSM   H15S15865   1.573   6.928   5.343  0.4596  0.3332 -1.2565
  144OSM   H15T15866   1.652   7.080   5.329  0.5144 -1.5267 -3.1363
  144OSM   C16S15867   1.453   7.075   5.246  0.0196  0.1905 -0.0366
  144OSM   H16S15868   1.455   7.186   5.246 -3.1741  0.3202 -0.8690
  144OSM   H16T15869   1.350   7.047   5.277 -0.9061  2.0044 -1.3104
  144OSM   C17S15870   1.493   7.035   5.108 -0.5802  1.0155 -0.2595
  144OSM   H17S15871   1.439   7.079   5.022 -1.8386 -2.3451 -1.3646
  144OSM   H17T15872   1.467   6.928   5.091  0.2130  0.5400  1.3435
  144OSM   C18S15873   1.642   7.041   5.080 -0.2498  0.1650 -0.0256
  144OSM   H18S15874   1.661   7.150   5.089 -0.7082  0.5474 -2.6986
  144OSM   H18T15875   1.663   7.025   4.972 -2.9076  0.7515 -0.7036
  144OSM   H18U15876   1.707   6.981   5.147  1.5800  1.7564 -0.2977
  144OSM    C1F15877   1.884   6.454   6.542 -0.3349  0.0345 -0.0039
  144OSM     OF15878   1.815   6.369   6.595 -0.1367 -0.0985 -0.6004
  144OSM    C2F15879   1.956   6.441   6.413 -0.7784 -0.3499 -0.4062
  144OSM    H2F15880   2.065   6.455   6.432 -0.8939 -1.7800  1.7262
  144OSM    H2G15881   1.929   6.521   6.341  0.0745 -0.6231 -1.0491
  144OSM    C3F15882   1.937   6.312   6.334 -0.6963  0.4965 -0.0636
  144OSM    H3F15883   1.957   6.220   6.393 -1.9494  0.8118  0.9194
  144OSM    H3G15884   2.025   6.312   6.266  1.9009  0.6394  3.0676
  144OSM    C4F15885   1.796   6.292   6.269 -0.1029 -0.3522 -0.1701
  144OSM    H4F15886   1.783   6.380   6.202  0.6608 -0.1586 -0.0689
  144OSM    H4G15887   1.729   6.285   6.358  1.6411 -1.3342  1.1292
  144OSM    C5F15888   1.791   6.161   6.192  0.4750  0.0291  0.0099
  144OSM    H5F15889   1.762   6.090   6.272  2.2898 -0.3564  0.3773
  144OSM    H5G15890   1.891   6.135   6.150 -0.0940  0.2476 -1.5662
  144OSM    C6F15891   1.692   6.157   6.080 -0.4012  0.0761  0.4803
  144OSM    H6F15892   1.720   6.236   6.007  0.3555 -0.7247 -0.1123
  144OSM    H6G15893   1.588   6.173   6.116 -1.3196 -0.7332 -1.6624
  144OSM    C7F15894   1.691   6.023   6.008 -0.2987  0.5073 -0.2924
  144OSM    H7F15895   1.651   5.943   6.073 -0.3237 -1.1737 -2.2577
  144OSM    H7G15896   1.794   5.987   5.992 -0.2714 -0.5647  1.9383
  144OSM    C8F15897   1.609   6.020   5.879  0.2817  0.1607  0.3065
  144OSM    H8F15898   1.626   6.116   5.824  1.9273 -0.9877 -1.3154
  144OSM    H8G15899   1.508   6.030   5.924  0.7240  0.2967  1.2893
  144OSM    C9F15900   1.617   5.897   5.796  0.4103  0.0502 -0.4698
  144OSM    H9F15901   1.645   5.807   5.852 -3.3320 -0.4995  0.7538
  144OSM   C10F15902   1.567   5.875   5.670  0.6335  1.1141  0.0362
  144OSM   H10F15903   1.587   5.778   5.623  0.7008  1.1337  0.0228
  144OSM   C11F15904   1.504   5.976   5.583 -0.1701 -0.3514  0.2362
  144OSM   H11F15905   1.568   6.067   5.585 -0.3747 -0.2089  0.2725
  144OSM   H11G15906   1.401   5.993   5.620  0.0017  0.4970  0.3609
  144OSM   C12F15907   1.485   5.924   5.435  0.2231  0.0448  0.3247
  144OSM   H12F15908   1.431   5.999   5.374  0.5529  1.6018  1.8514
  144OSM   H12G15909   1.409   5.843   5.442 -1.1857  1.3950  1.5710
  144OSM   C13F15910   1.615   5.887   5.360 -0.2986  0.0449 -0.0578
  144OSM   H13F15911   1.660   5.797   5.407 -1.6566 -0.4213  0.3676
  144OSM   H13G15912   1.689   5.970   5.373  0.8259 -0.3486 -3.1399
  144OSM   C14F15913   1.590   5.870   5.209  0.3813  0.4738  0.3647
  144OSM   H14F15914   1.525   5.948   5.164  0.1842 -0.7407 -1.5645
  144OSM   H14G15915   1.544   5.770   5.196  1.4503 -0.4751  2.9604
  144OSM   C15F15916   1.713   5.871   5.123 -0.4081  0.3269  0.7467
  144OSM   H15F15917   1.776   5.782   5.144 -2.3241 -0.7459  2.3418
  144OSM   H15G15918   1.787   5.951   5.143  1.5918 -0.8548 -1.4503
  144OSM   C16F15919   1.703   5.868   4.966  0.2770  0.2730  0.2451
  144OSM   H16F15920   1.655   5.772   4.939  0.7413  0.7903 -2.8084
  144OSM   H16G15921   1.801   5.856   4.915 -1.1467 -0.6596 -2.4658
  144OSM   C17F15922   1.609   5.970   4.899 -0.2572 -0.6200 -0.1287
  144OSM   H17F15923   1.508   5.958   4.943  0.0781 -0.5072  0.6978
  144OSM   H17G15924   1.603   5.931   4.796  1.5647 -1.9749  0.2228
  144OSM   C18F15925   1.656   6.115   4.882 -0.4872 -0.4216 -0.6429
  144OSM   H18F15926   1.763   6.109   4.854 -0.4482 -2.4830 -0.2532
  144OSM   H18G15927   1.646   6.166   4.980 -1.5391 -0.5867 -0.6460
  144OSM   H18H15928   1.588   6.173   4.815 -0.7632  0.2564  0.2111
  145OSM      N15929   2.405   5.219   7.064 -0.2213  0.2306 -0.0024
  145OSM    C1515930   2.378   5.288   7.197 -0.1074  0.4736 -0.2140
  145OSM   H15A15931   2.288   5.244   7.236 -0.3302 -0.6836 -1.8919
  145OSM   H15B15932   2.366   5.395   7.194 -0.1387  0.6150  2.6814
  145OSM   H15C15933   2.460   5.271   7.265  0.7868  0.5979 -1.2144
  145OSM    C1415934   2.524   5.273   7.002 -0.5092 -0.5224  0.5172
  145OSM   H14A15935   2.520   5.379   6.983 -0.0948 -0.8342 -1.5143
  145OSM   H14B15936   2.539   5.235   6.903  0.3881 -1.0012  0.8334
  145OSM   H14C15937   2.612   5.259   7.062 -0.1755 -1.4927 -0.1818
  145OSM    C1315938   2.431   5.073   7.091 -0.1946 -0.3040 -1.1735
  145OSM   H13A15939   2.514   5.061   7.160 -1.4698  3.8453  1.4494
  145OSM   H13B15940   2.466   5.020   7.004  3.1889 -1.0921  0.4971
  145OSM   H13C15941   2.343   5.018   7.120 -0.3501  0.5417  0.0553
  145OSM    C1215942   2.284   5.232   6.971 -0.1392  0.8398 -0.4448
  145OSM   H12A15943   2.292   5.165   6.887 -2.3173  0.6487 -0.5787
  145OSM   H12B15944   2.292   5.332   6.930 -0.0922  0.9642 -0.1335
  145OSM    C1115945   2.138   5.219   7.038  0.1124 -0.0742  0.8543
  145OSM   H11A15946   2.071   5.262   6.960 -0.9808 -0.8002  1.3665
  145OSM   H11B15947   2.128   5.283   7.128  0.1023 -2.0077  2.2631
  145OSM      P15948   1.969   5.016   7.037 -0.0754  0.3298 -0.1131
  145OSM    O1315949   1.961   4.883   7.101 -0.6611 -0.1646 -0.0705
  145OSM    O1415950   1.859   5.104   7.079 -0.3215  0.4121  0.0404
  145OSM    O1115951   1.967   4.994   6.881 -0.2233 -0.4355 -0.2596
  145OSM    O1215952   2.106   5.084   7.067 -0.1297 -0.0056 -0.2338
  145OSM    C1S15953   2.049   4.893   6.823  0.8184 -0.3674  0.3804
  145OSM    H1S15954   2.022   4.793   6.861 -3.1585 -0.6503 -2.5255
  145OSM    H1T15955   2.155   4.919   6.840  0.6800  0.6490 -0.2058
  145OSM     NF15956   2.093   4.781   6.605  0.3117  0.5458 -0.4526
  145OSM    HNF15957   2.188   4.790   6.577  1.1118  1.4651  2.2920
  145OSM    C2S15958   2.033   4.899   6.664  0.2348 -0.9158 -1.2251
  145OSM    H2S15959   1.924   4.897   6.645  0.0188  0.2892 -0.2865
  145OSM    C3S15960   2.100   5.033   6.617  0.2085 -0.1686  0.3218
  145OSM    H3S15961   2.208   5.038   6.643 -0.4071  0.7415  3.0540
  145OSM     O315962   2.057   5.145   6.689 -0.0541 -0.4433 -0.1186
  145OSM    HO315963   2.023   5.118   6.774  1.4248  2.2415  1.4485
  145OSM    C4S15964   2.070   5.060   6.477 -0.6320  0.4388  0.1028
  145OSM    H4S15965   2.135   5.014   6.402  2.3012  1.6486  1.7359
  145OSM    C5S15966   1.980   5.137   6.416 -0.2833 -0.6125 -0.3671
  145OSM    H5S15967   1.913   5.194   6.482 -0.3809  1.5890 -2.2260
  145OSM    C6S15968   1.958   5.168   6.272 -0.2864  0.8247  0.3403
  145OSM    H6S15969   1.951   5.278   6.264 -0.0170  1.0272  2.3964
  145OSM    H6T15970   1.857   5.129   6.247  0.6413 -0.5995 -1.4505
  145OSM    C7S15971   2.056   5.108   6.162 -0.1756  0.2228  0.3694
  145OSM    H7S15972   2.045   4.998   6.167 -0.4318  0.1789 -0.9094
  145OSM    H7T15973   2.164   5.133   6.175  0.0244 -0.5772  0.2692
  145OSM    C8S15974   2.015   5.148   6.021  0.1263  0.1201 -0.3086
  145OSM    H8S15975   2.029   5.258   6.016  2.0463  0.1021  2.2882
  145OSM    H8T15976   1.907   5.126   6.014  0.4299 -1.3216 -0.7258
  145OSM    C9S15977   2.089   5.070   5.908  0.3039 -0.5438 -0.2640
  145OSM    H9S15978   2.078   4.959   5.904 -0.5320 -0.4436 -3.0517
  145OSM    H9T15979   2.198   5.086   5.922 -0.0642  0.4643  1.8222
  145OSM   C10S15980   2.052   5.133   5.773  0.6033 -0.0400 -0.3934
  145OSM   H10S15981   2.095   5.234   5.758  0.5129  0.0348 -0.1654
  145OSM   H10T15982   1.944   5.147   5.752  0.7896  2.3606  0.0560
  145OSM   C11S15983   2.096   5.045   5.658  0.0452  0.8616  0.8414
  145OSM   H11S15984   2.019   4.966   5.641  2.1056 -1.2586  0.7683
  145OSM   H11T15985   2.187   4.984   5.680  0.0706  1.2838  1.9392
  145OSM   C12S15986   2.104   5.124   5.524  0.5696 -0.0875  0.0769
  145OSM   H12S15987   2.203   5.172   5.539  0.8500 -1.1583  2.0186
  145OSM   H12T15988   2.019   5.191   5.501 -0.3961 -1.8367 -1.6783
  145OSM   C13S15989   2.100   5.031   5.398  0.5119 -0.0518  0.2564
  145OSM   H13S15990   2.002   4.978   5.397  0.4482  0.0002 -2.0306
  145OSM   H13T15991   2.183   4.958   5.409  1.5457  0.9467 -0.6204
  145OSM   C14S15992   2.104   5.114   5.276 -0.2956  0.2777  0.0678
  145OSM   H14S15993   2.192   5.179   5.261 -0.1773 -0.3462 -2.4834
  145OSM   H14T15994   2.020   5.187   5.279  0.1452  0.8184 -0.3944
  145OSM   C15S15995   2.084   5.028   5.146  0.2817  0.1759 -0.4228
  145OSM   H15S15996   1.990   4.972   5.164  1.0532 -0.2016  3.2196
  145OSM   H15T15997   2.171   4.958   5.142  0.3603  0.2597 -0.1580
  145OSM   C16S15998   2.087   5.118   5.020  0.2854 -0.5686  0.2357
  145OSM   H16S15999   2.191   5.157   5.028  0.2542 -0.8535  2.6230
  145OSM   H16T16000   2.026   5.208   5.042  2.4254  1.6757 -2.2039
  145OSM   C17S16001   2.042   5.048   4.891 -0.0533 -0.5461 -0.5156
  145OSM   H17S16002   2.026   5.121   4.809  0.9345 -2.5475 -2.6098
  145OSM   H17T16003   1.944   4.998   4.906  0.8798 -2.4313 -0.4853
  145OSM   C18S16004   2.149   4.954   4.836  0.0863  0.7594 -0.0316
  145OSM   H18S16005   2.114   4.899   4.746  2.9811  1.4855 -1.7283
  145OSM   H18T16006   2.158   4.877   4.916 -2.1440 -0.0220 -0.4542
  145OSM   H18U16007   2.253   4.990   4.819  0.4790 -0.3494 -0.0766
  145OSM    C1F16008   2.030   4.661   6.626 -0.4218  0.1069 -0.3391
  145OSM     OF16009   1.927   4.660   6.695 -0.1961 -0.1041 -0.4751
  145OSM    C2F16010   2.087   4.544   6.555  0.1875 -0.0904 -0.1600
  145OSM    H2F16011   2.129   4.480   6.635 -0.5891  1.4013  1.5221
  145OSM    H2G16012   2.174   4.565   6.490 -0.1492  0.5447 -0.4159
  145OSM    C3F16013   1.983   4.451   6.489 -0.2275  0.2467 -0.2732
  145OSM    H3F16014   1.927   4.496   6.404  0.6861  0.6227 -0.6957
  145OSM    H3G16015   1.921   4.401   6.566  0.5152 -0.1871  0.0572
  145OSM    C4F16016   2.065   4.333   6.432  0.7137 -0.3723 -0.7190
  145OSM    H4F16017   2.139   4.299   6.508  1.9099  2.1246 -0.6549
  145OSM    H4G16018   2.109   4.380   6.342 -1.2341  1.9814 -0.5513
  145OSM    C5F16019   1.981   4.217   6.368 -0.0376  0.4907 -0.3727
  145OSM    H5F16020   1.903   4.260   6.302 -1.2952  1.8695  1.8715
  145OSM    H5G16021   1.924   4.167   6.450 -0.4367 -1.0726 -1.5664
  145OSM    C6F16022   2.060   4.108   6.284  0.3132 -0.0228 -0.3592
  145OSM    H6F16023   1.999   4.017   6.264  1.1357 -0.1920 -2.4795
  145OSM    H6G16024   2.147   4.074   6.344  0.2969  1.5464  0.6041
  145OSM    C7F16025   2.111   4.159   6.152 -0.0155 -0.4923 -0.1390
  145OSM    H7F16026   2.181   4.080   6.116 -0.5025 -1.4168  0.9043
  145OSM    H7G16027   2.174   4.249   6.172 -0.1987 -0.4362  0.1888
  145OSM    C8F16028   2.003   4.184   6.048 -0.2713 -0.2725 -0.7094
  145OSM    H8F16029   1.943   4.268   6.088  0.1013 -0.1448 -0.4148
  145OSM    H8G16030   1.949   4.087   6.044 -0.8624 -0.0340  0.8371
  145OSM    C9F16031   2.046   4.209   5.906 -0.4558 -0.3295 -0.0745
  145OSM    H9F16032   2.132   4.158   5.860 -1.5911  0.1423 -2.9248
  145OSM   C10F16033   1.996   4.306   5.825 -0.0631  0.2931  0.1585
  145OSM   H10F16034   2.043   4.324   5.727 -1.7588 -0.7867 -0.9040
  145OSM   C11F16035   1.872   4.391   5.850 -0.1333 -0.0117 -0.4546
  145OSM   H11F16036   1.883   4.500   5.832  0.6392  0.2536  1.4293
  145OSM   H11G16037   1.828   4.369   5.950  0.3040 -1.5187 -0.5666
  145OSM   C12F16038   1.758   4.338   5.758 -0.2215  0.1948  0.2665
  145OSM   H12F16039   1.669   4.400   5.781  0.3968  2.0766 -2.0286
  145OSM   H12G16040   1.742   4.231   5.785  0.2935 -0.1103 -0.5853
  145OSM   C13F16041   1.777   4.347   5.605  0.5478 -0.2893  0.4528
  145OSM   H13F16042   1.690   4.301   5.553  1.0631 -1.5749  0.6797
  145OSM   H13G16043   1.856   4.272   5.582 -0.8434 -2.1844  1.5569
  145OSM   C14F16044   1.801   4.488   5.546 -0.0229  0.7857  0.6628
  145OSM   H14F16045   1.891   4.528   5.596  0.2003 -1.2068  1.9484
  145OSM   H14G16046   1.707   4.537   5.580 -0.9504 -1.4551  1.5275
  145OSM   C15F16047   1.820   4.492   5.394 -0.2838 -0.1707  0.1210
  145OSM   H15F16048   1.762   4.578   5.353  2.1564  1.1478 -0.8029
  145OSM   H15G16049   1.785   4.393   5.359  2.0877 -0.6341 -1.1273
  145OSM   C16F16050   1.974   4.507   5.360 -0.1111 -0.1439 -0.5260
  145OSM   H16F16051   2.026   4.432   5.423 -1.4276 -1.9702 -1.5107
  145OSM   H16G16052   2.008   4.610   5.384 -1.0422  0.6434 -2.4030
  145OSM   C17F16053   1.995   4.464   5.214  0.3722  0.0406  0.4085
  145OSM   H17F16054   1.906   4.512   5.167  0.3594 -1.1584 -0.8648
  145OSM   H17G16055   1.981   4.354   5.200  2.1674 -0.0657 -0.9963
  145OSM   C18F16056   2.121   4.502   5.148  0.0160 -0.1644 -0.3098
  145OSM   H18F16057   2.123   4.460   5.046 -0.1501  0.0209 -0.3886
  145OSM   H18G16058   2.206   4.454   5.202 -2.1517 -3.7190  0.2914
  145OSM   H18H16059   2.122   4.613   5.141  2.4381 -0.1110 -0.1283
  146OSM      N16060   6.472   4.567   7.098 -0.4680  0.4314 -0.4169
  146OSM    C1516061   6.469   4.580   6.945  0.4276  0.0839 -0.2178
  146OSM   H15A16062   6.544   4.523   6.892 -0.0463  0.3033 -1.1626
  146OSM   H15B16063   6.476   4.684   6.917 -2.2020  0.0158 -1.5022
  146OSM   H15C16064   6.374   4.546   6.906  1.2015  1.7014 -4.0450
  146OSM    C1416065   6.406   4.678   7.165 -0.3582 -0.4427 -0.4512
  146OSM   H14A16066   6.301   4.664   7.144 -0.2186 -1.8606 -0.2826
  146OSM   H14B16067   6.435   4.774   7.125 -0.9738  0.9682  2.2884
  146OSM   H14C16068   6.437   4.668   7.268 -0.4984  0.4273 -0.3202
  146OSM    C1316069   6.399   4.444   7.136  0.1915 -0.1205 -0.2211
  146OSM   H13A16070   6.298   4.443   7.099  0.2478  0.8762 -0.4311
  146OSM   H13B16071   6.391   4.434   7.244 -1.0710  1.4159 -0.1312
  146OSM   H13C16072   6.449   4.356   7.101  2.7157  1.5923 -1.2006
  146OSM    C1216073   6.613   4.552   7.145 -0.6718  0.3647  0.0106
  146OSM   H12A16074   6.656   4.479   7.078 -2.4757 -0.4072 -0.3593
  146OSM   H12B16075   6.614   4.512   7.246  0.7162  2.9153  1.1116
  146OSM    C1116076   6.699   4.684   7.150  0.3442 -0.4591  0.4144
  146OSM   H11A16077   6.718   4.725   7.049  0.8019 -0.4389  0.5061
  146OSM   H11B16078   6.803   4.660   7.180  1.3923  0.1719 -2.4002
  146OSM      P16079   6.658   4.936   7.245  0.2048 -0.2434 -0.3750
  146OSM    O1316080   6.529   4.997   7.295  0.2002 -0.4893  0.4030
  146OSM    O1416081   6.785   4.984   7.304  0.0699  0.2398  0.3646
  146OSM    O1116082   6.663   4.958   7.097 -0.5921 -0.3087 -0.0801
  146OSM    O1216083   6.649   4.780   7.247  0.5012 -0.1722 -0.3239
  146OSM    C1S16084   6.704   5.082   7.031 -0.3255 -0.0921  0.1679
  146OSM    H1S16085   6.802   5.113   7.075 -0.5797 -0.3030  0.9098
  146OSM    H1T16086   6.633   5.163   7.055  0.1705  0.3064  0.3117
  146OSM     NF16087   6.747   5.195   6.822  0.5427 -0.0228 -0.3908
  146OSM    HNF16088   6.681   5.238   6.761  1.0906 -0.2208 -1.1329
  146OSM    C2S16089   6.719   5.066   6.878  0.3020  0.5981  0.1482
  146OSM    H2S16090   6.806   4.998   6.872  0.6022  0.9084  0.8371
  146OSM    C3S16091   6.594   4.994   6.807 -0.0359  0.1974  0.1773
  146OSM    H3S16092   6.500   5.053   6.818 -1.5737 -2.3722  2.2564
  146OSM     O316093   6.556   4.868   6.868  0.0995 -0.0694 -0.3316
  146OSM    HO316094   6.577   4.886   6.960 -0.1496 -1.6241  0.0404
  146OSM    C4S16095   6.626   4.965   6.667  0.0673 -0.1473 -0.2432
  146OSM    H4S16096   6.702   4.886   6.665 -0.3186 -0.5641  0.8834
  146OSM    C5S16097   6.558   5.004   6.560  0.3517  0.1517  0.5304
  146OSM    H5S16098   6.467   5.065   6.573 -0.5652 -1.2607  0.9811
  146OSM    C6S16099   6.583   4.951   6.419  0.0470 -0.3278 -0.2247
  146OSM    H6S16100   6.609   5.044   6.365  0.4435 -0.8071 -0.8730
  146OSM    H6T16101   6.493   4.917   6.365 -1.2553  1.1231  0.9301
  146OSM    C7S16102   6.703   4.856   6.402 -0.5174 -0.3758 -0.4119
  146OSM    H7S16103   6.691   4.758   6.453 -1.5442 -1.3301 -2.4155
  146OSM    H7T16104   6.784   4.920   6.445 -1.7063 -0.3697  2.0033
  146OSM    C8S16105   6.729   4.827   6.253 -0.3963 -0.9565  0.1267
  146OSM    H8S16106   6.710   4.917   6.190 -1.7010 -0.2622  1.4498
  146OSM    H8T16107   6.651   4.759   6.216 -2.4826  0.1945  2.1136
  146OSM    C9S16108   6.871   4.780   6.215  0.3695  0.0983  0.0560
  146OSM    H9S16109   6.889   4.689   6.276  0.6959 -0.8020 -1.3291
  146OSM    H9T16110   6.948   4.854   6.247 -1.3648  1.8706  0.3024
  146OSM   C10S16111   6.901   4.746   6.069  0.1652  0.3916 -0.5944
  146OSM   H10S16112   6.822   4.669   6.059 -0.4471  0.3802  2.8717
  146OSM   H10T16113   6.993   4.683   6.060  0.6605  1.0773 -0.3664
  146OSM   C11S16114   6.905   4.863   5.969 -0.7489  1.2298 -0.0047
  146OSM   H11S16115   6.976   4.943   5.998  0.5609  0.5907 -1.2975
  146OSM   H11T16116   6.807   4.912   5.951 -1.3453  1.2154  2.7170
  146OSM   C12S16117   6.958   4.811   5.834 -0.4705 -0.4540  0.1271
  146OSM   H12S16118   6.887   4.746   5.778 -0.6567  1.6829 -2.2959
  146OSM   H12T16119   7.051   4.753   5.852 -1.1483 -1.4205  0.5905
  146OSM   C13S16120   6.982   4.922   5.742 -0.1315 -0.5514  0.7879
  146OSM   H13S16121   7.037   5.003   5.794  0.2893  0.4010 -1.0507
  146OSM   H13T16122   6.880   4.957   5.714 -0.4710 -1.5020  0.7912
  146OSM   C14S16123   7.059   4.895   5.611  0.1772 -0.0998 -0.2795
  146OSM   H14S16124   7.155   4.846   5.637  1.6266  2.9034  0.4590
  146OSM   H14T16125   7.097   4.994   5.577 -4.8286  1.3270 -2.7261
  146OSM   C15S16126   6.984   4.824   5.495 -0.4862 -0.1449 -0.1588
  146OSM   H15S16127   6.880   4.859   5.476 -0.9352 -1.0220  0.6003
  146OSM   H15T16128   6.975   4.721   5.534 -2.1692  1.0215  2.8353
  146OSM   C16S16129   7.060   4.819   5.358 -0.4257  0.1572 -0.2036
  146OSM   H16S16130   7.035   4.915   5.310 -0.5017  0.2864  0.0935
  146OSM   H16T16131   7.011   4.736   5.302 -0.5247  1.1142 -1.5672
  146OSM   C17S16132   7.213   4.805   5.362 -0.4727 -0.3887 -0.1287
  146OSM   H17S16133   7.243   4.706   5.402 -0.3409 -0.2456  0.1215
  146OSM   H17T16134   7.249   4.891   5.422  1.6865  0.2422 -2.1627
  146OSM   C18S16135   7.275   4.819   5.219 -0.4628  0.5190  0.0020
  146OSM   H18S16136   7.235   4.736   5.156 -1.7235 -0.2107  1.6837
  146OSM   H18T16137   7.385   4.804   5.213 -0.7870 -2.9522  0.5701
  146OSM   H18U16138   7.241   4.917   5.181 -1.8075 -0.7346 -2.3260
  146OSM    C1F16139   6.857   5.273   6.845 -0.6163 -0.4282 -0.3524
  146OSM     OF16140   6.944   5.231   6.916 -0.3926  0.2378  0.4385
  146OSM    C2F16141   6.870   5.405   6.771 -0.5246 -0.1914 -0.6680
  146OSM    H2F16142   6.964   5.456   6.804  0.7208 -2.4939 -0.4342
  146OSM    H2G16143   6.774   5.455   6.796 -0.8140 -1.2132  0.3739
  146OSM    C3F16144   6.882   5.395   6.614 -0.3105  0.3537 -0.5881
  146OSM    H3F16145   6.846   5.494   6.578 -1.0920  0.7374  1.1526
  146OSM    H3G16146   6.808   5.319   6.579 -0.6874  1.1172 -1.5077
  146OSM    C4F16147   7.018   5.367   6.555 -1.1785  0.1105  0.0326
  146OSM    H4F16148   7.086   5.293   6.601 -0.8011 -0.2350 -1.0332
  146OSM    H4G16149   7.073   5.463   6.555 -2.8098  1.0993  0.5260
  146OSM    C5F16150   7.014   5.337   6.406 -0.4766 -0.4984  0.4301
  146OSM    H5F16151   7.117   5.322   6.365 -0.3929  0.6220  0.1891
  146OSM    H5G16152   6.975   5.430   6.358 -0.5756 -2.1614 -3.0672
  146OSM    C6F16153   6.932   5.210   6.364  0.4916 -0.2595  0.9919
  146OSM    H6F16154   6.827   5.243   6.373 -0.1442 -1.9543  0.2895
  146OSM    H6G16155   6.967   5.124   6.425  2.1048 -0.3368  0.0476
  146OSM    C7F16156   6.952   5.168   6.212  0.3218 -0.0284 -0.8584
  146OSM    H7F16157   6.896   5.077   6.180 -0.4577  0.3510 -0.5794
  146OSM    H7G16158   7.059   5.138   6.208 -0.9411 -5.7344 -0.4101
  146OSM    C8F16159   6.914   5.285   6.123 -0.9573  0.2136  0.2256
  146OSM    H8F16160   6.990   5.365   6.138  0.9615 -0.7733 -3.0752
  146OSM    H8G16161   6.805   5.303   6.135 -1.1194  1.2760 -2.1629
  146OSM    C9F16162   6.937   5.256   5.978  0.1502 -0.4486 -0.0806
  146OSM    H9F16163   6.859   5.192   5.934  0.8403 -1.2172 -0.2098
  146OSM   C10F16164   7.035   5.290   5.892  0.3353  0.6418  0.1723
  146OSM   H10F16165   7.035   5.254   5.788  3.0256  0.5039  0.1634
  146OSM   C11F16166   7.162   5.372   5.928  0.0986  0.7614  0.2829
  146OSM   H11F16167   7.138   5.459   5.993 -0.3369  1.7832 -1.1799
  146OSM   H11G16168   7.194   5.428   5.837 -0.0310  1.1052  0.4476
  146OSM   C12F16169   7.272   5.283   5.987 -1.2868  0.2364  0.1215
  146OSM   H12F16170   7.226   5.217   6.063 -0.2670  0.3474  0.8541
  146OSM   H12G16171   7.341   5.337   6.055 -2.1313  0.1246  1.0876
  146OSM   C13F16172   7.334   5.181   5.900  0.0768  0.2041 -0.3785
  146OSM   H13F16173   7.260   5.098   5.902 -0.7114  0.7421  4.2795
  146OSM   H13G16174   7.434   5.141   5.929 -0.4091 -0.8354 -0.0784
  146OSM   C14F16175   7.338   5.227   5.750 -0.5973 -0.7057  0.5153
  146OSM   H14F16176   7.240   5.248   5.701 -0.0557 -2.1191 -1.2832
  146OSM   H14G16177   7.399   5.320   5.744 -0.1391 -1.0899 -2.3446
  146OSM   C15F16178   7.416   5.138   5.656  0.6133 -0.0645 -0.1161
  146OSM   H15F16179   7.383   5.032   5.650  0.3960 -0.0237  0.2793
  146OSM   H15G16180   7.521   5.130   5.690 -0.1090  0.7226  2.5315
  146OSM   C16F16181   7.401   5.182   5.512 -0.8243 -0.1078  0.1040
  146OSM   H16F16182   7.424   5.291   5.512 -1.9084  0.1490  0.9257
  146OSM   H16G16183   7.294   5.163   5.488 -0.6164 -3.8493  1.3742
  146OSM   C17F16184   7.489   5.101   5.422  0.1487  0.6165  0.6566
  146OSM   H17F16185   7.477   4.992   5.436  1.9851  0.4038  0.7709
  146OSM   H17G16186   7.594   5.131   5.444 -0.3322  1.7471  1.4972
  146OSM   C18F16187   7.463   5.132   5.274 -0.0201 -0.6695 -0.5540
  146OSM   H18F16188   7.365   5.095   5.235 -0.9005 -0.2523  1.1475
  146OSM   H18G16189   7.542   5.076   5.220 -1.3879 -2.0145 -1.2461
  146OSM   H18H16190   7.474   5.242   5.260 -2.8502 -0.3297 -0.7403
  147OSM      N16191   0.754   6.358   2.582 -0.0293 -0.6512 -0.5940
  147OSM    C1516192   0.739   6.217   2.537 -0.3778  0.5412  0.0654
  147OSM   H15A16193   0.705   6.219   2.435 -0.5670  2.0983  0.1386
  147OSM   H15B16194   0.674   6.156   2.596  2.2932 -2.0327  0.6007
  147OSM   H15C16195   0.837   6.171   2.534 -0.3531  0.5203  0.9919
  147OSM    C1416196   0.837   6.422   2.472 -0.8145 -0.9272 -0.2953
  147OSM   H14A16197   0.782   6.421   2.379 -0.0931 -0.3153 -0.7355
  147OSM   H14B16198   0.930   6.367   2.470 -1.3321 -1.9659  1.7782
  147OSM   H14C16199   0.861   6.525   2.495  0.1862 -1.0420 -0.8005
  147OSM    C1316200   0.625   6.431   2.580  0.5444 -0.0941  0.4981
  147OSM   H13A16201   0.636   6.538   2.592 -0.4530  0.2019 -0.9798
  147OSM   H13B16202   0.566   6.391   2.661  0.2782 -1.0988 -0.1770
  147OSM   H13C16203   0.573   6.406   2.489 -1.0608 -0.6968  1.5252
  147OSM    C1216204   0.829   6.365   2.715 -0.0813 -0.0192  0.5117
  147OSM   H12A16205   0.923   6.316   2.695  1.7008  3.0793  0.6982
  147OSM   H12B16206   0.769   6.312   2.788 -2.6667  2.2079  0.1517
  147OSM    C1116207   0.851   6.505   2.776 -0.2074 -0.2621  0.0250
  147OSM   H11A16208   0.839   6.495   2.886 -1.3915  0.1871 -0.0585
  147OSM   H11B16209   0.768   6.574   2.751 -1.3622 -0.5854  2.6019
  147OSM      P16210   1.112   6.502   2.772 -0.2145 -0.1694  0.1731
  147OSM    O1316211   1.130   6.366   2.713  0.7177 -0.4464 -0.3153
  147OSM    O1416212   1.223   6.599   2.743 -0.5285  0.3510  0.2199
  147OSM    O1116213   1.094   6.490   2.929 -0.2415  0.5099  0.1560
  147OSM    O1216214   0.973   6.562   2.729 -0.4509 -1.0480 -0.2709
  147OSM    C1S16215   1.110   6.594   3.019 -0.0139 -0.8538  0.4750
  147OSM    H1S16216   1.044   6.677   2.987  0.3352 -0.1977  1.4323
  147OSM    H1T16217   1.214   6.630   3.020 -0.0834 -0.4205 -1.8736
  147OSM     NF16218   1.106   6.672   3.261  0.1907 -0.4077  0.4108
  147OSM    HNF16219   1.161   6.657   3.342  0.6222 -0.1936  0.1590
  147OSM    C2S16220   1.067   6.563   3.167  0.0769  0.3227 -0.1129
  147OSM    H2S16221   0.958   6.542   3.164  0.4757 -1.9287 -1.1098
  147OSM    C3S16222   1.123   6.425   3.215  0.0917 -0.2137 -0.5051
  147OSM    H3S16223   1.234   6.426   3.216  0.0876 -0.0477 -0.0968
  147OSM     O316224   1.070   6.323   3.136 -0.2787 -0.0148  0.1559
  147OSM    HO316225   1.055   6.376   3.057  0.4932  0.8848  0.5945
  147OSM    C4S16226   1.078   6.407   3.359  0.6756  0.7413 -0.1332
  147OSM    H4S16227   1.161   6.423   3.429  2.2190 -0.0147 -1.7152
  147OSM    C5S16228   0.961   6.365   3.406 -0.2033  0.0089 -0.9239
  147OSM    H5S16229   0.876   6.349   3.337 -1.0906 -1.2004  0.4002
  147OSM    C6S16230   0.942   6.360   3.561 -0.3075 -0.0320  0.6712
  147OSM    H6S16231   1.032   6.405   3.609  0.2589 -0.4742  0.0450
  147OSM    H6T16232   0.931   6.253   3.590 -1.7262  0.8037  3.6386
  147OSM    C7S16233   0.826   6.449   3.592 -0.1575 -0.3181 -0.6220
  147OSM    H7S16234   0.742   6.412   3.530 -0.7127  0.0059 -0.0704
  147OSM    H7T16235   0.860   6.549   3.558  0.2734 -0.5705 -0.9441
  147OSM    C8S16236   0.787   6.477   3.740 -0.3631  0.2276 -0.1775
  147OSM    H8S16237   0.759   6.385   3.795 -2.2628  0.6011 -0.4373
  147OSM    H8T16238   0.701   6.546   3.752 -0.0345  0.2661  2.5145
  147OSM    C9S16239   0.910   6.530   3.822  0.4076 -0.0685  0.4178
  147OSM    H9S16240   0.969   6.607   3.767 -1.8735  1.4225 -0.0682
  147OSM    H9T16241   0.976   6.441   3.837  1.4342  0.5770 -0.1258
  147OSM   C10S16242   0.870   6.593   3.954 -0.5492  0.7767  0.0810
  147OSM   H10S16243   0.793   6.534   4.009  0.6618 -1.6010 -0.6285
  147OSM   H10T16244   0.820   6.687   3.923 -0.9558 -0.1006 -2.1405
  147OSM   C11S16245   0.994   6.612   4.047 -0.0513  0.1673 -0.4207
  147OSM   H11S16246   1.074   6.660   3.986 -1.6670  2.7519 -0.6690
  147OSM   H11T16247   1.030   6.514   4.085  1.2477  0.9646  0.4790
  147OSM   C12S16248   0.976   6.705   4.171  0.1735 -0.2544 -0.3266
  147OSM   H12S16249   0.892   6.685   4.241  0.6481 -2.2684 -0.2562
  147OSM   H12T16250   0.964   6.805   4.125  0.0859 -0.3129 -0.4325
  147OSM   C13S16251   1.109   6.707   4.261  0.0235 -0.9128  0.4724
  147OSM   H13S16252   1.202   6.728   4.205 -0.9517  0.8973 -0.5659
  147OSM   H13T16253   1.110   6.605   4.305  0.4878 -1.2038 -0.2171
  147OSM   C14S16254   1.102   6.798   4.385  0.2211  0.1103 -0.3151
  147OSM   H14S16255   1.097   6.905   4.356  2.4764  0.3157 -0.1114
  147OSM   H14T16256   1.193   6.783   4.447  1.3541 -1.6578 -2.2575
  147OSM   C15S16257   0.972   6.778   4.477 -0.5065  0.2629 -0.3157
  147OSM   H15S16258   0.882   6.803   4.417 -0.3741 -2.2710 -1.7010
  147OSM   H15T16259   0.978   6.853   4.559  2.9987 -2.9467  2.7658
  147OSM   C16S16260   0.957   6.637   4.535 -0.8213 -0.2369 -0.0165
  147OSM   H16S16261   1.056   6.597   4.563 -1.1068 -0.8567  0.1343
  147OSM   H16T16262   0.920   6.570   4.454  1.1311  0.1132 -1.2416
  147OSM   C17S16263   0.858   6.619   4.647  0.2489 -0.6427  0.0224
  147OSM   H17S16264   0.762   6.670   4.622  0.5318  1.4854  2.7824
  147OSM   H17T16265   0.894   6.674   4.737 -1.3252  1.9157 -0.8012
  147OSM   C18S16266   0.847   6.466   4.680 -0.9032 -0.1895 -0.4260
  147OSM   H18S16267   0.952   6.431   4.689 -1.0696 -0.1492  2.6822
  147OSM   H18T16268   0.800   6.408   4.598  0.7703 -1.8562 -0.2790
  147OSM   H18U16269   0.790   6.451   4.774  0.6183  1.9298  0.9290
  147OSM    C1F16270   1.068   6.803   3.254  0.0465 -0.1916  0.0439
  147OSM     OF16271   1.018   6.844   3.154 -0.3207 -0.2356 -0.0791
  147OSM    C2F16272   1.078   6.894   3.384  0.1378 -0.0134  0.0166
  147OSM    H2F16273   0.984   6.952   3.379 -1.2613 -2.2620 -1.1836
  147OSM    H2G16274   1.159   6.971   3.380  2.7814 -2.5672  0.4702
  147OSM    C3F16275   1.096   6.796   3.504  0.5502 -0.8542 -0.2090
  147OSM    H3F16276   1.196   6.747   3.496  1.5384  0.5824  2.4320
  147OSM    H3G16277   1.022   6.715   3.520  0.0897 -0.2441  0.8121
  147OSM    C4F16278   1.069   6.886   3.629 -0.2607  0.7695  0.7165
  147OSM    H4F16279   1.127   6.978   3.605 -0.4115  0.2852 -1.7406
  147OSM    H4G16280   1.111   6.833   3.717 -1.3379 -1.0266  0.1807
  147OSM    C5F16281   0.928   6.907   3.675 -0.1055  0.1972  0.0971
  147OSM    H5F16282   0.871   6.812   3.669  1.8869 -0.9923 -1.7403
  147OSM    H5G16283   0.872   6.975   3.608 -0.7650  2.5473  2.8252
  147OSM    C6F16284   0.912   6.957   3.820  0.3233 -0.2303  0.1964
  147OSM    H6F16285   0.941   6.880   3.895  0.2049 -1.9357 -1.4252
  147OSM    H6G16286   0.805   6.985   3.833 -0.4378 -2.7515  0.0211
  147OSM    C7F16287   0.993   7.089   3.865  0.3134  0.1189  0.7342
  147OSM    H7F16288   0.997   7.158   3.779  1.0810  1.1270  1.5452
  147OSM    H7G16289   1.097   7.062   3.895  1.2040  2.0084 -0.4602
  147OSM    C8F16290   0.937   7.166   3.985  0.4026  0.0878  0.3118
  147OSM    H8F16291   0.831   7.190   3.962  0.0766 -1.2971  0.2771
  147OSM    H8G16292   0.979   7.267   3.999 -0.2321  0.5001 -0.6234
  147OSM    C9F16293   0.957   7.098   4.114  0.2777  0.3940 -0.5146
  147OSM    H9F16294   1.059   7.058   4.121 -0.2903 -0.7790  2.4076
  147OSM   C10F16295   0.867   7.080   4.216 -0.3050  0.1501  0.1654
  147OSM   H10F16296   0.903   7.026   4.305 -0.7214 -0.5297 -0.0755
  147OSM   C11F16297   0.729   7.141   4.230  0.2182  0.2381  0.2050
  147OSM   H11F16298   0.655   7.086   4.168 -0.2456  2.8303 -1.7279
  147OSM   H11G16299   0.711   7.240   4.184  0.5819  0.8555  1.3550
  147OSM   C12F16300   0.677   7.151   4.370  0.4080  0.0163 -0.4083
  147OSM   H12F16301   0.588   7.215   4.388 -1.5618 -3.0099  1.4999
  147OSM   H12G16302   0.750   7.199   4.439  0.3002  0.3605 -0.5299
  147OSM   C13F16303   0.630   7.015   4.422 -0.1295 -0.4394 -0.0363
  147OSM   H13F16304   0.724   6.966   4.453 -0.7223 -0.3056  2.0710
  147OSM   H13G16305   0.589   6.947   4.344  2.8623 -0.8411 -1.4058
  147OSM   C14F16306   0.524   7.020   4.532 -0.5600 -0.3170  0.2419
  147OSM   H14F16307   0.428   7.058   4.492 -0.5830 -0.2529  0.3588
  147OSM   H14G16308   0.548   7.094   4.611 -0.0463  0.3355 -0.5102
  147OSM   C15F16309   0.514   6.889   4.598  0.0039  0.1234  0.0167
  147OSM   H15F16310   0.614   6.839   4.597  0.5754  1.2326  0.0274
  147OSM   H15G16311   0.440   6.831   4.541 -0.0544 -0.8541  1.0445
  147OSM   C16F16312   0.473   6.892   4.750  0.6232 -0.3260  0.4780
  147OSM   H16F16313   0.380   6.952   4.758  1.8516  1.7797 -0.0889
  147OSM   H16G16314   0.542   6.956   4.810  0.8838 -1.2111  1.1292
  147OSM   C17F16315   0.469   6.746   4.804 -0.0209 -0.6947 -0.8430
  147OSM   H17F16316   0.562   6.692   4.775  0.3808  0.2194 -1.2878
  147OSM   H17G16317   0.388   6.694   4.748  0.9260 -2.8057 -0.3592
  147OSM   C18F16318   0.442   6.739   4.956  0.1529 -0.2923  0.7941
  147OSM   H18F16319   0.415   6.634   4.979 -0.6245 -0.9347 -2.4573
  147OSM   H18G16320   0.363   6.809   4.992 -2.1988 -2.0498 -0.6184
  147OSM   H18H16321   0.530   6.771   5.016 -1.3048  0.2866  2.7281
  148OSM      N16322   1.885   5.326   2.219 -0.5824 -0.4737 -0.3670
  148OSM    C1516323   1.777   5.219   2.235 -0.5425  0.3729  0.2603
  148OSM   H15A16324   1.751   5.190   2.335 -0.9777 -2.1495 -0.5096
  148OSM   H15B16325   1.828   5.134   2.193 -0.5420 -0.4451  1.8689
  148OSM   H15C16326   1.693   5.245   2.171  0.1119  0.0616 -0.7505
  148OSM    C1416327   2.004   5.286   2.295 -0.4197 -0.1055  0.1735
  148OSM   H14A16328   2.039   5.184   2.289  1.1538  0.2206  2.4243
  148OSM   H14B16329   1.988   5.308   2.400  0.3331 -0.7249  0.4292
  148OSM   H14C16330   2.087   5.345   2.259 -1.3981  1.0468 -0.2638
  148OSM    C1316331   1.905   5.347   2.071 -0.9198 -0.1349  0.0129
  148OSM   H13A16332   1.906   5.259   2.009  0.6343 -0.5574  0.5887
  148OSM   H13B16333   2.006   5.380   2.056 -1.3173  1.8872  1.3044
  148OSM   H13C16334   1.829   5.410   2.025 -0.5410  0.0855 -0.3110
  148OSM    C1216335   1.850   5.463   2.271  0.0846 -0.0529  0.2426
  148OSM   H12A16336   1.758   5.499   2.227 -0.5785  0.6737  2.1105
  148OSM   H12B16337   1.927   5.536   2.251 -0.8785  0.2880 -2.7761
  148OSM    C1116338   1.812   5.479   2.424 -0.2681  0.1493 -0.1666
  148OSM   H11A16339   1.732   5.407   2.450 -0.3576  0.5477  0.6831
  148OSM   H11B16340   1.757   5.575   2.439  0.5194  0.7758 -1.0948
  148OSM      P16341   2.003   5.603   2.539 -0.1961  0.0576 -0.0471
  148OSM    O1316342   2.126   5.562   2.614  0.2476 -0.0166  0.0185
  148OSM    O1416343   2.028   5.672   2.412  0.5164 -0.5153 -0.4376
  148OSM    O1116344   1.907   5.692   2.630 -0.1082 -0.2145 -0.4532
  148OSM    O1216345   1.920   5.471   2.515  0.1018  0.4395  0.5722
  148OSM    C1S16346   1.855   5.627   2.751 -0.1934 -0.0804 -0.2536
  148OSM    H1S16347   1.947   5.594   2.804  0.5453  1.5861 -0.4373
  148OSM    H1T16348   1.791   5.542   2.721 -2.4561  1.8075 -1.1080
  148OSM     NF16349   1.753   5.628   2.984 -0.2913  0.2872  0.1782
  148OSM    HNF16350   1.674   5.568   2.995  2.1542 -2.8864  2.0709
  148OSM    C2S16351   1.763   5.706   2.858 -0.4141 -0.2596 -0.2724
  148OSM    H2S16352   1.804   5.809   2.866 -0.1726 -0.4153  0.6087
  148OSM    C3S16353   1.617   5.728   2.789 -0.0510  0.1601  0.5609
  148OSM    H3S16354   1.567   5.631   2.766  1.0398 -0.4447  0.6269
  148OSM     O316355   1.623   5.792   2.653  0.2247 -0.0189 -0.6368
  148OSM    HO316356   1.698   5.750   2.610  0.1177 -0.8721 -0.0032
  148OSM    C4S16357   1.537   5.821   2.875 -0.0678  0.6550 -0.2556
  148OSM    H4S16358   1.582   5.921   2.876 -0.8802  1.0271 -0.2220
  148OSM    C5S16359   1.429   5.785   2.946  0.3595 -0.5888  0.1650
  148OSM    H5S16360   1.390   5.683   2.933 -2.7605  0.6603 -1.2668
  148OSM    C6S16361   1.351   5.867   3.045  0.8701  1.0720 -0.3821
  148OSM    H6S16362   1.249   5.859   3.001  1.1135 -1.4800 -0.6290
  148OSM    H6T16363   1.393   5.968   3.067 -0.5292  2.1803 -2.4076
  148OSM    C7S16364   1.349   5.792   3.187  0.3337  0.2764  0.1784
  148OSM    H7S16365   1.457   5.766   3.193  0.5134  1.1083  0.9382
  148OSM    H7T16366   1.282   5.703   3.192  3.3946 -2.1798  0.3014
  148OSM    C8S16367   1.294   5.891   3.295  0.0631  0.2121 -0.2236
  148OSM    H8S16368   1.201   5.942   3.263 -0.2077  1.1062  1.7945
  148OSM    H8T16369   1.368   5.974   3.306  0.3071 -0.1443  1.0202
  148OSM    C9S16370   1.266   5.825   3.429  0.1648 -0.1274 -0.0003
  148OSM    H9S16371   1.351   5.755   3.446 -0.5786 -0.6416  1.8329
  148OSM    H9T16372   1.175   5.761   3.422  0.2014 -0.1419 -0.3473
  148OSM   C10S16373   1.253   5.922   3.548 -0.7270  0.0764  0.2114
  148OSM   H10S16374   1.162   5.985   3.535 -0.5015  1.2581  3.4666
  148OSM   H10T16375   1.345   5.981   3.567 -0.2539 -0.3339 -0.7384
  148OSM   C11S16376   1.221   5.852   3.674 -0.2515 -0.0289 -0.8476
  148OSM   H11S16377   1.292   5.767   3.678  0.4615  0.5873  2.4601
  148OSM   H11T16378   1.120   5.807   3.663 -0.3806  0.2244 -0.7066
  148OSM   C12S16379   1.220   5.937   3.806  0.0054  0.4700  0.0369
  148OSM   H12S16380   1.183   6.036   3.773  0.3044  0.1345 -1.3594
  148OSM   H12T16381   1.326   5.941   3.836 -0.6274 -1.3416  2.9637
  148OSM   C13S16382   1.137   5.862   3.908  0.4868  0.5427 -0.6649
  148OSM   H13S16383   1.196   5.770   3.923  0.5669  0.7961  0.7307
  148OSM   H13T16384   1.038   5.832   3.868  0.7459  0.5744 -1.3529
  148OSM   C14S16385   1.131   5.914   4.048 -0.9570  0.0795  0.3651
  148OSM   H14S16386   1.232   5.940   4.086 -0.5046  2.7603 -2.2427
  148OSM   H14T16387   1.067   5.849   4.112 -1.2085  1.7132  1.8349
  148OSM   C15S16388   1.043   6.046   4.056 -0.5634  0.0997  0.4809
  148OSM   H15S16389   0.936   6.024   4.036 -1.2604  1.5906  2.3081
  148OSM   H15T16390   1.080   6.116   3.979 -0.2239  0.6936  1.1752
  148OSM   C16S16391   1.052   6.119   4.186 -0.1413  1.6315 -0.5719
  148OSM   H16S16392   1.143   6.182   4.190 -0.4533  2.1490 -1.2477
  148OSM   H16T16393   1.043   6.053   4.275  2.0069  1.9625 -0.0666
  148OSM   C17S16394   0.940   6.231   4.201 -0.0319 -0.5428  0.3041
  148OSM   H17S16395   0.849   6.183   4.157 -1.1109  0.8031  1.0178
  148OSM   H17T16396   0.970   6.316   4.137 -0.0711 -2.6059 -2.6854
  148OSM   C18S16397   0.894   6.267   4.349 -0.2266 -0.1909  0.8417
  148OSM   H18S16398   0.970   6.315   4.415 -0.6131 -2.8227  3.4448
  148OSM   H18T16399   0.858   6.173   4.398  2.1115 -1.7746 -0.2711
  148OSM   H18U16400   0.811   6.339   4.341 -0.1815 -0.1772  0.4836
  148OSM    C1F16401   1.854   5.622   3.069  0.1795 -0.2030 -0.7247
  148OSM     OF16402   1.959   5.681   3.051  0.4162 -0.2629  0.0623
  148OSM    C2F16403   1.830   5.532   3.187  0.8928 -0.0791  0.0526
  148OSM    H2F16404   1.929   5.486   3.210  1.6089  1.6158  0.5397
  148OSM    H2G16405   1.758   5.450   3.166  0.5872  0.6155 -1.7058
  148OSM    C3F16406   1.777   5.598   3.319  0.0961  0.1798  0.0068
  148OSM    H3F16407   1.689   5.662   3.296  0.9615  1.2503 -0.4213
  148OSM    H3G16408   1.852   5.670   3.358  1.7037 -2.1613  1.4885
  148OSM    C4F16409   1.745   5.489   3.421 -1.0791 -0.4311 -0.6111
  148OSM    H4F16410   1.843   5.439   3.436 -1.9505 -1.7722  0.8627
  148OSM    H4G16411   1.673   5.419   3.374  0.4293 -0.9181 -2.3154
  148OSM    C5F16412   1.676   5.554   3.542 -0.0159 -0.4043  0.0444
  148OSM    H5F16413   1.583   5.607   3.513 -0.7474  0.1783  3.1574
  148OSM    H5G16414   1.742   5.636   3.575 -0.4633 -0.6809  1.7363
  148OSM    C6F16415   1.642   5.459   3.659  0.3221 -0.3396  0.4895
  148OSM    H6F16416   1.729   5.447   3.727  0.1988 -0.6837  0.5896
  148OSM    H6G16417   1.598   5.364   3.623 -0.4965 -0.0315  0.6576
  148OSM    C7F16418   1.532   5.519   3.747  0.0548 -0.0134  0.8586
  148OSM    H7F16419   1.439   5.495   3.689 -1.0999  0.8432  2.2862
  148OSM    H7G16420   1.533   5.630   3.753  0.1788 -0.1111  3.2941
  148OSM    C8F16421   1.512   5.464   3.889  0.1434 -0.9180  0.0865
  148OSM    H8F16422   1.521   5.353   3.886  0.3983 -0.9052 -2.7575
  148OSM    H8G16423   1.410   5.490   3.924  0.7825 -1.2245  2.3060
  148OSM    C9F16424   1.617   5.525   3.982  0.1602  0.0700 -0.0204
  148OSM    H9F16425   1.719   5.514   3.942  0.3741 -1.4891  0.8675
  148OSM   C10F16426   1.598   5.590   4.095  0.1319  0.3866  0.2560
  148OSM   H10F16427   1.682   5.636   4.149 -0.9754  1.1611  1.3566
  148OSM   C11F16428   1.472   5.616   4.163 -0.1306  0.0073 -0.3035
  148OSM   H11F16429   1.404   5.529   4.150 -0.0124 -0.3394  1.2233
  148OSM   H11G16430   1.431   5.706   4.111 -1.7706  0.1204  1.1100
  148OSM   C12F16431   1.486   5.624   4.315  0.9082  0.1261  0.4456
  148OSM   H12F16432   1.569   5.686   4.356  1.3730  0.1861 -0.5765
  148OSM   H12G16433   1.505   5.523   4.358  0.9014 -0.7355 -1.4972
  148OSM   C13F16434   1.348   5.676   4.387 -0.1979 -0.2568  0.3864
  148OSM   H13F16435   1.339   5.783   4.356  3.3951  0.3906  1.1951
  148OSM   H13G16436   1.369   5.673   4.496  0.6239 -1.2680  0.2125
  148OSM   C14F16437   1.216   5.596   4.360  0.0265 -0.0492 -0.2379
  148OSM   H14F16438   1.214   5.499   4.414  0.3651  0.0534 -0.0403
  148OSM   H14G16439   1.200   5.570   4.253  0.4022 -0.5130 -0.1889
  148OSM   C15F16440   1.084   5.670   4.396 -1.2973  0.7027 -0.1664
  148OSM   H15F16441   0.992   5.609   4.394 -1.5810  1.0549  1.1520
  148OSM   H15G16442   1.068   5.761   4.334 -2.4401  0.3233 -0.4406
  148OSM   C16F16443   1.084   5.712   4.544 -0.5129  0.5640 -0.2439
  148OSM   H16F16444   1.179   5.765   4.565  0.0825 -1.3734  2.5240
  148OSM   H16G16445   1.068   5.623   4.609  0.2447 -0.9237 -1.9860
  148OSM   C17F16446   0.973   5.809   4.579 -0.9133  0.0456 -0.7976
  148OSM   H17F16447   0.875   5.758   4.570 -1.3652  0.1449  2.3489
  148OSM   H17G16448   0.974   5.892   4.505 -0.5113 -0.6227 -1.5525
  148OSM   C18F16449   0.994   5.868   4.715 -0.5053 -0.3005  0.4899
  148OSM   H18F16450   1.099   5.904   4.716 -0.4059 -0.5439 -0.5728
  148OSM   H18G16451   0.984   5.792   4.795 -2.3352 -0.6841 -0.0614
  148OSM   H18H16452   0.921   5.950   4.731  1.5285  1.3380  1.8870
  149OSM      N16453   3.405   3.317   2.505 -0.0659  0.2642 -0.4147
  149OSM    C1516454   3.275   3.294   2.440  0.6613 -0.6276  0.0361
  149OSM   H15A16455   3.287   3.260   2.339  1.0705  1.1555 -0.5514
  149OSM   H15B16456   3.210   3.380   2.431  0.7107 -0.4466  1.2682
  149OSM   H15C16457   3.209   3.222   2.486  1.6298 -0.4248  1.8298
  149OSM    C1416458   3.466   3.187   2.523  0.0572  0.1661  0.3865
  149OSM   H14A16459   3.561   3.196   2.575  0.1108  0.0136  0.3151
  149OSM   H14B16460   3.505   3.139   2.435  0.7353 -1.8214  1.6883
  149OSM   H14C16461   3.410   3.120   2.586  0.5729 -0.2382  0.4229
  149OSM    C1316462   3.494   3.381   2.394 -0.1082 -0.1124  0.0005
  149OSM   H13A16463   3.437   3.458   2.344 -0.4774 -0.1399  0.3726
  149OSM   H13B16464   3.536   3.312   2.322 -3.7368 -0.2027 -2.2974
  149OSM   H13C16465   3.569   3.443   2.441 -0.8532  0.4730  0.4291
  149OSM    C1216466   3.401   3.392   2.631 -0.6938 -0.3624  0.4862
  149OSM   H12A16467   3.336   3.337   2.697 -1.6500  0.4407  0.2429
  149OSM   H12B16468   3.366   3.493   2.617 -2.7272 -1.0769  0.0537
  149OSM    C1116469   3.545   3.422   2.695 -0.0874  0.7464  0.0052
  149OSM   H11A16470   3.605   3.329   2.694 -2.5515 -1.1515  3.3700
  149OSM   H11B16471   3.530   3.446   2.803  0.0434 -0.6985  0.3626
  149OSM      P16472   3.591   3.680   2.668  0.3075 -0.3011 -0.2588
  149OSM    O1316473   3.663   3.761   2.565 -0.9901 -0.3359 -0.5998
  149OSM    O1416474   3.451   3.709   2.705 -0.5067 -0.0611  0.0879
  149OSM    O1116475   3.677   3.680   2.800  0.3072 -0.4784  0.7030
  149OSM    O1216476   3.614   3.524   2.621 -0.1910  0.4721  0.0420
  149OSM    C1S16477   3.805   3.632   2.837  0.4297  0.6454  0.7478
  149OSM    H1S16478   3.885   3.669   2.769  1.3851 -1.2298  0.7854
  149OSM    H1T16479   3.805   3.521   2.840 -0.1847  0.6355  0.6196
  149OSM     NF16480   3.968   3.636   3.024 -0.2903 -0.2106  0.8450
  149OSM    HNF16481   3.980   3.559   3.085 -3.5205 -1.7523 -0.2073
  149OSM    C2S16482   3.830   3.675   2.981  0.1620 -0.6029 -0.1848
  149OSM    H2S16483   3.814   3.784   2.994  0.1596 -0.7060  0.6821
  149OSM    C3S16484   3.716   3.616   3.077  0.2030  0.4046  0.0481
  149OSM    H3S16485   3.730   3.506   3.069 -1.9716  0.0393  0.7548
  149OSM     O316486   3.584   3.642   3.023 -0.6352 -0.0656 -0.3153
  149OSM    HO316487   3.606   3.671   2.935 -2.3683  2.4971 -0.0047
  149OSM    C4S16488   3.723   3.652   3.221 -0.2198 -0.7034 -0.0656
  149OSM    H4S16489   3.779   3.579   3.282  0.0664 -0.8371 -0.4924
  149OSM    C5S16490   3.670   3.757   3.290  0.4448  0.4956 -0.2191
  149OSM    H5S16491   3.599   3.819   3.234 -3.2977 -4.3063 -1.5286
  149OSM    C6S16492   3.677   3.799   3.440  0.4417 -0.6836  0.1167
  149OSM    H6S16493   3.710   3.902   3.465  2.2206 -1.6018  1.8995
  149OSM    H6T16494   3.751   3.735   3.493  0.7613 -0.0573  0.4473
  149OSM    C7S16495   3.539   3.767   3.496  0.3996  0.0405 -0.2129
  149OSM    H7S16496   3.519   3.662   3.467 -2.9849  0.6472 -0.4083
  149OSM    H7T16497   3.463   3.831   3.447 -0.9146 -0.8786  0.5567
  149OSM    C8S16498   3.530   3.805   3.644  0.4282 -0.3155 -0.0294
  149OSM    H8S16499   3.433   3.766   3.681  0.2086 -0.7801 -1.0571
  149OSM    H8T16500   3.523   3.915   3.656  0.9312 -0.4188  1.4610
  149OSM    C9S16501   3.630   3.729   3.748 -0.0536 -0.2508 -0.0718
  149OSM    H9S16502   3.714   3.802   3.751 -0.3356  0.1131 -0.8115
  149OSM    H9T16503   3.672   3.640   3.698  0.8279 -0.9185  1.7525
  149OSM   C10S16504   3.564   3.709   3.888 -0.5874 -0.2595  0.1666
  149OSM   H10S16505   3.489   3.627   3.889 -0.3325 -0.4863  0.7939
  149OSM   H10T16506   3.510   3.798   3.928  1.8060  0.9687  0.8421
  149OSM   C11S16507   3.669   3.669   3.995 -0.5852 -0.4013  0.9056
  149OSM   H11S16508   3.756   3.732   3.965 -2.4462  2.4537  1.1421
  149OSM   H11T16509   3.691   3.561   3.979 -0.8802 -0.3100 -0.2242
  149OSM   C12S16510   3.625   3.711   4.136  0.1494 -0.8650  0.1222
  149OSM   H12S16511   3.713   3.681   4.196 -0.2816 -2.1172  0.1551
  149OSM   H12T16512   3.540   3.647   4.167  0.2043 -1.0052 -0.0148
  149OSM   C13S16513   3.592   3.861   4.147 -0.2835  0.3978  1.3058
  149OSM   H13S16514   3.487   3.885   4.119 -0.4477 -1.0807  0.5538
  149OSM   H13T16515   3.663   3.901   4.071  2.7916  0.0344  3.8058
  149OSM   C14S16516   3.646   3.920   4.270 -0.2255 -0.1791  0.1455
  149OSM   H14S16517   3.752   3.888   4.278  0.2365  1.1022 -0.5152
  149OSM   H14T16518   3.585   3.882   4.355 -0.6951  0.9209  0.3125
  149OSM   C15S16519   3.641   4.074   4.287  0.2234  0.0307  0.1849
  149OSM   H15S16520   3.538   4.111   4.310  0.2063  1.4893 -1.9833
  149OSM   H15T16521   3.677   4.118   4.192 -0.5380 -2.4066 -1.3319
  149OSM   C16S16522   3.733   4.132   4.393 -0.7815  0.0883 -0.0068
  149OSM   H16S16523   3.809   4.061   4.430 -1.7432 -0.6599  0.5981
  149OSM   H16T16524   3.670   4.153   4.483 -3.0208  0.4838 -1.5752
  149OSM   C17S16525   3.804   4.253   4.349  0.2085 -0.2070  0.5759
  149OSM   H17S16526   3.737   4.324   4.296  0.3681  1.6116  2.6620
  149OSM   H17T16527   3.885   4.229   4.277 -1.2967 -1.1215 -0.8911
  149OSM   C18S16528   3.859   4.334   4.469 -0.0832 -0.8096  0.3367
  149OSM   H18S16529   3.912   4.257   4.528 -1.2971 -0.7261  1.5792
  149OSM   H18T16530   3.781   4.372   4.538  0.2923 -1.1101  0.9344
  149OSM   H18U16531   3.935   4.408   4.436  1.3868 -2.7680 -0.9289
  149OSM    C1F16532   4.073   3.700   2.985  0.1374  0.1778  0.0400
  149OSM     OF16533   4.067   3.792   2.903 -0.3584  0.0835 -0.7591
  149OSM    C2F16534   4.208   3.659   3.044  0.0871  0.3126 -0.3458
  149OSM    H2F16535   4.251   3.579   2.981 -1.1589  0.6847 -1.7046
  149OSM    H2G16536   4.189   3.621   3.147  0.9454  0.8883  0.0404
  149OSM    C3F16537   4.306   3.775   3.063  0.5346 -0.2687  0.0070
  149OSM    H3F16538   4.287   3.849   2.983  1.9580 -0.0303 -0.1261
  149OSM    H3G16539   4.407   3.736   3.039  1.5550  1.3992  1.3983
  149OSM    C4F16540   4.301   3.843   3.200  0.0248  0.5101 -0.9757
  149OSM    H4F16541   4.194   3.870   3.216 -0.3878 -2.0121  1.3019
  149OSM    H4G16542   4.357   3.938   3.191 -0.6883  0.8781 -1.6352
  149OSM    C5F16543   4.368   3.757   3.306  0.2298 -0.6376  0.1838
  149OSM    H5F16544   4.471   3.721   3.288  0.4522 -0.6334  1.3458
  149OSM    H5G16545   4.312   3.663   3.325  0.8826 -0.9139  0.7923
  149OSM    C6F16546   4.362   3.835   3.443  0.4716  0.5381 -0.2909
  149OSM    H6F16547   4.375   3.779   3.538 -0.9325 -0.4517 -0.6498
  149OSM    H6G16548   4.273   3.900   3.463 -0.2801 -0.5767  0.1196
  149OSM    C7F16549   4.486   3.933   3.452  0.1071  0.0213 -0.6498
  149OSM    H7F16550   4.477   4.009   3.372  0.3372  1.1749  0.3886
  149OSM    H7G16551   4.583   3.882   3.434  0.7619  0.2584  1.7508
  149OSM    C8F16552   4.483   4.000   3.588 -0.7755  0.6296 -0.2242
  149OSM    H8F16553   4.505   3.924   3.666 -2.2130  0.1473 -0.2562
  149OSM    H8G16554   4.384   4.040   3.615  0.7792  3.9872  1.0392
  149OSM    C9F16555   4.586   4.110   3.604 -0.5444  0.3093 -0.2062
  149OSM    H9F16556   4.682   4.068   3.636  0.0944  1.6032 -0.3613
  149OSM   C10F16557   4.565   4.244   3.600 -0.1427  0.3191 -0.4289
  149OSM   H10F16558   4.650   4.312   3.615 -0.1536 -0.1261  2.2037
  149OSM   C11F16559   4.430   4.308   3.580 -0.0695 -0.2495  0.0199
  149OSM   H11F16560   4.363   4.230   3.536 -0.5937 -1.2517  2.3857
  149OSM   H11G16561   4.436   4.391   3.508  0.8229 -0.2898  0.0422
  149OSM   C12F16562   4.368   4.370   3.702  0.6798  0.1014 -0.0021
  149OSM   H12F16563   4.420   4.452   3.756  0.0716  0.1590  0.5097
  149OSM   H12G16564   4.326   4.291   3.769 -2.3311  1.3701 -0.2303
  149OSM   C13F16565   4.240   4.457   3.667 -0.3834  0.4677 -0.2886
  149OSM   H13F16566   4.163   4.383   3.636  1.7904 -1.2802 -1.7967
  149OSM   H13G16567   4.257   4.529   3.584 -0.7311  1.7707  0.7323
  149OSM   C14F16568   4.194   4.530   3.794 -0.6559  0.1429  0.2356
  149OSM   H14F16569   4.267   4.610   3.816 -0.9839  0.5539 -0.1397
  149OSM   H14G16570   4.201   4.452   3.873 -1.2259  0.6201  0.7603
  149OSM   C15F16571   4.059   4.579   3.763  0.8913 -0.2354  0.0128
  149OSM   H15F16572   4.007   4.492   3.717  1.9664  0.0957 -1.9464
  149OSM   H15G16573   4.061   4.675   3.708  2.8266  1.3471  2.6106
  149OSM   C16F16574   3.994   4.618   3.899 -0.5870  0.1179  0.2825
  149OSM   H16F16575   4.011   4.532   3.967 -2.3722  0.2435  0.9444
  149OSM   H16G16576   3.887   4.647   3.887 -0.2404  0.2350 -3.5525
  149OSM   C17F16577   4.075   4.728   3.979 -0.8898  0.5554 -0.2985
  149OSM   H17F16578   4.057   4.820   3.919  2.0630 -0.4595 -3.0319
  149OSM   H17G16579   4.185   4.718   3.980 -0.7897  0.5220 -2.8719
  149OSM   C18F16580   4.020   4.743   4.123 -0.1931  0.3607 -0.0066
  149OSM   H18F16581   4.056   4.649   4.169  0.1933 -0.3692 -1.7246
  149OSM   H18G16582   3.909   4.738   4.126 -0.2469  1.6295  0.8097
  149OSM   H18H16583   4.064   4.827   4.181  0.6091  0.3224 -0.5378
  150OSM      N16584   6.158   6.044   2.418  0.3672  0.3374  0.5556
  150OSM    C1516585   6.227   5.917   2.401  0.0051 -0.1890  0.1427
  150OSM   H15A16586   6.179   5.823   2.426 -0.4215  0.1036  0.4277
  150OSM   H15B16587   6.320   5.915   2.457 -0.9949  2.1574  2.0458
  150OSM   H15C16588   6.256   5.914   2.297 -1.3494  2.4657 -0.4019
  150OSM    C1416589   6.032   6.027   2.327 -0.2272 -0.1888 -0.8112
  150OSM   H14A16590   5.996   5.928   2.346  0.2015 -0.4928 -1.5343
  150OSM   H14B16591   6.049   6.054   2.224 -0.8171  1.2641 -0.5497
  150OSM   H14C16592   5.961   6.101   2.361  1.2930  0.8079  0.3629
  150OSM    C1316593   6.112   6.048   2.559 -0.2719 -0.8965  0.0953
  150OSM   H13A16594   6.198   6.068   2.621 -1.3989  0.4852  1.2790
  150OSM   H13B16595   6.066   5.964   2.608 -0.1794  0.1577  2.0931
  150OSM   H13C16596   6.041   6.128   2.569  0.6715 -0.0083 -0.0656
  150OSM    C1216597   6.236   6.166   2.378 -0.1592 -0.6102  0.3038
  150OSM   H12A16598   6.172   6.253   2.383  2.2366  1.1706  2.4756
  150OSM   H12B16599   6.263   6.154   2.274  0.4141  0.2634  0.3499
  150OSM    C1116600   6.357   6.206   2.459  0.4003  0.2667 -0.0614
  150OSM   H11A16601   6.381   6.310   2.426  4.5211 -0.1065  1.2015
  150OSM   H11B16602   6.449   6.145   2.447 -1.6923 -2.6082 -2.6661
  150OSM      P16603   6.434   6.291   2.700  0.0965 -0.5050 -0.0028
  150OSM    O1316604   6.552   6.201   2.709  0.2591  0.6224 -0.0654
  150OSM    O1416605   6.449   6.430   2.649 -0.4284 -0.0519 -1.0964
  150OSM    O1116606   6.354   6.295   2.836 -0.1575  0.0399  0.4071
  150OSM    O1216607   6.326   6.225   2.605 -0.4249 -0.3007  0.7799
  150OSM    C1S16608   6.318   6.162   2.893  0.0616 -0.5566  0.8904
  150OSM    H1S16609   6.398   6.137   2.965  3.1143  3.5630 -0.6033
  150OSM    H1T16610   6.285   6.085   2.820  0.5073 -1.1543  1.3136
  150OSM     NF16611   6.161   6.056   3.064 -0.5623 -0.0224 -0.1473
  150OSM    HNF16612   6.101   5.989   3.020 -1.7901  0.4004  0.8325
  150OSM    C2S16613   6.183   6.174   2.978 -0.1769  0.1101  0.0225
  150OSM    H2S16614   6.192   6.264   3.042  1.4982  0.0885 -0.1292
  150OSM    C3S16615   6.056   6.217   2.889  0.5404  0.6256 -0.3889
  150OSM    H3S16616   6.030   6.125   2.834 -0.1162  0.5633  0.0108
  150OSM     O316617   6.092   6.321   2.797 -0.1978 -0.0433 -0.1823
  150OSM    HO316618   6.188   6.327   2.807 -0.1877  3.8100 -0.9093
  150OSM    C4S16619   5.946   6.255   2.979 -0.3746 -0.2456  0.0496
  150OSM    H4S16620   5.889   6.171   3.020 -0.6540 -0.9786 -1.7875
  150OSM    C5S16621   5.898   6.374   3.013  0.0852  0.1138  0.9766
  150OSM    H5S16622   5.955   6.466   2.994 -0.6424  0.6634  1.3885
  150OSM    C6S16623   5.766   6.380   3.098 -0.3390 -0.1403  0.0546
  150OSM    H6S16624   5.703   6.288   3.095  0.0049 -0.3507 -1.2228
  150OSM    H6T16625   5.705   6.466   3.064 -1.2269 -0.7102  0.1510
  150OSM    C7S16626   5.806   6.409   3.244  0.3290  0.6158 -1.1669
  150OSM    H7S16627   5.893   6.477   3.239  3.2536 -2.7661 -0.7782
  150OSM    H7T16628   5.841   6.311   3.284  0.5745  1.8810  1.9381
  150OSM    C8S16629   5.688   6.438   3.341  0.2097 -0.2460 -0.6690
  150OSM    H8S16630   5.600   6.376   3.316 -1.0482  0.8670  0.8533
  150OSM    H8T16631   5.663   6.545   3.324  1.1676 -0.2994 -2.7248
  150OSM    C9S16632   5.736   6.425   3.492  0.1696  0.2786  0.1277
  150OSM    H9S16633   5.838   6.466   3.506  0.8389 -1.3853  0.3449
  150OSM    H9T16634   5.743   6.315   3.509  0.5345  0.0682 -1.2441
  150OSM   C10S16635   5.645   6.492   3.602 -0.5627 -0.3495  0.0266
  150OSM   H10S16636   5.548   6.445   3.576 -0.0519 -0.7262 -1.3044
  150OSM   H10T16637   5.649   6.601   3.580  0.5827 -0.2296  0.7575
  150OSM   C11S16638   5.676   6.449   3.743  0.6163  0.2219 -0.2332
  150OSM   H11S16639   5.785   6.467   3.755  0.4005 -0.1017  2.8719
  150OSM   H11T16640   5.658   6.342   3.765  1.3687  0.2242  0.4380
  150OSM   C12S16641   5.604   6.540   3.846  0.4236 -0.1158  0.4277
  150OSM   H12S16642   5.504   6.560   3.801  0.3666  1.6894  1.3022
  150OSM   H12T16643   5.641   6.643   3.864  1.9049 -0.5502  0.0280
  150OSM   C13S16644   5.599   6.482   3.987 -0.3024  0.8123 -0.2722
  150OSM   H13S16645   5.586   6.372   3.979 -0.5249  0.6692  1.6955
  150OSM   H13T16646   5.510   6.511   4.046 -0.8272 -1.8981  0.3913
  150OSM   C14S16647   5.737   6.500   4.058  0.7081  0.0041 -0.4578
  150OSM   H14S16648   5.817   6.471   3.987 -2.1270 -2.0635 -3.0863
  150OSM   H14T16649   5.746   6.426   4.141  1.3245  1.1859  0.5572
  150OSM   C15S16650   5.741   6.635   4.133  0.6426  0.1608  0.4377
  150OSM   H15S16651   5.648   6.647   4.193  0.5803 -0.2668  0.4270
  150OSM   H15T16652   5.743   6.706   4.048  0.1236 -1.0025 -0.5606
  150OSM   C16S16653   5.876   6.649   4.214 -0.2235  0.0685  0.4485
  150OSM   H16S16654   5.955   6.672   4.139 -1.3133  1.1460 -0.4141
  150OSM   H16T16655   5.908   6.552   4.258 -0.1753  0.3742  1.1011
  150OSM   C17S16656   5.869   6.753   4.319  0.4238  0.1631  0.1109
  150OSM   H17S16657   5.786   6.736   4.390  0.8858  2.9085  1.4599
  150OSM   H17T16658   5.824   6.836   4.261 -1.9156  1.7656  3.8755
  150OSM   C18S16659   5.994   6.806   4.399 -0.3712  0.3606  0.3640
  150OSM   H18S16660   5.959   6.881   4.474  0.2466  0.7936  0.2267
  150OSM   H18T16661   6.064   6.848   4.324 -1.3555  0.4595 -0.5394
  150OSM   H18U16662   6.038   6.722   4.457 -0.3081  0.8275  0.9998
  150OSM    C1F16663   6.233   6.025   3.173  0.7254  0.2943 -0.0601
  150OSM     OF16664   6.315   6.094   3.224  0.7427  0.3429 -0.0194
  150OSM    C2F16665   6.210   5.886   3.225 -0.3824 -0.1159 -0.2137
  150OSM    H2F16666   6.201   5.808   3.146  2.5177 -0.6845 -0.0933
  150OSM    H2G16667   6.111   5.890   3.276 -0.7404 -0.3537 -0.8727
  150OSM    C3F16668   6.323   5.840   3.320 -0.4496  0.9356  0.1132
  150OSM    H3F16669   6.329   5.895   3.416 -0.3216  0.3740  0.4321
  150OSM    H3G16670   6.418   5.841   3.262  0.8055  3.2978  2.0124
  150OSM    C4F16671   6.309   5.694   3.369  0.0358 -0.6256  0.2732
  150OSM    H4F16672   6.405   5.684   3.425 -0.1111  2.5893  1.2724
  150OSM    H4G16673   6.310   5.629   3.279 -0.2765  3.0250 -2.6019
  150OSM    C5F16674   6.189   5.674   3.466  0.3410  0.0934 -0.2262
  150OSM    H5F16675   6.197   5.577   3.519  2.8514  0.5168  0.2745
  150OSM    H5G16676   6.095   5.675   3.406  0.1456  2.1262  0.0299
  150OSM    C6F16677   6.178   5.781   3.580 -0.7478  0.2281  0.1629
  150OSM    H6F16678   6.159   5.877   3.528 -0.1707  0.0949 -0.3157
  150OSM    H6G16679   6.282   5.796   3.618 -0.2539  1.8159 -1.6480
  150OSM    C7F16680   6.070   5.744   3.682 -0.1393 -0.3919  0.3427
  150OSM    H7F16681   6.071   5.646   3.735  0.1351 -1.0697 -0.8742
  150OSM    H7G16682   5.981   5.740   3.615 -0.1631 -2.3758  0.4384
  150OSM    C8F16683   6.047   5.868   3.773  0.4583 -0.4249  0.0161
  150OSM    H8F16684   5.988   5.833   3.860  0.9664 -0.9801  0.1426
  150OSM    H8G16685   5.974   5.936   3.724 -0.3089 -0.7052  0.7492
  150OSM    C9F16686   6.170   5.927   3.828 -0.1642 -0.4183  0.1655
  150OSM    H9F16687   6.245   5.954   3.753 -0.0468  0.3008  0.5268
  150OSM   C10F16688   6.201   5.952   3.963 -0.5137  0.0192  0.3894
  150OSM   H10F16689   6.288   6.018   3.978  2.3007 -2.1296 -4.2206
  150OSM   C11F16690   6.119   5.932   4.085 -0.2138  0.3292 -0.1482
  150OSM   H11F16691   6.182   5.877   4.158  2.3840  1.9312 -1.0501
  150OSM   H11G16692   6.022   5.881   4.070  0.0549 -0.1321 -0.3404
  150OSM   C12F16693   6.092   6.069   4.150 -0.2338  0.2366 -0.1606
  150OSM   H12F16694   6.022   6.133   4.093  0.1151 -0.5017 -1.4487
  150OSM   H12G16695   6.185   6.129   4.144 -0.8143  1.2977  0.9915
  150OSM   C13F16696   6.033   6.064   4.288 -0.0927  0.6322 -0.8777
  150OSM   H13F16697   5.997   6.167   4.311 -0.7543  0.0424  0.8492
  150OSM   H13G16698   6.108   6.055   4.369 -0.6819  0.2521 -0.3625
  150OSM   C14F16699   5.920   5.965   4.304 -0.4810  0.6724  0.9125
  150OSM   H14F16700   5.962   5.863   4.316  0.4045  0.6667 -1.6500
  150OSM   H14G16701   5.863   5.976   4.209 -0.2472 -2.4733  0.3070
  150OSM   C15F16702   5.834   5.992   4.428  0.2536 -0.2924 -0.3713
  150OSM   H15F16703   5.730   5.954   4.413 -0.6807  2.0755 -0.2512
  150OSM   H15G16704   5.818   6.102   4.427  1.7978 -0.0357  0.5082
  150OSM   C16F16705   5.895   5.943   4.564  0.3350 -0.0177 -0.1463
  150OSM   H16F16706   6.004   5.938   4.543  0.2896  0.4086 -0.4816
  150OSM   H16G16707   5.853   5.842   4.586 -0.4613  0.5185  0.8680
  150OSM   C17F16708   5.841   6.029   4.683 -0.0778 -0.4442 -0.5801
  150OSM   H17F16709   5.735   6.001   4.701  0.1277 -1.0964 -0.3641
  150OSM   H17G16710   5.855   6.130   4.639  0.2633 -0.8615 -1.4535
  150OSM   C18F16711   5.921   6.016   4.814 -0.1587  0.3634  0.8076
  150OSM   H18F16712   5.896   6.101   4.880  0.9537  1.1961  0.1912
  150OSM   H18G16713   6.028   6.001   4.789 -0.6817 -2.2302 -0.2451
  150OSM   H18H16714   5.900   5.923   4.871  3.2735  0.5885  2.7465
  151OSM      N16715   4.300   5.919   2.371 -0.4044  0.2253 -0.4855
  151OSM    C1516716   4.219   5.903   2.250 -0.4449  0.0346 -0.4964
  151OSM   H15A16717   4.282   5.890   2.164 -0.1832 -0.7093 -0.2029
  151OSM   H15B16718   4.153   5.988   2.240 -0.4512  0.3018  1.4381
  151OSM   H15C16719   4.144   5.826   2.241 -0.8201  0.1777  1.1045
  151OSM    C1416720   4.201   5.943   2.491 -0.0808  0.0915 -0.2802
  151OSM   H14A16721   4.258   5.941   2.583 -0.1234 -1.7464 -0.2433
  151OSM   H14B16722   4.128   5.863   2.496  1.3417 -1.3209 -0.9969
  151OSM   H14C16723   4.155   6.039   2.480 -1.4792 -0.4907  0.2862
  151OSM    C1316724   4.374   5.792   2.394 -0.5784 -0.0668 -0.0791
  151OSM   H13A16725   4.435   5.776   2.306 -1.5556  3.3570 -1.5365
  151OSM   H13B16726   4.305   5.710   2.409  1.5980 -1.9312  0.3040
  151OSM   H13C16727   4.427   5.793   2.487 -1.2859  0.8280  0.3304
  151OSM    C1216728   4.396   6.040   2.365  0.0530 -0.4366 -0.8311
  151OSM   H12A16729   4.332   6.125   2.351  1.6711  1.3851  1.9055
  151OSM   H12B16730   4.432   6.042   2.263 -1.1643 -0.8556 -1.2880
  151OSM    C1116731   4.499   6.072   2.476  0.0614  0.0597  0.7083
  151OSM   H11A16732   4.437   6.078   2.567 -3.9321 -2.4923 -1.5395
  151OSM   H11B16733   4.548   6.167   2.444 -1.3763  0.2398 -1.1513
  151OSM      P16734   4.714   5.950   2.399 -0.1770  0.3898 -0.2569
  151OSM    O1316735   4.788   5.826   2.436  0.8526 -0.0889 -0.1689
  151OSM    O1416736   4.669   5.963   2.259  0.0490 -0.0118  0.5716
  151OSM    O1116737   4.794   6.078   2.432  0.1150 -0.2131 -0.3803
  151OSM    O1216738   4.588   5.970   2.495  0.0211 -0.3052 -1.0640
  151OSM    C1S16739   4.810   6.135   2.566 -0.0864 -0.2934  0.5358
  151OSM    H1S16740   4.724   6.108   2.631 -0.1962  1.8607  1.3538
  151OSM    H1T16741   4.806   6.246   2.564 -1.4164 -0.2071  3.1725
  151OSM     NF16742   4.933   6.132   2.772 -0.2057 -0.9638  0.6785
  151OSM    HNF16743   4.944   6.228   2.796 -2.2237 -1.0416  2.2211
  151OSM    C2S16744   4.941   6.089   2.632 -0.1251  0.4830  0.1444
  151OSM    H2S16745   4.941   5.978   2.636  1.1190  0.5050  1.7969
  151OSM    C3S16746   5.063   6.140   2.561  0.0012 -0.5256 -0.0816
  151OSM    H3S16747   5.051   6.249   2.544 -1.3492 -0.1297  2.7500
  151OSM     O316748   5.079   6.070   2.433 -0.4420 -0.0129  0.2854
  151OSM    HO316749   4.992   6.030   2.425 -1.0679  1.0337  1.4554
  151OSM    C4S16750   5.193   6.115   2.632  0.2317 -0.0707 -0.6653
  151OSM    H4S16751   5.207   6.006   2.639 -2.0374 -0.5086 -2.0406
  151OSM    C5S16752   5.260   6.201   2.712 -0.0036 -0.4569 -0.2011
  151OSM    H5S16753   5.226   6.305   2.723 -0.0923 -0.4890 -0.1711
  151OSM    C6S16754   5.377   6.164   2.804 -0.5134 -0.1069  0.5274
  151OSM    H6S16755   5.405   6.264   2.845 -0.1948  0.0774 -0.1323
  151OSM    H6T16756   5.461   6.115   2.751 -1.3908 -0.4222 -0.6010
  151OSM    C7S16757   5.325   6.076   2.917 -0.1613  0.0793 -0.2458
  151OSM    H7S16758   5.412   6.029   2.968 -1.4084  1.8337  3.9117
  151OSM    H7T16759   5.264   5.989   2.886 -0.5705  0.9314 -2.0000
  151OSM    C8S16760   5.254   6.157   3.024  0.1430  0.2113 -0.0654
  151OSM    H8S16761   5.163   6.202   2.980  1.3469  1.8296 -1.0291
  151OSM    H8T16762   5.313   6.246   3.055  0.5253  0.2466 -0.8597
  151OSM    C9S16763   5.203   6.067   3.146 -0.1193 -0.2189  0.4381
  151OSM    H9S16764   5.287   6.009   3.188  1.5215  2.6645  1.3961
  151OSM    H9T16765   5.126   5.998   3.104 -1.1877  0.4263  1.3017
  151OSM   C10S16766   5.140   6.157   3.254  0.3835 -0.1872  0.3641
  151OSM   H10S16767   5.066   6.229   3.214  2.1463 -0.6820 -4.4231
  151OSM   H10T16768   5.220   6.203   3.317 -0.4333 -2.2432  3.1328
  151OSM   C11S16769   5.065   6.066   3.359 -0.0033 -0.4008  0.6632
  151OSM   H11S16770   5.126   5.976   3.382 -0.1935 -0.8590 -0.5487
  151OSM   H11T16771   4.968   6.031   3.318 -0.4884 -0.1237  1.5598
  151OSM   C12S16772   5.035   6.141   3.488 -0.2680  0.4930 -0.2260
  151OSM   H12S16773   4.963   6.220   3.460 -2.5252 -1.0842  0.7923
  151OSM   H12T16774   5.134   6.178   3.523 -0.2825 -0.9717  1.5487
  151OSM   C13S16775   4.982   6.051   3.600  0.1523 -0.2938 -0.0544
  151OSM   H13S16776   5.040   5.957   3.587 -0.1985 -0.4337 -0.6330
  151OSM   H13T16777   4.876   6.028   3.575  0.7363 -1.6098 -1.5212
  151OSM   C14S16778   5.010   6.110   3.740  0.1695 -0.3568 -0.3087
  151OSM   H14S16779   4.964   6.211   3.753 -1.1236 -1.2847  4.1147
  151OSM   H14T16780   5.120   6.117   3.750  0.3192  1.2990 -2.3898
  151OSM   C15S16781   4.947   6.026   3.852 -0.8251 -0.5520 -0.0961
  151OSM   H15S16782   5.019   5.945   3.874  0.4397  0.1305 -1.4993
  151OSM   H15T16783   4.856   5.982   3.806 -1.7948  0.0195  1.2241
  151OSM   C16S16784   4.936   6.110   3.974 -0.2158 -0.9456 -0.5997
  151OSM   H16S16785   4.873   6.199   3.956  0.6230 -0.2708 -0.2832
  151OSM   H16T16786   5.036   6.150   4.001 -1.4532  1.6359  0.4550
  151OSM   C17S16787   4.898   6.039   4.109 -0.4717 -0.0813  0.3550
  151OSM   H17S16788   4.798   5.991   4.103 -0.2423 -0.4923 -0.2353
  151OSM   H17T16789   4.904   6.126   4.178  0.5137 -1.1653  1.7113
  151OSM   C18S16790   4.996   5.936   4.161  0.1905 -0.4421 -0.0425
  151OSM   H18S16791   5.006   5.837   4.112 -0.0746 -0.4638 -0.0565
  151OSM   H18T16792   4.974   5.919   4.269 -0.8947 -0.8906 -0.3176
  151OSM   H18U16793   5.098   5.977   4.145  0.1199 -0.4706 -0.5793
  151OSM    C1F16794   4.865   6.073   2.870  0.2243 -0.0238  0.5129
  151OSM     OF16795   4.832   5.956   2.849  0.2434  0.4796  0.0368
  151OSM    C2F16796   4.828   6.147   2.994 -0.2825 -0.3310  0.4973
  151OSM    H2F16797   4.862   6.252   2.983 -2.4012  0.1750 -2.4015
  151OSM    H2G16798   4.863   6.095   3.086 -0.2020  1.0294  1.2498
  151OSM    C3F16799   4.675   6.151   3.008  0.0475  0.5275  0.7197
  151OSM    H3F16800   4.639   6.050   3.036  0.1365 -0.2762 -1.8311
  151OSM    H3G16801   4.623   6.179   2.914  0.9584  0.5596  0.2191
  151OSM    C4F16802   4.625   6.257   3.110 -0.2134  0.2693  0.3111
  151OSM    H4F16803   4.514   6.258   3.115 -0.2420  2.0551 -0.1080
  151OSM    H4G16804   4.656   6.363   3.095  1.2916 -0.2963 -0.7981
  151OSM    C5F16805   4.679   6.218   3.248 -0.4358 -0.4617  0.3838
  151OSM    H5F16806   4.786   6.246   3.258  0.1952 -2.3600 -0.5961
  151OSM    H5G16807   4.679   6.109   3.270 -0.0478 -0.4365  0.5150
  151OSM    C6F16808   4.593   6.291   3.353 -0.2290  0.2158  0.1128
  151OSM    H6F16809   4.489   6.251   3.354 -0.5423  0.8363  3.1846
  151OSM    H6G16810   4.590   6.397   3.322  0.6664  0.2782  0.2170
  151OSM    C7F16811   4.648   6.294   3.493 -0.2190 -0.9048  1.1187
  151OSM    H7F16812   4.600   6.375   3.553  2.3586  2.0485 -0.5222
  151OSM    H7G16813   4.759   6.306   3.490 -0.0125 -2.3412  1.9191
  151OSM    C8F16814   4.625   6.165   3.575 -0.0876 -0.7484 -0.1878
  151OSM    H8F16815   4.706   6.146   3.649  0.6797 -1.3347 -1.1593
  151OSM    H8G16816   4.642   6.090   3.495 -0.7521  0.0920 -1.1444
  151OSM    C9F16817   4.493   6.153   3.641  0.4143 -0.0114  0.0214
  151OSM    H9F16818   4.405   6.146   3.575 -0.1256 -1.4463  0.8273
  151OSM   C10F16819   4.471   6.169   3.772  0.5330  0.7694  0.5081
  151OSM   H10F16820   4.370   6.156   3.814  0.8829 -0.1416  1.1090
  151OSM   C11F16821   4.575   6.189   3.883 -0.1197  0.3911 -0.0637
  151OSM   H11F16822   4.605   6.296   3.877  0.6028  0.1634 -0.7125
  151OSM   H11G16823   4.665   6.125   3.878  0.7155  1.4844  0.5293
  151OSM   C12F16824   4.503   6.160   4.014  0.5018  0.4761  0.7079
  151OSM   H12F16825   4.420   6.225   4.049  0.1215 -1.1838  3.1466
  151OSM   H12G16826   4.579   6.181   4.092  1.0307  2.7039 -0.3290
  151OSM   C13F16827   4.465   6.013   4.029  0.3050 -0.8540 -0.6579
  151OSM   H13F16828   4.557   5.951   4.018 -0.7442 -2.5246 -0.3506
  151OSM   H13G16829   4.392   5.984   3.950 -2.2143  0.0852  1.1779
  151OSM   C14F16830   4.401   5.992   4.164  0.1979 -0.0918  0.4645
  151OSM   H14F16831   4.290   5.987   4.154  0.3252 -0.4055 -1.0310
  151OSM   H14G16832   4.430   6.072   4.234  1.1872  2.1468 -2.3077
  151OSM   C15F16833   4.465   5.859   4.215 -0.1987 -0.5237  0.4651
  151OSM   H15F16834   4.576   5.857   4.210 -0.1966 -0.2987  0.4005
  151OSM   H15G16835   4.434   5.775   4.148 -0.5955 -1.4198  1.7384
  151OSM   C16F16836   4.409   5.833   4.354  0.2838 -0.3094 -0.1759
  151OSM   H16F16837   4.305   5.796   4.341  0.6217 -1.5783  0.5022
  151OSM   H16G16838   4.409   5.928   4.412 -0.3908 -0.4144 -0.0003
  151OSM   C17F16839   4.478   5.721   4.433 -0.5289  0.0176 -0.8336
  151OSM   H17F16840   4.586   5.747   4.440 -0.1877 -1.1196 -1.5319
  151OSM   H17G16841   4.471   5.621   4.384 -0.2860 -0.5089  0.1760
  151OSM   C18F16842   4.430   5.705   4.581  0.1814  0.2142 -0.4636
  151OSM   H18F16843   4.319   5.695   4.579  0.3516 -1.9648 -1.8649
  151OSM   H18G16844   4.477   5.778   4.650 -0.4479 -0.3859  0.6281
  151OSM   H18H16845   4.455   5.611   4.635 -2.0006 -0.3434 -0.3058
  152OSM      N16846   0.028   0.816   2.629  0.4209  0.0478  0.0459
  152OSM    C1516847  -0.080   0.746   2.703 -0.0715 -0.2878  0.4737
  152OSM   H15A16848  -0.061   0.731   2.808 -0.1001 -0.9051  0.3977
  152OSM   H15B16849  -0.093   0.648   2.658  1.0324 -0.0027 -0.5328
  152OSM   H15C16850  -0.172   0.803   2.694 -0.8543 -1.8050 -3.6195
  152OSM    C1416851  -0.016   0.823   2.487 -0.5256  0.2925 -0.3240
  152OSM   H14A16852  -0.040   0.725   2.449 -1.3939  0.5501 -0.4589
  152OSM   H14B16853   0.068   0.861   2.430 -0.2461  2.8498  1.6029
  152OSM   H14C16854  -0.100   0.889   2.473 -0.5711  0.5779  1.1636
  152OSM    C1316855   0.042   0.951   2.692  0.0639 -0.2633 -0.5369
  152OSM   H13A16856   0.068   0.940   2.796 -3.4101  1.7089  0.6932
  152OSM   H13B16857  -0.053   1.000   2.677 -1.4351 -2.4919  1.1365
  152OSM   H13C16858   0.124   1.005   2.646  0.9266  1.2357  2.5259
  152OSM    C1216859   0.167   0.747   2.646  0.5756  0.5808  0.0830
  152OSM   H12A16860   0.250   0.787   2.590  0.4943 -0.9439 -1.2247
  152OSM   H12B16861   0.150   0.649   2.603 -0.7163  0.7583  0.1628
  152OSM    C1116862   0.220   0.740   2.788  0.3463 -0.3495 -0.3400
  152OSM   H11A16863   0.286   0.652   2.803 -0.2029 -0.5258  1.2760
  152OSM   H11B16864   0.136   0.714   2.857 -0.6860  0.2051 -1.3590
  152OSM      P16865   0.413   0.908   2.777  0.6726 -0.1523 -0.1052
  152OSM    O1316866   0.427   0.852   2.642  0.2156  0.0265  1.2418
  152OSM    O1416867   0.428   1.057   2.783 -0.3428  0.2818 -0.3974
  152OSM    O1116868   0.512   0.844   2.880 -0.5829 -0.1722 -0.5876
  152OSM    O1216869   0.274   0.868   2.831 -0.8453  0.0357  0.0014
  152OSM    C1S16870   0.506   0.855   3.022  0.0758  0.4235  0.4730
  152OSM    H1S16871   0.422   0.921   3.053 -0.3101  1.0290 -1.6896
  152OSM    H1T16872   0.599   0.899   3.064  0.6732  1.0380 -1.3781
  152OSM     NF16873   0.478   0.743   3.232  0.2820 -0.2823  0.0239
  152OSM    HNF16874   0.568   0.748   3.274  0.9484 -2.7782 -0.9145
  152OSM    C2S16875   0.487   0.723   3.098  0.1077  0.0990  0.2889
  152OSM    H2S16876   0.399   0.671   3.055  0.4462 -0.3847  0.1729
  152OSM    C3S16877   0.620   0.630   3.066  0.1707  0.0016  0.5530
  152OSM    H3S16878   0.702   0.694   3.104 -1.0375  0.6506  2.2143
  152OSM     O316879   0.655   0.606   2.930  0.6445 -0.0578  0.3665
  152OSM    HO316880   0.604   0.671   2.881  0.4537 -1.0536 -0.7965
  152OSM    C4S16881   0.618   0.499   3.147  0.6065 -0.3512  0.8293
  152OSM    H4S16882   0.518   0.454   3.141  0.4182  0.2297 -3.2152
  152OSM    C5S16883   0.714   0.455   3.224  0.0584 -0.1012  0.2182
  152OSM    H5S16884   0.807   0.514   3.234  0.2452 -0.3642  0.0377
  152OSM    C6S16885   0.706   0.326   3.305 -0.3446  0.3295 -0.0186
  152OSM    H6S16886   0.803   0.277   3.326  0.2904  0.7995 -1.7028
  152OSM    H6T16887   0.647   0.241   3.264  0.8699 -1.5526  1.9508
  152OSM    C7S16888   0.634   0.352   3.446 -0.8359 -0.0650  0.4694
  152OSM    H7S16889   0.629   0.260   3.507  2.9541  0.1536  1.3324
  152OSM    H7T16890   0.530   0.382   3.419 -0.0710 -0.5781 -3.6156
  152OSM    C8S16891   0.705   0.464   3.537 -0.7907  0.4715 -0.7339
  152OSM    H8S16892   0.727   0.556   3.478 -1.8688  0.8566 -0.5690
  152OSM    H8T16893   0.793   0.417   3.586 -1.8515 -1.1345 -0.3047
  152OSM    C9S16894   0.602   0.513   3.638 -0.5134 -0.6698 -0.5353
  152OSM    H9S16895   0.505   0.536   3.591 -1.3966  0.4688  1.7249
  152OSM    H9T16896   0.623   0.610   3.688 -2.0792 -0.6680  0.1445
  152OSM   C10S16897   0.572   0.414   3.750  0.5170  0.2771 -0.1256
  152OSM   H10S16898   0.670   0.379   3.790  0.3514 -1.8765 -1.4628
  152OSM   H10T16899   0.527   0.323   3.706 -1.4519  1.3760 -0.5082
  152OSM   C11S16900   0.472   0.465   3.857  0.3299  0.2206  0.1298
  152OSM   H11S16901   0.448   0.379   3.922 -0.4119 -0.1681 -0.6243
  152OSM   H11T16902   0.377   0.494   3.806  0.9468 -0.7693 -1.7021
  152OSM   C12S16903   0.524   0.576   3.936  0.6181  0.1664 -0.1468
  152OSM   H12S16904   0.524   0.670   3.878  2.9513  0.4199  0.1392
  152OSM   H12T16905   0.625   0.548   3.974  0.4146  0.7147  0.8340
  152OSM   C13S16906   0.440   0.596   4.067 -0.0029 -0.2189  0.6790
  152OSM   H13S16907   0.442   0.516   4.144  0.9052 -0.0237  0.8700
  152OSM   H13T16908   0.336   0.600   4.028  0.7894  1.1250 -1.5097
  152OSM   C14S16909   0.476   0.729   4.141  0.0428  0.1435  0.3543
  152OSM   H14S16910   0.490   0.816   4.073  2.9580  1.5987  2.5779
  152OSM   H14T16911   0.571   0.721   4.198  1.1021  2.4706 -0.9324
  152OSM   C15S16912   0.351   0.766   4.218 -0.2579  0.3168 -0.2594
  152OSM   H15S16913   0.314   0.672   4.265  0.9722 -0.3835 -0.6628
  152OSM   H15T16914   0.273   0.798   4.146  1.7291  2.5706 -1.5562
  152OSM   C16S16915   0.369   0.872   4.329 -0.7115  0.6700  0.7292
  152OSM   H16S16916   0.386   0.969   4.277 -0.5159  1.6196  2.4949
  152OSM   H16T16917   0.462   0.846   4.385 -1.1582 -0.8293  0.8098
  152OSM   C17S16918   0.248   0.870   4.421 -0.1009  0.0796  1.0719
  152OSM   H17S16919   0.248   0.771   4.472  2.6386 -0.3949  0.3475
  152OSM   H17T16920   0.160   0.872   4.353 -1.3297 -1.6942  2.5297
  152OSM   C18S16921   0.246   0.996   4.501  0.2810  0.4531  0.4121
  152OSM   H18S16922   0.219   1.082   4.436 -1.8619 -0.1003  0.5093
  152OSM   H18T16923   0.348   1.009   4.544  0.5622  0.0076 -0.1025
  152OSM   H18U16924   0.171   0.980   4.581  3.4234 -0.0284  3.4979
  152OSM    C1F16925   0.363   0.775   3.297 -0.7455  0.5190 -0.0090
  152OSM     OF16926   0.263   0.767   3.231  0.9728  0.2120 -0.1947
  152OSM    C2F16927   0.368   0.797   3.449  0.2137  0.4890  0.6838
  152OSM    H2F16928   0.456   0.862   3.469  0.3213  0.4823  0.2567
  152OSM    H2G16929   0.380   0.697   3.494 -1.3309 -1.1374 -2.2411
  152OSM    C3F16930   0.244   0.860   3.518  0.0137 -0.3129 -0.2792
  152OSM    H3F16931   0.155   0.799   3.493 -0.8688  0.2660  1.2968
  152OSM    H3G16932   0.223   0.965   3.489 -0.6241 -0.5845 -0.8172
  152OSM    C4F16933   0.261   0.870   3.676  0.0886 -0.0504  0.5315
  152OSM    H4F16934   0.330   0.955   3.693  1.1039 -0.6118 -0.5961
  152OSM    H4G16935   0.302   0.772   3.709 -0.9846 -0.3108  1.1438
  152OSM    C5F16936   0.134   0.915   3.743 -0.4314 -0.4970  0.1800
  152OSM    H5F16937   0.049   0.851   3.712 -1.9033  0.5626  1.8817
  152OSM    H5G16938   0.108   1.020   3.715 -2.2254 -1.2160 -1.0117
  152OSM    C6F16939   0.139   0.913   3.899  0.0956  0.3488  0.2061
  152OSM    H6F16940   0.216   0.988   3.930  0.0398  0.3091  0.4411
  152OSM    H6G16941   0.170   0.813   3.936 -0.9648  0.2231  0.7942
  152OSM    C7F16942   0.007   0.958   3.954 -0.1885 -0.1868  0.4052
  152OSM    H7F16943  -0.066   0.876   3.936 -1.0295  0.5472  0.4195
  152OSM    H7G16944  -0.008   1.051   3.896  0.6473 -0.5718 -0.4608
  152OSM    C8F16945  -0.004   0.987   4.101  0.0125 -0.2085 -0.0938
  152OSM    H8F16946   0.071   1.067   4.119 -1.5056  1.1060  0.5588
  152OSM    H8G16947   0.006   0.898   4.166 -3.2272 -0.8701 -0.3272
  152OSM    C9F16948  -0.134   1.054   4.128 -0.3638  0.0231 -0.0697
  152OSM    H9F16949  -0.203   1.074   4.044 -2.0423  0.8335  1.4319
  152OSM   C10F16950  -0.180   1.090   4.253  0.1938 -0.3246 -0.3026
  152OSM   H10F16951  -0.284   1.125   4.265  0.4847  0.0449  1.3951
  152OSM   C11F16952  -0.098   1.060   4.380 -0.1160 -0.0675 -1.3089
  152OSM   H11F16953   0.011   1.079   4.372  0.5458 -2.6572  0.1758
  152OSM   H11G16954  -0.109   0.955   4.415 -0.3748 -0.7007 -3.1633
  152OSM   C12F16955  -0.147   1.155   4.502 -0.1746  1.0547  0.0926
  152OSM   H12F16956  -0.138   1.253   4.449 -1.9942  0.2230 -1.9036
  152OSM   H12G16957  -0.077   1.129   4.584  0.4815 -1.4287 -1.1419
  152OSM   C13F16958  -0.284   1.136   4.557  1.1844  0.0463 -0.4859
  152OSM   H13F16959  -0.311   1.033   4.588 -2.7244  1.1186  0.3290
  152OSM   H13G16960  -0.353   1.183   4.483 -0.4226  0.3408  1.1152
  152OSM   C14F16961  -0.309   1.222   4.681  0.6448 -0.3118 -0.6546
  152OSM   H14F16962  -0.292   1.330   4.663  2.9151 -0.1846  1.6933
  152OSM   H14G16963  -0.233   1.192   4.757  2.7667  0.5741 -2.3313
  152OSM   C15F16964  -0.448   1.202   4.749 -0.8922 -0.5408 -0.1858
  152OSM   H15F16965  -0.452   1.094   4.777  3.3138 -0.9213 -0.3669
  152OSM   H15G16966  -0.527   1.210   4.671 -0.2195  1.1043 -0.7281
  152OSM   C16F16967  -0.458   1.283   4.870 -0.2609  1.2174 -0.4625
  152OSM   H16F16968  -0.463   1.386   4.829  1.0478  0.5892 -2.2922
  152OSM   H16G16969  -0.367   1.270   4.932 -1.2627  1.4101  1.1163
  152OSM   C17F16970  -0.583   1.252   4.961 -0.5422 -0.0915  0.1740
  152OSM   H17F16971  -0.566   1.294   5.063 -1.0024 -2.5539  1.3475
  152OSM   H17G16972  -0.568   1.144   4.984 -0.3366 -0.6412 -2.2863
  152OSM   C18F16973  -0.709   1.306   4.897  0.0918 -0.1018 -0.4184
  152OSM   H18F16974  -0.717   1.252   4.800 -0.6061  1.6484 -1.3781
  152OSM   H18G16975  -0.717   1.415   4.881 -1.5481 -0.2162 -0.5937
  152OSM   H18H16976  -0.795   1.266   4.956 -2.5190  1.3622 -2.9809
  153OSM      N16977   5.171   1.727   2.437  0.4542  0.2283 -0.5839
  153OSM    C1516978   5.285   1.808   2.388  0.1116 -0.3726  0.4635
  153OSM   H15A16979   5.271   1.913   2.409  0.3488  0.0919 -1.4719
  153OSM   H15B16980   5.293   1.787   2.282 -0.2443  2.2867 -0.1668
  153OSM   H15C16981   5.379   1.782   2.433  0.0434  1.3469  1.6847
  153OSM    C1416982   5.196   1.580   2.427 -0.3458  0.3489  0.0386
  153OSM   H14A16983   5.270   1.545   2.497  1.4573  1.3040 -1.2961
  153OSM   H14B16984   5.241   1.569   2.329 -0.8329 -1.0232 -0.0522
  153OSM   H14C16985   5.111   1.517   2.444 -0.2365 -0.0162 -0.7245
  153OSM    C1316986   5.150   1.753   2.588 -0.6197 -0.9327 -0.4925
  153OSM   H13A16987   5.068   1.692   2.624 -1.5301 -0.1703 -1.1968
  153OSM   H13B16988   5.128   1.857   2.606  1.0769 -0.2689 -1.9534
  153OSM   H13C16989   5.236   1.724   2.646  0.3057  2.1496 -0.1357
  153OSM    C1216990   5.047   1.749   2.362  0.0784 -0.3259 -0.3466
  153OSM   H12A16991   4.969   1.696   2.414 -0.2219 -0.4450 -0.9010
  153OSM   H12B16992   5.064   1.711   2.262 -0.5540 -0.9340 -0.2293
  153OSM    C1116993   4.996   1.892   2.329  0.1430 -0.0411 -0.0652
  153OSM   H11A16994   4.910   1.881   2.260 -0.9878  2.2265  0.8757
  153OSM   H11B16995   5.072   1.943   2.265 -1.1667 -0.6664 -2.2363
  153OSM      P16996   4.825   2.036   2.458  0.6877 -0.3887 -0.0528
  153OSM    O1316997   4.819   2.125   2.576 -0.6102 -1.0575 -0.8922
  153OSM    O1416998   4.804   2.101   2.328  0.9410 -0.0613  0.7381
  153OSM    O1116999   4.735   1.902   2.471  0.6136 -0.0063 -0.8179
  153OSM    O1217000   4.971   1.966   2.453  0.4880 -0.1504  0.0661
  153OSM    C1S17001   4.777   1.803   2.558  0.1719  0.5814  0.2958
  153OSM    H1S17002   4.882   1.808   2.592  0.9201  2.8130 -2.0625
  153OSM    H1T17003   4.744   1.703   2.521  1.3210 -0.6220  2.3244
  153OSM     NF17004   4.733   1.741   2.797 -0.1865 -0.0967  0.1233
  153OSM    HNF17005   4.688   1.657   2.828 -2.1150  1.9818  3.5738
  153OSM    C2S17006   4.681   1.806   2.682  0.0044  0.2522  0.4048
  153OSM    H2S17007   4.658   1.912   2.709  0.6776  0.2384  1.0606
  153OSM    C3S17008   4.538   1.758   2.639 -0.2243  0.6891 -0.2428
  153OSM    H3S17009   4.556   1.655   2.601 -0.5628 -0.1881  1.8408
  153OSM     O317010   4.487   1.836   2.532  0.4324 -0.1642 -0.1149
  153OSM    HO317011   4.562   1.886   2.500  1.2661 -1.8497 -0.9352
  153OSM    C4S17012   4.439   1.752   2.746  0.2314  0.2920  0.3981
  153OSM    H4S17013   4.405   1.849   2.783 -1.5551 -0.4845  0.9244
  153OSM    C5S17014   4.392   1.641   2.814  0.5142 -0.6240  0.6145
  153OSM    H5S17015   4.428   1.541   2.785  1.0075 -0.8865  2.0357
  153OSM    C6S17016   4.310   1.658   2.936 -0.1943 -0.6944  0.1393
  153OSM    H6S17017   4.207   1.653   2.895 -0.5471  1.2428  0.6600
  153OSM    H6T17018   4.330   1.758   2.981 -1.0134  0.8830 -2.7586
  153OSM    C7S17019   4.354   1.564   3.049 -0.7164 -0.0645 -0.2959
  153OSM    H7S17020   4.464   1.553   3.062 -1.0031 -1.4325  1.2872
  153OSM    H7T17021   4.317   1.460   3.032 -0.0371 -0.8286  2.3796
  153OSM    C8S17022   4.302   1.615   3.189 -0.7910 -0.2310  0.8439
  153OSM    H8S17023   4.191   1.612   3.184 -0.7457 -0.2932 -0.2502
  153OSM    H8T17024   4.334   1.719   3.211  0.0105 -0.1759 -0.4828
  153OSM    C9S17025   4.335   1.535   3.317  0.4116  0.9561 -0.0437
  153OSM    H9S17026   4.445   1.531   3.333  0.2142  2.3149  2.0484
  153OSM    H9T17027   4.304   1.429   3.308  0.3557  0.7429  2.1003
  153OSM   C10S17028   4.278   1.598   3.442  0.9047 -0.0154  0.4785
  153OSM   H10S17029   4.168   1.608   3.456  0.6396 -1.8972  0.0125
  153OSM   H10T17030   4.320   1.699   3.464  1.2642 -0.6651  3.1114
  153OSM   C11S17031   4.317   1.504   3.558  0.9380 -0.6225 -0.8164
  153OSM   H11S17032   4.424   1.481   3.541  0.4394 -2.0963 -2.2296
  153OSM   H11T17033   4.278   1.400   3.559 -0.1586 -0.2329  1.0785
  153OSM   C12S17034   4.295   1.567   3.695  0.6424  0.5808  0.4228
  153OSM   H12S17035   4.186   1.588   3.702  0.4628  0.4127 -1.3644
  153OSM   H12T17036   4.337   1.668   3.713 -0.3406  1.0366  0.2215
  153OSM   C13S17037   4.336   1.480   3.814  0.1787  0.3168  0.4242
  153OSM   H13S17038   4.445   1.470   3.795 -0.2024 -0.6882 -1.4601
  153OSM   H13T17039   4.299   1.376   3.800  0.3691 -0.1622  2.9580
  153OSM   C14S17040   4.292   1.535   3.946  0.6615 -0.0946  0.4730
  153OSM   H14S17041   4.183   1.517   3.962  0.9333 -0.2553  2.4282
  153OSM   H14T17042   4.313   1.644   3.946 -0.2523  0.0953  1.2853
  153OSM   C15S17043   4.377   1.470   4.055  0.2574 -0.3021 -0.1074
  153OSM   H15S17044   4.483   1.499   4.047  0.2876 -0.1623  0.7067
  153OSM   H15T17045   4.371   1.359   4.046 -1.7457 -0.2836  0.4636
  153OSM   C16S17046   4.336   1.519   4.200  0.5063 -0.0464  0.2611
  153OSM   H16S17047   4.226   1.533   4.203  0.4288 -0.3172 -0.7804
  153OSM   H16T17048   4.372   1.623   4.216  0.3155 -0.0956  1.0174
  153OSM   C17S17049   4.394   1.431   4.314  0.3649  0.3427  0.6194
  153OSM   H17S17050   4.503   1.418   4.298  0.4827  1.9454 -0.0556
  153OSM   H17T17051   4.348   1.330   4.306 -0.1313  0.6523 -0.8068
  153OSM   C18S17052   4.368   1.487   4.450 -0.2454 -0.1073 -0.1535
  153OSM   H18S17053   4.259   1.507   4.463 -0.3683 -1.6066  1.4548
  153OSM   H18T17054   4.437   1.567   4.486  0.4961 -1.5536  1.7767
  153OSM   H18U17055   4.385   1.405   4.523  0.1435  0.6540  0.6336
  153OSM    C1F17056   4.843   1.776   2.863  0.3761  0.3809  0.1030
  153OSM     OF17057   4.904   1.881   2.835  0.5911 -0.3247 -0.5196
  153OSM    C2F17058   4.889   1.683   2.970 -0.3953  0.7361  0.0407
  153OSM    H2F17059   4.989   1.719   3.002  0.5457 -2.8073  1.5265
  153OSM    H2G17060   4.901   1.582   2.924 -2.2858 -0.0154  1.0643
  153OSM    C3F17061   4.794   1.661   3.089  1.0383  0.0314 -0.0894
  153OSM    H3F17062   4.686   1.650   3.066  1.2322 -0.1220 -0.9765
  153OSM    H3G17063   4.810   1.749   3.155 -1.0186  0.3914 -0.0050
  153OSM    C4F17064   4.836   1.536   3.167 -0.0089 -0.2480  0.4720
  153OSM    H4F17065   4.944   1.523   3.149 -0.0014 -0.6748  0.8304
  153OSM    H4G17066   4.775   1.462   3.110  0.1513  0.5919 -0.8408
  153OSM    C5F17067   4.796   1.545   3.312 -0.1990 -0.2105  0.0862
  153OSM    H5F17068   4.690   1.577   3.305 -0.1865  0.6455  2.8015
  153OSM    H5G17069   4.851   1.624   3.367  0.5685 -1.3566  1.0459
  153OSM    C6F17070   4.805   1.412   3.381 -1.1838  0.4808 -0.1882
  153OSM    H6F17071   4.908   1.372   3.364 -1.2259 -0.8941  2.3876
  153OSM    H6G17072   4.731   1.345   3.333  0.2767  0.8370 -3.2342
  153OSM    C7F17073   4.800   1.424   3.536 -0.3098 -0.5381  0.4173
  153OSM    H7F17074   4.704   1.466   3.571 -1.1376 -2.2872  0.3601
  153OSM    H7G17075   4.886   1.491   3.559 -0.5525  0.4183 -1.2659
  153OSM    C8F17076   4.840   1.297   3.602  0.1624  0.1782 -0.2508
  153OSM    H8F17077   4.920   1.246   3.544 -1.1289 -0.2665 -1.6925
  153OSM    H8G17078   4.751   1.232   3.600  0.6493 -0.4851 -0.9048
  153OSM    C9F17079   4.880   1.335   3.748 -0.5872 -0.7093 -0.1362
  153OSM    H9F17080   4.987   1.357   3.759 -1.1914  3.1873 -0.8789
  153OSM   C10F17081   4.800   1.332   3.858 -0.1364  0.4351 -0.3161
  153OSM   H10F17082   4.840   1.360   3.957  2.2687 -1.8210 -0.5281
  153OSM   C11F17083   4.655   1.296   3.867  0.1084 -0.2879  0.2567
  153OSM   H11F17084   4.598   1.267   3.776 -0.4557 -0.8113  0.7709
  153OSM   H11G17085   4.614   1.395   3.895 -0.4068 -0.5954  0.6047
  153OSM   C12F17086   4.626   1.189   3.973 -0.6193 -0.0917 -0.3866
  153OSM   H12F17087   4.688   1.100   3.950 -1.2177 -1.2702  2.1582
  153OSM   H12G17088   4.515   1.181   3.966 -0.8989  0.4995  2.1095
  153OSM   C13F17089   4.665   1.232   4.125  0.0039 -0.2875 -0.1174
  153OSM   H13F17090   4.619   1.333   4.136 -2.0786 -1.1059 -0.7916
  153OSM   H13G17091   4.773   1.224   4.145  0.4200  4.9819  1.2410
  153OSM   C14F17092   4.583   1.138   4.216  0.2244  0.2473  0.4956
  153OSM   H14F17093   4.598   1.030   4.194 -2.7817 -0.7832  2.9148
  153OSM   H14G17094   4.478   1.170   4.201  0.6010  1.0388 -0.5664
  153OSM   C15F17095   4.613   1.149   4.366 -0.4724  0.0417  0.3547
  153OSM   H15F17096   4.589   1.255   4.392 -0.1924  1.3929 -4.0786
  153OSM   H15G17097   4.717   1.114   4.378 -0.4104 -1.1252 -2.7993
  153OSM   C16F17098   4.515   1.053   4.450  0.3592  0.3783 -0.2122
  153OSM   H16F17099   4.532   0.946   4.425  1.9807  0.2884  1.0681
  153OSM   H16G17100   4.406   1.067   4.433 -0.0307 -2.2945 -0.4615
  153OSM   C17F17101   4.552   1.072   4.597  0.6224  0.0498 -0.0046
  153OSM   H17F17102   4.577   1.179   4.613  1.6124 -0.2636  0.6829
  153OSM   H17G17103   4.640   1.011   4.629  1.3261  1.2260  0.3746
  153OSM   C18F17104   4.450   1.014   4.686  0.6346  1.0858 -0.3199
  153OSM   H18F17105   4.430   0.908   4.658  0.5064  1.5376 -2.1063
  153OSM   H18G17106   4.358   1.074   4.669  1.2076  2.3307  0.8146
  153OSM   H18H17107   4.471   1.034   4.793 -1.4171 -0.9978  0.5478
  154OSM      N17108   4.365   6.678   2.126  0.7559 -0.4201  0.3917
  154OSM    C1517109   4.487   6.644   2.052  0.0299  0.5170  0.5828
  154OSM   H15A17110   4.575   6.659   2.113 -0.3030 -0.8716  1.4348
  154OSM   H15B17111   4.487   6.689   1.953 -0.9228  0.4944  0.5674
  154OSM   H15C17112   4.493   6.538   2.029  0.7465  0.3710  1.4122
  154OSM    C1417113   4.342   6.826   2.106 -0.5268 -0.5464 -0.3110
  154OSM   H14A17114   4.410   6.895   2.153 -2.3334  0.7724  0.5368
  154OSM   H14B17115   4.247   6.861   2.144 -0.6320  1.8869 -2.4667
  154OSM   H14C17116   4.338   6.844   1.999 -1.6061  1.3783 -0.0063
  154OSM    C1317117   4.253   6.602   2.069 -0.1058 -0.9930 -0.8605
  154OSM   H13A17118   4.165   6.659   2.098  0.3707 -1.6341  2.1734
  154OSM   H13B17119   4.250   6.506   2.117  2.1647  1.4285  5.1396
  154OSM   H13C17120   4.250   6.599   1.962 -1.5865  2.2998 -1.0279
  154OSM    C1217121   4.376   6.631   2.273  0.1652 -0.4747  0.0241
  154OSM   H12A17122   4.476   6.643   2.312  0.0846 -2.7948  1.1392
  154OSM   H12B17123   4.371   6.523   2.274  0.5634 -0.5219  2.3259
  154OSM    C1117124   4.274   6.679   2.377  0.3262  0.2740 -0.1811
  154OSM   H11A17125   4.286   6.623   2.472  0.0695  0.4534 -0.0398
  154OSM   H11B17126   4.171   6.664   2.338  0.0539 -0.6551  0.8471
  154OSM      P17127   4.424   6.886   2.461 -0.4410 -0.1308 -0.1273
  154OSM    O1317128   4.531   6.788   2.443 -0.1862 -0.6296  0.9824
  154OSM    O1417129   4.447   7.019   2.403 -0.2271 -0.5899  0.0241
  154OSM    O1117130   4.398   6.896   2.621 -0.2771 -0.5754 -0.0411
  154OSM    O1217131   4.286   6.821   2.409 -0.1528 -0.1992  0.2195
  154OSM    C1S17132   4.331   6.790   2.686 -0.6064 -0.2439  0.3202
  154OSM    H1S17133   4.391   6.698   2.666 -0.7638 -0.1920 -0.4154
  154OSM    H1T17134   4.231   6.787   2.639 -1.3747 -0.5585  1.9085
  154OSM     NF17135   4.252   6.687   2.877  0.1888 -0.5564 -0.2567
  154OSM    HNF17136   4.152   6.680   2.879  0.2236 -1.6247  2.4337
  154OSM    C2S17137   4.297   6.810   2.832 -0.3006 -0.5644  0.0658
  154OSM    H2S17138   4.392   6.833   2.885 -0.8075  0.3289  0.6132
  154OSM    C3S17139   4.200   6.932   2.853  0.3679  0.0699  0.6017
  154OSM    H3S17140   4.099   6.904   2.816  0.7063 -1.0556  0.4874
  154OSM     O317141   4.235   7.041   2.768  0.6604  0.3146  0.4406
  154OSM    HO317142   4.319   7.014   2.732 -0.0286  1.9180 -2.7073
  154OSM    C4S17143   4.177   6.968   2.994 -0.0283 -0.3437 -0.0379
  154OSM    H4S17144   4.093   6.909   3.033 -1.3722  0.1641 -2.0046
  154OSM    C5S17145   4.239   7.051   3.078 -0.0940 -0.3588 -0.3307
  154OSM    H5S17146   4.315   7.120   3.037  1.4220 -0.5835  1.9098
  154OSM    C6S17147   4.220   7.072   3.222  0.4114 -0.8511  0.6813
  154OSM    H6S17148   4.166   7.169   3.233 -0.5874 -1.2577 -0.3523
  154OSM    H6T17149   4.319   7.071   3.272  0.2622  1.1462  1.1275
  154OSM    C7S17150   4.132   6.975   3.310  0.2399 -0.3199 -0.0828
  154OSM    H7S17151   4.144   6.866   3.293 -0.5043 -0.2185 -1.3541
  154OSM    H7T17152   4.026   7.004   3.299  0.4569  1.1727  1.3447
  154OSM    C8S17153   4.164   6.993   3.463 -0.0669 -0.0258  0.2154
  154OSM    H8S17154   4.154   7.101   3.485 -0.3437  0.3141 -1.4042
  154OSM    H8T17155   4.266   6.952   3.478 -1.1158 -1.9677  2.9015
  154OSM    C9S17156   4.075   6.898   3.550  0.0579  0.3548  0.4929
  154OSM    H9S17157   4.082   6.795   3.510 -1.4683  0.9928 -1.5835
  154OSM    H9T17158   3.969   6.933   3.542  0.3133  2.3539  3.7677
  154OSM   C10S17159   4.110   6.886   3.700 -0.1151 -0.3694 -0.4487
  154OSM   H10S17160   4.221   6.882   3.692  0.2036  2.4068  1.2576
  154OSM   H10T17161   4.066   6.792   3.739 -2.4115  0.7749 -0.1407
  154OSM   C11S17162   4.065   7.009   3.782 -0.0007 -0.8842 -0.0142
  154OSM   H11S17163   3.955   7.010   3.790  0.0983  0.5433  2.2320
  154OSM   H11T17164   4.101   7.099   3.727 -0.5935 -0.7143 -0.1329
  154OSM   C12S17165   4.119   7.006   3.925  0.2951  0.2571 -0.2392
  154OSM   H12S17166   4.226   7.032   3.940 -0.0717  1.9095 -0.3180
  154OSM   H12T17167   4.101   6.907   3.973 -0.3089  1.9518  3.3916
  154OSM   C13S17168   4.046   7.098   4.019 -0.0132 -0.3457 -1.4873
  154OSM   H13S17169   4.029   7.197   3.972  2.4735  0.9451  0.1230
  154OSM   H13T17170   4.117   7.129   4.098 -0.0276 -3.7334 -0.0050
  154OSM   C14S17171   3.921   7.040   4.077  1.0514 -0.2535  0.6279
  154OSM   H14S17172   3.947   6.941   4.120 -2.3830 -1.4264  0.2969
  154OSM   H14T17173   3.849   7.014   3.996  1.5283  0.9533 -0.2189
  154OSM   C15S17174   3.871   7.128   4.194 -0.5126 -0.6164  0.1561
  154OSM   H15S17175   3.846   7.230   4.157  2.3396 -0.0007 -0.2898
  154OSM   H15T17176   3.958   7.138   4.263 -1.9377 -1.8721  2.2464
  154OSM   C16S17177   3.753   7.058   4.262 -0.0724 -1.0554 -0.2455
  154OSM   H16S17178   3.790   6.959   4.297  0.5838 -1.8718 -3.0334
  154OSM   H16T17179   3.694   7.037   4.170  1.5575  0.5197 -1.7212
  154OSM   C17S17180   3.663   7.133   4.364 -0.0008  0.3578 -0.4567
  154OSM   H17S17181   3.621   7.222   4.313 -1.3785 -0.9878 -1.7479
  154OSM   H17T17182   3.721   7.172   4.451  1.8362  1.6829 -2.1692
  154OSM   C18S17183   3.546   7.042   4.411  0.2135 -0.5684  1.0057
  154OSM   H18S17184   3.499   7.092   4.498  2.3224 -0.0819  1.9402
  154OSM   H18T17185   3.583   6.940   4.438 -2.4737 -2.3429 -1.3585
  154OSM   H18U17186   3.480   7.027   4.322  1.0191 -0.8170  0.4331
  154OSM    C1F17187   4.328   6.580   2.902 -0.1879 -0.4855  0.0514
  154OSM     OF17188   4.444   6.603   2.900  0.0197 -0.3831  0.0627
  154OSM    C2F17189   4.258   6.455   2.931  0.2033 -0.8986 -0.8889
  154OSM    H2F17190   4.329   6.370   2.939  0.7466 -0.3982 -0.3276
  154OSM    H2G17191   4.194   6.430   2.843 -1.5143 -0.3965  0.1678
  154OSM    C3F17192   4.168   6.445   3.056  1.0030 -0.0586  0.1607
  154OSM    H3F17193   4.119   6.346   3.043 -0.4795  0.4552  1.5467
  154OSM    H3G17194   4.093   6.527   3.057  2.7761  1.6483  1.3672
  154OSM    C4F17195   4.255   6.440   3.179 -0.3421 -0.2889  0.6907
  154OSM    H4F17196   4.283   6.547   3.195  2.0302 -0.8604  0.6763
  154OSM    H4G17197   4.354   6.397   3.155 -0.5676  0.0101 -0.8421
  154OSM    C5F17198   4.202   6.365   3.301  0.0698  0.2064  0.1975
  154OSM    H5F17199   4.294   6.352   3.362  0.8066 -0.4962 -1.0157
  154OSM    H5G17200   4.158   6.269   3.268 -0.9973  1.3239 -1.7672
  154OSM    C6F17201   4.100   6.446   3.384 -0.1334 -0.4019  0.2202
  154OSM    H6F17202   4.033   6.494   3.310 -1.5582 -0.0524  1.6817
  154OSM    H6G17203   4.156   6.532   3.427  0.6766 -0.4106 -0.7514
  154OSM    C7F17204   4.009   6.362   3.476 -0.1114 -0.2652  0.5239
  154OSM    H7F17205   3.974   6.266   3.432  0.8316  0.3590 -1.7217
  154OSM    H7G17206   3.920   6.424   3.500 -0.7397 -1.4725  1.4558
  154OSM    C8F17207   4.083   6.304   3.597  1.2775  0.3065 -0.1322
  154OSM    H8F17208   4.172   6.252   3.556 -0.3595 -1.9872 -0.9722
  154OSM    H8G17209   4.024   6.219   3.638  2.4942  0.0889  1.2340
  154OSM    C9F17210   4.130   6.387   3.703 -0.2732 -0.3795 -0.1455
  154OSM    H9F17211   4.221   6.441   3.673 -1.1874  1.3994  0.1385
  154OSM   C10F17212   4.092   6.387   3.834  0.2037 -0.4130  0.1644
  154OSM   H10F17213   4.146   6.452   3.904  1.6490  1.3057 -2.3900
  154OSM   C11F17214   3.979   6.312   3.896  0.8028 -0.2579 -0.3061
  154OSM   H11F17215   3.926   6.251   3.820  0.5018  1.3691 -1.4546
  154OSM   H11G17216   3.903   6.380   3.940  0.3780 -0.5379 -0.5936
  154OSM   C12F17217   4.041   6.234   4.015 -0.4773  0.6091 -0.3483
  154OSM   H12F17218   4.101   6.300   4.080  1.6312 -1.2686 -0.2592
  154OSM   H12G17219   4.106   6.149   3.986 -0.5022  0.1566  0.8643
  154OSM   C13F17220   3.942   6.174   4.115 -0.0555  0.1780 -0.5874
  154OSM   H13F17221   3.866   6.117   4.056 -2.4871  0.8108  1.7561
  154OSM   H13G17222   3.896   6.263   4.161 -0.1792  0.5095 -1.3394
  154OSM   C14F17223   4.017   6.096   4.224  0.5263  0.8773  0.0509
  154OSM   H14F17224   4.078   6.157   4.294 -0.2631  1.3057  0.3742
  154OSM   H14G17225   4.085   6.019   4.180  1.1526  1.6725 -0.4028
  154OSM   C15F17226   3.918   6.017   4.313 -0.4864  0.5763 -0.6877
  154OSM   H15F17227   3.872   5.943   4.244  1.6226  1.4120 -3.1531
  154OSM   H15G17228   3.835   6.084   4.344 -0.6020 -0.3501  1.1734
  154OSM   C16F17229   4.000   5.965   4.437 -0.4176  0.6968 -0.6211
  154OSM   H16F17230   4.077   6.040   4.465 -0.9805  0.7656  0.8429
  154OSM   H16G17231   4.051   5.874   4.399 -0.8207  0.3757 -0.4094
  154OSM   C17F17232   3.916   5.924   4.563  0.3803 -0.1331  0.5542
  154OSM   H17F17233   3.830   5.860   4.534 -0.3679  0.8342  0.6008
  154OSM   H17G17234   3.868   6.018   4.595  2.3889 -0.0127  3.6405
  154OSM   C18F17235   3.983   5.864   4.684  0.1348  0.3108  0.0525
  154OSM   H18F17236   4.054   5.935   4.730 -0.6407  0.9294  0.3052
  154OSM   H18G17237   4.031   5.768   4.654 -0.0293 -0.0864  1.0355
  154OSM   H18H17238   3.918   5.837   4.770  0.5845 -0.0361  0.2865
  155OSM      N17239   0.787   3.278   2.656 -0.1638 -0.1647 -0.0827
  155OSM    C1517240   0.831   3.339   2.789 -0.2220 -0.3923 -0.1020
  155OSM   H15A17241   0.910   3.412   2.779 -1.0284  0.5989  0.6100
  155OSM   H15B17242   0.875   3.259   2.847 -0.5203 -0.6370 -0.2142
  155OSM   H15C17243   0.753   3.390   2.844  1.5765  1.9099  0.4823
  155OSM    C1417244   0.654   3.208   2.674  0.0133 -0.4329  0.3198
  155OSM   H14A17245   0.642   3.138   2.755 -3.5307 -0.8809 -0.4369
  155OSM   H14B17246   0.625   3.167   2.578 -1.2021 -2.9451  1.6654
  155OSM   H14C17247   0.580   3.276   2.713  1.0168  0.9830 -0.1460
  155OSM    C1317248   0.775   3.387   2.559  0.3135 -0.1146  0.3457
  155OSM   H13A17249   0.873   3.426   2.535  1.3154 -3.2331 -1.1498
  155OSM   H13B17250   0.714   3.465   2.602  1.6059  0.9728  0.2624
  155OSM   H13C17251   0.735   3.357   2.464  0.8376  1.0697 -0.2632
  155OSM    C1217252   0.888   3.178   2.601  0.0731  0.1038  0.0421
  155OSM   H12A17253   0.984   3.225   2.584 -0.8771  1.4481 -1.8576
  155OSM   H12B17254   0.849   3.141   2.508  0.3045 -1.6385  0.5947
  155OSM    C1117255   0.922   3.049   2.686 -0.2297 -0.3088 -1.0850
  155OSM   H11A17256   0.986   2.973   2.637  1.7021  0.1362  0.6262
  155OSM   H11B17257   0.824   2.998   2.704  0.0497 -1.2301 -2.0489
  155OSM      P17258   1.136   3.122   2.809 -0.5054 -0.0601 -0.2553
  155OSM    O1317259   1.190   3.115   2.668  0.3080 -0.4211 -0.4670
  155OSM    O1417260   1.164   3.242   2.893  0.2352 -0.8633 -0.1954
  155OSM    O1117261   1.183   2.989   2.879 -0.2935 -0.1473 -0.2298
  155OSM    O1217262   0.977   3.095   2.808  0.2952  0.3191  0.0525
  155OSM    C1S17263   1.235   2.991   3.020 -0.8673  0.3759 -0.5697
  155OSM    H1S17264   1.240   3.095   3.061 -2.1386  0.4050 -0.4251
  155OSM    H1T17265   1.336   2.948   3.036 -0.9591 -0.2231 -1.5882
  155OSM     NF17266   1.187   2.924   3.255 -0.1027  0.9889  0.8617
  155OSM    HNF17267   1.223   2.836   3.285 -0.3023 -0.1002 -1.8238
  155OSM    C2S17268   1.139   2.918   3.118 -0.3296  0.3859 -0.4008
  155OSM    H2S17269   1.040   2.968   3.126 -1.0661 -1.0424 -0.0813
  155OSM    C3S17270   1.115   2.771   3.064 -0.0168  0.0921  0.0801
  155OSM    H3S17271   1.216   2.724   3.062  0.7705  1.7377 -0.9143
  155OSM     O317272   1.057   2.771   2.935  0.0661  0.3720  1.0794
  155OSM    HO317273   1.090   2.852   2.894  1.8224 -1.1994 -0.8370
  155OSM    C4S17274   1.019   2.699   3.160 -1.1024 -0.0033 -0.8947
  155OSM    H4S17275   0.916   2.736   3.171 -0.3487  1.9185  0.1393
  155OSM    C5S17276   1.048   2.585   3.226  0.2514  0.1115 -0.4740
  155OSM    H5S17277   1.144   2.533   3.212  1.3094  0.6836  3.4258
  155OSM    C6S17278   0.940   2.507   3.310  0.3499  0.1520 -0.4019
  155OSM    H6S17279   0.932   2.401   3.278 -0.8084  0.3956 -0.9736
  155OSM    H6T17280   0.840   2.555   3.305  0.6612  1.0091  1.2014
  155OSM    C7S17281   0.983   2.503   3.460  0.9488  0.1059  0.1367
  155OSM    H7S17282   1.084   2.457   3.476  0.0099 -2.2685 -0.2730
  155OSM    H7T17283   0.919   2.422   3.502 -1.2870  0.7989 -1.7658
  155OSM    C8S17284   0.948   2.636   3.534 -0.6202  0.2858  0.3976
  155OSM    H8S17285   0.842   2.661   3.514 -1.3915 -3.1839 -0.6490
  155OSM    H8T17286   1.019   2.712   3.495  0.2193 -0.3434  0.6622
  155OSM    C9S17287   0.972   2.626   3.686  0.0738 -0.3479 -0.2200
  155OSM    H9S17288   1.079   2.639   3.712  0.5852 -0.9940 -1.8481
  155OSM    H9T17289   0.965   2.521   3.719 -0.4922 -0.1413  0.3306
  155OSM   C10S17290   0.887   2.715   3.776 -0.1315 -0.4989 -0.2636
  155OSM   H10S17291   0.784   2.697   3.738  0.0979  2.5535 -2.7531
  155OSM   H10T17292   0.903   2.820   3.745  2.4469 -0.2573  1.5912
  155OSM   C11S17293   0.901   2.696   3.929  0.1580  0.0187  0.0707
  155OSM   H11S17294   0.879   2.591   3.959 -1.7870  0.2829 -0.2745
  155OSM   H11T17295   0.828   2.764   3.977  0.1244  1.0329 -1.3412
  155OSM   C12S17296   1.038   2.733   3.993  0.5095  0.2262 -0.1284
  155OSM   H12S17297   1.061   2.830   3.944  0.0526 -0.1619 -1.1453
  155OSM   H12T17298   1.111   2.652   3.968 -0.1083  0.0991 -1.6233
  155OSM   C13S17299   1.027   2.757   4.142  0.3145 -0.0019  0.1692
  155OSM   H13S17300   0.974   2.670   4.187  2.5620 -1.0378  0.9781
  155OSM   H13T17301   0.962   2.844   4.162  1.0905  0.2517  1.7715
  155OSM   C14S17302   1.165   2.761   4.207  0.6127  0.1291 -0.4110
  155OSM   H14S17303   1.228   2.843   4.167 -0.7034  1.2433 -0.2552
  155OSM   H14T17304   1.216   2.668   4.174  1.8597  0.3689  0.7187
  155OSM   C15S17305   1.152   2.771   4.359  0.0895  0.1302 -0.0252
  155OSM   H15S17306   1.083   2.692   4.395 -2.6721 -0.3782 -5.3214
  155OSM   H15T17307   1.088   2.858   4.383 -1.6464 -1.6348  2.1763
  155OSM   C16S17308   1.283   2.789   4.445  0.2071 -0.4425 -0.2254
  155OSM   H16S17309   1.332   2.878   4.400 -3.5075  1.5390 -0.7530
  155OSM   H16T17310   1.340   2.695   4.431 -0.4341 -0.7877 -0.5194
  155OSM   C17S17311   1.263   2.813   4.591  0.2750 -0.0255 -0.4293
  155OSM   H17S17312   1.190   2.741   4.634  0.5337 -0.1876 -0.2665
  155OSM   H17T17313   1.216   2.914   4.602 -1.7105 -0.8787 -0.5851
  155OSM   C18S17314   1.392   2.813   4.676 -0.1711  0.0971  0.2153
  155OSM   H18S17315   1.462   2.882   4.623 -0.5152  0.3144  0.0340
  155OSM   H18T17316   1.433   2.710   4.679  0.9255  0.5319  2.7666
  155OSM   H18U17317   1.383   2.846   4.782  1.4759  0.8943  0.1433
  155OSM    C1F17318   1.189   3.033   3.329  0.0792 -0.2059  0.4907
  155OSM     OF17319   1.132   3.134   3.290  0.5694  0.3607  0.8006
  155OSM    C2F17320   1.248   3.019   3.466  0.1142  0.5515  0.2472
  155OSM    H2F17321   1.357   3.035   3.478  0.0195  1.9508 -0.6097
  155OSM    H2G17322   1.236   2.914   3.500  3.2668  0.2039  0.5236
  155OSM    C3F17323   1.187   3.103   3.584  0.0683  0.4799 -0.3659
  155OSM    H3F17324   1.077   3.085   3.587  0.0543  0.3594  2.9939
  155OSM    H3G17325   1.209   3.205   3.547 -0.5562  0.0266 -2.0618
  155OSM    C4F17326   1.252   3.089   3.721  0.2228 -0.1728 -0.2216
  155OSM    H4F17327   1.343   3.153   3.722  0.7527 -0.8836  1.9890
  155OSM    H4G17328   1.297   2.988   3.727  1.8392  0.3671 -2.2567
  155OSM    C5F17329   1.158   3.121   3.837 -0.0807  0.6076  0.0432
  155OSM    H5F17330   1.061   3.067   3.827 -0.2962  0.8559  0.7340
  155OSM    H5G17331   1.142   3.231   3.833 -0.2816  0.6709  1.9806
  155OSM    C6F17332   1.228   3.097   3.964 -0.6192  0.7775  0.0615
  155OSM    H6F17333   1.329   3.143   3.960  0.1318 -0.7222  0.6557
  155OSM    H6G17334   1.240   2.988   3.983 -2.9605  0.9413  3.1937
  155OSM    C7F17335   1.161   3.150   4.094  0.0748  0.8585 -0.8456
  155OSM    H7F17336   1.074   3.087   4.125  1.3244  0.1549  1.4540
  155OSM    H7G17337   1.118   3.247   4.060 -2.0923 -0.3935 -1.8627
  155OSM    C8F17338   1.264   3.175   4.220 -0.0442  0.4137  0.1741
  155OSM    H8F17339   1.332   3.247   4.170 -2.1264  2.1838 -0.2655
  155OSM    H8G17340   1.323   3.084   4.244  1.9941  0.9697 -2.2581
  155OSM    C9F17341   1.188   3.231   4.340  0.0609  0.0791 -0.0770
  155OSM    H9F17342   1.142   3.154   4.403 -0.5660 -1.9582 -2.8540
  155OSM   C10F17343   1.180   3.361   4.376  0.5028 -0.1121  0.2296
  155OSM   H10F17344   1.125   3.381   4.469 -1.0698 -0.2226 -0.6473
  155OSM   C11F17345   1.221   3.482   4.295  0.5917  0.2876 -0.2088
  155OSM   H11F17346   1.151   3.567   4.302 -0.4439 -0.4976 -0.8079
  155OSM   H11G17347   1.227   3.448   4.190  0.2497 -3.1631  0.7469
  155OSM   C12F17348   1.367   3.520   4.334 -0.1595  0.7730 -0.5822
  155OSM   H12F17349   1.429   3.533   4.243  2.0344 -1.9801  0.3799
  155OSM   H12G17350   1.423   3.435   4.379 -1.8057 -0.0906 -0.0707
  155OSM   C13F17351   1.383   3.640   4.425 -0.7666  0.0013 -0.6756
  155OSM   H13F17352   1.330   3.728   4.382 -2.0255  1.1352  2.8739
  155OSM   H13G17353   1.490   3.662   4.441 -0.1747 -2.4145 -0.9058
  155OSM   C14F17354   1.324   3.617   4.565 -0.0359  0.7163  0.6736
  155OSM   H14F17355   1.373   3.530   4.613 -1.9142 -0.7914 -0.0220
  155OSM   H14G17356   1.219   3.584   4.556  0.3492  0.0660 -3.6906
  155OSM   C15F17357   1.330   3.747   4.648  0.2464 -0.2674  0.3183
  155OSM   H15F17358   1.280   3.824   4.586  1.8314 -1.6080 -2.8837
  155OSM   H15G17359   1.434   3.782   4.659 -0.7365  2.0781  3.3826
  155OSM   C16F17360   1.262   3.730   4.789  0.0412  0.3720 -0.6848
  155OSM   H16F17361   1.298   3.634   4.832  0.0382  0.0095 -1.4712
  155OSM   H16G17362   1.151   3.730   4.782 -0.2300 -0.4711  2.4086
  155OSM   C17F17363   1.300   3.845   4.887  0.1151  0.3307  0.1490
  155OSM   H17F17364   1.295   3.938   4.826 -0.0016 -0.0972 -0.5033
  155OSM   H17G17365   1.402   3.828   4.927 -0.4157 -0.4891  1.2128
  155OSM   C18F17366   1.215   3.841   5.012  0.1144  0.3774 -0.0246
  155OSM   H18F17367   1.243   3.924   5.080  1.0450  0.7723 -0.8620
  155OSM   H18G17368   1.243   3.749   5.068  1.5307  1.0023  0.3510
  155OSM   H18H17369   1.105   3.841   4.999 -0.2115  1.0777  2.2357
  156OSM      N17370   2.402   1.321   2.318  0.2036  0.1801 -0.4692
  156OSM    C1517371   2.524   1.238   2.315 -0.1886  0.6389  0.5471
  156OSM   H15A17372   2.538   1.174   2.229 -0.0697  0.8722  0.3925
  156OSM   H15B17373   2.521   1.169   2.398 -0.5471  2.5555  2.1880
  156OSM   H15C17374   2.610   1.302   2.318 -0.2944  0.8902  5.5270
  156OSM    C1417375   2.379   1.379   2.182 -0.1498  0.1726 -0.1471
  156OSM   H14A17376   2.472   1.421   2.145 -1.1119 -0.1340 -3.1581
  156OSM   H14B17377   2.304   1.456   2.190 -0.4199 -0.1907  1.0353
  156OSM   H14C17378   2.351   1.308   2.106  0.0287 -1.2208  1.0385
  156OSM    C1317379   2.290   1.225   2.356  0.4683 -0.2337  0.1005
  156OSM   H13A17380   2.196   1.275   2.337  1.3961  0.5162 -2.8690
  156OSM   H13B17381   2.293   1.197   2.461  2.3374 -0.0542  0.1122
  156OSM   H13C17382   2.287   1.133   2.300  1.1615  0.0770 -0.4482
  156OSM    C1217383   2.414   1.441   2.417  0.5130  0.6877 -0.2584
  156OSM   H12A17384   2.324   1.500   2.418  2.6042  4.1801 -0.1490
  156OSM   H12B17385   2.489   1.508   2.379  1.0637 -0.1796 -0.7409
  156OSM    C1117386   2.455   1.400   2.566  0.2546 -0.3275 -0.8742
  156OSM   H11A17387   2.377   1.334   2.611 -0.4272 -0.0913 -1.6906
  156OSM   H11B17388   2.448   1.494   2.625  0.0039 -0.3432 -0.8785
  156OSM      P17389   2.703   1.458   2.563  0.0817  0.0001  0.0546
  156OSM    O1317390   2.826   1.380   2.534 -0.1040 -0.0269 -0.3415
  156OSM    O1417391   2.659   1.559   2.464  0.5939 -0.1915 -0.2744
  156OSM    O1117392   2.701   1.518   2.713 -0.5528  0.0687  0.8023
  156OSM    O1217393   2.587   1.353   2.571 -0.1917 -0.0377 -0.1986
  156OSM    C1S17394   2.729   1.437   2.827  0.3604  0.4496 -0.4848
  156OSM    H1S17395   2.827   1.388   2.811  1.0394  0.9139  1.8606
  156OSM    H1T17396   2.648   1.364   2.848  2.0348 -1.2980  0.1640
  156OSM     NF17397   2.803   1.473   3.069  0.0501  0.7080  0.0620
  156OSM    HNF17398   2.738   1.455   3.142  0.1637 -1.2812 -0.2639
  156OSM    C2S17399   2.742   1.534   2.954 -0.4532  0.2186  0.2490
  156OSM    H2S17400   2.810   1.611   2.911  1.8588 -1.9906 -0.2774
  156OSM    C3S17401   2.592   1.594   2.974  0.0781 -0.2523 -0.5250
  156OSM    H3S17402   2.531   1.502   2.986  0.6722 -0.5395  0.3755
  156OSM     O317403   2.537   1.664   2.859 -0.3193 -0.2684 -0.3245
  156OSM    HO317404   2.594   1.643   2.785  1.1712 -1.1988  1.0454
  156OSM    C4S17405   2.587   1.693   3.091 -0.4498  0.4929  0.6073
  156OSM    H4S17406   2.651   1.782   3.082 -0.4230  0.7866  3.1035
  156OSM    C5S17407   2.523   1.675   3.207 -0.4428  0.3134 -0.1834
  156OSM    H5S17408   2.470   1.580   3.222 -1.3225  0.3061 -2.8552
  156OSM    C6S17409   2.527   1.778   3.322 -0.1340 -0.7734 -0.0251
  156OSM    H6S17410   2.427   1.782   3.371  0.0824 -0.4488  0.3886
  156OSM    H6T17411   2.539   1.882   3.285 -0.2959 -0.6863  0.1656
  156OSM    C7S17412   2.640   1.748   3.420 -0.5775 -0.4816  0.2874
  156OSM    H7S17413   2.744   1.736   3.383 -1.2100 -1.0536 -1.4290
  156OSM    H7T17414   2.603   1.659   3.476 -1.2340  0.2062  0.9660
  156OSM    C8S17415   2.645   1.866   3.525 -0.1963  0.4134 -0.1792
  156OSM    H8S17416   2.546   1.901   3.560  0.0959 -0.3906  1.5772
  156OSM    H8T17417   2.690   1.959   3.486 -0.8218  1.2203  0.9737
  156OSM    C9S17418   2.732   1.821   3.651  0.2073 -0.3142  0.1287
  156OSM    H9S17419   2.829   1.786   3.608 -0.5526  0.0474 -1.9539
  156OSM    H9T17420   2.666   1.750   3.705 -1.7227 -0.5303 -2.3333
  156OSM   C10S17421   2.776   1.939   3.737  0.1102  0.3923  0.8856
  156OSM   H10S17422   2.688   1.985   3.786  1.0913  1.5696  1.5881
  156OSM   H10T17423   2.819   2.016   3.670 -0.2063 -1.3355 -1.4309
  156OSM   C11S17424   2.886   1.905   3.837 -0.7341 -0.1013 -0.1989
  156OSM   H11S17425   2.982   1.874   3.790  0.4886  1.4109  1.1899
  156OSM   H11T17426   2.847   1.824   3.902  0.1747 -1.0324 -0.7805
  156OSM   C12S17427   2.911   2.020   3.925 -0.5504 -0.0647 -0.3264
  156OSM   H12S17428   2.822   2.025   3.991  0.2964 -0.4931  0.8710
  156OSM   H12T17429   2.919   2.114   3.865 -0.0016 -1.7885 -3.1441
  156OSM   C13S17430   3.046   2.012   4.002  0.1078 -0.0019 -0.2003
  156OSM   H13S17431   3.124   1.983   3.929  1.2975  1.4654  0.4425
  156OSM   H13T17432   3.029   1.943   4.087 -0.0888  2.0141  1.4932
  156OSM   C14S17433   3.086   2.147   4.067 -0.6166 -0.0302  0.4186
  156OSM   H14S17434   3.067   2.220   3.986  0.6098 -1.8972 -1.6687
  156OSM   H14T17435   3.194   2.165   4.089 -0.2120  0.2796 -1.6537
  156OSM   C15S17436   3.005   2.174   4.195 -0.0626 -0.2495  1.1690
  156OSM   H15S17437   3.033   2.095   4.268  0.1070 -1.4873 -0.1991
  156OSM   H15T17438   2.895   2.174   4.180  0.1907 -1.1010 -0.9227
  156OSM   C16S17439   3.032   2.308   4.269  0.4966 -0.4370  0.3095
  156OSM   H16S17440   2.988   2.397   4.218 -1.4638 -1.2832  0.4486
  156OSM   H16T17441   3.141   2.328   4.267  0.7702 -1.8222 -2.2857
  156OSM   C17S17442   2.981   2.324   4.409 -0.2872 -0.7109 -0.9354
  156OSM   H17S17443   2.874   2.298   4.400 -0.0136 -2.2115 -0.1356
  156OSM   H17T17444   2.986   2.424   4.457  2.7315 -1.9511  1.7052
  156OSM   C18S17445   3.020   2.216   4.512  0.6289  0.3548 -0.1235
  156OSM   H18S17446   3.099   2.142   4.489 -0.1611 -0.9469  1.1613
  156OSM   H18T17447   2.929   2.160   4.545  1.7625 -0.8847  0.9998
  156OSM   H18U17448   3.046   2.266   4.608 -1.1197 -0.3834  0.7805
  156OSM    C1F17449   2.929   1.434   3.082  0.4498  0.8690 -0.1151
  156OSM     OF17450   3.005   1.438   2.984  0.5913  0.6437  0.0852
  156OSM    C2F17451   2.983   1.380   3.214 -0.1467 -0.2207 -1.0531
  156OSM    H2F17452   3.093   1.393   3.207  0.3221 -0.9965  2.7236
  156OSM    H2G17453   2.971   1.270   3.221  0.2933 -0.1575  1.8318
  156OSM    C3F17454   2.910   1.439   3.338  0.5724  1.2598 -0.6950
  156OSM    H3F17455   2.801   1.419   3.338  0.8516 -0.4601 -0.3993
  156OSM    H3G17456   2.928   1.548   3.338  0.8272  1.3921  3.5552
  156OSM    C4F17457   2.971   1.391   3.470  0.1703  0.2089 -0.2591
  156OSM    H4F17458   3.072   1.436   3.484  0.3088 -0.8438  2.6968
  156OSM    H4G17459   2.977   1.280   3.464 -1.3847  0.1716 -1.9236
  156OSM    C5F17460   2.887   1.440   3.588  0.5286 -0.2150  0.7325
  156OSM    H5F17461   2.794   1.381   3.602 -0.8463  1.8131  0.5736
  156OSM    H5G17462   2.851   1.543   3.566 -0.6617 -1.0632 -1.5993
  156OSM    C6F17463   2.964   1.433   3.720 -0.0921 -0.4947 -0.3067
  156OSM    H6F17464   3.070   1.464   3.716 -0.0124 -0.4467  1.3163
  156OSM    H6G17465   2.982   1.328   3.751  0.0488 -0.3119  0.2431
  156OSM    C7F17466   2.894   1.520   3.824 -0.4433 -0.1967  0.1026
  156OSM    H7F17467   2.788   1.488   3.827 -1.1237  1.8278 -0.3424
  156OSM    H7G17468   2.886   1.628   3.799  1.1596  0.2051  1.1617
  156OSM    C8F17469   2.961   1.510   3.956 -0.1724 -0.0378 -0.3643
  156OSM    H8F17470   2.912   1.578   4.030  0.8409  0.5636 -0.2268
  156OSM    H8G17471   3.071   1.525   3.943  0.4824 -2.7973  1.1347
  156OSM    C9F17472   2.961   1.371   4.016 -0.3444 -0.1978 -0.1838
  156OSM    H9F17473   3.035   1.306   3.966 -1.8317 -0.6130 -1.9309
  156OSM   C10F17474   2.878   1.318   4.101 -0.5138 -0.6453 -0.3298
  156OSM   H10F17475   2.907   1.218   4.139  0.1084 -0.0752  0.7528
  156OSM   C11F17476   2.765   1.403   4.148  0.3868  0.8495  0.2346
  156OSM   H11F17477   2.674   1.341   4.136  1.1602 -0.5355  1.1980
  156OSM   H11G17478   2.752   1.502   4.100 -0.3006 -0.1585 -1.7982
  156OSM   C12F17479   2.762   1.436   4.302  0.4083 -0.2993 -0.9887
  156OSM   H12F17480   2.660   1.468   4.331  0.0207  1.2280 -3.6424
  156OSM   H12G17481   2.842   1.510   4.325  1.7646 -2.3185  1.1479
  156OSM   C13F17482   2.792   1.312   4.388 -0.0637  0.2330  0.2278
  156OSM   H13F17483   2.886   1.255   4.370 -0.8534 -1.0025 -0.0936
  156OSM   H13G17484   2.711   1.244   4.354  0.3621 -0.8217  1.2358
  156OSM   C14F17485   2.790   1.326   4.544 -0.4923 -0.1979  0.3025
  156OSM   H14F17486   2.820   1.227   4.585 -1.8091 -0.9355 -0.4445
  156OSM   H14G17487   2.684   1.351   4.567 -0.5517 -0.1895  0.0240
  156OSM   C15F17488   2.881   1.437   4.595 -0.3296 -0.0759 -0.1017
  156OSM   H15F17489   2.848   1.534   4.551 -2.6983  0.6974  3.0498
  156OSM   H15G17490   2.983   1.404   4.564 -0.8339 -1.4614 -0.3519
  156OSM   C16F17491   2.892   1.453   4.751 -0.9384 -0.2058  0.4765
  156OSM   H16F17492   2.963   1.538   4.763 -2.0246  0.6826  0.6940
  156OSM   H16G17493   2.918   1.364   4.811 -2.0738 -0.2804  0.8748
  156OSM   C17F17494   2.769   1.503   4.813 -0.0812  0.4490  0.0449
  156OSM   H17F17495   2.679   1.445   4.784  0.7561 -2.2669  2.4901
  156OSM   H17G17496   2.752   1.605   4.771  0.4330  0.0306 -1.2383
  156OSM   C18F17497   2.780   1.514   4.969 -0.8183 -0.2819  0.2275
  156OSM   H18F17498   2.874   1.568   4.995 -0.6227 -0.7607  0.5334
  156OSM   H18G17499   2.773   1.406   4.991 -0.5450 -0.3545 -0.0413
  156OSM   H18H17500   2.691   1.566   5.010  0.5078  0.2909  2.6529
  157OSM      N17501   2.586   2.785   2.307  0.4433 -0.2732  0.4510
  157OSM    C1517502   2.437   2.801   2.279  0.4343  0.1399 -0.1820
  157OSM   H15A17503   2.370   2.763   2.354 -1.3757  2.4936 -0.4884
  157OSM   H15B17504   2.401   2.751   2.190 -1.1738  0.4282  0.2752
  157OSM   H15C17505   2.403   2.903   2.286 -2.2973 -0.6638 -0.2738
  157OSM    C1417506   2.663   2.878   2.210  0.7253 -0.4869 -0.5214
  157OSM   H14A17507   2.769   2.883   2.229  0.2243  2.9554  2.5240
  157OSM   H14B17508   2.624   2.979   2.214  0.2103 -0.6963 -0.0602
  157OSM   H14C17509   2.651   2.846   2.108 -0.3664 -1.2605 -0.1666
  157OSM    C1317510   2.613   2.818   2.451 -0.0948  0.5969 -0.0632
  157OSM   H13A17511   2.582   2.917   2.481 -1.9662  0.0527 -0.0849
  157OSM   H13B17512   2.720   2.813   2.459  0.2504  1.7846 -2.7808
  157OSM   H13C17513   2.567   2.750   2.521 -1.6357 -0.0768 -1.6691
  157OSM    C1217514   2.633   2.649   2.271  0.0781 -0.8976  0.5453
  157OSM   H12A17515   2.741   2.645   2.275  0.3604 -0.2776 -3.2831
  157OSM   H12B17516   2.610   2.635   2.166 -0.9710  1.1077  0.4667
  157OSM    C1117517   2.582   2.519   2.351 -0.1095 -0.2690  0.4023
  157OSM   H11A17518   2.621   2.421   2.317  0.7065  0.9884 -2.6622
  157OSM   H11B17519   2.476   2.517   2.320 -0.4983  1.8186  1.3991
  157OSM      P17520   2.731   2.527   2.556  0.4861 -0.1443 -0.0047
  157OSM    O1317521   2.768   2.385   2.532  0.4015 -0.5774 -0.2384
  157OSM    O1417522   2.823   2.623   2.503  0.1586  0.2869 -0.2726
  157OSM    O1117523   2.717   2.556   2.716  0.4694  0.6146  0.3150
  157OSM    O1217524   2.586   2.549   2.491 -0.4907 -0.1176 -0.7055
  157OSM    C1S17525   2.713   2.452   2.810 -0.4493 -0.0740  0.1795
  157OSM    H1S17526   2.815   2.406   2.807 -1.3745 -2.2060 -1.4876
  157OSM    H1T17527   2.640   2.372   2.785  0.3778 -1.3016  1.5109
  157OSM     NF17528   2.724   2.430   3.067 -0.8976  0.0848  0.3035
  157OSM    HNF17529   2.646   2.400   3.122 -0.2998 -0.7735  0.7122
  157OSM    C2S17530   2.686   2.514   2.951  0.0285 -0.3672 -0.3954
  157OSM    H2S17531   2.747   2.607   2.950 -1.8833  0.9480 -0.2825
  157OSM    C3S17532   2.539   2.568   2.956  0.0160 -0.4329 -1.0584
  157OSM    H3S17533   2.475   2.479   2.972  0.6197 -0.6981 -0.0473
  157OSM     O317534   2.495   2.633   2.839 -1.0403 -0.5684 -0.4006
  157OSM    HO317535   2.570   2.613   2.781 -1.0281  1.4204 -1.1561
  157OSM    C4S17536   2.509   2.660   3.075  0.8111 -0.0654 -0.7341
  157OSM    H4S17537   2.576   2.742   3.106  0.8434 -0.6405  0.8201
  157OSM    C5S17538   2.404   2.655   3.163 -0.0596 -0.1348  0.4490
  157OSM    H5S17539   2.318   2.590   3.143 -0.7869  0.5762  1.1846
  157OSM    C6S17540   2.379   2.742   3.288  0.6155  0.1414 -0.6786
  157OSM    H6S17541   2.373   2.676   3.377 -0.9239  1.3463  0.1613
  157OSM    H6T17542   2.284   2.800   3.291 -0.0389 -0.9516  0.8687
  157OSM    C7S17543   2.496   2.839   3.330  0.2136 -0.2616  0.1389
  157OSM    H7S17544   2.513   2.901   3.239  2.9393  0.0986  0.8014
  157OSM    H7T17545   2.585   2.775   3.350 -1.8927 -3.6148 -0.3568
  157OSM    C8S17546   2.465   2.933   3.453 -0.2141  0.7267  0.2709
  157OSM    H8S17547   2.472   2.875   3.548 -2.3664  1.1004  0.7153
  157OSM    H8T17548   2.369   2.990   3.452 -1.0832 -0.6531  1.0664
  157OSM    C9S17549   2.581   3.037   3.450  0.1683 -0.2887  0.2944
  157OSM    H9S17550   2.562   3.104   3.364 -1.3897 -0.2630  0.6148
  157OSM    H9T17551   2.677   2.983   3.461  0.3096  0.0431  0.7124
  157OSM   C10S17552   2.570   3.132   3.573 -0.3359 -0.4050 -0.3166
  157OSM   H10S17553   2.483   3.200   3.585  1.5229  1.8570  1.0358
  157OSM   H10T17554   2.659   3.196   3.586 -1.8681  1.8758 -0.4418
  157OSM   C11S17555   2.572   3.037   3.702  0.9276 -0.2792 -0.4882
  157OSM   H11S17556   2.649   2.958   3.691  1.6065  0.4862 -1.4151
  157OSM   H11T17557   2.474   2.992   3.727  0.3903  0.8236 -0.5637
  157OSM   C12S17558   2.596   3.122   3.829 -0.2484  0.8380 -0.0859
  157OSM   H12S17559   2.507   3.186   3.848 -1.1522 -0.5129  0.3722
  157OSM   H12T17560   2.687   3.181   3.810  0.1531  0.7582  1.4457
  157OSM   C13S17561   2.612   3.037   3.959  0.7338  0.2211 -0.7696
  157OSM   H13S17562   2.685   2.954   3.944  0.9411 -0.0028  1.1633
  157OSM   H13T17563   2.508   2.998   3.974  0.9578 -0.5281 -1.1013
  157OSM   C14S17564   2.643   3.131   4.077 -0.7473  0.3070 -0.5204
  157OSM   H14S17565   2.559   3.204   4.069  0.3340  2.0188  2.4019
  157OSM   H14T17566   2.733   3.192   4.056 -2.7272  3.1562 -1.3954
  157OSM   C15S17567   2.624   3.058   4.215  0.2986 -0.0099 -0.8589
  157OSM   H15S17568   2.694   2.974   4.231  0.9582  0.3420 -1.7781
  157OSM   H15T17569   2.528   3.002   4.206 -0.4079  1.1350 -0.6621
  157OSM   C16S17570   2.635   3.142   4.333  0.0934 -0.4310 -0.2688
  157OSM   H16S17571   2.539   3.195   4.348  1.0357  0.4271  3.8617
  157OSM   H16T17572   2.724   3.209   4.327  0.6517 -1.1324  0.0777
  157OSM   C17S17573   2.664   3.063   4.465 -0.1712  0.5220  0.7374
  157OSM   H17S17574   2.763   3.014   4.464  1.0229  2.7645  1.4277
  157OSM   H17T17575   2.589   2.981   4.468 -0.0330  0.4199  3.2922
  157OSM   C18S17576   2.638   3.144   4.597  0.3589 -0.2350  0.1436
  157OSM   H18S17577   2.532   3.177   4.602  0.2331 -0.7227  1.0483
  157OSM   H18T17578   2.719   3.219   4.611  0.2116 -0.1116  0.3364
  157OSM   H18U17579   2.646   3.083   4.690 -1.5520 -0.6975  0.0498
  157OSM    C1F17580   2.843   2.379   3.097 -0.1783 -1.3722 -0.0699
  157OSM     OF17581   2.941   2.422   3.035  0.8936  0.5460 -0.4126
  157OSM    C2F17582   2.860   2.278   3.202 -0.6168  0.2902 -0.2406
  157OSM    H2F17583   2.764   2.261   3.255 -0.6972  3.2084  0.7551
  157OSM    H2G17584   2.944   2.304   3.271  1.1546 -1.3259 -1.6642
  157OSM    C3F17585   2.894   2.137   3.140 -0.0026  0.5172  0.0187
  157OSM    H3F17586   2.993   2.135   3.090  0.9527  0.9582  1.7932
  157OSM    H3G17587   2.811   2.122   3.067  0.1777  0.6504 -0.2121
  157OSM    C4F17588   2.899   2.015   3.243 -0.0509 -0.7391 -0.6900
  157OSM    H4F17589   2.906   1.919   3.188  0.1219  0.0535 -2.1067
  157OSM    H4G17590   2.806   2.031   3.302  0.6369  0.7355  0.0614
  157OSM    C5F17591   3.023   2.043   3.336 -0.4264  0.4907 -0.3905
  157OSM    H5F17592   2.989   2.128   3.399  0.1334 -0.6415  1.5389
  157OSM    H5G17593   3.114   2.063   3.277  0.9379  0.7168  1.6766
  157OSM    C6F17594   3.048   1.933   3.444 -0.6169  0.1482  0.2689
  157OSM    H6F17595   2.966   1.931   3.519  1.6415  1.6502  2.9135
  157OSM    H6G17596   3.136   1.976   3.496 -0.2477 -0.0900 -0.1524
  157OSM    C7F17597   3.085   1.800   3.387  0.0390 -0.1177 -0.1420
  157OSM    H7F17598   3.120   1.814   3.283 -0.1382 -1.6925 -0.4391
  157OSM    H7G17599   2.992   1.740   3.378 -0.2229 -0.2458  2.6487
  157OSM    C8F17600   3.182   1.702   3.462 -0.3591  0.0641  0.1539
  157OSM    H8F17601   3.213   1.616   3.398  1.1108  0.1423  0.7238
  157OSM    H8G17602   3.121   1.662   3.545 -0.5011 -0.5850 -0.2503
  157OSM    C9F17603   3.300   1.778   3.518 -1.5246  0.5413  0.2270
  157OSM    H9F17604   3.373   1.816   3.445 -0.7383 -1.6764 -0.2213
  157OSM   C10F17605   3.332   1.782   3.651 -0.5187 -0.0660  0.2639
  157OSM   H10F17606   3.418   1.847   3.674 -1.9362  0.9274  3.1999
  157OSM   C11F17607   3.272   1.717   3.770 -0.2509 -0.2680  0.7430
  157OSM   H11F17608   3.331   1.623   3.773  2.2564  1.1762 -0.1425
  157OSM   H11G17609   3.163   1.701   3.753  0.1267 -0.0716 -2.3653
  157OSM   C12F17610   3.314   1.787   3.902 -0.6443 -0.7011 -0.3488
  157OSM   H12F17611   3.285   1.894   3.905 -1.6366 -0.9479 -0.6855
  157OSM   H12G17612   3.422   1.785   3.927 -0.1956  1.6422 -1.7937
  157OSM   C13F17613   3.263   1.714   4.025  0.0082 -0.2055 -0.4811
  157OSM   H13F17614   3.293   1.607   4.027  3.7118  0.6736 -1.6792
  157OSM   H13G17615   3.151   1.715   4.024  0.0005  0.4265  0.1794
  157OSM   C14F17616   3.312   1.775   4.157  0.5743 -0.6176  0.5160
  157OSM   H14F17617   3.279   1.880   4.172 -1.0570 -1.4441  3.7758
  157OSM   H14G17618   3.422   1.764   4.158  0.7503  0.5375 -1.1839
  157OSM   C15F17619   3.255   1.702   4.276 -0.5304 -0.1591 -0.2043
  157OSM   H15F17620   3.272   1.593   4.264 -0.9390 -0.4520  1.5329
  157OSM   H15G17621   3.146   1.714   4.291 -0.8406 -0.4738 -2.0051
  157OSM   C16F17622   3.336   1.740   4.402 -0.1562 -0.3198  0.3232
  157OSM   H16F17623   3.300   1.840   4.435 -0.5063 -1.1206  2.5102
  157OSM   H16G17624   3.446   1.746   4.385 -0.1019 -0.5591  0.5790
  157OSM   C17F17625   3.304   1.660   4.534  0.1654  1.0809 -0.6484
  157OSM   H17F17626   3.309   1.551   4.517  1.5505  1.0219 -0.0066
  157OSM   H17G17627   3.203   1.686   4.574 -0.6342 -1.8275 -0.5615
  157OSM   C18F17628   3.432   1.665   4.624  0.7095 -0.2870  0.7592
  157OSM   H18F17629   3.519   1.613   4.580  0.3899 -0.8751  0.8096
  157OSM   H18G17630   3.403   1.632   4.727 -4.4788  0.0543 -0.2861
  157OSM   H18H17631   3.468   1.768   4.644 -1.6064  0.6834  0.2380
  158OSM      N17632   5.855   1.041   2.840 -0.3169 -0.3760  0.4512
  158OSM    C1517633   5.809   0.901   2.800  0.0774  0.1603 -0.2058
  158OSM   H15A17634   5.854   0.832   2.870  2.1059  2.6970  1.1779
  158OSM   H15B17635   5.833   0.866   2.701 -0.6529 -3.0103  0.6548
  158OSM   H15C17636   5.702   0.896   2.804  0.1719 -0.9179  2.0467
  158OSM    C1417637   5.783   1.141   2.744 -0.7335  0.1022  0.0936
  158OSM   H14A17638   5.675   1.142   2.755 -0.7940 -1.3477 -0.1482
  158OSM   H14B17639   5.790   1.112   2.641 -1.7330  2.7961 -0.8210
  158OSM   H14C17640   5.820   1.242   2.752 -1.2240  0.2225  1.1033
  158OSM    C1317641   5.808   1.068   2.981 -0.2585 -0.0644  0.1019
  158OSM   H13A17642   5.825   1.170   3.010  0.3158  0.2757 -1.4029
  158OSM   H13B17643   5.852   0.995   3.048  1.0500  0.8279  0.2480
  158OSM   H13C17644   5.700   1.067   2.987 -0.2243 -0.1836  0.9340
  158OSM    C1217645   6.006   1.037   2.834  0.0986  0.9111 -0.2517
  158OSM   H12A17646   6.054   1.027   2.737  1.0480 -0.0279  0.2877
  158OSM   H12B17647   6.039   0.943   2.876 -1.7043  1.3139  2.2614
  158OSM    C1117648   6.079   1.146   2.911 -0.2524 -0.1241 -0.2582
  158OSM   H11A17649   6.187   1.126   2.896 -0.2901 -0.2308 -0.3933
  158OSM   H11B17650   6.060   1.144   3.021 -1.8812  0.5647 -0.5003
  158OSM      P17651   6.132   1.379   2.802  0.0537 -0.4701 -0.1192
  158OSM    O1317652   6.177   1.331   2.671 -0.1395  0.3002 -0.3053
  158OSM    O1417653   6.073   1.517   2.808  0.4224 -0.2245 -0.0916
  158OSM    O1117654   6.252   1.378   2.900  0.1988 -0.0858  0.2953
  158OSM    O1217655   6.035   1.278   2.867  0.1880  0.2524 -0.5095
  158OSM    C1S17656   6.229   1.422   3.041  0.4557 -0.8524 -0.4554
  158OSM    H1S17657   6.136   1.379   3.084  0.1632  0.4573  0.2695
  158OSM    H1T17658   6.214   1.532   3.042 -1.4494 -1.0735  0.3081
  158OSM     NF17659   6.312   1.422   3.279  0.0691  0.0574  0.0605
  158OSM    HNF17660   6.372   1.492   3.318 -1.6476  2.2499 -1.0303
  158OSM    C2S17661   6.345   1.385   3.139 -0.0150 -0.7420  0.3196
  158OSM    H2S17662   6.356   1.275   3.148 -1.2804 -0.7871  1.7499
  158OSM    C3S17663   6.486   1.445   3.091 -0.0519  0.4440 -0.7567
  158OSM    H3S17664   6.490   1.553   3.119  2.6771  0.2361 -0.1000
  158OSM     O317665   6.510   1.435   2.953  0.1207  0.2271  0.5866
  158OSM    HO317666   6.434   1.388   2.919  1.7185 -3.8079  2.0117
  158OSM    C4S17667   6.593   1.376   3.173 -0.1000  0.1883  0.2112
  158OSM    H4S17668   6.609   1.270   3.147  2.5054  0.8330 -1.1117
  158OSM    C5S17669   6.673   1.427   3.262 -0.3196  0.1525 -0.3739
  158OSM    H5S17670   6.667   1.533   3.290 -0.7655  0.1263 -0.3626
  158OSM    C6S17671   6.778   1.339   3.322  0.3721  0.0818 -0.5820
  158OSM    H6S17672   6.869   1.396   3.351  0.6591 -1.3482  1.5205
  158OSM    H6T17673   6.800   1.251   3.258  2.0741 -0.6467  0.9050
  158OSM    C7S17674   6.714   1.289   3.455 -0.6375  0.4624  0.0950
  158OSM    H7S17675   6.699   1.374   3.526  0.9315  0.3074  0.6339
  158OSM    H7T17676   6.796   1.226   3.496  0.9016  1.9578 -0.5890
  158OSM    C8S17677   6.588   1.201   3.445  0.6886  0.1265  0.5670
  158OSM    H8S17678   6.612   1.126   3.366  3.0143  1.4145 -0.0618
  158OSM    H8T17679   6.496   1.257   3.420 -1.1204 -2.5193  0.9273
  158OSM    C9S17680   6.544   1.130   3.574 -0.3288  0.5403  0.7853
  158OSM    H9S17681   6.631   1.079   3.622  0.3851 -0.9152 -1.8328
  158OSM    H9T17682   6.468   1.052   3.550 -0.0404  0.5895 -0.3732
  158OSM   C10S17683   6.490   1.228   3.686  0.3680  0.1792 -0.1120
  158OSM   H10S17684   6.431   1.301   3.627  1.0048 -2.2952 -4.2081
  158OSM   H10T17685   6.579   1.287   3.717 -0.2612  2.6821 -2.6786
  158OSM   C11S17686   6.413   1.166   3.797 -1.1853 -0.3964 -0.4424
  158OSM   H11S17687   6.481   1.092   3.845 -1.2170  1.1952  2.2571
  158OSM   H11T17688   6.336   1.092   3.766 -2.8440  0.6307  1.0688
  158OSM   C12S17689   6.367   1.258   3.916 -0.9062  0.0082  0.2832
  158OSM   H12S17690   6.307   1.341   3.875 -1.9638  0.1681  2.0348
  158OSM   H12T17691   6.448   1.304   3.976 -0.2728 -1.5098  0.6496
  158OSM   C13S17692   6.298   1.171   4.019  0.7915  0.3159  0.8851
  158OSM   H13S17693   6.362   1.087   4.055 -1.6841 -2.6353 -1.1316
  158OSM   H13T17694   6.224   1.122   3.953  0.2021  0.7465  1.2134
  158OSM   C14S17695   6.220   1.252   4.130  0.0196  0.3085 -0.3205
  158OSM   H14S17696   6.156   1.322   4.073 -0.9827 -2.1134 -2.3708
  158OSM   H14T17697   6.291   1.309   4.195  0.7796 -1.4946  0.5212
  158OSM   C15S17698   6.133   1.168   4.210 -0.7768  0.0791  0.3833
  158OSM   H15S17699   6.070   1.099   4.152 -2.8546 -0.8920  3.5223
  158OSM   H15T17700   6.063   1.240   4.258 -1.7129 -1.0428  0.7284
  158OSM   C16S17701   6.209   1.085   4.318  0.2639  0.3783 -0.1239
  158OSM   H16S17702   6.274   1.153   4.376  1.4060 -0.5382 -0.3031
  158OSM   H16T17703   6.284   1.016   4.275  0.6442  0.5118  0.3266
  158OSM   C17S17704   6.122   0.991   4.390  0.7787  0.2838  0.2577
  158OSM   H17S17705   6.082   0.921   4.313 -0.3884 -0.2639  1.3316
  158OSM   H17T17706   6.041   1.055   4.430 -1.4407 -2.0148 -0.2861
  158OSM   C18S17707   6.180   0.914   4.507 -0.3664  0.5824  0.1117
  158OSM   H18S17708   6.247   0.835   4.467 -2.0765 -1.0810  0.3536
  158OSM   H18T17709   6.106   0.857   4.568  0.1613 -0.2213  0.0183
  158OSM   H18U17710   6.238   0.989   4.564 -1.6101  1.6105  0.0879
  158OSM    C1F17711   6.212   1.364   3.347  1.0056 -0.3875 -0.0676
  158OSM     OF17712   6.141   1.274   3.301 -0.3242 -0.0306  0.0167
  158OSM    C2F17713   6.183   1.426   3.481 -0.2477 -0.0962 -0.6819
  158OSM    H2F17714   6.183   1.535   3.459  0.2849 -0.3660 -2.1928
  158OSM    H2G17715   6.267   1.402   3.549  1.2006  0.3424 -2.2443
  158OSM    C3F17716   6.041   1.400   3.521 -0.5203 -0.4324 -0.6337
  158OSM    H3F17717   6.055   1.290   3.532 -1.7853 -0.6277 -0.8853
  158OSM    H3G17718   5.969   1.415   3.438 -1.1218 -0.2707 -0.0848
  158OSM    C4F17719   6.015   1.458   3.668 -0.1899  0.1806  1.3357
  158OSM    H4F17720   6.047   1.564   3.672  0.2112  0.0640  1.3803
  158OSM    H4G17721   6.091   1.411   3.734  1.6784 -0.7453 -1.2929
  158OSM    C5F17722   5.867   1.434   3.718  0.7846  0.7532 -0.0656
  158OSM    H5F17723   5.800   1.499   3.657 -0.5327 -0.6095 -0.1072
  158OSM    H5G17724   5.865   1.466   3.824  1.7051 -1.0970  0.5491
  158OSM    C6F17725   5.813   1.288   3.700 -0.3045 -0.1191 -0.7648
  158OSM    H6F17726   5.818   1.260   3.592  0.5999 -0.7078 -0.5915
  158OSM    H6G17727   5.708   1.292   3.734 -0.3427 -2.6395 -0.3645
  158OSM    C7F17728   5.898   1.179   3.784  0.3231 -0.3177 -0.7640
  158OSM    H7F17729   5.905   1.219   3.887 -2.0417  1.8343 -1.3408
  158OSM    H7G17730   5.999   1.175   3.738  0.6248  2.2482 -0.4298
  158OSM    C8F17731   5.846   1.037   3.785  0.0585  0.0056 -0.1162
  158OSM    H8F17732   5.856   0.991   3.684  0.7710  2.2160 -1.1325
  158OSM    H8G17733   5.738   1.040   3.809 -0.5367 -1.5264 -2.3490
  158OSM    C9F17734   5.926   0.948   3.880  0.1260 -1.1012  0.0236
  158OSM    H9F17735   6.014   0.903   3.832  1.2787  0.2309  0.8203
  158OSM   C10F17736   5.897   0.940   4.012 -0.0787 -0.8104 -0.5417
  158OSM   H10F17737   5.950   0.864   4.073 -0.0666  0.9433  1.7645
  158OSM   C11F17738   5.784   1.012   4.078 -0.4884 -0.3831  0.5719
  158OSM   H11F17739   5.723   1.077   4.012 -1.9938  0.0410  2.2826
  158OSM   H11G17740   5.824   1.087   4.150 -2.4044  1.8775 -0.5830
  158OSM   C12F17741   5.690   0.919   4.159  0.4898  0.2654 -0.1975
  158OSM   H12F17742   5.635   0.841   4.102  1.8693 -1.3316  0.5798
  158OSM   H12G17743   5.606   0.972   4.209  0.0662 -0.3654 -0.2180
  158OSM   C13F17744   5.761   0.847   4.280  1.0159 -0.6714 -0.6964
  158OSM   H13F17745   5.791   0.928   4.350 -0.9380 -1.2635  0.9126
  158OSM   H13G17746   5.847   0.800   4.228  0.5781 -0.5264 -1.5743
  158OSM   C14F17747   5.673   0.751   4.354  0.2457  0.7416  0.2409
  158OSM   H14F17748   5.735   0.677   4.409  0.2447 -0.0571 -0.8132
  158OSM   H14G17749   5.618   0.693   4.277  0.8957 -0.4869  0.6864
  158OSM   C15F17750   5.570   0.800   4.466  0.1344 -0.2061 -0.6891
  158OSM   H15F17751   5.498   0.864   4.410 -0.8654 -1.0267 -0.3623
  158OSM   H15G17752   5.629   0.865   4.534  0.4082  0.1492 -1.2553
  158OSM   C16F17753   5.486   0.685   4.525 -0.0415  0.1103  0.3786
  158OSM   H16F17754   5.551   0.595   4.516 -0.7985 -0.2874 -1.9362
  158OSM   H16G17755   5.402   0.664   4.455  0.4520 -0.4022 -0.0822
  158OSM   C17F17756   5.436   0.710   4.666 -0.1485  0.5318  0.5847
  158OSM   H17F17757   5.356   0.787   4.669  0.0002  0.6966  0.2762
  158OSM   H17G17758   5.516   0.731   4.741 -1.7577  0.2638  2.4682
  158OSM   C18F17759   5.366   0.584   4.725  0.5949 -0.5824 -0.4052
  158OSM   H18F17760   5.293   0.542   4.652  0.8895  0.7705 -1.5321
  158OSM   H18G17761   5.330   0.606   4.827  1.3405  0.6731 -0.3896
  158OSM   H18H17762   5.434   0.498   4.736 -0.0209 -0.9309  0.8134
  159OSM      N17763   2.877   3.776   2.116 -0.0518 -0.5028 -0.2478
  159OSM    C1517764   2.935   3.852   2.002  0.1200  0.0619 -0.3907
  159OSM   H15A17765   2.881   3.941   1.973  0.6392  0.8365  0.9542
  159OSM   H15B17766   2.943   3.792   1.912 -2.8762  0.1954 -0.8520
  159OSM   H15C17767   3.034   3.889   2.023  0.3470 -0.6372 -0.1722
  159OSM    C1417768   2.721   3.778   2.117  0.3864  0.4734  0.6059
  159OSM   H14A17769   2.689   3.729   2.208  3.1122  0.7213  1.7707
  159OSM   H14B17770   2.672   3.750   2.024  0.3386 -4.2253  1.7940
  159OSM   H14C17771   2.694   3.883   2.119  0.0243  0.3789  0.7118
  159OSM    C1317772   2.922   3.638   2.107 -0.2745 -0.1103 -1.0417
  159OSM   H13A17773   3.028   3.623   2.094 -0.1992  0.8780 -1.7485
  159OSM   H13B17774   2.878   3.590   2.020 -0.4143  0.2640 -1.1819
  159OSM   H13C17775   2.890   3.586   2.195 -2.0454 -1.6720 -2.5264
  159OSM    C1217776   2.926   3.837   2.249  0.4937  0.1730  0.5700
  159OSM   H12A17777   2.919   3.945   2.242  1.6743  0.2159 -0.1178
  159OSM   H12B17778   3.030   3.810   2.263 -0.3396 -2.3173  2.6273
  159OSM    C1117779   2.845   3.804   2.372 -0.4516 -0.8116 -0.1359
  159OSM   H11A17780   2.738   3.835   2.380  0.4656  2.5311  0.6576
  159OSM   H11B17781   2.888   3.858   2.459  1.3987  0.5715 -1.8153
  159OSM      P17782   2.752   3.562   2.436  0.0863 -0.1988  0.0810
  159OSM    O1317783   2.625   3.633   2.447  0.0208  0.2393 -0.9330
  159OSM    O1417784   2.759   3.462   2.327  0.0605 -0.0244  0.4946
  159OSM    O1117785   2.802   3.500   2.574 -0.1842  0.0110 -0.2709
  159OSM    O1217786   2.870   3.666   2.406  0.0100 -0.5530 -0.4365
  159OSM    C1S17787   2.853   3.609   2.654  0.3021 -0.1377 -0.4987
  159OSM    H1S17788   2.804   3.708   2.647  0.4694  0.0429  0.7373
  159OSM    H1T17789   2.963   3.619   2.644  0.8493 -3.4999  0.8135
  159OSM     NF17790   2.803   3.680   2.892  0.3421 -0.1824  0.0134
  159OSM    HNF17791   2.873   3.709   2.956 -0.5748  2.0394  0.1002
  159OSM    C2S17792   2.826   3.567   2.801  0.0635 -0.1518 -0.5724
  159OSM    H2S17793   2.736   3.502   2.809  1.1259 -1.4918  1.2792
  159OSM    C3S17794   2.945   3.478   2.842  0.6948  0.3483  0.2503
  159OSM    H3S17795   3.029   3.551   2.848  1.2556 -0.2521 -0.2292
  159OSM     O317796   2.978   3.371   2.747  0.1282 -0.1280  0.0840
  159OSM    HO317797   2.910   3.383   2.680  1.0467 -0.3928 -0.9231
  159OSM    C4S17798   2.924   3.411   2.974  0.0441  0.2951 -0.6333
  159OSM    H4S17799   2.838   3.343   2.986  0.8022 -0.3987  1.2263
  159OSM    C5S17800   3.000   3.428   3.083 -0.3515 -0.6210  0.2777
  159OSM    H5S17801   3.088   3.494   3.075 -1.5651  0.9260 -1.0539
  159OSM    C6S17802   2.978   3.358   3.210  0.3598 -0.5964 -0.6401
  159OSM    H6S17803   2.872   3.329   3.229  0.9382 -3.8563 -1.8516
  159OSM    H6T17804   3.011   3.423   3.294 -0.1839 -0.2926 -0.6499
  159OSM    C7S17805   3.039   3.215   3.208  0.2057 -0.8393  0.2861
  159OSM    H7S17806   3.147   3.223   3.184 -0.1085  2.0611 -0.5785
  159OSM    H7T17807   2.989   3.162   3.124 -0.3150  1.1431 -0.7039
  159OSM    C8S17808   3.025   3.142   3.346  0.1862 -0.3693  0.0947
  159OSM    H8S17809   3.108   3.068   3.346  0.3279 -0.2871 -2.0916
  159OSM    H8T17810   2.927   3.090   3.339  0.8148 -1.7091  0.8451
  159OSM    C9S17811   3.040   3.231   3.473 -1.1524  0.6252 -1.0199
  159OSM    H9S17812   2.958   3.306   3.477  0.6286  2.6185 -0.1437
  159OSM    H9T17813   3.137   3.285   3.469 -0.0646 -0.7658  2.4421
  159OSM   C10S17814   3.031   3.149   3.602 -0.3656  0.2346  0.0865
  159OSM   H10S17815   3.090   3.058   3.625 -0.2488  0.4487  0.6337
  159OSM   H10T17816   2.926   3.116   3.618 -0.7721  1.4545  0.0743
  159OSM   C11S17817   3.063   3.241   3.730  0.6549 -0.0456  0.0589
  159OSM   H11S17818   2.986   3.320   3.730  2.2369  1.5722 -0.5235
  159OSM   H11T17819   3.165   3.282   3.714  1.3775 -1.4158  0.9664
  159OSM   C12S17820   3.059   3.165   3.864 -0.2187 -0.0404 -0.0070
  159OSM   H12S17821   3.135   3.084   3.873  1.2942  1.2604 -0.4946
  159OSM   H12T17822   2.962   3.116   3.883 -0.5538 -0.8796 -3.2337
  159OSM   C13S17823   3.082   3.264   3.983  0.4682  0.6815  0.3451
  159OSM   H13S17824   2.985   3.310   4.014 -1.2235 -1.6774 -1.0935
  159OSM   H13T17825   3.156   3.339   3.949 -0.1867  0.8050 -0.8657
  159OSM   C14S17826   3.148   3.196   4.104 -0.0882 -1.0531  0.1401
  159OSM   H14S17827   3.244   3.151   4.070 -0.3274 -2.0930  0.8098
  159OSM   H14T17828   3.095   3.106   4.140 -0.6120 -0.8325 -0.0648
  159OSM   C15S17829   3.191   3.294   4.218  0.3884  0.4917 -0.1631
  159OSM   H15S17830   3.260   3.362   4.163  1.2186 -1.9310 -2.3327
  159OSM   H15T17831   3.250   3.237   4.291 -0.5578  0.2736  0.4529
  159OSM   C16S17832   3.067   3.353   4.280  0.7425  0.0815 -0.5848
  159OSM   H16S17833   3.001   3.270   4.311  1.4080  0.1604  1.1458
  159OSM   H16T17834   3.004   3.406   4.206 -1.8260  0.0012  1.4078
  159OSM   C17S17835   3.095   3.434   4.402 -0.1889  0.4235 -0.4854
  159OSM   H17S17836   3.138   3.529   4.364  0.7172  0.8088  1.3672
  159OSM   H17T17837   3.183   3.398   4.459  0.3367  0.5041 -1.2362
  159OSM   C18S17838   2.979   3.455   4.504 -0.5209  0.6179  0.4616
  159OSM   H18S17839   3.004   3.516   4.593 -0.8781 -0.2923  1.2021
  159OSM   H18T17840   2.934   3.366   4.551 -1.9301  2.5335  3.0125
  159OSM   H18U17841   2.896   3.512   4.456  1.9273  3.2915 -0.9174
  159OSM    C1F17842   2.692   3.754   2.891  0.0437 -0.4312  0.3098
  159OSM     OF17843   2.607   3.745   2.803  0.1542  0.1486 -0.3734
  159OSM    C2F17844   2.679   3.856   2.998 -0.0564 -0.5940 -0.5632
  159OSM    H2F17845   2.783   3.885   3.024 -0.9755  1.3942  1.2009
  159OSM    H2G17846   2.642   3.800   3.086  0.6177  2.1539  1.6206
  159OSM    C3F17847   2.586   3.977   2.969  0.2537 -0.2081  0.3702
  159OSM    H3F17848   2.607   4.009   2.865 -2.6422  2.3336  0.4182
  159OSM    H3G17849   2.595   4.056   3.047  1.0478  1.0855 -0.9925
  159OSM    C4F17850   2.438   3.927   2.964  0.5944 -0.5723 -0.5940
  159OSM    H4F17851   2.418   3.906   3.072 -2.8562 -1.0457 -1.1851
  159OSM    H4G17852   2.438   3.830   2.910 -1.7714 -2.0634  1.7866
  159OSM    C5F17853   2.330   4.025   2.906 -0.4355 -0.3126 -0.3324
  159OSM    H5F17854   2.242   3.957   2.902 -0.1492 -0.6304 -1.6767
  159OSM    H5G17855   2.369   4.060   2.808 -1.9398  1.8470 -0.2316
  159OSM    C6F17856   2.308   4.141   2.998  0.1533 -0.4035  0.2184
  159OSM    H6F17857   2.399   4.203   3.015 -0.0600  0.1537 -0.5787
  159OSM    H6G17858   2.271   4.096   3.093 -1.2483 -3.3011 -1.5579
  159OSM    C7F17859   2.200   4.240   2.946 -0.4823  0.4746  0.1275
  159OSM    H7F17860   2.110   4.182   2.917 -2.1162  2.6749  0.5177
  159OSM    H7G17861   2.240   4.275   2.848  0.3870  3.3863  1.4210
  159OSM    C8F17862   2.174   4.369   3.028 -0.5079 -0.4780 -0.4822
  159OSM    H8F17863   2.102   4.443   2.988  1.7917  2.4783  0.4427
  159OSM    H8G17864   2.263   4.428   3.060 -1.3013  1.8524 -2.2774
  159OSM    C9F17865   2.111   4.330   3.165 -0.8080  0.9439 -0.0093
  159OSM    H9F17866   2.098   4.222   3.176 -1.2009  0.9505 -0.4072
  159OSM   C10F17867   2.087   4.416   3.270 -0.2070  0.3890 -0.7399
  159OSM   H10F17868   2.050   4.376   3.366 -0.8625  0.6330 -0.8826
  159OSM   C11F17869   2.106   4.567   3.270  0.8464  0.5337 -0.2321
  159OSM   H11F17870   2.041   4.620   3.198  0.1270  1.3254  0.9655
  159OSM   H11G17871   2.209   4.586   3.233  0.8268 -2.4391 -2.2062
  159OSM   C12F17872   2.115   4.642   3.404  0.1958  0.3144  0.3340
  159OSM   H12F17873   2.015   4.656   3.450  0.2020 -1.3806  0.9120
  159OSM   H12G17874   2.161   4.739   3.377  0.6598 -0.0546 -0.2234
  159OSM   C13F17875   2.214   4.575   3.492 -0.8012 -0.5606 -0.3897
  159OSM   H13F17876   2.312   4.573   3.440 -1.0592  0.7422 -0.9593
  159OSM   H13G17877   2.170   4.476   3.518  1.1721 -0.5911  3.6424
  159OSM   C14F17878   2.224   4.641   3.633  0.0711 -0.3983  0.2911
  159OSM   H14F17879   2.128   4.689   3.660 -1.4344 -2.7794 -0.5042
  159OSM   H14G17880   2.301   4.721   3.627  0.3404 -0.2817  3.5843
  159OSM   C15F17881   2.264   4.539   3.736 -0.7924  0.3138 -0.3241
  159OSM   H15F17882   2.361   4.491   3.714 -0.7790  0.1205  0.1514
  159OSM   H15G17883   2.185   4.461   3.737  1.7135 -2.4368 -1.7129
  159OSM   C16F17884   2.270   4.599   3.882  0.3180  0.4285 -1.0136
  159OSM   H16F17885   2.182   4.667   3.887 -1.0391 -1.3366  2.4518
  159OSM   H16G17886   2.364   4.655   3.898 -0.0563  0.9142 -0.4752
  159OSM   C17F17887   2.246   4.481   3.984  0.5565 -0.1342 -0.6849
  159OSM   H17F17888   2.327   4.405   3.975 -1.4075 -2.7694  1.9613
  159OSM   H17G17889   2.148   4.435   3.958  0.5467 -0.5692  0.0910
  159OSM   C18F17890   2.245   4.537   4.131 -0.1915 -0.0689  0.5980
  159OSM   H18F17891   2.206   4.460   4.201  0.2777 -1.0327 -0.1809
  159OSM   H18G17892   2.177   4.625   4.127 -0.3827 -0.0329  3.1358
  159OSM   H18H17893   2.347   4.563   4.168 -0.6268  0.3449  1.5471
  160OSM      N17894   0.637   2.556   2.872 -0.0402 -0.3208  0.1231
  160OSM    C1517895   0.503   2.534   2.930 -0.0199 -0.0916  0.1576
  160OSM   H15A17896   0.508   2.461   3.010  0.1669  0.1157  0.3340
  160OSM   H15B17897   0.433   2.493   2.858  0.4291  1.3154 -1.1340
  160OSM   H15C17898   0.477   2.628   2.977  0.2506 -0.2633  0.6617
  160OSM    C1417899   0.726   2.594   2.985 -0.1325 -0.1405 -0.6286
  160OSM   H14A17900   0.721   2.521   3.064 -0.3528  0.6996  0.1526
  160OSM   H14B17901   0.696   2.692   3.018  1.3632  1.1877 -2.9143
  160OSM   H14C17902   0.827   2.614   2.955 -0.3707  1.0444 -0.6711
  160OSM    C1317903   0.683   2.437   2.810  0.3610  0.0008  0.3883
  160OSM   H13A17904   0.676   2.356   2.881  0.6215 -0.1140  0.2871
  160OSM   H13B17905   0.782   2.450   2.768  1.4012 -3.4372  1.4569
  160OSM   H13C17906   0.621   2.409   2.727  0.1837  0.1950  0.4555
  160OSM    C1217907   0.635   2.672   2.775  0.0577 -0.2956  0.3095
  160OSM   H12A17908   0.548   2.666   2.711 -0.2509  2.4293  0.3533
  160OSM   H12B17909   0.720   2.656   2.710 -1.6777 -4.3401 -1.2968
  160OSM    C1117910   0.643   2.818   2.826 -0.1127 -0.6296  0.0374
  160OSM   H11A17911   0.618   2.888   2.743 -0.0283 -0.9089 -0.2263
  160OSM   H11B17912   0.746   2.844   2.857 -0.3579  0.6146 -0.1301
  160OSM      P17913   0.483   2.976   2.977 -0.4011 -0.1221 -0.5812
  160OSM    O1317914   0.487   3.087   2.875  0.1720  0.5098 -0.3576
  160OSM    O1417915   0.357   2.942   3.039  0.6022  0.3742 -0.0153
  160OSM    O1117916   0.585   2.996   3.099  0.2973 -0.3247  0.0083
  160OSM    O1217917   0.544   2.842   2.927 -0.3961  0.1995 -0.3978
  160OSM    C1S17918   0.709   3.065   3.096  0.2024 -0.0475 -0.1884
  160OSM    H1S17919   0.703   3.157   3.034  0.2347 -0.0874 -0.2512
  160OSM    H1T17920   0.787   2.993   3.062  0.6402  0.0876  0.4922
  160OSM     NF17921   0.874   3.199   3.232  0.1399  0.0588  0.4581
  160OSM    HNF17922   0.959   3.167   3.272  0.3091 -1.9751 -1.3361
  160OSM    C2S17923   0.757   3.106   3.238  0.1960 -0.4674  0.4075
  160OSM    H2S17924   0.666   3.159   3.276 -0.2622  0.3178 -1.6726
  160OSM    C3S17925   0.782   2.977   3.319 -0.0532 -0.3578  0.8408
  160OSM    H3S17926   0.881   2.945   3.281  0.4075  1.6600  0.2087
  160OSM     O317927   0.703   2.858   3.296 -0.0363 -0.4313 -0.0248
  160OSM    HO317928   0.651   2.880   3.218 -0.1781 -0.6903 -0.0027
  160OSM    C4S17929   0.797   3.003   3.463 -0.6875 -0.2455 -0.0212
  160OSM    H4S17930   0.894   2.965   3.498 -0.1193  0.1560 -1.1243
  160OSM    C5S17931   0.700   3.039   3.550 -0.1636  0.1597  0.4674
  160OSM    H5S17932   0.594   3.033   3.519  0.5485 -1.1620 -2.0364
  160OSM    C6S17933   0.736   3.061   3.690 -0.1905  0.2839  0.1045
  160OSM    H6S17934   0.844   3.053   3.715 -0.2219  0.6578  0.3607
  160OSM    H6T17935   0.680   2.991   3.756 -1.4372  1.2309  0.0816
  160OSM    C7S17936   0.683   3.198   3.729  0.3428 -0.5762 -0.0756
  160OSM    H7S17937   0.576   3.207   3.702  0.1872 -0.1166  0.6637
  160OSM    H7T17938   0.737   3.274   3.668  1.5593 -0.6141  0.9180
  160OSM    C8S17939   0.716   3.227   3.877 -0.6566  0.1291  0.0415
  160OSM    H8S17940   0.720   3.132   3.935  0.2194 -1.0995 -1.9503
  160OSM    H8T17941   0.644   3.292   3.932  0.9193  1.6339  0.3929
  160OSM    C9S17942   0.855   3.285   3.912  0.7661 -0.3929  0.2505
  160OSM    H9S17943   0.931   3.252   3.838 -0.6668 -0.7189 -1.1373
  160OSM    H9T17944   0.897   3.246   4.007  3.1871 -1.4391 -1.1474
  160OSM   C10S17945   0.861   3.438   3.921  0.4160  0.2638 -0.5579
  160OSM   H10S17946   0.833   3.487   3.825  0.2858 -1.0667 -1.2171
  160OSM   H10T17947   0.969   3.460   3.937  0.2189 -0.2172  1.7969
  160OSM   C11S17948   0.791   3.514   4.046  0.2115  0.4342  0.1546
  160OSM   H11S17949   0.682   3.492   4.044 -0.6807  3.8998  2.0552
  160OSM   H11T17950   0.806   3.620   4.015 -0.7853 -1.0098 -7.0529
  160OSM   C12S17951   0.847   3.460   4.177  0.3974  0.2500 -0.2713
  160OSM   H12S17952   0.954   3.430   4.174  0.3516 -0.2147  1.4930
  160OSM   H12T17953   0.789   3.372   4.213 -0.1940  0.9687  0.5664
  160OSM   C13S17954   0.816   3.565   4.283  0.0988  0.5530 -0.2966
  160OSM   H13S17955   0.705   3.564   4.283  0.0644 -1.9680  1.1093
  160OSM   H13T17956   0.857   3.663   4.251 -3.1998  1.9816 -0.6011
  160OSM   C14S17957   0.874   3.528   4.414  0.4427  0.0156  0.0792
  160OSM   H14S17958   0.983   3.550   4.418  0.7456 -0.8084 -2.3184
  160OSM   H14T17959   0.857   3.421   4.437 -1.8361  0.1826 -0.5624
  160OSM   C15S17960   0.800   3.606   4.528 -0.4006 -0.1291  0.3507
  160OSM   H15S17961   0.698   3.563   4.524 -0.8517  0.8343  1.1323
  160OSM   H15T17962   0.800   3.714   4.502  0.4849 -0.4480 -1.1165
  160OSM   C16S17963   0.865   3.591   4.663  0.0781 -0.1745  0.8618
  160OSM   H16S17964   0.829   3.653   4.748  0.0136 -1.2558  1.6380
  160OSM   H16T17965   0.970   3.624   4.647  0.1831 -0.8630  0.0397
  160OSM   C17S17966   0.871   3.448   4.703 -0.9422 -0.0764  0.1219
  160OSM   H17S17967   0.950   3.395   4.647  0.3619 -0.0643  1.8636
  160OSM   H17T17968   0.776   3.394   4.683 -0.5187 -1.4573  1.5631
  160OSM   C18S17969   0.925   3.437   4.851  0.1608 -0.1228 -0.2762
  160OSM   H18S17970   0.864   3.501   4.918  1.2598  1.3355 -0.6244
  160OSM   H18T17971   1.030   3.474   4.852  0.1440  0.1418  3.2079
  160OSM   H18U17972   0.918   3.331   4.883 -2.3844 -0.1756 -0.8180
  160OSM    C1F17973   0.863   3.318   3.172  0.6656 -0.3700 -0.8866
  160OSM     OF17974   0.752   3.372   3.167 -0.0324 -0.3191 -0.0332
  160OSM    C2F17975   0.985   3.401   3.122 -0.0234 -0.3306 -0.1675
  160OSM    H2F17976   0.969   3.433   3.017  3.0606  0.8571 -0.3886
  160OSM    H2G17977   1.076   3.338   3.134 -0.3797 -1.1725 -1.6898
  160OSM    C3F17978   0.999   3.534   3.212  0.5204  0.8035 -0.5635
  160OSM    H3F17979   0.902   3.587   3.201 -0.7489 -1.2852  0.0429
  160OSM    H3G17980   1.078   3.596   3.164  0.0985  1.8076  0.0256
  160OSM    C4F17981   1.025   3.508   3.360 -0.1901  0.3097 -0.7806
  160OSM    H4F17982   1.102   3.431   3.381 -3.8970 -2.8767  2.9897
  160OSM    H4G17983   0.942   3.451   3.406  0.4595  0.0362  0.0588
  160OSM    C5F17984   1.074   3.632   3.438  1.2834 -0.3351  0.1983
  160OSM    H5F17985   1.014   3.724   3.419 -0.5662 -1.1862  1.6097
  160OSM    H5G17986   1.176   3.648   3.397  1.6646  0.3376  1.3756
  160OSM    C6F17987   1.085   3.608   3.592  0.4563 -0.3526 -0.5369
  160OSM    H6F17988   1.168   3.535   3.596 -0.4983 -1.3999  1.7197
  160OSM    H6G17989   0.994   3.558   3.631 -0.1125  0.2669 -1.0358
  160OSM    C7F17990   1.106   3.739   3.665 -0.6844  0.4350  0.4711
  160OSM    H7F17991   1.018   3.805   3.649 -0.7661  0.3576  0.5924
  160OSM    H7G17992   1.196   3.779   3.615  0.1535 -0.6287  1.0812
  160OSM    C8F17993   1.135   3.731   3.817 -0.5367  0.3397 -0.3710
  160OSM    H8F17994   1.188   3.635   3.838 -2.3973 -0.7768 -0.5921
  160OSM    H8G17995   1.035   3.724   3.865 -0.4326  1.1860 -0.0190
  160OSM    C9F17996   1.224   3.835   3.870  0.1971 -0.6916 -0.9944
  160OSM    H9F17997   1.304   3.873   3.805 -0.2245  0.0700 -1.0765
  160OSM   C10F17998   1.203   3.896   3.992  0.0664  0.1507 -0.3571
  160OSM   H10F17999   1.286   3.954   4.035  0.1050  0.4638 -0.8483
  160OSM   C11F18000   1.097   3.865   4.097  0.3119  0.6631  0.0222
  160OSM   H11F18001   1.109   3.758   4.125  0.5203 -0.0461 -2.4730
  160OSM   H11G18002   0.991   3.892   4.076  0.7430  1.3671 -1.3904
  160OSM   C12F18003   1.123   3.956   4.220 -0.3663  0.4688  0.0226
  160OSM   H12F18004   1.116   4.063   4.193  4.5246  2.2189  4.1922
  160OSM   H12G18005   1.218   3.933   4.273  0.6319  1.0061 -1.4541
  160OSM   C13F18006   1.010   3.935   4.329  0.6554  1.0287  0.2221
  160OSM   H13F18007   0.996   3.829   4.361  0.5956  1.3215  1.2069
  160OSM   H13G18008   0.915   3.971   4.284  0.2630  1.2401  1.1825
  160OSM   C14F18009   1.043   4.010   4.455  0.1616  0.2740 -0.8688
  160OSM   H14F18010   1.023   4.119   4.444 -1.6280  0.0334 -0.2902
  160OSM   H14G18011   1.151   3.994   4.475  0.2580  1.0389 -0.7461
  160OSM   C15F18012   0.955   3.952   4.576 -0.5517 -0.7706 -0.5405
  160OSM   H15F18013   0.952   3.841   4.581  0.6431 -0.7732  0.8647
  160OSM   H15G18014   0.848   3.975   4.554 -1.0229 -2.4658 -0.1945
  160OSM   C16F18015   1.006   3.998   4.711 -0.0299  0.4650 -0.6116
  160OSM   H16F18016   1.113   3.977   4.730 -0.7456 -1.0895  2.2889
  160OSM   H16G18017   0.950   3.939   4.786  1.1432 -2.0988 -1.6618
  160OSM   C17F18018   0.978   4.148   4.745  0.2315  0.0233 -0.1357
  160OSM   H17F18019   1.026   4.202   4.661 -1.7838 -0.0154 -1.3784
  160OSM   H17G18020   1.034   4.174   4.838 -1.2695 -1.0539  1.1218
  160OSM   C18F18021   0.837   4.207   4.760 -0.9054 -0.1029 -0.7220
  160OSM   H18F18022   0.794   4.153   4.847 -3.2544  1.2056 -0.9914
  160OSM   H18G18023   0.772   4.179   4.675 -1.8012 -2.8033  0.7540
  160OSM   H18H18024   0.841   4.316   4.784 -1.6854 -0.7710  3.0720
  161OSM      N18025   3.158   2.456   2.676 -0.1610  0.4174  0.0248
  161OSM    C1518026   3.107   2.400   2.553  0.3581  0.0380  0.6185
  161OSM   H15A18027   3.168   2.312   2.537 -1.4488 -0.9735 -1.2468
  161OSM   H15B18028   3.129   2.458   2.465 -2.4662 -0.3698 -0.4692
  161OSM   H15C18029   3.001   2.377   2.546  0.5294 -0.7613  0.4855
  161OSM    C1418030   3.073   2.574   2.718 -0.0098 -0.1885  0.0991
  161OSM   H14A18031   2.991   2.533   2.774  0.4653 -4.2920 -1.8925
  161OSM   H14B18032   3.034   2.627   2.632 -3.0348  0.0276  1.4654
  161OSM   H14C18033   3.128   2.644   2.779 -1.3095 -0.1592  1.2768
  161OSM    C1318034   3.136   2.350   2.778 -0.2973  0.6661  0.5124
  161OSM   H13A18035   3.209   2.270   2.773  0.6373  1.4997  0.6376
  161OSM   H13B18036   3.044   2.294   2.774 -0.4380  0.5691  3.2154
  161OSM   H13C18037   3.145   2.384   2.880  1.4510 -0.3812  0.7548
  161OSM    C1218038   3.301   2.495   2.669 -0.5914  0.2771  0.0338
  161OSM   H12A18039   3.359   2.404   2.657 -0.9380  0.1433 -0.6973
  161OSM   H12B18040   3.328   2.542   2.762 -1.1615  1.2051 -0.2621
  161OSM    C1118041   3.337   2.586   2.557  0.2502 -0.1084  0.4104
  161OSM   H11A18042   3.254   2.658   2.537  0.6627  0.0621 -0.7338
  161OSM   H11B18043   3.341   2.524   2.464 -1.7848  1.1178 -0.5704
  161OSM      P18044   3.597   2.549   2.559 -0.2341  0.1970 -0.3041
  161OSM    O1318045   3.552   2.410   2.542  0.8473  0.1703  0.9836
  161OSM    O1418046   3.684   2.610   2.460 -0.0922 -0.3720 -0.3789
  161OSM    O1118047   3.682   2.537   2.694  0.1904  0.2589  0.0973
  161OSM    O1218048   3.470   2.640   2.586 -0.6559  0.3292 -0.2779
  161OSM    C1S18049   3.659   2.627   2.805 -0.0751  0.3226  0.2714
  161OSM    H1S18050   3.552   2.629   2.833 -0.3216  0.7459 -0.6773
  161OSM    H1T18051   3.689   2.730   2.779  0.9311  0.3657  1.5143
  161OSM     NF18052   3.740   2.697   3.036  0.5174  0.4564 -0.3260
  161OSM    HNF18053   3.805   2.772   3.046  2.6577 -1.4528  1.0812
  161OSM    C2S18054   3.749   2.595   2.934 -0.3834 -0.0984  0.1229
  161OSM    H2S18055   3.718   2.497   2.978  0.1876 -0.7239 -0.8315
  161OSM    C3S18056   3.897   2.575   2.889  0.2732  0.5882 -0.3476
  161OSM    H3S18057   3.934   2.671   2.848  0.3080  1.9699  2.6879
  161OSM     O318058   3.920   2.481   2.783 -0.5499  0.2861 -0.0170
  161OSM    HO318059   3.834   2.449   2.754 -0.7033  3.6468 -4.0636
  161OSM    C4S18060   3.988   2.543   3.006 -0.1646  0.3332  0.4560
  161OSM    H4S18061   4.053   2.627   3.034  0.5947 -0.5284  1.3675
  161OSM    C5S18062   4.007   2.420   3.067 -0.5245 -0.0079  0.4402
  161OSM    H5S18063   3.953   2.332   3.029  0.0201  0.1123 -0.6538
  161OSM    C6S18064   4.098   2.396   3.193  0.1825 -0.3118 -0.0675
  161OSM    H6S18065   4.175   2.327   3.152  0.7456  0.3260 -0.0925
  161OSM    H6T18066   4.040   2.346   3.274  1.3797 -1.4699  0.1038
  161OSM    C7S18067   4.157   2.524   3.249 -0.3885 -0.2862 -0.0131
  161OSM    H7S18068   4.073   2.593   3.270 -0.4691 -0.0568 -1.0392
  161OSM    H7T18069   4.219   2.575   3.173 -0.6112  3.0679  1.8525
  161OSM    C8S18070   4.237   2.511   3.382  0.1377  0.3656 -0.0859
  161OSM    H8S18071   4.291   2.607   3.402  3.4669 -1.5254  0.8087
  161OSM    H8T18072   4.319   2.439   3.365 -0.7666 -0.4870 -0.9594
  161OSM    C9S18073   4.145   2.471   3.500 -0.0177 -0.1878  0.3498
  161OSM    H9S18074   4.106   2.369   3.479 -2.7424  1.1692 -1.7287
  161OSM    H9T18075   4.058   2.537   3.518 -0.6244 -0.9623  0.3098
  161OSM   C10S18076   4.232   2.476   3.632 -0.1930  0.1781  0.8085
  161OSM   H10S18077   4.240   2.576   3.681 -3.0564  0.9344 -0.0725
  161OSM   H10T18078   4.330   2.424   3.625  0.9577  2.3788 -1.2129
  161OSM   C11S18079   4.145   2.421   3.748  0.6706  0.0299 -0.2492
  161OSM   H11S18080   4.132   2.313   3.725  0.5464 -0.1744  0.7688
  161OSM   H11T18081   4.042   2.464   3.748  0.3987 -0.6018  0.7564
  161OSM   C12S18082   4.202   2.437   3.882  0.1223 -0.0364  0.2457
  161OSM   H12S18083   4.241   2.533   3.922  1.2802 -0.4570  0.1603
  161OSM   H12T18084   4.282   2.360   3.878 -0.7634 -0.9257 -1.6916
  161OSM   C13S18085   4.096   2.394   3.991 -0.2647 -0.5345  0.3514
  161OSM   H13S18086   4.067   2.288   3.974  1.3992 -0.6950 -2.0762
  161OSM   H13T18087   4.012   2.467   3.996 -0.2480 -0.4037 -0.8155
  161OSM   C14S18088   4.164   2.398   4.128  0.4929  0.4825 -0.1944
  161OSM   H14S18089   4.207   2.498   4.150  2.2222 -0.1353 -0.6341
  161OSM   H14T18090   4.252   2.331   4.120  0.3150 -0.2063  2.4292
  161OSM   C15S18091   4.079   2.351   4.245 -0.2942  0.1616 -0.1864
  161OSM   H15S18092   4.035   2.250   4.229 -0.3522  0.2016 -0.2828
  161OSM   H15T18093   3.993   2.421   4.249  0.3031  0.8564  1.4123
  161OSM   C16S18094   4.170   2.356   4.372  0.3673 -0.1398 -0.6547
  161OSM   H16S18095   4.222   2.454   4.371  0.1704 -0.0359 -1.0697
  161OSM   H16T18096   4.249   2.279   4.359  1.6715  1.1444 -0.4794
  161OSM   C17S18097   4.092   2.351   4.505 -0.5137 -0.0119  0.0992
  161OSM   H17S18098   4.018   2.268   4.502  0.1143 -0.6116  0.8029
  161OSM   H17T18099   4.025   2.440   4.506  0.0521  0.4864 -1.8844
  161OSM   C18S18100   4.175   2.333   4.636 -0.3630 -0.1155  0.1559
  161OSM   H18S18101   4.217   2.231   4.645 -1.8142 -0.9915 -2.1806
  161OSM   H18T18102   4.110   2.359   4.723 -0.8953 -1.3087  0.1347
  161OSM   H18U18103   4.255   2.410   4.634 -1.5440  1.1641 -0.9460
  161OSM    C1F18104   3.623   2.696   3.105  0.2380 -0.1383  0.0415
  161OSM     OF18105   3.521   2.645   3.068  0.1200  0.0462 -0.1599
  161OSM    C2F18106   3.635   2.774   3.237 -0.1439 -0.1025  0.5229
  161OSM    H2F18107   3.544   2.832   3.266  0.0394 -0.3840  1.7385
  161OSM    H2G18108   3.713   2.853   3.232  1.6040 -1.8472 -1.9094
  161OSM    C3F18109   3.675   2.688   3.348  0.2629  0.4963  0.2856
  161OSM    H3F18110   3.766   2.632   3.319  0.1816  1.1899 -1.4300
  161OSM    H3G18111   3.608   2.602   3.369  0.5492  0.0616 -0.5286
  161OSM    C4F18112   3.703   2.765   3.475  0.2164 -0.7327 -0.7669
  161OSM    H4F18113   3.612   2.809   3.522  1.3397  0.9046 -0.0518
  161OSM    H4G18114   3.772   2.849   3.453  0.6150 -0.9701 -0.4336
  161OSM    C5F18115   3.749   2.672   3.584 -0.3028 -0.9242 -0.4443
  161OSM    H5F18116   3.849   2.638   3.550  0.2486  0.2808 -0.0666
  161OSM    H5G18117   3.677   2.593   3.615 -1.2418  0.1948  0.3109
  161OSM    C6F18118   3.773   2.745   3.716 -0.2079  0.3697  0.0362
  161OSM    H6F18119   3.673   2.784   3.742 -0.6710 -0.6057 -0.2745
  161OSM    H6G18120   3.855   2.821   3.716 -0.6256  0.8797  2.0286
  161OSM    C7F18121   3.807   2.648   3.831 -0.2114  0.0622  0.2248
  161OSM    H7F18122   3.917   2.641   3.844  0.0955 -0.6995 -2.2831
  161OSM    H7G18123   3.766   2.550   3.801  2.1120 -0.8833 -0.0650
  161OSM    C8F18124   3.751   2.680   3.972 -0.3911 -0.7978  0.2167
  161OSM    H8F18125   3.785   2.603   4.044 -1.3595 -0.4076  1.1037
  161OSM    H8G18126   3.640   2.683   3.977 -0.4353  0.8689 -0.9253
  161OSM    C9F18127   3.799   2.818   4.005 -0.3346  0.3930 -0.1639
  161OSM    H9F18128   3.749   2.902   3.954 -3.2826 -0.1365  1.6087
  161OSM   C10F18129   3.890   2.840   4.104  0.4906 -0.8197  0.1280
  161OSM   H10F18130   3.909   2.945   4.128 -0.4669 -0.4306 -0.7450
  161OSM   C11F18131   3.962   2.740   4.193  0.0567 -0.0850  0.0216
  161OSM   H11F18132   4.068   2.768   4.210  0.3220 -0.8333 -0.3755
  161OSM   H11G18133   3.955   2.641   4.143 -2.0820 -0.0675  0.1910
  161OSM   C12F18134   3.887   2.736   4.333  0.3607  0.1551 -0.7821
  161OSM   H12F18135   3.875   2.835   4.382  0.8797 -0.0521 -0.2287
  161OSM   H12G18136   3.951   2.672   4.397 -0.8242 -1.7832 -1.4545
  161OSM   C13F18137   3.736   2.684   4.322  0.1988  1.3096 -0.0652
  161OSM   H13F18138   3.743   2.583   4.277  2.5066  0.7887  1.3048
  161OSM   H13G18139   3.672   2.750   4.258 -1.8560  1.1751  1.7526
  161OSM   C14F18140   3.660   2.673   4.462 -1.1110 -0.2591  0.0845
  161OSM   H14F18141   3.655   2.770   4.515 -1.9377  0.3931 -1.1114
  161OSM   H14G18142   3.726   2.602   4.515 -2.2617 -1.8982 -0.5717
  161OSM   C15F18143   3.521   2.626   4.456  0.8703  0.1130 -0.1314
  161OSM   H15F18144   3.509   2.541   4.385  2.5497 -2.3680  2.3635
  161OSM   H15G18145   3.462   2.702   4.401  3.1153  2.8248  0.9793
  161OSM   C16F18146   3.454   2.600   4.590 -0.2214  0.3488  0.1185
  161OSM   H16F18147   3.454   2.689   4.657  0.7872 -0.2977  1.0031
  161OSM   H16G18148   3.507   2.530   4.658  0.6786  0.6996 -0.2036
  161OSM   C17F18149   3.309   2.550   4.572 -1.0193  0.5730  0.9911
  161OSM   H17F18150   3.329   2.454   4.520 -0.7412  1.1454  0.0144
  161OSM   H17G18151   3.259   2.614   4.496  0.0249 -1.2485 -1.3217
  161OSM   C18F18152   3.230   2.549   4.696  0.3925  0.2584 -1.1501
  161OSM   H18F18153   3.293   2.508   4.778  1.0175  2.3110 -0.5376
  161OSM   H18G18154   3.147   2.476   4.690  2.9416 -3.0197  0.0429
  161OSM   H18H18155   3.192   2.650   4.721  0.6035  0.2899 -0.9430
  162OSM      N18156   5.308   5.087   2.019 -0.2503 -0.2941 -0.5902
  162OSM    C1518157   5.396   5.049   1.910  0.3847  0.2504 -0.2844
  162OSM   H15A18158   5.343   5.027   1.819  0.1738  2.0182 -0.6295
  162OSM   H15B18159   5.453   4.962   1.939  2.8995  1.4388 -1.3426
  162OSM   H15C18160   5.465   5.128   1.887 -0.3332  0.0159 -3.8185
  162OSM    C1418161   5.260   5.225   1.984 -0.1292  0.0142 -0.4884
  162OSM   H14A18162   5.187   5.254   2.057 -1.3829 -0.2767 -1.5917
  162OSM   H14B18163   5.195   5.233   1.898 -3.1070 -0.7829  1.5380
  162OSM   H14C18164   5.341   5.295   2.000  0.6332 -1.0422  0.4911
  162OSM    C1318165   5.199   4.987   2.030  0.7050  1.0607 -0.6552
  162OSM   H13A18166   5.158   4.964   1.933 -1.4745  0.8556  0.2480
  162OSM   H13B18167   5.116   4.999   2.099  1.4208 -1.2567  0.7401
  162OSM   H13C18168   5.234   4.890   2.064  0.1722  0.3292 -2.1133
  162OSM    C1218169   5.390   5.093   2.156 -0.5034 -0.9144  0.6406
  162OSM   H12A18170   5.412   4.992   2.188  2.4978  0.5171  3.7592
  162OSM   H12B18171   5.323   5.129   2.233 -2.0524 -0.7448 -0.7251
  162OSM    C1118172   5.526   5.159   2.158 -0.5232  0.6447 -0.4281
  162OSM   H11A18173   5.588   5.111   2.079  0.2766  1.3319 -0.2294
  162OSM   H11B18174   5.584   5.135   2.249 -2.3830 -0.9845  0.4193
  162OSM      P18175   5.463   5.396   2.243  0.3021 -0.3972 -0.0920
  162OSM    O1318176   5.537   5.522   2.259  0.0140  0.7056  0.2929
  162OSM    O1418177   5.321   5.415   2.201 -0.7268 -0.0549 -0.4397
  162OSM    O1118178   5.462   5.313   2.374  0.3568 -0.5692 -0.7269
  162OSM    O1218179   5.524   5.302   2.139 -0.4833 -0.4332  0.4807
  162OSM    C1S18180   5.354   5.323   2.470 -0.4220 -0.8450 -0.3211
  162OSM    H1S18181   5.251   5.290   2.444 -0.8237 -0.1421  0.3294
  162OSM    H1T18182   5.357   5.427   2.510  0.1757 -0.3315 -1.6315
  162OSM     NF18183   5.269   5.253   2.694  0.3991 -0.3380 -0.3457
  162OSM    HNF18184   5.272   5.315   2.772  3.2087 -0.1128 -0.5253
  162OSM    C2S18185   5.377   5.241   2.601 -0.8267 -0.0285 -0.2160
  162OSM    H2S18186   5.390   5.134   2.575  1.8281 -0.2487  1.5928
  162OSM    C3S18187   5.515   5.282   2.662  0.4339  0.3828 -0.4134
  162OSM    H3S18188   5.510   5.389   2.691 -3.5141  0.3971 -0.6818
  162OSM     O318189   5.625   5.269   2.578  0.1341 -0.6587  0.6961
  162OSM    HO318190   5.581   5.260   2.493 -1.6556  1.5118  1.3103
  162OSM    C4S18191   5.543   5.209   2.787  0.0283  0.4518 -0.1075
  162OSM    H4S18192   5.532   5.099   2.785 -0.1689  0.4872 -1.1064
  162OSM    C5S18193   5.600   5.266   2.890  0.2765 -0.2761 -0.1096
  162OSM    H5S18194   5.624   5.373   2.881  1.5678 -0.6164 -0.9254
  162OSM    C6S18195   5.646   5.199   3.016  0.1844 -0.3380  0.0630
  162OSM    H6S18196   5.586   5.243   3.098 -0.2896 -1.5153  0.3738
  162OSM    H6T18197   5.755   5.214   3.034  0.3549  2.1869 -2.4427
  162OSM    C7S18198   5.617   5.054   3.023 -0.6451  0.2956 -0.7276
  162OSM    H7S18199   5.689   5.004   2.955  1.9576  2.4067  0.2850
  162OSM    H7T18200   5.511   5.035   2.997 -0.4262 -0.6771 -0.9420
  162OSM    C8S18201   5.661   4.989   3.163  0.3336  0.8544  0.9398
  162OSM    H8S18202   5.764   5.026   3.183  1.1068  0.7339 -2.2535
  162OSM    H8T18203   5.666   4.879   3.151 -1.2865  0.6771  1.6564
  162OSM    C9S18204   5.577   5.031   3.286 -0.1841 -0.2166 -0.2875
  162OSM    H9S18205   5.476   5.067   3.257 -0.1072  1.5120  1.4449
  162OSM    H9T18206   5.621   5.123   3.329  0.9993 -0.7209 -0.3847
  162OSM   C10S18207   5.580   4.917   3.376  0.5068 -0.8156  0.5189
  162OSM   H10S18208   5.687   4.909   3.404  1.2425  1.5880 -1.2826
  162OSM   H10T18209   5.553   4.827   3.315 -0.8665  0.7841 -1.3795
  162OSM   C11S18210   5.491   4.930   3.497 -0.2314  0.2286 -1.0353
  162OSM   H11S18211   5.448   4.829   3.511  0.9384 -0.3543 -1.4905
  162OSM   H11T18212   5.407   4.995   3.466  1.7368  4.1478  1.0916
  162OSM   C12S18213   5.564   4.984   3.622  0.7506  0.2738  0.3379
  162OSM   H12S18214   5.612   5.081   3.598  1.0284 -0.5081 -2.7140
  162OSM   H12T18215   5.655   4.924   3.646  0.5600  0.3588  1.3195
  162OSM   C13S18216   5.469   5.002   3.739  0.6062  0.8853  0.6111
  162OSM   H13S18217   5.419   4.907   3.767  0.0254  0.9126 -0.3017
  162OSM   H13T18218   5.392   5.070   3.697  0.4369  2.1507  2.8180
  162OSM   C14S18219   5.527   5.072   3.859 -0.0205  0.6653 -0.4553
  162OSM   H14S18220   5.544   5.179   3.835 -2.6589  1.1252 -0.5979
  162OSM   H14T18221   5.626   5.026   3.878 -0.7766 -0.8550 -0.0340
  162OSM   C15S18222   5.436   5.074   3.986  0.0771  0.1401  0.7355
  162OSM   H15S18223   5.435   4.974   4.035 -1.7503 -0.9214 -1.2713
  162OSM   H15T18224   5.335   5.097   3.945  0.2152  0.2876  0.4778
  162OSM   C16S18225   5.470   5.177   4.093  0.4466 -0.3983 -0.1877
  162OSM   H16S18226   5.429   5.270   4.049 -0.0781 -0.5917 -0.1173
  162OSM   H16T18227   5.578   5.176   4.117  0.6068 -2.7252 -0.7035
  162OSM   C17S18228   5.391   5.165   4.230 -0.1883  0.1059  0.1430
  162OSM   H17S18229   5.415   5.069   4.280 -1.3628  0.3434  1.2169
  162OSM   H17T18230   5.281   5.162   4.213 -0.0684  0.8920 -0.8812
  162OSM   C18S18231   5.417   5.274   4.337 -1.0470 -0.1870  0.5243
  162OSM   H18S18232   5.347   5.251   4.420 -0.9165  0.9508  0.9695
  162OSM   H18T18233   5.398   5.374   4.292 -1.3090 -1.1070 -1.5303
  162OSM   H18U18234   5.522   5.257   4.369 -1.5290 -2.8603  0.8463
  162OSM    C1F18235   5.151   5.199   2.685 -0.1937 -0.6648 -0.4222
  162OSM     OF18236   5.118   5.111   2.609 -0.2765 -0.1620  0.0791
  162OSM    C2F18237   5.049   5.248   2.777  0.5687 -0.2865 -0.5496
  162OSM    H2F18238   4.957   5.274   2.721  0.9036 -1.1371 -1.5231
  162OSM    H2G18239   5.075   5.345   2.825 -2.4449  0.4533 -0.2397
  162OSM    C3F18240   5.013   5.131   2.878  0.2325 -0.0574 -0.0867
  162OSM    H3F18241   5.101   5.093   2.934 -0.6659  1.6842  2.7545
  162OSM    H3G18242   4.969   5.058   2.807  0.3721  2.3887 -2.8848
  162OSM    C4F18243   4.910   5.173   2.989 -0.2828  0.2335  0.7296
  162OSM    H4F18244   4.825   5.234   2.951 -0.0747  0.3173  0.3879
  162OSM    H4G18245   4.967   5.232   3.065  3.3365 -0.6531 -1.0993
  162OSM    C5F18246   4.846   5.050   3.053 -0.5210 -0.2735 -0.3054
  162OSM    H5F18247   4.921   4.975   3.083 -0.4705  0.2511  0.9741
  162OSM    H5G18248   4.790   4.996   2.974  1.0078 -0.1939 -1.4910
  162OSM    C6F18249   4.749   5.084   3.171  1.2285 -0.1802  0.0771
  162OSM    H6F18250   4.647   5.069   3.130  2.3702 -1.3887 -2.6263
  162OSM    H6G18251   4.774   5.191   3.180  1.9420 -0.1216 -2.0485
  162OSM    C7F18252   4.759   5.013   3.302  0.1838  0.8301  0.7224
  162OSM    H7F18253   4.730   4.907   3.284 -1.7030  1.2840  0.8628
  162OSM    H7G18254   4.681   5.038   3.377  0.1691  0.1126  0.9533
  162OSM    C8F18255   4.899   5.004   3.375 -0.0663 -0.0228 -0.1020
  162OSM    H8F18256   4.980   4.967   3.309 -0.2486  0.4372 -0.5960
  162OSM    H8G18257   4.879   4.939   3.463 -0.2954 -1.2284 -1.0254
  162OSM    C9F18258   4.935   5.146   3.421  0.9987  0.8062 -0.1246
  162OSM    H9F18259   5.000   5.201   3.351  1.3952 -0.1026 -0.4833
  162OSM   C10F18260   4.888   5.213   3.530 -0.2333 -0.2398 -0.2992
  162OSM   H10F18261   4.923   5.314   3.559 -0.1054 -0.2520 -0.4125
  162OSM   C11F18262   4.791   5.153   3.632 -1.0448 -0.2682 -0.3176
  162OSM   H11F18263   4.763   5.052   3.596  0.2155 -0.8542  0.2868
  162OSM   H11G18264   4.710   5.228   3.643  0.6754  1.7707 -0.8157
  162OSM   C12F18265   4.865   5.121   3.763  0.6109 -0.3477  0.0081
  162OSM   H12F18266   4.783   5.104   3.835  0.8088 -0.3703  0.2263
  162OSM   H12G18267   4.935   5.201   3.795 -0.3498 -0.1000  1.5690
  162OSM   C13F18268   4.947   4.991   3.736 -0.0676  0.2890 -0.3872
  162OSM   H13F18269   4.998   4.990   3.638 -2.2266  0.8312 -1.5873
  162OSM   H13G18270   4.875   4.906   3.725  1.2389 -0.7091 -1.5618
  162OSM   C14F18271   5.053   4.971   3.851  0.7874  0.4005  0.1494
  162OSM   H14F18272   5.104   5.067   3.874 -0.3348  0.6745  1.7680
  162OSM   H14G18273   5.133   4.909   3.807  0.7480  1.4036 -1.3849
  162OSM   C15F18274   4.978   4.917   3.972  0.5179  0.1082  0.2989
  162OSM   H15F18275   4.977   4.807   3.959  0.7800  0.1049  0.3089
  162OSM   H15G18276   4.874   4.957   3.975  0.1821 -0.4167 -2.1198
  162OSM   C16F18277   5.060   4.958   4.101 -0.1842  0.2965 -0.0924
  162OSM   H16F18278   5.019   5.048   4.152  0.4724  0.7532 -0.3672
  162OSM   H16G18279   5.166   4.984   4.081 -0.0831 -0.5455 -0.7225
  162OSM   C17F18280   5.076   4.836   4.202  0.2191 -0.7405 -0.3759
  162OSM   H17F18281   5.128   4.877   4.291 -1.8242 -1.0384  1.0179
  162OSM   H17G18282   5.142   4.762   4.153 -1.4816 -1.9133 -1.0027
  162OSM   C18F18283   4.939   4.773   4.224 -0.2584 -0.4685 -0.7400
  162OSM   H18F18284   4.850   4.839   4.232 -0.7181 -1.0754 -0.6925
  162OSM   H18G18285   4.954   4.709   4.314 -0.3167 -0.0669 -0.4443
  162OSM   H18H18286   4.908   4.705   4.142 -2.6678 -2.0319  1.2926
  163OSM      N18287   4.109   2.774   2.525  0.0522  0.4120  0.3808
  163OSM    C1518288   3.964   2.727   2.533 -0.3532 -0.6248  0.1148
  163OSM   H15A18289   3.902   2.803   2.578 -1.1751  0.5063 -2.6748
  163OSM   H15B18290   3.952   2.638   2.592 -0.5299  0.5692  1.9705
  163OSM   H15C18291   3.915   2.708   2.439 -0.7705 -1.1367  0.4297
  163OSM    C1418292   4.180   2.660   2.456 -0.1578 -0.2240  0.2685
  163OSM   H14A18293   4.281   2.682   2.426  0.2077 -1.8351  0.1913
  163OSM   H14B18294   4.130   2.634   2.363  1.0208  0.4132 -0.5710
  163OSM   H14C18295   4.190   2.570   2.515 -2.1589  0.1073  1.1959
  163OSM    C1318296   4.112   2.893   2.437 -0.2342  0.1268 -1.0785
  163OSM   H13A18297   4.091   2.980   2.497  0.3901 -1.0420  0.9419
  163OSM   H13B18298   4.041   2.885   2.356 -2.1572 -0.7076  0.5923
  163OSM   H13C18299   4.212   2.901   2.397 -0.2740 -0.1902 -1.2445
  163OSM    C1218300   4.171   2.797   2.661  0.5164 -0.4139  0.3242
  163OSM   H12A18301   4.271   2.834   2.647  1.5801 -2.5207  1.7974
  163OSM   H12B18302   4.187   2.703   2.711 -0.7888 -1.1520 -0.5659
  163OSM    C1118303   4.108   2.906   2.750  0.1620 -1.3597  0.0509
  163OSM   H11A18304   4.176   2.916   2.838 -0.0539  0.0829  0.0650
  163OSM   H11B18305   4.006   2.873   2.779 -0.4068  0.4211  0.2070
  163OSM      P18306   3.988   3.144   2.721 -0.0451  0.4704  0.2092
  163OSM    O1318307   4.039   3.276   2.682 -0.3498  0.0298  0.0796
  163OSM    O1418308   3.869   3.094   2.651  0.0635  0.4916  0.4942
  163OSM    O1118309   3.977   3.129   2.873  0.0119  0.4330 -0.0795
  163OSM    O1218310   4.106   3.038   2.682 -0.0036 -0.0696  0.0258
  163OSM    C1S18311   4.047   3.201   2.969  0.3606  0.2582 -0.9887
  163OSM    H1S18312   4.043   3.311   2.954  2.9968  0.2834 -2.0654
  163OSM    H1T18313   4.154   3.169   2.961  0.0901 -0.7910 -0.5255
  163OSM     NF18314   4.094   3.234   3.210  0.1485  0.5649  0.1173
  163OSM    HNF18315   4.183   3.192   3.226 -0.2073 -0.2841 -0.0857
  163OSM    C2S18316   4.018   3.163   3.114  0.0978 -0.4865  0.7060
  163OSM    H2S18317   3.914   3.191   3.141 -0.1055  0.1839 -0.6972
  163OSM    C3S18318   4.019   3.009   3.133  0.3271 -0.3631 -0.3476
  163OSM    H3S18319   4.115   2.970   3.092  0.4520  1.0922 -1.4990
  163OSM     O318320   3.924   2.920   3.062 -0.6403 -0.1305 -0.2777
  163OSM    HO318321   3.884   2.974   2.994 -0.4648 -0.0467 -0.3157
  163OSM    C4S18322   4.012   2.978   3.279  0.1279  0.3605  0.7774
  163OSM    H4S18323   3.946   3.045   3.335  1.8285  1.8921  1.0461
  163OSM    C5S18324   4.081   2.882   3.346 -0.1598 -0.7973 -0.5125
  163OSM    H5S18325   4.150   2.814   3.295  1.3750  1.5370 -1.7645
  163OSM    C6S18326   4.072   2.859   3.498 -0.7066 -0.2915 -0.2173
  163OSM    H6S18327   4.053   2.751   3.514 -2.1260  0.1851  1.7122
  163OSM    H6T18328   3.983   2.910   3.541 -0.4399  1.1154 -1.2425
  163OSM    C7S18329   4.203   2.907   3.562 -0.5623 -0.1545 -0.4248
  163OSM    H7S18330   4.284   2.859   3.503 -2.2639 -1.4846 -1.8331
  163OSM    H7T18331   4.207   2.848   3.656 -4.1451 -1.9360 -1.1842
  163OSM    C8S18332   4.215   3.064   3.583 -0.0249 -0.0449 -0.2760
  163OSM    H8S18333   4.213   3.113   3.483  0.1752  2.1289  0.7319
  163OSM    H8T18334   4.315   3.081   3.628 -0.5067  0.9570  0.4473
  163OSM    C9S18335   4.107   3.133   3.676  0.3290  0.1116  0.6081
  163OSM    H9S18336   4.017   3.122   3.611  0.5973  0.8169  0.1100
  163OSM    H9T18337   4.129   3.241   3.678  1.5203 -0.0834 -0.7499
  163OSM   C10S18338   4.084   3.079   3.810  0.5608 -0.1121 -0.3241
  163OSM   H10S18339   4.060   2.971   3.815 -0.9901  0.0794 -2.4599
  163OSM   H10T18340   4.003   3.144   3.849  2.3886  1.1770  1.5768
  163OSM   C11S18341   4.204   3.097   3.908 -0.4900 -0.2193 -0.6397
  163OSM   H11S18342   4.260   3.190   3.887 -0.4631  0.2846  1.4336
  163OSM   H11T18343   4.278   3.015   3.893 -0.5863 -0.5733  0.7428
  163OSM   C12S18344   4.154   3.091   4.056  0.0359 -0.0036 -0.5000
  163OSM   H12S18345   4.119   2.988   4.078  0.2469  0.6514  3.6962
  163OSM   H12T18346   4.070   3.161   4.071  0.0570  0.4657 -2.2887
  163OSM   C13S18347   4.271   3.141   4.147 -0.5501  0.1972  0.3500
  163OSM   H13S18348   4.316   3.239   4.120  1.6870 -0.6296  0.8264
  163OSM   H13T18349   4.352   3.067   4.129 -2.5617 -1.9450 -0.3290
  163OSM   C14S18350   4.239   3.151   4.292 -0.3871 -0.0317  0.2371
  163OSM   H14S18351   4.178   3.238   4.323 -0.5011  0.1044 -0.3559
  163OSM   H14T18352   4.332   3.149   4.353  0.4364  1.9251 -0.8385
  163OSM   C15S18353   4.171   3.023   4.342  0.7418 -0.2073  0.0176
  163OSM   H15S18354   4.237   2.937   4.318  1.8026  0.6103 -0.0662
  163OSM   H15T18355   4.080   2.994   4.286  0.4206  0.4665  0.1842
  163OSM   C16S18356   4.125   3.016   4.489  0.3871  0.3086  0.3351
  163OSM   H16S18357   4.203   3.065   4.552 -0.0174  0.6264  0.5972
  163OSM   H16T18358   4.104   2.911   4.518 -0.9299  0.6727  0.7293
  163OSM   C17S18359   4.000   3.100   4.508  0.1941 -0.0382  1.0991
  163OSM   H17S18360   3.917   3.052   4.451 -0.9000  0.3965  2.2871
  163OSM   H17T18361   4.022   3.197   4.460  0.8890 -1.7390 -2.3832
  163OSM   C18S18362   3.948   3.127   4.646  0.1605  0.5651  0.9603
  163OSM   H18S18363   4.013   3.204   4.691  2.5147 -1.2658  0.8546
  163OSM   H18T18364   3.946   3.035   4.708  1.1041  0.4361  0.8152
  163OSM   H18U18365   3.850   3.179   4.652  0.6621  1.7107 -0.3148
  163OSM    C1F18366   4.078   3.361   3.248  0.2417  0.2055 -0.0465
  163OSM     OF18367   3.991   3.432   3.199  0.0488 -0.4092  0.4069
  163OSM    C2F18368   4.166   3.412   3.362 -0.4285 -0.7603 -0.3220
  163OSM    H2F18369   4.269   3.429   3.324 -0.4913  0.1945 -0.0802
  163OSM    H2G18370   4.180   3.322   3.427 -0.6119 -1.4044 -1.1574
  163OSM    C3F18371   4.099   3.521   3.443  0.3496  0.5069 -0.1681
  163OSM    H3F18372   3.996   3.480   3.442  1.3177 -2.1603 -1.9165
  163OSM    H3G18373   4.097   3.619   3.393 -3.3977 -0.1110 -1.5691
  163OSM    C4F18374   4.156   3.540   3.589 -0.7099  0.2250 -0.6090
  163OSM    H4F18375   4.259   3.578   3.578 -0.8178  0.3813 -1.1105
  163OSM    H4G18376   4.143   3.439   3.634  2.2434  0.2261  0.4331
  163OSM    C5F18377   4.084   3.642   3.674  0.8301 -0.2792 -0.6685
  163OSM    H5F18378   3.975   3.622   3.666  0.5664  1.1950 -0.8987
  163OSM    H5G18379   4.115   3.745   3.651  3.7178 -1.3343 -1.8953
  163OSM    C6F18380   4.123   3.648   3.823 -0.2072  0.3810  0.6928
  163OSM    H6F18381   4.066   3.564   3.867 -1.6546  0.9216 -0.0708
  163OSM    H6G18382   4.084   3.741   3.871 -1.1265  0.7605 -0.6984
  163OSM    C7F18383   4.271   3.639   3.867 -0.3335 -0.3175  0.3391
  163OSM    H7F18384   4.326   3.715   3.807 -1.6794  1.0866  0.8131
  163OSM    H7G18385   4.315   3.539   3.848  0.3409  0.0591 -0.1047
  163OSM    C8F18386   4.303   3.662   4.013  0.3759 -0.6731 -0.3745
  163OSM    H8F18387   4.252   3.752   4.056 -0.6015 -2.3543  2.2617
  163OSM    H8G18388   4.410   3.688   4.026  0.5503 -0.1911 -2.4891
  163OSM    C9F18389   4.278   3.549   4.111  0.4217 -1.2260 -0.3715
  163OSM    H9F18390   4.362   3.479   4.123  1.8848  0.2937 -1.2375
  163OSM   C10F18391   4.170   3.522   4.185  0.7508  1.0908 -0.0762
  163OSM   H10F18392   4.180   3.438   4.255 -2.0314  0.6522 -0.0850
  163OSM   C11F18393   4.037   3.589   4.179 -0.4752  0.5326 -0.4555
  163OSM   H11F18394   3.952   3.518   4.192  0.0546  0.1476  1.1551
  163OSM   H11G18395   4.022   3.643   4.083  0.7366  1.9631  0.1264
  163OSM   C12F18396   4.034   3.696   4.286 -0.1031  0.0144  0.1251
  163OSM   H12F18397   3.932   3.739   4.284 -0.1764 -0.1853 -0.4782
  163OSM   H12G18398   4.113   3.774   4.274  0.3252  0.0656  2.7430
  163OSM   C13F18399   4.061   3.647   4.425 -0.8486 -0.8227  0.6631
  163OSM   H13F18400   4.074   3.744   4.479  0.8012 -0.2499 -0.6837
  163OSM   H13G18401   4.160   3.598   4.434 -0.1149  0.8234  2.1105
  163OSM   C14F18402   3.945   3.563   4.487 -0.1038 -0.1294  0.3633
  163OSM   H14F18403   3.938   3.456   4.456  0.4288 -0.8116  2.3966
  163OSM   H14G18404   3.851   3.614   4.456  0.2703  0.7466  0.6433
  163OSM   C15F18405   3.960   3.563   4.640  0.1704  0.5546 -0.2580
  163OSM   H15F18406   3.969   3.666   4.680  0.5061 -0.0074  1.1481
  163OSM   H15G18407   4.053   3.508   4.666 -1.2694 -1.1782  1.5442
  163OSM   C16F18408   3.844   3.503   4.715  0.1320  0.1030  0.1184
  163OSM   H16F18409   3.819   3.403   4.674  3.4613 -0.7211 -0.2048
  163OSM   H16G18410   3.757   3.569   4.692 -0.5533 -1.0550 -0.7204
  163OSM   C17F18411   3.864   3.509   4.870  0.0637  0.7264 -0.4414
  163OSM   H17F18412   3.853   3.612   4.911  1.5391  0.4671  0.7004
  163OSM   H17G18413   3.971   3.481   4.881 -0.0375  0.4815 -0.0673
  163OSM   C18F18414   3.768   3.415   4.937  0.0387  0.8232 -0.2892
  163OSM   H18F18415   3.665   3.454   4.919 -0.2192  1.3890  2.0109
  163OSM   H18G18416   3.785   3.413   5.047  0.8273  3.0422 -0.3234
  163OSM   H18H18417   3.779   3.317   4.888  0.4087  1.3195 -1.2183
  164OSM      N18418   0.215   3.550   1.995 -0.2576  0.3279 -0.4453
  164OSM    C1518419   0.196   3.407   2.013  0.2525 -0.1782  0.2317
  164OSM   H15A18420   0.263   3.354   2.079 -0.3932  2.2704  3.0388
  164OSM   H15B18421   0.190   3.350   1.921  2.8453 -1.0916  0.5469
  164OSM   H15C18422   0.101   3.383   2.058  0.2860  0.5588  0.7016
  164OSM    C1418423   0.339   3.584   1.913 -0.8689 -0.4003  0.2937
  164OSM   H14A18424   0.423   3.546   1.969 -0.3410 -0.3166 -0.4358
  164OSM   H14B18425   0.355   3.690   1.908  3.2568 -0.9405 -3.6882
  164OSM   H14C18426   0.336   3.547   1.812 -1.7164  0.8310 -0.1611
  164OSM    C1318427   0.097   3.612   1.935  0.5866  0.2588 -0.0607
  164OSM   H13A18428   0.079   3.597   1.829 -2.3519  1.0766  0.2549
  164OSM   H13B18429   0.103   3.718   1.955  0.8659  0.2197  0.0656
  164OSM   H13C18430   0.008   3.573   1.981  1.6268 -0.7525  1.1690
  164OSM    C1218431   0.228   3.606   2.135  0.4892  0.2601  0.1478
  164OSM   H12A18432   0.244   3.711   2.120  0.2346  0.5278  1.6750
  164OSM   H12B18433   0.326   3.579   2.172  0.5572  0.1055 -0.1334
  164OSM    C1118434   0.115   3.603   2.239  0.1217  0.3274 -0.1497
  164OSM   H11A18435   0.026   3.630   2.178  0.3589 -1.6872 -1.4931
  164OSM   H11B18436   0.129   3.670   2.326  1.0182 -0.8494  0.6544
  164OSM      P18437  -0.031   3.401   2.331 -0.1635 -0.1111 -0.2065
  164OSM    O1318438  -0.134   3.426   2.236  0.2992  0.0027  0.5569
  164OSM    O1418439   0.004   3.261   2.363 -0.1650 -0.3616  0.0993
  164OSM    O1118440  -0.063   3.475   2.465 -0.2661  0.2202 -0.2183
  164OSM    O1218441   0.106   3.467   2.281  0.3297  0.0094 -0.2530
  164OSM    C1S18442   0.047   3.515   2.546 -0.3444 -0.0656  0.9537
  164OSM    H1S18443   0.079   3.619   2.525 -0.2792 -0.6417 -2.1970
  164OSM    H1T18444   0.130   3.441   2.537  0.2661  0.7172 -0.0060
  164OSM     NF18445   0.124   3.548   2.781 -0.8576 -0.5007  0.1613
  164OSM    HNF18446   0.190   3.479   2.811 -0.1159  0.2438  0.2967
  164OSM    C2S18447   0.015   3.504   2.701 -0.5534  0.2312  0.5597
  164OSM    H2S18448  -0.076   3.565   2.717 -3.2132 -2.2290 -3.3730
  164OSM    C3S18449  -0.024   3.358   2.730  0.0839 -0.1661 -0.1208
  164OSM    H3S18450   0.041   3.285   2.678 -2.3347 -0.6087 -2.7873
  164OSM     O318451  -0.151   3.328   2.673 -0.3726 -0.3163  0.1514
  164OSM    HO318452  -0.162   3.388   2.599 -0.1059 -1.1416 -0.5694
  164OSM    C4S18453  -0.042   3.332   2.873  0.3890 -0.9575  0.3633
  164OSM    H4S18454  -0.115   3.402   2.915  0.5198  0.4999 -1.6937
  164OSM    C5S18455   0.027   3.253   2.954 -0.0094 -0.7990  0.4507
  164OSM    H5S18456   0.121   3.207   2.919 -0.2125 -0.8988  0.0353
  164OSM    C6S18457   0.003   3.246   3.102  0.1914 -0.0279  0.2377
  164OSM    H6S18458   0.029   3.144   3.137 -0.3830 -0.8948 -1.7416
  164OSM    H6T18459  -0.100   3.280   3.129 -0.7768 -1.3507 -1.5441
  164OSM    C7S18460   0.113   3.335   3.176  0.0192  0.0341  0.2635
  164OSM    H7S18461   0.104   3.436   3.132  0.5827 -0.1136 -0.2082
  164OSM    H7T18462   0.217   3.296   3.168  0.8079  1.9948  0.3483
  164OSM    C8S18463   0.087   3.351   3.329  0.3689  0.3161  0.2449
  164OSM    H8S18464  -0.012   3.399   3.347 -0.7768 -0.5222 -3.1007
  164OSM    H8T18465   0.160   3.425   3.366  0.3615 -0.7560  2.5545
  164OSM    C9S18466   0.090   3.215   3.399  0.1167 -0.0997  0.5320
  164OSM    H9S18467   0.191   3.174   3.379  0.0640  0.5169 -1.1897
  164OSM    H9T18468   0.019   3.136   3.367  0.0229 -1.2926  3.3843
  164OSM   C10S18469   0.069   3.229   3.547 -0.0466 -0.1610 -0.9792
  164OSM   H10S18470   0.046   3.126   3.583  1.2338  0.0954  0.6654
  164OSM   H10T18471  -0.025   3.287   3.556  0.4667  0.4593  0.7919
  164OSM   C11S18472   0.183   3.292   3.623  0.3467  0.8017 -1.0660
  164OSM   H11S18473   0.198   3.391   3.575 -2.9854  1.4612 -0.9557
  164OSM   H11T18474   0.279   3.239   3.606 -0.0903  0.2632 -1.8988
  164OSM   C12S18475   0.151   3.299   3.775 -0.5763 -0.2216  0.2224
  164OSM   H12S18476   0.135   3.194   3.807  0.6214 -0.2689  0.7466
  164OSM   H12T18477   0.047   3.328   3.800 -0.7563 -0.2611 -0.4646
  164OSM   C13S18478   0.265   3.378   3.849  0.5228  0.2685 -0.1540
  164OSM   H13S18479   0.281   3.483   3.816 -0.0478  1.1498  2.1554
  164OSM   H13T18480   0.358   3.319   3.832  0.2147 -0.0438 -0.7750
  164OSM   C14S18481   0.229   3.390   3.997 -0.2686 -0.2729 -0.5034
  164OSM   H14S18482   0.239   3.296   4.054 -2.1445 -0.0371  0.2751
  164OSM   H14T18483   0.121   3.414   4.002 -0.6864 -1.6246 -2.1543
  164OSM   C15S18484   0.298   3.502   4.083  0.2607  0.6669  0.6674
  164OSM   H15S18485   0.324   3.600   4.039 -0.4664  1.4254  1.8579
  164OSM   H15T18486   0.398   3.459   4.107  0.1777 -0.7169 -1.2512
  164OSM   C16S18487   0.210   3.532   4.206  0.3836  0.1242  0.1294
  164OSM   H16S18488   0.185   3.437   4.257  2.1777  0.0674  0.9722
  164OSM   H16T18489   0.118   3.589   4.181  0.2238 -0.6729 -1.2351
  164OSM   C17S18490   0.283   3.639   4.294  0.2237 -0.0094 -0.4887
  164OSM   H17S18491   0.216   3.648   4.383 -0.4334 -0.7179 -0.8991
  164OSM   H17T18492   0.296   3.733   4.236  0.3326  0.5457  0.4200
  164OSM   C18S18493   0.424   3.594   4.330 -0.0852  0.1196  0.1843
  164OSM   H18S18494   0.479   3.657   4.403  0.8757 -0.1085 -0.3243
  164OSM   H18T18495   0.487   3.604   4.239  0.3354 -0.6782  0.3778
  164OSM   H18U18496   0.425   3.490   4.369 -1.1073 -0.4066 -1.1280
  164OSM    C1F18497   0.165   3.675   2.782  0.0783  0.3476 -0.0816
  164OSM     OF18498   0.085   3.763   2.759  0.1938  0.0517  0.1256
  164OSM    C2F18499   0.308   3.703   2.814  0.3936  0.0187  0.5254
  164OSM    H2F18500   0.371   3.662   2.732  0.7261 -0.2008  0.8885
  164OSM    H2G18501   0.341   3.651   2.906 -0.0958 -1.6112 -0.1893
  164OSM    C3F18502   0.332   3.851   2.835 -0.1985 -0.4962 -0.2408
  164OSM    H3F18503   0.299   3.914   2.750 -2.1104 -0.9599  0.1105
  164OSM    H3G18504   0.439   3.881   2.843 -0.3525 -0.3475  1.9091
  164OSM    C4F18505   0.273   3.915   2.965  0.4136 -0.2057 -0.5702
  164OSM    H4F18506   0.267   3.840   3.046  1.6929 -0.1370 -0.3814
  164OSM    H4G18507   0.173   3.953   2.936  0.5400 -0.7514 -1.7857
  164OSM    C5F18508   0.346   4.038   3.015 -0.6255  0.3843 -1.1935
  164OSM    H5F18509   0.387   4.092   2.926  0.0566 -0.7403 -1.5868
  164OSM    H5G18510   0.437   4.005   3.070  0.0577  0.3738 -2.2995
  164OSM    C6F18511   0.262   4.135   3.099 -0.7460  0.4498  0.8186
  164OSM    H6F18512   0.187   4.182   3.032 -0.3458  1.3182  0.9749
  164OSM    H6G18513   0.329   4.218   3.128 -0.0325  0.9231 -1.9809
  164OSM    C7F18514   0.189   4.080   3.218 -0.0162 -0.1915 -0.1615
  164OSM    H7F18515   0.275   4.053   3.283  1.4990 -0.2054 -2.0716
  164OSM    H7G18516   0.149   3.982   3.187 -1.1927  0.5616 -1.1189
  164OSM    C8F18517   0.085   4.181   3.272 -0.2072  0.6532  0.2989
  164OSM    H8F18518  -0.013   4.146   3.233  0.4093 -2.2603  1.0891
  164OSM    H8G18519   0.121   4.278   3.233  0.8179  1.0143  2.0502
  164OSM    C9F18520   0.085   4.176   3.424  0.1642  0.6275  0.0433
  164OSM    H9F18521   0.184   4.180   3.471 -0.2965 -1.3468  1.2751
  164OSM   C10F18522  -0.027   4.173   3.501  0.4361 -0.1863  0.1432
  164OSM   H10F18523  -0.024   4.167   3.611 -1.7497  0.8525  0.3028
  164OSM   C11F18524  -0.171   4.202   3.455 -0.5896 -0.1893 -0.4503
  164OSM   H11F18525  -0.172   4.211   3.344  0.0288  0.4289 -0.4187
  164OSM   H11G18526  -0.205   4.296   3.504 -1.7193 -1.5390  1.4717
  164OSM   C12F18527  -0.284   4.105   3.500 -0.5299  0.0466 -0.0958
  164OSM   H12F18528  -0.273   4.097   3.611  0.0686  0.9924 -0.0717
  164OSM   H12G18529  -0.260   4.009   3.449  0.8440 -0.8177  2.0295
  164OSM   C13F18530  -0.413   4.153   3.452  0.3663 -0.5772  1.1901
  164OSM   H13F18531  -0.403   4.259   3.421 -0.0356 -0.8722 -0.0019
  164OSM   H13G18532  -0.474   4.174   3.542 -1.0804  1.7107 -0.2403
  164OSM   C14F18533  -0.494   4.064   3.354 -0.5737  0.1836 -0.5151
  164OSM   H14F18534  -0.507   3.964   3.401  1.4415  0.1204 -0.0132
  164OSM   H14G18535  -0.434   4.042   3.263 -0.0438  0.0972 -0.1490
  164OSM   C15F18536  -0.616   4.145   3.304  0.0159  0.1501 -0.6824
  164OSM   H15F18537  -0.676   4.152   3.398  1.9290 -0.6655  0.6605
  164OSM   H15G18538  -0.682   4.085   3.237  0.9244 -1.7126  0.0310
  164OSM   C16F18539  -0.592   4.285   3.230 -0.0283 -0.9735  0.6855
  164OSM   H16F18540  -0.614   4.254   3.126  3.0674 -0.3580 -0.2630
  164OSM   H16G18541  -0.485   4.314   3.229 -0.2065  0.2145  4.1563
  164OSM   C17F18542  -0.692   4.397   3.280  0.2522 -0.0063 -0.0036
  164OSM   H17F18543  -0.798   4.364   3.289  0.2104  0.2169  0.3182
  164OSM   H17G18544  -0.689   4.478   3.204 -0.0435  0.3088  0.3215
  164OSM   C18F18545  -0.656   4.461   3.413 -0.3164  0.1321 -0.1997
  164OSM   H18F18546  -0.680   4.387   3.493 -1.4452  0.8953  0.1921
  164OSM   H18G18547  -0.724   4.542   3.447 -2.0825 -1.9905  1.7658
  164OSM   H18H18548  -0.551   4.492   3.426 -0.7249  1.9417 -0.8785
  165SAPS     N18549   6.000   1.608   7.161  0.0037  0.0954  0.1164
  165SAPS   HN118550   6.068   1.638   7.088  0.2984 -0.8920 -0.0299
  165SAPS   HN218551   5.915   1.556   7.133  1.0164 -2.1546  0.9110
  165SAPS   HN318552   5.965   1.689   7.216 -0.1888  0.4554 -0.5275
  165SAPS   C1218553   6.070   1.509   7.246  0.1329  0.0816 -0.4538
  165SAPS  H12A18554   6.172   1.539   7.263  0.8822 -2.0321 -0.8955
  165SAPS   C1318555   6.002   1.479   7.385  0.2591  0.2920 -0.0614
  165SAPS  O13A18556   5.898   1.537   7.421  0.0520  0.0023  0.2855
  165SAPS  O13B18557   6.080   1.422   7.469 -0.3634 -0.5158 -0.3618
  165SAPS   C1118558   6.059   1.377   7.160  0.0006 -0.3530 -0.0097
  165SAPS  H11A18559   6.124   1.296   7.201  2.3488  2.0639  1.3812
  165SAPS  H11B18560   6.094   1.392   7.056 -1.6361 -0.2221 -0.5557
  165SAPS     P18561   5.815   1.351   7.040 -0.2710  0.0848 -0.1045
  165SAPS   O1318562   5.693   1.270   7.058 -0.2857  0.5316 -0.5601
  165SAPS   O1418563   5.800   1.496   7.030 -0.2199 -0.1134 -0.0737
  165SAPS   O1218564   5.924   1.320   7.149 -0.2438  0.0363  0.5065
  165SAPS   O1118565   5.895   1.300   6.910 -0.2681  0.3910 -0.0259
  165SAPS    C118566   5.946   1.388   6.815  0.3560 -0.5372  0.0761
  165SAPS    HA18567   5.976   1.486   6.859  0.0731  0.1093 -1.1201
  165SAPS    HB18568   6.029   1.341   6.759  0.3157  0.9108 -1.2851
  165SAPS    C218569   5.838   1.436   6.720  0.3539 -0.7344 -0.3468
  165SAPS    HS18570   5.805   1.536   6.757 -0.7682 -1.2070 -0.0447
  165SAPS   O2118571   5.737   1.336   6.711  0.7208 -0.6655  0.4469
  165SAPS   C2118572   5.615   1.382   6.699 -0.2152 -0.3759  0.7816
  165SAPS   O2218573   5.578   1.499   6.697 -0.2253 -0.1826  0.0742
  165SAPS   C2218574   5.513   1.273   6.690 -0.2155  0.3239  0.4168
  165SAPS   H2R18575   5.557   1.172   6.682 -1.4559 -0.1358 -1.3547
  165SAPS   H2S18576   5.454   1.281   6.783  0.8359 -0.7470  1.1947
  165SAPS    C318577   5.894   1.472   6.575 -0.3680 -0.6843 -1.0178
  165SAPS    HX18578   5.938   1.380   6.533  1.9782  0.4240 -1.1495
  165SAPS    HY18579   5.967   1.554   6.591 -0.1282 -1.0877 -0.0195
  165SAPS   O3118580   5.790   1.520   6.488 -0.3519  0.3026  0.1436
  165SAPS   C3118581   5.786   1.654   6.454  1.2331 -0.3933 -0.2736
  165SAPS   O3218582   5.845   1.738   6.513 -0.6005 -0.4760 -0.2187
  165SAPS   C3218583   5.692   1.675   6.334  0.4353 -0.5486 -0.3781
  165SAPS   H2X18584   5.595   1.628   6.362  0.2308 -0.2539 -0.5915
  165SAPS   H2Y18585   5.723   1.625   6.240  0.1097 -1.2141 -0.1299
  165SAPS   C2318586   5.424   1.286   6.565  0.2767 -0.7224  0.6665
  165SAPS   H3R18587   5.355   1.367   6.596 -0.6027 -2.1348  2.6041
  165SAPS   H3S18588   5.359   1.196   6.563 -1.1489  0.2746  0.6135
  165SAPS   C2418589   5.484   1.303   6.424 -0.6583 -0.3309 -0.2489
  165SAPS   H4R18590   5.534   1.206   6.400 -0.8752 -0.3648 -0.5643
  165SAPS   H4S18591   5.556   1.387   6.429 -1.3953  0.3298 -0.5581
  165SAPS   C2518592   5.379   1.349   6.330 -0.5274 -1.4970 -0.4607
  165SAPS   H5R18593   5.292   1.393   6.381 -0.7788  0.3338 -2.3086
  165SAPS   C2618594   5.386   1.337   6.198  0.3444  0.4832 -0.2400
  165SAPS   H6R18595   5.306   1.382   6.136 -1.6052 -0.0589  1.7545
  165SAPS   C2718596   5.506   1.293   6.120  0.4555  0.0828 -0.6536
  165SAPS   H7R18597   5.472   1.234   6.032  1.3425 -2.5824  0.6490
  165SAPS   H7S18598   5.562   1.217   6.179  0.5393 -0.3361 -1.2571
  165SAPS   C2818599   5.597   1.407   6.075 -0.4366  1.5517  0.2369
  165SAPS   H8R18600   5.652   1.457   6.156  2.4458  0.5256 -0.9841
  165SAPS   C2918601   5.635   1.438   5.952 -0.0502 -0.8370 -0.0220
  165SAPS   H9R18602   5.690   1.532   5.942 -0.1959 -0.7794 -0.3033
  165SAPS  C21018603   5.575   1.378   5.822 -0.1411  0.1633  0.3295
  165SAPS  H10R18604   5.465   1.395   5.818 -0.5241 -1.7800  1.4596
  165SAPS  H10S18605   5.583   1.267   5.815  0.0374  0.2653 -2.1461
  165SAPS  C21118606   5.640   1.432   5.699 -0.4289  0.2028  0.3259
  165SAPS  H11R18607   5.741   1.476   5.709 -0.7658  1.1619 -0.3121
  165SAPS  C21218608   5.582   1.429   5.580  0.6109  0.1428  0.7610
  165SAPS  H12R18609   5.625   1.481   5.493  0.5911 -1.1890 -0.0788
  165SAPS  C21318610   5.451   1.364   5.556  0.7101 -0.2513  1.0332
  165SAPS  H13R18611   5.417   1.296   5.637  1.1747 -1.4941  0.2205
  165SAPS  H13S18612   5.463   1.290   5.473  0.5469  1.9116 -1.0092
  165SAPS  C21418613   5.335   1.456   5.514  0.7117 -0.3407 -0.7752
  165SAPS  H14R18614   5.256   1.482   5.586 -0.7410 -2.1817 -1.6253
  165SAPS  C21518615   5.329   1.521   5.390 -0.1879  0.0148 -0.3861
  165SAPS  H15R18616   5.251   1.595   5.365  0.0631  0.2846 -0.3708
  165SAPS  C21618617   5.432   1.503   5.280 -0.1883 -0.8170 -0.0813
  165SAPS  H16R18618   5.487   1.408   5.294  0.0593 -0.6474  0.1229
  165SAPS  H16S18619   5.505   1.586   5.286 -1.6472  0.4296  2.9393
  165SAPS  C21718620   5.375   1.505   5.144 -0.0032 -0.0523  0.0880
  165SAPS  H17R18621   5.311   1.594   5.128  1.3513  0.6718 -1.4951
  165SAPS  H17S18622   5.309   1.416   5.128  2.1225 -1.7517  0.2992
  165SAPS  C21818623   5.480   1.512   5.037  0.4857  0.1414 -0.8287
  165SAPS  H18R18624   5.540   1.419   5.048 -0.8226 -0.4354  2.5459
  165SAPS  H18S18625   5.536   1.605   5.059 -1.4018  1.0713  0.2762
  165SAPS  C21918626   5.420   1.536   4.907 -0.6716 -0.1444  0.9191
  165SAPS  H19R18627   5.503   1.566   4.840 -1.5810  3.3646  1.1685
  165SAPS  H19S18628   5.360   1.629   4.917  0.7732  1.0481 -0.9809
  165SAPS  C22018629   5.341   1.428   4.846 -0.4625  0.8174  0.0608
  165SAPS  H20R18630   5.250   1.393   4.899 -0.8173 -1.2969 -1.8028
  165SAPS  H20S18631   5.409   1.340   4.844  0.3433  1.4379 -0.9050
  165SAPS  H20T18632   5.316   1.458   4.743 -0.2516 -1.6318 -0.7829
  165SAPS   C3318633   5.672   1.835   6.301 -0.1258  0.5414 -0.1957
  165SAPS   H3X18634   5.766   1.880   6.263  0.9511 -2.4327 -1.3707
  165SAPS   H3Y18635   5.641   1.884   6.395  0.6055  0.6948 -0.0269
  165SAPS   C3418636   5.562   1.859   6.198  0.3592  0.6774 -0.0934
  165SAPS   H4X18637   5.570   1.970   6.192  1.4363  0.6385  0.4189
  165SAPS   H4Y18638   5.464   1.822   6.236  1.1470  1.0160  2.4786
  165SAPS   C3518639   5.573   1.798   6.060  0.0269 -0.1886 -0.2822
  165SAPS   H5X18640   5.484   1.834   6.004  0.9322  2.1363 -0.3193
  165SAPS   H5Y18641   5.564   1.687   6.060 -1.7788 -0.0970  1.1858
  165SAPS   C3618642   5.696   1.845   5.981  0.2701  0.0206  1.2612
  165SAPS   H6X18643   5.783   1.790   6.024 -0.6293 -1.3271  1.4256
  165SAPS   H6Y18644   5.699   1.956   5.992  0.0017 -0.0612  2.2354
  165SAPS   C3718645   5.698   1.811   5.832  0.1805  1.0016  0.1350
  165SAPS   H7X18646   5.699   1.700   5.828  3.5607  0.9422 -0.0456
  165SAPS   H7Y18647   5.797   1.832   5.787  0.9596 -0.3997  1.1255
  165SAPS   C3818648   5.584   1.875   5.746  0.0156 -0.6361  0.0341
  165SAPS   H8X18649   5.607   1.984   5.747  1.9813 -1.0067 -0.3769
  165SAPS   H8Y18650   5.485   1.846   5.788  0.3004  0.0956  1.2455
  165SAPS   C3918651   5.587   1.812   5.602  0.6484 -0.7113 -0.3523
  165SAPS   H9X18652   5.506   1.869   5.550  1.1738 -0.1594 -0.5875
  165SAPS   H9Y18653   5.560   1.705   5.595 -3.0518  0.1647 -1.5247
  165SAPS  C31018654   5.720   1.846   5.529 -0.6343  0.3064  0.3912
  165SAPS  H10X18655   5.803   1.782   5.566  0.1242  0.2618 -1.3033
  165SAPS  H10Y18656   5.749   1.953   5.538 -0.6717  0.6728 -2.7450
  165SAPS  C31118657   5.711   1.824   5.379  0.0379  0.4529  0.3323
  165SAPS  H11X18658   5.624   1.888   5.353 -0.0719 -0.1817 -0.9691
  165SAPS  H11Y18659   5.690   1.720   5.346  2.0269  0.1939 -0.2712
  165SAPS  C31218660   5.829   1.868   5.294  0.2548  0.2569 -0.1991
  165SAPS  H12X18661   5.902   1.785   5.280 -1.6908 -1.1657 -2.9462
  165SAPS  H12Y18662   5.890   1.942   5.350  2.6759 -0.6647 -1.5020
  165SAPS  C31318663   5.798   1.919   5.152 -0.0176 -0.6761 -0.0600
  165SAPS  H13X18664   5.731   2.006   5.168  0.8924  0.0848 -0.3077
  165SAPS  H13Y18665   5.753   1.846   5.082 -2.3183  0.2765  0.3235
  165SAPS  C31418666   5.926   1.963   5.081  0.5996  0.1622 -0.6900
  165SAPS  H14X18667   5.988   2.022   5.153 -1.6779 -0.8383  2.3189
  165SAPS  H14Y18668   5.906   2.035   4.999  1.4376 -1.5485 -2.4648
  165SAPS  C31518669   6.014   1.846   5.046 -0.4803 -0.1203  0.0295
  165SAPS  H15X18670   5.957   1.758   5.011 -1.0272  0.5380 -0.7779
  165SAPS  H15Y18671   6.062   1.802   5.137  0.0161  1.1477  0.4063
  165SAPS  C31618672   6.128   1.887   4.941  0.7595  0.1093  1.2258
  165SAPS  H16X18673   6.197   1.965   4.981  0.5472  2.0680 -1.8753
  165SAPS  H16Y18674   6.075   1.932   4.854  1.5347 -0.6389  0.3291
  165SAPS  C31718675   6.216   1.767   4.899  0.2617 -0.7851 -0.1021
  165SAPS  H17X18676   6.156   1.689   4.848  1.9898 -2.3771  0.1970
  165SAPS  H17Y18677   6.262   1.722   4.989  0.2411  0.0269  0.3324
  165SAPS  C31818678   6.335   1.803   4.811 -0.2344 -0.2822 -0.8404
  165SAPS  H18X18679   6.387   1.707   4.791  0.7476  0.3098 -1.2270
  165SAPS  H18Y18680   6.410   1.867   4.861 -1.6505 -1.0374  2.5748
  165SAPS  H18Z18681   6.293   1.845   4.717 -1.1484 -1.2412 -0.8813
  166SAPS     N18682   3.450   3.598   7.365 -0.1453 -0.3672  0.3590
  166SAPS   HN118683   3.480   3.532   7.440  0.5887  0.0467  0.4426
  166SAPS   HN218684   3.356   3.640   7.377 -0.0457  0.2980 -0.9761
  166SAPS   HN318685   3.442   3.546   7.275  2.6711 -0.2687 -0.0307
  166SAPS   C1218686   3.559   3.700   7.354  0.1832  0.3814  0.5783
  166SAPS  H12A18687   3.513   3.789   7.314 -0.2407 -0.8447 -1.8089
  166SAPS   C1318688   3.633   3.741   7.482 -0.6291  0.0657 -0.4968
  166SAPS  O13A18689   3.589   3.695   7.587 -0.0011 -0.2543 -0.2328
  166SAPS  O13B18690   3.725   3.824   7.479 -0.0642 -0.5812  0.2689
  166SAPS   C1118691   3.669   3.642   7.260  0.5433  0.1207 -0.0536
  166SAPS  H11A18692   3.728   3.569   7.320  1.3464  0.2255 -0.6866
  166SAPS  H11B18693   3.749   3.719   7.247  3.3661 -2.0682  2.7397
  166SAPS     P18694   3.580   3.688   7.023  0.5252 -0.2725 -0.1154
  166SAPS   O1318695   3.451   3.757   7.052  0.0999 -0.0873 -0.4652
  166SAPS   O1418696   3.700   3.773   7.000  0.5100 -0.6897 -0.7093
  166SAPS   O1218697   3.615   3.590   7.138  0.3217  0.1108 -0.5234
  166SAPS   O1118698   3.560   3.592   6.899  0.7102  0.6750 -0.0100
  166SAPS    C118699   3.660   3.527   6.829 -0.4018  0.0470  0.6101
  166SAPS    HA18700   3.754   3.516   6.886 -0.5671 -2.5228  0.5170
  166SAPS    HB18701   3.624   3.426   6.797  0.7364  0.1477 -1.1563
  166SAPS    C218702   3.693   3.613   6.700 -0.2912  0.2084  0.0927
  166SAPS    HS18703   3.738   3.711   6.728 -0.1346  0.8386 -2.1704
  166SAPS   O2118704   3.578   3.625   6.613 -0.0121  0.2876 -0.0270
  166SAPS   C2118705   3.574   3.744   6.553 -0.4908 -0.6984  0.2975
  166SAPS   O2218706   3.660   3.832   6.572  0.5181 -0.1479  0.0253
  166SAPS   C2218707   3.456   3.750   6.465 -0.2242 -1.1060  0.0704
  166SAPS   H2R18708   3.370   3.697   6.514  0.4970 -0.9961  1.5225
  166SAPS   H2S18709   3.439   3.856   6.437  1.8705 -1.3570 -2.5431
  166SAPS    C318710   3.809   3.540   6.625 -0.5232 -0.6997 -1.0279
  166SAPS    HX18711   3.781   3.433   6.619  0.9400 -1.3417  1.6081
  166SAPS    HY18712   3.908   3.542   6.677 -0.1682 -2.4614 -1.5651
  166SAPS   O3118713   3.813   3.584   6.493 -0.3255  0.3345 -0.1837
  166SAPS   C3118714   3.911   3.667   6.460  0.8057 -1.0654 -0.8242
  166SAPS   O3218715   3.996   3.716   6.536 -0.5452 -0.0457 -0.2949
  166SAPS   C3218716   3.913   3.702   6.315  0.3240  0.4006  0.5509
  166SAPS   H2X18717   4.017   3.717   6.280  0.7060  0.8074  1.8057
  166SAPS   H2Y18718   3.868   3.803   6.302 -0.6323 -0.2939 -2.3623
  166SAPS   C2318719   3.469   3.694   6.322  0.7223 -0.2990 -0.8939
  166SAPS   H3R18720   3.474   3.583   6.324  0.9751 -0.2861 -0.6379
  166SAPS   H3S18721   3.561   3.735   6.276  0.2626  0.0715 -1.4945
  166SAPS   C2418722   3.337   3.725   6.245  0.2319 -0.3942 -0.3001
  166SAPS   H4R18723   3.305   3.829   6.268  0.3391 -0.2742 -0.6889
  166SAPS   H4S18724   3.272   3.646   6.288  0.7913 -1.0899 -0.7008
  166SAPS   C2518725   3.345   3.710   6.098  0.4536 -0.9146  1.3458
  166SAPS   H5R18726   3.425   3.768   6.050 -1.3645  0.5318 -0.1149
  166SAPS   C2618727   3.284   3.612   6.031 -0.4991 -0.4857 -0.4631
  166SAPS   H6R18728   3.289   3.625   5.922 -0.1922  2.6790 -0.1748
  166SAPS   C2718729   3.194   3.505   6.087 -0.1594 -0.5137 -0.1162
  166SAPS   H7R18730   3.091   3.545   6.093 -0.9238 -2.2398 -1.0056
  166SAPS   H7S18731   3.206   3.475   6.193  0.4186  0.4968  0.1213
  166SAPS   C2818732   3.204   3.384   5.997  0.2264  0.0568  0.0738
  166SAPS   H8R18733   3.277   3.304   6.016 -0.3019 -0.7241 -1.0704
  166SAPS   C2918734   3.135   3.364   5.879  0.8376  0.0856  0.2260
  166SAPS   H9R18735   3.150   3.271   5.822 -0.1251 -0.1394  0.3178
  166SAPS  C21018736   3.028   3.459   5.818  0.5414  0.0335  0.0629
  166SAPS  H10R18737   3.006   3.538   5.892  2.1134  2.6711 -2.1135
  166SAPS  H10S18738   2.930   3.408   5.804  0.4338 -0.1673  1.4099
  166SAPS  C21118739   3.076   3.519   5.693  0.1513 -0.1268  0.4681
  166SAPS  H11R18740   3.162   3.586   5.708  1.6877 -1.9042 -0.0325
  166SAPS  C21218741   3.032   3.490   5.572  0.7381 -0.0199 -0.4284
  166SAPS  H12R18742   3.065   3.558   5.493 -1.0287  0.1920 -1.0346
  166SAPS  C21318743   2.917   3.397   5.527 -0.0799 -0.3994 -0.2297
  166SAPS  H13R18744   2.880   3.417   5.424  0.6127  0.6423 -0.2918
  166SAPS  H13S18745   2.826   3.425   5.583 -1.0462  0.7631 -2.2592
  166SAPS  C21418746   2.942   3.252   5.549 -0.6876  0.0413 -0.0875
  166SAPS  H14R18747   2.892   3.196   5.630 -1.3040 -0.1244 -0.5745
  166SAPS  C21518748   3.038   3.180   5.471  0.6815 -0.7320 -0.3822
  166SAPS  H15R18749   3.046   3.078   5.509  2.0958  0.4600  2.9145
  166SAPS  C21618750   3.122   3.224   5.351  1.1698  0.2451  0.4030
  166SAPS  H16R18751   3.085   3.321   5.313  0.7299  0.7228  1.9877
  166SAPS  H16S18752   3.103   3.159   5.263 -0.9497  1.4537 -0.1083
  166SAPS  C21718753   3.273   3.229   5.382 -0.2828 -0.9792 -0.0950
  166SAPS  H17R18754   3.304   3.122   5.391  0.0545 -0.9636 -1.0158
  166SAPS  H17S18755   3.295   3.281   5.477 -2.7272  0.2260 -0.0924
  166SAPS  C21818756   3.358   3.298   5.276  0.6460  0.0828 -0.1082
  166SAPS  H18R18757   3.465   3.284   5.299  0.3717 -0.4365  0.9414
  166SAPS  H18S18758   3.346   3.408   5.275  1.2022  0.2574  2.8943
  166SAPS  C21918759   3.333   3.242   5.135  1.1912  0.1690 -0.1639
  166SAPS  H19R18760   3.240   3.288   5.096  0.9271  1.6991  2.1085
  166SAPS  H19S18761   3.326   3.131   5.130 -0.2690  0.2794 -1.2247
  166SAPS  C22018762   3.444   3.287   5.036  0.7748  0.1277  0.2665
  166SAPS  H20R18763   3.439   3.398   5.039  1.2051  0.2035 -1.3422
  166SAPS  H20S18764   3.430   3.244   4.935  0.0950  0.9349 -0.0032
  166SAPS  H20T18765   3.536   3.257   5.090 -0.5263 -2.2993  1.3197
  166SAPS   C3318766   3.835   3.606   6.226  0.6350 -0.4384  0.7610
  166SAPS   H3X18767   3.730   3.604   6.262 -0.0748  1.9473 -0.9220
  166SAPS   H3Y18768   3.885   3.507   6.226  1.7786  0.0696 -1.4247
  166SAPS   C3418769   3.833   3.656   6.082  0.1460  0.2295 -0.5547
  166SAPS   H4X18770   3.940   3.653   6.050  1.2533 -0.5746  2.7893
  166SAPS   H4Y18771   3.796   3.760   6.094 -2.1710 -0.4964 -0.8833
  166SAPS   C3518772   3.744   3.572   5.989 -0.5833  0.5967  0.3316
  166SAPS   H5X18773   3.650   3.558   6.047 -0.8323 -4.4205 -0.7733
  166SAPS   H5Y18774   3.783   3.468   5.978 -1.4595  0.2309  0.5077
  166SAPS   C3618775   3.741   3.640   5.847  0.0873  0.2745  0.3781
  166SAPS   H6X18776   3.839   3.623   5.798  0.1322  0.7253  0.3063
  166SAPS   H6Y18777   3.726   3.750   5.856  0.0253  0.2256  0.8757
  166SAPS   C3718778   3.640   3.563   5.757 -0.3037 -0.2890 -0.4149
  166SAPS   H7X18779   3.534   3.585   5.782 -0.3728  1.1340 -1.8525
  166SAPS   H7Y18780   3.651   3.453   5.761  1.5166 -0.2240 -2.2132
  166SAPS   C3818781   3.665   3.599   5.613  0.5771 -0.0534  0.0401
  166SAPS   H8X18782   3.764   3.563   5.578  0.1840 -0.8314 -0.2966
  166SAPS   H8Y18783   3.678   3.710   5.617  0.6350  0.0010 -1.2708
  166SAPS   C3918784   3.558   3.557   5.514  0.6251 -0.0539 -0.6582
  166SAPS   H9X18785   3.469   3.622   5.525  1.3124  0.5982  1.7023
  166SAPS   H9Y18786   3.541   3.447   5.524 -1.8222  0.0446 -2.7501
  166SAPS  C31018787   3.604   3.574   5.368 -0.2177 -0.4460 -0.4243
  166SAPS  H10X18788   3.519   3.550   5.300 -1.5615 -0.1520  1.1025
  166SAPS  H10Y18789   3.688   3.503   5.350  1.0521  0.9173 -0.0183
  166SAPS  C31118790   3.656   3.722   5.343  0.1513 -0.5439  0.0485
  166SAPS  H11X18791   3.752   3.739   5.396  1.7804 -2.8418 -1.9378
  166SAPS  H11Y18792   3.578   3.786   5.389  0.2129 -1.7984  2.0049
  166SAPS  C31218793   3.666   3.777   5.199 -0.7958  0.6009  0.0996
  166SAPS  H12X18794   3.755   3.739   5.143 -1.1444 -1.4881  0.8730
  166SAPS  H12Y18795   3.660   3.888   5.202 -1.2439  0.5585  0.9350
  166SAPS  C31318796   3.558   3.721   5.106 -0.1216 -1.1216  0.2414
  166SAPS  H13X18797   3.460   3.732   5.155  0.4069  1.5970  0.8473
  166SAPS  H13Y18798   3.583   3.615   5.083  0.0073 -1.4760  1.8989
  166SAPS  C31418799   3.545   3.788   4.962 -0.0720 -0.0784  0.6125
  166SAPS  H14X18800   3.639   3.777   4.904 -1.0403  1.1634 -1.2969
  166SAPS  H14Y18801   3.535   3.898   4.979 -0.3661  0.1449 -0.9117
  166SAPS  C31518802   3.436   3.727   4.873  0.3395  0.4483  0.7203
  166SAPS  H15X18803   3.342   3.746   4.929 -1.7037  1.9717 -2.8849
  166SAPS  H15Y18804   3.454   3.618   4.859 -1.0778  0.3971 -0.9955
  166SAPS  C31618805   3.408   3.797   4.738 -0.6235  0.0369  0.7096
  166SAPS  H16X18806   3.506   3.791   4.686 -2.3718 -1.4830 -2.8181
  166SAPS  H16Y18807   3.385   3.899   4.773  1.8132  0.0782  2.3734
  166SAPS  C31718808   3.320   3.733   4.632 -0.0873 -0.7401  0.3074
  166SAPS  H17X18809   3.307   3.789   4.537 -2.2225  1.3473  1.6878
  166SAPS  H17Y18810   3.214   3.719   4.664 -0.5680 -0.7025 -1.1924
  166SAPS  C31818811   3.372   3.596   4.600 -0.6769  0.4945  0.3061
  166SAPS  H18X18812   3.351   3.519   4.677  0.4025 -1.8310 -1.6054
  166SAPS  H18Y18813   3.483   3.596   4.593 -0.7849  0.8883 -1.9980
  166SAPS  H18Z18814   3.330   3.556   4.506  0.4717 -1.4019  0.5502
  167SAPS     N18815   0.870   2.199   7.635 -0.0942  1.0251  0.5957
  167SAPS   HN118816   0.859   2.259   7.720 -2.1161  2.3218 -0.5024
  167SAPS   HN218817   0.953   2.228   7.580  1.5098 -1.0573  1.7773
  167SAPS   HN318818   0.785   2.209   7.576  0.9006 -1.2034 -1.3319
  167SAPS   C1218819   0.892   2.055   7.672 -0.4754  0.1973 -0.6731
  167SAPS  H12A18820   0.928   2.003   7.584 -1.8787 -0.9605 -0.6036
  167SAPS   C1318821   1.000   2.041   7.782 -0.0562 -0.6595 -0.5892
  167SAPS  O13A18822   1.049   2.139   7.844 -0.2760 -0.9596 -0.0777
  167SAPS  O13B18823   1.028   1.926   7.823 -0.1095  0.2264  0.4269
  167SAPS   C1118824   0.751   2.000   7.720 -0.6840 -0.1116 -0.0296
  167SAPS  H11A18825   0.717   2.053   7.812 -1.5780  0.3080 -0.5898
  167SAPS  H11B18826   0.773   1.892   7.737 -2.6937 -0.3255  1.6713
  167SAPS     P18827   0.614   1.921   7.511 -0.1205  0.7648  0.2543
  167SAPS   O1318828   0.577   1.798   7.582 -0.2276 -0.4729  0.0284
  167SAPS   O1418829   0.513   1.976   7.415 -0.2869  0.2211 -0.6583
  167SAPS   O1218830   0.659   2.020   7.619 -0.5014  0.7074 -0.3005
  167SAPS   O1118831   0.743   1.901   7.433  0.1526 -0.3602  0.4105
  167SAPS    C118832   0.787   1.996   7.326  0.9066 -0.3941 -0.6333
  167SAPS    HA18833   0.761   2.102   7.347  0.4436 -0.7284  0.5298
  167SAPS    HB18834   0.898   1.993   7.329  0.8740 -1.2389  1.7653
  167SAPS    C218835   0.732   1.958   7.185  0.2927  0.7055  0.3934
  167SAPS    HS18836   0.621   1.965   7.193 -0.2081 -3.5213 -0.8244
  167SAPS   O2118837   0.772   1.814   7.158  0.6349 -0.9051 -0.2820
  167SAPS   C2118838   0.682   1.743   7.100 -0.2686 -0.3824  0.1594
  167SAPS   O2218839   0.569   1.772   7.071 -0.0316 -0.2890  0.5580
  167SAPS   C2218840   0.737   1.597   7.072  0.4818  0.7883 -0.1866
  167SAPS   H2R18841   0.840   1.584   7.111 -0.5491  0.7430  2.7594
  167SAPS   H2S18842   0.672   1.541   7.142  0.6780 -0.4841 -0.9892
  167SAPS    C318843   0.748   2.059   7.064 -0.6471 -0.5786 -0.3635
  167SAPS    HX18844   0.855   2.090   7.070 -0.9613  0.2701  2.0100
  167SAPS    HY18845   0.681   2.148   7.068 -1.0619 -0.8297 -1.5122
  167SAPS   O3118846   0.724   1.989   6.940  0.4306 -0.2143 -0.2006
  167SAPS   C3118847   0.696   2.060   6.838  0.2303 -0.4088  0.2642
  167SAPS   O3218848   0.689   2.183   6.830  0.0865  0.5077 -0.4876
  167SAPS   C3218849   0.672   1.974   6.719  0.1755 -0.1221 -0.3083
  167SAPS   H2X18850   0.579   1.915   6.733  1.0364 -1.6677 -0.7548
  167SAPS   H2Y18851   0.757   1.902   6.713 -1.5489 -2.2412 -0.2256
  167SAPS   C2318852   0.715   1.555   6.924 -0.2055 -0.4969  0.0011
  167SAPS   H3R18853   0.608   1.548   6.892  0.2540 -0.0245 -1.7715
  167SAPS   H3S18854   0.756   1.452   6.930 -1.1385 -0.8049  1.9694
  167SAPS   C2418855   0.786   1.642   6.820 -0.8726  0.8653  0.6207
  167SAPS   H4R18856   0.889   1.657   6.859 -1.9914  2.3939  3.1810
  167SAPS   H4S18857   0.740   1.743   6.818  0.6272  1.5963 -2.3287
  167SAPS   C2518858   0.787   1.586   6.678  0.2672 -0.2013 -0.5565
  167SAPS   H5R18859   0.687   1.544   6.660 -0.8023  1.5726  0.8807
  167SAPS   C2618860   0.883   1.591   6.582 -0.5096  0.0890 -0.6857
  167SAPS   H6R18861   0.871   1.537   6.487  1.3665 -0.6955 -0.5239
  167SAPS   C2718862   1.015   1.672   6.587  0.8138 -0.3669  0.4413
  167SAPS   H7R18863   1.057   1.685   6.689  0.8802  0.8053  0.2862
  167SAPS   H7S18864   0.983   1.770   6.544 -1.3756 -1.0240  0.4512
  167SAPS   C2818865   1.115   1.611   6.493 -0.1776  0.1875  0.2154
  167SAPS   H8R18866   1.156   1.514   6.525 -3.1397 -1.1838  0.0999
  167SAPS   C2918867   1.164   1.661   6.379  0.3262 -0.5178 -0.2432
  167SAPS   H9R18868   1.253   1.607   6.345  0.8706  0.0457  0.2478
  167SAPS  C21018869   1.125   1.777   6.286  0.2555  0.5579  0.1084
  167SAPS  H10R18870   1.212   1.845   6.277 -0.8293  1.7906 -1.6462
  167SAPS  H10S18871   1.042   1.831   6.337  0.3008  1.4198 -0.7198
  167SAPS  C21118872   1.081   1.714   6.155  0.3852  0.0996  0.6222
  167SAPS  H11R18873   0.990   1.652   6.150  0.4446 -0.0232  0.9723
  167SAPS  C21218874   1.136   1.733   6.030  0.2951 -0.0322  1.0206
  167SAPS  H12R18875   1.097   1.675   5.945  1.0027  0.8006  0.1086
  167SAPS  C21318876   1.262   1.803   5.990 -0.7788 -0.0759 -0.0442
  167SAPS  H13R18877   1.261   1.913   6.010  2.0351  0.1667 -0.7777
  167SAPS  H13S18878   1.288   1.784   5.884  0.1934 -2.5284  0.5835
  167SAPS  C21418879   1.380   1.765   6.076 -0.1215 -0.0679  0.5442
  167SAPS  H14R18880   1.349   1.706   6.164 -0.1212 -1.0741 -0.1121
  167SAPS  C21518881   1.508   1.776   6.047  0.0295  0.0472 -0.3077
  167SAPS  H15R18882   1.577   1.742   6.126  0.3606  0.1794 -0.5361
  167SAPS  C21618883   1.563   1.856   5.926 -0.0294  0.1715  0.0413
  167SAPS  H16R18884   1.641   1.924   5.964 -0.0056  0.5631 -0.6925
  167SAPS  H16S18885   1.481   1.907   5.871 -1.5085 -0.5797  1.4465
  167SAPS  C21718886   1.620   1.755   5.821 -0.1593  0.0309 -0.2680
  167SAPS  H17R18887   1.647   1.800   5.723 -0.1661 -1.7314 -1.1089
  167SAPS  H17S18888   1.539   1.684   5.796  1.0689 -1.3835 -0.3444
  167SAPS  C21818889   1.740   1.689   5.882  0.3121  0.0065  0.1763
  167SAPS  H18R18890   1.716   1.602   5.947 -0.0856  0.4916  0.6790
  167SAPS  H18S18891   1.794   1.768   5.938 -1.0318  0.5665  0.7015
  167SAPS  C21918892   1.840   1.632   5.781 -0.2995  0.0407 -0.1872
  167SAPS  H19R18893   1.795   1.547   5.725 -0.6085 -0.5576  0.9368
  167SAPS  H19S18894   1.927   1.584   5.830  1.9742  1.5808 -2.5147
  167SAPS  C22018895   1.904   1.745   5.702 -0.3206 -0.6737  0.1856
  167SAPS  H20R18896   1.826   1.794   5.640 -1.3317 -2.6527 -0.1857
  167SAPS  H20S18897   1.973   1.717   5.621 -2.0936 -0.5852 -1.4238
  167SAPS  H20T18898   1.958   1.819   5.766  0.9707 -0.1193 -1.4834
  167SAPS   C3318899   0.659   2.058   6.581 -0.1653  0.0658 -0.0437
  167SAPS   H3X18900   0.763   2.093   6.560  0.2481  0.2473  2.1185
  167SAPS   H3Y18901   0.600   2.150   6.597 -0.5493  0.0446 -1.2113
  167SAPS   C3418902   0.602   1.971   6.467 -0.1432  0.0226 -0.1134
  167SAPS   H4X18903   0.505   1.920   6.482  1.5853 -3.6054 -0.0025
  167SAPS   H4Y18904   0.672   1.886   6.450  1.3992  1.3691 -0.7586
  167SAPS   C3518905   0.606   2.022   6.325  0.0145 -0.2015  0.5900
  167SAPS   H5X18906   0.555   2.121   6.319  0.9761  0.3672  1.4097
  167SAPS   H5Y18907   0.552   1.950   6.260  0.3983  0.5866 -0.6502
  167SAPS   C3618908   0.746   2.035   6.263 -0.0156 -0.5263 -0.5926
  167SAPS   H6X18909   0.788   1.933   6.254 -0.3628 -0.5597 -2.1761
  167SAPS   H6Y18910   0.818   2.094   6.324 -1.5992  0.4642  0.3871
  167SAPS   C3718911   0.748   2.093   6.120 -0.4669  0.0731 -0.5294
  167SAPS   H7X18912   0.725   2.201   6.115 -0.9130 -0.0421 -0.9937
  167SAPS   H7Y18913   0.669   2.033   6.070  0.3175 -1.1464 -0.3689
  167SAPS   C3818914   0.879   2.062   6.046  0.1210 -0.4115 -0.0256
  167SAPS   H8X18915   0.902   1.959   6.080  1.0369  0.5672  2.5984
  167SAPS   H8Y18916   0.964   2.128   6.074  1.2492 -2.7863  2.6971
  167SAPS   C3918917   0.841   2.052   5.897 -0.1576 -0.5009  0.7600
  167SAPS   H9X18918   0.771   2.132   5.868  0.0249 -1.1922 -1.8562
  167SAPS   H9Y18919   0.784   1.957   5.893 -3.2504  1.2766 -0.2950
  167SAPS  C31018920   0.970   2.049   5.802  0.7452 -0.8773 -0.1000
  167SAPS  H10X18921   1.031   1.967   5.847  0.0403 -1.2887  0.1348
  167SAPS  H10Y18922   1.029   2.142   5.812  0.5862 -0.9437  1.8870
  167SAPS  C31118923   0.945   2.030   5.653  0.7080  0.3461  0.3843
  167SAPS  H11X18924   0.877   2.096   5.595  0.0116 -0.8180 -0.1663
  167SAPS  H11Y18925   0.907   1.926   5.652  1.0146  0.2070 -1.7101
  167SAPS  C31218926   1.081   2.024   5.570 -0.4598  0.3042 -0.3722
  167SAPS  H12X18927   1.152   1.952   5.615 -2.4427 -2.9866 -2.1173
  167SAPS  H12Y18928   1.130   2.124   5.573  1.3568 -0.5668  0.2575
  167SAPS  C31318929   1.076   1.987   5.425 -0.2284  0.2282  0.2343
  167SAPS  H13X18930   1.062   1.876   5.424  0.1265  0.1609  1.6672
  167SAPS  H13Y18931   1.172   2.023   5.382 -0.7870  1.1411 -0.2778
  167SAPS  C31418932   0.965   2.063   5.351 -0.3485  0.8225 -0.1727
  167SAPS  H14X18933   0.976   2.169   5.383  0.5701  0.0043  2.4649
  167SAPS  H14Y18934   0.870   2.015   5.382 -1.0233  3.6133  2.5735
  167SAPS  C31518935   0.985   2.061   5.199 -0.2032 -0.1039 -0.1300
  167SAPS  H15X18936   0.981   1.959   5.155 -0.1619  0.6820 -2.0385
  167SAPS  H15Y18937   1.087   2.099   5.178  1.2962 -1.1584  4.1785
  167SAPS  C31618938   0.882   2.155   5.131 -0.0976  0.4570 -0.6603
  167SAPS  H16X18939   0.897   2.258   5.169 -2.7036  0.8136 -0.3997
  167SAPS  H16Y18940   0.782   2.127   5.173  1.2099 -1.5307  1.3854
  167SAPS  C31718941   0.891   2.158   4.982 -0.3066  0.0244  0.0180
  167SAPS  H17X18942   0.902   2.053   4.948 -1.6473 -0.3020  0.5211
  167SAPS  H17Y18943   0.986   2.205   4.949  1.1465 -2.3145  0.6269
  167SAPS  C31818944   0.768   2.233   4.919  0.9208 -0.3788 -0.4534
  167SAPS  H18X18945   0.791   2.226   4.811  2.3750 -3.7358 -0.0392
  167SAPS  H18Y18946   0.769   2.335   4.965  1.0357 -0.3706 -0.4759
  167SAPS  H18Z18947   0.673   2.179   4.940  0.0099  0.4985 -2.1235
  168SAPS     N18948   5.631   1.661   6.893  0.5306  0.5036  0.1985
  168SAPS   HN118949   5.588   1.597   6.823 -1.1315  1.9421 -0.1879
  168SAPS   HN218950   5.689   1.732   6.843 -2.4182  1.2121 -2.6085
  168SAPS   HN318951   5.694   1.601   6.949  1.6601  0.4358 -1.0778
  168SAPS   C1218952   5.527   1.726   6.975  0.1565  0.0947 -0.7157
  168SAPS  H12A18953   5.498   1.824   6.938 -0.4446 -0.4016 -1.5985
  168SAPS   C1318954   5.406   1.629   6.994 -0.0851 -0.5501  0.5630
  168SAPS  O13A18955   5.422   1.508   6.966 -0.4998  0.4102 -0.1290
  168SAPS  O13B18956   5.304   1.673   7.052 -0.6688 -0.8633 -0.2523
  168SAPS   C1118957   5.586   1.757   7.120 -0.3655  0.0519  0.6005
  168SAPS  H11A18958   5.608   1.658   7.165  0.6648 -0.2855 -0.6013
  168SAPS  H11B18959   5.501   1.806   7.173 -1.8448  0.5997 -2.0508
  168SAPS     P18960   5.774   1.905   7.231 -0.1355  0.2708 -0.5992
  168SAPS   O1318961   5.666   1.959   7.323 -0.3544 -0.3712 -0.4303
  168SAPS   O1418962   5.869   1.807   7.291 -0.0432  0.1342 -0.5691
  168SAPS   O1218963   5.703   1.839   7.112  0.4313 -0.4428  0.3219
  168SAPS   O1118964   5.860   2.024   7.174  0.1117  0.1940 -0.0794
  168SAPS    C118965   5.851   2.052   7.030 -0.8250 -0.3748 -0.4983
  168SAPS    HA18966   5.921   1.988   6.972  0.6665  0.4304  0.3204
  168SAPS    HB18967   5.745   2.047   6.997 -1.1517  4.6362 -0.9678
  168SAPS    C218968   5.893   2.195   6.993  0.0540 -0.1029  0.3575
  168SAPS    HS18969   6.004   2.203   7.005  0.1019  1.3890 -0.8569
  168SAPS   O2118970   5.832   2.296   7.078  0.2244  0.1080  0.3676
  168SAPS   C2118971   5.879   2.419   7.091 -0.0218  0.2504  0.1074
  168SAPS   O2218972   5.994   2.454   7.048 -0.6202 -0.4754 -0.9995
  168SAPS   C2218973   5.770   2.499   7.165 -0.6448 -0.5065  0.1517
  168SAPS   H2R18974   5.672   2.458   7.132 -0.4393  0.3641 -1.7043
  168SAPS   H2S18975   5.781   2.487   7.274  1.2497  1.1305  0.1893
  168SAPS    C318976   5.860   2.217   6.847 -0.0778 -0.2294  0.1040
  168SAPS    HX18977   5.889   2.321   6.822 -1.2333  0.4193  1.3301
  168SAPS    HY18978   5.749   2.209   6.841  0.0550 -1.8418 -0.8934
  168SAPS   O3118979   5.915   2.104   6.762 -0.4157  0.3562  0.1043
  168SAPS   C3118980   6.037   2.123   6.692  0.7930 -0.0101 -0.3462
  168SAPS   O3218981   6.105   2.220   6.708 -0.2768  0.0132 -0.3356
  168SAPS   C3218982   6.067   2.017   6.586  0.5589  0.0939 -0.5507
  168SAPS   H2X18983   5.982   2.006   6.515  2.9763  2.1775 -4.0478
  168SAPS   H2Y18984   6.081   1.913   6.624 -1.4395  0.2199  0.7208
  168SAPS   C2318985   5.776   2.645   7.133 -0.3058 -0.1933 -0.3111
  168SAPS   H3R18986   5.856   2.693   7.192  0.5862  0.4909 -2.0227
  168SAPS   H3S18987   5.686   2.699   7.171  0.2742  0.7402 -0.2382
  168SAPS   C2418988   5.782   2.677   6.986 -0.2801 -0.8364  0.5148
  168SAPS   H4R18989   5.886   2.660   6.952  1.4575  5.1279  1.7599
  168SAPS   H4S18990   5.767   2.786   6.973  1.2674 -0.8023 -1.5130
  168SAPS   C2518991   5.672   2.617   6.909  0.4899  0.4921  0.2193
  168SAPS   H5R18992   5.585   2.590   6.971  1.8821  0.3545  2.2179
  168SAPS   C2618993   5.675   2.581   6.775 -0.0169 -0.4729 -0.7268
  168SAPS   H6R18994   5.585   2.533   6.735 -2.5848  1.7363  1.9631
  168SAPS   C2718995   5.786   2.606   6.675  0.6150  0.0186 -0.2931
  168SAPS   H7R18996   5.793   2.521   6.603 -2.7792 -0.5881 -0.0599
  168SAPS   H7S18997   5.885   2.619   6.724 -0.3297 -1.8797  2.3688
  168SAPS   C2818998   5.759   2.734   6.601 -0.2627  0.0549 -0.2650
  168SAPS   H8R18999   5.788   2.822   6.660 -0.1875 -0.0442 -0.1523
  168SAPS   C2919000   5.721   2.756   6.476 -0.3545 -0.1268 -0.1449
  168SAPS   H9R19001   5.715   2.861   6.443 -1.5556 -0.6258 -1.6725
  168SAPS  C21019002   5.684   2.651   6.375 -0.3338  0.1754  0.0099
  168SAPS  H10R19003   5.582   2.611   6.396  0.5322 -0.7996  3.0237
  168SAPS  H10S19004   5.761   2.572   6.386  1.3596  1.8386  0.6111
  168SAPS  C21119005   5.692   2.705   6.233 -0.1022  0.0464  0.3414
  168SAPS  H11R19006   5.764   2.786   6.213 -0.6414  0.2057 -1.0771
  168SAPS  C21219007   5.607   2.677   6.133 -0.4319 -0.0606  0.6988
  168SAPS  H12R19008   5.633   2.708   6.031 -1.5072 -0.2288  0.3659
  168SAPS  C21319009   5.491   2.581   6.134  0.8163 -0.8391 -0.9477
  168SAPS  H13R19010   5.406   2.636   6.179  1.2568 -0.2733 -0.7847
  168SAPS  H13S19011   5.495   2.494   6.203 -0.2698  0.4142  0.7926
  168SAPS  C21419012   5.444   2.531   5.998  0.0473  0.6152  0.7241
  168SAPS  H14R19013   5.466   2.426   5.976 -0.5961  1.0284 -2.3180
  168SAPS  C21519014   5.385   2.585   5.887  1.0867  0.4400 -0.2131
  168SAPS  H15R19015   5.363   2.516   5.804  1.1499 -0.7393  0.7163
  168SAPS  C21619016   5.356   2.730   5.869  0.8957 -0.0697  0.1635
  168SAPS  H16R19017   5.415   2.758   5.779 -1.7695  2.3090 -0.9886
  168SAPS  H16S19018   5.394   2.788   5.957 -1.1509 -1.0788  1.8085
  168SAPS  C21719019   5.211   2.766   5.850  1.0391  0.4124  0.1966
  168SAPS  H17R19020   5.157   2.745   5.945 -0.9221 -2.3071 -1.3738
  168SAPS  H17S19021   5.168   2.703   5.769  2.5609  1.6712 -1.6797
  168SAPS  C21819022   5.173   2.913   5.821 -0.2209 -0.5453  0.2337
  168SAPS  H18R19023   5.062   2.916   5.819 -0.2270 -1.0073 -0.5002
  168SAPS  H18S19024   5.219   2.940   5.724  0.1997  0.8144  0.7895
  168SAPS  C21919025   5.236   3.004   5.927 -0.0246 -0.5382 -0.0763
  168SAPS  H19R19026   5.346   2.997   5.913  0.2533  1.9622  0.3805
  168SAPS  H19S19027   5.212   2.959   6.025  1.8495 -0.2501  0.5477
  168SAPS  C22019028   5.189   3.155   5.929 -0.2693  0.2229  0.0731
  168SAPS  H20R19029   5.228   3.222   6.008 -0.3402 -0.7808  0.9925
  168SAPS  H20S19030   5.079   3.158   5.944  0.0299 -0.3609  2.8442
  168SAPS  H20T19031   5.222   3.200   5.833  1.5064 -1.8832 -0.3868
  168SAPS   C3319032   6.188   2.062   6.507  0.3171 -0.1351 -0.2042
  168SAPS   H3X19033   6.278   2.075   6.571  0.6827  1.7033 -1.0452
  168SAPS   H3Y19034   6.170   2.163   6.465 -1.1987 -0.1478  0.3400
  168SAPS   C3419035   6.230   1.958   6.405  0.1786 -0.1908  0.2484
  168SAPS   H4X19036   6.192   1.858   6.434 -1.1800  0.7070  1.7696
  168SAPS   H4Y19037   6.341   1.961   6.405  0.1722  0.6175 -0.7449
  168SAPS   C3519038   6.171   1.991   6.265 -0.2873 -0.5675  0.4325
  168SAPS   H5X19039   6.172   2.102   6.251 -1.2873 -0.6428 -0.3443
  168SAPS   H5Y19040   6.061   1.974   6.269 -0.7595  1.5479 -1.6596
  168SAPS   C3619041   6.233   1.921   6.145 -0.0500  0.1062 -0.8183
  168SAPS   H6X19042   6.210   1.812   6.145  0.8025 -0.0921  0.3049
  168SAPS   H6Y19043   6.343   1.927   6.165 -0.2135  1.7367 -0.2643
  168SAPS   C3719044   6.185   1.989   6.016 -0.2369 -0.3406 -0.3123
  168SAPS   H7X19045   6.227   2.091   6.001  0.7619 -0.5289  1.0448
  168SAPS   H7Y19046   6.076   2.009   6.028 -0.2566 -0.7870  0.3465
  168SAPS   C3819047   6.222   1.898   5.896  0.2729  0.4152 -0.0917
  168SAPS   H8X19048   6.198   1.794   5.925 -1.9391  0.5783 -1.1602
  168SAPS   H8Y19049   6.332   1.915   5.885  0.4306 -1.5388 -2.5375
  168SAPS   C3919050   6.146   1.933   5.772  0.8721  0.2256 -0.1406
  168SAPS   H9X19051   6.171   2.037   5.743 -2.5264  0.8349 -1.3569
  168SAPS   H9Y19052   6.036   1.934   5.788  0.8780  1.0283 -0.1365
  168SAPS  C31019053   6.178   1.836   5.659  0.2697 -0.7239  0.7553
  168SAPS  H10X19054   6.153   1.734   5.696  0.4201 -0.7629  0.7499
  168SAPS  H10Y19055   6.289   1.836   5.658  0.2930 -1.9954  1.0837
  168SAPS  C31119056   6.114   1.849   5.521 -0.0074  0.0904 -0.2070
  168SAPS  H11X19057   6.003   1.848   5.529 -0.0606 -1.9315 -0.8020
  168SAPS  H11Y19058   6.147   1.755   5.472  1.3017 -1.8456  3.9476
  168SAPS  C31219059   6.151   1.976   5.454  0.0849  0.1865 -0.5364
  168SAPS  H12X19060   6.105   2.066   5.499  0.5312  0.7744 -1.2289
  168SAPS  H12Y19061   6.102   1.973   5.355 -0.9229 -2.7044 -0.0423
  168SAPS  C31319062   6.299   2.001   5.444 -0.3577 -0.0812 -0.0494
  168SAPS  H13X19063   6.342   1.905   5.408 -1.4835 -0.5969 -0.0410
  168SAPS  H13Y19064   6.343   2.022   5.544  0.6499  0.4171 -0.5698
  168SAPS  C31419065   6.350   2.118   5.357  0.3284  1.0730  0.2553
  168SAPS  H14X19066   6.458   2.134   5.376  0.7256 -0.3631 -0.7113
  168SAPS  H14Y19067   6.294   2.200   5.408 -2.1431  0.8389 -1.8735
  168SAPS  C31519068   6.325   2.104   5.209 -0.4155  0.0776  0.1337
  168SAPS  H15X19069   6.222   2.067   5.192 -0.8390  1.4768 -0.5029
  168SAPS  H15Y19070   6.394   2.034   5.157 -0.4660  0.9064 -1.0836
  168SAPS  C31619071   6.338   2.241   5.138 -0.5841  0.8978  0.6741
  168SAPS  H16X19072   6.436   2.292   5.154 -0.6098  1.4517 -0.8211
  168SAPS  H16Y19073   6.272   2.312   5.193 -1.9863  0.0451  0.1293
  168SAPS  C31719074   6.305   2.237   4.988  0.3300 -0.6967  0.4881
  168SAPS  H17X19075   6.198   2.214   4.970 -0.2027  0.4814  1.9615
  168SAPS  H17Y19076   6.366   2.159   4.938 -0.3060 -0.1580 -1.1924
  168SAPS  C31819077   6.318   2.372   4.916  0.3517  0.0030  0.1891
  168SAPS  H18X19078   6.264   2.369   4.820 -0.0302  1.9287  0.3045
  168SAPS  H18Y19079   6.424   2.385   4.886  0.6055 -0.4615  0.8414
  168SAPS  H18Z19080   6.284   2.461   4.973 -0.9927  0.4710 -1.2972
  169SAPS     N19081   6.007   5.683   6.899  0.0296  0.4399 -0.2060
  169SAPS   HN119082   5.929   5.615   6.892 -0.9588  1.6570 -1.6552
  169SAPS   HN219083   6.040   5.706   6.803 -1.6527  1.0770 -0.6726
  169SAPS   HN319084   6.086   5.654   6.959 -0.2662 -1.3018 -0.5988
  169SAPS   C1219085   5.955   5.818   6.955 -0.7714  0.0873 -0.4735
  169SAPS  H12A19086   5.879   5.860   6.890  1.2328 -0.0613 -3.0694
  169SAPS   C1319087   5.893   5.804   7.092  0.0743 -0.3731 -0.2202
  169SAPS  O13A19088   5.877   5.692   7.150  0.8039  0.2523 -0.1180
  169SAPS  O13B19089   5.859   5.909   7.153 -0.3043  0.4914 -0.5759
  169SAPS   C1119090   6.067   5.919   6.951 -0.3983  0.3274  0.0587
  169SAPS  H11A19091   6.151   5.894   7.020  0.5756 -0.0205 -1.2207
  169SAPS  H11B19092   6.023   6.009   6.999  1.4059  0.5783  1.3629
  169SAPS     P19093   6.186   6.083   6.787 -0.0714 -0.3829  0.0497
  169SAPS   O1319094   6.094   6.189   6.841  0.5334  0.8671 -0.4263
  169SAPS   O1419095   6.322   6.084   6.844 -0.2582 -0.1997  0.1429
  169SAPS   O1219096   6.114   5.943   6.817  0.1500 -0.2795  0.6995
  169SAPS   O1119097   6.179   6.089   6.635 -0.6891  0.1331  0.3988
  169SAPS    C119098   6.200   5.984   6.542 -0.0676  0.0600 -0.3935
  169SAPS    HA19099   6.139   5.896   6.572 -1.1457  0.5120 -1.1764
  169SAPS    HB19100   6.168   6.023   6.444  1.3457 -1.1442 -1.3809
  169SAPS    C219101   6.348   5.939   6.540  0.3129  0.3702 -0.7043
  169SAPS    HS19102   6.365   5.890   6.638  0.1679 -2.3169 -1.9317
  169SAPS   O2119103   6.429   6.055   6.519 -0.7875  0.1613  0.0577
  169SAPS   C2119104   6.557   6.035   6.546  0.3241  0.3611 -0.1908
  169SAPS   O2219105   6.604   5.944   6.609  0.1548  0.2808  0.5525
  169SAPS   C2219106   6.639   6.144   6.486  0.1586  0.0879 -0.3223
  169SAPS   H2R19107   6.575   6.204   6.418  0.7448  0.4997 -0.5189
  169SAPS   H2S19108   6.655   6.210   6.574 -0.3964  0.1852 -0.2897
  169SAPS    C319109   6.377   5.826   6.443  0.5726 -0.1346 -0.2656
  169SAPS    HX19110   6.309   5.739   6.461  2.6707 -1.5531  1.2648
  169SAPS    HY19111   6.482   5.794   6.459  1.1793  2.0392  0.4372
  169SAPS   O3119112   6.344   5.875   6.309  0.2304  0.1992  0.2751
  169SAPS   C3119113   6.457   5.893   6.237  0.0253 -0.1890  0.3317
  169SAPS   O3219114   6.567   5.881   6.283 -0.5192  0.2108  0.1215
  169SAPS   C3219115   6.424   5.920   6.084 -0.6740  0.2764 -0.2978
  169SAPS   H2X19116   6.341   5.995   6.079 -0.0125  1.0596  0.2419
  169SAPS   H2Y19117   6.405   5.818   6.044  0.4861  0.1108 -0.4623
  169SAPS   C2319118   6.774   6.110   6.422 -0.5076 -0.4770 -0.3961
  169SAPS   H3R19119   6.758   6.017   6.364  0.4079 -2.1156  1.8355
  169SAPS   H3S19120   6.836   6.090   6.512  0.5276  0.8465 -0.7872
  169SAPS   C2419121   6.823   6.236   6.337 -0.4920  0.1665 -0.2133
  169SAPS   H4R19122   6.925   6.207   6.302 -0.5052 -1.0938  0.7237
  169SAPS   H4S19123   6.835   6.320   6.408  0.0337 -1.2271  1.4313
  169SAPS   C2519124   6.744   6.275   6.213 -0.0353  0.8209 -0.4295
  169SAPS   H5R19125   6.642   6.237   6.203 -0.2995  0.8837  1.6926
  169SAPS   C2619126   6.792   6.352   6.122 -0.8241  0.2397  0.2775
  169SAPS   H6R19127   6.729   6.364   6.033 -0.2965  0.9575 -0.0103
  169SAPS   C2719128   6.928   6.411   6.125  0.1748  0.1710  0.3463
  169SAPS   H7R19129   6.956   6.457   6.222  1.8894 -0.4491  0.1748
  169SAPS   H7S19130   6.931   6.500   6.058  0.5790 -0.6120 -0.6985
  169SAPS   C2819131   7.053   6.330   6.079  0.3710 -0.1386  0.2682
  169SAPS   H8R19132   7.078   6.249   6.149 -0.7846 -2.6922 -2.0587
  169SAPS   C2919133   7.119   6.328   5.959  0.7826 -0.1631 -0.8982
  169SAPS   H9R19134   7.200   6.255   5.944  1.6442  0.5668  0.0362
  169SAPS  C21019135   7.082   6.416   5.840  0.0722  0.7178  0.1503
  169SAPS  H10R19136   6.978   6.453   5.842  0.1944  1.1390  3.0989
  169SAPS  H10S19137   7.110   6.356   5.751  3.4155  0.2957  1.3280
  169SAPS  C21119138   7.153   6.548   5.837 -0.0466  0.0276 -0.3024
  169SAPS  H11R19139   7.200   6.575   5.933  0.5698 -0.1145 -0.5665
  169SAPS  C21219140   7.164   6.627   5.725 -0.2769  0.4395 -0.1991
  169SAPS  H12R19141   7.214   6.724   5.737  0.1035  0.0593  1.5234
  169SAPS  C21319142   7.107   6.610   5.581  0.5050  0.8624 -0.8762
  169SAPS  H13R19143   7.040   6.694   5.555  0.6888  0.8029 -1.5847
  169SAPS  H13S19144   7.045   6.518   5.566 -0.4507  1.1788  0.9066
  169SAPS  C21419145   7.206   6.609   5.473 -0.3208  0.3759  0.3340
  169SAPS  H14R19146   7.304   6.567   5.499 -0.0263  0.4386 -0.6213
  169SAPS  C21519147   7.203   6.672   5.351 -0.9928 -0.1687 -0.6088
  169SAPS  H15R19148   7.286   6.649   5.282  0.1553  0.0433  0.6565
  169SAPS  C21619149   7.097   6.759   5.294  0.4988  0.5873  0.7394
  169SAPS  H16R19150   7.147   6.826   5.221  0.0960 -0.7858 -0.8679
  169SAPS  H16S19151   7.043   6.821   5.369  0.0043 -1.5949  2.2959
  169SAPS  C21719152   6.982   6.687   5.216  0.0407  0.1620  0.4691
  169SAPS  H17R19153   6.921   6.622   5.281  0.9583 -2.3261 -1.0273
  169SAPS  H17S19154   7.049   6.632   5.146 -0.5203  0.8742 -0.6647
  169SAPS  C21819155   6.879   6.788   5.153 -0.1060  0.0462  0.7218
  169SAPS  H18R19156   6.807   6.740   5.084  1.5301  0.0016 -1.0033
  169SAPS  H18S19157   6.943   6.848   5.085 -0.2742 -1.0569 -0.4315
  169SAPS  C21919158   6.813   6.884   5.257 -0.1857  0.3108  0.2856
  169SAPS  H19R19159   6.883   6.956   5.303 -0.1491  1.0679 -0.9163
  169SAPS  H19S19160   6.772   6.807   5.326  1.3593 -1.2049 -0.3867
  169SAPS  C22019161   6.700   6.965   5.190  0.2281  0.6191 -1.0749
  169SAPS  H20R19162   6.624   6.897   5.146  0.6184  0.5491 -1.6510
  169SAPS  H20S19163   6.752   7.011   5.104  0.3754  2.5930  0.0120
  169SAPS  H20T19164   6.659   7.043   5.257 -0.2129 -1.1941  0.8707
  169SAPS   C3319165   6.543   5.974   6.003  0.1648 -0.9007 -0.3817
  169SAPS   H3X19166   6.620   5.896   6.021  0.0298 -0.9404  0.0340
  169SAPS   H3Y19167   6.571   6.076   6.037  0.3359 -1.2356  0.4935
  169SAPS   C3419168   6.502   6.001   5.859  0.1880 -0.1703  0.2884
  169SAPS   H4X19169   6.406   6.057   5.861 -0.5383 -1.3962  1.5622
  169SAPS   H4Y19170   6.472   5.905   5.812 -0.6762 -0.0457  0.5671
  169SAPS   C3519171   6.611   6.066   5.773 -0.4991  0.6270 -0.3265
  169SAPS   H5X19172   6.701   6.106   5.825  0.7838 -0.1888 -1.8460
  169SAPS   H5Y19173   6.550   6.144   5.722 -3.1457 -0.3991  1.0835
  169SAPS   C3619174   6.653   5.966   5.664 -0.3970  0.7848 -0.4761
  169SAPS   H6X19175   6.564   5.937   5.604 -0.3465 -0.5909  0.0804
  169SAPS   H6Y19176   6.679   5.871   5.716 -1.0872 -0.3758 -2.1369
  169SAPS   C3719177   6.769   6.021   5.576  0.5068 -0.1740  0.8990
  169SAPS   H7X19178   6.800   5.950   5.497  2.6625  4.9329 -3.4706
  169SAPS   H7Y19179   6.842   6.041   5.657 -0.6006 -0.7883  2.0772
  169SAPS   C3819180   6.746   6.155   5.503 -0.6380  0.4450  0.3708
  169SAPS   H8X19181   6.842   6.176   5.452  0.9294  0.5188  3.1769
  169SAPS   H8Y19182   6.744   6.225   5.589 -0.5836  0.7563  0.1220
  169SAPS   C3919183   6.626   6.165   5.410 -0.1535  0.0183 -0.6346
  169SAPS   H9X19184   6.535   6.148   5.472  0.5773  0.1652  0.4948
  169SAPS   H9Y19185   6.626   6.094   5.324  0.8823 -0.4700 -0.2467
  169SAPS  C31019186   6.626   6.302   5.351  1.0000 -0.0672 -0.0717
  169SAPS  H10X19187   6.704   6.311   5.273  0.7690  0.4740 -0.2442
  169SAPS  H10Y19188   6.650   6.387   5.418  0.8327  1.2280 -1.6020
  169SAPS  C31119189   6.493   6.323   5.270  0.3497 -0.1142  0.2808
  169SAPS  H11X19190   6.406   6.328   5.339 -1.6178 -1.8989 -1.9064
  169SAPS  H11Y19191   6.471   6.242   5.199  0.3308 -0.9168  1.1830
  169SAPS  C31219192   6.493   6.448   5.188  0.8332  0.4299 -0.2922
  169SAPS  H12X19193   6.566   6.428   5.106  1.9182 -0.0812  0.7789
  169SAPS  H12Y19194   6.538   6.534   5.242  1.5932 -1.0533  1.5079
  169SAPS  C31319195   6.346   6.473   5.139 -0.8848  0.0588  0.1816
  169SAPS  H13X19196   6.270   6.473   5.219 -0.4779 -2.8438  0.6675
  169SAPS  H13Y19197   6.324   6.383   5.077 -4.2622  1.0823 -0.3138
  169SAPS  C31419198   6.346   6.598   5.054 -0.0127 -0.7031  0.1716
  169SAPS  H14X19199   6.441   6.605   4.996 -0.3276  0.0002 -0.2639
  169SAPS  H14Y19200   6.337   6.685   5.122  1.0758 -1.8412  1.8449
  169SAPS  C31519201   6.232   6.606   4.952  0.4382 -0.2325 -0.2286
  169SAPS  H15X19202   6.138   6.560   4.990  0.0802 -1.4626 -2.4617
  169SAPS  H15Y19203   6.264   6.532   4.875  0.7591  1.7908 -2.1345
  169SAPS  C31619204   6.202   6.735   4.882  0.0136 -0.2947 -0.1326
  169SAPS  H16X19205   6.300   6.780   4.854  0.2937 -2.1170 -2.3824
  169SAPS  H16Y19206   6.128   6.799   4.935  0.1389 -0.0897 -0.2055
  169SAPS  C31719207   6.124   6.710   4.743 -0.4214 -0.1986 -0.1936
  169SAPS  H17X19208   6.202   6.684   4.668  1.9344 -1.6335  2.5488
  169SAPS  H17Y19209   6.081   6.809   4.717 -0.1659 -0.7189 -2.9300
  169SAPS  C31819210   6.010   6.619   4.746  0.5306  0.3158  0.1888
  169SAPS  H18X19211   5.952   6.624   4.651  0.7592 -1.6391 -0.1009
  169SAPS  H18Y19212   5.941   6.637   4.831 -0.7446 -0.4144 -0.6509
  169SAPS  H18Z19213   6.042   6.514   4.767  0.3540 -0.2556 -2.1322
  170SAPS     N19214   2.165   1.582   7.180 -0.4084 -0.1735  1.0414
  170SAPS   HN119215   2.195   1.680   7.164  3.2331 -0.5648  4.1222
  170SAPS   HN219216   2.218   1.512   7.125 -2.6686 -0.4746 -0.9273
  170SAPS   HN319217   2.065   1.569   7.154  0.0333 -2.8005  0.3593
  170SAPS   C1219218   2.184   1.565   7.325  0.0555  0.7876 -0.7130
  170SAPS  H12A19219   2.160   1.656   7.377 -0.6738  1.2857 -1.8828
  170SAPS   C1319220   2.108   1.439   7.374 -1.1662 -0.6705 -0.7619
  170SAPS  O13A19221   2.020   1.381   7.301  1.0721  0.3306 -0.1495
  170SAPS  O13B19222   2.104   1.430   7.499  0.3196 -0.1646 -0.3885
  170SAPS   C1119223   2.330   1.534   7.357  0.1226 -0.0706 -0.2320
  170SAPS  H11A19224   2.350   1.436   7.308 -1.0555 -0.3013 -0.2739
  170SAPS  H11B19225   2.337   1.524   7.467  0.2694  1.3677 -0.0904
  170SAPS     P19226   2.474   1.751   7.412 -0.1261 -0.4121 -0.1861
  170SAPS   O1319227   2.386   1.871   7.416 -0.5063  0.6285 -0.3316
  170SAPS   O1419228   2.510   1.698   7.546 -0.1459  0.2801 -0.0626
  170SAPS   O1219229   2.418   1.640   7.318  0.3856  0.4580 -0.1598
  170SAPS   O1119230   2.613   1.802   7.348  0.5999 -0.3814 -0.0566
  170SAPS    C119231   2.688   1.726   7.248 -0.5429  0.5489  0.1727
  170SAPS    HA19232   2.790   1.767   7.266 -0.3584 -1.1094  3.7645
  170SAPS    HB19233   2.698   1.618   7.272 -1.5648  0.7664  1.6927
  170SAPS    C219234   2.633   1.741   7.098 -0.3516 -0.7130 -0.3390
  170SAPS    HS19235   2.716   1.729   7.025  0.5625  0.2103  0.4918
  170SAPS   O2119236   2.571   1.869   7.075 -0.0824 -0.4250  0.4531
  170SAPS   C2119237   2.657   1.974   7.072 -0.0015 -0.1784  0.5893
  170SAPS   O2219238   2.772   1.973   7.099 -0.0515  0.5899 -0.3737
  170SAPS   C2219239   2.579   2.097   7.016 -0.2690 -0.4316 -0.1816
  170SAPS   H2R19240   2.484   2.095   7.074 -0.5252 -1.4500 -0.6059
  170SAPS   H2S19241   2.621   2.197   7.039 -0.2108 -0.3458 -0.6481
  170SAPS    C319242   2.530   1.634   7.049  0.0715  0.4392 -0.3230
  170SAPS    HX19243   2.436   1.659   7.102  1.0826  0.4750  1.5422
  170SAPS    HY19244   2.572   1.535   7.076  1.8178  1.6388  1.7394
  170SAPS   O3119245   2.513   1.635   6.905  0.3324 -0.1673 -0.3041
  170SAPS   C3119246   2.392   1.655   6.861  0.2418 -0.0781 -0.1814
  170SAPS   O3219247   2.285   1.677   6.919  0.1320  0.1231 -0.1243
  170SAPS   C3219248   2.399   1.668   6.707  0.1838 -0.0776 -0.0259
  170SAPS   H2X19249   2.370   1.775   6.699 -2.2053 -0.5031  1.8006
  170SAPS   H2Y19250   2.324   1.600   6.663  0.6876 -0.7398  0.1163
  170SAPS   C2319251   2.553   2.078   6.862  0.1888 -0.3173  0.3114
  170SAPS   H3R19252   2.476   2.156   6.842  0.1342  0.6418  3.5918
  170SAPS   H3S19253   2.508   1.978   6.847 -1.1293  0.4409 -0.9975
  170SAPS   C2419254   2.677   2.090   6.766  0.1167 -0.0234 -0.0911
  170SAPS   H4R19255   2.638   2.046   6.672 -1.0360 -2.0126  1.2604
  170SAPS   H4S19256   2.761   2.027   6.803  0.3746  0.6803  0.5490
  170SAPS   C2519257   2.730   2.226   6.726 -0.2194  0.8234 -0.2266
  170SAPS   H5R19258   2.774   2.276   6.814 -1.4927  0.3923  0.6817
  170SAPS   C2619259   2.738   2.285   6.605 -0.0085 -0.0826  0.4885
  170SAPS   H6R19260   2.778   2.387   6.598 -1.4835  0.5298  0.6384
  170SAPS   C2719261   2.681   2.218   6.476  0.2955 -0.6092 -0.1648
  170SAPS   H7R19262   2.663   2.304   6.409  0.4970 -0.2651  0.2132
  170SAPS   H7S19263   2.579   2.176   6.491  0.2736 -0.6238 -0.3552
  170SAPS   C2819264   2.774   2.125   6.413  0.2820  0.3675 -0.3095
  170SAPS   H8R19265   2.847   2.085   6.484  0.1994 -1.9151 -1.4371
  170SAPS   C2919266   2.785   2.090   6.282  0.0485  0.1977  0.0024
  170SAPS   H9R19267   2.857   2.013   6.251  0.7207  0.9354 -0.3058
  170SAPS  C21019268   2.685   2.138   6.180  0.6583  0.5167 -0.1565
  170SAPS  H10R19269   2.736   2.208   6.111  0.4641  2.5945  1.6694
  170SAPS  H10S19270   2.606   2.204   6.222 -0.9815 -1.3768 -0.1555
  170SAPS  C21119271   2.626   2.017   6.102 -0.1485 -0.0409 -0.0952
  170SAPS  H11R19272   2.544   1.972   6.161 -0.0408 -0.7113 -0.4517
  170SAPS  C21219273   2.654   1.976   5.975 -0.7503 -0.9281 -1.5094
  170SAPS  H12R19274   2.595   1.895   5.929 -1.1630 -0.5327 -1.6801
  170SAPS  C21319275   2.764   2.033   5.889 -0.1498 -0.1006  0.8464
  170SAPS  H13R19276   2.830   1.949   5.861  1.6243  1.8049 -1.1077
  170SAPS  H13S19277   2.827   2.106   5.945 -2.4519  0.8570  2.3099
  170SAPS  C21419278   2.701   2.097   5.767  0.4461  0.6720  0.2547
  170SAPS  H14R19279   2.624   2.169   5.800  1.8112  0.8907  3.1792
  170SAPS  C21519280   2.715   2.066   5.639  0.0199 -0.2680  1.2606
  170SAPS  H15R19281   2.660   2.130   5.569  1.9842 -0.1624 -0.2803
  170SAPS  C21619282   2.827   1.976   5.584  0.5909 -0.5102 -1.2298
  170SAPS  H16R19283   2.877   1.910   5.658  0.2126 -0.7359 -1.1727
  170SAPS  H16S19284   2.916   2.037   5.557  1.8196 -0.9851  1.3606
  170SAPS  C21719285   2.782   1.884   5.467 -0.0460 -0.4516 -0.0812
  170SAPS  H17R19286   2.710   1.935   5.400 -2.0326 -2.4365  0.4091
  170SAPS  H17S19287   2.718   1.807   5.515 -0.9474  0.0118 -0.5263
  170SAPS  C21819288   2.891   1.818   5.389 -0.5718  0.2457 -0.4364
  170SAPS  H18R19289   2.840   1.731   5.342 -1.3773 -0.3093  1.3903
  170SAPS  H18S19290   2.972   1.795   5.461 -1.0255 -0.8649 -0.2601
  170SAPS  C21919291   2.956   1.907   5.279 -0.6889 -0.6775 -0.3258
  170SAPS  H19R19292   3.015   1.993   5.316 -0.5076 -0.8393 -0.2346
  170SAPS  H19S19293   2.872   1.951   5.222  0.6129  1.4296 -0.7285
  170SAPS  C22019294   3.025   1.820   5.179 -0.2747  0.2908  0.2542
  170SAPS  H20R19295   2.970   1.727   5.151 -0.8252  0.3936  0.9584
  170SAPS  H20S19296   3.120   1.790   5.227 -0.0804 -0.6027 -0.6534
  170SAPS  H20T19297   3.059   1.879   5.092  0.3085  0.7925  0.8068
  170SAPS   C3319298   2.540   1.652   6.654  0.4971 -0.2292  0.1909
  170SAPS   H3X19299   2.587   1.552   6.669  1.2500 -0.0780 -0.9820
  170SAPS   H3Y19300   2.594   1.734   6.706  0.1897 -0.4288  0.8417
  170SAPS   C3419301   2.547   1.678   6.496  0.0879 -0.7255 -0.0468
  170SAPS   H4X19302   2.521   1.783   6.471  0.8146 -0.7036 -0.7584
  170SAPS   H4Y19303   2.472   1.616   6.442 -2.0643  1.0508  0.7250
  170SAPS   C3519304   2.684   1.677   6.438 -0.0530  0.2425 -0.7432
  170SAPS   H5X19305   2.748   1.592   6.470  2.1950  0.6674 -3.6636
  170SAPS   H5Y19306   2.726   1.765   6.491 -3.0537  1.5321 -0.2761
  170SAPS   C3619307   2.687   1.714   6.284 -0.4517 -0.3475  0.0916
  170SAPS   H6X19308   2.790   1.752   6.265 -0.9467  1.5054  0.8210
  170SAPS   H6Y19309   2.627   1.806   6.267 -0.8127 -0.6909 -0.5680
  170SAPS   C3719310   2.642   1.612   6.187 -0.7753  0.1997 -0.3900
  170SAPS   H7X19311   2.645   1.665   6.089 -1.4381  1.2131  0.1123
  170SAPS   H7Y19312   2.537   1.583   6.205 -0.9129  1.1245  0.3577
  170SAPS   C3819313   2.713   1.474   6.187  0.6572 -0.0675  0.3870
  170SAPS   H8X19314   2.689   1.416   6.278  1.7902  0.2167  0.8859
  170SAPS   H8Y19315   2.823   1.486   6.183  0.4389  2.1337 -0.1627
  170SAPS   C3919316   2.656   1.387   6.072  0.1830 -0.3988 -0.1248
  170SAPS   H9X19317   2.733   1.308   6.061  2.0116  0.8514  2.7056
  170SAPS   H9Y19318   2.660   1.443   5.976 -0.7104  2.8810  1.5921
  170SAPS  C31019319   2.518   1.325   6.098 -0.4277  0.4036 -0.0444
  170SAPS  H10X19320   2.445   1.408   6.097  0.3503  1.2054  2.6144
  170SAPS  H10Y19321   2.520   1.286   6.202  0.8786  3.4492  1.1624
  170SAPS  C31119322   2.486   1.213   5.996 -0.3269 -0.0351 -0.1816
  170SAPS  H11X19323   2.387   1.168   6.021 -0.0897  0.8087  2.6293
  170SAPS  H11Y19324   2.565   1.137   6.009  0.0791  0.6541  1.7227
  170SAPS  C31219325   2.484   1.262   5.845  0.1673  0.0229 -0.0468
  170SAPS  H12X19326   2.586   1.293   5.817 -0.6266  2.2689 -0.6153
  170SAPS  H12Y19327   2.411   1.343   5.827 -3.0991 -2.0334  2.5613
  170SAPS  C31319328   2.440   1.142   5.756  0.5585 -0.3567  0.7263
  170SAPS  H13X19329   2.338   1.124   5.795  0.3949  1.7687  1.4347
  170SAPS  H13Y19330   2.504   1.052   5.764 -0.2739 -1.0264 -0.0325
  170SAPS  C31419331   2.426   1.185   5.606  0.8691 -0.5039  0.2798
  170SAPS  H14X19332   2.402   1.102   5.535  1.7210 -0.0805 -0.5220
  170SAPS  H14Y19333   2.528   1.220   5.578  0.2007  0.1959 -1.4061
  170SAPS  C31519334   2.322   1.298   5.591  0.7637  0.0299  0.2392
  170SAPS  H15X19335   2.377   1.393   5.609  0.7199  0.1673 -0.3438
  170SAPS  H15Y19336   2.240   1.277   5.662  0.6444  2.3476  0.8378
  170SAPS  C31619337   2.262   1.291   5.448 -0.4535  0.5407  0.5835
  170SAPS  H16X19338   2.244   1.185   5.422 -1.3410  0.7345  0.3804
  170SAPS  H16Y19339   2.327   1.329   5.366  2.4465 -0.8180  2.1066
  170SAPS  C31719340   2.125   1.378   5.448  0.6261  0.2704  0.0020
  170SAPS  H17X19341   2.135   1.469   5.510 -0.8611  0.0090  0.6654
  170SAPS  H17Y19342   2.049   1.308   5.488  0.1955 -0.5173 -2.0294
  170SAPS  C31819343   2.082   1.414   5.308 -0.2917  0.0158  0.6634
  170SAPS  H18X19344   2.042   1.328   5.250 -1.3736  0.7291  0.3210
  170SAPS  H18Y19345   2.163   1.449   5.240 -0.8979  0.6910  0.2754
  170SAPS  H18Z19346   2.011   1.499   5.314  1.7372  1.9409 -0.6851
  171SAPS     N19347   1.301   3.608   7.486 -0.0280 -0.2340 -0.0489
  171SAPS   HN119348   1.337   3.670   7.562  0.2624 -1.9800  1.3250
  171SAPS   HN219349   1.223   3.550   7.523  0.4284  0.0949  1.5129
  171SAPS   HN319350   1.385   3.554   7.457 -0.5840 -0.6311 -0.9766
  171SAPS   C1219351   1.244   3.706   7.383 -0.0329 -0.0143  0.4284
  171SAPS  H12A19352   1.187   3.648   7.312  0.5613  0.7797 -0.7341
  171SAPS   C1319353   1.142   3.813   7.429  0.1271 -0.0553  0.1580
  171SAPS  O13A19354   1.128   3.825   7.556  0.1498  0.2744 -0.1658
  171SAPS  O13B19355   1.088   3.891   7.349  0.0737  0.3774  0.1682
  171SAPS   C1119356   1.362   3.774   7.303 -1.0981  0.0933  0.2305
  171SAPS  H11A19357   1.431   3.821   7.376 -1.3699  0.4194  0.2766
  171SAPS  H11B19358   1.326   3.852   7.232 -0.4468 -0.8660 -1.2174
  171SAPS     P19359   1.553   3.733   7.119 -0.1492 -0.2451 -0.0175
  171SAPS   O1319360   1.646   3.835   7.169  0.0797 -0.5409 -0.0606
  171SAPS   O1419361   1.608   3.614   7.055  0.0318  0.4332  0.5753
  171SAPS   O1219362   1.444   3.683   7.227  0.3736  0.3955 -0.6258
  171SAPS   O1119363   1.463   3.813   7.004 -0.6949  0.8211 -0.1110
  171SAPS    C119364   1.344   3.751   6.957  0.3461  0.4665  1.1812
  171SAPS    HA19365   1.331   3.648   6.998  0.3697 -0.5003 -1.0861
  171SAPS    HB19366   1.258   3.813   6.988 -0.8293 -1.0591  1.1066
  171SAPS    C219367   1.344   3.728   6.804 -0.2359  0.3881 -0.0181
  171SAPS    HS19368   1.246   3.682   6.775  0.0751  1.4904 -3.2541
  171SAPS   O2119369   1.452   3.650   6.754 -0.5049  0.5937 -0.0685
  171SAPS   C2119370   1.445   3.519   6.791 -0.1303 -0.1083  0.2305
  171SAPS   O2219371   1.351   3.468   6.848  0.0825  0.5874  0.0647
  171SAPS   C2219372   1.570   3.443   6.757 -0.0861  0.0332 -0.4183
  171SAPS   H2R19373   1.602   3.468   6.654  0.7771 -1.2386 -0.4842
  171SAPS   H2S19374   1.658   3.480   6.815  2.2597  1.7224 -4.6477
  171SAPS    C319375   1.356   3.866   6.737 -0.6887 -0.0660  0.4758
  171SAPS    HX19376   1.447   3.921   6.771 -1.5436  1.1701  0.8653
  171SAPS    HY19377   1.275   3.938   6.766  0.0886  1.5126 -1.0780
  171SAPS   O3119378   1.366   3.858   6.591  0.5849  0.4005 -0.1581
  171SAPS   C3119379   1.248   3.859   6.534 -0.1660 -0.1084  0.0961
  171SAPS   O3219380   1.138   3.882   6.581 -0.1809 -0.2876 -0.0358
  171SAPS   C3219381   1.256   3.833   6.382 -0.9228 -0.3753 -0.8073
  171SAPS   H2X19382   1.300   3.732   6.373  0.4709  0.2267 -0.9910
  171SAPS   H2Y19383   1.328   3.900   6.331  1.3310 -1.3500  0.8903
  171SAPS   C2319384   1.545   3.288   6.772 -0.2509 -0.9653 -0.5028
  171SAPS   H3R19385   1.459   3.262   6.707 -0.4679 -0.5532 -0.3828
  171SAPS   H3S19386   1.520   3.260   6.876  2.0861 -1.5551 -0.0379
  171SAPS   C2419387   1.664   3.209   6.727  1.0051 -0.2810 -0.2025
  171SAPS   H4R19388   1.690   3.240   6.624  0.1304 -0.2336 -0.4154
  171SAPS   H4S19389   1.634   3.102   6.730  0.9656 -0.2567  0.3440
  171SAPS   C2519390   1.783   3.232   6.822 -0.3655  0.3052  0.0034
  171SAPS   H5R19391   1.760   3.233   6.930  0.6339  2.8052  0.2605
  171SAPS   C2619392   1.899   3.287   6.796 -0.2901 -0.4251  0.3242
  171SAPS   H6R19393   1.970   3.303   6.879 -0.8846  1.4474  0.5166
  171SAPS   C2719394   1.963   3.316   6.657 -0.2330  0.0881  0.1367
  171SAPS   H7R19395   1.943   3.233   6.587  2.0332  0.2093 -0.7396
  171SAPS   H7S19396   2.072   3.300   6.668 -0.5814 -3.3746 -0.5468
  171SAPS   C2819397   1.908   3.442   6.608  0.3704 -0.4979 -0.0047
  171SAPS   H8R19398   1.879   3.524   6.675  3.4916  1.9319 -1.3902
  171SAPS   C2919399   1.877   3.462   6.475 -0.2201 -0.5129 -0.2556
  171SAPS   H9R19400   1.835   3.559   6.445 -0.2515  0.1003  1.6279
  171SAPS  C21019401   1.912   3.372   6.354 -0.3988  0.3536 -0.2240
  171SAPS  H10R19402   1.915   3.264   6.382  1.4834  0.1618 -1.0116
  171SAPS  H10S19403   2.016   3.400   6.327 -0.0429  2.1991  2.6340
  171SAPS  C21119404   1.813   3.387   6.235  0.1592  0.9675 -0.2731
  171SAPS  H11R19405   1.708   3.401   6.267  0.3391 -0.7269  1.2009
  171SAPS  C21219406   1.834   3.389   6.104 -0.6967  0.3312  0.1961
  171SAPS  H12R19407   1.752   3.405   6.032 -0.7283  0.1451  0.1896
  171SAPS  C21319408   1.967   3.357   6.044 -0.1291 -0.0092 -0.9177
  171SAPS  H13R19409   1.980   3.248   6.065 -1.5026  0.0776  0.5352
  171SAPS  H13S19410   2.042   3.420   6.097 -1.7681  0.4053  1.0255
  171SAPS  C21419411   1.975   3.401   5.900  0.7830 -0.1480 -0.0675
  171SAPS  H14R19412   1.986   3.510   5.896  1.4552 -0.2056  0.0589
  171SAPS  C21519413   1.948   3.334   5.788 -0.3264  0.2031  0.1026
  171SAPS  H15R19414   1.952   3.384   5.690  0.5313 -1.5961 -0.8300
  171SAPS  C21619415   1.915   3.187   5.777  0.0579  0.3844  0.5421
  171SAPS  H16R19416   1.811   3.157   5.755  0.0761  0.2420  0.6451
  171SAPS  H16S19417   1.948   3.145   5.874  0.4006 -0.8871 -0.1089
  171SAPS  C21719418   1.993   3.113   5.670  0.4733 -0.4316 -0.2734
  171SAPS  H17R19419   1.967   3.005   5.678  1.1748 -0.5311  0.9252
  171SAPS  H17S19420   2.100   3.112   5.702  0.1094  3.2575  1.5624
  171SAPS  C21819421   1.973   3.167   5.533 -0.5331  0.5845  0.1436
  171SAPS  H18R19422   2.047   3.245   5.504 -0.0978 -0.1376 -0.7358
  171SAPS  H18S19423   1.876   3.221   5.521 -0.4961  0.7050  0.3808
  171SAPS  C21919424   1.963   3.060   5.429 -0.1290  0.7028  0.4900
  171SAPS  H19R19425   1.889   2.983   5.460  0.3163  0.5613  1.2397
  171SAPS  H19S19426   2.058   3.003   5.420  1.8329  4.0472 -3.1799
  171SAPS  C22019427   1.927   3.107   5.295  0.5044  0.1388  0.8305
  171SAPS  H20R19428   1.836   3.169   5.298 -0.6147 -1.4264  4.0447
  171SAPS  H20S19429   1.916   3.018   5.229  2.2401  0.0345  0.6309
  171SAPS  H20T19430   2.007   3.174   5.258 -0.1628 -0.1518 -1.2940
  171SAPS   C3319431   1.114   3.838   6.317 -0.3170 -0.1286  0.1074
  171SAPS   H3X19432   1.088   3.940   6.281 -2.5927  0.2023  2.4140
  171SAPS   H3Y19433   1.039   3.790   6.384  1.0575 -2.0758  0.3502
  171SAPS   C3419434   1.105   3.739   6.203 -0.5647 -0.3168  0.4426
  171SAPS   H4X19435   1.004   3.747   6.158  0.5168  2.5695 -1.8269
  171SAPS   H4Y19436   1.120   3.633   6.229  0.8090 -0.1830  0.2788
  171SAPS   C3519437   1.208   3.771   6.096 -0.1635  0.1286 -0.3765
  171SAPS   H5X19438   1.304   3.748   6.147 -0.8710  0.0961  0.9931
  171SAPS   H5Y19439   1.215   3.880   6.077 -1.4792  0.1579 -0.7727
  171SAPS   C3619440   1.175   3.703   5.970 -0.0322  0.3347  0.3899
  171SAPS   H6X19441   1.067   3.707   5.943  0.2572 -0.5268 -1.0587
  171SAPS   H6Y19442   1.206   3.598   5.989 -1.8394  0.1827  3.1034
  171SAPS   C3719443   1.258   3.768   5.861  0.4853 -0.4685 -0.0221
  171SAPS   H7X19444   1.362   3.736   5.882 -0.1959 -2.6209  0.3707
  171SAPS   H7Y19445   1.248   3.877   5.846  0.2606 -0.6684 -1.5519
  171SAPS   C3819446   1.233   3.698   5.728 -0.0477 -0.0012 -0.1280
  171SAPS   H8X19447   1.241   3.587   5.736 -1.6417 -0.1585 -0.4520
  171SAPS   H8Y19448   1.317   3.728   5.662 -0.1644 -0.7718 -0.6469
  171SAPS   C3919449   1.099   3.730   5.675  0.6165  0.1825 -0.1146
  171SAPS   H9X19450   1.070   3.837   5.678  0.7676  0.2343 -0.4621
  171SAPS   H9Y19451   1.026   3.669   5.732  3.1240 -2.8207  0.1600
  171SAPS  C31019452   1.107   3.699   5.521  0.5555 -0.1670 -0.3647
  171SAPS  H10X19453   1.200   3.748   5.483  0.9004 -0.3316  0.2410
  171SAPS  H10Y19454   1.019   3.753   5.480  0.9716 -0.9030 -2.3515
  171SAPS  C31119455   1.098   3.553   5.483  0.0924  0.1899 -0.7604
  171SAPS  H11X19456   0.991   3.538   5.456 -0.2232  2.4887 -1.0665
  171SAPS  H11Y19457   1.127   3.485   5.565  2.2940  1.3714 -0.4684
  171SAPS  C31219458   1.200   3.524   5.364  0.5905  0.0238  0.4348
  171SAPS  H12X19459   1.307   3.529   5.393  0.9829  0.6980 -1.0321
  171SAPS  H12Y19460   1.182   3.600   5.285  1.0336 -0.7197 -0.4054
  171SAPS  C31319461   1.188   3.380   5.309  0.6377 -0.9482 -0.2496
  171SAPS  H13X19462   1.088   3.359   5.266  1.1109 -0.4976 -1.6195
  171SAPS  H13Y19463   1.197   3.303   5.389 -0.1031 -0.3371  0.4415
  171SAPS  C31419464   1.272   3.351   5.184  0.4681  0.0088  0.6904
  171SAPS  H14X19465   1.379   3.350   5.215  0.6883 -1.4463 -0.0292
  171SAPS  H14Y19466   1.266   3.429   5.105  0.6496 -0.7499 -0.0878
  171SAPS  C31519467   1.231   3.224   5.119 -0.0242  0.3664 -0.0852
  171SAPS  H15X19468   1.121   3.219   5.105 -0.0363 -1.7346  0.4052
  171SAPS  H15Y19469   1.252   3.138   5.186  1.4904  2.0361  1.7103
  171SAPS  C31619470   1.295   3.180   4.988 -0.2739 -0.7025 -0.7381
  171SAPS  H16X19471   1.245   3.084   4.960 -2.0290 -0.1006  0.2257
  171SAPS  H16Y19472   1.405   3.167   4.998 -0.4782 -2.2830 -0.1646
  171SAPS  C31719473   1.261   3.278   4.880  0.2982 -0.0490 -0.1170
  171SAPS  H17X19474   1.314   3.375   4.893  1.6823 -0.8842  0.6864
  171SAPS  H17Y19475   1.151   3.291   4.891  0.4200 -0.4755  1.9772
  171SAPS  C31819476   1.285   3.233   4.741 -0.3542 -0.9264 -0.0840
  171SAPS  H18X19477   1.249   3.129   4.729 -0.3772 -1.0502  1.0188
  171SAPS  H18Y19478   1.394   3.230   4.720 -0.1001  3.0197 -0.0709
  171SAPS  H18Z19479   1.229   3.302   4.673 -1.2685  0.0217  1.5506
  172SAPS     N19480   3.204   3.669   7.056  0.1513 -0.2928 -0.0829
  172SAPS   HN119481   3.177   3.640   6.960  0.9473 -0.0983 -0.3696
  172SAPS   HN219482   3.291   3.726   7.051  0.3168 -0.4986  0.3619
  172SAPS   HN319483   3.234   3.589   7.117  0.3529  0.1670  0.4299
  172SAPS   C1219484   3.113   3.768   7.131 -0.4181 -0.3106  0.5414
  172SAPS  H12A19485   3.014   3.725   7.123  0.1462 -1.5721  0.0694
  172SAPS   C1319486   3.134   3.785   7.280  0.7160 -0.2691 -0.1727
  172SAPS  O13A19487   3.208   3.708   7.342 -0.0252 -0.0470  0.1657
  172SAPS  O13B19488   3.068   3.875   7.340  0.2571 -0.5416  0.1067
  172SAPS   C1119489   3.116   3.908   7.059 -0.0706  0.4469 -0.3768
  172SAPS  H11A19490   3.197   3.969   7.104 -1.2675  3.0932 -1.5799
  172SAPS  H11B19491   3.019   3.954   7.087 -0.1029 -0.4198  1.0344
  172SAPS     P19492   3.065   4.007   6.825 -0.1407  0.2569  0.1436
  172SAPS   O1319493   3.091   4.144   6.869 -0.1009 -0.5572 -0.3365
  172SAPS   O1419494   3.083   3.987   6.681  0.0643  0.4371  0.3740
  172SAPS   O1219495   3.139   3.905   6.919  0.1529 -0.3730 -0.0962
  172SAPS   O1119496   2.912   3.982   6.861  1.0365 -0.1018 -0.4904
  172SAPS    C119497   2.829   3.907   6.772 -0.1351  0.3089  0.5786
  172SAPS    HA19498   2.884   3.835   6.708 -0.9741 -1.2459  1.5690
  172SAPS    HB19499   2.772   3.843   6.842  1.0146  0.2436  1.4888
  172SAPS    C219500   2.731   3.996   6.692  0.2789 -0.2916  0.7990
  172SAPS    HS19501   2.637   3.939   6.673  0.3793  0.4675 -2.5965
  172SAPS   O2119502   2.773   4.029   6.559  0.4806  1.1599  0.1019
  172SAPS   C2119503   2.778   3.923   6.472  0.0471  0.9293  0.0952
  172SAPS   O2219504   2.748   3.804   6.502 -0.1403 -0.2569  0.2616
  172SAPS   C2219505   2.837   3.971   6.340  0.2152  0.6106 -0.1852
  172SAPS   H2R19506   2.787   4.068   6.315 -1.6121 -0.5871 -1.4474
  172SAPS   H2S19507   2.945   3.988   6.360  0.3423 -0.1648 -0.1730
  172SAPS    C319508   2.681   4.130   6.758 -0.3329  1.2251  0.2982
  172SAPS    HX19509   2.757   4.212   6.759  1.8215 -0.6331  2.4081
  172SAPS    HY19510   2.661   4.109   6.866 -0.3184  3.4019  0.7818
  172SAPS   O3119511   2.561   4.178   6.699 -0.1823 -0.1772 -0.0400
  172SAPS   C3119512   2.574   4.260   6.594 -0.6838 -0.0896  0.2275
  172SAPS   O3219513   2.680   4.310   6.557  0.6220  0.2471  0.0331
  172SAPS   C3219514   2.439   4.275   6.520  0.1427 -0.0969 -0.6890
  172SAPS   H2X19515   2.414   4.382   6.502 -1.5224 -0.5269 -1.0325
  172SAPS   H2Y19516   2.368   4.230   6.592  0.0431  0.3497 -0.5004
  172SAPS   C2319517   2.815   3.877   6.214 -0.2029 -0.2553  0.0992
  172SAPS   H3R19518   2.715   3.833   6.193  0.4903 -1.3725 -0.9838
  172SAPS   H3S19519   2.862   3.777   6.227  0.1280 -0.7443 -3.8079
  172SAPS   C2419520   2.892   3.938   6.089  0.6468 -0.5432 -0.7217
  172SAPS   H4R19521   2.998   3.929   6.119  0.0479  0.7848  2.0775
  172SAPS   H4S19522   2.867   4.047   6.088  0.8963 -0.4679 -2.4787
  172SAPS   C2519523   2.859   3.884   5.954  0.5489  0.3931  0.3039
  172SAPS   H5R19524   2.752   3.868   5.936  0.3037  1.8012  0.4137
  172SAPS   C2619525   2.945   3.864   5.854 -0.2022  0.6070  0.2036
  172SAPS   H6R19526   2.903   3.823   5.760 -2.3810  0.4067  1.2239
  172SAPS   C2719527   3.094   3.901   5.850  0.1183  0.3628  1.0470
  172SAPS   H7R19528   3.157   3.811   5.831  1.7924  1.2890  1.9004
  172SAPS   H7S19529   3.139   3.932   5.946  3.3099 -3.8954  1.2496
  172SAPS   C2819530   3.104   4.007   5.744 -0.3014 -0.1906  0.1292
  172SAPS   H8R19531   3.051   4.102   5.757  1.0280  0.5981 -0.0285
  172SAPS   C2919532   3.184   3.995   5.632  0.3052  0.2703  0.7521
  172SAPS   H9R19533   3.174   4.078   5.560 -2.4501  0.2711  1.0278
  172SAPS  C21019534   3.270   3.879   5.580 -0.2625  0.1746 -0.4479
  172SAPS  H10R19535   3.275   3.794   5.651  2.8663 -0.0695 -0.8446
  172SAPS  H10S19536   3.377   3.906   5.580 -0.0668 -0.1047  3.6462
  172SAPS  C21119537   3.231   3.811   5.450 -0.8709 -0.7810  0.0834
  172SAPS  H11R19538   3.201   3.705   5.454 -1.4736 -0.6090  0.2162
  172SAPS  C21219539   3.234   3.878   5.333  0.4269  0.2721 -0.4083
  172SAPS  H12R19540   3.200   3.819   5.246  0.5544 -0.2539 -0.1059
  172SAPS  C21319541   3.268   4.020   5.298  0.1395 -0.4118  0.3948
  172SAPS  H13R19542   3.373   4.023   5.262 -0.2805 -1.9023 -1.0541
  172SAPS  H13S19543   3.264   4.093   5.383 -1.4557  1.3661 -1.1100
  172SAPS  C21419544   3.181   4.084   5.197  0.6047  0.6324  0.1061
  172SAPS  H14R19545   3.079   4.105   5.232  0.4775 -1.7374  1.4153
  172SAPS  C21519546   3.206   4.123   5.074  0.0508  0.4339  0.5983
  172SAPS  H15R19547   3.130   4.156   5.002 -1.4220 -1.5439  1.1777
  172SAPS  C21619548   3.337   4.115   4.992 -0.4183 -0.4400  0.6285
  172SAPS  H16R19549   3.337   4.026   4.926 -0.4476  2.0344 -2.9382
  172SAPS  H16S19550   3.423   4.107   5.061  0.4654  0.9172 -0.2664
  172SAPS  C21719551   3.367   4.232   4.897  0.4912 -0.3704  0.0689
  172SAPS  H17R19552   3.365   4.327   4.953  1.4621  0.5853 -1.4391
  172SAPS  H17S19553   3.285   4.225   4.823 -1.4947  0.8732  2.0363
  172SAPS  C21819554   3.503   4.226   4.820  0.2788  0.4102 -0.3218
  172SAPS  H18R19555   3.523   4.130   4.769  0.0079  0.8482 -1.2795
  172SAPS  H18S19556   3.579   4.244   4.899  0.8871  1.0986 -1.0435
  172SAPS  C21919557   3.526   4.348   4.721  1.0615  0.2935  0.8899
  172SAPS  H19R19558   3.628   4.345   4.675  0.8684  2.0907  0.2697
  172SAPS  H19S19559   3.518   4.440   4.782  1.0955  0.2148  1.0132
  172SAPS  C22019560   3.423   4.357   4.598 -0.4854  0.0538  0.0737
  172SAPS  H20R19561   3.324   4.314   4.622 -2.0839  3.3561  0.0156
  172SAPS  H20S19562   3.462   4.298   4.513 -1.9969 -0.1609 -0.4988
  172SAPS  H20T19563   3.401   4.461   4.564 -0.3224  0.3769  0.9139
  172SAPS   C3319564   2.449   4.198   6.391 -0.2059  0.3122  0.6234
  172SAPS   H3X19565   2.348   4.168   6.354  1.3314 -3.6499 -0.9154
  172SAPS   H3Y19566   2.505   4.103   6.406 -0.2551  0.4848  1.9980
  172SAPS   C3419567   2.533   4.258   6.277  0.1188 -0.5266 -0.4431
  172SAPS   H4X19568   2.641   4.251   6.303 -0.5885 -0.1133  3.0373
  172SAPS   H4Y19569   2.518   4.368   6.281 -1.6119 -0.7226 -0.9402
  172SAPS   C3519570   2.499   4.201   6.142  0.1163 -0.0690 -0.1374
  172SAPS   H5X19571   2.399   4.224   6.098  0.0559 -1.5382 -0.8338
  172SAPS   H5Y19572   2.514   4.091   6.144  1.9835  0.1192 -1.3422
  172SAPS   C3619573   2.603   4.239   6.033 -0.0712 -0.4776 -0.2649
  172SAPS   H6X19574   2.702   4.205   6.070  1.0205  3.0624  0.4446
  172SAPS   H6Y19575   2.602   4.349   6.017 -1.1917 -0.2918  0.8671
  172SAPS   C3719576   2.587   4.178   5.898 -0.3593  0.6150  0.7995
  172SAPS   H7X19577   2.484   4.202   5.861 -0.3340  0.1539  0.4043
  172SAPS   H7Y19578   2.598   4.068   5.908  3.6069  1.0551  3.6465
  172SAPS   C3819579   2.680   4.250   5.802 -0.5230 -0.0515  0.4343
  172SAPS   H8X19580   2.783   4.215   5.823 -1.0995 -2.4531 -0.4011
  172SAPS   H8Y19581   2.691   4.360   5.803  0.6877 -0.1180 -1.1265
  172SAPS   C3919582   2.657   4.227   5.647 -0.3082  0.3326  0.1359
  172SAPS   H9X19583   2.733   4.286   5.591  0.4758  0.7916  1.6274
  172SAPS   H9Y19584   2.558   4.266   5.616 -1.0133 -1.1311  0.4512
  172SAPS  C31019585   2.666   4.078   5.613 -0.3554 -0.0525 -0.1407
  172SAPS  H10X19586   2.567   4.028   5.615 -0.3059 -0.2860 -2.2301
  172SAPS  H10Y19587   2.723   4.026   5.693 -2.2810 -1.2798  0.5081
  172SAPS  C31119588   2.735   4.053   5.482  1.1946 -0.6400  0.0835
  172SAPS  H11X19589   2.841   4.085   5.471  0.9429  1.5652  2.9190
  172SAPS  H11Y19590   2.678   4.086   5.392  0.5548 -0.7057  0.4558
  172SAPS  C31219591   2.754   3.896   5.468  0.7950 -0.6203 -0.4272
  172SAPS  H12X19592   2.654   3.848   5.459  1.8430 -2.5565 -3.2409
  172SAPS  H12Y19593   2.804   3.866   5.562  1.8122  2.1241 -0.0179
  172SAPS  C31319594   2.838   3.854   5.342  0.1926 -1.4647  0.1090
  172SAPS  H13X19595   2.946   3.839   5.367  0.7090 -0.1672 -1.1620
  172SAPS  H13Y19596   2.822   3.922   5.256  0.1703 -0.4497  0.8913
  172SAPS  C31419597   2.802   3.725   5.268  0.5415  0.4834 -0.6748
  172SAPS  H14X19598   2.722   3.761   5.200  0.8161 -0.3245 -1.4449
  172SAPS  H14Y19599   2.772   3.644   5.339  1.7628 -0.5261 -1.2854
  172SAPS  C31519600   2.914   3.683   5.170  0.4737  0.6262  0.1826
  172SAPS  H15X19601   2.996   3.649   5.237  0.2986  0.0814  0.1254
  172SAPS  H15Y19602   2.959   3.776   5.129 -0.3207  0.4766 -1.0705
  172SAPS  C31619603   2.889   3.587   5.050  0.5502 -0.3826  0.0137
  172SAPS  H16X19604   2.845   3.492   5.086  0.6890 -1.0838 -1.5573
  172SAPS  H16Y19605   2.812   3.633   4.984  0.6428 -0.1850  0.0432
  172SAPS  C31719606   3.018   3.545   4.978  0.3539  0.3365  0.4156
  172SAPS  H17X19607   3.102   3.517   5.045  0.5630  1.2008  0.5194
  172SAPS  H17Y19608   3.051   3.626   4.910  0.3255  0.0051  0.0067
  172SAPS  C31819609   2.996   3.424   4.890 -0.9004 -0.3883 -0.5564
  172SAPS  H18X19610   2.998   3.333   4.954  0.4662 -0.3822 -0.5656
  172SAPS  H18Y19611   3.076   3.407   4.815  0.0603  0.6206  0.1953
  172SAPS  H18Z19612   2.907   3.438   4.825  0.0211  2.6649 -1.3302
  173SAPS     N19613   0.640   0.738   2.487 -0.2283  0.2347  0.1564
  173SAPS   HN119614   0.568   0.785   2.547  0.6303  0.9682  0.6347
  173SAPS   HN219615   0.604   0.646   2.457 -0.2141  0.3530 -0.2264
  173SAPS   HN319616   0.724   0.724   2.547 -0.2874 -1.5270 -0.1351
  173SAPS   C1219617   0.699   0.819   2.380 -0.5495  0.2175 -0.4614
  173SAPS  H12A19618   0.775   0.755   2.337  0.1018  0.8037 -0.2064
  173SAPS   C1319619   0.605   0.856   2.266 -0.2766  0.3920 -0.1490
  173SAPS  O13A19620   0.490   0.803   2.275 -0.3386 -0.0936  0.0922
  173SAPS  O13B19621   0.646   0.917   2.168  0.2940 -0.1240  0.0951
  173SAPS   C1119622   0.765   0.944   2.454 -0.1450  0.3801  0.1117
  173SAPS  H11A19623   0.687   1.004   2.504 -0.1141  1.0402 -0.6140
  173SAPS  H11B19624   0.804   0.998   2.365 -0.1030 -0.7999 -0.6087
  173SAPS     P19625   0.969   1.008   2.596  0.0597 -0.1087  0.2923
  173SAPS   O1319626   1.100   0.977   2.535  0.4745 -0.4568 -0.4261
  173SAPS   O1419627   0.914   1.142   2.572  0.1240 -0.2108 -0.7045
  173SAPS   O1219628   0.871   0.902   2.542  0.1490 -0.7976 -0.1656
  173SAPS   O1119629   0.975   0.972   2.753 -0.4216  0.2245  0.0484
  173SAPS    C119630   0.912   0.864   2.814 -0.0890  0.2915 -0.2189
  173SAPS    HA19631   0.815   0.896   2.858 -0.2854 -0.0291 -0.4050
  173SAPS    HB19632   0.898   0.774   2.750  0.0783 -1.3295  1.9190
  173SAPS    C219633   1.000   0.810   2.936 -0.4505 -1.0011  0.3507
  173SAPS    HS19634   0.936   0.742   2.996  0.3005 -3.2861 -1.2979
  173SAPS   O2119635   1.045   0.915   3.023 -0.1370  0.8390 -0.2453
  173SAPS   C2119636   0.958   0.977   3.097 -0.0883  0.5884  0.0592
  173SAPS   O2219637   0.835   0.952   3.101 -0.2469 -0.2389  0.0874
  173SAPS   C2219638   1.023   1.093   3.179 -0.0341  0.6708 -0.2896
  173SAPS   H2R19639   1.065   1.161   3.102  1.8330  0.2004  0.2716
  173SAPS   H2S19640   0.949   1.157   3.233  1.3995  1.1095  1.2158
  173SAPS    C319641   1.121   0.728   2.896  0.6429  0.0261  0.0302
  173SAPS    HX19642   1.184   0.800   2.839 -1.1660  2.0447  0.4621
  173SAPS    HY19643   1.100   0.645   2.825  0.3815 -0.5814  0.7898
  173SAPS   O3119644   1.192   0.676   3.014 -0.5110 -0.0094  0.2652
  173SAPS   C3119645   1.132   0.579   3.080  0.0367  0.2142  0.3877
  173SAPS   O3219646   1.026   0.532   3.050  0.2006 -0.0407 -0.5040
  173SAPS   C3219647   1.211   0.515   3.191 -0.4092 -0.0321 -0.4040
  173SAPS   H2X19648   1.313   0.481   3.161 -0.2095  2.0402 -2.4413
  173SAPS   H2Y19649   1.160   0.420   3.216 -1.1069  0.0706 -1.3645
  173SAPS   C2319650   1.127   1.038   3.281  0.5038  0.7778  0.0484
  173SAPS   H3R19651   1.185   0.957   3.232 -2.4386 -0.1195 -2.3157
  173SAPS   H3S19652   1.061   0.993   3.359 -0.8507  2.5896 -0.0059
  173SAPS   C2419653   1.208   1.141   3.350 -0.3767  0.1496  0.6621
  173SAPS   H4R19654   1.272   1.100   3.431  0.7369  1.1770  0.3409
  173SAPS   H4S19655   1.128   1.212   3.380 -1.9203 -0.4527 -1.6940
  173SAPS   C2519656   1.311   1.198   3.249  0.3953  0.4537  0.0788
  173SAPS   H5R19657   1.285   1.173   3.145 -2.7301 -0.1857  0.9130
  173SAPS   C2619658   1.419   1.281   3.279  0.2426  0.1509  0.9648
  173SAPS   H6R19659   1.469   1.319   3.189 -0.9922 -1.2622 -0.3739
  173SAPS   C2719660   1.453   1.348   3.415  0.7987 -0.1415 -0.4433
  173SAPS   H7R19661   1.352   1.359   3.461  0.8082 -1.8785  0.0684
  173SAPS   H7S19662   1.477   1.454   3.391 -0.8215  0.3300 -0.1015
  173SAPS   C2819663   1.551   1.272   3.498 -0.0280  0.0881 -0.3475
  173SAPS   H8R19664   1.616   1.212   3.432 -1.6007  0.4967 -2.3719
  173SAPS   C2919665   1.558   1.273   3.629  0.3306 -0.4686 -0.2930
  173SAPS   H9R19666   1.640   1.213   3.670 -0.3277 -1.6708 -0.7040
  173SAPS  C21019667   1.479   1.362   3.726  0.0700  0.5803  0.3218
  173SAPS  H10R19668   1.459   1.461   3.679 -1.7686  0.9743  1.7888
  173SAPS  H10S19669   1.539   1.400   3.812 -0.2464 -0.0158  0.8131
  173SAPS  C21119670   1.345   1.294   3.762  0.5393  1.0652 -0.6603
  173SAPS  H11R19671   1.292   1.239   3.683 -2.4978  0.7507  1.4399
  173SAPS  C21219672   1.304   1.278   3.890  0.2049  0.0613 -0.5129
  173SAPS  H12R19673   1.208   1.228   3.908  0.1684 -0.7625 -2.6502
  173SAPS  C21319674   1.372   1.320   4.016  0.3201  0.7145 -0.5326
  173SAPS  H13R19675   1.481   1.334   4.001  1.0043 -0.1046  2.7744
  173SAPS  H13S19676   1.364   1.241   4.094 -0.8906 -0.2406 -1.5810
  173SAPS  C21419677   1.308   1.445   4.064 -0.0121 -0.4099 -0.3359
  173SAPS  H14R19678   1.254   1.497   3.983 -0.0800 -2.8538 -1.9730
  173SAPS  C21519679   1.295   1.488   4.192  0.5799 -0.3593 -0.2855
  173SAPS  H15R19680   1.236   1.577   4.217 -1.0382 -1.2692 -0.7764
  173SAPS  C21619681   1.360   1.427   4.317  0.3761  0.0198 -0.8425
  173SAPS  H16R19682   1.391   1.321   4.298 -2.4616 -0.6555 -2.2145
  173SAPS  H16S19683   1.283   1.419   4.397 -0.1573  2.7057 -1.0221
  173SAPS  C21719684   1.473   1.505   4.387  0.7815  0.7882  0.5665
  173SAPS  H17R19685   1.440   1.610   4.404  1.7660  1.3612 -0.8002
  173SAPS  H17S19686   1.550   1.528   4.309 -1.3430  0.8756 -1.6437
  173SAPS  C21819687   1.531   1.445   4.514 -0.3465  0.3357  0.0986
  173SAPS  H18R19688   1.638   1.474   4.519 -0.0845 -0.6299  0.2415
  173SAPS  H18S19689   1.529   1.334   4.510  0.1748  0.2969  0.8133
  173SAPS  C21919690   1.461   1.489   4.638  0.8572 -0.5130 -0.0688
  173SAPS  H19R19691   1.420   1.590   4.616 -0.7280 -0.6853  1.8725
  173SAPS  H19S19692   1.531   1.497   4.724 -0.7799  0.8064  1.1979
  173SAPS  C22019693   1.346   1.405   4.683  0.2307 -0.1344  0.2848
  173SAPS  H20R19694   1.352   1.409   4.794  4.3387  0.6362  0.2152
  173SAPS  H20S19695   1.359   1.298   4.659  0.1501  0.5503 -3.3486
  173SAPS  H20T19696   1.252   1.447   4.641  0.9932 -0.3945 -1.8140
  173SAPS   C3319697   1.232   0.599   3.316  0.4265 -0.3474 -0.0909
  173SAPS   H3X19698   1.270   0.700   3.292  0.3718 -0.3817 -0.3208
  173SAPS   H3Y19699   1.313   0.550   3.375 -0.6776 -0.2079  1.6245
  173SAPS   C3419700   1.112   0.602   3.412 -0.1004 -0.5057 -0.2160
  173SAPS   H4X19701   1.076   0.499   3.430  0.1945 -0.5379  0.2202
  173SAPS   H4Y19702   1.027   0.648   3.357 -0.0539  0.2781  0.3518
  173SAPS   C3519703   1.132   0.683   3.540  0.1878  0.0312  0.3793
  173SAPS   H5X19704   1.183   0.781   3.530  2.3525 -0.7046  2.9477
  173SAPS   H5Y19705   1.209   0.634   3.603 -0.2288  0.7484  1.4776
  173SAPS   C3619706   1.006   0.697   3.629 -0.3114  0.3687 -0.5686
  173SAPS   H6X19707   0.989   0.594   3.666  1.4285  0.9808  2.3383
  173SAPS   H6Y19708   0.912   0.729   3.579 -1.9263 -1.3689  1.1910
  173SAPS   C3719709   1.034   0.791   3.750  0.1888 -0.1310 -0.2804
  173SAPS   H7X19710   1.041   0.898   3.720 -2.1233  0.4930  1.1008
  173SAPS   H7Y19711   1.125   0.747   3.795 -0.5263  0.1948  1.5791
  173SAPS   C3819712   0.932   0.800   3.859  0.3131  0.5430  0.0502
  173SAPS   H8X19713   0.868   0.710   3.860 -1.0269  1.4059 -2.1089
  173SAPS   H8Y19714   0.856   0.880   3.847  1.0490  1.6645  2.1802
  173SAPS   C3919715   0.976   0.818   4.009  0.2534 -0.1269 -0.5340
  173SAPS   H9X19716   1.036   0.911   4.002  0.2635 -0.0712  0.1898
  173SAPS   H9Y19717   1.044   0.735   4.040 -0.0596  0.5958  2.3966
  173SAPS  C31019718   0.863   0.838   4.113  0.0130  0.2835 -0.0862
  173SAPS  H10X19719   0.800   0.747   4.104  0.0746  0.4000 -2.4413
  173SAPS  H10Y19720   0.813   0.935   4.095 -0.5545  0.1822  0.8911
  173SAPS  C31119721   0.907   0.855   4.260  0.7690  0.1024  0.3561
  173SAPS  H11X19722   0.981   0.938   4.265  0.7835  0.0582  0.8795
  173SAPS  H11Y19723   0.963   0.766   4.292 -0.1134 -0.6589 -0.1574
  173SAPS  C31219724   0.786   0.874   4.357  0.3073 -0.1566 -0.2906
  173SAPS  H12X19725   0.722   0.783   4.362  0.3608 -0.2245 -0.7347
  173SAPS  H12Y19726   0.718   0.953   4.318 -1.5214 -1.8169 -0.6282
  173SAPS  C31319727   0.843   0.921   4.493 -0.5507  0.8149  0.2505
  173SAPS  H13X19728   0.897   1.016   4.474  1.8334 -0.2344  1.4087
  173SAPS  H13Y19729   0.922   0.854   4.533  1.1622  1.1671 -2.3003
  173SAPS  C31419730   0.734   0.929   4.598 -0.5953 -0.1084 -0.3835
  173SAPS  H14X19731   0.649   0.990   4.560 -1.0111 -0.4972 -0.0808
  173SAPS  H14Y19732   0.788   0.976   4.683 -0.2499  0.3089 -0.8227
  173SAPS  C31519733   0.674   0.793   4.649 -0.3177 -0.0793  0.2484
  173SAPS  H15X19734   0.756   0.741   4.704  0.7935  1.4340  0.0756
  173SAPS  H15Y19735   0.651   0.726   4.564  2.0955 -1.8367  0.8721
  173SAPS  C31619736   0.549   0.801   4.737  0.7512  0.2297  0.3413
  173SAPS  H16X19737   0.461   0.844   4.683  0.8092 -0.9094 -0.7128
  173SAPS  H16Y19738   0.576   0.867   4.822 -0.3201 -0.0847  0.9541
  173SAPS  C31719739   0.510   0.675   4.814 -0.2534 -0.2033  0.1273
  173SAPS  H17X19740   0.424   0.711   4.875 -1.0814  0.1384 -1.2062
  173SAPS  H17Y19741   0.586   0.646   4.890 -0.4438 -0.9364  0.0517
  173SAPS  C31819742   0.484   0.547   4.726 -0.2624 -0.3844  0.0204
  173SAPS  H18X19743   0.470   0.452   4.783  0.8765  0.0663  1.1014
  173SAPS  H18Y19744   0.575   0.532   4.664  1.4281  1.8938  1.7731
  173SAPS  H18Z19745   0.395   0.563   4.662  0.3755 -1.5993 -1.2382
  174SAPS     N19746   0.397   5.903   2.816  0.2563 -0.4774  0.4437
  174SAPS   HN119747   0.364   5.995   2.779  1.8703  0.8282  2.0600
  174SAPS   HN219748   0.399   5.926   2.917  0.3594  2.0123 -0.0579
  174SAPS   HN319749   0.498   5.893   2.793 -0.2751 -0.8581 -2.0036
  174SAPS   C1219750   0.322   5.788   2.772  0.4045 -0.0157 -0.2972
  174SAPS  H12A19751   0.233   5.794   2.833  0.8473 -0.6142  0.4340
  174SAPS   C1319752   0.287   5.789   2.613 -0.1797 -0.3818  0.7544
  174SAPS  O13A19753   0.355   5.858   2.531  0.0146  0.6342 -0.2610
  174SAPS  O13B19754   0.216   5.693   2.568 -0.4650 -0.1426  0.0015
  174SAPS   C1119755   0.396   5.647   2.796  0.0799 -0.9251  0.1985
  174SAPS  H11A19756   0.496   5.655   2.748 -0.2071 -1.2267 -0.4739
  174SAPS  H11B19757   0.334   5.566   2.751 -1.7791  1.3118 -1.5023
  174SAPS     P19758   0.484   5.478   2.977 -0.0856 -0.2390 -0.0922
  174SAPS   O1319759   0.377   5.377   2.999 -0.2660  0.0353 -0.6046
  174SAPS   O1419760   0.584   5.426   2.876  0.5505 -0.3384  0.3533
  174SAPS   O1219761   0.422   5.620   2.935  0.4895 -0.4968 -0.6030
  174SAPS   O1119762   0.563   5.515   3.103  0.3170 -0.3138 -0.9868
  174SAPS    C119763   0.585   5.644   3.157  0.4296 -0.1864 -0.0892
  174SAPS    HA19764   0.692   5.651   3.188 -0.1440 -1.8386  2.6032
  174SAPS    HB19765   0.549   5.727   3.092  0.3625 -0.4744 -0.4244
  174SAPS    C219766   0.500   5.676   3.288 -0.3074  0.4400 -0.1873
  174SAPS    HS19767   0.572   5.723   3.358  0.8812 -2.2756  0.5255
  174SAPS   O2119768   0.458   5.555   3.344  0.6161  0.8889  0.4392
  174SAPS   C2119769   0.543   5.469   3.389 -0.5451 -0.6959  0.6745
  174SAPS   O2219770   0.665   5.478   3.393 -0.0766 -0.2424 -0.4102
  174SAPS   C2219771   0.462   5.341   3.429 -0.2593  0.2901  0.2140
  174SAPS   H2R19772   0.414   5.300   3.338 -1.0661 -0.8570  1.1133
  174SAPS   H2S19773   0.530   5.261   3.465  0.0328  0.5343  0.2084
  174SAPS    C319774   0.385   5.780   3.259  0.1596  0.2117  0.1068
  174SAPS    HX19775   0.312   5.732   3.191  0.2758  0.4707 -0.2009
  174SAPS    HY19776   0.429   5.865   3.203  0.0741  0.5916  0.6076
  174SAPS   O3119777   0.329   5.825   3.384 -0.4219 -0.3453 -0.3034
  174SAPS   C3119778   0.223   5.762   3.419  0.6376  1.5936 -0.0968
  174SAPS   O3219779   0.165   5.673   3.352  0.2209  0.0396  0.9518
  174SAPS   C3219780   0.166   5.831   3.547 -0.3837 -0.2599 -0.1244
  174SAPS   H2X19781   0.055   5.820   3.554 -0.5178  1.7704  3.1196
  174SAPS   H2Y19782   0.188   5.939   3.544 -1.6029  0.0186  0.4771
  174SAPS   C2319783   0.363   5.377   3.537  0.6331  0.0039 -0.2957
  174SAPS   H3R19784   0.282   5.303   3.554  0.0883  0.9251  1.3704
  174SAPS   H3S19785   0.309   5.466   3.498 -0.7884 -0.2223  1.0248
  174SAPS   C2419786   0.417   5.405   3.679 -0.1280  0.0314 -0.7624
  174SAPS   H4R19787   0.338   5.450   3.743 -0.2076 -2.0816  0.7215
  174SAPS   H4S19788   0.487   5.491   3.671  0.5905 -0.5760 -1.1862
  174SAPS   C2519789   0.472   5.277   3.748  1.1383 -0.1034  0.1700
  174SAPS   H5R19790   0.557   5.233   3.693 -0.0152  0.0424 -1.8319
  174SAPS   C2619791   0.421   5.211   3.851 -0.0029  0.2822  0.0300
  174SAPS   H6R19792   0.472   5.121   3.888 -1.7035 -0.7941 -0.1342
  174SAPS   C2719793   0.291   5.239   3.924  0.0089  0.6379  0.7444
  174SAPS   H7R19794   0.284   5.349   3.910  0.3414  0.7713  1.5391
  174SAPS   H7S19795   0.321   5.228   4.031  1.5793  0.7615  0.3380
  174SAPS   C2819796   0.160   5.174   3.892 -0.3758  0.6117 -0.1113
  174SAPS   H8R19797   0.175   5.086   3.827  0.0812 -0.8155  1.8378
  174SAPS   C2919798   0.049   5.201   3.971 -0.4056 -0.0645  0.2604
  174SAPS   H9R19799  -0.046   5.148   3.954 -0.8629  0.1220  2.0947
  174SAPS  C21019800   0.025   5.317   4.068 -0.1531  0.0120  0.0731
  174SAPS  H10R19801  -0.086   5.323   4.072 -0.1757  0.4039  4.4230
  174SAPS  H10S19802   0.060   5.413   4.025  1.0418  0.1516  1.2964
  174SAPS  C21119803   0.074   5.289   4.207 -0.6691 -0.2435  0.1867
  174SAPS  H11R19804   0.165   5.228   4.197 -0.1168  0.5034  0.5205
  174SAPS  C21219805   0.017   5.313   4.323  0.4065  0.4898  0.3269
  174SAPS  H12R19806   0.064   5.279   4.417  0.8094  2.8213  1.0522
  174SAPS  C21319807  -0.112   5.382   4.341 -0.6555  0.4195  0.3543
  174SAPS  H13R19808  -0.148   5.436   4.250  0.6832  0.4288 -0.1909
  174SAPS  H13S19809  -0.098   5.459   4.420  1.4828  0.3883  0.0726
  174SAPS  C21419810  -0.223   5.285   4.357  0.3422  0.1706 -0.5519
  174SAPS  H14R19811  -0.272   5.262   4.262 -0.9623 -0.9250  0.3508
  174SAPS  C21519812  -0.277   5.242   4.471  0.0272  1.4214 -0.3318
  174SAPS  H15R19813  -0.369   5.180   4.471  0.4172  0.8101 -1.5267
  174SAPS  C21619814  -0.227   5.284   4.607 -0.4347 -0.5305 -0.6442
  174SAPS  H16R19815  -0.254   5.388   4.634  0.9091 -0.5547  0.9896
  174SAPS  H16S19816  -0.116   5.279   4.603 -0.1208  3.1120 -0.0972
  174SAPS  C21719817  -0.246   5.184   4.718 -0.2762 -0.1496  0.0340
  174SAPS  H17R19818  -0.357   5.177   4.724 -0.6363  2.8596 -1.2995
  174SAPS  H17S19819  -0.200   5.225   4.810 -0.3937 -2.2103  1.0742
  174SAPS  C21819820  -0.181   5.050   4.684 -0.4810 -0.0952  0.8559
  174SAPS  H18R19821  -0.071   5.041   4.683 -0.5494 -0.9979  0.9928
  174SAPS  H18S19822  -0.211   5.032   4.579 -1.1794  2.2864  0.5766
  174SAPS  C21919823  -0.235   4.941   4.775 -0.0291  0.0604  0.3507
  174SAPS  H19R19824  -0.346   4.941   4.783 -0.0285 -0.5174  0.3719
  174SAPS  H19S19825  -0.203   4.974   4.876  2.8133 -0.7887 -0.1972
  174SAPS  C22019826  -0.181   4.800   4.743  0.2809 -0.6064 -0.0730
  174SAPS  H20R19827  -0.218   4.767   4.644 -0.7641  3.3390 -1.1792
  174SAPS  H20S19828  -0.219   4.727   4.817 -0.6780  0.1366  0.1856
  174SAPS  H20T19829  -0.070   4.806   4.749  0.1478  1.0526  2.7299
  174SAPS   C3319830   0.224   5.770   3.673 -0.7934  0.2632 -0.0795
  174SAPS   H3X19831   0.335   5.765   3.677 -0.5711  2.8765 -0.9654
  174SAPS   H3Y19832   0.183   5.668   3.691  0.3539  0.0869  1.8824
  174SAPS   C3419833   0.178   5.850   3.800 -0.1310  0.6671 -0.7947
  174SAPS   H4X19834   0.068   5.860   3.812  0.0584  0.8045  1.2355
  174SAPS   H4Y19835   0.227   5.949   3.806 -0.3752  0.8073 -1.0935
  174SAPS   C3519836   0.221   5.775   3.928 -0.5059  0.9408  0.7253
  174SAPS   H5X19837   0.332   5.768   3.923 -0.4197  2.3051  0.3590
  174SAPS   H5Y19838   0.180   5.673   3.942  3.4872 -0.8554  0.5822
  174SAPS   C3619839   0.190   5.839   4.067  0.4289  0.2132  0.8860
  174SAPS   H6X19840   0.085   5.870   4.082  0.2288 -0.0840  0.1583
  174SAPS   H6Y19841   0.254   5.930   4.071  0.6091  0.2595 -1.5814
  174SAPS   C3719842   0.218   5.752   4.192  0.4536  0.1633  0.7356
  174SAPS   H7X19843   0.317   5.706   4.174  0.7691  0.9073  0.5226
  174SAPS   H7Y19844   0.146   5.669   4.205 -2.3686  2.4631  0.9577
  174SAPS   C3819845   0.212   5.844   4.318 -0.3770 -0.7217  0.1119
  174SAPS   H8X19846   0.254   5.946   4.303  0.9712 -1.3544 -0.6936
  174SAPS   H8Y19847   0.275   5.792   4.394 -0.5536 -2.3867 -0.8566
  174SAPS   C3919848   0.069   5.858   4.373 -0.4129  0.0663  0.4446
  174SAPS   H9X19849   0.025   5.757   4.359  0.0071  0.0520 -0.8558
  174SAPS   H9Y19850   0.009   5.930   4.313 -1.2039 -0.4592  0.5924
  174SAPS  C31019851   0.068   5.900   4.516 -0.1459 -0.3177  0.1010
  174SAPS  H10X19852   0.140   5.978   4.549 -0.4868  0.1574 -0.2699
  174SAPS  H10Y19853   0.083   5.813   4.583 -0.0810 -0.6883 -0.3904
  174SAPS  C31119854  -0.078   5.947   4.558 -0.1902 -0.5279  0.6062
  174SAPS  H11X19855  -0.145   5.858   4.566 -0.3890 -0.5665 -1.1249
  174SAPS  H11Y19856  -0.110   6.024   4.485 -0.6067 -2.3660 -1.2521
  174SAPS  C31219857  -0.062   6.014   4.697 -0.0525  0.3422  0.0367
  174SAPS  H12X19858   0.025   6.084   4.697 -0.1414  0.4519 -0.7772
  174SAPS  H12Y19859  -0.047   5.927   4.766 -1.8744 -1.5425 -1.8296
  174SAPS  C31319860  -0.184   6.093   4.734  0.2434 -0.5622 -0.2894
  174SAPS  H13X19861  -0.263   6.025   4.771 -0.7094  1.1017  0.8536
  174SAPS  H13Y19862  -0.237   6.148   4.653 -2.3875  1.1199  2.3744
  174SAPS  C31419863  -0.158   6.207   4.833 -0.1361 -0.2673  0.0497
  174SAPS  H14X19864  -0.103   6.169   4.921 -0.8061  0.1779  0.6740
  174SAPS  H14Y19865  -0.258   6.240   4.869 -0.0676  1.7008 -1.4354
  174SAPS  C31519866  -0.104   6.342   4.778 -0.2994 -0.3652 -0.1404
  174SAPS  H15X19867  -0.185   6.384   4.714 -0.0536  1.7791  0.8575
  174SAPS  H15Y19868  -0.012   6.332   4.717 -2.5733  0.8312 -4.1116
  174SAPS  C31619869  -0.076   6.442   4.886 -0.2234  0.1569 -0.0026
  174SAPS  H16X19870  -0.168   6.470   4.942  0.3698  0.5286  0.8061
  174SAPS  H16Y19871  -0.037   6.534   4.838 -0.3982  1.2362  1.8389
  174SAPS  C31719872   0.043   6.405   4.972  0.3684  0.4291 -0.4456
  174SAPS  H17X19873   0.019   6.314   5.031 -2.9505  0.7590 -1.0810
  174SAPS  H17Y19874   0.060   6.484   5.048 -1.1197  1.4395 -1.1066
  174SAPS  C31819875   0.171   6.378   4.887 -0.2777  0.8006 -0.1148
  174SAPS  H18X19876   0.162   6.281   4.834 -1.1371  1.5420 -1.3715
  174SAPS  H18Y19877   0.261   6.370   4.952  0.4918  1.0122 -1.1337
  174SAPS  H18Z19878   0.187   6.453   4.807  0.1109  1.5531  0.6587
  175SAPS     N19879   3.388   0.382   2.237 -0.1418  0.3156 -0.1133
  175SAPS   HN119880   3.298   0.415   2.277  0.1907 -1.5637  2.4238
  175SAPS   HN219881   3.464   0.452   2.241  1.9171 -1.8291  0.3305
  175SAPS   HN319882   3.371   0.366   2.135 -0.0514  1.2562 -0.2861
  175SAPS   C1219883   3.441   0.262   2.296 -1.0688  0.5235 -0.3521
  175SAPS  H12A19884   3.375   0.244   2.380 -0.3140  0.8427  0.3247
  175SAPS   C1319885   3.441   0.139   2.202  0.0864  0.1044  0.2407
  175SAPS  O13A19886   3.399   0.142   2.079  0.2529  0.0155 -0.2410
  175SAPS  O13B19887   3.489   0.030   2.248 -0.4355  0.3620 -0.0698
  175SAPS   C1119888   3.595   0.285   2.326 -0.3019  0.4098 -0.5941
  175SAPS  H11A19889   3.658   0.299   2.236 -0.7580  2.5546 -0.6419
  175SAPS  H11B19890   3.632   0.188   2.364 -0.7902  0.5604  0.3185
  175SAPS     P19891   3.668   0.532   2.390  0.1577  0.5896  0.0329
  175SAPS   O1319892   3.817   0.520   2.375  0.5005 -0.2123 -0.2167
  175SAPS   O1419893   3.592   0.580   2.271  0.0751  0.0996 -0.1321
  175SAPS   O1219894   3.618   0.391   2.425  0.4311 -0.3208  0.1655
  175SAPS   O1119895   3.619   0.624   2.518 -0.4067  0.1579 -0.3029
  175SAPS    C119896   3.709   0.728   2.561 -0.5433 -0.2828 -0.3301
  175SAPS    HA19897   3.780   0.757   2.481 -0.4970  0.8595  0.1093
  175SAPS    HB19898   3.652   0.817   2.593  1.9206  1.5756 -0.8152
  175SAPS    C219899   3.805   0.697   2.689  0.2618  0.3405  0.0793
  175SAPS    HS19900   3.875   0.624   2.644  1.4270  1.4044  0.1220
  175SAPS   O2119901   3.724   0.641   2.798 -0.4843  0.1658  0.2106
  175SAPS   C2119902   3.766   0.536   2.855  0.0419  0.4858 -0.9261
  175SAPS   O2219903   3.874   0.478   2.840  0.6717  0.0460 -0.7020
  175SAPS   C2219904   3.655   0.485   2.947 -0.6187 -0.2307  0.1078
  175SAPS   H2R19905   3.633   0.565   3.021 -1.3958 -0.7173  0.4260
  175SAPS   H2S19906   3.566   0.482   2.881  0.6030  0.3287 -1.6163
  175SAPS    C319907   3.886   0.824   2.741  0.1202  0.1954  0.0857
  175SAPS    HX19908   3.815   0.905   2.765 -0.0475  0.2754 -0.6695
  175SAPS    HY19909   3.944   0.866   2.656 -1.2744  2.1437  0.0479
  175SAPS   O3119910   3.968   0.793   2.853  0.1362 -0.3037  0.0136
  175SAPS   C3119911   4.070   0.717   2.834  0.2739 -0.3005 -0.0536
  175SAPS   O3219912   4.121   0.686   2.726 -0.5657 -0.0850  0.0757
  175SAPS   C3219913   4.135   0.679   2.965 -0.2157  0.3166  0.5768
  175SAPS   H2X19914   4.233   0.731   2.956  0.5604 -1.3100 -1.2477
  175SAPS   H2Y19915   4.146   0.569   2.979 -1.1007  0.0818 -0.4371
  175SAPS   C2319916   3.671   0.344   3.021 -0.5076 -0.2373 -0.2172
  175SAPS   H3R19917   3.706   0.266   2.952 -0.8884 -1.1251  0.5684
  175SAPS   H3S19918   3.578   0.308   3.071  0.0826 -3.0327 -0.9866
  175SAPS   C2419919   3.773   0.344   3.132  0.2605 -0.5204 -0.4285
  175SAPS   H4R19920   3.872   0.378   3.092 -1.5870  2.5668 -2.8982
  175SAPS   H4S19921   3.781   0.246   3.183 -2.6269  0.9324  3.2978
  175SAPS   C2519922   3.730   0.448   3.232 -0.1731 -0.2926 -0.8218
  175SAPS   H5R19923   3.764   0.547   3.197 -0.0165  0.4094  1.1896
  175SAPS   C2619924   3.701   0.434   3.367  0.4038 -0.1264  0.5078
  175SAPS   H6R19925   3.679   0.527   3.421  0.0658 -0.2065  0.5099
  175SAPS   C2719926   3.697   0.306   3.437  0.2404  0.4325  0.1375
  175SAPS   H7R19927   3.744   0.224   3.379 -0.3929  1.0942 -1.3573
  175SAPS   H7S19928   3.593   0.270   3.455  1.6825 -4.6745 -0.3061
  175SAPS   C2819929   3.767   0.308   3.571  0.0220  0.9982  0.5005
  175SAPS   H8R19930   3.863   0.254   3.578 -0.7229 -0.4705 -0.1155
  175SAPS   C2919931   3.712   0.318   3.687  0.4402 -0.5467 -0.4632
  175SAPS   H9R19932   3.778   0.328   3.774  0.2427 -1.3804 -0.2130
  175SAPS  C21019933   3.568   0.349   3.715  0.0827 -0.3168  0.3957
  175SAPS  H10R19934   3.505   0.365   3.625  0.5294  2.5519  0.4999
  175SAPS  H10S19935   3.572   0.451   3.757 -0.5731  0.4740 -1.3543
  175SAPS  C21119936   3.517   0.236   3.807  0.2767  0.2852 -0.1577
  175SAPS  H11R19937   3.524   0.140   3.754  0.8835 -1.3917  2.7265
  175SAPS  C21219938   3.480   0.236   3.937 -0.3040 -0.3812  0.1111
  175SAPS  H12R19939   3.423   0.150   3.972 -0.3749 -0.6861 -0.7230
  175SAPS  C21319940   3.468   0.355   4.031  0.2686  1.1083  0.5361
  175SAPS  H13R19941   3.524   0.439   3.984 -0.5739  0.4901 -1.7013
  175SAPS  H13S19942   3.495   0.342   4.138 -0.4323  0.7117  0.6684
  175SAPS  C21419943   3.327   0.404   4.035 -0.1240  0.2634  0.4063
  175SAPS  H14R19944   3.285   0.403   3.933  1.3498 -0.8949 -0.2303
  175SAPS  C21519945   3.256   0.454   4.137  0.0183  0.3273  0.5960
  175SAPS  H15R19946   3.153   0.490   4.127  0.2016  0.2688 -2.1881
  175SAPS  C21619947   3.302   0.460   4.280 -0.0261  0.0284  0.0871
  175SAPS  H16R19948   3.389   0.529   4.284  0.2733 -0.1887 -1.6320
  175SAPS  H16S19949   3.336   0.363   4.321 -2.4738 -0.9066  0.0545
  175SAPS  C21719950   3.192   0.503   4.375 -0.2739 -0.9066  0.2156
  175SAPS  H17R19951   3.092   0.456   4.375 -0.8943  0.3424 -1.0675
  175SAPS  H17S19952   3.171   0.602   4.329  2.7933 -0.6919 -0.9645
  175SAPS  C21819953   3.239   0.533   4.519  0.0566 -0.6236  0.5626
  175SAPS  H18R19954   3.345   0.563   4.505  0.3250 -1.7349  0.1155
  175SAPS  H18S19955   3.261   0.436   4.567  1.8440 -0.1527  0.7824
  175SAPS  C21919956   3.148   0.627   4.598  0.7967  0.8694 -0.9462
  175SAPS  H19R19957   3.055   0.569   4.609  0.8295  0.9585 -0.1177
  175SAPS  H19S19958   3.122   0.721   4.545  0.3141  0.7954 -0.8457
  175SAPS  C22019959   3.195   0.664   4.738  0.6467 -0.0805  0.6973
  175SAPS  H20R19960   3.105   0.693   4.796  0.3253 -0.7635  0.5472
  175SAPS  H20S19961   3.267   0.747   4.754 -1.3774  1.5972  1.6492
  175SAPS  H20T19962   3.240   0.577   4.791  1.4877 -0.4289 -0.5518
  175SAPS   C3319963   4.045   0.716   3.084 -0.2610 -0.1460 -0.4777
  175SAPS   H3X19964   3.939   0.685   3.070 -0.5737  0.7756 -0.2031
  175SAPS   H3Y19965   4.023   0.824   3.093 -2.4905 -0.4493 -1.5407
  175SAPS   C3419966   4.101   0.654   3.217 -0.2570 -0.7775 -0.7308
  175SAPS   H4X19967   4.208   0.684   3.223 -0.0180 -1.5484 -0.9949
  175SAPS   H4Y19968   4.103   0.543   3.213  0.5664 -0.7388 -2.1941
  175SAPS   C3519969   4.022   0.703   3.335  0.6135 -0.5927 -0.3455
  175SAPS   H5X19970   3.913   0.706   3.316  0.8171 -0.6415 -1.5753
  175SAPS   H5Y19971   4.056   0.805   3.360  1.3865 -1.3000  1.7481
  175SAPS   C3619972   4.056   0.628   3.467 -0.4751  0.9880  0.7177
  175SAPS   H6X19973   4.164   0.647   3.486 -0.6043  2.7130 -0.0792
  175SAPS   H6Y19974   4.029   0.523   3.439 -0.7150  1.5760 -1.5045
  175SAPS   C3719975   3.980   0.666   3.590  0.0621 -0.4318  0.4328
  175SAPS   H7X19976   3.869   0.654   3.583 -0.4994  3.0013  1.5989
  175SAPS   H7Y19977   4.003   0.770   3.619  0.3535 -0.6880  1.1351
  175SAPS   C3819978   4.039   0.587   3.706  0.6858  0.5135 -0.7359
  175SAPS   H8X19979   4.150   0.591   3.704  0.9115 -1.4483  2.1882
  175SAPS   H8Y19980   4.016   0.479   3.689  2.0810  0.2156 -0.8469
  175SAPS   C3919981   3.997   0.653   3.839  0.7124  0.4507 -0.2345
  175SAPS   H9X19982   4.018   0.762   3.841 -2.7351  1.2256 -0.4779
  175SAPS   H9Y19983   4.052   0.598   3.919  1.8013  1.5677 -0.1867
  175SAPS  C31019984   3.848   0.627   3.871  1.0146 -0.3939 -0.9138
  175SAPS  H10X19985   3.832   0.517   3.880 -0.1200 -0.2155 -0.6176
  175SAPS  H10Y19986   3.776   0.675   3.802  2.3033 -0.3202 -2.2735
  175SAPS  C31119987   3.833   0.679   4.014  0.0816 -0.1782 -0.5565
  175SAPS  H11X19988   3.865   0.784   4.035 -0.0782 -0.4412  1.1479
  175SAPS  H11Y19989   3.901   0.621   4.080 -0.7332  1.3388  1.7202
  175SAPS  C31219990   3.690   0.663   4.079  0.3290  0.2230  0.0016
  175SAPS  H12X19991   3.684   0.552   4.089  1.7031  0.1351  0.0617
  175SAPS  H12Y19992   3.613   0.694   4.005  0.2249 -0.9867 -0.4287
  175SAPS  C31319993   3.670   0.743   4.208 -0.4998  0.1975  0.0794
  175SAPS  H13X19994   3.567   0.718   4.242 -0.1557 -1.0562  0.2652
  175SAPS  H13Y19995   3.662   0.852   4.189 -0.9957  0.6981  2.7273
  175SAPS  C31419996   3.777   0.707   4.311 -0.1358 -0.5827  0.3469
  175SAPS  H14X19997   3.869   0.760   4.279  0.6762 -2.8890 -1.4363
  175SAPS  H14Y19998   3.785   0.596   4.310 -0.2341 -0.5891 -0.7068
  175SAPS  C31519999   3.754   0.755   4.454 -0.3703  0.4674  0.4837
  175SAPS  H15X20000   3.724   0.862   4.460 -2.5794 -0.1343  1.3766
  175SAPS  H15Y20001   3.849   0.744   4.511 -0.2271  1.9091  0.5602
  175SAPS  C31620002   3.650   0.675   4.538 -0.2279 -0.0310 -0.5579
  175SAPS  H16X20003   3.703   0.582   4.568 -0.6821 -0.5037 -1.1845
  175SAPS  H16Y20004   3.574   0.633   4.468  0.7853 -0.2183 -1.5725
  175SAPS  C31720005   3.601   0.736   4.669  0.0326  0.0548  0.5492
  175SAPS  H17X20006   3.516   0.678   4.712  1.4708 -1.7017  1.1013
  175SAPS  H17Y20007   3.558   0.836   4.644  0.6852  0.1593 -0.1896
  175SAPS  C31820008   3.711   0.741   4.776 -0.0508 -0.1867  0.3954
  175SAPS  H18X20009   3.668   0.765   4.875  2.6103 -0.0706  1.5915
  175SAPS  H18Y20010   3.773   0.831   4.761  0.9005 -0.9124 -0.1251
  175SAPS  H18Z20011   3.769   0.647   4.791 -1.9951 -1.1492  2.6789
  176SAPS     N20012   1.538   2.999   2.262  0.0634 -0.4608  0.1362
  176SAPS   HN120013   1.453   3.018   2.319 -0.8533 -3.9245  0.1478
  176SAPS   HN220014   1.520   3.018   2.161 -1.3488  2.3139  0.8224
  176SAPS   HN320015   1.567   2.901   2.284  0.9433  0.4386  3.5545
  176SAPS   C1220016   1.651   3.082   2.312 -0.2773 -0.3836  1.2865
  176SAPS  H12A20017   1.736   3.056   2.250 -1.4571 -2.5772  0.4834
  176SAPS   C1320018   1.631   3.234   2.289  0.0243  0.3341  0.2906
  176SAPS  O13A20019   1.529   3.281   2.232 -0.0246  0.2218 -0.1751
  176SAPS  O13B20020   1.709   3.318   2.342 -0.2987  0.8991 -0.4780
  176SAPS   C1120021   1.682   3.041   2.458 -0.3392 -0.5732  0.7267
  176SAPS  H11A20022   1.590   3.062   2.517 -1.4588 -2.4927 -0.2309
  176SAPS  H11B20023   1.763   3.106   2.498 -0.9224  1.3848 -1.1188
  176SAPS     P20024   1.854   2.846   2.495 -0.1322  0.0089  0.0069
  176SAPS   O1320025   1.853   2.708   2.436 -0.2610 -0.0551  0.4132
  176SAPS   O1420026   1.949   2.947   2.441  0.2005 -0.0152 -0.0463
  176SAPS   O1220027   1.706   2.897   2.471  0.0701  0.0005  0.1752
  176SAPS   O1120028   1.871   2.844   2.647  0.2815  0.0722 -0.1274
  176SAPS    C120029   1.914   2.971   2.711  0.5732  0.0722  0.2598
  176SAPS    HA20030   2.013   3.008   2.677 -0.6562  1.6323 -1.8781
  176SAPS    HB20031   1.831   3.043   2.691  0.7533  0.2839  0.2700
  176SAPS    C220032   1.919   2.972   2.862  0.3199  0.4336  0.0000
  176SAPS    HS20033   2.011   3.026   2.892  0.7378  0.8451 -1.8885
  176SAPS   O2120034   1.922   2.837   2.914  0.3157  0.1857 -0.3900
  176SAPS   C2120035   2.041   2.776   2.925  0.1670 -0.2530  0.1856
  176SAPS   O2220036   2.144   2.816   2.874 -0.0929  0.4285  0.2075
  176SAPS   C2220037   2.016   2.656   3.013 -0.1288 -0.0961 -0.1111
  176SAPS   H2R20038   1.943   2.591   2.960 -2.9043  1.3941  1.6474
  176SAPS   H2S20039   2.110   2.598   3.015 -0.4523 -0.7776 -2.2476
  176SAPS    C320040   1.805   3.050   2.933  0.7195  0.1349 -0.3554
  176SAPS    HX20041   1.715   2.990   2.908  0.7267 -0.9523  1.9863
  176SAPS    HY20042   1.805   3.153   2.890 -1.4914  0.4427  0.2633
  176SAPS   O3120043   1.822   3.063   3.078 -0.4795  0.6031  0.5913
  176SAPS   C3120044   1.731   3.005   3.153 -0.4120 -0.4577 -0.3537
  176SAPS   O3220045   1.642   2.933   3.114 -0.5176 -0.5099  0.1058
  176SAPS   C3220046   1.769   3.016   3.302 -0.7283 -0.4163 -0.1824
  176SAPS   H2X20047   1.716   3.108   3.336 -0.5580 -0.4836  0.2754
  176SAPS   H2Y20048   1.878   3.024   3.319 -1.0200  0.7861  1.3605
  176SAPS   C2320049   1.958   2.680   3.157 -0.5929  0.7047  0.3986
  176SAPS   H3R20050   1.853   2.714   3.146 -0.5022  0.6587 -0.6429
  176SAPS   H3S20051   1.989   2.767   3.219  1.4165  0.7790 -0.6372
  176SAPS   C2420052   1.941   2.552   3.244 -0.2427  0.0945 -0.3931
  176SAPS   H4R20053   1.896   2.474   3.179  2.3307 -0.0577 -2.1532
  176SAPS   H4S20054   1.873   2.586   3.325  0.3015 -0.2495  0.2165
  176SAPS   C2520055   2.072   2.499   3.309  0.0752 -0.8002 -0.2907
  176SAPS   H5R20056   2.121   2.418   3.254  0.0500 -0.8471 -0.2438
  176SAPS   C2620057   2.120   2.536   3.426 -0.0775  0.4420 -0.0902
  176SAPS   H6R20058   2.210   2.489   3.469  0.0475  0.6944 -0.0758
  176SAPS   C2720059   2.056   2.633   3.521 -0.1349  0.4157 -0.1813
  176SAPS   H7R20060   1.967   2.685   3.478 -1.2457  0.1250  1.6519
  176SAPS   H7S20061   2.131   2.715   3.529  0.3203  0.2056 -1.9240
  176SAPS   C2820062   1.995   2.557   3.638 -0.3306 -0.1206 -0.3425
  176SAPS   H8R20063   1.892   2.524   3.617 -0.0032 -1.7952  0.4980
  176SAPS   C2920064   2.040   2.569   3.769 -0.0200 -0.1004  0.5045
  176SAPS   H9R20065   1.995   2.513   3.852  0.9450 -0.4202  0.8158
  176SAPS  C21020066   2.166   2.652   3.800 -0.4961  0.6512 -0.4174
  176SAPS  H10R20067   2.221   2.655   3.704  0.0105  0.4029 -0.1419
  176SAPS  H10S20068   2.221   2.601   3.882 -2.0164  1.2095  1.0071
  176SAPS  C21120069   2.128   2.792   3.845  0.0093 -0.6945  0.5428
  176SAPS  H11R20070   2.094   2.857   3.763 -0.1295 -0.4407  0.7980
  176SAPS  C21220071   2.156   2.846   3.969  0.5558  0.1921 -0.8432
  176SAPS  H12R20072   2.111   2.946   3.977 -1.6725 -0.4859 -3.3220
  176SAPS  C21320073   2.221   2.780   4.092  0.6942  0.6488  0.1406
  176SAPS  H13R20074   2.253   2.862   4.159 -0.5223  0.5835  0.8236
  176SAPS  H13S20075   2.318   2.740   4.053  0.5190  1.4242 -1.1754
  176SAPS  C21420076   2.134   2.685   4.169  0.0163 -0.1064 -0.0741
  176SAPS  H14R20077   2.090   2.612   4.099 -1.5393  1.2002 -0.5294
  176SAPS  C21520078   2.085   2.700   4.290 -0.9660 -0.1672 -0.3007
  176SAPS  H15R20079   2.017   2.623   4.330  0.2837 -2.1694 -1.8522
  176SAPS  C21620080   2.124   2.803   4.391  0.4384 -0.0207  0.0387
  176SAPS  H16R20081   2.036   2.828   4.454  1.2820  2.2632  0.4168
  176SAPS  H16S20082   2.152   2.902   4.350  0.5431 -0.3838 -0.7941
  176SAPS  C21720083   2.235   2.757   4.489 -0.3754  0.0317 -0.3827
  176SAPS  H17R20084   2.331   2.746   4.435 -0.9651 -0.5765 -1.3390
  176SAPS  H17S20085   2.217   2.656   4.532 -0.9512  0.7683  1.1959
  176SAPS  C21820086   2.252   2.856   4.607 -0.2935  0.3136  0.5911
  176SAPS  H18R20087   2.179   2.840   4.689 -1.2650 -1.9165 -0.6092
  176SAPS  H18S20088   2.232   2.959   4.571 -2.6434 -0.4376 -0.3791
  176SAPS  C21920089   2.397   2.850   4.670  0.3580 -0.6474 -0.0565
  176SAPS  H19R20090   2.479   2.851   4.595 -1.0569  0.3291 -1.6726
  176SAPS  H19S20091   2.395   2.747   4.713 -0.2369  0.3070  2.3505
  176SAPS  C22020092   2.403   2.960   4.779 -0.8355 -0.0073  0.7324
  176SAPS  H20R20093   2.419   3.061   4.735 -1.0969 -0.7318 -1.1393
  176SAPS  H20S20094   2.492   2.943   4.843  0.5958  1.7534 -0.7070
  176SAPS  H20T20095   2.311   2.955   4.840 -0.2618 -1.6920  1.5391
  176SAPS   C3320096   1.720   2.887   3.378  0.7828  0.3639 -0.0496
  176SAPS   H3X20097   1.769   2.797   3.336  2.7221  1.1492  0.4210
  176SAPS   H3Y20098   1.611   2.868   3.368  1.0935 -1.7157  0.0229
  176SAPS   C3420099   1.767   2.882   3.521 -0.2158 -0.3200  0.0585
  176SAPS   H4X20100   1.876   2.902   3.523 -0.1969 -0.3430 -0.6182
  176SAPS   H4Y20101   1.737   2.783   3.563  0.7955  0.4499  2.8062
  176SAPS   C3520102   1.680   2.978   3.609  0.2651 -0.9875 -0.5438
  176SAPS   H5X20103   1.575   2.942   3.614 -0.1529  0.2901  0.5300
  176SAPS   H5Y20104   1.688   3.084   3.577 -1.5937 -0.0611  1.7183
  176SAPS   C3620105   1.740   2.987   3.750 -1.0262  0.3708 -0.6238
  176SAPS   H6X20106   1.833   3.048   3.747  0.3559 -1.5773  0.5715
  176SAPS   H6Y20107   1.776   2.885   3.776  0.4936  0.6565 -1.5046
  176SAPS   C3720108   1.653   3.027   3.867 -0.2736 -0.3117 -0.1549
  176SAPS   H7X20109   1.559   2.968   3.873  0.2224 -1.3011 -1.7235
  176SAPS   H7Y20110   1.630   3.135   3.851  0.1141 -0.0175  1.1167
  176SAPS   C3820111   1.722   3.017   4.006  0.2718  0.3072  0.5826
  176SAPS   H8X20112   1.826   3.050   3.988  0.6029 -2.1091 -2.9917
  176SAPS   H8Y20113   1.735   2.911   4.036  1.9037  0.4488  0.4288
  176SAPS   C3920114   1.650   3.097   4.118  0.8293 -0.6854 -0.6567
  176SAPS   H9X20115   1.561   3.036   4.146  2.2067 -1.1829  3.4272
  176SAPS   H9Y20116   1.607   3.189   4.074  0.5862 -0.4277  0.0986
  176SAPS  C31020117   1.745   3.127   4.234 -0.0956  0.4709 -0.1210
  176SAPS  H10X20118   1.833   3.186   4.201 -1.2927  1.8457 -1.0198
  176SAPS  H10Y20119   1.782   3.030   4.272 -0.0905  1.0972  1.5445
  176SAPS  C31120120   1.673   3.197   4.344  0.1989 -0.5392 -0.3063
  176SAPS  H11X20121   1.580   3.146   4.376 -1.2175  2.0553 -0.0314
  176SAPS  H11Y20122   1.645   3.302   4.320  1.7677 -0.1488 -0.5626
  176SAPS  C31220123   1.764   3.225   4.466 -0.2213  0.4692 -0.1149
  176SAPS  H12X20124   1.852   3.291   4.450 -0.5120  0.9336  0.1693
  176SAPS  H12Y20125   1.791   3.124   4.505 -0.2868 -0.2175 -1.7851
  176SAPS  C31320126   1.679   3.290   4.574  0.3649 -0.1717  0.5183
  176SAPS  H13X20127   1.595   3.223   4.602  0.0490  0.4547  1.0891
  176SAPS  H13Y20128   1.638   3.385   4.534 -0.2050  0.7800  3.1798
  176SAPS  C31420129   1.759   3.328   4.694  0.0917  0.0204 -0.4744
  176SAPS  H14X20130   1.843   3.397   4.671  1.2661 -0.8834  0.9043
  176SAPS  H14Y20131   1.800   3.234   4.736  0.3466 -0.3982 -1.6368
  176SAPS  C31520132   1.677   3.395   4.808  0.2429 -0.3121  0.3155
  176SAPS  H15X20133   1.601   3.325   4.850 -0.4371  0.6393  0.7251
  176SAPS  H15Y20134   1.607   3.477   4.781 -0.9372 -0.7038  1.9968
  176SAPS  C31620135   1.768   3.440   4.913 -0.9785 -0.4632 -0.1048
  176SAPS  H16X20136   1.838   3.518   4.875 -2.7674  0.1937 -2.3659
  176SAPS  H16Y20137   1.833   3.359   4.951  0.4670 -0.2036 -1.9070
  176SAPS  C31720138   1.695   3.487   5.040  0.7251  0.0389  0.5048
  176SAPS  H17X20139   1.624   3.406   5.070 -0.9978  0.6037 -1.7910
  176SAPS  H17Y20140   1.638   3.581   5.024  1.2401  0.1057 -1.0262
  176SAPS  C31820141   1.791   3.517   5.158 -0.6700  0.2740  0.7566
  176SAPS  H18X20142   1.875   3.577   5.118  1.4612 -3.1127 -0.2810
  176SAPS  H18Y20143   1.829   3.423   5.203  1.1733  1.7574  2.4328
  176SAPS  H18Z20144   1.740   3.577   5.237 -0.7847 -0.7947  1.5164
  177SAPS     N20145   2.974   0.042   2.392  0.5683  0.3374 -0.0440
  177SAPS   HN120146   2.955  -0.060   2.394  2.0690 -0.1270 -3.3878
  177SAPS   HN220147   3.032   0.081   2.469 -1.6613  2.3279  0.7572
  177SAPS   HN320148   2.886   0.096   2.409  1.6687  1.8404  1.2329
  177SAPS   C1220149   3.025   0.089   2.260 -1.1388  0.1887  0.3934
  177SAPS  H12A20150   3.132   0.076   2.261 -1.0182  1.0875  1.3965
  177SAPS   C1320151   2.967   0.008   2.141  0.1404  0.0216 -0.2621
  177SAPS  O13A20152   2.865  -0.063   2.163 -0.0673  0.1565  0.2695
  177SAPS  O13B20153   2.995   0.047   2.026 -0.5188  0.0493  1.0794
  177SAPS   C1120154   2.995   0.240   2.239  0.0655  0.1300  0.2990
  177SAPS  H11A20155   2.884   0.244   2.238  0.0456 -0.1632  0.8648
  177SAPS  H11B20156   3.039   0.272   2.143  0.4162  2.1482  1.0979
  177SAPS     P20157   3.045   0.459   2.361 -0.0589  0.1690 -0.3315
  177SAPS   O1320158   3.176   0.519   2.325  0.4903 -0.0393  0.5493
  177SAPS   O1420159   2.923   0.508   2.289  0.2258 -0.5225  0.0406
  177SAPS   O1220160   3.059   0.303   2.350 -0.0708 -0.7077 -0.0028
  177SAPS   O1120161   3.021   0.482   2.513 -0.4836  0.2908 -0.5854
  177SAPS    C120162   2.918   0.403   2.580  0.3247  0.1245  0.7697
  177SAPS    HA20163   2.830   0.403   2.513  1.7611  0.1696 -1.2166
  177SAPS    HB20164   2.949   0.296   2.580 -0.8984 -0.2380  0.6559
  177SAPS    C220165   2.861   0.456   2.722 -0.0661  1.0030  0.1590
  177SAPS    HS20166   2.757   0.418   2.710  0.6719 -1.6098  1.4746
  177SAPS   O2120167   2.883   0.596   2.739 -0.3408  0.1818  0.0366
  177SAPS   C2120168   2.772   0.668   2.759  0.2935  0.2162  0.4766
  177SAPS   O2220169   2.655   0.623   2.778 -0.9403  0.2304  0.4954
  177SAPS   C2220170   2.814   0.814   2.765 -0.4354 -0.5677  0.0585
  177SAPS   H2R20171   2.924   0.828   2.755 -0.2990 -0.3873  1.5144
  177SAPS   H2S20172   2.758   0.864   2.684  0.1868  2.1647  1.2103
  177SAPS    C320173   2.929   0.384   2.836  0.4261 -0.5570 -0.7069
  177SAPS    HX20174   3.038   0.404   2.842  0.4609 -1.1015  2.0466
  177SAPS    HY20175   2.920   0.273   2.842  2.0332 -0.6319  2.2082
  177SAPS   O3120176   2.881   0.438   2.960  0.6096 -0.2624  0.3398
  177SAPS   C3120177   2.757   0.383   2.997  0.3223 -0.5215 -0.3022
  177SAPS   O3220178   2.695   0.311   2.925  0.7069 -0.1254  0.0013
  177SAPS   C3220179   2.724   0.435   3.142  0.4953 -0.7443  0.0006
  177SAPS   H2X20180   2.672   0.530   3.114  0.1847 -0.4671  1.4715
  177SAPS   H2Y20181   2.812   0.466   3.202  0.7439 -0.8351 -0.3122
  177SAPS   C2320182   2.777   0.879   2.897  0.8063  0.5366 -0.1083
  177SAPS   H3R20183   2.667   0.894   2.907  0.5196 -0.0419 -1.9605
  177SAPS   H3S20184   2.819   0.982   2.908  1.1124  0.4739 -0.6387
  177SAPS   C2420185   2.831   0.796   3.020  0.5949  0.1646  0.3439
  177SAPS   H4R20186   2.762   0.710   3.023 -2.5474  2.3370 -2.2466
  177SAPS   H4S20187   2.801   0.845   3.115 -2.8941 -0.2497 -0.4070
  177SAPS   C2520188   2.977   0.760   3.012  0.1403  0.5467  0.4138
  177SAPS   H5R20189   3.002   0.654   2.992 -1.3726 -0.3001  2.6609
  177SAPS   C2620190   3.085   0.838   3.051  0.2850  0.1309 -0.0822
  177SAPS   H6R20191   3.183   0.788   3.061  1.1832  2.1341  2.1680
  177SAPS   C2720192   3.075   0.985   3.097 -0.4100 -0.3701  0.6582
  177SAPS   H7R20193   2.972   1.016   3.127 -0.9440  0.4674 -1.8336
  177SAPS   H7S20194   3.088   1.056   3.013 -3.8797  0.9818  1.0627
  177SAPS   C2820195   3.176   1.018   3.201  0.2274 -0.0658  0.2402
  177SAPS   H8R20196   3.270   1.073   3.179  1.0520 -1.3054  0.5659
  177SAPS   C2920197   3.165   0.989   3.337  0.4881 -0.4659  0.7527
  177SAPS   H9R20198   3.247   1.019   3.403  0.2512  0.1847  0.7606
  177SAPS  C21020199   3.058   0.912   3.404 -0.3052  0.4317  0.1996
  177SAPS  H10R20200   3.085   0.807   3.428 -2.3580  0.3990  2.7868
  177SAPS  H10S20201   2.976   0.902   3.330 -0.6896  2.9183  0.2126
  177SAPS  C21120202   3.020   0.975   3.534  0.9557 -0.0975 -0.3885
  177SAPS  H11R20203   3.045   1.082   3.544  0.2305  0.0071  0.4455
  177SAPS  C21220204   2.998   0.921   3.656 -0.1176 -0.6060 -0.6147
  177SAPS  H12R20205   2.967   0.980   3.744 -3.8427 -1.5755 -1.1180
  177SAPS  C21320206   2.984   0.768   3.685  0.4343 -0.6171 -1.1429
  177SAPS  H13R20207   3.065   0.721   3.746 -0.1539 -1.6078 -1.0980
  177SAPS  H13S20208   2.987   0.703   3.595  2.0109 -4.3512  1.3210
  177SAPS  C21420209   2.849   0.744   3.747 -0.0683 -0.1027  0.0707
  177SAPS  H14R20210   2.762   0.767   3.684  0.5517  0.7851 -0.4723
  177SAPS  C21520211   2.829   0.711   3.879 -0.2401  0.0723  0.7037
  177SAPS  H15R20212   2.725   0.696   3.911 -0.7604  2.2725  0.1709
  177SAPS  C21620213   2.928   0.689   3.991  0.2597  0.2423  0.4204
  177SAPS  H16R20214   3.028   0.662   3.951 -0.3352 -0.2007 -0.8487
  177SAPS  H16S20215   2.901   0.599   4.051 -1.0802  0.9424  0.9011
  177SAPS  C21720216   2.939   0.805   4.086  0.8854  0.5061 -0.4508
  177SAPS  H17R20217   2.968   0.893   4.024  1.2162  0.7031 -0.0178
  177SAPS  H17S20218   3.019   0.789   4.161 -0.8374  1.6157  1.7801
  177SAPS  C21820219   2.805   0.816   4.174 -0.5033 -0.7120 -0.3774
  177SAPS  H18R20220   2.780   0.716   4.215 -1.2522  0.2110  1.5275
  177SAPS  H18S20221   2.714   0.849   4.121 -1.7799  0.8661  2.5561
  177SAPS  C21920222   2.821   0.926   4.286  0.6049  0.7152 -0.2956
  177SAPS  H19R20223   2.861   1.018   4.239  0.3325  1.2662  0.5334
  177SAPS  H19S20224   2.892   0.880   4.358 -2.3373 -2.0962  1.0425
  177SAPS  C22020225   2.695   0.965   4.365 -0.1955  0.6228 -0.2740
  177SAPS  H20R20226   2.662   0.878   4.426  0.3056 -1.6880 -3.0793
  177SAPS  H20S20227   2.612   0.994   4.297 -0.7161 -2.3682 -1.0724
  177SAPS  H20T20228   2.726   1.052   4.427  1.6217  0.7664 -1.3218
  177SAPS   C3320229   2.641   0.331   3.213  0.3219 -0.2594 -0.3611
  177SAPS   H3X20230   2.688   0.232   3.196 -0.4254 -0.7448  0.3208
  177SAPS   H3Y20231   2.544   0.325   3.160  0.1420  1.7326 -0.3223
  177SAPS   C3420232   2.638   0.342   3.367 -0.5322 -0.1415 -0.4796
  177SAPS   H4X20233   2.733   0.334   3.424  0.0303 -3.0965 -1.6508
  177SAPS   H4Y20234   2.582   0.250   3.391  1.7275 -1.8896 -1.5671
  177SAPS   C3520235   2.565   0.465   3.421  0.1025 -0.6085 -0.8847
  177SAPS   H5X20236   2.470   0.481   3.367 -1.5512 -0.1848  1.9186
  177SAPS   H5Y20237   2.632   0.549   3.395  2.9862 -1.9534  1.5369
  177SAPS   C3620238   2.554   0.463   3.583  0.0958 -0.4449 -0.1141
  177SAPS   H6X20239   2.647   0.428   3.633 -0.8690 -0.7971  1.5029
  177SAPS   H6Y20240   2.473   0.389   3.603 -0.5333  0.7263  1.9000
  177SAPS   C3720241   2.509   0.595   3.652  0.5658  0.3264 -0.2815
  177SAPS   H7X20242   2.410   0.618   3.608 -0.3952  0.1248  1.6759
  177SAPS   H7Y20243   2.583   0.674   3.625  1.2968 -0.5639 -0.9643
  177SAPS   C3820244   2.475   0.571   3.796  0.0536 -0.7075  0.2859
  177SAPS   H8X20245   2.573   0.557   3.848  0.7716  0.5476 -0.6573
  177SAPS   H8Y20246   2.416   0.478   3.803 -1.4720  0.1985 -0.1338
  177SAPS   C3920247   2.392   0.687   3.856 -0.0584 -0.5408 -1.3951
  177SAPS   H9X20248   2.304   0.703   3.792 -0.7553  0.7134 -0.1745
  177SAPS   H9Y20249   2.454   0.779   3.850 -0.0513 -0.5624 -1.6565
  177SAPS  C31020250   2.348   0.656   3.994  0.1626  0.2348  0.2870
  177SAPS  H10X20251   2.441   0.649   4.056  0.7970 -1.2850 -0.7931
  177SAPS  H10Y20252   2.298   0.557   3.995  1.9714 -0.7235  0.9098
  177SAPS  C31120253   2.264   0.762   4.068  0.4296 -0.1321  0.6713
  177SAPS  H11X20254   2.164   0.731   4.029  2.1603 -1.4811 -3.1448
  177SAPS  H11Y20255   2.279   0.859   4.017 -0.1043 -0.1290  0.5108
  177SAPS  C31220256   2.264   0.774   4.219 -0.2095 -0.2965 -0.3600
  177SAPS  H12X20257   2.183   0.844   4.248  0.3845  0.5736 -0.7469
  177SAPS  H12Y20258   2.354   0.822   4.263  0.0652 -1.5359  0.5042
  177SAPS  C31320259   2.243   0.638   4.288 -0.6449  0.0349  0.2361
  177SAPS  H13X20260   2.319   0.572   4.241 -1.1416  0.3382 -1.0441
  177SAPS  H13Y20261   2.142   0.600   4.260 -1.6428  1.9680  1.0565
  177SAPS  C31420262   2.253   0.638   4.432  0.1360 -0.3736 -0.2440
  177SAPS  H14X20263   2.264   0.535   4.472 -0.1216  0.3624  1.8808
  177SAPS  H14Y20264   2.168   0.686   4.487  0.7034 -1.3593  1.5933
  177SAPS  C31520265   2.388   0.709   4.479  0.7787 -0.3795  0.5247
  177SAPS  H15X20266   2.373   0.819   4.470 -1.5078 -0.3190  3.6143
  177SAPS  H15Y20267   2.461   0.666   4.407 -2.5975 -2.8994 -1.7145
  177SAPS  C31620268   2.429   0.686   4.622 -0.7414  0.1391  0.2448
  177SAPS  H16X20269   2.450   0.578   4.642 -0.9135 -0.1422 -0.9950
  177SAPS  H16Y20270   2.338   0.709   4.682  0.7746 -0.8375  3.1581
  177SAPS  C31720271   2.524   0.787   4.686 -0.6794 -0.1398 -0.0569
  177SAPS  H17X20272   2.488   0.881   4.642 -1.2989 -0.1074  0.5002
  177SAPS  H17Y20273   2.631   0.767   4.666 -0.9445 -0.2789 -1.3846
  177SAPS  C31820274   2.502   0.782   4.841  1.2090 -0.4349 -0.1580
  177SAPS  H18X20275   2.394   0.787   4.867  1.1965  4.0269 -0.2072
  177SAPS  H18Y20276   2.564   0.859   4.892 -0.6103  1.8504 -1.1448
  177SAPS  H18Z20277   2.527   0.680   4.874 -2.0906 -1.6045 -0.8479
  178SAPS     N20278   2.297   1.798   2.799 -0.4847 -0.0395 -0.3561
  178SAPS   HN120279   2.255   1.817   2.892  2.5626  1.6948  0.8101
  178SAPS   HN220280   2.384   1.742   2.811  0.6487  1.1986 -2.1949
  178SAPS   HN320281   2.326   1.891   2.761 -1.9161  0.9776  0.9021
  178SAPS   C1220282   2.193   1.720   2.710 -0.1266 -0.2019 -0.0998
  178SAPS  H12A20283   2.092   1.760   2.707 -0.1768 -0.2790  0.4808
  178SAPS   C1320284   2.228   1.696   2.559 -0.2796  0.5137  0.2415
  178SAPS  O13A20285   2.333   1.754   2.516 -0.2821  0.3740  0.2511
  178SAPS  O13B20286   2.140   1.663   2.476  0.3090 -0.3339 -1.1564
  178SAPS   C1120287   2.191   1.573   2.759 -0.5729 -0.4192  0.1722
  178SAPS  H11A20288   2.284   1.516   2.739 -0.1915  0.2068  0.1320
  178SAPS  H11B20289   2.106   1.520   2.711 -1.3023  0.5328  0.4038
  178SAPS     P20290   2.001   1.605   2.954  0.4076  0.3220  0.0532
  178SAPS   O1320291   1.981   1.750   2.975  0.1814 -0.3739 -0.5518
  178SAPS   O1420292   1.898   1.542   2.864 -0.5377 -0.3287 -0.7589
  178SAPS   O1220293   2.155   1.574   2.900  0.5602 -0.3471 -0.0121
  178SAPS   O1120294   1.991   1.527   3.092 -0.4931 -0.7066  0.2633
  178SAPS    C120295   1.894   1.429   3.114 -0.1404  0.2647 -0.1608
  178SAPS    HA20296   1.792   1.474   3.108 -1.1544 -1.8522  0.4258
  178SAPS    HB20297   1.911   1.343   3.045 -2.7166 -1.0405  0.7073
  178SAPS    C220298   1.904   1.375   3.253  0.4287 -0.1178 -1.1249
  178SAPS    HS20299   1.817   1.305   3.263  0.6059 -0.3422 -1.1353
  178SAPS   O2120300   1.909   1.484   3.352  0.7067 -0.1969  0.2822
  178SAPS   C2120301   1.796   1.546   3.365 -0.3890  0.1745 -0.0419
  178SAPS   O2220302   1.692   1.528   3.306  0.1615  0.1534 -0.8542
  178SAPS   C2220303   1.819   1.642   3.480 -0.5823  0.3148 -0.1681
  178SAPS   H2R20304   1.924   1.659   3.510 -0.5054  0.7696 -0.6813
  178SAPS   H2S20305   1.777   1.738   3.445 -0.1348  0.9685  1.0670
  178SAPS    C320306   2.035   1.293   3.274 -0.3573  0.0725  0.0755
  178SAPS    HX20307   2.123   1.360   3.272  0.2926 -0.7559  0.4059
  178SAPS    HY20308   2.046   1.217   3.193 -2.8164 -1.0974  0.7476
  178SAPS   O3120309   2.035   1.227   3.403  0.5812  0.2954  0.0886
  178SAPS   C3120310   2.016   1.093   3.411  0.3887 -0.3512  1.1480
  178SAPS   O3220311   2.022   1.022   3.307  0.2746  0.1457 -0.0144
  178SAPS   C3220312   1.961   1.058   3.545  0.1307 -0.2329  0.2310
  178SAPS   H2X20313   1.948   0.947   3.545 -0.2309 -0.2118 -1.2290
  178SAPS   H2Y20314   1.866   1.111   3.564  1.8455  3.1688  0.0984
  178SAPS   C2320315   1.749   1.607   3.607  0.0558 -0.3540 -0.2893
  178SAPS   H3R20316   1.640   1.588   3.591 -0.6065  0.0855  2.9356
  178SAPS   H3S20317   1.746   1.702   3.664  0.4743 -0.3020 -0.3505
  178SAPS   C2420318   1.822   1.503   3.693 -0.1831  0.1975  0.3799
  178SAPS   H4R20319   1.842   1.422   3.620 -2.5887 -0.0972 -0.0400
  178SAPS   H4S20320   1.765   1.461   3.779  2.7704 -1.0987  1.8539
  178SAPS   C2520321   1.955   1.554   3.748 -0.1149 -0.2634 -0.1939
  178SAPS   H5R20322   2.045   1.529   3.689 -0.2450 -1.5186  0.1179
  178SAPS   C2620323   1.972   1.599   3.873 -0.0376 -0.4652 -0.4378
  178SAPS   H6R20324   2.064   1.652   3.902 -1.7709  2.1165  0.6992
  178SAPS   C2720325   1.874   1.612   3.988 -0.4552 -0.2728 -0.6977
  178SAPS   H7R20326   1.776   1.651   3.953 -1.1025 -1.0788  0.1582
  178SAPS   H7S20327   1.906   1.702   4.044 -0.2349  1.2997 -3.2051
  178SAPS   C2820328   1.860   1.488   4.082  0.4088  0.1876  0.0222
  178SAPS   H8R20329   1.815   1.405   4.026  0.8438  0.6848 -1.0901
  178SAPS   C2920330   1.881   1.475   4.212 -0.5405  0.0892 -0.7506
  178SAPS   H9R20331   1.871   1.378   4.263  0.0763 -0.6538 -1.9991
  178SAPS  C21020332   1.934   1.585   4.307  0.4436 -0.3141  0.8207
  178SAPS  H10R20333   2.009   1.647   4.253  0.5172 -0.2371  1.0105
  178SAPS  H10S20334   1.980   1.517   4.382  0.1721 -1.5844 -0.1319
  178SAPS  C21120335   1.832   1.678   4.362  0.1707 -0.2341  0.4848
  178SAPS  H11R20336   1.766   1.730   4.292  0.1639  0.1567  0.7789
  178SAPS  C21220337   1.819   1.694   4.493 -0.2134 -0.5203  0.3910
  178SAPS  H12R20338   1.738   1.757   4.534 -1.9026 -1.3230 -1.5311
  178SAPS  C21320339   1.916   1.638   4.595  0.0039 -0.1216 -0.2522
  178SAPS  H13R20340   1.924   1.715   4.675 -1.0590 -0.7485  0.4851
  178SAPS  H13S20341   2.019   1.622   4.557  0.1507  2.0846 -0.8718
  178SAPS  C21420342   1.875   1.503   4.653 -0.1197  0.1366  0.4965
  178SAPS  H14R20343   1.864   1.421   4.581  0.4095  0.1490  0.3950
  178SAPS  C21520344   1.863   1.478   4.788 -0.4228 -0.6763  0.1607
  178SAPS  H15R20345   1.852   1.374   4.820 -0.3719 -0.7163  0.0512
  178SAPS  C21620346   1.869   1.584   4.898 -0.6709 -0.1170 -0.4779
  178SAPS  H16R20347   1.783   1.654   4.890 -1.6540 -1.0690  1.1810
  178SAPS  H16S20348   1.961   1.644   4.882 -1.1370  1.2764  1.6814
  178SAPS  C21720349   1.855   1.542   5.044 -0.2198 -0.7601  0.3494
  178SAPS  H17R20350   1.937   1.472   5.073  0.3321  0.4554  1.9277
  178SAPS  H17S20351   1.755   1.495   5.054 -0.7480  0.2666 -0.0166
  178SAPS  C21820352   1.853   1.666   5.135  0.0455 -0.2865 -0.5435
  178SAPS  H18R20353   1.821   1.634   5.236 -1.2295  2.5217  0.0487
  178SAPS  H18S20354   1.775   1.731   5.090 -0.6728  0.0410  1.1064
  178SAPS  C21920355   1.993   1.741   5.147  0.1460 -0.9560  0.2709
  178SAPS  H19R20356   2.005   1.807   5.058  0.4972 -1.3932 -0.0127
  178SAPS  H19S20357   2.066   1.658   5.138 -0.1913 -1.2631  0.2980
  178SAPS  C22020358   2.006   1.822   5.266 -0.0458 -0.3921  0.2654
  178SAPS  H20R20359   1.995   1.757   5.355  1.2525  1.2644  1.7201
  178SAPS  H20S20360   1.920   1.893   5.260 -0.5429 -1.0843 -1.0172
  178SAPS  H20T20361   2.092   1.892   5.258  0.0978 -0.5106  0.7253
  178SAPS   C3320362   2.065   1.103   3.656  0.1513 -0.5646  0.0805
  178SAPS   H3X20363   2.094   1.208   3.638 -1.8236  0.0967  0.5090
  178SAPS   H3Y20364   2.151   1.033   3.656  0.3070 -0.3890  1.2743
  178SAPS   C3420365   2.012   1.111   3.796  1.3146  0.2390 -0.7689
  178SAPS   H4X20366   1.945   1.200   3.791  0.9134  0.0602  0.8247
  178SAPS   H4Y20367   2.087   1.146   3.871 -0.6875  3.4796 -0.0539
  178SAPS   C3520368   1.937   0.977   3.840  0.5817  0.2812  0.2500
  178SAPS   H5X20369   2.015   0.900   3.853 -0.0571 -0.5218 -0.5160
  178SAPS   H5Y20370   1.873   0.946   3.754  0.8337 -0.8090  0.4476
  178SAPS   C3620371   1.842   0.978   3.966 -1.1611  0.9274 -0.6846
  178SAPS   H6X20372   1.808   0.872   3.976 -2.3810  1.5187  3.9956
  178SAPS   H6Y20373   1.755   1.044   3.947 -2.1077 -0.8882 -3.3021
  178SAPS   C3720374   1.917   1.017   4.094 -0.4070 -0.6638 -0.0472
  178SAPS   H7X20375   1.964   1.116   4.076 -2.6699  0.8964  1.9546
  178SAPS   H7Y20376   1.999   0.942   4.098  0.6265  0.3178 -1.5771
  178SAPS   C3820377   1.830   1.012   4.218 -0.5502 -0.4451 -0.0015
  178SAPS   H8X20378   1.816   0.908   4.254  1.7204 -0.5655  0.6893
  178SAPS   H8Y20379   1.733   1.064   4.202  0.5989  2.2107  1.0699
  178SAPS   C3920380   1.891   1.083   4.342 -0.2921  1.2293 -0.0124
  178SAPS   H9X20381   1.818   1.111   4.421  0.2418  2.1138  0.1789
  178SAPS   H9Y20382   1.944   1.177   4.315  2.0578  0.2292  0.9315
  178SAPS  C31020383   1.984   0.986   4.424 -0.5643 -0.1979 -0.1568
  178SAPS  H10X20384   2.065   0.940   4.363  0.7065 -0.4996  1.6621
  178SAPS  H10Y20385   1.932   0.908   4.484 -0.0428  0.1130  0.7231
  178SAPS  C31120386   2.053   1.067   4.542  0.0679  0.0694  0.7496
  178SAPS  H11X20387   2.106   1.156   4.502 -0.3596  0.4125  0.9390
  178SAPS  H11Y20388   2.140   1.008   4.577  0.2711 -0.3516 -0.4419
  178SAPS  C31220389   1.973   1.091   4.671 -0.3984  0.0346  0.3967
  178SAPS  H12X20390   1.932   0.995   4.708 -2.7367  0.1926 -1.5428
  178SAPS  H12Y20391   1.879   1.148   4.652 -1.1575 -1.5487 -0.8268
  178SAPS  C31320392   2.043   1.162   4.790 -0.3990 -0.4419  0.4912
  178SAPS  H13X20393   1.976   1.141   4.876  0.4519  3.4832  2.3476
  178SAPS  H13Y20394   2.046   1.269   4.758 -0.4922 -0.5839  0.0059
  178SAPS  C31420395   2.184   1.109   4.819 -0.3649 -0.4895 -0.2870
  178SAPS  H14X20396   2.251   1.147   4.739 -0.2695  0.9344  0.4346
  178SAPS  H14Y20397   2.185   0.998   4.820 -1.1694 -0.5210 -0.9083
  178SAPS  C31520398   2.247   1.170   4.949  0.7223  0.1642 -0.0219
  178SAPS  H15X20399   2.179   1.144   5.033  0.7945 -0.5810 -0.1931
  178SAPS  H15Y20400   2.255   1.280   4.935  1.3877 -0.0044 -1.0917
  178SAPS  C31620401   2.390   1.109   4.970 -0.0098 -0.3186  0.0405
  178SAPS  H16X20402   2.456   1.114   4.881  1.0458 -0.7558  0.7794
  178SAPS  H16Y20403   2.379   1.001   4.992 -1.0312 -0.3913 -0.7282
  178SAPS  C31720404   2.465   1.168   5.092 -0.4148  0.5250 -0.2047
  178SAPS  H17X20405   2.562   1.114   5.095 -0.4791  0.3828 -0.6574
  178SAPS  H17Y20406   2.404   1.129   5.176  2.6328 -0.4978  1.6884
  178SAPS  C31820407   2.470   1.319   5.105 -0.3951 -0.2407  0.3534
  178SAPS  H18X20408   2.378   1.380   5.115  1.2327  2.0896  2.9438
  178SAPS  H18Y20409   2.515   1.366   5.016  2.6533 -2.2696  0.6684
  178SAPS  H18Z20410   2.530   1.353   5.193 -2.0920 -0.1148  1.5189
  179SAPS     N20411   6.288   5.026   2.239  0.6695 -0.5411  0.5871
  179SAPS   HN120412   6.189   5.053   2.226  1.0101  0.8087  0.6535
  179SAPS   HN220413   6.345   5.087   2.177  1.9720 -1.7492  0.5335
  179SAPS   HN320414   6.300   4.930   2.200 -0.4163  0.3218 -2.0373
  179SAPS   C1220415   6.316   5.041   2.378 -0.2312  0.7764  0.2253
  179SAPS  H12A20416   6.399   4.980   2.412  0.8710  2.7035  1.1743
  179SAPS   C1320417   6.377   5.177   2.415 -0.3088 -0.0195  0.4428
  179SAPS  O13A20418   6.405   5.252   2.317 -0.1838 -1.0887 -0.1941
  179SAPS  O13B20419   6.378   5.211   2.535 -0.6329  0.7433  0.0864
  179SAPS   C1120420   6.191   4.995   2.463  0.0848  1.1090  0.5608
  179SAPS  H11A20421   6.115   5.074   2.448  0.2197  0.7603 -2.6249
  179SAPS  H11B20422   6.223   5.016   2.568 -0.4547  0.4255  0.8707
  179SAPS     P20423   6.187   4.738   2.542 -0.3053 -0.0715 -0.1645
  179SAPS   O1320424   6.124   4.612   2.502  0.4307  0.1268  0.2053
  179SAPS   O1420425   6.336   4.731   2.558  0.1503 -0.3047  0.5619
  179SAPS   O1220426   6.151   4.856   2.440 -0.1540 -0.7539 -0.2307
  179SAPS   O1120427   6.125   4.787   2.687  0.6712  0.1617 -0.4108
  179SAPS    C120428   6.009   4.875   2.706 -0.3155  0.0071 -0.5811
  179SAPS    HA20429   6.052   4.971   2.742  0.1963 -0.1903 -0.6600
  179SAPS    HB20430   5.963   4.899   2.607  0.1666 -0.3934 -0.9047
  179SAPS    C220431   5.901   4.823   2.808  0.4582  0.6712 -0.1304
  179SAPS    HS20432   5.818   4.896   2.824 -4.1551 -4.5892  4.5846
  179SAPS   O2120433   5.947   4.800   2.940  0.0266 -0.2544 -0.9459
  179SAPS   C2120434   5.990   4.899   3.010 -0.0033 -0.6282  0.1783
  179SAPS   O2220435   5.975   5.018   2.974  0.0617  0.2510 -0.3338
  179SAPS   C2220436   6.058   4.847   3.137  0.0099 -0.5757  0.5508
  179SAPS   H2R20437   6.052   4.736   3.140 -0.8338 -0.5309  0.7395
  179SAPS   H2S20438   6.165   4.875   3.127 -0.9369  3.4806 -0.2312
  179SAPS    C320439   5.824   4.700   2.749  0.0648 -0.3911 -0.5729
  179SAPS    HX20440   5.896   4.617   2.736  1.9160  1.1340 -0.6254
  179SAPS    HY20441   5.795   4.725   2.644 -1.4221 -0.1307 -0.1197
  179SAPS   O3120442   5.702   4.660   2.831 -0.1180  0.1080  0.3771
  179SAPS   C3120443   5.593   4.732   2.804  0.5553 -0.3255  0.9422
  179SAPS   O3220444   5.584   4.829   2.731  0.1610 -0.2873 -0.2176
  179SAPS   C3220445   5.470   4.663   2.871  0.0350 -0.0655  0.4096
  179SAPS   H2X20446   5.499   4.589   2.949 -1.2630 -0.8098  0.2207
  179SAPS   H2Y20447   5.408   4.622   2.789 -1.2810  0.8810  0.8943
  179SAPS   C2320448   6.001   4.912   3.266 -0.3224 -0.9385 -1.0967
  179SAPS   H3R20449   5.901   4.871   3.290 -0.2002 -1.0623 -0.7973
  179SAPS   H3S20450   5.972   5.019   3.253 -0.6078 -0.8182  0.4067
  179SAPS   C2420451   6.090   4.902   3.391 -0.4000  1.0950  0.2734
  179SAPS   H4R20452   6.173   4.972   3.368 -0.1820  1.5821  2.3479
  179SAPS   H4S20453   6.143   4.806   3.404 -1.9523  0.1537 -0.0817
  179SAPS   C2520454   6.017   4.949   3.517  0.6916  0.1275  0.3267
  179SAPS   H5R20455   6.035   5.057   3.531  1.3380 -0.0967  1.3371
  179SAPS   C2620456   5.946   4.876   3.602 -0.3755  0.9481  0.7437
  179SAPS   H6R20457   5.918   4.930   3.693  0.1947 -0.3750  1.7384
  179SAPS   C2720458   5.916   4.727   3.592 -0.1521 -0.2679 -0.6139
  179SAPS   H7R20459   6.005   4.664   3.614 -0.1509 -1.3051 -3.2112
  179SAPS   H7S20460   5.907   4.709   3.482 -0.9425  1.1232 -0.7977
  179SAPS   C2820461   5.794   4.677   3.665  0.1066  0.3310  0.7189
  179SAPS   H8R20462   5.705   4.698   3.604  0.3039 -1.2884 -0.1594
  179SAPS   C2920463   5.783   4.615   3.789 -0.3040  0.0165  1.1028
  179SAPS   H9R20464   5.680   4.583   3.811  0.1291 -2.2238  0.1384
  179SAPS  C21020465   5.894   4.576   3.887  0.1248  0.5200 -0.2460
  179SAPS  H10R20466   5.980   4.557   3.819 -0.9845  3.1630 -2.5942
  179SAPS  H10S20467   5.859   4.479   3.927  2.5625 -0.4759 -0.3253
  179SAPS  C21120468   5.939   4.682   3.985  0.3794  0.0106  0.4488
  179SAPS  H11R20469   5.932   4.785   3.947 -0.3166 -0.4630 -0.7559
  179SAPS  C21220470   5.997   4.659   4.104  0.5205 -0.2706  0.7480
  179SAPS  H12R20471   6.036   4.740   4.167 -0.9715 -0.6726  2.2846
  179SAPS  C21320472   6.017   4.521   4.160  0.0727  0.6937 -0.4531
  179SAPS  H13R20473   6.104   4.476   4.108  0.2898  1.3728 -0.6897
  179SAPS  H13S20474   5.936   4.450   4.134 -0.6425  0.7360  1.4770
  179SAPS  C21420475   6.040   4.526   4.310  0.4975 -0.6837  0.6671
  179SAPS  H14R20476   5.960   4.577   4.366 -2.3007 -0.6332 -2.9827
  179SAPS  C21520477   6.146   4.473   4.389  0.7974  0.2066  0.8289
  179SAPS  H15R20478   6.137   4.493   4.496 -4.3992  0.0430  0.6521
  179SAPS  C21620479   6.256   4.392   4.347 -0.1414  0.0611 -0.4078
  179SAPS  H16R20480   6.249   4.391   4.236 -2.1673 -3.8667 -0.4518
  179SAPS  H16S20481   6.233   4.294   4.395  0.2645  0.7188  1.1793
  179SAPS  C21720482   6.390   4.430   4.409  0.2596 -0.1532  0.2347
  179SAPS  H17R20483   6.406   4.540   4.403 -0.3363  0.0865  2.4542
  179SAPS  H17S20484   6.464   4.376   4.346 -1.1295 -2.7736  0.7035
  179SAPS  C21820485   6.414   4.379   4.562  0.0295  0.5884  0.6043
  179SAPS  H18R20486   6.480   4.291   4.546 -0.1621  0.1698  2.0313
  179SAPS  H18S20487   6.319   4.349   4.611  0.3155 -0.1453  0.7098
  179SAPS  C21920488   6.489   4.490   4.647  0.4597  0.3259  0.8067
  179SAPS  H19R20489   6.422   4.578   4.638 -0.1707 -0.1937  0.2763
  179SAPS  H19S20490   6.583   4.496   4.589 -0.5265  0.2357 -0.8505
  179SAPS  C22020491   6.519   4.445   4.793  0.0854  0.4609  0.2905
  179SAPS  H20R20492   6.527   4.335   4.801 -1.7740  0.3346  0.6866
  179SAPS  H20S20493   6.446   4.472   4.872  0.5434  1.4100  0.4079
  179SAPS  H20T20494   6.623   4.465   4.829  0.8811  0.1671 -1.7377
  179SAPS   C3320495   5.391   4.775   2.954  0.2953 -0.0277 -0.4749
  179SAPS   H3X20496   5.388   4.870   2.897  1.4081 -0.1039 -0.6879
  179SAPS   H3Y20497   5.438   4.794   3.053 -1.8365 -0.7594  0.7255
  179SAPS   C3420498   5.246   4.745   2.986  0.5729  0.3204 -0.1280
  179SAPS   H4X20499   5.190   4.744   2.890  2.3131 -0.4367 -1.1963
  179SAPS   H4Y20500   5.216   4.844   3.028  1.1378  0.8518 -0.9433
  179SAPS   C3520501   5.219   4.625   3.070  0.3018 -0.1790 -0.0631
  179SAPS   H5X20502   5.283   4.626   3.160  1.0511  1.2354 -0.5869
  179SAPS   H5Y20503   5.244   4.533   3.013 -0.6445  0.2491 -1.2295
  179SAPS   C3620504   5.070   4.624   3.096 -0.0670 -0.6133  0.8366
  179SAPS   H6X20505   5.044   4.517   3.079  1.1130 -0.6310 -1.1400
  179SAPS   H6Y20506   5.014   4.689   3.025 -1.2199  0.1407  2.3708
  179SAPS   C3720507   5.031   4.662   3.236 -0.4818  0.3683  0.1295
  179SAPS   H7X20508   5.028   4.773   3.238 -0.8964  0.3956 -1.3230
  179SAPS   H7Y20509   5.106   4.613   3.302  1.6475  1.9841 -0.9613
  179SAPS   C3820510   4.899   4.604   3.277 -0.1463  0.1979 -0.2489
  179SAPS   H8X20511   4.906   4.493   3.275 -1.9259  0.0483  0.4397
  179SAPS   H8Y20512   4.819   4.637   3.207  0.7930  0.5385 -1.1898
  179SAPS   C3920513   4.864   4.638   3.415  0.6621  0.4589 -0.0552
  179SAPS   H9X20514   4.852   4.748   3.426  0.5194  0.5475 -0.9976
  179SAPS   H9Y20515   4.951   4.605   3.477  1.8535  4.5670  0.7381
  179SAPS  C31020516   4.735   4.561   3.456  0.7584 -0.5584  0.0726
  179SAPS  H10X20517   4.754   4.452   3.461  0.3505 -0.7210 -1.3560
  179SAPS  H10Y20518   4.653   4.577   3.383  1.1688  1.2193 -0.0564
  179SAPS  C31120519   4.690   4.612   3.590 -0.2308  0.5829  0.0673
  179SAPS  H11X20520   4.591   4.576   3.625  0.0841 -2.4324 -1.7116
  179SAPS  H11Y20521   4.684   4.723   3.587 -0.3365  0.6324  1.2856
  179SAPS  C31220522   4.784   4.567   3.707 -0.3985 -0.3439 -0.1498
  179SAPS  H12X20523   4.873   4.633   3.714 -0.4138 -0.4661  1.7821
  179SAPS  H12Y20524   4.830   4.468   3.686  0.4464  0.1716 -0.7977
  179SAPS  C31320525   4.716   4.564   3.832 -0.4528 -0.5100 -0.2919
  179SAPS  H13X20526   4.794   4.551   3.910  1.1643  1.7012 -1.4153
  179SAPS  H13Y20527   4.634   4.490   3.828 -0.5754 -0.3137 -2.8144
  179SAPS  C31420528   4.658   4.695   3.884  0.4890 -0.4857  0.2814
  179SAPS  H14X20529   4.563   4.732   3.839  0.4230 -1.6823 -0.6128
  179SAPS  H14Y20530   4.729   4.779   3.878  2.2173 -1.9156 -0.1817
  179SAPS  C31520531   4.634   4.682   4.030 -0.2478  0.1133 -0.0323
  179SAPS  H15X20532   4.614   4.786   4.063  1.5472  0.9436 -1.3853
  179SAPS  H15Y20533   4.718   4.624   4.075  2.7861  1.8069 -3.0535
  179SAPS  C31620534   4.501   4.612   4.052 -0.1281  0.2118  0.3235
  179SAPS  H16X20535   4.513   4.510   4.009 -0.2212 -0.3012  1.4847
  179SAPS  H16Y20536   4.422   4.661   3.991 -2.2469 -1.0264  1.9049
  179SAPS  C31720537   4.473   4.599   4.197  0.5903  0.3709  0.2237
  179SAPS  H17X20538   4.492   4.697   4.248  1.2541  0.0027  0.6971
  179SAPS  H17Y20539   4.556   4.536   4.235  1.4096  1.3670  0.1309
  179SAPS  C31820540   4.341   4.542   4.236 -0.0761 -0.5172 -0.7413
  179SAPS  H18X20541   4.254   4.611   4.240  0.6685  0.4388 -0.8899
  179SAPS  H18Y20542   4.354   4.504   4.340 -0.6591  0.4021 -0.3201
  179SAPS  H18Z20543   4.317   4.452   4.175  0.5907 -1.0137 -0.2791
  180SAPS     N20544   4.760   3.902   2.278  0.4463  0.6460  0.8240
  180SAPS   HN120545   4.664   3.899   2.318  1.5968  0.6698  3.8124
  180SAPS   HN220546   4.768   4.005   2.266 -1.0022  0.7483  0.4979
  180SAPS   HN320547   4.772   3.841   2.194  3.5089  0.1366  1.5250
  180SAPS   C1220548   4.863   3.867   2.381 -0.0675  0.6075 -0.4635
  180SAPS  H12A20549   4.858   3.759   2.384 -1.1586  0.5714 -1.9265
  180SAPS   C1320550   5.009   3.897   2.332  0.2038  0.1727 -0.0588
  180SAPS  O13A20551   5.030   3.922   2.207 -0.0197 -0.3368 -0.0083
  180SAPS  O13B20552   5.103   3.884   2.415 -0.5449 -0.1684  0.0493
  180SAPS   C1120553   4.826   3.924   2.513 -0.5388  0.2667  0.0322
  180SAPS  H11A20554   4.860   4.030   2.511 -1.2461  0.4965 -1.6252
  180SAPS  H11B20555   4.896   3.876   2.584 -1.3455  0.7854  1.2036
  180SAPS     P20556   4.634   3.786   2.632 -0.1064  0.0205  0.0762
  180SAPS   O1320557   4.493   3.791   2.682 -0.2531  0.3319  0.0591
  180SAPS   O1420558   4.676   3.665   2.562  0.1526 -0.3944 -0.1178
  180SAPS   O1220559   4.684   3.911   2.543  0.6818 -0.0037  0.2307
  180SAPS   O1120560   4.734   3.797   2.762  0.8287  0.7781  0.0601
  180SAPS    C120561   4.687   3.829   2.895 -0.2770 -0.1790  0.7199
  180SAPS    HA20562   4.600   3.778   2.943  0.5214 -0.0108  2.4091
  180SAPS    HB20563   4.776   3.804   2.955  1.3424  0.1148 -1.4264
  180SAPS    C220564   4.656   3.980   2.930  0.0468  0.0505  0.4357
  180SAPS    HS20565   4.556   4.004   2.886  0.7836  0.4250 -1.1047
  180SAPS   O2120566   4.756   4.064   2.867 -0.1004  0.5444 -0.0925
  180SAPS   C2120567   4.715   4.188   2.846 -0.2941  0.1362 -0.6299
  180SAPS   O2220568   4.604   4.227   2.874  0.6337 -0.3194 -0.3507
  180SAPS   C2220569   4.820   4.292   2.791 -0.6808 -0.0707  0.3048
  180SAPS   H2R20570   4.904   4.297   2.863 -0.5499 -0.8028  0.2081
  180SAPS   H2S20571   4.845   4.247   2.693  1.5650 -1.9258  1.6362
  180SAPS    C320572   4.648   4.015   3.081 -0.3383 -0.2297 -0.0702
  180SAPS    HX20573   4.583   3.939   3.128 -0.1530  0.3603  1.2031
  180SAPS    HY20574   4.596   4.113   3.093 -1.1582 -0.8240  1.5030
  180SAPS   O3120575   4.776   4.013   3.154  0.5462  0.1964  0.9523
  180SAPS   C3120576   4.829   4.133   3.182 -0.2634 -0.2345 -0.3238
  180SAPS   O3220577   4.777   4.239   3.205 -0.1985  0.4489 -0.3080
  180SAPS   C3220578   4.980   4.111   3.204  0.4795  0.4348  0.0709
  180SAPS   H2X20579   5.032   4.109   3.106 -0.5105 -0.6864 -0.4551
  180SAPS   H2Y20580   5.002   4.010   3.243 -1.4953 -0.7134 -1.5589
  180SAPS   C2320581   4.776   4.440   2.762 -0.3536  0.1249 -0.5047
  180SAPS   H3R20582   4.680   4.441   2.706 -0.3422  1.1755 -0.5195
  180SAPS   H3S20583   4.839   4.487   2.682  0.3456 -0.3046 -0.2166
  180SAPS   C2420584   4.759   4.519   2.893 -0.3847  0.3253  0.0845
  180SAPS   H4R20585   4.849   4.503   2.957 -1.7515  0.0173  2.0079
  180SAPS   H4S20586   4.684   4.469   2.958  1.5135 -1.2088  1.2059
  180SAPS   C2520587   4.730   4.671   2.868  0.0311 -0.1041 -0.2789
  180SAPS   H5R20588   4.801   4.717   2.798  0.5416  0.7688  0.7853
  180SAPS   C2620589   4.638   4.753   2.922  0.0580 -0.1636 -0.1178
  180SAPS   H6R20590   4.640   4.851   2.872 -2.4620 -0.0373 -0.1044
  180SAPS   C2720591   4.525   4.724   3.026  0.2526  0.1061  0.0384
  180SAPS   H7R20592   4.575   4.730   3.125  2.5661 -0.0744 -1.0429
  180SAPS   H7S20593   4.501   4.616   3.030  2.2009 -0.3316  1.0846
  180SAPS   C2820594   4.399   4.804   3.025 -0.2183  0.3833 -0.1359
  180SAPS   H8R20595   4.409   4.892   2.959  3.9776  2.2154  2.5101
  180SAPS   C2920596   4.281   4.771   3.093 -0.1672  0.2377 -0.1522
  180SAPS   H9R20597   4.190   4.830   3.077  0.3504  0.6612 -1.7529
  180SAPS  C21020598   4.272   4.649   3.184  1.0030  0.4037 -0.1451
  180SAPS  H10R20599   4.370   4.610   3.220 -0.0428 -2.0373  0.2852
  180SAPS  H10S20600   4.215   4.564   3.139 -0.7946  1.6564 -0.3574
  180SAPS  C21120601   4.196   4.679   3.309  0.0586  0.4575  0.2683
  180SAPS  H11R20602   4.091   4.645   3.309 -0.1336  0.9739 -1.2770
  180SAPS  C21220603   4.248   4.743   3.414 -0.7514  0.4463 -0.7374
  180SAPS  H12R20604   4.200   4.742   3.512  0.4777  0.2740 -0.1197
  180SAPS  C21320605   4.390   4.800   3.427 -0.1735 -0.2988 -0.2136
  180SAPS  H13R20606   4.454   4.790   3.336  0.6753  1.6322  0.1239
  180SAPS  H13S20607   4.434   4.738   3.508  1.1742  2.9966  1.7883
  180SAPS  C21420608   4.391   4.947   3.457  1.1682  0.2306 -0.6370
  180SAPS  H14R20609   4.350   5.012   3.379  1.8928  2.2154  0.5502
  180SAPS  C21520610   4.426   5.006   3.569 -0.8505 -0.6766  0.5446
  180SAPS  H15R20611   4.438   5.114   3.580  0.6625 -0.6415 -1.0086
  180SAPS  C21620612   4.483   4.946   3.692  0.7017  0.3772 -0.7130
  180SAPS  H16R20613   4.586   4.916   3.663  0.4731 -1.6959  0.4347
  180SAPS  H16S20614   4.428   4.851   3.707  1.7364  0.0296  1.0983
  180SAPS  C21720615   4.468   5.028   3.820  0.1666  0.7518  0.2099
  180SAPS  H17R20616   4.530   5.119   3.809 -0.2932  1.5885  3.4589
  180SAPS  H17S20617   4.515   4.969   3.902 -0.2405  0.8583  0.5287
  180SAPS  C21820618   4.327   5.049   3.874  0.1277  0.6361  0.2286
  180SAPS  H18R20619   4.276   4.950   3.880  0.2064  0.6804  3.8294
  180SAPS  H18S20620   4.279   5.112   3.796 -0.3184  0.8683  0.6905
  180SAPS  C21920621   4.308   5.116   4.011  0.1341  0.2137  0.0272
  180SAPS  H19R20622   4.208   5.162   4.001  0.2213  0.5215  0.5111
  180SAPS  H19S20623   4.377   5.202   4.027 -0.6847  1.1947 -1.4764
  180SAPS  C22020624   4.322   5.020   4.131  0.6362 -0.0269  0.3234
  180SAPS  H20R20625   4.234   4.954   4.140 -1.1946  2.2551 -0.0034
  180SAPS  H20S20626   4.414   4.957   4.125 -0.0200 -0.9434 -0.2425
  180SAPS  H20T20627   4.329   5.073   4.229 -1.3624 -0.9844  1.0295
  180SAPS   C3320628   5.054   4.226   3.280 -0.1005 -0.1203 -0.3274
  180SAPS   H3X20629   4.997   4.254   3.371 -0.2216 -1.0195 -0.1163
  180SAPS   H3Y20630   5.054   4.322   3.224 -0.1569  0.0902  0.0323
  180SAPS   C3420631   5.193   4.184   3.330 -0.3414 -0.9279 -1.0026
  180SAPS   H4X20632   5.241   4.114   3.258  2.7158 -1.7912  1.6204
  180SAPS   H4Y20633   5.185   4.132   3.428  1.4727  0.3595 -0.0971
  180SAPS   C3520634   5.283   4.309   3.355 -0.5034  0.0658 -0.7002
  180SAPS   H5X20635   5.264   4.382   3.273 -0.5166 -0.1970 -0.9316
  180SAPS   H5Y20636   5.391   4.287   3.340  0.2199  1.8858  1.3523
  180SAPS   C3620637   5.259   4.367   3.493  1.3265 -0.3556  0.6467
  180SAPS   H6X20638   5.296   4.300   3.573  1.1694  0.3814  1.3525
  180SAPS   H6Y20639   5.151   4.375   3.518  1.1958 -0.4260  0.1189
  180SAPS   C3720640   5.340   4.492   3.523  0.2343  0.0184 -0.3522
  180SAPS   H7X20641   5.320   4.581   3.459 -1.1490 -1.4646 -2.1070
  180SAPS   H7Y20642   5.443   4.468   3.490 -0.6940 -1.2346 -2.5292
  180SAPS   C3820643   5.359   4.526   3.670 -0.1356  0.6765  0.2110
  180SAPS   H8X20644   5.450   4.588   3.689 -1.5616  3.2314 -0.7701
  180SAPS   H8Y20645   5.377   4.434   3.729 -0.3135  1.1091  0.9694
  180SAPS   C3920646   5.238   4.598   3.738  0.0807  0.0758  0.4049
  180SAPS   H9X20647   5.140   4.549   3.717  0.4934 -0.8064  0.5056
  180SAPS   H9Y20648   5.233   4.703   3.702 -0.1223 -0.3703 -0.9347
  180SAPS  C31020649   5.254   4.589   3.894 -0.3355 -0.3556  0.4982
  180SAPS  H10X20650   5.259   4.486   3.933  0.0668  0.0235  1.4947
  180SAPS  H10Y20651   5.171   4.649   3.938 -1.9521 -0.9357 -1.5951
  180SAPS  C31120652   5.389   4.641   3.947 -0.7649 -0.0591 -0.1305
  180SAPS  H11X20653   5.425   4.738   3.908 -1.7820  0.3446 -0.0916
  180SAPS  H11Y20654   5.469   4.566   3.925 -1.5615 -0.4536 -1.8856
  180SAPS  C31220655   5.380   4.644   4.101 -0.3789 -0.3527  0.0090
  180SAPS  H12X20656   5.326   4.553   4.136 -1.2716  0.3389  0.4556
  180SAPS  H12Y20657   5.341   4.741   4.137  1.3661  0.3742 -0.0068
  180SAPS  C31320658   5.521   4.642   4.168  0.8293  0.5819  0.4341
  180SAPS  H13X20659   5.599   4.702   4.116  0.2637  0.8796 -0.0737
  180SAPS  H13Y20660   5.555   4.538   4.150 -0.7467  0.1121  0.0300
  180SAPS  C31420661   5.514   4.677   4.317  0.4503  0.0652 -0.9626
  180SAPS  H14X20662   5.478   4.589   4.374  1.4703  0.2247 -0.0283
  180SAPS  H14Y20663   5.447   4.762   4.344  0.7383  0.1003 -0.3400
  180SAPS  C31520664   5.652   4.705   4.381 -0.1294 -0.3529  0.2117
  180SAPS  H15X20665   5.722   4.622   4.356 -0.6965 -0.8278  0.1704
  180SAPS  H15Y20666   5.648   4.711   4.491 -2.9167 -2.2225  0.3285
  180SAPS  C31620667   5.709   4.843   4.329  0.7771 -0.0551 -0.0125
  180SAPS  H16X20668   5.624   4.912   4.313 -0.4882 -1.3379  0.9102
  180SAPS  H16Y20669   5.765   4.829   4.234  2.5108 -3.0077  1.3127
  180SAPS  C31720670   5.799   4.904   4.439 -0.8691 -0.0687 -0.2150
  180SAPS  H17X20671   5.884   4.832   4.447 -0.8904 -0.3255 -1.9742
  180SAPS  H17Y20672   5.742   4.916   4.534  1.2779 -2.1135  1.4621
  180SAPS  C31820673   5.846   5.047   4.413  0.3845 -0.2141 -0.0953
  180SAPS  H18X20674   5.924   5.076   4.486 -0.6200 -0.1944  1.0012
  180SAPS  H18Y20675   5.759   5.117   4.419  0.3435 -0.1046 -1.6324
  180SAPS  H18Z20676   5.877   5.054   4.307  0.2121 -0.9315 -0.1949
  181POPC     N20677   4.349   2.789   6.913  0.1420  0.0556 -0.2920
  181POPC   C1220678   4.460   2.787   7.014 -0.8693  0.4073  0.1192
  181POPC  H12A20679   4.428   2.842   7.101  0.8394  1.8232 -0.1036
  181POPC  H12B20680   4.532   2.856   6.975  0.7243 -2.4167 -2.3483
  181POPC   C1320681   4.228   2.719   6.972  0.8009 -0.6495  0.5773
  181POPC  H13A20682   4.188   2.774   7.056 -0.2437 -0.3974 -0.0664
  181POPC  H13B20683   4.144   2.729   6.905 -0.3157 -0.2051  1.9870
  181POPC  H13C20684   4.236   2.614   6.996 -0.6761 -0.7766  0.6109
  181POPC   C1420685   4.316   2.935   6.898  0.3024 -0.2814  0.2327
  181POPC  H14A20686   4.250   2.972   6.975 -0.8402  0.6809 -1.1430
  181POPC  H14B20687   4.404   2.997   6.890  0.8387 -0.9021  1.2438
  181POPC  H14C20688   4.261   2.940   6.805  0.0930  1.0373  0.4028
  181POPC   C1520689   4.391   2.738   6.779  0.5266 -0.2932  0.1700
  181POPC  H15A20690   4.301   2.711   6.726 -1.2191  0.8967  2.3446
  181POPC  H15B20691   4.454   2.652   6.798  0.9569  0.2504  1.2637
  181POPC  H15C20692   4.440   2.805   6.709 -1.6701  0.4458 -0.7510
  181POPC   C1120693   4.533   2.656   7.061  0.5636 -0.0491  0.2546
  181POPC  H11A20694   4.600   2.685   7.145  1.5312 -0.2580 -0.4268
  181POPC  H11B20695   4.592   2.617   6.976 -0.6342 -0.7253 -0.2929
  181POPC     P20696   4.482   2.425   7.150 -0.4566 -0.3233 -0.3189
  181POPC   O1320697   4.364   2.336   7.149 -0.2885  0.8098  0.4517
  181POPC   O1420698   4.553   2.445   7.279  0.1814  1.0189 -0.0710
  181POPC   O1220699   4.434   2.563   7.093  0.3364  0.1689  0.1927
  181POPC   O1120700   4.599   2.376   7.055 -0.0286  0.4098  0.4386
  181POPC    C120701   4.570   2.355   6.919 -0.3558  0.3734  0.3549
  181POPC    HA20702   4.552   2.451   6.865  0.7218  0.2029 -0.3460
  181POPC    HB20703   4.485   2.284   6.912  1.2191 -1.4855 -1.3980
  181POPC    C220704   4.685   2.267   6.850  0.5042  0.0693 -0.2190
  181POPC    HS20705   4.731   2.212   6.935  0.1562 -0.8789 -0.6355
  181POPC   O2120706   4.783   2.356   6.791  0.0546  0.6261  0.0762
  181POPC   C2120707   4.898   2.300   6.762  0.9067 -0.4061  0.3466
  181POPC   O2220708   4.929   2.181   6.788 -0.1257 -0.2819 -0.5010
  181POPC   C2220709   4.995   2.392   6.686 -0.0788  0.4713 -0.8645
  181POPC   H2R20710   5.015   2.471   6.762  1.2074 -0.8329  0.2210
  181POPC   H2S20711   4.941   2.431   6.598 -0.3443 -1.3723 -1.5644
  181POPC    C320712   4.629   2.170   6.742  0.0739  0.3439  0.2399
  181POPC    HX20713   4.570   2.094   6.798 -0.4105  0.7130  0.2369
  181POPC    HY20714   4.712   2.119   6.689 -1.7639 -1.8035 -0.7600
  181POPC   O3120715   4.543   2.249   6.651  0.4076 -0.3463  0.0311
  181POPC   C3120716   4.585   2.288   6.535 -0.1589  0.2336  0.7036
  181POPC   O3220717   4.695   2.259   6.485  0.0909 -0.6456  0.2808
  181POPC   C3220718   4.493   2.398   6.470 -0.8521 -0.2183  0.3268
  181POPC   H2X20719   4.555   2.488   6.489  2.9802 -3.1463  3.6711
  181POPC   H2Y20720   4.391   2.393   6.512 -0.6548 -1.9750  0.6895
  181POPC   C2320721   5.126   2.317   6.649 -0.1839 -0.4691  0.7201
  181POPC   H3R20722   5.164   2.266   6.740  1.7418 -0.2354  0.0761
  181POPC   H3S20723   5.199   2.398   6.627  1.1950 -1.9530 -0.3742
  181POPC   C2420724   5.121   2.224   6.521  0.0961 -0.4659 -0.2815
  181POPC   H4R20725   5.019   2.190   6.496 -0.0849 -1.4800  1.7157
  181POPC   H4S20726   5.176   2.131   6.545 -1.5356 -1.2392  0.6356
  181POPC   C2520727   5.190   2.276   6.399 -0.0306  0.7242 -0.2568
  181POPC   H5R20728   5.271   2.335   6.447 -0.4705 -0.3796  1.9739
  181POPC   H5S20729   5.130   2.358   6.354 -2.9276 -1.6997 -1.1434
  181POPC   C2620730   5.249   2.175   6.302  0.2682  0.1999 -0.4252
  181POPC   H6R20731   5.158   2.140   6.248 -0.1257 -0.5961  0.7068
  181POPC   H6S20732   5.290   2.091   6.362 -2.1920  0.7933  2.3563
  181POPC   C2720733   5.354   2.241   6.208  0.5159 -0.2883 -0.4384
  181POPC   H7R20734   5.451   2.258   6.260 -0.3592 -1.1639  1.6027
  181POPC   H7S20735   5.322   2.345   6.187  2.6951  0.6510  0.5711
  181POPC   C2820736   5.374   2.173   6.075 -0.5856  0.0379 -0.0560
  181POPC   H8R20737   5.418   2.071   6.077 -0.2253  0.1844 -0.3329
  181POPC   H8S20738   5.450   2.234   6.022 -0.9162  1.8477  1.4433
  181POPC   C2920739   5.245   2.163   5.999  0.0174  0.4813  0.1088
  181POPC   H9120740   5.156   2.140   6.060 -0.0493 -3.7657 -1.2229
  181POPC  C21020741   5.229   2.166   5.869  0.1573 -0.8972 -0.0552
  181POPC  H10120742   5.125   2.174   5.834  0.3206 -2.5339 -1.0195
  181POPC  C21120743   5.346   2.190   5.778 -0.2015 -0.2781 -0.1523
  181POPC  H11R20744   5.392   2.093   5.749  1.4318 -0.0779  1.5653
  181POPC  H11S20745   5.429   2.255   5.815  0.0202  0.0150 -1.1469
  181POPC  C21220746   5.295   2.265   5.643  0.3548  0.5968  0.2201
  181POPC  H12R20747   5.247   2.360   5.674 -3.0375  0.0471 -2.6044
  181POPC  H12S20748   5.220   2.206   5.585  1.8671 -1.0939 -0.1055
  181POPC  C21320749   5.408   2.302   5.542 -0.1956  0.2549 -0.3533
  181POPC  H13R20750   5.482   2.220   5.552 -2.3195 -1.6885  0.0967
  181POPC  H13S20751   5.433   2.403   5.581  1.2498 -1.0817  2.4781
  181POPC  C21420752   5.361   2.327   5.398  0.6387 -0.0410 -0.1077
  181POPC  H14R20753   5.288   2.410   5.408  0.4098 -0.2522 -0.0310
  181POPC  H14S20754   5.312   2.233   5.365  3.3286 -1.5934 -0.0315
  181POPC  C21520755   5.455   2.349   5.287  0.1288  0.1239 -1.1392
  181POPC  H15R20756   5.550   2.292   5.295 -0.5464 -0.9039 -0.2065
  181POPC  H15S20757   5.473   2.458   5.300 -1.9832  0.3911  0.1307
  181POPC  C21620758   5.390   2.328   5.148  0.8143  0.0034 -0.7005
  181POPC  H16R20759   5.316   2.410   5.136  2.1128  1.3910  0.2121
  181POPC  H16S20760   5.351   2.224   5.151  1.9891 -0.4405  0.4736
  181POPC  C21720761   5.499   2.320   5.038 -0.2458  0.5253  0.2950
  181POPC  H17R20762   5.568   2.238   5.068  0.1027 -0.0742 -1.9839
  181POPC  H17S20763   5.560   2.413   5.033 -0.2453  0.4984 -0.2852
  181POPC  C21820764   5.462   2.272   4.901 -0.0718  0.1826 -0.5764
  181POPC  H18R20765   5.426   2.167   4.896 -1.0932  0.5526 -1.2688
  181POPC  H18S20766   5.550   2.280   4.833  0.5757  0.8444  0.3184
  181POPC  H18T20767   5.385   2.338   4.855 -2.5911 -1.0275  1.6487
  181POPC   C3320768   4.472   2.368   6.321 -1.0199 -0.3615  0.1350
  181POPC   H3X20769   4.431   2.268   6.294 -1.4131 -0.1111 -0.2109
  181POPC   H3Y20770   4.572   2.383   6.275 -1.4720 -0.1933 -0.8308
  181POPC   C3420771   4.381   2.481   6.258  0.0971 -0.2063 -0.5114
  181POPC   H4X20772   4.428   2.575   6.294 -2.1802  1.2593 -1.1108
  181POPC   H4Y20773   4.275   2.470   6.289 -0.3203 -2.7420 -2.4497
  181POPC   C3520774   4.399   2.503   6.104 -0.1099 -0.4370 -0.1292
  181POPC   H5X20775   4.508   2.515   6.089 -0.8142  4.1824 -4.0302
  181POPC   H5Y20776   4.355   2.600   6.075  1.0819  1.4202  3.5887
  181POPC   C3620777   4.352   2.394   6.011  0.6905 -0.0125  0.6786
  181POPC   H6X20778   4.244   2.375   6.027  0.4282  0.6398 -0.2696
  181POPC   H6Y20779   4.397   2.297   6.041 -2.0380 -1.6735 -0.2633
  181POPC   C3720780   4.388   2.415   5.860  0.0669  0.0968  0.4681
  181POPC   H7X20781   4.497   2.426   5.847 -0.1482  1.0942 -0.6656
  181POPC   H7Y20782   4.342   2.514   5.837 -2.2528 -1.1108 -0.5039
  181POPC   C3820783   4.327   2.315   5.759  0.3930  0.6448 -0.6136
  181POPC   H8X20784   4.220   2.340   5.745 -0.1315 -0.4334  1.1122
  181POPC   H8Y20785   4.343   2.213   5.801  0.2263  0.1020 -1.8409
  181POPC   C3920786   4.390   2.324   5.623 -1.1445  0.3711 -0.6321
  181POPC   H9X20787   4.498   2.304   5.631 -1.0016  0.7326 -1.4723
  181POPC   H9Y20788   4.387   2.428   5.584 -1.9229  0.4572 -0.3679
  181POPC  C31020789   4.332   2.231   5.515  0.7835  0.0789  0.6482
  181POPC  H10X20790   4.306   2.126   5.535 -0.8887 -0.1899 -2.3108
  181POPC  H10Y20791   4.411   2.213   5.438 -2.7111 -2.4306 -2.7363
  181POPC  C31120792   4.208   2.288   5.442 -0.1916  0.2816  0.0595
  181POPC  H11X20793   4.229   2.391   5.405 -2.6183  0.6276 -0.5264
  181POPC  H11Y20794   4.140   2.319   5.524  0.6984  0.7021  0.6556
  181POPC  C31220795   4.154   2.203   5.326  0.2920  0.0364  0.1172
  181POPC  H12X20796   4.049   2.238   5.316  1.1788  2.4063 -2.4237
  181POPC  H12Y20797   4.146   2.100   5.366  2.7267  0.0334  0.7676
  181POPC  C31320798   4.230   2.227   5.198 -0.1825 -0.6485 -0.6408
  181POPC  H13X20799   4.335   2.192   5.192  0.2076  0.6689 -2.4813
  181POPC  H13Y20800   4.235   2.338   5.197 -1.2050 -0.5198  1.5020
  181POPC  C31420801   4.147   2.182   5.076 -0.0651  0.2851  0.0165
  181POPC  H14X20802   4.047   2.227   5.089 -2.1997 -3.6285 -1.2850
  181POPC  H14Y20803   4.146   2.071   5.084  0.4600  0.2655 -0.1275
  181POPC  C31520804   4.210   2.223   4.940  0.1014 -0.4864 -0.4150
  181POPC  H15X20805   4.208   2.333   4.933  2.2800 -0.2830  1.1417
  181POPC  H15Y20806   4.140   2.189   4.861  0.4209  0.2672 -1.0345
  181POPC  C31620807   4.346   2.169   4.905 -0.0628 -0.0618 -0.4436
  181POPC  H16X20808   4.376   2.179   4.798 -0.7675 -0.6093 -0.6992
  181POPC  H16Y20809   4.365   2.062   4.932  2.3491  0.6257  0.9242
  181POPC  H16Z20810   4.421   2.224   4.966 -0.3334  0.6224 -0.7271
  182POPC     N20811   3.190   5.145   6.706 -0.5009  0.0635 -0.1521
  182POPC   C1220812   3.047   5.144   6.733 -0.0470  0.5594  0.0072
  182POPC  H12A20813   3.041   5.115   6.837  1.4741 -0.6971 -0.2209
  182POPC  H12B20814   3.022   5.062   6.667  1.9524 -0.2935  0.2465
  182POPC   C1320815   3.221   5.159   6.557 -0.6175 -0.3213 -0.1479
  182POPC  H13A20816   3.152   5.095   6.505 -3.2217  1.6274  0.7399
  182POPC  H13B20817   3.224   5.264   6.533  2.6638  0.4929  2.7822
  182POPC  H13C20818   3.324   5.130   6.540 -0.8544 -0.1010 -2.2195
  182POPC   C1420819   3.263   5.252   6.781 -0.0417 -0.0370 -0.3965
  182POPC  H14A20820   3.226   5.350   6.755  2.5283  1.3428  0.7487
  182POPC  H14B20821   3.241   5.251   6.887  0.9075  0.5466 -0.1765
  182POPC  H14C20822   3.368   5.263   6.760  0.0745  0.3663  0.3687
  182POPC   C1520823   3.250   5.017   6.743 -0.2944  1.1015 -0.1450
  182POPC  H15A20824   3.237   5.010   6.850  1.5921 -0.0266  0.0626
  182POPC  H15B20825   3.355   5.009   6.717 -0.5773 -1.2982 -0.8504
  182POPC  H15C20826   3.196   4.933   6.701  1.3569  0.0933 -0.3740
  182POPC   C1120827   2.956   5.268   6.708  0.0051 -0.1155  0.3547
  182POPC  H11A20828   2.851   5.240   6.729 -0.7122  0.7726 -1.7254
  182POPC  H11B20829   2.968   5.285   6.599  1.5008 -0.6520  0.4192
  182POPC     P20830   2.995   5.530   6.748 -0.4210  0.3286 -0.6210
  182POPC   O1320831   3.127   5.588   6.771 -0.3132  0.3645 -0.2141
  182POPC   O1420832   2.882   5.586   6.824 -0.3571 -0.2242 -0.1677
  182POPC   O1220833   3.006   5.373   6.789  0.1383  0.0851  0.2778
  182POPC   O1120834   2.960   5.529   6.595  0.0624 -0.6999  0.2555
  182POPC    C120835   2.900   5.646   6.540 -0.1345 -0.1804  0.0258
  182POPC    HA20836   2.877   5.736   6.600 -1.1214 -0.0889 -0.4578
  182POPC    HB20837   2.805   5.610   6.494  1.6946 -2.1443 -2.5908
  182POPC    C220838   2.993   5.703   6.427  0.1863  0.3249  0.7054
  182POPC    HS20839   3.060   5.778   6.474 -1.6880  1.0827  2.3085
  182POPC   O2120840   2.906   5.755   6.326 -0.1415  0.6126  0.6511
  182POPC   C2120841   2.831   5.864   6.366  0.4337 -0.7969  0.1961
  182POPC   O2220842   2.848   5.920   6.472 -0.2018  0.1498 -0.1167
  182POPC   C2220843   2.731   5.902   6.259 -0.0582 -0.3881 -0.5079
  182POPC   H2R20844   2.661   5.977   6.301 -0.0539  1.6417 -3.7314
  182POPC   H2S20845   2.676   5.807   6.241  0.5104 -0.8866  0.3463
  182POPC    C320846   3.086   5.594   6.362  0.5627  0.3959  0.6890
  182POPC    HX20847   3.015   5.523   6.314 -1.8391  1.7089  2.0765
  182POPC    HY20848   3.142   5.537   6.438  1.6162 -0.7403 -0.8920
  182POPC   O3120849   3.174   5.654   6.266 -0.2511  0.7426 -0.2331
  182POPC   C3120850   3.286   5.715   6.302  0.2862 -0.3764  0.4511
  182POPC   O3220851   3.324   5.736   6.414  0.4152 -0.0579 -0.0919
  182POPC   C3220852   3.357   5.761   6.176 -0.6082  1.1383  0.4706
  182POPC   H2X20853   3.451   5.702   6.174 -0.8764  0.6971  0.7791
  182POPC   H2Y20854   3.375   5.869   6.192 -1.0694  1.0602  1.5422
  182POPC   C2320855   2.794   5.972   6.136 -0.0084 -0.5723  0.5430
  182POPC   H3R20856   2.891   5.929   6.103  0.2869  0.5141 -0.0612
  182POPC   H3S20857   2.810   6.076   6.172 -1.7157 -0.0608 -0.0503
  182POPC   C2420858   2.696   5.970   6.019  0.5895 -0.3785 -0.6075
  182POPC   H4R20859   2.616   6.039   6.051  1.7782 -0.1694  2.2079
  182POPC   H4S20860   2.669   5.863   6.008  1.0407 -0.9243  2.5674
  182POPC   C2520861   2.752   6.012   5.875  0.1471 -0.1745 -0.8214
  182POPC   H5R20862   2.820   5.932   5.837  0.0251 -0.6872  0.0133
  182POPC   H5S20863   2.817   6.101   5.891  0.5705 -0.7544  0.8689
  182POPC   C2620864   2.640   6.037   5.769  0.1901 -0.2452  0.1617
  182POPC   H6R20865   2.684   6.069   5.672  1.9741  1.1506  1.3755
  182POPC   H6S20866   2.567   6.112   5.805  1.9730  0.6154  2.1880
  182POPC   C2720867   2.571   5.898   5.741  0.3343 -0.3539 -0.1448
  182POPC   H7R20868   2.499   5.877   5.824 -1.0105  2.9450 -0.3251
  182POPC   H7S20869   2.641   5.812   5.730 -1.0927 -1.4733 -0.9855
  182POPC   C2820870   2.493   5.899   5.613 -0.0215 -0.0000  0.1141
  182POPC   H8R20871   2.419   5.981   5.622  0.5654  0.3896  1.7909
  182POPC   H8S20872   2.434   5.806   5.599 -1.0779  1.0426 -3.0991
  182POPC   C2920873   2.572   5.926   5.491  0.0836 -0.1771  0.0542
  182POPC   H9120874   2.611   6.028   5.487  0.4043 -0.2346  1.2551
  182POPC  C21020875   2.638   5.841   5.408  0.0984  0.0660  0.0636
  182POPC  H10120876   2.693   5.886   5.325 -1.0950  2.6239  0.5583
  182POPC  C21120877   2.616   5.688   5.399 -0.3874 -0.5267  0.1076
  182POPC  H11R20878   2.530   5.662   5.464  0.2495  1.8966  2.1069
  182POPC  H11S20879   2.714   5.644   5.428 -0.1085 -0.9747 -1.4575
  182POPC  C21220880   2.584   5.628   5.258  0.7819  0.4091 -0.2573
  182POPC  H12R20881   2.502   5.688   5.213  0.9607 -0.0812 -1.2745
  182POPC  H12S20882   2.552   5.523   5.281  0.4175  0.1144 -1.9645
  182POPC  C21320883   2.706   5.622   5.163 -0.2437 -0.0425  0.2238
  182POPC  H13R20884   2.741   5.727   5.155  1.5373 -0.6381 -0.1857
  182POPC  H13S20885   2.667   5.579   5.068 -0.6496 -0.6339  0.6524
  182POPC  C21420886   2.821   5.548   5.228  0.1203 -0.2326 -0.3191
  182POPC  H14R20887   2.786   5.472   5.300  3.1659 -2.5249 -1.0544
  182POPC  H14S20888   2.893   5.616   5.278 -0.8836  0.3421  0.3813
  182POPC  C21520889   2.903   5.466   5.124  0.6902 -0.2723 -0.2300
  182POPC  H15R20890   2.952   5.525   5.043 -1.7730 -0.3867 -1.9068
  182POPC  H15S20891   2.829   5.402   5.071 -0.5095  1.5215 -0.8395
  182POPC  C21620892   3.008   5.379   5.188 -0.1034 -0.2364  0.0491
  182POPC  H16R20893   2.961   5.311   5.261 -1.3001  0.2413 -0.2489
  182POPC  H16S20894   3.075   5.447   5.245 -0.5321 -0.5632  0.9423
  182POPC  C21720895   3.104   5.298   5.100  0.0642 -0.8990 -0.3134
  182POPC  H17R20896   3.188   5.267   5.165  3.2153 -0.6278 -3.9241
  182POPC  H17S20897   3.137   5.360   5.013 -2.0157  1.3841  0.3797
  182POPC  C21820898   3.044   5.169   5.050 -0.2574 -0.5745  0.3457
  182POPC  H18R20899   2.959   5.185   4.980  0.7969  3.3128 -0.2998
  182POPC  H18S20900   3.019   5.101   5.134 -2.7471  2.0789  1.9303
  182POPC  H18T20901   3.112   5.115   4.981 -0.1693 -0.2465  0.1744
  182POPC   C3320902   3.283   5.736   6.041  0.7636  0.1261 -0.6578
  182POPC   H3X20903   3.177   5.768   6.045  0.6371 -0.0249 -2.4090
  182POPC   H3Y20904   3.278   5.627   6.022  0.6427 -0.8834  3.9284
  182POPC   C3420905   3.363   5.784   5.921  0.7804 -0.3008 -0.1885
  182POPC   H4X20906   3.472   5.762   5.917  0.4822 -1.7947 -1.1778
  182POPC   H4Y20907   3.374   5.894   5.922 -0.4207 -0.1689  0.7182
  182POPC   C3520908   3.306   5.729   5.784 -0.4450 -1.0386 -0.2604
  182POPC   H5X20909   3.227   5.804   5.762  0.4885  0.4588  1.1894
  182POPC   H5Y20910   3.251   5.634   5.799 -1.7145 -0.4725 -1.1567
  182POPC   C3620911   3.412   5.725   5.671  0.1244  0.7384 -0.3944
  182POPC   H6X20912   3.501   5.664   5.700 -0.5823 -0.4259 -0.5894
  182POPC   H6Y20913   3.462   5.822   5.653 -0.0515  0.8245 -0.4152
  182POPC   C3720914   3.347   5.670   5.550 -0.3993 -0.5917 -0.5174
  182POPC   H7X20915   3.249   5.721   5.535  0.7857  2.7645  1.8272
  182POPC   H7Y20916   3.322   5.564   5.573 -0.0595 -0.4227  0.7337
  182POPC   C3820917   3.431   5.673   5.426 -0.2031 -0.1787 -0.0568
  182POPC   H8X20918   3.530   5.623   5.438 -0.5128 -0.9019 -0.4733
  182POPC   H8Y20919   3.454   5.778   5.398  1.6641 -0.6855 -0.6133
  182POPC   C3920920   3.359   5.600   5.306 -0.3364  0.8206  0.3247
  182POPC   H9X20921   3.344   5.493   5.331  1.3104  0.2333 -1.0073
  182POPC   H9Y20922   3.432   5.597   5.223 -0.1417 -2.5004  0.4918
  182POPC  C31020923   3.230   5.673   5.255 -0.0757  0.7769  0.1804
  182POPC  H10X20924   3.144   5.671   5.326  0.1617  0.5338  0.4679
  182POPC  H10Y20925   3.187   5.613   5.171 -1.1144 -1.3724  2.1169
  182POPC  C31120926   3.240   5.818   5.211  1.3196 -0.1880  0.7232
  182POPC  H11X20927   3.316   5.832   5.131 -0.0398 -0.7491 -0.7152
  182POPC  H11Y20928   3.265   5.866   5.308 -1.5038 -0.4178  1.6467
  182POPC  C31220929   3.106   5.865   5.147  0.1235 -0.0501 -0.8022
  182POPC  H12X20930   3.094   5.974   5.163 -2.2730 -0.3366 -0.3085
  182POPC  H12Y20931   3.017   5.815   5.191 -0.3761  0.3466 -1.3500
  182POPC  C31320932   3.098   5.839   4.996 -0.1421 -0.2122 -0.0805
  182POPC  H13X20933   3.111   5.729   4.981  0.3953 -0.3015  0.9833
  182POPC  H13Y20934   3.182   5.892   4.946 -1.5571  0.8358 -1.4559
  182POPC  C31420935   2.975   5.901   4.931 -0.5522 -0.3926 -0.1092
  182POPC  H14X20936   2.996   6.007   4.905 -0.4796 -1.1038 -3.3327
  182POPC  H14Y20937   2.897   5.901   5.011  1.8951 -2.0133  2.4531
  182POPC  C31520938   2.931   5.836   4.805  0.1132  0.4741  0.2946
  182POPC  H15X20939   3.007   5.852   4.725 -0.4362  3.4420  0.2217
  182POPC  H15Y20940   2.851   5.893   4.752 -0.5620 -0.3319  0.4161
  182POPC  C31620941   2.888   5.691   4.830  0.1251  0.5581  0.0469
  182POPC  H16X20942   2.842   5.649   4.738  2.1002 -1.0451 -0.2834
  182POPC  H16Y20943   2.810   5.683   4.908  2.5310 -0.3287  2.5565
  182POPC  H16Z20944   2.981   5.642   4.867  0.7983  2.2705  0.7504
  183POPC     N20945   6.439   2.062   7.176 -0.1399  0.2691  0.1878
  183POPC   C1220946   6.306   2.007   7.115 -0.7747 -0.7375 -0.3933
  183POPC  H12A20947   6.264   2.076   7.043  0.0626  0.8192  0.5404
  183POPC  H12B20948   6.229   2.004   7.190  0.4426  1.0514  1.0431
  183POPC   C1320949   6.539   2.113   7.074  0.0044  0.4273  0.4857
  183POPC  H13A20950   6.622   2.157   7.127  1.5470 -0.3274 -1.1719
  183POPC  H13B20951   6.578   2.031   7.015  1.1086 -0.4547  2.3702
  183POPC  H13C20952   6.480   2.177   7.010 -1.7081 -1.0222  0.5341
  183POPC   C1420953   6.398   2.183   7.256  0.0503  0.1834  0.8933
  183POPC  H14A20954   6.481   2.223   7.312  0.0222 -2.0504  2.6672
  183POPC  H14B20955   6.352   2.255   7.190 -0.6716 -1.4560 -0.4797
  183POPC  H14C20956   6.327   2.168   7.336 -1.6468 -1.4036 -0.8051
  183POPC   C1520957   6.507   1.969   7.279 -0.0634  0.9362  0.3417
  183POPC  H15A20958   6.440   1.935   7.356  0.7175 -0.6724  0.3455
  183POPC  H15B20959   6.589   2.024   7.323  0.7518 -0.8845  1.1970
  183POPC  H15C20960   6.549   1.884   7.227  0.2103  0.4035  1.4200
  183POPC   C1120961   6.312   1.864   7.054  0.3548 -0.7675  0.4656
  183POPC  H11A20962   6.311   1.785   7.132  0.2871 -1.2234  0.0114
  183POPC  H11B20963   6.407   1.860   6.997 -0.5750 -1.3517 -1.1173
  183POPC     P20964   6.216   1.720   6.884 -0.0383 -0.4247 -0.3296
  183POPC   O1320965   6.115   1.728   6.781  0.1627  0.3217  0.4294
  183POPC   O1420966   6.210   1.596   6.972 -0.3318  0.0512  0.5753
  183POPC   O1220967   6.203   1.847   6.960  0.0339  0.0242  0.5497
  183POPC   O1120968   6.359   1.724   6.818 -0.0715 -0.0763 -0.6685
  183POPC    C120969   6.379   1.823   6.717  0.7324 -0.2598 -0.6341
  183POPC    HA20970   6.345   1.925   6.747 -1.5652 -1.9337  3.2356
  183POPC    HB20971   6.327   1.798   6.622  0.4822 -0.2365 -0.5032
  183POPC    C220972   6.524   1.836   6.682 -0.5421 -0.4496 -0.3005
  183POPC    HS20973   6.581   1.873   6.770 -1.5350  2.8344 -0.9024
  183POPC   O2120974   6.534   1.943   6.585  0.1713  0.5234 -0.4570
  183POPC   C2120975   6.652   2.006   6.574  0.2474 -0.4914 -0.0617
  183POPC   O2220976   6.749   1.977   6.642 -0.5392  0.2829 -0.1420
  183POPC   C2220977   6.659   2.111   6.462 -0.1737 -0.2260  0.3128
  183POPC   H2R20978   6.761   2.102   6.417  0.0062 -2.1004  1.0080
  183POPC   H2S20979   6.657   2.215   6.501  1.3318  0.5058 -1.3514
  183POPC    C320980   6.592   1.701   6.639  0.4545  0.3506  0.5969
  183POPC    HX20981   6.581   1.622   6.716 -0.8116 -1.5792 -1.4456
  183POPC    HY20982   6.701   1.723   6.638  0.4759  0.2956 -1.2390
  183POPC   O3120983   6.539   1.658   6.514 -0.3243  0.6750 -0.4444
  183POPC   C3120984   6.626   1.648   6.420 -0.5651  1.1186  0.3221
  183POPC   O3220985   6.746   1.645   6.424 -0.6017 -0.7170 -0.0054
  183POPC   C3220986   6.544   1.642   6.282 -0.6451  0.0946  0.5771
  183POPC   H2X20987   6.499   1.742   6.266 -1.0956  0.5935  4.0516
  183POPC   H2Y20988   6.474   1.556   6.285  0.2807 -0.6821  0.3152
  183POPC   C2320989   6.556   2.104   6.348  0.1281  0.6915 -0.8362
  183POPC   H3R20990   6.457   2.139   6.384 -1.0702 -1.7671 -1.4883
  183POPC   H3S20991   6.554   2.002   6.302  2.0001  0.4780 -0.5227
  183POPC   C2420992   6.595   2.199   6.230  0.6779  0.2190 -0.8917
  183POPC   H4R20993   6.666   2.142   6.167  2.4358 -0.4132  1.5154
  183POPC   H4S20994   6.637   2.293   6.272  0.9830 -0.5161  0.5327
  183POPC   C2520995   6.478   2.234   6.131 -0.6862 -0.1496  0.0332
  183POPC   H5R20996   6.425   2.313   6.187 -2.7705 -0.8821 -0.8223
  183POPC   H5S20997   6.404   2.153   6.115 -0.6155 -0.1243 -0.4490
  183POPC   C2620998   6.529   2.298   5.997  0.0384  0.8095  0.3170
  183POPC   H6R20999   6.604   2.229   5.952 -1.6097 -0.1113 -1.1861
  183POPC   H6S21000   6.585   2.393   6.011  1.2301 -0.0419  1.5582
  183POPC   C2721001   6.413   2.334   5.900 -0.1953 -0.6188  0.1795
  183POPC   H7R21002   6.349   2.411   5.949 -0.9143 -0.2261 -1.3214
  183POPC   H7S21003   6.350   2.247   5.872  0.8674 -0.8504 -1.6636
  183POPC   C2821004   6.460   2.383   5.758 -0.0664  0.6075 -0.0277
  183POPC   H8R21005   6.371   2.381   5.692  1.1886  0.5619 -1.8008
  183POPC   H8S21006   6.538   2.315   5.719 -1.6062 -1.7154  0.7328
  183POPC   C2921007   6.515   2.522   5.757  0.1209  0.2591  0.3029
  183POPC   H9121008   6.587   2.548   5.836 -0.8514  4.1042  0.1113
  183POPC  C21021009   6.474   2.619   5.676 -0.2361 -0.1754  0.5316
  183POPC  H10121010   6.524   2.717   5.677  2.0750 -1.2719  2.0233
  183POPC  C21121011   6.370   2.613   5.570  0.8136 -0.1250  0.1515
  183POPC  H11R21012   6.282   2.666   5.611  0.0757 -0.3461 -1.0895
  183POPC  H11S21013   6.326   2.514   5.547 -0.4292  0.1207  1.3371
  183POPC  C21221014   6.394   2.688   5.441  0.2304 -0.0205  0.3521
  183POPC  H12R21015   6.419   2.795   5.456  1.1409 -0.4886  2.4149
  183POPC  H12S21016   6.294   2.692   5.393  1.7521  3.1813 -3.0451
  183POPC  C21321017   6.490   2.617   5.342  0.0044 -0.5420  0.8697
  183POPC  H13R21018   6.488   2.507   5.358  0.7318 -0.6993 -0.0241
  183POPC  H13S21019   6.592   2.648   5.371 -0.3554 -0.1784  1.7810
  183POPC  C21421020   6.467   2.658   5.192 -0.3043 -0.3437  0.2477
  183POPC  H14R21021   6.369   2.622   5.154 -0.6520  2.1055 -1.4618
  183POPC  H14S21022   6.538   2.603   5.126  1.5018  1.1909  0.8216
  183POPC  C21521023   6.495   2.806   5.158 -0.1083  0.0009 -0.0018
  183POPC  H15R21024   6.598   2.832   5.187  0.5272 -1.2076 -1.0595
  183POPC  H15S21025   6.428   2.871   5.218 -0.8420 -1.3687  0.7271
  183POPC  C21621026   6.484   2.840   5.006  0.7237 -0.1848 -0.0441
  183POPC  H16R21027   6.382   2.815   4.970  0.0453 -0.1473  1.7093
  183POPC  H16S21028   6.552   2.765   4.960  0.6627  1.0588 -2.2930
  183POPC  C21721029   6.527   2.982   4.978 -0.1907  0.1524  0.4002
  183POPC  H17R21030   6.475   3.053   5.046  2.1276  1.1344  1.2446
  183POPC  H17S21031   6.508   2.994   4.869  1.2406  0.8952  0.2112
  183POPC  C21821032   6.677   3.007   4.993  0.2822 -0.2427  0.4800
  183POPC  H18R21033   6.713   3.107   4.963  3.1199 -1.8341 -1.9619
  183POPC  H18S21034   6.722   2.930   4.926 -1.1827 -1.1511  0.4885
  183POPC  H18T21035   6.707   2.997   5.099 -0.2715 -2.9999  0.4668
  183POPC   C3321036   6.639   1.594   6.158 -0.3642  0.3736 -0.3315
  183POPC   H3X21037   6.692   1.499   6.179  0.6544  0.3540 -2.6863
  183POPC   H3Y21038   6.719   1.671   6.161  0.6115 -0.6394 -0.0244
  183POPC   C3421039   6.561   1.580   6.026  0.2851 -0.0184  0.4593
  183POPC   H4X21040   6.463   1.528   6.031  0.4085 -0.4079 -0.8900
  183POPC   H4Y21041   6.626   1.523   5.957  0.3910 -1.2695  1.5677
  183POPC   C3521042   6.548   1.722   5.960  0.7637 -0.5680 -1.4606
  183POPC   H5X21043   6.506   1.798   6.029  0.1975 -1.6125 -0.6145
  183POPC   H5Y21044   6.468   1.712   5.884 -0.3915 -0.3632 -0.3073
  183POPC   C3621045   6.676   1.784   5.905 -0.0467  0.5226  0.4921
  183POPC   H6X21046   6.732   1.713   5.840  0.1639 -0.8404  2.0872
  183POPC   H6Y21047   6.738   1.801   5.996 -0.9537  0.0903  1.2084
  183POPC   C3721048   6.633   1.904   5.822  0.3328 -0.0417  0.1286
  183POPC   H7X21049   6.602   1.993   5.880  1.0134  0.5355 -0.3839
  183POPC   H7Y21050   6.538   1.881   5.768  1.5832 -0.0238 -2.2156
  183POPC   C3821051   6.731   1.950   5.707  0.1647  0.1800  0.5518
  183POPC   H8X21052   6.742   1.862   5.641 -0.6897  0.7387 -0.3546
  183POPC   H8Y21053   6.829   1.963   5.759  0.4251 -0.4002  0.2093
  183POPC   C3921054   6.695   2.075   5.626  0.1477 -0.7833 -0.9915
  183POPC   H9X21055   6.696   2.158   5.700 -3.1768 -3.1755  2.0853
  183POPC   H9Y21056   6.588   2.070   5.600 -0.5333  1.0657  1.1654
  183POPC  C31021057   6.777   2.106   5.506  0.1612  0.6662 -0.6209
  183POPC  H10X21058   6.764   2.024   5.432 -0.3078  0.9332 -0.8363
  183POPC  H10Y21059   6.885   2.116   5.531 -0.2466  0.0394  1.6912
  183POPC  C31121060   6.734   2.234   5.444 -0.0611 -0.2833  0.2462
  183POPC  H11X21061   6.773   2.316   5.508  0.4297 -0.1339 -0.2458
  183POPC  H11Y21062   6.624   2.239   5.428  0.0931  0.4610 -0.6819
  183POPC  C31221063   6.812   2.267   5.314  0.1500 -0.1971 -0.1046
  183POPC  H12X21064   6.783   2.179   5.252  0.8380 -0.2419 -0.3798
  183POPC  H12Y21065   6.918   2.262   5.348  0.1904 -0.5942 -0.2812
  183POPC  C31321066   6.777   2.396   5.246 -0.5842 -0.3405  0.0694
  183POPC  H13X21067   6.767   2.476   5.322 -1.1853 -1.8504  1.6437
  183POPC  H13Y21068   6.673   2.400   5.206 -0.0300  3.1297 -1.3329
  183POPC  C31421069   6.871   2.421   5.127  0.2581  0.0879 -0.0532
  183POPC  H14X21070   6.827   2.359   5.046 -1.3763 -0.2859  1.0680
  183POPC  H14Y21071   6.970   2.380   5.154 -0.3854 -1.6420 -0.1689
  183POPC  C31521072   6.879   2.567   5.072  0.1182  0.5171 -0.0676
  183POPC  H15X21073   6.780   2.591   5.026  0.6342  1.5756 -0.6556
  183POPC  H15Y21074   6.956   2.571   4.992  0.3941 -1.4157  0.0489
  183POPC  C31621075   6.913   2.669   5.180  0.2629  0.0783 -0.0137
  183POPC  H16X21076   6.836   2.674   5.261  0.2818  2.4017 -0.0754
  183POPC  H16Y21077   6.894   2.765   5.128 -0.6287 -0.2414 -0.3028
  183POPC  H16Z21078   7.019   2.669   5.212  0.2337 -0.1255  0.0853
  184POPC     N21079   0.352   4.153   7.273 -0.2257  0.0848 -0.2403
  184POPC   C1221080   0.401   4.266   7.183  0.1153  0.7971 -0.3522
  184POPC  H12A21081   0.458   4.223   7.103  0.3287 -0.3332  0.3900
  184POPC  H12B21082   0.477   4.324   7.234  1.4008 -0.7376 -0.4419
  184POPC   C1321083   0.475   4.068   7.315 -0.3067  1.3063 -0.5440
  184POPC  H13A21084   0.514   4.020   7.226 -1.7093 -1.0092  0.0112
  184POPC  H13B21085   0.546   4.128   7.370  0.2538  0.3707 -0.2320
  184POPC  H13C21086   0.437   3.999   7.388  1.8229 -0.1308 -0.7006
  184POPC   C1421087   0.282   4.211   7.395  0.2649 -0.1492 -0.1193
  184POPC  H14A21088   0.350   4.236   7.475  1.4144  0.1711 -1.1563
  184POPC  H14B21089   0.222   4.298   7.371 -0.3437 -1.0525 -2.0428
  184POPC  H14C21090   0.220   4.128   7.423  1.5052 -2.4198 -3.4123
  184POPC   C1521091   0.259   4.066   7.196  0.2974 -0.4964 -0.5116
  184POPC  H15A21092   0.233   3.990   7.268 -0.6132  1.1851  1.0306
  184POPC  H15B21093   0.317   4.027   7.113 -2.9645 -0.3661 -3.0517
  184POPC  H15C21094   0.169   4.110   7.154 -0.2139 -0.9101  0.1364
  184POPC   C1121095   0.299   4.372   7.125  0.1231  0.2701  0.1113
  184POPC  H11A21096   0.354   4.450   7.068  1.0371 -0.7123 -0.3784
  184POPC  H11B21097   0.243   4.421   7.207 -0.2659  1.9925 -1.1362
  184POPC     P21098   0.255   4.249   6.905  0.0731 -0.0769  0.0823
  184POPC   O1321099   0.137   4.181   6.838  0.5623  0.3759  0.9772
  184POPC   O1421100   0.378   4.171   6.914  0.2966  1.1107 -0.2134
  184POPC   O1221101   0.205   4.315   7.039  0.1151 -0.3998  0.1094
  184POPC   O1121102   0.296   4.381   6.827 -0.0306  0.2270  0.3029
  184POPC    C121103   0.193   4.468   6.773 -0.7742  0.3817 -0.7931
  184POPC    HA21104   0.252   4.562   6.775  0.0790 -0.1397  1.4436
  184POPC    HB21105   0.099   4.474   6.832 -0.0938  0.2375  0.3259
  184POPC    C221106   0.177   4.438   6.628  0.4550  0.4658 -0.3017
  184POPC    HS21107   0.141   4.521   6.563 -0.2625  1.4248  1.2717
  184POPC   O2121108   0.080   4.338   6.595 -0.5874  0.5951 -0.3298
  184POPC   C2121109  -0.043   4.363   6.629  0.4564 -0.2070 -0.1250
  184POPC   O2221110  -0.094   4.465   6.664  0.5809 -0.2483 -0.1301
  184POPC   C2221111  -0.129   4.230   6.605 -0.2819  0.0201  0.1871
  184POPC   H2R21112  -0.146   4.198   6.710 -0.0752 -1.0603 -0.0959
  184POPC   H2S21113  -0.065   4.151   6.559 -0.1747 -0.6899  1.5045
  184POPC    C321114   0.314   4.393   6.556  0.3730 -0.2408 -0.1130
  184POPC    HX21115   0.368   4.313   6.612  1.5208 -1.5009 -2.8698
  184POPC    HY21116   0.391   4.472   6.544 -0.1526  0.0754 -1.5714
  184POPC   O3121117   0.296   4.347   6.426  0.0931 -0.1649  0.0489
  184POPC   C3121118   0.268   4.434   6.327 -0.1392  0.3031  0.3466
  184POPC   O3221119   0.273   4.553   6.341 -0.9547 -0.8079  0.4282
  184POPC   C3221120   0.218   4.354   6.209 -0.7866  0.3849 -0.2740
  184POPC   H2X21121   0.112   4.381   6.188 -1.0175 -1.4846 -1.7598
  184POPC   H2Y21122   0.220   4.246   6.232  0.8334  0.4457 -0.0460
  184POPC   C2321123  -0.267   4.260   6.551 -0.0228 -0.0896 -0.0720
  184POPC   H3R21124  -0.318   4.332   6.619 -1.8943 -0.9754 -0.4736
  184POPC   H3S21125  -0.330   4.169   6.565  0.8058 -1.1616 -2.7430
  184POPC   C2421126  -0.277   4.301   6.407 -0.2309 -0.3026  0.0959
  184POPC   H4R21127  -0.287   4.411   6.392 -1.7780 -0.3915  0.3198
  184POPC   H4S21128  -0.376   4.266   6.371  0.1338  0.2145 -1.5039
  184POPC   C2521129  -0.178   4.234   6.310  0.5260  0.6867 -0.4899
  184POPC   H5R21130  -0.168   4.128   6.342  2.1013  1.5739  2.2961
  184POPC   H5S21131  -0.081   4.287   6.325  0.4523  0.1974  2.2049
  184POPC   C2621132  -0.220   4.224   6.165 -0.9664  0.0798 -0.8153
  184POPC   H6R21133  -0.310   4.161   6.151 -1.8189  0.8764  0.7890
  184POPC   H6S21134  -0.140   4.181   6.101 -1.2772 -0.5032 -0.8165
  184POPC   C2721135  -0.254   4.360   6.109  0.0803 -0.3444  1.0295
  184POPC   H7R21136  -0.162   4.418   6.131  0.0597  0.1965 -0.2368
  184POPC   H7S21137  -0.346   4.402   6.154 -1.4620 -1.8962 -0.4885
  184POPC   C2821138  -0.274   4.352   5.960  0.1749 -0.0808  0.0045
  184POPC   H8R21139  -0.359   4.286   5.931  0.3589 -0.7720  0.9668
  184POPC   H8S21140  -0.188   4.296   5.918 -0.1173  0.6798 -1.6955
  184POPC   C2921141  -0.289   4.494   5.909  0.4055  0.2954 -0.8212
  184POPC   H9121142  -0.379   4.552   5.938  0.0225 -0.8334  0.3096
  184POPC  C21021143  -0.204   4.564   5.826 -0.8555 -0.1363  0.3654
  184POPC  H10121144  -0.231   4.665   5.791  1.5187  1.3400  2.5131
  184POPC  C21121145  -0.072   4.508   5.761  0.4096 -0.4764  0.0567
  184POPC  H11R21146  -0.078   4.397   5.766 -0.5046 -0.4426 -0.1386
  184POPC  H11S21147   0.014   4.544   5.821 -0.1612  1.6094 -0.3157
  184POPC  C21221148  -0.054   4.565   5.615 -0.0586  0.8053  0.1661
  184POPC  H12R21149   0.055   4.552   5.599 -0.3824 -1.0211 -0.9148
  184POPC  H12S21150  -0.084   4.672   5.610 -0.5618  0.7112  1.0536
  184POPC  C21321151  -0.128   4.479   5.514  0.0793 -0.3388 -0.1122
  184POPC  H13R21152  -0.236   4.489   5.538  0.2274 -0.9073  0.8318
  184POPC  H13S21153  -0.088   4.375   5.523  0.6780 -0.0910  0.1593
  184POPC  C21421154  -0.106   4.544   5.371  0.0944 -0.2716  0.1977
  184POPC  H14R21155   0.003   4.549   5.349  0.1926  0.2266  0.7627
  184POPC  H14S21156  -0.152   4.644   5.388  2.3333  0.4769  2.4644
  184POPC  C21521157  -0.176   4.466   5.254 -0.2220 -0.2645  0.4567
  184POPC  H15R21158  -0.162   4.533   5.166 -0.4912  1.5713  1.7603
  184POPC  H15S21159  -0.286   4.451   5.262 -0.1943 -0.3214  0.7495
  184POPC  C21621160  -0.120   4.328   5.224  0.2059 -0.1857 -0.3445
  184POPC  H16R21161  -0.148   4.262   5.309 -1.0522 -0.4482 -0.9368
  184POPC  H16S21162  -0.010   4.338   5.240  0.0527 -0.3472  0.9377
  184POPC  C21721163  -0.173   4.262   5.097 -0.1492  0.0361  0.3089
  184POPC  H17R21164  -0.147   4.333   5.016 -0.0070  0.3438  0.6263
  184POPC  H17S21165  -0.284   4.255   5.105 -0.2763  1.8660  0.5326
  184POPC  C21821166  -0.110   4.131   5.058 -1.0673 -0.1668 -0.7522
  184POPC  H18R21167  -0.134   4.091   4.957  2.6969 -0.9926 -1.4805
  184POPC  H18S21168  -0.139   4.052   5.131  0.1214  0.6736  0.6936
  184POPC  H18T21169   0.000   4.145   5.060 -1.3415  2.3075  0.7428
  184POPC   C3321170   0.302   4.387   6.080  0.2821 -0.3247 -1.2927
  184POPC   H3X21171   0.410   4.361   6.088  0.4034 -0.0644 -2.0159
  184POPC   H3Y21172   0.290   4.497   6.067  0.4593 -0.0715  0.3731
  184POPC   C3421173   0.245   4.318   5.954 -0.0629 -0.1077  0.5220
  184POPC   H4X21174   0.140   4.349   5.938  0.0374  0.7016  1.3799
  184POPC   H4Y21175   0.249   4.207   5.964  1.0303 -0.0958  0.3591
  184POPC   C3521176   0.325   4.348   5.825 -0.1523 -0.9375 -0.4788
  184POPC   H5X21177   0.423   4.297   5.837 -0.4988 -1.0039  2.7167
  184POPC   H5Y21178   0.346   4.457   5.811 -2.5105 -0.2405  0.8604
  184POPC   C3621179   0.263   4.305   5.696 -0.8842  0.0151 -0.3115
  184POPC   H6X21180   0.165   4.356   5.691 -0.3561  1.0006 -1.1875
  184POPC   H6Y21181   0.247   4.195   5.687 -1.4219  0.1512 -1.1600
  184POPC   C3721182   0.340   4.349   5.564  0.5028  1.2851  0.3390
  184POPC   H7X21183   0.448   4.340   5.586  0.6642  2.8920  0.3409
  184POPC   H7Y21184   0.333   4.458   5.540 -0.1045  0.7729 -2.0058
  184POPC   C3821185   0.289   4.279   5.434 -0.5872 -0.0782 -0.2883
  184POPC   H8X21186   0.185   4.310   5.413 -0.0894  0.9741 -1.3918
  184POPC   H8Y21187   0.293   4.170   5.453  3.2411 -0.1966 -0.9563
  184POPC   C3921188   0.382   4.316   5.319  0.1602 -0.3229  0.2791
  184POPC   H9X21189   0.488   4.295   5.344  1.6248  3.9123 -1.4093
  184POPC   H9Y21190   0.376   4.427   5.310 -0.0650 -0.4715 -2.0252
  184POPC  C31021191   0.340   4.248   5.189 -0.5126  1.0210  0.0513
  184POPC  H10X21192   0.230   4.238   5.180 -0.1863 -2.4759 -1.7078
  184POPC  H10Y21193   0.377   4.144   5.194 -1.3175  0.7956  2.1594
  184POPC  C31121194   0.397   4.317   5.063  0.6322 -0.3035  0.7417
  184POPC  H11X21195   0.508   4.317   5.066  1.0551  0.3960 -4.5006
  184POPC  H11Y21196   0.366   4.424   5.055 -0.1933 -0.5815  0.0586
  184POPC  C31221197   0.354   4.259   4.928  0.4795 -0.0077 -0.7534
  184POPC  H12X21198   0.378   4.340   4.856  2.5356 -0.1498 -0.3031
  184POPC  H12Y21199   0.244   4.246   4.923  0.2248  1.5128  0.1524
  184POPC  C31321200   0.438   4.135   4.894  0.9428  0.1112 -0.3004
  184POPC  H13X21201   0.422   4.058   4.973 -3.1182  0.6623 -0.3543
  184POPC  H13Y21202   0.542   4.172   4.904  0.6278  0.6944  1.0058
  184POPC  C31421203   0.407   4.081   4.759  0.5158 -0.0068 -0.6656
  184POPC  H14X21204   0.438   4.156   4.683  1.9468  0.9142  0.7571
  184POPC  H14Y21205   0.305   4.039   4.753  1.0399 -1.4111 -0.3448
  184POPC  C31521206   0.487   3.948   4.731 -0.3297  0.3351  0.4252
  184POPC  H15X21207   0.456   3.872   4.806  1.7873 -2.3961 -1.3101
  184POPC  H15Y21208   0.596   3.965   4.740  0.3271 -2.0908 -1.9097
  184POPC  C31621209   0.458   3.901   4.593  0.2441  0.4897  0.6617
  184POPC  H16X21210   0.493   3.796   4.575  1.1146  1.0144 -0.9619
  184POPC  H16Y21211   0.512   3.969   4.523  0.1992  1.4124  1.5119
  184POPC  H16Z21212   0.348   3.907   4.587  0.2280  0.0369  0.4505
  185POPC     N21213   1.725   0.975   2.462 -0.5764  0.3498  0.1052
  185POPC   C1221214   1.738   0.896   2.590  0.1859  0.3776  0.5219
  185POPC  H12A21215   1.674   0.953   2.656  0.1835  1.0412 -0.0478
  185POPC  H12B21216   1.837   0.906   2.633  0.9365 -2.2452 -0.3986
  185POPC   C1321217   1.764   1.117   2.487  0.2980  0.1225 -0.6820
  185POPC  H13A21218   1.861   1.130   2.533 -1.1062 -0.2318  2.6715
  185POPC  H13B21219   1.758   1.187   2.405 -1.6553  1.0945  0.2252
  185POPC  H13C21220   1.693   1.169   2.549  1.7665 -0.2415  1.3837
  185POPC   C1421221   1.807   0.916   2.353 -0.0166 -0.1353 -0.2866
  185POPC  H14A21222   1.810   0.808   2.360 -2.4099 -0.1996  0.3972
  185POPC  H14B21223   1.779   0.938   2.251 -1.1651 -0.6113 -0.0872
  185POPC  H14C21224   1.907   0.955   2.361 -0.1566  0.0243  0.7535
  185POPC   C1521225   1.582   0.974   2.415  0.6396 -0.0712  0.1468
  185POPC  H15A21226   1.580   1.016   2.315  0.1308  1.7130  0.8698
  185POPC  H15B21227   1.514   1.015   2.488 -0.7360 -0.3920 -0.8966
  185POPC  H15C21228   1.541   0.874   2.414  1.7104 -0.5274  0.3247
  185POPC   C1121229   1.696   0.745   2.587  0.3572 -1.3706  0.3320
  185POPC  H11A21230   1.595   0.741   2.542  0.7790  0.4071 -0.8332
  185POPC  H11B21231   1.686   0.714   2.694 -0.8237  0.2762  0.7340
  185POPC     P21232   1.745   0.503   2.505  0.1471  0.6833 -0.0445
  185POPC   O1321233   1.856   0.431   2.445  0.1110 -0.0315  0.7833
  185POPC   O1421234   1.611   0.491   2.443  0.7771  0.1904 -0.5040
  185POPC   O1221235   1.789   0.657   2.515 -0.6585  0.0566 -0.2506
  185POPC   O1121236   1.731   0.450   2.652 -0.0328  0.1902  0.1520
  185POPC    C121237   1.838   0.419   2.733  0.0337  0.7819  0.4694
  185POPC    HA21238   1.940   0.451   2.700  0.3644 -0.0862  0.6275
  185POPC    HB21239   1.849   0.309   2.739  1.7650  0.5450 -3.3507
  185POPC    C221240   1.809   0.462   2.880  0.0624 -0.3363  0.1716
  185POPC    HS21241   1.822   0.572   2.884  0.7881 -0.4240  0.3557
  185POPC   O2121242   1.901   0.401   2.969  0.2667  0.2543 -0.2023
  185POPC   C2121243   2.030   0.446   2.969  0.3667  0.3643 -0.1785
  185POPC   O2221244   2.068   0.540   2.904 -0.0992 -0.2351  0.9919
  185POPC   C2221245   2.112   0.346   3.039 -0.9704  1.0649 -0.1429
  185POPC   H2R21246   2.218   0.369   3.013 -1.8324  2.8477 -2.3360
  185POPC   H2S21247   2.083   0.246   3.001  0.9489  1.3368 -2.6105
  185POPC    C321248   1.654   0.450   2.925 -0.2780 -0.2574 -0.5552
  185POPC    HX21249   1.629   0.348   2.890  4.3192 -2.4150  1.6096
  185POPC    HY21250   1.594   0.523   2.866  0.3310  0.7347  0.0287
  185POPC   O3121251   1.634   0.478   3.065 -0.2638  0.6410  0.4512
  185POPC   C3121252   1.568   0.386   3.128 -0.3759  0.1943 -0.5642
  185POPC   O3221253   1.506   0.296   3.077  0.0956  0.1900 -0.0460
  185POPC   C3221254   1.581   0.413   3.281  0.0592  0.5314  0.2313
  185POPC   H2X21255   1.539   0.511   3.311 -2.3297 -0.8468  1.7233
  185POPC   H2Y21256   1.687   0.397   3.312 -0.5936 -0.7532  1.9624
  185POPC   C2321257   2.069   0.342   3.191  0.1183 -0.1551 -0.4377
  185POPC   H3R21258   2.103   0.247   3.239 -0.9191 -0.1270  0.3861
  185POPC   H3S21259   1.959   0.331   3.194  0.1016  0.0670 -0.1779
  185POPC   C2421260   2.111   0.468   3.266  0.3570 -0.2283  0.0263
  185POPC   H4R21261   2.093   0.558   3.204 -0.9158 -0.7467 -0.3872
  185POPC   H4S21262   2.215   0.471   3.305 -0.1157  2.4679  1.3018
  185POPC   C2521263   2.016   0.480   3.387 -0.6871 -0.5930 -0.0752
  185POPC   H5R21264   2.010   0.387   3.447 -1.6233  0.0323  0.8282
  185POPC   H5S21265   1.911   0.495   3.354 -0.6714 -0.1717  0.0520
  185POPC   C2621266   2.057   0.600   3.474 -0.1551 -0.0530  0.6109
  185POPC   H6R21267   2.062   0.694   3.415  1.5703 -0.5163 -0.0287
  185POPC   H6S21268   2.162   0.585   3.507 -0.2551  0.3690  1.1217
  185POPC   C2721269   1.958   0.619   3.595  0.3263 -0.8324 -0.2673
  185POPC   H7R21270   1.865   0.664   3.552  1.6817  1.6682 -0.7673
  185POPC   H7S21271   2.010   0.695   3.658  0.1426 -1.0559  0.1594
  185POPC   C2821272   1.905   0.505   3.676 -0.1665  0.0653  0.0765
  185POPC   H8R21273   1.848   0.438   3.608  0.1450 -1.7710  1.5533
  185POPC   H8S21274   1.823   0.540   3.742 -0.3679  0.3635 -0.3259
  185POPC   C2921275   2.017   0.429   3.747  0.1276 -0.1319  0.0835
  185POPC   H9121276   2.106   0.409   3.685  0.5308  1.1931  0.2130
  185POPC  C21021277   2.017   0.396   3.881  0.0296  0.0886  0.4243
  185POPC  H10121278   2.110   0.343   3.907 -0.1797 -1.7524 -2.1531
  185POPC  C21121279   1.904   0.409   3.978  0.3382 -0.0909  0.7199
  185POPC  H11R21280   1.901   0.316   4.039 -1.0535  0.3589  1.3927
  185POPC  H11S21281   1.805   0.426   3.930  0.4195  1.0165  0.9168
  185POPC  C21221282   1.903   0.526   4.070  0.3433  0.4569  0.1927
  185POPC  H12R21283   1.887   0.616   4.007  0.4777 -1.1814 -2.3214
  185POPC  H12S21284   2.001   0.533   4.124 -0.4182  0.6043  1.6105
  185POPC  C21321285   1.783   0.521   4.172 -0.5120 -0.0866 -0.0151
  185POPC  H13R21286   1.791   0.421   4.219  0.8163  1.6093  3.8357
  185POPC  H13S21287   1.682   0.518   4.127 -1.1738 -0.5208  1.4576
  185POPC  C21421288   1.785   0.628   4.282  0.6123  0.0885 -0.9492
  185POPC  H14R21289   1.740   0.722   4.242 -0.9590 -0.2507 -0.0588
  185POPC  H14S21290   1.891   0.632   4.315  0.2328 -1.3044  0.5466
  185POPC  C21521291   1.704   0.595   4.411 -0.2682  0.6672 -0.4160
  185POPC  H15R21292   1.764   0.517   4.462  0.0268  2.1953  1.7104
  185POPC  H15S21293   1.607   0.552   4.378  0.0347 -0.5266  0.1893
  185POPC  C21621294   1.682   0.717   4.495  0.4221 -0.1361  0.3481
  185POPC  H16R21295   1.600   0.784   4.462 -0.7500 -0.0076  3.2180
  185POPC  H16S21296   1.782   0.765   4.484  0.6378 -0.8203 -0.7977
  185POPC  C21721297   1.664   0.689   4.644  0.5585 -0.1100  0.3751
  185POPC  H17R21298   1.700   0.768   4.714 -0.9164  1.0607 -0.1270
  185POPC  H17S21299   1.727   0.600   4.663  0.7409 -0.1871 -0.5630
  185POPC  C21821300   1.515   0.659   4.693 -0.2588 -0.6088  0.0644
  185POPC  H18R21301   1.515   0.671   4.804 -0.4346 -0.1028  0.0115
  185POPC  H18S21302   1.482   0.565   4.646  0.1917  0.1964 -1.9557
  185POPC  H18T21303   1.450   0.740   4.653 -0.2181 -1.7620 -2.5324
  185POPC   C3321304   1.496   0.315   3.370  0.2205  0.3349  0.2445
  185POPC   H3X21305   1.537   0.212   3.356  0.6274  0.4374  0.6282
  185POPC   H3Y21306   1.389   0.311   3.344 -0.2733  2.4107  1.7190
  185POPC   C3421307   1.516   0.346   3.517  0.8395  0.2028  0.0041
  185POPC   H4X21308   1.467   0.438   3.554  1.6421  0.2682  0.9408
  185POPC   H4Y21309   1.626   0.350   3.533  0.7430  0.1163  0.7128
  185POPC   C3521310   1.465   0.226   3.609  0.2253  0.3113  0.1887
  185POPC   H5X21311   1.514   0.133   3.574  1.6311  0.5804  1.3270
  185POPC   H5Y21312   1.358   0.210   3.584  0.6957 -0.8951 -1.2238
  185POPC   C3621313   1.490   0.238   3.761 -0.7944 -0.7660  1.0932
  185POPC   H6X21314   1.598   0.249   3.785 -0.0470  0.3563 -2.1979
  185POPC   H6Y21315   1.451   0.142   3.801  2.0876 -2.9224 -0.8575
  185POPC   C3721316   1.422   0.352   3.831 -0.0254 -0.1841  0.6703
  185POPC   H7X21317   1.315   0.346   3.802 -0.1093  0.4990  0.8302
  185POPC   H7Y21318   1.473   0.443   3.794  0.5959  0.6977  3.4420
  185POPC   C3821319   1.424   0.346   3.987  0.2359  0.5939 -0.1143
  185POPC   H8X21320   1.528   0.357   4.027  0.0447  0.6925  0.3636
  185POPC   H8Y21321   1.387   0.250   4.027 -0.2498  0.7669 -0.1479
  185POPC   C3921322   1.319   0.453   4.045 -0.0735  0.3522  0.0029
  185POPC   H9X21323   1.225   0.417   3.999  0.1010  0.3553 -0.3560
  185POPC   H9Y21324   1.344   0.558   4.020  1.3615  0.8026  2.8504
  185POPC  C31021325   1.303   0.451   4.199 -0.1202  0.2529  0.0947
  185POPC  H10X21326   1.396   0.485   4.250 -0.7298  0.1677  1.2754
  185POPC  H10Y21327   1.284   0.349   4.238  1.1612  0.1659  0.5413
  185POPC  C31121328   1.182   0.538   4.239  0.3199  0.6532  0.7033
  185POPC  H11X21329   1.110   0.530   4.154  0.3295 -0.8602  0.8180
  185POPC  H11Y21330   1.211   0.645   4.249 -0.1716  0.7212  1.4514
  185POPC  C31221331   1.119   0.500   4.366 -0.2928 -0.6558 -0.6030
  185POPC  H12X21332   1.120   0.390   4.385 -0.1748 -0.2773  1.9358
  185POPC  H12Y21333   1.013   0.532   4.357 -0.4411 -1.4879 -2.3508
  185POPC  C31321334   1.185   0.571   4.488  0.5238  1.2111  0.1866
  185POPC  H13X21335   1.155   0.678   4.485 -0.4235  0.9755 -2.9300
  185POPC  H13Y21336   1.295   0.560   4.478  0.9035  3.7560  0.8358
  185POPC  C31421337   1.136   0.510   4.620 -0.0367 -0.7915 -0.0657
  185POPC  H14X21338   1.198   0.539   4.708 -1.7843  1.9527  0.3982
  185POPC  H14Y21339   1.149   0.400   4.608 -1.7423 -0.9281 -0.9262
  185POPC  C31521340   0.993   0.532   4.657  0.1658  0.4937  0.8266
  185POPC  H15X21341   0.923   0.492   4.580  0.6295 -0.9775  1.1368
  185POPC  H15Y21342   0.960   0.638   4.664  1.2232  0.8034  1.3288
  185POPC  C31621343   0.951   0.445   4.782  0.3481  0.1072  0.0419
  185POPC  H16X21344   1.031   0.456   4.858  0.1592  1.2225  0.1031
  185POPC  H16Y21345   0.947   0.341   4.742 -1.0151 -0.5635  1.7902
  185POPC  H16Z21346   0.853   0.480   4.822  1.0456  2.2840 -0.0234
  186POPC     N21347   5.159   2.457   2.763  0.8510 -0.5356 -0.6830
  186POPC   C1221348   5.116   2.470   2.906 -0.2826  0.1317  0.4104
  186POPC  H12A21349   5.111   2.374   2.955  1.3483 -0.0752  0.2168
  186POPC  H12B21350   5.016   2.509   2.914 -0.3119  1.1135 -3.0406
  186POPC   C1321351   5.294   2.397   2.763 -0.8459 -0.6968  0.0075
  186POPC  H13A21352   5.326   2.400   2.660 -5.5633 -0.6121 -1.7184
  186POPC  H13B21353   5.360   2.453   2.828 -2.5761  1.2202  0.2176
  186POPC  H13C21354   5.307   2.301   2.810  2.4938  0.2338  1.2333
  186POPC   C1421355   5.064   2.355   2.698 -0.0961  0.2012 -0.0313
  186POPC  H14A21356   5.066   2.259   2.747 -3.8054  0.1766  0.4099
  186POPC  H14B21357   4.965   2.401   2.696  0.3666  1.2113 -0.8780
  186POPC  H14C21358   5.090   2.347   2.593  1.5532 -0.8937  0.4317
  186POPC   C1521359   5.148   2.581   2.674 -0.3776 -0.1982 -0.0624
  186POPC  H15A21360   5.165   2.557   2.570  0.0134 -1.4847  0.2801
  186POPC  H15B21361   5.219   2.650   2.717  2.1813 -1.8543 -1.3993
  186POPC  H15C21362   5.049   2.626   2.678 -0.8251 -0.8620  5.5470
  186POPC   C1121363   5.205   2.560   3.000 -0.7493 -0.1506 -0.4452
  186POPC  H11A21364   5.304   2.510   3.011 -0.8681 -0.2986 -0.0399
  186POPC  H11B21365   5.160   2.560   3.101  0.1497 -1.4062 -0.0179
  186POPC     P21366   5.110   2.793   2.968  0.3680 -0.1947  0.3193
  186POPC   O1321367   4.975   2.733   2.953 -0.1147  0.2659 -0.0618
  186POPC   O1421368   5.133   2.908   2.877  0.3678  0.5305  0.0607
  186POPC   O1221369   5.221   2.690   2.947 -0.2292  0.2862  0.1628
  186POPC   O1121370   5.128   2.837   3.117 -0.2392 -0.1741  0.1088
  186POPC    C121371   5.262   2.868   3.167  0.0066 -0.2641 -0.2792
  186POPC    HA21372   5.326   2.910   3.087 -1.8861  0.1490 -1.6583
  186POPC    HB21373   5.300   2.774   3.213 -0.1493 -0.5722 -0.7674
  186POPC    C221374   5.269   2.966   3.291 -0.1633  1.0727  0.1082
  186POPC    HS21375   5.375   2.973   3.322  0.8990 -2.5962 -2.1500
  186POPC   O2121376   5.197   2.904   3.402 -0.3573 -0.2079 -0.2006
  186POPC   C2121377   5.219   2.956   3.521 -0.0012  0.4085  0.1131
  186POPC   O2221378   5.305   3.044   3.547  0.9646  0.0074  0.1496
  186POPC   C2221379   5.102   2.915   3.612 -0.3613  0.0341 -0.2704
  186POPC   H2R21380   5.095   2.805   3.598  2.9901 -0.1083 -1.7824
  186POPC   H2S21381   5.009   2.971   3.589 -0.4876 -0.4313 -0.9162
  186POPC    C321382   5.215   3.105   3.247  0.5828 -0.0799  0.4385
  186POPC    HX21383   5.134   3.082   3.174  0.7455  0.2407  0.1530
  186POPC    HY21384   5.284   3.169   3.187  0.3742  0.7966  1.1081
  186POPC   O3121385   5.145   3.184   3.344 -0.2970 -0.0857  0.1123
  186POPC   C3121386   5.227   3.273   3.406 -0.0005  0.0404  0.4160
  186POPC   O3221387   5.347   3.286   3.394 -0.1336  0.0546  0.5437
  186POPC   C3221388   5.152   3.336   3.525  0.2138 -0.2913  0.1851
  186POPC   H2X21389   5.121   3.255   3.594  2.4162 -1.2939  0.0671
  186POPC   H2Y21390   5.056   3.372   3.482 -0.8764 -0.4019  2.3952
  186POPC   C2321391   5.135   2.931   3.763 -0.4723 -0.3655 -0.4573
  186POPC   H3R21392   5.148   3.034   3.803 -2.4982 -0.9964  2.0975
  186POPC   H3S21393   5.228   2.880   3.798  0.2241  1.6624  0.8929
  186POPC   C2421394   5.020   2.875   3.852  0.7757 -0.3923 -0.0720
  186POPC   H4R21395   4.985   2.782   3.804  1.0550 -0.8239  0.5451
  186POPC   H4S21396   4.949   2.959   3.865 -0.5241 -1.7840  2.6082
  186POPC   C2521397   5.073   2.836   3.995 -0.7525 -0.1778  0.0721
  186POPC   H5R21398   5.132   2.919   4.038 -3.3386  2.6089 -1.3270
  186POPC   H5S21399   5.136   2.749   3.967  1.3281  0.6340  1.9381
  186POPC   C2621400   4.966   2.790   4.093  0.1544 -0.3433  0.4381
  186POPC   H6R21401   4.907   2.703   4.058 -0.3235 -0.0232  0.4442
  186POPC   H6S21402   4.901   2.880   4.095 -0.9245 -0.9972 -1.8973
  186POPC   C2721403   5.015   2.766   4.235 -0.1139 -0.4912  0.1127
  186POPC   H7R21404   5.092   2.837   4.271 -1.8934  0.8290  1.4839
  186POPC   H7S21405   5.070   2.669   4.241  0.7630 -0.0612 -0.8462
  186POPC   C2821406   4.904   2.757   4.337  0.0935  0.7675  0.0191
  186POPC   H8R21407   4.858   2.656   4.336 -0.1992  0.8773  1.3594
  186POPC   H8S21408   4.820   2.828   4.320 -1.9034 -1.3438  0.5383
  186POPC   C2921409   4.947   2.793   4.477  0.5466  0.3876  0.0836
  186POPC   H9121410   4.964   2.899   4.500 -0.0271  0.3159  0.9261
  186POPC  C21021411   4.947   2.717   4.590  0.1727  0.2959  0.2882
  186POPC  H10121412   4.981   2.766   4.683 -1.2238  0.1379  0.9120
  186POPC  C21121413   4.932   2.567   4.587 -0.2613 -0.0676  0.0012
  186POPC  H11R21414   4.990   2.522   4.504  0.6787 -0.7797  1.0057
  186POPC  H11S21415   4.829   2.525   4.579  0.0036 -0.4359 -2.0783
  186POPC  C21221416   5.017   2.519   4.710  0.0479  0.4742  0.2873
  186POPC  H12R21417   5.127   2.537   4.706 -0.0903  1.1929 -1.4321
  186POPC  H12S21418   5.013   2.408   4.696 -0.2985  0.2788  1.8198
  186POPC  C21321419   4.946   2.552   4.843  0.1749  0.9154  0.0383
  186POPC  H13R21420   4.835   2.553   4.830  0.2020 -0.1365 -0.3457
  186POPC  H13S21421   4.966   2.657   4.874  0.9917  1.2142 -1.4310
  186POPC  C21421422   4.989   2.460   4.956 -0.4532 -0.8703 -0.2292
  186POPC  H14R21423   5.098   2.447   4.941 -0.5738 -0.6612 -1.3821
  186POPC  H14S21424   4.941   2.361   4.945  1.5255 -1.7630 -1.2402
  186POPC  C21521425   4.967   2.519   5.103 -0.2500  0.2309  0.2176
  186POPC  H15R21426   4.984   2.428   5.165  1.8663  1.0173  0.8732
  186POPC  H15S21427   4.858   2.539   5.112 -0.5974 -2.0139  1.5653
  186POPC  C21621428   5.064   2.623   5.155  0.0077 -0.0375 -0.0749
  186POPC  H16R21429   5.047   2.725   5.116  1.7531  0.2621 -0.1196
  186POPC  H16S21430   5.163   2.596   5.113  1.3485  1.4884  1.9606
  186POPC  C21721431   5.062   2.632   5.310 -0.7363 -0.1917 -0.4798
  186POPC  H17R21432   5.113   2.536   5.332 -0.4590  0.0479 -0.0620
  186POPC  H17S21433   4.962   2.646   5.358 -0.8057 -3.6202  0.6433
  186POPC  C21821434   5.160   2.738   5.351 -0.2603 -0.3662 -1.0959
  186POPC  H18R21435   5.185   2.706   5.455  0.5057 -1.2909 -1.5399
  186POPC  H18S21436   5.245   2.726   5.280  0.8210  0.4143  0.0176
  186POPC  H18T21437   5.126   2.842   5.370 -1.1686 -0.9188  0.5514
  186POPC   C3321438   5.240   3.434   3.605  0.4983  0.5207  0.3831
  186POPC   H3X21439   5.261   3.527   3.547 -0.1119 -0.7268 -1.9462
  186POPC   H3Y21440   5.338   3.394   3.639  0.0942  0.0976  1.0785
  186POPC   C3421441   5.177   3.473   3.739 -0.0143 -0.3430  0.3395
  186POPC   H4X21442   5.152   3.382   3.797 -0.9056 -1.9635 -2.3588
  186POPC   H4Y21443   5.086   3.535   3.723 -0.6589 -1.4822 -0.5857
  186POPC   C3521444   5.272   3.569   3.805  0.3345  0.4061  0.1904
  186POPC   H5X21445   5.292   3.644   3.726  1.0298 -0.5805 -0.6002
  186POPC   H5Y21446   5.366   3.514   3.824 -0.5329 -0.6998  1.4937
  186POPC   C3621447   5.196   3.617   3.930  0.4845  0.8146  0.0652
  186POPC   H6X21448   5.175   3.538   4.005  1.4197 -0.2051 -0.7199
  186POPC   H6Y21449   5.101   3.651   3.884  1.1518  0.1753 -1.8720
  186POPC   C3721450   5.282   3.726   3.993 -0.1192 -0.4379 -0.7027
  186POPC   H7X21451   5.312   3.799   3.914 -0.4272 -0.7253 -1.0877
  186POPC   H7Y21452   5.380   3.683   4.023  0.4453  0.7083 -0.8458
  186POPC   C3821453   5.221   3.796   4.115 -0.2749  0.2734 -0.7209
  186POPC   H8X21454   5.127   3.851   4.093  0.1136  0.6365 -1.5139
  186POPC   H8Y21455   5.301   3.869   4.142  2.7882 -2.8975 -0.4857
  186POPC   C3921456   5.203   3.710   4.242  0.1504 -0.4212 -0.7099
  186POPC   H9X21457   5.298   3.674   4.288  1.5030 -0.8099 -3.6141
  186POPC   H9Y21458   5.145   3.616   4.226  1.3559 -1.6642  1.6300
  186POPC  C31021459   5.131   3.798   4.339  0.5703  0.6356 -0.6696
  186POPC  H10X21460   5.028   3.800   4.299  0.6476 -2.4620 -1.2530
  186POPC  H10Y21461   5.181   3.898   4.344  2.6270 -0.3404  3.5923
  186POPC  C31121462   5.117   3.739   4.477  0.2764 -0.6175  0.4294
  186POPC  H11X21463   5.088   3.631   4.476  0.4147 -0.6600 -1.5898
  186POPC  H11Y21464   5.036   3.788   4.535  2.1457  0.3278  2.4059
  186POPC  C31221465   5.245   3.762   4.562  0.5295  0.0337  0.1189
  186POPC  H12X21466   5.329   3.698   4.527  0.4747 -0.7551  1.3828
  186POPC  H12Y21467   5.225   3.731   4.666 -1.5306  0.5321 -0.0753
  186POPC  C31321468   5.297   3.906   4.553 -0.4540 -0.3848 -0.0373
  186POPC  H13X21469   5.222   3.988   4.544  1.5596  1.3633 -2.2892
  186POPC  H13Y21470   5.344   3.898   4.453  0.5592  0.4366  0.3573
  186POPC  C31421471   5.397   3.942   4.664 -0.4606  0.1234 -0.1770
  186POPC  H14X21472   5.474   3.864   4.681 -1.0449 -0.3146  0.4533
  186POPC  H14Y21473   5.335   3.951   4.755  0.9397 -1.6437  1.0258
  186POPC  C31521474   5.474   4.077   4.639 -0.2517  0.1074 -0.0253
  186POPC  H15X21475   5.392   4.139   4.597 -0.9442 -1.1875 -0.6134
  186POPC  H15Y21476   5.557   4.072   4.566  1.7803  2.2923  1.9499
  186POPC  C31621477   5.520   4.139   4.775  0.7443 -0.3819 -0.4223
  186POPC  H16X21478   5.437   4.116   4.845  0.6323  0.4130 -0.2841
  186POPC  H16Y21479   5.542   4.248   4.767 -1.4026  0.1236 -0.0533
  186POPC  H16Z21480   5.613   4.087   4.807  2.0328  1.3095 -1.2211
  187POPC     N21481   2.451   5.865   2.480  0.7645  0.4973 -0.1871
  187POPC   C1221482   2.518   5.726   2.467 -0.0937 -0.8188  0.0671
  187POPC  H12A21483   2.477   5.661   2.543 -2.0792 -0.4371 -0.6297
  187POPC  H12B21484   2.625   5.734   2.473  0.0549 -0.4551 -2.1353
  187POPC   C1321485   2.484   5.923   2.613  0.1114 -0.0240  0.0730
  187POPC  H13A21486   2.591   5.932   2.610 -0.0617  2.3256 -0.3591
  187POPC  H13B21487   2.430   6.012   2.641 -0.5901 -0.8073  1.3696
  187POPC  H13C21488   2.452   5.845   2.681 -0.9639 -1.3239 -1.7986
  187POPC   C1421489   2.489   5.956   2.377 -0.1103 -0.5221  0.3341
  187POPC  H14A21490   2.458   5.921   2.280  1.4297  0.3984 -0.5401
  187POPC  H14B21491   2.430   6.044   2.399  1.8646  0.5114  1.8911
  187POPC  H14C21492   2.594   5.982   2.373 -0.4657  1.0402  0.5123
  187POPC   C1521493   2.303   5.855   2.487  0.2454  0.0145  0.5839
  187POPC  H15A21494   2.265   5.817   2.394 -0.6468 -0.1202  0.9981
  187POPC  H15B21495   2.257   5.951   2.503 -1.5355 -0.9634  1.6884
  187POPC  H15C21496   2.268   5.793   2.568 -1.9035  0.7316  0.2720
  187POPC   C1121497   2.497   5.662   2.324  0.7271 -0.2844  0.4532
  187POPC  H11A21498   2.389   5.672   2.302  1.0917  0.5282 -1.0741
  187POPC  H11B21499   2.520   5.554   2.330 -3.1558 -1.5434 -3.0102
  187POPC     P21500   2.725   5.708   2.195 -0.3662 -0.3597 -0.3909
  187POPC   O1321501   2.779   5.835   2.151 -0.0394 -0.1275  0.9622
  187POPC   O1421502   2.757   5.591   2.106 -0.5684 -0.1290 -0.0564
  187POPC   O1221503   2.567   5.722   2.216  0.0131  0.1854 -0.8374
  187POPC   O1121504   2.778   5.692   2.345  0.4148 -0.0679  0.5692
  187POPC    C121505   2.913   5.727   2.382  0.3113  0.2510 -0.1954
  187POPC    HA21506   2.962   5.785   2.301  0.6329  0.1346 -0.0875
  187POPC    HB21507   2.974   5.635   2.402  0.5337  0.6471  1.0013
  187POPC    C221508   2.911   5.791   2.529 -0.2261 -0.6519 -0.0223
  187POPC    HS21509   3.012   5.780   2.572 -0.8723  1.1976  2.1819
  187POPC   O2121510   2.818   5.718   2.617  0.8770  0.3906 -0.6670
  187POPC   C2121511   2.849   5.593   2.656  0.6088 -0.1403 -1.1972
  187POPC   O2221512   2.943   5.526   2.621  0.8944 -0.2055  0.8130
  187POPC   C2221513   2.750   5.542   2.746 -0.3514 -0.1954  0.3390
  187POPC   H2R21514   2.717   5.442   2.711  0.5554 -1.1588  2.1326
  187POPC   H2S21515   2.659   5.604   2.760 -0.9063 -0.7695 -0.6138
  187POPC    C321516   2.888   5.946   2.505  0.2359 -0.3863 -0.2677
  187POPC    HX21517   2.782   5.964   2.476 -0.3298 -2.4254  0.3706
  187POPC    HY21518   2.947   6.001   2.429 -1.9598  3.0964  0.3433
  187POPC   O3121519   2.936   6.015   2.623 -0.6711 -0.2267 -0.2557
  187POPC   C3121520   2.841   6.083   2.685 -0.2650 -0.9152  0.2393
  187POPC   O3221521   2.724   6.097   2.652 -0.2016  0.0281  0.0180
  187POPC   C3221522   2.906   6.144   2.811  0.1371 -0.5334 -0.6056
  187POPC   H2X21523   2.873   6.249   2.819 -0.2965 -0.7687  1.1407
  187POPC   H2Y21524   3.016   6.145   2.792  0.3449 -0.9092  0.4625
  187POPC   C2321525   2.806   5.532   2.894 -0.0451 -0.2257  0.2787
  187POPC   H3R21526   2.843   5.634   2.918  1.4679  0.4997 -4.1085
  187POPC   H3S21527   2.898   5.470   2.902  0.5798  0.6962  0.4501
  187POPC   C2421528   2.704   5.493   3.002  0.3245  0.4594 -0.4120
  187POPC   H4R21529   2.670   5.393   2.970  1.1329  0.9640 -3.0996
  187POPC   H4S21530   2.608   5.549   3.011 -0.2884 -0.5166 -0.7325
  187POPC   C2521531   2.767   5.474   3.142 -0.4318  0.9481  0.7113
  187POPC   H5R21532   2.854   5.405   3.142 -0.2706  1.1467  0.1264
  187POPC   H5S21533   2.680   5.430   3.197 -1.1747  2.0671  0.4693
  187POPC   C2621534   2.800   5.596   3.223  0.8589  0.3498  0.3612
  187POPC   H6R21535   2.711   5.657   3.252  0.4828 -0.7370  1.5662
  187POPC   H6S21536   2.870   5.653   3.158  0.0730  1.3522  0.3696
  187POPC   C2721537   2.882   5.556   3.349 -0.7433 -0.1979 -0.3392
  187POPC   H7R21538   2.905   5.656   3.392 -0.3826 -0.9296  1.2319
  187POPC   H7S21539   2.980   5.524   3.309 -0.5778  2.2816 -2.1627
  187POPC   C2821540   2.823   5.462   3.450 -0.1998 -0.2705 -0.6961
  187POPC   H8R21541   2.898   5.455   3.532 -1.4751 -1.0736  0.4316
  187POPC   H8S21542   2.793   5.360   3.417 -1.6497 -0.6309  1.5640
  187POPC   C2921543   2.693   5.526   3.500  0.0848 -0.1821  0.1234
  187POPC   H9121544   2.607   5.506   3.434  1.4620  2.0534 -2.5623
  187POPC  C21021545   2.681   5.617   3.593  0.1433 -0.6752  0.3741
  187POPC  H10121546   2.577   5.642   3.619 -0.3656 -2.2959  0.0214
  187POPC  C21121547   2.783   5.687   3.684 -0.4239 -0.4215 -0.0900
  187POPC  H11R21548   2.821   5.786   3.652 -3.3005  1.6270  2.3546
  187POPC  H11S21549   2.878   5.629   3.677 -0.3963 -0.2180 -2.4348
  187POPC  C21221550   2.733   5.698   3.827  0.6277 -0.1094  0.2993
  187POPC  H12R21551   2.696   5.598   3.859  1.9009 -0.6122  0.2713
  187POPC  H12S21552   2.650   5.771   3.827  1.7148  1.2258  2.1459
  187POPC  C21321553   2.836   5.767   3.921 -0.2530  0.1795 -0.5609
  187POPC  H13R21554   2.856   5.868   3.879 -1.1706 -0.0509 -1.5893
  187POPC  H13S21555   2.929   5.705   3.919  0.0515  0.6404 -1.1440
  187POPC  C21421556   2.795   5.791   4.072 -0.6117  0.3110 -0.0869
  187POPC  H14R21557   2.691   5.829   4.066 -0.4474  0.6716 -0.8952
  187POPC  H14S21558   2.859   5.868   4.121  1.0545  0.6748 -2.6264
  187POPC  C21521559   2.800   5.663   4.149 -0.0266  0.2355  0.4150
  187POPC  H15R21560   2.896   5.615   4.122  0.2653  1.6928 -1.3849
  187POPC  H15S21561   2.718   5.604   4.103 -0.4126  1.9019 -1.1818
  187POPC  C21621562   2.786   5.680   4.301  0.5065 -0.2808 -0.2240
  187POPC  H16R21563   2.876   5.738   4.331 -0.5981  1.0765  0.6141
  187POPC  H16S21564   2.787   5.577   4.341 -3.0152  0.6547  2.8316
  187POPC  C21721565   2.653   5.739   4.351 -0.3577 -0.2808  0.6160
  187POPC  H17R21566   2.568   5.673   4.322 -0.8631  0.1861  0.9892
  187POPC  H17S21567   2.635   5.842   4.312  2.0132  0.6457  1.7944
  187POPC  C21821568   2.643   5.757   4.503  0.1006 -0.1026  0.0150
  187POPC  H18R21569   2.545   5.806   4.520  0.5205  0.0653  2.2422
  187POPC  H18S21570   2.726   5.813   4.551 -1.6298 -0.0646  3.2716
  187POPC  H18T21571   2.644   5.659   4.557 -0.4508 -1.5124 -2.3915
  187POPC   C3321572   2.874   6.071   2.947  0.1602 -0.4865  0.0161
  187POPC   H3X21573   2.908   5.967   2.931 -2.2919 -1.0733 -1.9450
  187POPC   H3Y21574   2.764   6.066   2.956 -0.0066  1.1861 -0.5868
  187POPC   C3421575   2.957   6.129   3.062 -0.2137 -0.9076 -0.5575
  187POPC   H4X21576   2.925   6.235   3.071  1.0818 -0.6093  1.0575
  187POPC   H4Y21577   3.067   6.126   3.047  0.1003  1.7428  0.6418
  187POPC   C3521578   2.923   6.054   3.196  0.3327 -0.3362 -0.1579
  187POPC   H5X21579   2.966   5.952   3.188  1.2444 -0.2043  2.2033
  187POPC   H5Y21580   2.812   6.054   3.196  0.2478  2.6566 -0.9016
  187POPC   C3621581   2.962   6.137   3.319 -0.1203 -0.3078  0.0535
  187POPC   H6X21582   2.915   6.238   3.313 -2.9828 -1.4521  1.2392
  187POPC   H6Y21583   3.067   6.172   3.304 -0.0714 -0.9600 -1.2613
  187POPC   C3721584   2.921   6.075   3.449  0.4440  0.1510 -0.1037
  187POPC   H7X21585   2.949   5.971   3.477 -1.5148 -0.4671 -0.2864
  187POPC   H7Y21586   2.810   6.069   3.443  0.2030  1.4618  2.0564
  187POPC   C3821587   2.959   6.174   3.566  0.0230  0.3619 -0.8298
  187POPC   H8X21588   2.943   6.281   3.542  1.0506  0.9626  0.9929
  187POPC   H8Y21589   3.066   6.156   3.587 -0.6115 -2.0097  0.8127
  187POPC   C3921590   2.895   6.129   3.698  0.4607 -0.3224 -0.4175
  187POPC   H9X21591   2.916   6.024   3.727  4.0010  0.9102  2.2787
  187POPC   H9Y21592   2.787   6.152   3.690  0.9055  2.0361 -0.5333
  187POPC  C31021593   2.932   6.222   3.823 -0.3064 -0.5896  0.4496
  187POPC  H10X21594   2.914   6.329   3.798  2.0049  0.0301  1.1795
  187POPC  H10Y21595   3.041   6.227   3.839 -0.5435 -0.4358  2.2498
  187POPC  C31121596   2.863   6.196   3.955 -0.3895  0.2879 -0.2886
  187POPC  H11X21597   2.848   6.086   3.963 -1.4936  0.4988  0.7620
  187POPC  H11Y21598   2.765   6.248   3.954  0.1155  1.3841  1.5601
  187POPC  C31221599   2.945   6.259   4.068  0.0420 -0.6121  0.6583
  187POPC  H12X21600   2.926   6.367   4.088  1.4811 -0.7796  3.5099
  187POPC  H12Y21601   3.050   6.249   4.034 -0.0918  0.1384  0.0005
  187POPC  C31321602   2.941   6.184   4.198  0.4429 -0.6409 -0.2433
  187POPC  H13X21603   2.938   6.075   4.180 -1.6396 -0.3497 -2.1193
  187POPC  H13Y21604   2.849   6.183   4.261  0.7635 -0.3246  0.2325
  187POPC  C31421605   3.052   6.234   4.283 -0.1085 -0.0440  0.0712
  187POPC  H14X21606   3.081   6.341   4.269 -0.8874  0.3849  1.5742
  187POPC  H14Y21607   3.146   6.180   4.257  0.2778  1.4387 -1.8923
  187POPC  C31521608   3.013   6.226   4.436  0.3450  0.6984 -0.2015
  187POPC  H15X21609   2.977   6.121   4.445 -1.8412  1.4821  0.8641
  187POPC  H15Y21610   2.929   6.297   4.442  0.3119  0.6929 -0.5443
  187POPC  C31621611   3.130   6.251   4.537  0.4278  0.0366 -0.5580
  187POPC  H16X21612   3.172   6.353   4.522  0.3771 -0.1274 -1.9692
  187POPC  H16Y21613   3.219   6.187   4.520  0.1657 -0.1783 -1.1686
  187POPC  H16Z21614   3.102   6.241   4.644  0.8872 -1.4961 -0.5595
  188POPC     N21615   1.595   0.127   2.346  0.9487  0.2001 -0.3092
  188POPC   C1221616   1.677   0.077   2.470  0.2850 -0.2001  0.4590
  188POPC  H12A21617   1.704   0.172   2.514 -2.3485  1.1602 -0.6518
  188POPC  H12B21618   1.766   0.022   2.442  0.2898 -0.8386  1.6701
  188POPC   C1321619   1.548   0.015   2.261  0.5942  0.2219 -0.0250
  188POPC  H13A21620   1.473  -0.046   2.309  1.1678 -0.7704 -0.3705
  188POPC  H13B21621   1.502   0.051   2.170  0.1002  1.7940  0.8036
  188POPC  H13C21622   1.626  -0.049   2.225 -1.2536 -2.7680  0.9115
  188POPC   C1421623   1.480   0.212   2.394  0.5030  0.0244  0.0982
  188POPC  H14A21624   1.505   0.281   2.474 -0.9839  0.8909 -0.1595
  188POPC  H14B21625   1.433   0.266   2.314 -0.6667  0.2039  0.8707
  188POPC  H14C21626   1.394   0.164   2.437  0.5320 -1.5884 -1.5319
  188POPC   C1521627   1.681   0.212   2.272 -0.1164  0.2074  0.1132
  188POPC  H15A21628   1.706   0.305   2.320 -0.5588  0.0231  0.7120
  188POPC  H15B21629   1.640   0.240   2.176 -0.6793  0.9596  0.5683
  188POPC  H15C21630   1.772   0.158   2.251  0.3138  1.6520 -1.9974
  188POPC   C1121631   1.598  -0.009   2.570 -0.3224  0.2142  0.0182
  188POPC  H11A21632   1.499   0.039   2.589 -1.9401 -2.8511  0.1105
  188POPC  H11B21633   1.643  -0.003   2.671 -1.5430  3.6105  0.4965
  188POPC     P21634   1.680  -0.258   2.522  0.6419  0.0081  0.0670
  188POPC   O1321635   1.802  -0.221   2.445  0.1921 -0.1324  0.2501
  188POPC   O1421636   1.605  -0.378   2.486  0.6420 -0.3780 -0.0400
  188POPC   O1221637   1.576  -0.135   2.516 -0.1483  1.2065  0.2161
  188POPC   O1121638   1.717  -0.270   2.674  0.0164 -0.1668  0.6555
  188POPC    C121639   1.631  -0.334   2.780 -0.1900 -0.0893 -0.4942
  188POPC    HA21640   1.696  -0.400   2.841  0.7867  0.1511 -1.2505
  188POPC    HB21641   1.554  -0.405   2.743 -0.0590 -0.9282  0.7792
  188POPC    C221642   1.556  -0.226   2.859  0.5437 -0.4101  0.5611
  188POPC    HS21643   1.488  -0.176   2.787  0.6579 -1.8342 -0.5900
  188POPC   O2121644   1.656  -0.129   2.891 -0.1913  0.1042  0.3577
  188POPC   C2121645   1.619  -0.004   2.933 -0.2736  1.0026  0.5780
  188POPC   O2221646   1.505   0.029   2.945  0.0226 -0.1572  0.5638
  188POPC   C2221647   1.754   0.077   2.960  0.5090  0.5632  0.1897
  188POPC   H2R21648   1.719   0.182   2.966  2.3441  1.4209 -2.4279
  188POPC   H2S21649   1.809   0.072   2.864  0.9752  1.0920  0.4217
  188POPC    C321650   1.482  -0.303   2.968 -0.0225 -0.4215  0.3960
  188POPC    HX21651   1.506  -0.410   2.978  2.4832 -0.0987 -1.3865
  188POPC    HY21652   1.383  -0.313   2.918 -1.2778 -0.0989  2.6509
  188POPC   O3121653   1.468  -0.237   3.100 -0.6413  0.0287  0.3281
  188POPC   C3121654   1.560  -0.280   3.190  0.1650 -1.0512 -0.0109
  188POPC   O3221655   1.636  -0.370   3.174 -0.1072 -0.0175  0.1221
  188POPC   C3221656   1.556  -0.190   3.315 -0.3980 -0.1738 -0.6587
  188POPC   H2X21657   1.467  -0.126   3.297 -1.0905 -0.9118  0.1348
  188POPC   H2Y21658   1.648  -0.128   3.305  1.2141 -2.4481 -0.6410
  188POPC   C2321659   1.835   0.036   3.076  0.2714 -0.2210 -0.3267
  188POPC   H3R21660   1.940   0.070   3.063 -0.5729  2.6966 -0.1564
  188POPC   H3S21661   1.831  -0.075   3.078 -3.2814 -0.3010 -2.3357
  188POPC   C2421662   1.793   0.090   3.212 -0.0382 -0.7867 -0.2364
  188POPC   H4R21663   1.687   0.060   3.231  0.5622 -2.4727  0.6655
  188POPC   H4S21664   1.777   0.200   3.200 -2.6823 -1.2085 -1.3074
  188POPC   C2521665   1.872   0.052   3.333 -0.4976 -0.6049 -0.1877
  188POPC   H5R21666   1.975   0.083   3.305 -0.2575 -0.6965  0.5491
  188POPC   H5S21667   1.878  -0.056   3.360  2.4281 -0.2072  1.1559
  188POPC   C2621668   1.829   0.121   3.457 -0.0164  0.5953 -0.8645
  188POPC   H6R21669   1.729   0.094   3.499 -0.5309  3.5918  0.0974
  188POPC   H6S21670   1.830   0.231   3.444  1.7664  0.7320  0.2261
  188POPC   C2721671   1.924   0.078   3.567  0.3286  0.0058 -0.5473
  188POPC   H7R21672   2.009   0.148   3.580  0.6249 -0.4387 -0.0562
  188POPC   H7S21673   1.956  -0.027   3.554  0.1333 -0.0898 -0.2869
  188POPC   C2821674   1.863   0.075   3.710  0.0034 -0.1558 -0.1255
  188POPC   H8R21675   1.788   0.158   3.718 -0.5047 -0.6073 -0.1524
  188POPC   H8S21676   1.943   0.093   3.785  1.4765 -2.1463 -1.1333
  188POPC   C2921677   1.814  -0.056   3.759 -0.7491  0.6094  0.4549
  188POPC   H9121678   1.842  -0.141   3.695 -0.9561  0.0515  1.1041
  188POPC  C21021679   1.752  -0.079   3.873 -0.2206  0.0431 -0.1168
  188POPC  H10121680   1.718  -0.184   3.876  0.6741 -0.3318 -2.0215
  188POPC  C21121681   1.727   0.016   3.985  0.5043 -0.5113  0.3989
  188POPC  H11R21682   1.624   0.009   4.024  1.8690 -1.5515  4.2039
  188POPC  H11S21683   1.715   0.121   3.948  0.4305 -0.1167  1.5249
  188POPC  C21221684   1.815   0.001   4.111 -0.6898  0.1870 -0.4106
  188POPC  H12R21685   1.922   0.024   4.090 -0.0314 -0.9260  1.5181
  188POPC  H12S21686   1.820  -0.101   4.156 -0.6894  0.5886  0.5178
  188POPC  C21321687   1.771   0.104   4.213  0.6171  1.0156 -0.9367
  188POPC  H13R21688   1.737   0.196   4.159 -1.5905  1.6510  1.3633
  188POPC  H13S21689   1.852   0.138   4.281  0.0848  0.9620 -0.2755
  188POPC  C21421690   1.671   0.056   4.306 -0.5827 -0.5466  0.1506
  188POPC  H14R21691   1.716  -0.026   4.366 -0.2405 -0.4633  0.0119
  188POPC  H14S21692   1.583   0.013   4.253 -0.5380  0.5897 -0.8895
  188POPC  C21521693   1.614   0.164   4.396  0.2157  0.1806 -0.1865
  188POPC  H15R21694   1.539   0.236   4.357 -1.0852 -0.3823  1.1404
  188POPC  H15S21695   1.694   0.235   4.426 -0.2269  0.3934  0.5262
  188POPC  C21621696   1.564   0.113   4.533 -0.4930  0.3785 -0.1794
  188POPC  H16R21697   1.532   0.206   4.584  0.6832  0.0756  1.1758
  188POPC  H16S21698   1.647   0.081   4.601 -0.0074  1.3264 -0.3158
  188POPC  C21721699   1.457   0.009   4.529 -0.0271 -0.0733 -0.3309
  188POPC  H17R21700   1.490  -0.093   4.500  2.0888  0.1763  0.9803
  188POPC  H17S21701   1.375   0.032   4.458 -0.3213  0.3932  0.1530
  188POPC  C21821702   1.385  -0.001   4.664  0.1296  0.1453  0.0806
  188POPC  H18R21703   1.351   0.102   4.690  3.4829  1.5151 -0.3952
  188POPC  H18S21704   1.458  -0.034   4.741  0.6425  2.1015  0.5010
  188POPC  H18T21705   1.301  -0.073   4.662  2.4175 -2.7460  0.2794
  188POPC   C3321706   1.556  -0.257   3.454 -0.3028 -0.1695  0.6299
  188POPC   H3X21707   1.558  -0.169   3.522  1.2000  2.9590 -3.0802
  188POPC   H3Y21708   1.654  -0.308   3.464 -0.5862 -0.6954  0.7624
  188POPC   C3421709   1.442  -0.352   3.476 -0.1411 -0.2728 -0.2760
  188POPC   H4X21710   1.473  -0.450   3.434  2.4427 -0.3716  1.6388
  188POPC   H4Y21711   1.353  -0.314   3.421 -0.2604  1.8712  1.2820
  188POPC   C3521712   1.412  -0.379   3.630 -0.1554 -0.2796 -0.5991
  188POPC   H5X21713   1.506  -0.407   3.683  0.1388  0.0016 -0.9578
  188POPC   H5Y21714   1.355  -0.474   3.637 -1.1622  0.3244 -0.4675
  188POPC   C3621715   1.335  -0.276   3.707  0.3026 -0.2899 -0.1032
  188POPC   H6X21716   1.226  -0.294   3.693  0.2682 -0.5392  0.4524
  188POPC   H6Y21717   1.366  -0.176   3.671  0.1347  0.7110  2.3552
  188POPC   C3721718   1.359  -0.290   3.855  0.8164  0.3269  0.6660
  188POPC   H7X21719   1.307  -0.214   3.917  0.2296  0.8549 -0.4398
  188POPC   H7Y21720   1.467  -0.272   3.870  1.1617 -0.0309 -1.1077
  188POPC   C3821721   1.334  -0.431   3.905  0.1167 -0.3256 -0.2135
  188POPC   H8X21722   1.402  -0.510   3.869 -1.2935 -2.2730  1.1749
  188POPC   H8Y21723   1.227  -0.458   3.888 -0.3952  1.4228  0.0142
  188POPC   C3921724   1.326  -0.430   4.065 -0.5646  0.0155 -0.4218
  188POPC   H9X21725   1.285  -0.532   4.084 -2.1998  0.7557  0.2127
  188POPC   H9Y21726   1.245  -0.359   4.092 -0.3565 -0.1419  0.6323
  188POPC  C31021727   1.457  -0.405   4.138  0.5371  0.4115  0.9992
  188POPC  H10X21728   1.507  -0.312   4.104  1.2965 -0.7093 -1.1756
  188POPC  H10Y21729   1.527  -0.490   4.128  0.5246  0.2199  2.3655
  188POPC  C31121730   1.443  -0.396   4.291  0.0451 -0.1722 -0.0763
  188POPC  H11X21731   1.434  -0.501   4.327 -0.7907  0.5681  2.0942
  188POPC  H11Y21732   1.355  -0.343   4.333  1.1471  1.0493  0.7817
  188POPC  C31221733   1.576  -0.336   4.346  0.6874  0.6026  0.0450
  188POPC  H12X21734   1.585  -0.231   4.310 -1.1116  2.1575  3.5892
  188POPC  H12Y21735   1.659  -0.387   4.294 -0.3744 -0.1320 -0.9535
  188POPC  C31321736   1.584  -0.354   4.498 -0.7047  0.0459 -0.6355
  188POPC  H13X21737   1.605  -0.461   4.519 -2.2253 -0.4274 -1.3926
  188POPC  H13Y21738   1.495  -0.322   4.556  0.8431 -2.1209  3.4216
  188POPC  C31421739   1.696  -0.274   4.563 -0.1019 -0.4133  0.4230
  188POPC  H14X21740   1.685  -0.164   4.552  1.1947 -0.0847  1.9545
  188POPC  H14Y21741   1.798  -0.287   4.520 -0.1925 -0.7396  0.2997
  188POPC  C31521742   1.702  -0.287   4.722 -0.2466 -0.2903  0.1804
  188POPC  H15X21743   1.616  -0.351   4.751  1.0291 -2.0836  0.1967
  188POPC  H15Y21744   1.687  -0.183   4.758 -0.9695 -0.3351  0.0311
  188POPC  C31621745   1.837  -0.339   4.767 -0.1169  0.2970  0.8157
  188POPC  H16X21746   1.833  -0.362   4.876 -0.8238  0.0042  0.7288
  188POPC  H16Y21747   1.919  -0.264   4.756  0.8916 -0.5037  2.3851
  188POPC  H16Z21748   1.868  -0.429   4.709 -0.2161  1.3142 -0.8824
  189SAPI   C1221749   4.271   6.367   6.884 -0.0024 -0.2296 -0.6562
  189SAPI    H221750   4.247   6.465   6.838  0.9571  1.6903  2.5497
  189SAPI    O221751   4.160   6.276   6.864 -0.1362 -0.5135 -0.0287
  189SAPI   HO221752   4.109   6.288   6.945  1.0378  1.2290  0.5197
  189SAPI   C1321753   4.388   6.307   6.816 -0.0450  0.1092  0.1846
  189SAPI    H321754   4.467   6.385   6.811  0.1158 -0.0404  0.3923
  189SAPI    O321755   4.360   6.285   6.674  0.4553 -0.5455  0.1199
  189SAPI   HO321756   4.301   6.211   6.659  0.4399 -0.1891 -1.8590
  189SAPI   C1421757   4.440   6.187   6.888 -0.2622 -0.5481  0.4606
  189SAPI    H421758   4.373   6.101   6.865 -2.3749  0.7126  1.5026
  189SAPI    O421759   4.572   6.161   6.832  0.2546  0.1198  0.0718
  189SAPI   HO421760   4.562   6.076   6.790  0.8532 -0.0583  0.2724
  189SAPI   C1521761   4.454   6.196   7.037 -0.2068 -0.9017 -1.0067
  189SAPI    H521762   4.550   6.249   7.057  0.0407 -1.8395  0.4416
  189SAPI    O521763   4.476   6.062   7.089 -0.4855  0.2088 -0.1458
  189SAPI   HO521764   4.407   6.004   7.055 -1.8152  0.6782  1.5796
  189SAPI   C1621765   4.354   6.283   7.111 -0.2468 -0.0850 -0.9527
  189SAPI    H621766   4.272   6.210   7.126  0.6027 -0.9247 -0.2330
  189SAPI    O621767   4.393   6.314   7.248 -0.2080 -0.4948  0.4197
  189SAPI   HO621768   4.339   6.384   7.284  0.2595 -1.0415  2.2594
  189SAPI   C1121769   4.299   6.401   7.038 -0.4184  1.1803 -0.0894
  189SAPI    H121770   4.380   6.476   7.026  0.9471  0.3550  3.1580
  189SAPI     P21771   4.174   6.566   7.222  0.3239 -0.3414 -0.1722
  189SAPI   O1321772   4.266   6.527   7.331 -0.0678  0.3707 -0.2341
  189SAPI   O1421773   4.036   6.581   7.276 -0.5507  0.3734  0.5108
  189SAPI   O1221774   4.184   6.460   7.096 -0.0802  0.3054  0.1499
  189SAPI   O1121775   4.222   6.698   7.159 -0.1126  0.5225 -0.0265
  189SAPI    C121776   4.131   6.793   7.093  0.3092 -0.1582  0.1490
  189SAPI    HA21777   4.024   6.775   7.120  0.8761 -1.5351  1.5898
  189SAPI    HB21778   4.145   6.898   7.128  0.7092  0.2662 -1.1951
  189SAPI    C221779   4.141   6.806   6.940 -0.3484 -0.0387  0.9323
  189SAPI    HS21780   4.096   6.903   6.909 -1.8996 -1.5012 -1.7070
  189SAPI   O2121781   4.063   6.706   6.876 -0.1583 -0.3203  0.4033
  189SAPI   C2121782   4.041   6.718   6.753 -0.1960  0.4458  0.0516
  189SAPI   O2221783   4.044   6.825   6.691 -0.3480 -0.4125 -0.3209
  189SAPI   C2221784   4.026   6.574   6.690  0.1973 -0.0822 -0.3078
  189SAPI   H2R21785   4.012   6.500   6.772 -1.8947  1.7141  1.0716
  189SAPI   H2S21786   3.922   6.584   6.653 -0.7067  3.0633  2.5370
  189SAPI    C321787   4.297   6.808   6.898  0.7439  0.5209  0.5205
  189SAPI    HX21788   4.344   6.714   6.933  1.0674  0.0246 -1.1317
  189SAPI    HY21789   4.346   6.895   6.946  0.3956  0.5797  0.7765
  189SAPI   O3121790   4.313   6.820   6.756 -0.0526 -0.4081 -0.1699
  189SAPI   C3121791   4.318   6.946   6.709 -0.1131 -0.0795  0.3908
  189SAPI   O3221792   4.343   7.044   6.780  0.3311  0.0770  0.4372
  189SAPI   C3221793   4.319   6.955   6.555  0.0380 -0.3281 -0.0985
  189SAPI   H2X21794   4.219   6.998   6.531 -0.2027  0.6690  2.4486
  189SAPI   H2Y21795   4.322   6.859   6.500  2.2618 -0.5308  0.2697
  189SAPI   C2321796   4.126   6.549   6.578 -0.5359  0.4033  0.2545
  189SAPI   H3R21797   4.224   6.553   6.631  0.1146  0.0963 -0.8918
  189SAPI   H3S21798   4.121   6.640   6.515 -0.0863  1.9283  2.2932
  189SAPI   C2421799   4.120   6.412   6.506 -0.0104 -0.0322  0.1574
  189SAPI   H4R21800   4.112   6.329   6.578  1.6808 -2.0831 -1.8511
  189SAPI   H4S21801   4.224   6.395   6.469 -0.0194 -0.4871  0.3448
  189SAPI   C2521802   4.016   6.413   6.396 -0.9771 -0.0885  0.3320
  189SAPI   H5R21803   3.912   6.418   6.433 -1.2849  1.4357 -0.6384
  189SAPI   C2621804   4.043   6.407   6.266  0.1931  0.0924 -0.0327
  189SAPI   H6R21805   3.959   6.393   6.197  0.4739 -1.6614 -0.0592
  189SAPI   C2721806   4.175   6.405   6.192  0.4255  0.1556  0.0179
  189SAPI   H7R21807   4.256   6.402   6.268  0.1091 -4.2946  0.4915
  189SAPI   H7S21808   4.186   6.495   6.129  2.0217  0.7702  1.1234
  189SAPI   C2821809   4.189   6.279   6.108  0.2683  0.0878 -0.4255
  189SAPI   H8R21810   4.240   6.190   6.147  0.5694  0.0115 -0.9864
  189SAPI   C2921811   4.158   6.266   5.979  0.7378  0.2827  0.2002
  189SAPI   H9R21812   4.187   6.176   5.922  1.1149  0.6389 -0.1762
  189SAPI  C21021813   4.085   6.374   5.903  0.2226  0.0788  0.9132
  189SAPI  H10R21814   4.017   6.440   5.962  0.6666  1.1665  0.2386
  189SAPI  H10S21815   4.007   6.318   5.847 -0.9832  1.8988  0.6888
  189SAPI  C21121816   4.165   6.470   5.814  0.6037 -0.0675 -0.1346
  189SAPI  H11R21817   4.242   6.531   5.863  0.4746  0.9347 -1.1243
  189SAPI  C21221818   4.142   6.479   5.676  0.0652 -0.4678 -0.6445
  189SAPI  H12R21819   4.201   6.558   5.626 -0.2271 -1.5810 -2.8330
  189SAPI  C21321820   4.046   6.414   5.585  0.0357  0.4163 -0.5692
  189SAPI  H13R21821   4.051   6.462   5.485 -2.3714 -2.2432 -2.1091
  189SAPI  H13S21822   3.943   6.428   5.625  0.1661  0.8025 -0.3583
  189SAPI  C21421823   4.074   6.269   5.569  0.0140  0.3605  0.2709
  189SAPI  H14R21824   4.122   6.220   5.656  0.6643  2.4313  1.1547
  189SAPI  C21521825   4.068   6.202   5.454  0.2506 -0.1157  0.5480
  189SAPI  H15R21826   4.084   6.094   5.440 -1.1060 -0.1284 -1.2810
  189SAPI  C21621827   4.025   6.257   5.318 -0.1615 -0.3540  0.0934
  189SAPI  H16R21828   4.108   6.291   5.253 -0.1953  1.5411  0.9877
  189SAPI  H16S21829   3.964   6.349   5.333  0.4534  0.0147  0.3705
  189SAPI  C21721830   3.932   6.156   5.246 -1.4955  0.3459  0.0988
  189SAPI  H17R21831   3.846   6.142   5.314  0.0810 -0.5491  2.0111
  189SAPI  H17S21832   3.985   6.059   5.243  1.2868  1.7218  0.7630
  189SAPI  C21821833   3.893   6.202   5.108  0.1538 -0.3982  0.8453
  189SAPI  H18R21834   3.962   6.286   5.085  0.4133 -0.2115  2.2518
  189SAPI  H18S21835   3.793   6.251   5.112 -0.6198 -1.9943  1.7747
  189SAPI  C21921836   3.885   6.089   5.003  0.7298 -0.4704 -0.3260
  189SAPI  H19R21837   3.978   6.029   5.006  2.2203  1.7504 -0.1505
  189SAPI  H19S21838   3.873   6.152   4.912 -1.5983  0.6191  0.6546
  189SAPI  C22021839   3.767   6.007   5.035  0.4645  0.4000 -0.0821
  189SAPI  H20R21840   3.675   6.070   5.031 -0.4253 -0.4687  3.1315
  189SAPI  H20S21841   3.767   5.952   5.132 -3.6991 -2.3665 -1.3241
  189SAPI  H20T21842   3.758   5.924   4.962 -0.1767 -0.4154  0.8909
  189SAPI   C3321843   4.428   7.049   6.493  0.2066  0.0914  0.4521
  189SAPI   H3X21844   4.527   7.019   6.532  0.3757 -1.3003 -0.9317
  189SAPI   H3Y21845   4.408   7.148   6.538  0.1273  1.0380 -1.5712
  189SAPI   C3421846   4.414   7.069   6.341 -0.3176  0.2407  0.3381
  189SAPI   H4X21847   4.320   7.126   6.324 -1.7014 -2.2263 -0.7671
  189SAPI   H4Y21848   4.400   6.975   6.283  0.8299  1.2163 -1.6341
  189SAPI   C3521849   4.542   7.136   6.284 -0.9587  0.5617  0.1371
  189SAPI   H5X21850   4.628   7.069   6.263 -0.8619  1.1803 -1.5999
  189SAPI   H5Y21851   4.586   7.216   6.348  0.8503  0.1768 -0.5515
  189SAPI   C3621852   4.525   7.197   6.149 -0.0496 -0.3723 -0.1335
  189SAPI   H6X21853   4.629   7.224   6.122  0.5364 -0.0149  2.2505
  189SAPI   H6Y21854   4.458   7.286   6.157  0.3306 -0.1353  0.4384
  189SAPI   C3721855   4.476   7.101   6.043  0.1348 -0.2544  0.7535
  189SAPI   H7X21856   4.372   7.081   6.077 -0.5843 -0.6458 -1.4964
  189SAPI   H7Y21857   4.523   7.001   6.031 -1.6819 -1.0791  0.1425
  189SAPI   C3821858   4.466   7.160   5.901 -0.9023  0.2048 -0.3484
  189SAPI   H8X21859   4.557   7.213   5.867 -1.3349  1.1468 -0.0596
  189SAPI   H8Y21860   4.389   7.239   5.913  0.2138  1.1277  0.9768
  189SAPI   C3921861   4.412   7.065   5.798  0.0649  1.0307 -0.1728
  189SAPI   H9X21862   4.309   7.031   5.822 -0.4142  3.2808  1.2992
  189SAPI   H9Y21863   4.478   6.976   5.800  0.7548  1.5550  1.5932
  189SAPI  C31021864   4.410   7.120   5.650 -0.0029  0.0586  0.1674
  189SAPI  H10X21865   4.388   7.228   5.658 -0.3044 -0.1290  3.1712
  189SAPI  H10Y21866   4.330   7.068   5.594 -0.6433  2.3441 -1.1632
  189SAPI  C31121867   4.537   7.112   5.567  0.5857 -0.1156  0.7372
  189SAPI  H11X21868   4.562   7.008   5.535  1.3210 -0.4375  2.2861
  189SAPI  H11Y21869   4.616   7.147   5.636 -1.3952  3.0136  1.5956
  189SAPI  C31221870   4.517   7.199   5.444  0.3654 -0.2401  0.3982
  189SAPI  H12X21871   4.508   7.304   5.478  1.8579 -0.0212  0.1633
  189SAPI  H12Y21872   4.433   7.163   5.380  0.6754  1.7008 -1.2114
  189SAPI  C31321873   4.642   7.183   5.360 -0.1383 -0.7831 -0.0359
  189SAPI  H13X21874   4.653   7.087   5.305  1.3199 -1.4230  1.2933
  189SAPI  H13Y21875   4.732   7.185   5.425  1.0210 -1.2522 -1.5692
  189SAPI  C31421876   4.653   7.289   5.245  0.4113 -0.5755 -0.2992
  189SAPI  H14X21877   4.666   7.382   5.304  2.4022 -2.2244  2.0269
  189SAPI  H14Y21878   4.551   7.291   5.201  0.3013  1.0516 -0.0343
  189SAPI  C31521879   4.764   7.264   5.139  0.4952 -0.0316 -0.0155
  189SAPI  H15X21880   4.855   7.233   5.193  0.8857 -0.7123 -1.0306
  189SAPI  H15Y21881   4.789   7.354   5.079  0.6982 -0.0398  0.0582
  189SAPI  C31621882   4.744   7.148   5.042 -0.0054  0.6258 -1.3682
  189SAPI  H16X21883   4.737   7.062   5.112  0.8964  3.9365  3.2637
  189SAPI  H16Y21884   4.840   7.135   4.989  0.8048 -1.2605  0.4181
  189SAPI  C31721885   4.628   7.167   4.949  0.1740 -0.4426 -0.1488
  189SAPI  H17X21886   4.668   7.207   4.854  0.0658 -0.7431 -0.3214
  189SAPI  H17Y21887   4.553   7.233   4.997 -0.5972 -2.2354  1.2390
  189SAPI  C31821888   4.555   7.037   4.919 -0.0210 -0.4467  0.9963
  189SAPI  H18X21889   4.623   6.950   4.901 -0.2307 -0.9943  2.6986
  189SAPI  H18Y21890   4.481   7.046   4.836  1.3385  1.0613 -0.1175
  189SAPI  H18Z21891   4.514   7.004   5.016  0.9260 -1.4783  1.0692
  190SAPI   C1221892   5.670   4.370   6.976  0.0907 -0.2578 -0.8141
  190SAPI    H221893   5.586   4.436   6.945  0.0674  0.1037  0.0095
  190SAPI    O221894   5.782   4.451   7.019 -0.5369 -0.3554 -0.5353
  190SAPI   HO221895   5.756   4.541   6.998  0.7984  0.0488 -0.5691
  190SAPI   C1321896   5.625   4.292   7.099 -0.4423 -0.1914 -0.3693
  190SAPI    H321897   5.554   4.211   7.071  1.3909 -1.7062 -0.8631
  190SAPI    O321898   5.563   4.375   7.199 -0.4160  0.1592  0.6547
  190SAPI   HO321899   5.522   4.321   7.267 -0.2250  2.0342  2.3388
  190SAPI   C1421900   5.752   4.215   7.162 -0.1672  0.1875 -0.3117
  190SAPI    H421901   5.818   4.291   7.208  0.4273  0.3647 -1.4103
  190SAPI    O421902   5.706   4.131   7.276 -0.4211 -0.0109 -0.1810
  190SAPI   HO421903   5.758   4.148   7.355  1.0201 -2.6330 -0.4516
  190SAPI   C1521904   5.846   4.139   7.065 -0.1441  0.0058 -0.1790
  190SAPI    H521905   5.814   4.033   7.072  0.4232 -0.3314 -2.0400
  190SAPI    O521906   5.981   4.134   7.103 -0.6395  0.0285 -0.0369
  190SAPI   HO521907   6.004   4.042   7.118 -2.5013 -0.4179  0.3258
  190SAPI   C1621908   5.835   4.180   6.921 -0.7265 -0.8221 -0.5205
  190SAPI    H621909   5.918   4.252   6.903 -1.7566  0.4149 -0.4675
  190SAPI    O621910   5.853   4.077   6.828 -0.1515  0.2484  0.2149
  190SAPI   HO621911   5.939   4.092   6.787  0.3839 -1.5822  0.5619
  190SAPI   C1121912   5.711   4.268   6.880 -0.5644  0.5637  0.0816
  190SAPI    H121913   5.632   4.190   6.870  1.1160 -1.6051  2.4769
  190SAPI     P21914   5.620   4.352   6.646  0.0893  0.3902  0.4206
  190SAPI   O1321915   5.651   4.464   6.555 -0.2144 -0.3156 -0.9191
  190SAPI   O1421916   5.486   4.342   6.711 -0.3624 -0.2063 -0.2470
  190SAPI   O1221917   5.743   4.340   6.760  0.6149 -1.0145 -0.0717
  190SAPI   O1121918   5.652   4.222   6.567  0.4766  0.3407  0.1769
  190SAPI    C121919   5.751   4.200   6.466  0.8171 -0.5116  0.1823
  190SAPI    HA21920   5.816   4.290   6.456 -1.9062  1.6750  0.8914
  190SAPI    HB21921   5.820   4.116   6.489  1.9427  0.4811  0.5656
  190SAPI    C221922   5.692   4.176   6.329  0.2059  0.0025  0.2532
  190SAPI    HS21923   5.778   4.140   6.268  1.4729 -1.3067  2.6726
  190SAPI   O2121924   5.615   4.295   6.277  0.2535  0.4301  0.3893
  190SAPI   C2121925   5.701   4.393   6.235  0.6466  0.0452  0.0084
  190SAPI   O2221926   5.819   4.384   6.216  0.4533 -0.6809 -0.0116
  190SAPI   C2221927   5.624   4.526   6.233  0.2517 -0.2408  0.1920
  190SAPI   H2R21928   5.519   4.513   6.199  0.1346 -2.4436  1.2930
  190SAPI   H2S21929   5.621   4.570   6.335 -0.3799  0.3351 -0.0662
  190SAPI    C321930   5.612   4.045   6.310 -0.0471 -0.4057  0.3226
  190SAPI    HX21931   5.537   4.060   6.390  1.8468 -1.4914  2.4395
  190SAPI    HY21932   5.671   3.957   6.343  0.3951  0.3231  1.5913
  190SAPI   O3121933   5.542   4.030   6.187 -0.4069 -0.1796  0.3334
  190SAPI   C3121934   5.624   4.010   6.079  0.2795 -0.0307 -0.1168
  190SAPI   O3221935   5.738   3.972   6.094  0.4263 -0.2413  0.2543
  190SAPI   C3221936   5.556   4.065   5.954  0.6041  0.0509 -0.6504
  190SAPI   H2X21937   5.571   4.175   5.957 -0.5795  0.1967  1.4460
  190SAPI   H2Y21938   5.448   4.044   5.970  0.1537  1.6647 -1.4048
  190SAPI   C2321939   5.688   4.638   6.144 -0.6195  0.1329 -0.3176
  190SAPI   H3R21940   5.664   4.628   6.036  0.4954  3.5251 -0.9921
  190SAPI   H3S21941   5.797   4.644   6.164 -0.8993  0.5553  1.2299
  190SAPI   C2421942   5.631   4.780   6.180 -0.4262 -0.0313 -0.0776
  190SAPI   H4R21943   5.685   4.858   6.121 -0.2631 -1.5713 -2.0510
  190SAPI   H4S21944   5.638   4.817   6.285 -3.2112  0.5410 -0.0094
  190SAPI   C2521945   5.488   4.785   6.131  0.4177  0.1909  0.0574
  190SAPI   H5R21946   5.421   4.747   6.210 -0.0792  0.8603 -0.0236
  190SAPI   C2621947   5.435   4.829   6.017  0.0220 -0.1722 -0.7273
  190SAPI   H6R21948   5.328   4.809   6.001 -0.4146  2.0383 -0.8953
  190SAPI   C2721949   5.503   4.872   5.894 -0.5023 -0.2684 -0.7142
  190SAPI   H7R21950   5.604   4.825   5.893 -0.1921  0.3936 -1.4292
  190SAPI   H7S21951   5.529   4.980   5.894 -0.8111 -0.1663  0.7656
  190SAPI   C2821952   5.436   4.840   5.761 -0.3476 -0.6515 -0.3019
  190SAPI   H8R21953   5.330   4.870   5.757 -0.7341 -1.8226  0.6137
  190SAPI   C2921954   5.491   4.763   5.669  0.0189 -0.4924 -0.3178
  190SAPI   H9R21955   5.430   4.750   5.578  0.1385 -0.6091 -0.3803
  190SAPI  C21021956   5.624   4.694   5.671 -0.4251 -1.3645 -1.0104
  190SAPI  H10R21957   5.698   4.741   5.739 -1.1940  0.3997 -1.3434
  190SAPI  H10S21958   5.672   4.720   5.574  0.2131  1.0012 -0.1257
  190SAPI  C21121959   5.620   4.548   5.704 -0.0995  0.0664  0.2469
  190SAPI  H11R21960   5.655   4.514   5.803  2.8256  1.5085 -0.1826
  190SAPI  C21221961   5.624   4.458   5.602  0.2937 -0.6557 -0.2604
  190SAPI  H12R21962   5.619   4.355   5.641 -1.5025 -0.2455  0.6550
  190SAPI  C21321963   5.597   4.479   5.458 -0.3818 -0.6654 -0.0359
  190SAPI  H13R21964   5.552   4.577   5.429  0.8088 -0.3413 -0.8474
  190SAPI  H13S21965   5.514   4.410   5.430 -2.3433  0.7973  1.8094
  190SAPI  C21421966   5.720   4.471   5.366 -0.0683 -0.2681 -0.6838
  190SAPI  H14R21967   5.815   4.458   5.422 -1.0959  0.8434  1.4501
  190SAPI  C21521968   5.728   4.494   5.235  0.5590  0.4701 -0.2511
  190SAPI  H15R21969   5.824   4.477   5.185 -0.1720 -1.8912 -0.9728
  190SAPI  C21621970   5.613   4.511   5.139  0.6044 -0.2186 -0.0345
  190SAPI  H16R21971   5.614   4.618   5.111  0.3840  0.2336  1.5419
  190SAPI  H16S21972   5.515   4.495   5.190  1.0686 -1.6315  0.4554
  190SAPI  C21721973   5.620   4.405   5.027 -0.0246  0.3429 -0.0326
  190SAPI  H17R21974   5.523   4.410   4.973 -0.6093 -0.6066  0.8793
  190SAPI  H17S21975   5.619   4.299   5.060 -0.2973 -0.1622 -1.5481
  190SAPI  C21821976   5.733   4.432   4.928 -0.0343 -0.2187 -0.2647
  190SAPI  H18R21977   5.736   4.342   4.863 -0.2917 -1.2322  1.1041
  190SAPI  H18S21978   5.822   4.425   4.994 -0.9898 -0.6001  1.0224
  190SAPI  C21921979   5.727   4.578   4.861  0.9663  0.3950 -0.1051
  190SAPI  H19R21980   5.760   4.656   4.932  1.2512  1.6362 -1.5496
  190SAPI  H19S21981   5.623   4.591   4.822  1.3215  0.2541 -1.1336
  190SAPI  C22021982   5.828   4.613   4.751  0.6908 -0.6587  0.5252
  190SAPI  H20R21983   5.813   4.719   4.722 -1.2938 -0.9423  0.3922
  190SAPI  H20S21984   5.822   4.554   4.657  0.3208 -2.5310  1.6565
  190SAPI  H20T21985   5.932   4.601   4.789 -0.1684 -2.4351  2.5381
  190SAPI   C3321986   5.613   4.007   5.827 -0.3527  0.3056  0.8048
  190SAPI   H3X21987   5.622   3.898   5.843 -0.9543 -0.1348 -1.4989
  190SAPI   H3Y21988   5.718   4.041   5.816 -0.2057 -0.8431 -2.3913
  190SAPI   C3421989   5.542   4.036   5.699 -0.0551  0.0191 -0.0289
  190SAPI   H4X21990   5.543   4.146   5.684 -0.2627 -0.0155 -0.2933
  190SAPI   H4Y21991   5.437   3.999   5.706  0.6003 -2.1709 -1.1720
  190SAPI   C3521992   5.608   3.971   5.574  0.3519 -0.4829  0.9887
  190SAPI   H5X21993   5.608   3.860   5.577  2.0618 -0.5048  1.2991
  190SAPI   H5Y21994   5.715   4.001   5.574  0.0040  0.8104  0.9116
  190SAPI   C3621995   5.555   4.033   5.444 -0.4057 -0.2005 -0.0199
  190SAPI   H6X21996   5.558   4.143   5.435  1.1708 -0.2524 -0.3201
  190SAPI   H6Y21997   5.448   4.003   5.446 -0.2131 -0.9115  0.1084
  190SAPI   C3721998   5.590   3.954   5.313 -0.9338 -0.2210 -0.1543
  190SAPI   H7X21999   5.517   3.990   5.238  0.7533  0.2780 -1.6279
  190SAPI   H7Y22000   5.586   3.847   5.340 -1.8081  0.5077  3.0468
  190SAPI   C3822001   5.727   3.997   5.257  0.8585 -0.9973 -0.3514
  190SAPI   H8X22002   5.797   3.987   5.343  0.9028  1.4795 -0.0195
  190SAPI   H8Y22003   5.725   4.108   5.249 -0.8003 -0.7100  2.5910
  190SAPI   C3922004   5.759   3.931   5.118  0.1718 -0.2196 -0.2402
  190SAPI   H9X22005   5.851   3.980   5.079 -0.7317  0.3803 -1.7263
  190SAPI   H9Y22006   5.679   3.953   5.045  1.6563 -0.9129 -2.1695
  190SAPI  C31022007   5.782   3.782   5.118 -0.0231 -0.1540  0.9911
  190SAPI  H10X22008   5.785   3.739   5.016 -3.0058 -0.1854  0.8221
  190SAPI  H10Y22009   5.690   3.739   5.164 -1.2404 -0.0312 -1.1826
  190SAPI  C31122010   5.908   3.737   5.187  0.0187  0.5124 -0.3149
  190SAPI  H11X22011   5.896   3.764   5.294 -2.5134  1.1092 -0.6774
  190SAPI  H11Y22012   5.992   3.790   5.138  1.3617  0.7188  2.0763
  190SAPI  C31222013   5.951   3.584   5.167 -1.4621 -0.1477 -0.2833
  190SAPI  H12X22014   5.862   3.524   5.195 -0.2003 -2.7391 -1.4940
  190SAPI  H12Y22015   6.042   3.545   5.218 -0.0113 -0.2970 -2.7785
  190SAPI  C31322016   6.008   3.559   5.031  0.1806 -0.3581  0.7481
  190SAPI  H13X22017   6.078   3.631   4.983 -1.6993  0.4685 -0.8844
  190SAPI  H13Y22018   5.921   3.550   4.963 -0.6477 -2.2082  1.9644
  190SAPI  C31422019   6.088   3.428   5.033 -0.7984  1.0398 -0.0899
  190SAPI  H14X22020   6.016   3.350   5.067 -0.2337 -0.8310 -2.8232
  190SAPI  H14Y22021   6.173   3.429   5.106 -0.0897  2.2306 -0.8972
  190SAPI  C31522022   6.141   3.389   4.888 -0.3825 -0.4009 -0.6405
  190SAPI  H15X22023   6.172   3.482   4.836 -4.9129  1.0223 -1.2905
  190SAPI  H15Y22024   6.046   3.369   4.833 -0.2856  0.7296 -1.2605
  190SAPI  C31622025   6.251   3.277   4.878 -0.2184 -0.5082  0.1041
  190SAPI  H16X22026   6.238   3.240   4.774 -2.6783 -0.4147  0.3258
  190SAPI  H16Y22027   6.237   3.186   4.939 -1.4382 -0.8112 -0.5845
  190SAPI  C31722028   6.397   3.325   4.905  0.1820  0.3999 -0.2608
  190SAPI  H17X22029   6.413   3.414   4.840  0.4186  0.5793  0.0367
  190SAPI  H17Y22030   6.473   3.250   4.876  0.6435  0.4366  0.8142
  190SAPI  C31822031   6.423   3.374   5.047 -0.4024 -0.0226  0.3586
  190SAPI  H18X22032   6.529   3.391   5.076  0.3651 -3.4957  0.0272
  190SAPI  H18Y22033   6.386   3.291   5.111  0.9044 -0.2679  0.8319
  190SAPI  H18Z22034   6.356   3.462   5.052 -1.9281 -0.8571 -2.5630
  191SAPI   C1222035   6.206   2.201   2.690 -0.5281 -0.1719  0.2502
  191SAPI    H222036   6.226   2.157   2.790  2.7015 -0.0587 -0.2124
  191SAPI    O222037   6.071   2.196   2.664 -0.0157  0.1910 -0.1980
  191SAPI   HO222038   6.024   2.237   2.737 -1.1876 -1.1780 -0.1329
  191SAPI   C1322039   6.251   2.343   2.699 -0.8469  0.0002  0.3494
  191SAPI    H322040   6.357   2.335   2.732  0.6088 -2.2203 -4.0384
  191SAPI    O322041   6.170   2.403   2.799  0.0152  0.0004 -0.2650
  191SAPI   HO322042   6.218   2.480   2.832 -0.0440 -0.2145  0.3376
  191SAPI   C1422043   6.242   2.400   2.554 -0.7647  0.2116  0.0529
  191SAPI    H422044   6.134   2.386   2.533 -0.3408 -0.0479 -2.2070
  191SAPI    O422045   6.269   2.536   2.560  0.0728  0.3490 -0.4181
  191SAPI   HO422046   6.358   2.559   2.587 -0.0892  0.0112  0.4560
  191SAPI   C1522047   6.332   2.325   2.446  0.6728  0.0752 -0.5052
  191SAPI    H522048   6.436   2.359   2.465  0.2330  1.5455 -0.6143
  191SAPI    O522049   6.305   2.378   2.318  0.6421  0.1500  0.2858
  191SAPI   HO522050   6.347   2.321   2.253 -0.9791 -0.2231 -0.4941
  191SAPI   C1622051   6.322   2.170   2.457  0.2188 -0.1284 -0.8061
  191SAPI    H622052   6.227   2.149   2.404  0.0593 -0.6075 -0.3442
  191SAPI    O622053   6.430   2.113   2.395  0.0724  0.3222  0.0196
  191SAPI   HO622054   6.452   2.037   2.450 -0.1904 -0.6549 -1.1749
  191SAPI   C1122055   6.302   2.118   2.598  0.0784  0.0632 -0.4515
  191SAPI    H122056   6.399   2.134   2.650  0.3882 -1.9522 -0.3134
  191SAPI     P22057   6.373   1.868   2.621  0.3583  0.0267  0.4876
  191SAPI   O1322058   6.491   1.894   2.527 -0.5359 -0.5415 -0.6072
  191SAPI   O1422059   6.309   1.740   2.591 -0.0893  0.0772  0.3966
  191SAPI   O1222060   6.257   1.984   2.605 -0.3377 -0.2400 -0.2881
  191SAPI   O1122061   6.418   1.875   2.770  0.1293  0.1292 -0.2086
  191SAPI    C122062   6.342   1.833   2.879 -0.3705  0.3570  0.3008
  191SAPI    HA22063   6.232   1.845   2.862 -0.1523  0.3652 -1.2482
  191SAPI    HB22064   6.363   1.727   2.905  0.8770  0.2858 -0.9129
  191SAPI    C222065   6.375   1.907   3.016 -0.6359  0.2525  0.2011
  191SAPI    HS22066   6.392   2.015   2.997  0.3164  0.1869  0.6208
  191SAPI   O2122067   6.489   1.836   3.072  0.6271  0.4044 -0.0735
  191SAPI   C2122068   6.563   1.904   3.150 -0.2683 -0.7522 -0.3872
  191SAPI   O2222069   6.534   2.017   3.196 -0.2330  0.5041  0.7708
  191SAPI   C2222070   6.691   1.829   3.184 -0.3101  0.3668  0.2195
  191SAPI   H2R22071   6.683   1.727   3.228 -0.7937  1.4869  2.8981
  191SAPI   H2S22072   6.747   1.810   3.090 -0.4806 -0.4420  0.2721
  191SAPI    C322073   6.249   1.898   3.101  0.2414  0.8426 -0.3893
  191SAPI    HX22074   6.232   1.792   3.129  0.8555  0.9065  0.2517
  191SAPI    HY22075   6.169   1.922   3.028 -1.5328  3.2028  2.1119
  191SAPI   O3122076   6.242   1.997   3.204  0.3072 -0.7204  0.2379
  191SAPI   C3122077   6.274   1.955   3.324  0.4222  0.2478  0.2736
  191SAPI   O3222078   6.305   1.838   3.357  0.0982 -0.0574  0.8613
  191SAPI   C3222079   6.261   2.067   3.425 -0.5335 -0.0457 -0.6912
  191SAPI   H2X22080   6.166   2.125   3.423 -0.9718 -0.5880  1.6379
  191SAPI   H2Y22081   6.347   2.134   3.402  0.9894 -1.8233 -0.3927
  191SAPI   C2322082   6.777   1.898   3.296 -0.0948 -0.3255 -0.3379
  191SAPI   H3R22083   6.700   1.923   3.372 -0.2378  0.5320 -0.7471
  191SAPI   H3S22084   6.800   1.999   3.255 -0.6968  1.6718  3.7536
  191SAPI   C2422085   6.905   1.825   3.336 -0.6525 -0.1763 -0.4575
  191SAPI   H4R22086   6.979   1.886   3.391  1.9938 -1.3904 -2.4305
  191SAPI   H4S22087   6.969   1.804   3.247 -0.6587  0.4936 -0.6242
  191SAPI   C2522088   6.898   1.703   3.427 -0.2946  0.6797 -0.4370
  191SAPI   H5R22089   6.899   1.602   3.382 -0.1354  0.9546 -1.0613
  191SAPI   C2622090   6.887   1.711   3.562  0.3734 -0.1018 -0.3511
  191SAPI   H6R22091   6.897   1.619   3.622  2.2816  0.5413  0.4256
  191SAPI   C2722092   6.894   1.835   3.651  0.2007 -0.6494 -0.4745
  191SAPI   H7R22093   6.793   1.882   3.643 -1.2500 -3.1921  1.4137
  191SAPI   H7S22094   6.967   1.909   3.613 -1.0622  0.8285 -0.1174
  191SAPI   C2822095   6.926   1.783   3.789  1.0950 -0.1066  0.0032
  191SAPI   H8R22096   7.030   1.775   3.824  1.4208  2.8297  0.0117
  191SAPI   C2922097   6.829   1.753   3.881 -0.2266 -0.2397  0.0604
  191SAPI   H9R22098   6.855   1.732   3.986  0.0990  1.6342  0.3787
  191SAPI  C21022099   6.681   1.741   3.846 -0.0417  0.5481  0.4361
  191SAPI  H10R22100   6.656   1.714   3.741  0.3444 -0.9418  0.7065
  191SAPI  H10S22101   6.641   1.844   3.863  1.0660  0.6157  3.2011
  191SAPI  C21122102   6.617   1.635   3.929  0.5546  0.4122 -0.7721
  191SAPI  H11R22103   6.579   1.546   3.875  2.3494 -0.6601 -0.3413
  191SAPI  C21222104   6.581   1.645   4.058  0.1416  0.1168  0.1143
  191SAPI  H12R22105   6.525   1.557   4.092  0.9135 -0.6662 -0.5994
  191SAPI  C21322106   6.617   1.736   4.169 -0.6093 -0.2065 -0.1569
  191SAPI  H13R22107   6.564   1.834   4.162  0.7704  0.4347 -3.1621
  191SAPI  H13S22108   6.722   1.770   4.157 -0.9334  0.7653 -0.3165
  191SAPI  C21422109   6.597   1.665   4.303  0.5483 -0.3748 -0.3766
  191SAPI  H14R22110   6.684   1.610   4.340  1.1977  0.1766 -1.0611
  191SAPI  C21522111   6.489   1.662   4.386 -1.3292  0.0027 -0.7533
  191SAPI  H15R22112   6.500   1.604   4.479  2.4416  2.2542  0.4302
  191SAPI  C21622113   6.354   1.729   4.367  0.1249 -0.2992 -0.0401
  191SAPI  H16R22114   6.368   1.800   4.282  0.3738 -1.0520 -0.6408
  191SAPI  H16S22115   6.320   1.785   4.456 -0.1793  0.0954 -0.3956
  191SAPI  C21722116   6.233   1.641   4.328 -0.0007 -0.2490  0.3432
  191SAPI  H17R22117   6.140   1.701   4.342  1.4921  2.4085 -0.4208
  191SAPI  H17S22118   6.223   1.560   4.403 -1.5292  0.0953  0.5600
  191SAPI  C21822119   6.229   1.586   4.180 -0.0279 -0.0165 -0.5595
  191SAPI  H18R22120   6.146   1.519   4.151  0.1389 -0.6712  0.4175
  191SAPI  H18S22121   6.324   1.530   4.173  0.4038  0.7435 -0.9368
  191SAPI  C21922122   6.218   1.703   4.081 -0.1853 -0.4877 -0.4394
  191SAPI  H19R22123   6.298   1.778   4.094 -1.3718  0.8207 -0.4930
  191SAPI  H19S22124   6.126   1.758   4.111  1.6914  1.8508  1.4540
  191SAPI  C22022125   6.211   1.657   3.935 -0.0095 -0.3918 -0.0118
  191SAPI  H20R22126   6.217   1.733   3.855  1.2720  0.0150  0.4556
  191SAPI  H20S22127   6.121   1.594   3.915 -0.9099  0.4511  1.2343
  191SAPI  H20T22128   6.305   1.601   3.916  0.1970 -0.0047 -0.1323
  191SAPI   C3322129   6.289   2.010   3.566  0.0712 -0.2169  0.2703
  191SAPI   H3X22130   6.380   1.947   3.564  1.1129  1.2555 -0.1120
  191SAPI   H3Y22131   6.206   1.944   3.598 -2.0355  1.5914 -1.1023
  191SAPI   C3422132   6.318   2.109   3.672 -0.5679  0.0136 -0.1473
  191SAPI   H4X22133   6.230   2.172   3.697 -0.7575  1.1127 -3.1758
  191SAPI   H4Y22134   6.390   2.182   3.629  0.8866 -0.5114  1.3072
  191SAPI   C3522135   6.374   2.047   3.801 -0.1982 -0.6502  0.2497
  191SAPI   H5X22136   6.476   2.008   3.783  0.6777 -0.1244  3.4199
  191SAPI   H5Y22137   6.311   1.959   3.826  0.5470 -0.7869  1.7565
  191SAPI   C3622138   6.370   2.147   3.916  0.3198 -0.6135 -0.0629
  191SAPI   H6X22139   6.267   2.182   3.937  0.9961  1.1403  0.4969
  191SAPI   H6Y22140   6.417   2.240   3.878 -1.0618 -0.8131 -2.4999
  191SAPI   C3722141   6.452   2.106   4.042 -0.7434 -0.0153  0.0346
  191SAPI   H7X22142   6.552   2.090   3.997 -1.3195 -1.0332 -0.9278
  191SAPI   H7Y22143   6.409   2.020   4.096 -0.0959  0.2227  0.9562
  191SAPI   C3822144   6.457   2.216   4.152  0.4243  0.5752 -0.2683
  191SAPI   H8X22145   6.355   2.228   4.195 -0.5541  0.1879 -2.3319
  191SAPI   H8Y22146   6.478   2.317   4.110  1.2052  1.0065  1.1066
  191SAPI   C3922147   6.555   2.183   4.264 -0.5024  0.6739  0.6553
  191SAPI   H9X22148   6.657   2.181   4.221 -0.2430  0.5328  1.2699
  191SAPI   H9Y22149   6.539   2.090   4.323 -0.7307  1.1654  1.3904
  191SAPI  C31022150   6.581   2.295   4.372  0.4410  0.4381  0.1911
  191SAPI  H10X22151   6.589   2.388   4.311  2.8620  0.2083  0.0789
  191SAPI  H10Y22152   6.674   2.286   4.432 -0.6134  2.4888  2.3120
  191SAPI  C31122153   6.466   2.319   4.463  0.4753  0.1415  0.2929
  191SAPI  H11X22154   6.469   2.242   4.543  0.8322 -0.1830 -0.0303
  191SAPI  H11Y22155   6.371   2.317   4.405  0.8896 -2.7221 -0.4510
  191SAPI  C31222156   6.464   2.453   4.554  0.3025  0.2262 -0.1068
  191SAPI  H12X22157   6.411   2.430   4.648  1.5864  0.7753  0.7864
  191SAPI  H12Y22158   6.428   2.548   4.509 -2.9051 -0.0610  1.6341
  191SAPI  C31322159   6.606   2.473   4.610 -0.6259  0.1019 -0.3922
  191SAPI  H13X22160   6.680   2.494   4.530 -0.5223 -0.5371 -0.4666
  191SAPI  H13Y22161   6.649   2.386   4.665  3.0051  1.7349 -0.3523
  191SAPI  C31422162   6.597   2.587   4.722 -0.0201  0.7335 -0.0303
  191SAPI  H14X22163   6.561   2.538   4.815 -0.6588  1.1192 -0.0708
  191SAPI  H14Y22164   6.523   2.665   4.694  0.4368  1.0352 -0.4075
  191SAPI  C31522165   6.729   2.650   4.736 -0.5123 -0.3795 -0.2475
  191SAPI  H15X22166   6.811   2.580   4.760  0.5313  1.8094  3.4924
  191SAPI  H15Y22167   6.720   2.723   4.820  3.2789 -0.8264  0.7306
  191SAPI  C31622168   6.773   2.711   4.607 -0.2936 -0.8014  0.3248
  191SAPI  H16X22169   6.682   2.740   4.552  0.4145  0.8757 -0.0370
  191SAPI  H16Y22170   6.826   2.640   4.540 -0.6299  0.3003 -1.1438
  191SAPI  C31722171   6.868   2.835   4.625  0.8054  0.0769  0.1603
  191SAPI  H17X22172   6.797   2.899   4.681 -3.4237 -3.3801 -0.6631
  191SAPI  H17Y22173   6.888   2.878   4.524 -0.1975 -2.5463 -1.2624
  191SAPI  C31822174   7.007   2.808   4.683  0.5172 -0.9159  0.3994
  191SAPI  H18X22175   7.072   2.766   4.602  0.6459  0.8404 -0.4451
  191SAPI  H18Y22176   7.007   2.740   4.770 -1.5306  1.2641  2.2146
  191SAPI  H18Z22177   7.062   2.897   4.720  1.6525 -1.9532  1.3216
  192SAPI   C1222178   1.028   1.842   2.417  0.3477  0.0186  0.2120
  192SAPI    H222179   1.068   1.944   2.396 -0.5936  0.3242 -0.1099
  192SAPI    O222180   0.906   1.811   2.352  0.2086 -0.2132 -0.0422
  192SAPI   HO222181   0.848   1.885   2.370 -1.9336 -1.8340  0.1766
  192SAPI   C1322182   1.137   1.747   2.367  0.2411  0.4535 -0.3202
  192SAPI    H322183   1.221   1.764   2.437  0.5339 -1.6201 -0.0974
  192SAPI    O322184   1.175   1.772   2.230  0.5136  0.6639  0.0538
  192SAPI   HO322185   1.103   1.735   2.179  0.8165 -2.6103  1.7770
  192SAPI   C1422186   1.086   1.603   2.392 -0.9779 -0.2355  0.0147
  192SAPI    H422187   0.992   1.593   2.334  0.0913  0.8352 -2.0294
  192SAPI    O422188   1.158   1.499   2.327  0.1969 -0.4124 -0.0726
  192SAPI   HO422189   1.244   1.491   2.368 -0.8722  1.5018  2.8004
  192SAPI   C1522190   1.064   1.567   2.536  0.4492 -0.2828  1.1751
  192SAPI    H522191   1.164   1.553   2.583  1.4797 -0.8162 -1.0797
  192SAPI    O522192   0.997   1.440   2.549 -0.2143  0.5110 -0.1658
  192SAPI   HO522193   1.058   1.375   2.515  0.9300  1.9426 -0.9204
  192SAPI   C1622194   0.995   1.678   2.608 -0.3593 -0.3167 -0.5866
  192SAPI    H622195   0.891   1.660   2.574 -0.3406  1.1358 -1.5231
  192SAPI    O622196   0.998   1.657   2.746 -0.3651 -0.0624 -0.0442
  192SAPI   HO622197   0.911   1.630   2.776 -1.1234  1.9745 -0.2318
  192SAPI   C1122198   1.010   1.826   2.567  0.1955 -0.6988 -0.1970
  192SAPI    H122199   1.107   1.849   2.616 -1.4060  2.1257  1.9362
  192SAPI     P22200   0.949   2.055   2.710 -0.1277 -0.3057  0.3459
  192SAPI   O1322201   0.827   2.137   2.720  0.2982 -0.4857  0.1967
  192SAPI   O1422202   1.075   2.124   2.665 -0.1591 -0.1614 -0.7244
  192SAPI   O1222203   0.913   1.924   2.620  0.1930 -0.1650  0.4967
  192SAPI   O1122204   0.969   1.988   2.858  0.2425 -0.1393  0.6222
  192SAPI    C122205   0.855   1.916   2.913 -0.7361 -0.0834 -0.4544
  192SAPI    HA22206   0.766   1.925   2.847 -0.6131 -0.8335 -0.7328
  192SAPI    HB22207   0.887   1.809   2.910  1.7501  0.5708  0.6627
  192SAPI    C222208   0.824   1.949   3.058  0.4691 -0.1120  0.7273
  192SAPI    HS22209   0.750   1.876   3.097 -2.5929  2.0142 -0.6788
  192SAPI   O2122210   0.781   2.084   3.070  0.1712  0.0775  0.0933
  192SAPI   C2122211   0.656   2.093   3.118 -0.7160  0.3972  0.0471
  192SAPI   O2222212   0.579   2.000   3.138  0.1065 -0.1285  0.1700
  192SAPI   C2222213   0.622   2.238   3.153 -0.0939 -0.2895  0.1876
  192SAPI   H2R22214   0.719   2.283   3.185 -0.0647 -0.0066 -0.2867
  192SAPI   H2S22215   0.586   2.289   3.062 -0.7366  1.4499  1.3579
  192SAPI    C322216   0.963   1.919   3.138  1.0030 -0.0415  0.6143
  192SAPI    HX22217   1.055   1.959   3.092 -0.3739  0.6394 -1.7402
  192SAPI    HY22218   0.965   1.810   3.115  1.3530  0.2957 -1.0947
  192SAPI   O3122219   0.957   1.940   3.280 -0.9466  0.1119  0.2174
  192SAPI   C3122220   0.994   2.059   3.316 -0.1670  0.5672 -0.4426
  192SAPI   O3222221   1.021   2.154   3.245 -0.5972  0.0686  0.4247
  192SAPI   C3222222   0.985   2.072   3.470 -0.3756  0.0634  0.0013
  192SAPI   H2X22223   0.979   1.970   3.513  2.0811 -0.1368  0.0003
  192SAPI   H2Y22224   0.894   2.134   3.487 -0.3227  0.9369 -2.5100
  192SAPI   C2322225   0.507   2.257   3.255 -0.2397  0.0684 -0.2572
  192SAPI   H3R22226   0.423   2.187   3.241  0.8832 -1.1530 -1.1066
  192SAPI   H3S22227   0.478   2.364   3.248  2.6242  1.1921  2.4079
  192SAPI   C2422228   0.555   2.231   3.403 -0.3354  0.1449  0.6591
  192SAPI   H4R22229   0.610   2.135   3.387 -2.4328 -0.7392 -2.1390
  192SAPI   H4S22230   0.469   2.215   3.471 -0.1311  0.7746  1.0739
  192SAPI   C2522231   0.649   2.335   3.458  0.2980 -0.6447 -0.4784
  192SAPI   H5R22232   0.698   2.404   3.389  0.3811 -1.1251 -0.9057
  192SAPI   C2622233   0.677   2.346   3.591 -0.1968  0.2836 -0.0682
  192SAPI   H6R22234   0.742   2.431   3.617  1.2626 -0.4687 -1.0773
  192SAPI   C2722235   0.628   2.266   3.704 -0.0866  0.6122  0.2620
  192SAPI   H7R22236   0.550   2.190   3.681  0.3210  0.8444 -2.1664
  192SAPI   H7S22237   0.579   2.328   3.782 -0.6328  1.6570 -0.8767
  192SAPI   C2822238   0.749   2.202   3.769  0.1155  0.4620 -0.3201
  192SAPI   H8R22239   0.820   2.162   3.695 -2.3872  1.2374 -3.3420
  192SAPI   C2922240   0.773   2.204   3.902  0.3876  0.3797 -0.1064
  192SAPI   H9R22241   0.871   2.161   3.928 -1.1692 -3.1704  0.4257
  192SAPI  C21022242   0.686   2.255   4.012 -0.1007  0.1099  0.2263
  192SAPI  H10R22243   0.580   2.230   3.993 -0.4972  0.2987  2.0453
  192SAPI  H10S22244   0.695   2.364   4.030 -1.0931  0.2381 -0.0339
  192SAPI  C21122245   0.726   2.178   4.132 -0.0960 -0.0991 -0.1925
  192SAPI  H11R22246   0.772   2.079   4.123 -0.1279 -0.3100  1.5565
  192SAPI  C21222247   0.715   2.226   4.249 -0.0243  0.2012 -1.0441
  192SAPI  H12R22248   0.763   2.162   4.325  0.5528  0.4466 -1.1971
  192SAPI  C21322249   0.652   2.353   4.300  0.2624  0.0925  0.4416
  192SAPI  H13R22250   0.623   2.341   4.407 -2.1527 -2.4949 -0.3686
  192SAPI  H13S22251   0.557   2.390   4.256 -0.0733  0.0748  1.1280
  192SAPI  C21422252   0.760   2.458   4.283  0.5241 -0.0136 -0.1739
  192SAPI  H14R22253   0.823   2.441   4.195  1.7174 -0.8711  0.7958
  192SAPI  C21522254   0.813   2.541   4.376  0.2070 -0.4365  0.3451
  192SAPI  H15R22255   0.889   2.611   4.337  0.9452 -1.7717 -0.7319
  192SAPI  C21622256   0.767   2.564   4.522 -0.1220  0.2387 -0.0692
  192SAPI  H16R22257   0.697   2.487   4.560 -1.2922  0.6820 -1.2483
  192SAPI  H16S22258   0.697   2.648   4.541 -1.9013 -1.7408  2.8074
  192SAPI  C21722259   0.883   2.556   4.621 -0.1958  0.1450  0.7289
  192SAPI  H17R22260   0.960   2.632   4.596 -0.8847  1.1888  1.6873
  192SAPI  H17S22261   0.937   2.459   4.622 -1.4170 -0.5811 -0.6135
  192SAPI  C21822262   0.830   2.569   4.761 -0.8591 -0.1506 -0.3217
  192SAPI  H18R22263   0.775   2.478   4.794  0.8495 -0.9019  0.5374
  192SAPI  H18S22264   0.768   2.660   4.776 -1.1527 -0.4021 -0.0106
  192SAPI  C21922265   0.957   2.577   4.842  0.1091  0.2602  0.0450
  192SAPI  H19R22266   1.011   2.666   4.805  0.4710 -0.2895 -0.7545
  192SAPI  H19S22267   1.032   2.500   4.814  2.2284  1.4884  1.9877
  192SAPI  C22022268   0.934   2.578   4.991  0.5542  0.0396 -0.0561
  192SAPI  H20R22269   0.910   2.683   5.019  1.9840  0.2065  0.5867
  192SAPI  H20S22270   1.030   2.552   5.040  0.4633  0.8168  0.5597
  192SAPI  H20T22271   0.858   2.506   5.027  1.4262 -0.0196  1.7963
  192SAPI   C3322272   1.125   2.134   3.503 -0.2533  0.1451 -0.3750
  192SAPI   H3X22273   1.143   2.238   3.471 -1.0686  0.2524 -0.5115
  192SAPI   H3Y22274   1.210   2.089   3.447  1.2960  4.0676 -1.5254
  192SAPI   C3422275   1.153   2.119   3.656  0.8168  0.6370 -0.1494
  192SAPI   H4X22276   1.182   2.016   3.685  0.5960  0.8083  0.7023
  192SAPI   H4Y22277   1.062   2.145   3.713 -0.7868 -0.8763 -1.8691
  192SAPI   C3522278   1.266   2.205   3.705 -0.4835 -0.1080 -0.3102
  192SAPI   H5X22279   1.258   2.313   3.679 -1.0920  0.4294  1.8721
  192SAPI   H5Y22280   1.347   2.154   3.648 -1.6403 -2.3757 -0.0372
  192SAPI   C3622281   1.304   2.199   3.850 -0.3384  0.6463 -0.5005
  192SAPI   H6X22282   1.403   2.245   3.870  0.0131 -0.6755  0.9603
  192SAPI   H6Y22283   1.306   2.090   3.867 -0.8131  0.7369  0.2232
  192SAPI   C3722284   1.203   2.267   3.949  0.5034  0.4205  0.1797
  192SAPI   H7X22285   1.110   2.207   3.937 -1.1981  2.7034  1.2802
  192SAPI   H7Y22286   1.184   2.373   3.923 -2.4896  0.2217  1.1623
  192SAPI   C3822287   1.236   2.241   4.098 -0.5864 -0.6572  0.5235
  192SAPI   H8X22288   1.319   2.306   4.135 -0.5242  0.1290 -0.9226
  192SAPI   H8Y22289   1.260   2.134   4.115 -0.6473 -0.6636  0.5669
  192SAPI   C3922290   1.113   2.269   4.189 -0.5051 -0.2990 -0.3089
  192SAPI   H9X22291   1.021   2.224   4.146 -1.4333  1.0471  0.2153
  192SAPI   H9Y22292   1.095   2.379   4.184 -0.7028 -0.3693 -1.3945
  192SAPI  C31022293   1.136   2.240   4.339 -0.7003 -0.5139 -0.0670
  192SAPI  H10X22294   1.170   2.135   4.354 -1.4217 -0.7615 -0.1580
  192SAPI  H10Y22295   1.036   2.251   4.386 -1.0411 -1.2240 -0.5981
  192SAPI  C31122296   1.238   2.341   4.406  0.4946 -0.1913  1.1218
  192SAPI  H11X22297   1.201   2.444   4.388 -0.0542 -0.8578 -2.2997
  192SAPI  H11Y22298   1.338   2.320   4.362  0.6571  0.2113  1.2897
  192SAPI  C31222299   1.246   2.301   4.558  0.0542  0.1117 -0.5864
  192SAPI  H12X22300   1.310   2.210   4.561  1.8103  1.3279  0.9193
  192SAPI  H12Y22301   1.142   2.277   4.589  0.9826 -2.7870  0.6639
  192SAPI  C31322302   1.302   2.413   4.651  0.0546  0.1311  0.4174
  192SAPI  H13X22303   1.233   2.499   4.646  1.0750  0.9173 -1.1176
  192SAPI  H13Y22304   1.400   2.443   4.607  0.6999 -1.9847  0.2766
  192SAPI  C31422305   1.313   2.366   4.793  0.3773  0.3840  0.8163
  192SAPI  H14X22306   1.391   2.287   4.795 -0.0078 -0.1320 -1.4797
  192SAPI  H14Y22307   1.210   2.329   4.815  0.6923 -0.4480  0.9581
  192SAPI  C31522308   1.347   2.474   4.897  0.0679 -0.4417  0.3723
  192SAPI  H15X22309   1.273   2.553   4.873 -2.3579 -2.7040 -0.1947
  192SAPI  H15Y22310   1.443   2.527   4.885 -0.4111  0.5100  0.6726
  192SAPI  C31622311   1.319   2.436   5.043 -0.6287 -0.1353  0.1937
  192SAPI  H16X22312   1.369   2.341   5.073 -0.1616  0.3666  1.0403
  192SAPI  H16Y22313   1.209   2.426   5.053 -0.5638 -0.6916  0.4048
  192SAPI  C31722314   1.374   2.549   5.132 -0.3113  0.2793 -0.0318
  192SAPI  H17X22315   1.336   2.646   5.095  1.9931  0.9152 -0.8668
  192SAPI  H17Y22316   1.482   2.556   5.110 -0.5423  1.3289 -0.8926
  192SAPI  C31822317   1.335   2.519   5.279 -0.3643  0.3817 -0.0093
  192SAPI  H18X22318   1.373   2.423   5.318 -1.1156  0.3596  0.6875
  192SAPI  H18Y22319   1.226   2.504   5.292 -0.4303 -0.2644 -1.1929
  192SAPI  H18Z22320   1.347   2.607   5.346 -2.1847  1.3610 -0.9031
  193SOD    SOD22321   4.262   4.665   6.812  0.4356 -0.1903  0.2108
  194SOD    SOD22322   5.718   2.728   2.136 -0.2634  0.2976  0.3292
  195SOD    SOD22323   5.916   6.480   7.112  0.4855  0.2038 -0.3741
  196SOD    SOD22324   4.065   0.587   7.891  0.4974 -0.0777  0.1478
  197SOD    SOD22325   4.990   3.622   7.520  0.1309  0.0779  0.6711
  198SOD    SOD22326   2.266   3.539   1.641 -0.1367  0.5858  0.1696
  199SOD    SOD22327   0.692   1.303   1.944 -0.1150  0.0929  0.5399
  200SOD    SOD22328   0.681   4.628   6.796 -0.1876 -0.1056  0.1493
  201SOD    SOD22329   4.243   0.236   0.359 -0.0115 -0.0297 -0.6704
  202SOD    SOD22330   6.294   4.174   2.535 -0.2942 -0.3216  0.2562
  203SOD    SOD22331   2.100   6.577   7.943 -0.1301  0.4746  0.2174
  204SOD    SOD22332   6.734   2.632   8.756  0.3715  0.0813  0.1460
  205SOD    SOD22333   5.369   2.242   2.238  0.6564 -0.1032 -0.4333
  206SOD    SOD22334   1.109   6.699   2.357  0.1896  0.4357 -0.3633
  207SOD    SOD22335   4.071   3.437   7.279 -0.1757 -0.3801 -0.5316
  208SOD    SOD22336   1.046   4.377   0.282  0.2935  0.0540 -0.1762
  209SOD    SOD22337   0.329   1.206   2.361  0.0616 -0.0116  0.2520
  210SOD    SOD22338   4.716   1.574   7.611 -0.2106 -0.2506 -0.0885
  211SOD    SOD22339   4.071   4.995   7.867  0.3138  0.3521  0.0597
  212SOD    SOD22340   1.226   1.606   1.769  0.0207  0.3901  0.1798
  213SOD    SOD22341   5.069   6.481   7.954  0.0548 -0.1357  0.5653
  214SOD    SOD22342   3.256   4.337   2.232 -0.4107 -0.0281  0.2026
  215SOD    SOD22343   6.691   5.951   7.100  0.4219  0.0949 -0.0246
  216SOD    SOD22344   2.747   3.071   8.655  0.0093 -0.2847  0.2964
  217SOD    SOD22345   3.894   2.877   8.810 -0.1224  1.0440  0.1231
  218SOD    SOD22346   1.962   1.791   7.666  0.5220  0.1029  0.1967
  219SOD    SOD22347   1.598   5.407   7.156 -0.0064 -0.5032  0.1846
  220SOD    SOD22348   0.234   1.723   2.720  0.2458  0.4005  0.0529
  221SOD    SOD22349   6.215   2.647   2.325 -0.4954  0.5428  0.5821
  222SOD    SOD22350   6.819   5.463   2.758  0.6757  0.3234 -0.0521
  223SOD    SOD22351   5.177   2.354   0.291  0.3722  0.2601 -0.1304
  224SOD    SOD22352   6.472   0.361   8.395 -0.1913  0.0854 -0.2525
  225SOD    SOD22353   1.598   4.056   1.594  0.5997 -0.1388  0.2063
  226SOD    SOD22354   4.758   3.085   2.280 -0.1680 -0.1544  0.5890
  227SOD    SOD22355   3.940   0.130   1.916 -0.3066 -0.2219  0.2483
  228SOD    SOD22356   1.441   5.259   0.103  0.2020 -0.2028  0.0936
  229SOD    SOD22357   6.135   0.233   7.993 -0.4289 -0.6066  0.0056
  230CLA    CLA22358   2.323   0.271   7.665 -0.5964 -0.0112  0.2445
  231CLA    CLA22359   0.350   1.899   8.214 -0.1940  0.1093 -0.3268
  232CLA    CLA22360   0.175   1.710   2.191 -0.2860  0.3160  0.4846
  233CLA    CLA22361   0.811   2.142   8.228  0.0545 -0.2531 -0.7202
  234CLA    CLA22362   3.629   2.564   8.345 -0.2998  0.3835 -0.2213
  235CLA    CLA22363   1.186   0.569   0.237  0.1062 -0.3667 -0.2367
  236CLA    CLA22364   4.113   4.588   0.930  0.1041  0.4423  0.4471
  237CLA    CLA22365   1.565   4.335   8.611 -0.2075  0.1864  0.2632
  238CLA    CLA22366   0.655   4.733   8.593  0.0799  0.0839  0.1331
  239CLA    CLA22367   4.429   3.013   7.282 -0.2501 -0.2576 -0.2989
  240CLA    CLA22368   3.757   0.107   0.345 -0.1428  0.0518 -0.2290
  241CLA    CLA22369   5.908   1.692   1.094 -0.2056  0.2541  0.2685
  242CLA    CLA22370   4.978   1.046   1.939 -0.2855  0.0018 -0.3054
  243CLA    CLA22371   6.138   3.355   0.768  0.3701 -0.2575 -0.3381
  244CLA    CLA22372   6.456   5.473   7.962  0.3729  0.1631  0.2163
  245CLA    CLA22373   0.321   2.769   0.217  0.0891 -0.1324 -0.0949
  246CLA    CLA22374   4.388   3.629   8.572  0.4704  0.0121 -0.2491
  247TIP3   OH222375   1.288   6.355   0.565 -0.1729 -0.0308  0.1646
  247TIP3    H122376   1.373   6.387   0.538 -0.3484  0.5144  0.2333
  247TIP3    H222377   1.279   6.269   0.524  0.1478  0.1774 -0.3438
  248TIP3   OH222378   6.308   0.528   0.904 -0.5190  0.4463  0.4026
  248TIP3    H122379   6.302   0.433   0.908  1.5706  0.1172 -1.9815
  248TIP3    H222380   6.262   0.552   0.824  0.0388  1.2940  0.3181
  249TIP3   OH222381   6.249   4.993   1.728  0.1577 -0.3110  0.0989
  249TIP3    H122382   6.253   5.086   1.750 -0.0469 -0.2260 -0.2185
  249TIP3    H222383   6.318   4.981   1.663  1.1008 -0.6642  1.1309
  250TIP3   OH222384   6.265   1.552   1.313 -0.4299 -0.0924 -0.1045
  250TIP3    H122385   6.191   1.590   1.266  0.2773  2.4436  0.6542
  250TIP3    H222386   6.303   1.489   1.252 -4.0057 -2.6961  0.0076
  251TIP3   OH222387   4.316   4.530   1.898  0.3146 -0.0250  0.6591
  251TIP3    H122388   4.228   4.534   1.860  0.6994 -0.1047 -0.2600
  251TIP3    H222389   4.309   4.581   1.978 -0.1812  1.2895 -0.1958
  252TIP3   OH222390   1.878   6.379   2.292 -0.5563 -0.3326 -0.3428
  252TIP3    H122391   1.814   6.418   2.233 -0.6862  0.6323  0.4220
  252TIP3    H222392   1.844   6.396   2.380  0.3779 -0.4560  0.0565
  253TIP3   OH222393   1.940   0.331   8.260 -0.6119  0.5721 -0.0710
  253TIP3    H122394   1.961   0.241   8.233  0.2819  0.6384  0.3695
  253TIP3    H222395   1.991   0.345   8.340 -1.4566  1.1614  0.3856
  254TIP3   OH222396   1.341   2.488   2.156 -0.6188 -0.1742  0.8219
  254TIP3    H122397   1.273   2.468   2.091  0.1978 -1.1295  0.2266
  254TIP3    H222398   1.371   2.402   2.186  0.5230  0.2190  0.8549
  255TIP3   OH222399   4.580   0.529   0.982  0.4305 -0.4869 -0.2395
  255TIP3    H122400   4.495   0.573   0.987  1.3989  1.8841 -2.0995
  255TIP3    H222401   4.559   0.436   0.974 -2.2257  0.1802 -3.6311
  256TIP3   OH222402   3.730   5.763   0.551 -0.4330  0.2181  0.2097
  256TIP3    H122403   3.810   5.816   0.553  1.5390 -2.5459  2.3860
  256TIP3    H222404   3.727   5.729   0.461  0.6458  0.6443 -0.0093
  257TIP3   OH222405   1.545   4.649   2.218  0.1363 -0.7780 -0.3930
  257TIP3    H122406   1.500   4.731   2.197 -0.2756 -0.7486  0.5606
  257TIP3    H222407   1.565   4.655   2.311  0.6623 -1.4985 -0.4495
  258TIP3   OH222408   5.619   3.124   7.762 -0.2043 -0.7442 -0.0609
  258TIP3    H122409   5.670   3.104   7.841 -0.3805  2.1122  0.8939
  258TIP3    H222410   5.679   3.106   7.690  1.6136  0.8040  0.9540
  259TIP3   OH222411   4.028   2.279   8.116 -0.1107  0.9480  0.1528
  259TIP3    H122412   3.994   2.329   8.042 -1.6877 -0.8804 -0.4488
  259TIP3    H222413   4.009   2.334   8.192 -0.6808  1.7936 -0.5776
  260TIP3   OH222414   3.634   0.976   8.478 -0.4735 -0.4633 -0.3267
  260TIP3    H122415   3.725   0.996   8.499 -0.9681  1.7136  0.0094
  260TIP3    H222416   3.627   0.881   8.485  1.2460 -0.4805  1.8024
  261TIP3   OH222417   6.781   5.420   1.970  0.1755  0.2502  0.1122
  261TIP3    H122418   6.720   5.352   1.941 -1.3502  1.9911 -0.9917
  261TIP3    H222419   6.742   5.454   2.050 -0.1417  1.1495 -0.4181
  262TIP3   OH222420   6.504   2.603   0.545  0.1138 -0.6409 -0.0217
  262TIP3    H122421   6.495   2.632   0.454 -1.3869 -0.6856  0.0831
  262TIP3    H222422   6.495   2.684   0.597 -0.1347 -0.7666  0.1308
  263TIP3   OH222423   1.505   1.672   1.204  0.1695  0.1154  0.2879
  263TIP3    H122424   1.454   1.617   1.144  0.8332 -1.3719  1.0285
  263TIP3    H222425   1.448   1.684   1.279  0.4165 -0.5287  0.5944
  264TIP3   OH222426   4.710   3.669   8.663  0.0768 -0.7366  0.1701
  264TIP3    H122427   4.636   3.612   8.642  0.4702 -1.3191  0.3236
  264TIP3    H222428   4.778   3.609   8.695  0.5164 -0.1836  0.2948
  265TIP3   OH222429   1.958   4.542   0.497 -0.3010 -0.6630  0.2910
  265TIP3    H122430   1.999   4.626   0.518 -2.1422  0.2032  0.6224
  265TIP3    H222431   1.980   4.527   0.405 -1.4222  1.1170 -0.3203
  266TIP3   OH222432   6.024   0.873   8.424 -0.2581  0.9793  0.9907
  266TIP3    H122433   5.970   0.892   8.348  0.4318 -0.6798  0.0211
  266TIP3    H222434   6.103   0.925   8.411 -0.0221  0.4873  0.3948
  267TIP3   OH222435   3.024   0.217   8.690  0.4904 -0.9643  0.3496
  267TIP3    H122436   2.929   0.225   8.677  0.6825  2.9270  0.1716
  267TIP3    H222437   3.033   0.200   8.784 -0.3472 -1.1011  0.4216
  268TIP3   OH222438   0.968   5.946   1.591 -0.0118 -0.1053 -0.0455
  268TIP3    H122439   0.979   5.985   1.504 -0.3723  0.9488  0.3762
  268TIP3    H222440   0.936   6.017   1.646  0.3145 -0.7402  0.9876
  269TIP3   OH222441   0.684   3.694   2.643 -0.1391 -0.0596  0.4424
  269TIP3    H122442   0.615   3.672   2.705  0.6889  1.2954  1.9341
  269TIP3    H222443   0.765   3.672   2.689  0.4543 -0.6245 -0.8471
  270TIP3   OH222444   6.468   6.129   0.319  0.0769 -0.0379 -0.1109
  270TIP3    H122445   6.403   6.092   0.379  0.8573 -0.3255  0.5753
  270TIP3    H222446   6.509   6.052   0.278  0.6788  0.1012  0.2168
  271TIP3   OH222447   3.467   1.902   1.500  0.1127  0.8552  0.7973
  271TIP3    H122448   3.558   1.922   1.478 -0.1037  0.0064 -0.9826
  271TIP3    H222449   3.418   1.980   1.474  0.1854  0.8475  0.6363
  272TIP3   OH222450   6.362   5.896   2.127 -0.0461 -1.0467  0.5367
  272TIP3    H122451   6.349   5.804   2.104  2.2816 -0.6558 -3.0243
  272TIP3    H222452   6.320   5.945   2.056  1.4493  0.5293  0.6804
  273TIP3   OH222453   3.838   6.568   0.978 -0.3736 -0.5339  0.6490
  273TIP3    H122454   3.929   6.588   1.002 -1.2563  3.7298  1.2406
  273TIP3    H222455   3.807   6.511   1.048  1.6089 -1.5758  0.7661
  274TIP3   OH222456   6.058   2.241   7.306  0.0344  0.9343 -0.0095
  274TIP3    H122457   6.016   2.165   7.266  2.5641  0.3419 -1.7584
  274TIP3    H222458   6.108   2.282   7.235  0.7741  2.7523  1.4691
  275TIP3   OH222459   2.786   5.224   8.686  0.2567 -0.0875 -0.0435
  275TIP3    H122460   2.852   5.290   8.705  0.6396 -0.9410  1.8196
  275TIP3    H222461   2.719   5.271   8.637  0.4962  1.6962  1.2353
  276TIP3   OH222462   2.187   5.180   0.472 -0.1209 -0.1962  0.1151
  276TIP3    H122463   2.145   5.210   0.392  1.1772  1.3498 -0.0584
  276TIP3    H222464   2.136   5.105   0.500 -1.1891 -0.1717 -1.6280
  277TIP3   OH222465   6.619   0.242   0.690  0.3491  0.0416 -0.3177
  277TIP3    H122466   6.578   0.211   0.609 -0.8841  0.7657  0.0153
  277TIP3    H222467   6.696   0.290   0.660  0.4171 -0.4660 -1.0076
  278TIP3   OH222468   5.343   3.020   8.791 -0.4747  0.0368 -0.3848
  278TIP3    H122469   5.280   3.075   8.838 -0.1470  2.3820 -2.4644
  278TIP3    H222470   5.352   2.942   8.845 -1.5481  1.6944  2.3971
  279TIP3   OH222471   3.290   5.359   7.425 -0.3454 -0.2143 -0.0960
  279TIP3    H122472   3.206   5.342   7.382 -0.1267 -0.0437 -0.5991
  279TIP3    H222473   3.304   5.282   7.480  0.2391 -1.3525 -1.7411
  280TIP3   OH222474   1.071   4.559   8.706  0.2950 -0.6089 -0.1067
  280TIP3    H122475   1.017   4.480   8.696  1.6473 -1.4673 -0.9384
  280TIP3    H222476   1.141   4.548   8.643 -0.6193  2.2971 -1.8048
  281TIP3   OH222477   1.710   3.999   0.026  0.4412  0.4823  0.1429
  281TIP3    H122478   1.773   4.060  -0.011 -2.4230  1.7831 -3.1633
  281TIP3    H222479   1.625   4.040   0.011 -1.4192 -2.3649  1.8695
  282TIP3   OH222480   6.791   3.265   8.793  0.5996  0.5798  0.0851
  282TIP3    H122481   6.792   3.202   8.865  1.3480  1.7306  1.1210
  282TIP3    H222482   6.698   3.278   8.775  0.4410 -1.2339 -0.5480
  283TIP3   OH222483   4.400   1.939   7.307  0.9525  0.3836  0.7220
  283TIP3    H122484   4.433   1.870   7.249 -0.4666  0.1379  0.1809
  283TIP3    H222485   4.376   1.892   7.388 -0.2555  0.1796  0.2609
  284TIP3   OH222486   5.899   5.317   1.641  0.0742 -0.0899 -0.0360
  284TIP3    H122487   5.920   5.350   1.728  1.2327  0.8457 -0.6409
  284TIP3    H222488   5.820   5.366   1.615 -0.5641 -0.7217  0.6500
  285TIP3   OH222489   5.801   4.301   2.276 -0.0942  0.5507 -0.4579
  285TIP3    H122490   5.828   4.388   2.307  1.9709 -0.7515  1.6917
  285TIP3    H222491   5.736   4.272   2.340  1.3289 -0.6080  0.4912
  286TIP3   OH222492   5.990   4.708   8.436 -0.9710 -0.0087 -0.2428
  286TIP3    H122493   5.955   4.630   8.394  1.5047 -1.1762 -0.3263
  286TIP3    H222494   5.987   4.688   8.530 -1.1290  0.1432 -0.2167
  287TIP3   OH222495   2.262   0.028   8.791 -0.1938 -0.0220  0.3926
  287TIP3    H122496   2.168   0.023   8.773  0.0295  0.6318 -1.1080
  287TIP3    H222497   2.302   0.040   8.706  1.0506  2.4220  1.2276
  288TIP3   OH222498   4.332   5.020   7.768  0.3268  0.1550  0.0803
  288TIP3    H122499   4.347   5.108   7.735 -1.6614 -0.0241 -1.4821
  288TIP3    H222500   4.375   5.019   7.854  4.2203  1.1825 -1.6245
  289TIP3   OH222501   6.740   1.560   0.398  0.1006 -0.5193  0.9596
  289TIP3    H122502   6.651   1.532   0.421  0.4339 -0.5958  2.2253
  289TIP3    H222503   6.780   1.483   0.358 -0.5127 -0.3717  0.0461
  290TIP3   OH222504   5.324   5.451   7.931 -0.0585  0.1846 -0.4405
  290TIP3    H122505   5.308   5.469   7.839  1.0840  1.1307 -0.4650
  290TIP3    H222506   5.365   5.530   7.965  0.6302 -0.5886  0.6014
  291TIP3   OH222507   0.251   4.790   6.488  1.1177 -0.6775 -0.0945
  291TIP3    H122508   0.196   4.844   6.431  1.2032  0.7327  1.1088
  291TIP3    H222509   0.275   4.715   6.433 -2.2478 -1.5654 -0.5657
  292TIP3   OH222510   3.864   1.480   2.858  0.1096 -0.2976 -0.5285
  292TIP3    H122511   3.910   1.549   2.811  1.6121 -0.1272  1.0649
  292TIP3    H222512   3.822   1.524   2.932  1.6378 -1.0679  0.8980
  293TIP3   OH222513   3.025   4.316   7.396  0.4023  0.5006  0.0500
  293TIP3    H122514   3.026   4.389   7.457 -0.4225  0.3105  0.2969
  293TIP3    H222515   3.052   4.241   7.449 -2.2142 -0.0616  0.7441
  294TIP3   OH222516   4.392   0.705   1.094 -0.0337 -0.1732  0.7280
  294TIP3    H122517   4.337   0.758   1.037  0.7051  0.8219  0.9018
  294TIP3    H222518   4.378   0.742   1.182  1.4035  0.5611  0.6801
  295TIP3   OH222519   4.179   4.041   7.119  0.3570  0.3245 -0.3182
  295TIP3    H122520   4.097   4.079   7.089  1.0203  1.0345 -1.3040
  295TIP3    H222521   4.197   3.971   7.056  0.9660  0.7886 -0.6725
  296TIP3   OH222522   6.577   5.099   0.649 -0.3328 -0.0527  0.0116
  296TIP3    H122523   6.612   5.043   0.718 -0.8997 -0.9609 -0.4177
  296TIP3    H222524   6.584   5.047   0.569  0.0657  0.8757 -0.5824
  297TIP3   OH222525   4.525   3.790   7.895 -0.7019  0.2401 -0.0411
  297TIP3    H122526   4.494   3.829   7.813 -1.1211  1.4824  0.6827
  297TIP3    H222527   4.619   3.809   7.897 -0.2436 -1.6082 -1.1838
  298TIP3   OH222528   5.692   5.570   7.832 -0.3746  0.7376  0.1572
  298TIP3    H122529   5.765   5.554   7.891 -0.4986  1.2662  0.4575
  298TIP3    H222530   5.727   5.551   7.745 -0.1289  0.1728  0.3775
  299TIP3   OH222531   1.902   4.136   8.753 -0.2051  0.1041 -0.1690
  299TIP3    H122532   1.879   4.166   8.665  0.6600  0.3818 -0.3179
  299TIP3    H222533   1.975   4.192   8.778  0.8983 -1.2981 -0.1052
  300TIP3   OH222534   0.157   3.902   2.034 -0.0374  0.0527 -0.1976
  300TIP3    H122535   0.192   3.902   1.945  1.3778 -2.1749  0.2773
  300TIP3    H222536   0.202   3.974   2.078 -1.2034  1.5738 -1.3777
  301TIP3   OH222537   6.561   4.267   0.725 -0.2302 -0.3113  0.3441
  301TIP3    H122538   6.651   4.280   0.754  0.2156 -0.8075 -0.7538
  301TIP3    H222539   6.565   4.276   0.630 -1.7901  2.1432  0.4231
  302TIP3   OH222540   2.554   1.070   8.564  0.1304  0.8676 -0.0779
  302TIP3    H122541   2.587   0.997   8.512  2.7269  0.7425  1.5753
  302TIP3    H222542   2.591   1.148   8.523  0.9231  0.8886  0.6606
  303TIP3   OH222543   3.574   3.943   7.692  0.4423  0.4331 -0.9704
  303TIP3    H122544   3.606   3.861   7.653  0.4970  0.6636 -1.4237
  303TIP3    H222545   3.483   3.925   7.714  0.1585  0.5624 -1.9973
  304TIP3   OH222546   1.966   4.520   8.672  0.1925  0.1161 -0.2049
  304TIP3    H122547   1.894   4.581   8.652  0.6991  0.5261 -0.8050
  304TIP3    H222548   1.945   4.441   8.622 -1.2593 -0.8342  1.7101
  305TIP3   OH222549   5.426   3.639   0.511 -0.9619 -0.0300 -0.0086
  305TIP3    H122550   5.501   3.643   0.570 -0.2585 -0.4393 -0.8494
  305TIP3    H222551   5.438   3.713   0.452 -1.7397  0.4638  0.4359
  306TIP3   OH222552   3.096   6.411   0.506  0.2991 -0.4178  0.6319
  306TIP3    H122553   3.122   6.499   0.480 -1.3519 -0.4030 -1.2127
  306TIP3    H222554   3.033   6.425   0.577 -0.7957 -0.0204 -0.3904
  307TIP3   OH222555   4.664   4.119   0.043 -0.1839 -0.4006 -0.3333
  307TIP3    H122556   4.708   4.035   0.030 -1.0611 -1.1436  1.2405
  307TIP3    H222557   4.692   4.148   0.130 -0.5446  0.5403 -0.5185
  308TIP3   OH222558   4.378   1.670   2.110 -0.3418 -0.0303 -0.2047
  308TIP3    H122559   4.352   1.761   2.128  1.2539  0.1545  1.6217
  308TIP3    H222560   4.406   1.671   2.019 -1.0350  1.1314 -0.4348
  309TIP3   OH222561   5.495   4.425   7.649 -0.3125 -0.8750  0.0780
  309TIP3    H122562   5.490   4.347   7.593 -0.6361 -0.0153 -1.1297
  309TIP3    H222563   5.414   4.423   7.699 -0.2167 -1.4229  0.2287
  310TIP3   OH222564   3.586   1.233   1.153  0.6990  0.0027  0.1398
  310TIP3    H122565   3.549   1.241   1.065  0.1706 -0.6290  0.2945
  310TIP3    H222566   3.515   1.261   1.210  0.2590 -1.6925  0.4706
  311TIP3   OH222567   5.476   5.475   1.338 -0.3517  0.6018  0.1171
  311TIP3    H122568   5.463   5.450   1.247 -0.1508 -1.2728  0.5620
  311TIP3    H222569   5.403   5.435   1.385 -0.1319  1.0409  0.8588
  312TIP3   OH222570   0.192   3.431   0.209 -0.9762  0.5039  0.1943
  312TIP3    H122571   0.228   3.471   0.130 -0.9921  1.5403  0.6994
  312TIP3    H222572   0.149   3.351   0.178  0.6924 -0.1330 -0.5714
  313TIP3   OH222573   4.508   3.502   1.874 -0.4411 -0.4075  0.4304
  313TIP3    H122574   4.442   3.568   1.892  0.1911  0.0049  1.3282
  313TIP3    H222575   4.553   3.489   1.958  1.9069  0.7704 -0.5579
  314TIP3   OH222576   5.292   1.010   8.141 -0.2858  0.1727  0.2391
  314TIP3    H122577   5.338   0.951   8.081  1.0691  1.2162  0.2029
  314TIP3    H222578   5.267   0.955   8.215  0.5210 -0.5386 -0.0077
  315TIP3   OH222579   6.566   0.761   8.763 -0.1696 -0.1256  0.4249
  315TIP3    H122580   6.570   0.739   8.670  1.5364 -0.7555  0.6213
  315TIP3    H222581   6.569   0.677   8.808 -1.2870  0.1554  1.0705
  316TIP3   OH222582   4.122   2.268   2.561 -0.0492 -0.4714 -0.5479
  316TIP3    H122583   4.191   2.212   2.525  0.0008 -0.9802  0.2973
  316TIP3    H222584   4.168   2.330   2.617 -0.3601 -2.2013  1.8182
  317TIP3   OH222585   1.327   1.061   1.753  0.4326 -0.0650 -0.1563
  317TIP3    H122586   1.252   1.034   1.807  0.7229  0.9539  0.7766
  317TIP3    H222587   1.394   0.995   1.770 -0.0267 -0.6297 -0.5070
  318TIP3   OH222588   0.589   4.463   0.319 -0.3796 -0.1599 -0.2611
  318TIP3    H122589   0.513   4.406   0.312  0.7291 -1.6597 -0.6393
  318TIP3    H222590   0.598   4.502   0.232  0.6542 -1.8578 -0.9613
  319TIP3   OH222591   0.049   1.753   8.702 -0.5937 -0.5923 -0.2951
  319TIP3    H122592   0.003   1.732   8.621  1.0823 -0.7896 -1.2560
  319TIP3    H222593   0.095   1.672   8.724 -0.4404 -0.3110  0.4472
  320TIP3   OH222594   0.763   6.774   0.579 -0.0507  0.1433 -0.1669
  320TIP3    H122595   0.677   6.785   0.618 -0.1544 -0.8802 -0.0827
  320TIP3    H222596   0.784   6.860   0.543  0.4032  1.4364  2.8344
  321TIP3   OH222597   2.507   0.652   1.890 -0.0592 -0.4449 -0.0327
  321TIP3    H122598   2.560   0.581   1.926 -1.7595 -1.5653  0.3964
  321TIP3    H222599   2.470   0.615   1.809  1.9897  1.2961 -1.9073
  322TIP3   OH222600   2.044   1.611   0.615  0.1376 -0.1470  0.3312
  322TIP3    H122601   2.133   1.632   0.644  0.7693 -0.9426 -0.9391
  322TIP3    H222602   2.016   1.541   0.674  0.7892 -0.6467  0.0690
  323TIP3   OH222603   4.752   1.289   1.675 -0.2558  0.5021  0.4976
  323TIP3    H122604   4.815   1.218   1.665 -0.8831  0.0706 -0.4678
  323TIP3    H222605   4.789   1.344   1.745  1.5291  0.6373 -0.4986
  324TIP3   OH222606   5.420   4.989   7.553 -0.4890 -0.1080 -0.5995
  324TIP3    H122607   5.492   4.977   7.491  0.4941  2.4219 -0.0407
  324TIP3    H222608   5.424   5.081   7.578 -2.5518 -0.4151  1.1781
  325TIP3   OH222609   1.478   4.646   7.858 -0.0935  0.3963  0.1080
  325TIP3    H122610   1.560   4.618   7.817 -0.1542 -0.5845  0.6391
  325TIP3    H222611   1.486   4.742   7.861  1.0994  0.3147  0.2854
  326TIP3   OH222612   3.056   3.631   0.396  0.2963  0.0483  0.0454
  326TIP3    H122613   3.117   3.571   0.353 -0.8210 -1.2823  0.2145
  326TIP3    H222614   3.024   3.687   0.325  1.4856  0.5849 -0.0867
  327TIP3   OH222615   6.093   0.332   7.431 -1.0523  0.2316  0.0352
  327TIP3    H122616   6.098   0.301   7.341 -0.7679 -0.4856  0.2995
  327TIP3    H222617   6.143   0.414   7.431  0.4291 -0.6543 -0.0640
  328TIP3   OH222618   3.905   2.501   8.726  0.2819  0.6232 -0.5568
  328TIP3    H122619   3.968   2.548   8.672  0.5391  1.9375  0.8312
  328TIP3    H222620   3.825   2.553   8.720 -0.6234 -0.8136 -1.9807
  329TIP3   OH222621   1.301   6.288   0.277  0.1308  0.1730 -0.3958
  329TIP3    H122622   1.374   6.342   0.307 -0.8444  0.9950  0.5757
  329TIP3    H222623   1.259   6.341   0.209  0.5972 -0.4385 -1.1879
  330TIP3   OH222624   0.757   4.294   1.204 -0.3036  0.4614  0.2278
  330TIP3    H122625   0.687   4.313   1.142  0.5614  0.9848 -0.6043
  330TIP3    H222626   0.768   4.375   1.254  0.2328  0.6514 -0.1830
  331TIP3   OH222627   2.323   2.891   8.411  0.2283  0.4094 -0.2537
  331TIP3    H122628   2.269   2.818   8.441 -0.4594 -0.1418 -2.5617
  331TIP3    H222629   2.394   2.897   8.474 -1.1716 -0.4923  1.4811
  332TIP3   OH222630   1.428   5.290   7.065 -0.0554  0.3841  0.2897
  332TIP3    H122631   1.355   5.282   7.125 -1.4212  1.9131 -1.0485
  332TIP3    H222632   1.392   5.265   6.980  0.5910  2.3198 -0.6100
  333TIP3   OH222633   5.301   5.993   0.784  0.5670  0.0263 -0.4143
  333TIP3    H122634   5.318   6.060   0.718 -0.4400 -1.4282 -2.2715
  333TIP3    H222635   5.355   5.919   0.757 -0.3415 -0.8151  0.0149
  334TIP3   OH222636   5.876   1.107   1.113  0.4820 -0.0704  0.3360
  334TIP3    H122637   5.871   1.035   1.050  1.1917 -0.4184  0.6635
  334TIP3    H222638   5.900   1.065   1.196  0.8897  0.5348  0.5343
  335TIP3   OH222639   4.692   1.591   1.163  0.1301  0.0127  0.2027
  335TIP3    H122640   4.721   1.519   1.218  2.1637  0.7042  0.1416
  335TIP3    H222641   4.689   1.554   1.074  0.6765 -0.1419  0.2433
  336TIP3   OH222642   2.257   1.645   0.204  0.2394  0.1353  0.4916
  336TIP3    H122643   2.272   1.715   0.139  0.6418 -0.7010 -0.3424
  336TIP3    H222644   2.162   1.634   0.206  0.2026  0.4046  0.3020
  337TIP3   OH222645   1.969   3.905   1.820  0.3518 -0.0602 -0.4016
  337TIP3    H122646   1.988   3.969   1.889  1.8086  0.2646 -1.0675
  337TIP3    H222647   1.985   3.820   1.862  0.5021  0.1024 -0.1289
  338TIP3   OH222648   0.521   3.855   0.439 -0.0168  0.3489  0.0405
  338TIP3    H122649   0.536   3.917   0.367  1.2995  1.2620  1.0435
  338TIP3    H222650   0.593   3.792   0.432  0.0068  0.3299  0.4198
  339TIP3   OH222651   6.799   5.421   0.588  0.2153 -0.0133 -0.3239
  339TIP3    H122652   6.886   5.450   0.560  0.5527  0.3191  0.9934
  339TIP3    H222653   6.738   5.466   0.529  0.7708  2.6547  0.9748
  340TIP3   OH222654   4.190   3.354   1.557  0.5032 -0.0112  0.1198
  340TIP3    H122655   4.265   3.347   1.498 -0.2687 -0.9267 -0.7961
  340TIP3    H222656   4.125   3.295   1.520 -0.8467  1.1016  0.6400
  341TIP3   OH222657   5.400   3.454   1.678  0.4186 -0.1571  0.0519
  341TIP3    H122658   5.314   3.494   1.678  0.2007 -0.5421 -1.5991
  341TIP3    H222659   5.384   3.360   1.685  0.9129 -0.1058  3.5748
  342TIP3   OH222660   4.247   5.564   0.802 -0.4546  0.0807 -0.4195
  342TIP3    H122661   4.334   5.545   0.765 -0.5245  0.8879 -1.0331
  342TIP3    H222662   4.256   5.652   0.839  0.0619 -1.2293  2.9313
  343TIP3   OH222663   2.240   6.139   0.076  0.5048  0.2775  0.0185
  343TIP3    H122664   2.284   6.085   0.142  1.5197 -0.8749 -1.5318
  343TIP3    H222665   2.292   6.219   0.072  1.0593 -0.0819 -0.0972
  344TIP3   OH222666   3.288   5.783   6.681  0.0531 -0.0541  0.5131
  344TIP3    H122667   3.236   5.709   6.711 -0.9311  0.9250  1.2695
  344TIP3    H222668   3.292   5.772   6.586 -0.6508 -0.6986  0.5461
  345TIP3   OH222669   5.967   6.676   1.407  0.6767  0.0890  0.1437
  345TIP3    H122670   6.044   6.620   1.403  0.8519  0.4022 -1.1786
  345TIP3    H222671   5.938   6.685   1.316 -1.1569 -0.3355  0.6365
  346TIP3   OH222672   5.847   0.349   2.429 -0.0412  0.1975  0.5038
  346TIP3    H122673   5.801   0.266   2.433 -2.9410  1.5998 -0.7586
  346TIP3    H222674   5.887   0.359   2.516  1.0552 -2.7588  0.4557
  347TIP3   OH222675   2.921   6.563   8.292  0.0108  0.9631 -0.0166
  347TIP3    H122676   2.921   6.621   8.215 -3.1080  1.7852  0.4816
  347TIP3    H222677   2.888   6.618   8.363 -0.4064 -0.7151  1.1383
  348TIP3   OH222678   0.891   0.108   0.184  0.6935  0.2525  0.6220
  348TIP3    H122679   0.979   0.122   0.220  0.1321  1.8353  1.4984
  348TIP3    H222680   0.876   0.014   0.190  2.1934  0.0045  0.7615
  349TIP3   OH222681   1.609   0.346   7.810 -0.1471 -0.1334 -0.3037
  349TIP3    H122682   1.606   0.329   7.716  0.4305  0.6642 -0.4736
  349TIP3    H222683   1.519   0.365   7.834 -0.2162  0.1721 -0.7983
  350TIP3   OH222684   2.417   2.732   1.253 -0.0779 -0.0724  0.2282
  350TIP3    H122685   2.391   2.787   1.327  0.1075  1.9250 -1.1169
  350TIP3    H222686   2.497   2.773   1.221 -0.4030 -0.6206 -1.3478
  351TIP3   OH222687   5.514   2.178   1.127 -0.4529 -1.0317  0.0404
  351TIP3    H122688   5.458   2.116   1.079  1.5644 -1.9124 -1.3071
  351TIP3    H222689   5.539   2.131   1.207  2.7978 -3.0734 -1.9184
  352TIP3   OH222690   3.374   3.390   7.927 -0.3131 -0.5353 -0.3522
  352TIP3    H122691   3.393   3.478   7.895 -0.5048 -1.0463 -1.9875
  352TIP3    H222692   3.445   3.336   7.891 -0.3396 -1.0921  0.4123
  353TIP3   OH222693   5.875   0.325   1.980  0.5733  0.5195  0.3785
  353TIP3    H122694   5.962   0.329   2.019  0.4731 -1.0830  0.8488
  353TIP3    H222695   5.816   0.354   2.049  0.7217  1.8116 -0.0081
  354TIP3   OH222696   1.945   2.737   2.183 -0.8320  0.1568  0.1933
  354TIP3    H122697   1.922   2.722   2.275  0.3412  0.6507  0.5852
  354TIP3    H222698   2.030   2.693   2.173 -0.4311  1.0441 -0.3593
  355TIP3   OH222699   0.333   5.874   7.775  0.1825  0.1541  0.0619
  355TIP3    H122700   0.322   5.957   7.822 -0.7104 -0.2396  0.5861
  355TIP3    H222701   0.307   5.807   7.839  1.0481 -0.5466 -0.2998
  356TIP3   OH222702   1.244   1.142   0.478  0.6821 -0.4147  0.0660
  356TIP3    H122703   1.206   1.128   0.392  1.9294  0.0622 -0.5825
  356TIP3    H222704   1.202   1.076   0.534  0.0873 -0.9323 -0.9659
  357TIP3   OH222705   5.453   0.948   0.501 -0.5483 -0.3135 -0.1354
  357TIP3    H122706   5.439   0.866   0.453 -0.9232 -0.4425  0.1904
  357TIP3    H222707   5.372   0.998   0.487 -0.8478 -0.5446  0.7445
  358TIP3   OH222708   3.893   0.580   8.064  0.2938 -0.5248 -0.4445
  358TIP3    H122709   3.801   0.561   8.050  0.3687 -0.2223 -1.3603
  358TIP3    H222710   3.916   0.530   8.143 -0.9313  0.3364  0.4935
  359TIP3   OH222711   1.284   5.304   1.777 -0.0685 -0.0464  0.1339
  359TIP3    H122712   1.362   5.359   1.774  0.5555 -0.9288 -1.4086
  359TIP3    H222713   1.225   5.348   1.838  2.1794 -0.1065  2.5069
  360TIP3   OH222714   6.404   0.435   8.599 -0.1287 -0.0018 -0.0036
  360TIP3    H122715   6.442   0.494   8.663 -1.0571  0.6826 -0.0645
  360TIP3    H222716   6.373   0.360   8.650  3.0576 -1.6116 -0.1418
  361TIP3   OH222717   2.479   0.400   1.307 -0.2970  0.0101  0.3443
  361TIP3    H122718   2.476   0.415   1.402  0.6352 -0.1718  0.4056
  361TIP3    H222719   2.442   0.480   1.269  2.4958  1.5959  0.7591
  362TIP3   OH222720   0.055   6.005   0.307 -0.7017 -0.4524 -0.0617
  362TIP3    H122721   0.063   6.099   0.292  1.6282  0.1156  3.5383
  362TIP3    H222722   0.135   5.968   0.269 -0.8189 -0.7604 -0.0129
  363TIP3   OH222723   3.628   0.245   2.664  0.1506 -0.1553 -0.5066
  363TIP3    H122724   3.624   0.277   2.574 -1.4124 -0.4756 -0.5805
  363TIP3    H222725   3.537   0.241   2.692  0.5520 -0.9695  0.7784
  364TIP3   OH222726   6.816   3.904   8.067  0.1654 -0.2653 -0.0203
  364TIP3    H122727   6.903   3.944   8.069  0.0454  0.2871 -2.5991
  364TIP3    H222728   6.761   3.968   8.023 -0.9468 -1.6620 -0.7161
  365TIP3   OH222729   4.132   0.359   7.941  0.2460 -0.0232 -0.3384
  365TIP3    H122730   4.190   0.343   8.015 -1.7486 -2.9364  0.8223
  365TIP3    H222731   4.159   0.295   7.875 -0.6320 -0.3567 -0.3915
  366TIP3   OH222732   6.654   3.762   1.457 -0.0742 -0.5277 -0.3135
  366TIP3    H122733   6.566   3.794   1.477  0.3114  0.3329  0.0440
  366TIP3    H222734   6.640   3.694   1.391 -1.3217 -2.8546  2.1438
  367TIP3   OH222735   1.560   1.762   0.228  0.0409 -0.4485  0.7045
  367TIP3    H122736   1.629   1.695   0.228  0.6055  0.1217  0.8115
  367TIP3    H222737   1.522   1.757   0.315  1.3728  0.6482  1.3890
  368TIP3   OH222738   1.173   0.477   2.337  0.6850  0.4202 -0.6822
  368TIP3    H122739   1.108   0.532   2.380  1.5165  0.4858  0.5376
  368TIP3    H222740   1.252   0.488   2.390  1.0872 -1.3359 -0.8658
  369TIP3   OH222741   0.942   3.656   2.779 -1.0993 -0.0918 -0.4872
  369TIP3    H122742   1.033   3.632   2.796 -1.0633 -0.4764 -1.1878
  369TIP3    H222743   0.947   3.729   2.718 -1.2461  0.6304  0.3492
  370TIP3   OH222744   4.125   1.492   7.462 -0.7915  0.5821 -0.1647
  370TIP3    H122745   4.157   1.406   7.490  1.6350  0.0267 -3.9118
  370TIP3    H222746   4.041   1.474   7.421 -0.8445  0.1640  0.1274
  371TIP3   OH222747   0.802   4.205   7.413  0.2313 -0.0911  0.6481
  371TIP3    H122748   0.753   4.274   7.459 -1.3086 -0.5100 -0.2788
  371TIP3    H222749   0.888   4.205   7.455  0.2834  2.3666  0.6979
  372TIP3   OH222750   4.355   5.253   2.150 -0.0975  0.1554 -0.1245
  372TIP3    H122751   4.321   5.342   2.153 -0.5641 -0.0332  0.4763
  372TIP3    H222752   4.447   5.262   2.176 -0.3805  0.3648  0.8586
  373TIP3   OH222753   2.158   6.359   1.682 -0.4351 -0.4200  0.1528
  373TIP3    H122754   2.145   6.341   1.589 -1.4938  1.6345 -0.1575
  373TIP3    H222755   2.249   6.337   1.698 -0.2046 -0.7277 -1.4012
  374TIP3   OH222756   4.543   3.928   1.030 -0.0240  0.4746 -0.0943
  374TIP3    H122757   4.515   4.019   1.044 -0.6957  0.2460  0.1177
  374TIP3    H222758   4.566   3.897   1.117  1.9037  0.9585 -0.3902
  375TIP3   OH222759   2.444   2.611   7.999  0.1903 -0.1243 -0.0801
  375TIP3    H122760   2.520   2.558   7.973 -0.3083 -1.0583  0.2960
  375TIP3    H222761   2.369   2.564   7.963 -0.2506  0.5026  0.0044
  376TIP3   OH222762   1.319   5.764   7.417  0.2333  0.2189 -0.4743
  376TIP3    H122763   1.233   5.732   7.389  0.0595 -0.8481  1.1169
  376TIP3    H222764   1.335   5.841   7.363 -2.2204  1.0876 -0.0824
  377TIP3   OH222765   1.258   6.426   7.367  0.1325 -0.2324  0.4077
  377TIP3    H122766   1.173   6.416   7.408  0.1035 -0.5086  0.2831
  377TIP3    H222767   1.248   6.501   7.309 -0.3796 -0.9826 -0.4953
  378TIP3   OH222768   0.340   1.603   7.332 -0.4510 -0.1435 -0.4221
  378TIP3    H122769   0.259   1.567   7.295  0.9020 -2.7631 -1.0622
  378TIP3    H222770   0.344   1.693   7.298 -1.5476 -0.9698 -3.0023
  379TIP3   OH222771   4.314   3.991   1.912  0.2854 -0.5759  0.3924
  379TIP3    H122772   4.330   4.079   1.878  3.8597 -1.9784 -2.2084
  379TIP3    H222773   4.224   3.994   1.944 -1.0020  3.0796 -2.7373
  380TIP3   OH222774   0.397   5.121   0.284 -0.1474  0.0652  0.2765
  380TIP3    H122775   0.412   5.146   0.375  1.2349 -0.4823  0.2276
  380TIP3    H222776   0.421   5.028   0.280  0.0870  0.1541 -0.7059
  381TIP3   OH222777   5.178   0.757   0.207  0.0367 -0.1248 -0.0481
  381TIP3    H122778   5.204   0.844   0.179  1.3572 -0.1758  0.9023
  381TIP3    H222779   5.101   0.771   0.261  1.3139  0.7242  1.6564
  382TIP3   OH222780   2.925   4.903   7.658 -0.1961 -0.2699  0.1742
  382TIP3    H122781   2.835   4.913   7.689 -0.3674 -1.2239  0.0164
  382TIP3    H222782   2.947   4.988   7.620 -1.9265 -0.7487 -2.1067
  383TIP3   OH222783   4.261   1.381   2.304  0.4099  0.4960  0.1444
  383TIP3    H122784   4.288   1.301   2.349  0.4733  0.9833  1.0062
  383TIP3    H222785   4.341   1.434   2.298  0.7128 -0.0976 -1.7670
  384TIP3   OH222786   4.612   3.393   7.776  0.4136 -0.0894 -0.3370
  384TIP3    H122787   4.621   3.310   7.824  3.5504  0.5529  0.3649
  384TIP3    H222788   4.567   3.451   7.838  1.5203 -0.2233  0.6326
  385TIP3   OH222789   4.511   6.229   8.396 -0.0428  0.9131 -0.3213
  385TIP3    H122790   4.589   6.199   8.442  0.0177  1.3933 -0.1022
  385TIP3    H222791   4.527   6.322   8.379  0.0427  0.6900 -1.5547
  386TIP3   OH222792   4.174   0.754   8.259 -0.1981 -0.1281  0.2389
  386TIP3    H122793   4.235   0.821   8.289  1.6226 -1.4339 -0.3630
  386TIP3    H222794   4.120   0.734   8.336  1.8869 -0.7643  1.6268
  387TIP3   OH222795   4.979   0.521   2.768  0.0054 -0.1087 -0.1836
  387TIP3    H122796   4.884   0.505   2.766 -0.1147  0.6282 -1.1783
  387TIP3    H222797   4.988   0.607   2.808 -0.0594  1.5303 -3.3676
  388TIP3   OH222798   4.464   1.899   8.595 -0.0538  0.4330 -0.0089
  388TIP3    H122799   4.374   1.881   8.625 -0.4334 -2.3537 -2.3805
  388TIP3    H222800   4.458   1.898   8.500  2.5819 -0.3850 -0.2364
  389TIP3   OH222801   0.112   5.668   0.151  0.3078  0.0691 -0.2250
  389TIP3    H122802   0.142   5.720   0.225  0.1008 -0.9645  0.6174
  389TIP3    H222803   0.184   5.607   0.133  0.6642  0.8052 -1.3811
  390TIP3   OH222804   1.938   0.132   1.427  0.8089  0.1394 -0.1969
  390TIP3    H122805   1.892   0.208   1.393  1.2431  0.8978  0.8501
  390TIP3    H222806   2.028   0.162   1.441  0.8528 -0.3844  0.7517
  391TIP3   OH222807   2.659   6.253   1.597 -0.4288  0.1310  0.2238
  391TIP3    H122808   2.713   6.274   1.521 -0.2084 -0.3092  0.2549
  391TIP3    H222809   2.721   6.251   1.670  0.1419 -3.3272 -0.1566
  392TIP3   OH222810   3.159   5.737   1.446 -0.0976 -0.1788  0.5153
  392TIP3    H122811   3.212   5.755   1.523  0.4595  1.0002 -0.1046
  392TIP3    H222812   3.089   5.801   1.449 -1.2463 -1.4244  1.0758
  393TIP3   OH222813   6.451   2.136   8.410 -0.0965 -0.5206  0.6023
  393TIP3    H122814   6.471   2.203   8.344 -0.4220 -0.7141  0.3043
  393TIP3    H222815   6.517   2.068   8.397  0.5268 -0.0471  1.2155
  394TIP3   OH222816   6.753   5.926   0.843  0.3630  0.4204 -0.4949
  394TIP3    H122817   6.696   5.932   0.919 -0.5859  1.7511 -1.2723
  394TIP3    H222818   6.835   5.890   0.877  0.2430  1.7565  1.3103
  395TIP3   OH222819   1.211   1.969   7.407  0.9842  0.4465  0.1309
  395TIP3    H122820   1.186   2.001   7.320  0.1742  1.4313  0.6963
  395TIP3    H222821   1.192   1.875   7.405 -1.7373  0.9099  0.1091
  396TIP3   OH222822   4.142   6.408   8.544 -0.7098 -0.4208  0.0399
  396TIP3    H122823   4.126   6.498   8.516 -0.6241 -0.0350  1.1980
  396TIP3    H222824   4.166   6.363   8.463 -0.6989  0.6013 -0.5535
  397TIP3   OH222825   1.975   2.929   6.997 -0.2386 -0.2053  0.0925
  397TIP3    H122826   2.015   2.920   7.084 -2.0040 -0.3760  0.9149
  397TIP3    H222827   1.883   2.906   7.010 -1.0879  2.0394 -1.3374
  398TIP3   OH222828   1.514   0.684   8.744  0.5400  0.5504 -0.0571
  398TIP3    H122829   1.543   0.676   8.653  1.7129  2.2135  0.1261
  398TIP3    H222830   1.566   0.756   8.780 -0.9184  0.8894  1.5302
  399TIP3   OH222831   2.242   1.886   0.078  0.2397 -0.1535  0.1488
  399TIP3    H122832   2.166   1.943   0.088  1.3217  1.0965  1.7185
  399TIP3    H222833   2.305   1.918   0.142  1.4404 -2.2659  0.1262
  400TIP3   OH222834   3.239   0.399   8.700 -0.3123  0.2082  0.2582
  400TIP3    H122835   3.213   0.447   8.621 -0.6325 -0.2041  0.1105
  400TIP3    H222836   3.174   0.329   8.708  0.4283 -0.4991  0.1964
  401TIP3   OH222837   4.736   6.365   0.149 -0.5878  0.0501 -0.3281
  401TIP3    H122838   4.694   6.280   0.159 -0.7472  0.3744  2.7152
  401TIP3    H222839   4.702   6.417   0.223 -0.4807  2.7650 -2.0395
  402TIP3   OH222840   1.153   4.989   2.355 -0.0688  0.1511  0.1206
  402TIP3    H122841   1.202   5.056   2.403 -0.3355  1.2505 -1.0640
  402TIP3    H222842   1.102   5.039   2.291 -0.9876 -1.1356 -0.1959
  403TIP3   OH222843   0.832   5.714   2.355  0.3160 -0.0568 -0.4738
  403TIP3    H122844   0.864   5.802   2.371 -0.4839  0.3057 -0.7947
  403TIP3    H222845   0.737   5.721   2.364  0.1977 -0.7653 -1.0422
  404TIP3   OH222846   5.222   2.197   2.060  0.1609 -0.0999 -0.2896
  404TIP3    H122847   5.258   2.161   1.979  0.0027  0.6571 -0.7042
  404TIP3    H222848   5.138   2.152   2.071 -0.4950  0.8214 -1.3287
  405TIP3   OH222849   1.487   0.288   8.124 -0.0582  0.5680  0.0379
  405TIP3    H122850   1.556   0.225   8.102 -1.0619 -1.0050  1.2088
  405TIP3    H222851   1.532   0.357   8.173  0.6973 -0.5023  0.9046
  406TIP3   OH222852   4.356   4.218   0.762  0.4715  0.1371 -0.4426
  406TIP3    H122853   4.378   4.125   0.758  0.7683  0.2534 -2.8334
  406TIP3    H222854   4.429   4.258   0.810  0.2484 -0.8523  0.7676
  407TIP3   OH222855   4.823   3.897   8.788 -0.2105  0.5547 -0.2715
  407TIP3    H122856   4.830   3.929   8.698 -1.0734  0.1173 -0.5005
  407TIP3    H222857   4.767   3.820   8.782  2.0928 -1.2585  0.2065
  408TIP3   OH222858   5.043   4.566   8.367  0.7249  0.5874 -0.0779
  408TIP3    H122859   5.023   4.487   8.416  0.3323  0.9746  0.4007
  408TIP3    H222860   4.958   4.603   8.344  0.9035  0.6357 -0.6968
  409TIP3   OH222861   1.323   2.670   3.342  0.2053  0.1576  0.1945
  409TIP3    H122862   1.375   2.697   3.266  1.7794  0.0471  1.1972
  409TIP3    H222863   1.313   2.575   3.330  1.4858 -0.0539  0.7275
  410TIP3   OH222864   3.669   2.831   7.375  0.4448  0.4357 -0.0198
  410TIP3    H122865   3.741   2.781   7.416 -0.4169 -0.4080  0.5188
  410TIP3    H222866   3.625   2.767   7.319  0.7684  1.2333 -1.2189
  411TIP3   OH222867   0.859   1.176   1.266 -0.5379 -0.0520 -0.7311
  411TIP3    H122868   0.835   1.084   1.258  1.5000 -0.7276  0.1878
  411TIP3    H222869   0.947   1.181   1.229 -0.3167  1.3622 -0.0867
  412TIP3   OH222870   5.829   0.486   0.257  0.4735 -0.0909  0.1390
  412TIP3    H122871   5.764   0.480   0.328  0.7577 -1.0362  0.3374
  412TIP3    H222872   5.870   0.571   0.270 -0.5169  0.3931  0.1905
  413TIP3   OH222873   3.966   0.102   0.716 -0.0135 -0.4134  0.1337
  413TIP3    H122874   4.004   0.142   0.794 -1.5560  0.9567  0.2295
  413TIP3    H222875   3.886   0.060   0.747 -2.7335  3.3110 -1.1106
  414TIP3   OH222876   1.981   6.496   1.349 -0.1249  0.2341  0.9909
  414TIP3    H122877   2.044   6.424   1.344 -0.1236  0.2772  0.2940
  414TIP3    H222878   1.988   6.540   1.265  0.4635  1.5749  1.7227
  415TIP3   OH222879   5.074   1.789   7.738 -0.1502 -0.3205 -0.7163
  415TIP3    H122880   5.156   1.802   7.690  0.5249 -0.2978  0.4115
  415TIP3    H222881   5.039   1.878   7.750  1.0539 -0.0196  1.1196
  416TIP3   OH222882   4.978   6.337   1.951 -0.7649 -0.1912  0.1283
  416TIP3    H122883   4.942   6.347   2.039  0.3409 -1.3464  0.7434
  416TIP3    H222884   5.073   6.337   1.964 -0.5259  1.1351 -1.2551
  417TIP3   OH222885   4.345   6.395   1.808  0.4505 -0.1096 -0.1797
  417TIP3    H122886   4.274   6.443   1.765 -0.4671 -2.0122 -0.9392
  417TIP3    H222887   4.422   6.413   1.754 -0.0648 -0.1396 -0.9462
  418TIP3   OH222888   2.601   4.602   7.478  0.1742 -0.0163  0.6249
  418TIP3    H122889   2.564   4.517   7.505 -1.7860  0.5449 -0.1320
  418TIP3    H222890   2.616   4.648   7.560 -1.5993  0.0163  0.9725
  419TIP3   OH222891   1.068   6.525   1.120 -0.5626  0.2013 -0.4231
  419TIP3    H122892   0.991   6.579   1.104 -0.9060  0.5390  2.0062
  419TIP3    H222893   1.098   6.499   1.033 -1.2231  3.0927 -1.6283
  420TIP3   OH222894   1.120   3.216   8.478  0.1063 -0.0424  0.3935
  420TIP3    H122895   1.037   3.245   8.517 -1.1636 -0.0692 -2.0488
  420TIP3    H222896   1.094   3.148   8.416  2.3732 -2.3048  1.7541
  421TIP3   OH222897   6.308   2.841   2.408  0.7170 -0.1914 -0.3205
  421TIP3    H122898   6.275   2.865   2.494  0.6725 -0.1217 -0.3567
  421TIP3    H222899   6.361   2.917   2.381  1.5211 -0.6055  0.0584
  422TIP3   OH222900   5.162   2.829   2.305  0.1719 -0.6060  0.0036
  422TIP3    H122901   5.188   2.816   2.214 -1.2357  0.4485 -0.5887
  422TIP3    H222902   5.228   2.781   2.356  1.0708 -1.0927 -1.5452
  423TIP3   OH222903   2.958   5.900   1.507  0.3502  0.2225  0.2386
  423TIP3    H122904   2.917   5.937   1.429 -0.7013 -0.3467  0.4932
  423TIP3    H222905   2.899   5.829   1.533  1.8130 -1.0055  0.3099
  424TIP3   OH222906   6.124   0.337   7.156 -0.2023 -0.5558  0.4422
  424TIP3    H122907   6.125   0.243   7.138 -0.2039 -0.7821  1.5576
  424TIP3    H222908   6.209   0.368   7.124 -0.5318 -0.7673 -0.6975
  425TIP3   OH222909   3.132   2.411   1.024  0.5572 -0.3110 -0.0337
  425TIP3    H122910   3.070   2.411   1.098  0.1969  0.5786 -0.3218
  425TIP3    H222911   3.133   2.320   0.994  0.3903 -0.6012  0.8030
  426TIP3   OH222912   0.402   3.877   1.681 -0.5419  0.3759 -0.6462
  426TIP3    H122913   0.432   3.887   1.590  2.0554 -3.6835 -0.4594
  426TIP3    H222914   0.482   3.871   1.733 -1.8278 -1.5365  1.2899
  427TIP3   OH222915   0.196   4.197   8.447 -0.1334 -0.0324  0.0626
  427TIP3    H122916   0.112   4.169   8.484 -0.7270  1.3926 -0.1682
  427TIP3    H222917   0.260   4.139   8.488 -1.1509 -0.7209  0.7289
  428TIP3   OH222918   3.404   4.951   1.104  0.5295 -0.0524  0.3241
  428TIP3    H122919   3.404   4.888   1.032 -0.6583  2.5957 -2.2172
  428TIP3    H222920   3.494   4.984   1.106  0.0132  1.8225 -2.0199
  429TIP3   OH222921   6.571   0.453   2.756 -0.2992 -0.3600 -0.2581
  429TIP3    H122922   6.595   0.411   2.838  0.3312 -0.6871 -0.6038
  429TIP3    H222923   6.478   0.475   2.767  0.0624  0.6355  0.9619
  430TIP3   OH222924   3.084   1.774   2.245  0.0974 -0.4005 -0.0562
  430TIP3    H122925   3.085   1.835   2.171  1.9497  2.4398  2.1012
  430TIP3    H222926   3.175   1.769   2.273 -0.5582 -1.2898  2.1053
  431TIP3   OH222927   0.563   5.219   8.484  0.1178  0.4978  0.0274
  431TIP3    H122928   0.587   5.304   8.447  1.5879  0.6957  1.3419
  431TIP3    H222929   0.606   5.155   8.428  1.2336  0.7429  0.5779
  432TIP3   OH222930   3.728   3.040   7.804  0.2668  0.3432  0.0044
  432TIP3    H122931   3.778   3.094   7.743 -0.0497  0.3696 -0.2317
  432TIP3    H222932   3.669   2.989   7.748  0.7979 -0.4989  0.1916
  433TIP3   OH222933   4.439   4.429   8.603  0.5405 -0.1737  0.3922
  433TIP3    H122934   4.452   4.433   8.698  1.6332  0.6018  0.2142
  433TIP3    H222935   4.506   4.368   8.573  0.7428  0.2345  0.0180
  434TIP3   OH222936   1.301   6.122   8.460  0.6264  0.3554  0.0199
  434TIP3    H122937   1.383   6.075   8.475 -0.2467 -1.5546 -0.8286
  434TIP3    H222938   1.233   6.058   8.480 -0.6484  1.4880 -0.5428
  435TIP3   OH222939   0.382   5.257   7.686 -0.4004  0.4351  0.0190
  435TIP3    H122940   0.350   5.227   7.601 -1.1846  2.5267 -0.4860
  435TIP3    H222941   0.472   5.224   7.691 -0.8115 -0.9301 -0.9671
  436TIP3   OH222942   4.895   4.407   0.097  0.1752  0.0742  0.4179
  436TIP3    H122943   4.883   4.365   0.182 -0.3126  0.9972  0.8236
  436TIP3    H222944   4.851   4.349   0.035  0.5495 -0.6147  0.7948
  437TIP3   OH222945   0.681   1.972   0.988 -0.1473  0.0278  0.1795
  437TIP3    H122946   0.619   2.044   0.992  0.7979  0.8268  1.2281
  437TIP3    H222947   0.765   2.013   0.966  0.4732 -0.6940  1.0984
  438TIP3   OH222948   2.125   4.486   6.935 -0.5888  0.3921 -0.3469
  438TIP3    H122949   2.131   4.573   6.975  2.1119  0.0077  0.3157
  438TIP3    H222950   2.112   4.427   7.009 -1.6312  0.1456 -0.7145
  439TIP3   OH222951   1.309   0.842   6.935  0.9670 -0.2061 -0.3645
  439TIP3    H122952   1.308   0.927   6.981 -0.1112 -0.7268  0.6281
  439TIP3    H222953   1.326   0.865   6.844 -0.6009  1.2226 -0.3452
  440TIP3   OH222954   3.071   6.365   1.901  0.4178 -0.0272  0.1350
  440TIP3    H122955   3.091   6.456   1.922 -0.1733  0.3110 -0.7089
  440TIP3    H222956   3.032   6.369   1.813 -0.7850 -0.9431  0.6024
  441TIP3   OH222957   0.478   5.483   0.335 -0.6170  0.9840 -0.3483
  441TIP3    H122958   0.568   5.485   0.302 -0.8980 -1.4225 -1.4726
  441TIP3    H222959   0.425   5.459   0.258 -2.2949  2.6636  0.2098
  442TIP3   OH222960   6.168   2.554   1.955  0.0884 -0.0311 -0.0024
  442TIP3    H122961   6.122   2.479   1.993  0.7266 -0.2800  0.3071
  442TIP3    H222962   6.164   2.622   2.023 -0.0793  0.0493 -0.0931
  443TIP3   OH222963   3.100   0.153   0.133 -0.0692  0.2312  0.8097
  443TIP3    H122964   3.196   0.155   0.134 -0.0139 -0.8863  2.5797
  443TIP3    H222965   3.075   0.159   0.225 -1.6774 -0.4803  0.4582
  444TIP3   OH222966   1.930   2.350   0.287  0.2320  0.2979  0.0917
  444TIP3    H122967   2.022   2.327   0.277  0.0046 -0.1336 -1.1989
  444TIP3    H222968   1.889   2.322   0.205 -1.0535  0.4648  0.6489
  445TIP3   OH222969   0.278   0.777   8.504  0.4782  0.3323 -0.3004
  445TIP3    H122970   0.306   0.690   8.475  1.8665  0.2652  1.0864
  445TIP3    H222971   0.336   0.837   8.457 -0.4100  0.5357 -1.1773
  446TIP3   OH222972   3.712   2.939   7.094 -0.3289 -0.4865 -0.7699
  446TIP3    H122973   3.621   2.959   7.071 -1.2918 -3.6792 -0.1455
  446TIP3    H222974   3.712   2.932   7.189  1.1800  1.7142 -0.5107
  447TIP3   OH222975   4.957   3.124   1.704 -0.4311  0.2507 -0.0166
  447TIP3    H122976   4.920   3.067   1.772  1.1896  0.7352  1.3366
  447TIP3    H222977   5.049   3.134   1.728 -0.5296  3.0675 -0.4383
  448TIP3   OH222978   0.907   5.982   2.413 -0.7850  0.0287  0.4260
  448TIP3    H122979   0.977   6.045   2.429 -1.0460  0.7361 -1.0405
  448TIP3    H222980   0.888   5.945   2.499  0.6399  0.6070  1.0206
  449TIP3   OH222981   3.922   4.414   1.522  0.0563 -0.2733  0.0995
  449TIP3    H122982   3.856   4.365   1.570 -0.4478  1.4332  1.2643
  449TIP3    H222983   3.885   4.502   1.514  1.3445  0.2104 -1.0049
  450TIP3   OH222984   5.522   4.327   1.097  0.1003 -0.4602  0.3931
  450TIP3    H122985   5.570   4.289   1.170  0.5354  2.7411  1.9621
  450TIP3    H222986   5.589   4.349   1.033  0.0717 -0.7276  0.2717
  451TIP3   OH222987   3.798   5.650   8.704 -0.0708  0.8783 -0.4717
  451TIP3    H122988   3.847   5.585   8.654  2.1541  1.6209  0.5538
  451TIP3    H222989   3.814   5.626   8.796 -1.7147  1.1507 -0.0883
  452TIP3   OH222990   0.138   4.635   0.588 -0.0329  0.0327 -0.4329
  452TIP3    H122991   0.089   4.687   0.525 -3.3041 -2.3388 -0.1114
  452TIP3    H222992   0.191   4.576   0.535  0.6099  0.9180 -0.8128
  453TIP3   OH222993   1.943   4.611   1.204 -0.1436  0.3879 -0.5138
  453TIP3    H122994   1.959   4.538   1.145  0.0601  1.5554 -1.9698
  453TIP3    H222995   2.010   4.676   1.182  0.1723  0.7306  1.2753
  454TIP3   OH222996   0.364   0.753   7.476  0.5660  0.5174  0.9450
  454TIP3    H122997   0.355   0.754   7.381  1.4357  0.0963  0.8432
  454TIP3    H222998   0.445   0.704   7.492 -0.8512 -1.6659  2.0168
  455TIP3   OH222999   0.936   1.404   8.205  0.2254 -0.3281  0.1876
  455TIP3    H123000   0.871   1.447   8.150  1.1272  1.2752  0.3291
  455TIP3    H223001   0.883   1.354   8.268 -0.8335 -0.3170 -0.6533
  456TIP3   OH223002   3.981   4.301   0.446 -0.2189 -0.0251 -0.0556
  456TIP3    H123003   3.925   4.373   0.415 -0.7789 -0.5000 -0.1724
  456TIP3    H223004   4.007   4.327   0.534 -0.1077  0.4937 -0.2376
  457TIP3   OH223005   6.258   2.229   7.543  0.3677  0.2907  0.5653
  457TIP3    H123006   6.173   2.216   7.500  0.3397  0.8733  0.4383
  457TIP3    H223007   6.258   2.322   7.568  0.8897  0.2452  0.7362
  458TIP3   OH223008   2.084   1.272   1.178 -0.0943 -0.1756 -0.4296
  458TIP3    H123009   2.171   1.234   1.164 -1.1496 -2.4435 -1.4309
  458TIP3    H223010   2.027   1.224   1.118 -2.0290  1.3867  0.0384
  459TIP3   OH223011   4.344   6.060   1.990  0.0116  0.1485 -0.1775
  459TIP3    H123012   4.286   6.112   2.045  1.1265  1.7697 -0.4725
  459TIP3    H223013   4.303   6.062   1.903 -0.8708 -1.0129  0.1802
  460TIP3   OH223014   0.692   0.385   7.340 -0.0170  0.3144  0.2087
  460TIP3    H123015   0.701   0.296   7.374  0.1878  0.5504  0.7918
  460TIP3    H223016   0.769   0.398   7.285 -0.5174 -0.1879 -0.6228
  461TIP3   OH223017   2.176   5.017   2.695 -0.7668 -0.4231  0.7272
  461TIP3    H123018   2.212   4.929   2.703  0.1866 -0.0828  0.2488
  461TIP3    H223019   2.246   5.068   2.655 -1.3944  0.5029  0.7946
  462TIP3   OH223020   2.042   6.677   0.744 -0.0002  0.4145 -0.4141
  462TIP3    H123021   2.057   6.625   0.665  1.3086  0.5492 -0.2716
  462TIP3    H223022   2.079   6.625   0.815 -1.4974  0.1271  0.1863
  463TIP3   OH223023   1.387   6.017   0.251 -0.6980  0.0193 -0.4846
  463TIP3    H123024   1.454   6.007   0.319  0.8751  0.4399 -1.8788
  463TIP3    H223025   1.345   6.101   0.269 -0.1442  0.2269 -0.1371
  464TIP3   OH223026   6.092   0.817   1.483  0.0388  0.3273 -0.0669
  464TIP3    H123027   6.183   0.812   1.513  0.3297  1.6233 -0.6675
  464TIP3    H223028   6.041   0.783   1.557  0.9086  1.1724  0.9710
  465TIP3   OH223029   4.202   5.740   0.418 -0.1754  0.4306  0.3694
  465TIP3    H123030   4.190   5.654   0.460 -0.4120  0.8303  1.1311
  465TIP3    H223031   4.276   5.779   0.466  0.7894  0.1325 -0.8303
  466TIP3   OH223032   5.435   4.749   1.948 -0.4494 -0.0502  0.0290
  466TIP3    H123033   5.422   4.655   1.959  1.2113 -0.1966  0.9614
  466TIP3    H223034   5.419   4.786   2.036  2.2816  0.0860  0.5354
  467TIP3   OH223035   5.481   1.179   2.734 -0.1754 -0.2966  0.0247
  467TIP3    H123036   5.393   1.171   2.771  0.0211  0.2332  0.6202
  467TIP3    H223037   5.466   1.205   2.643 -0.6424 -0.5832  0.0158
  468TIP3   OH223038   2.952   2.009   8.011  0.1804 -0.2886  0.4208
  468TIP3    H123039   3.043   2.037   8.000  0.3841 -0.5300  1.3966
  468TIP3    H223040   2.956   1.938   8.074 -0.4307 -1.9369 -1.3015
  469TIP3   OH223041   2.888   5.736   1.238  0.2503  0.0565  0.2955
  469TIP3    H123042   2.903   5.809   1.178  0.9095 -0.9745 -0.8410
  469TIP3    H223043   2.968   5.685   1.234  0.3784  0.0531  2.2296
  470TIP3   OH223044   3.239   2.388   7.281  0.3265 -0.0127 -0.0334
  470TIP3    H123045   3.192   2.345   7.209 -1.4692  1.9739 -0.1270
  470TIP3    H223046   3.173   2.441   7.325  1.4205 -1.0029  3.0269
  471TIP3   OH223047   5.555   0.962   8.420  1.2768  0.3703  0.0395
  471TIP3    H123048   5.638   0.969   8.466  1.6155  1.1433 -0.6642
  471TIP3    H223049   5.546   0.869   8.401  2.6906  0.4423 -1.1428
  472TIP3   OH223050   6.300   1.143   8.653  0.1114 -0.1265 -0.1864
  472TIP3    H123051   6.395   1.130   8.649  0.1738  0.1373  0.4176
  472TIP3    H223052   6.286   1.194   8.732 -0.6302 -1.0260  0.2706
  473TIP3   OH223053   0.744   5.411   1.681  0.0495  0.4654 -0.8052
  473TIP3    H123054   0.825   5.365   1.658 -0.3817  0.3172 -2.1122
  473TIP3    H223055   0.688   5.343   1.718  0.7135  0.6849  0.6780
  474TIP3   OH223056   5.520   2.217   7.045  0.6195 -0.6738  0.2756
  474TIP3    H123057   5.561   2.189   7.127  3.0678  0.8377 -0.3148
  474TIP3    H223058   5.427   2.201   7.058  0.9067 -0.4890  3.3560
  475TIP3   OH223059   5.047   0.387   1.041  0.2796  0.4662  0.1856
  475TIP3    H123060   5.040   0.298   1.007  0.0000  0.4140  0.3744
  475TIP3    H223061   4.974   0.395   1.102  0.6486  0.6231  0.6207
  476TIP3   OH223062   4.576   2.340   8.311 -0.4576  0.0605 -0.0245
  476TIP3    H123063   4.617   2.254   8.304  0.1658  0.3729 -0.3647
  476TIP3    H223064   4.486   2.327   8.282 -0.5858 -0.6311  0.6660
  477TIP3   OH223065   1.200   5.673   7.107 -0.3303 -0.5766 -0.2160
  477TIP3    H123066   1.178   5.656   7.198  2.1550  0.2663  0.6470
  477TIP3    H223067   1.145   5.747   7.082 -1.8303 -1.5175  0.2056
  478TIP3   OH223068   5.529   0.213   8.492  0.2564  0.4887  0.7577
  478TIP3    H123069   5.616   0.211   8.534  0.9998  2.7445 -0.4969
  478TIP3    H223070   5.509   0.306   8.484 -1.9050  0.0161  0.1747
  479TIP3   OH223071   2.296   1.430   1.797  0.1368 -0.3562 -0.5766
  479TIP3    H123072   2.328   1.381   1.721 -0.6667 -2.0195  0.1148
  479TIP3    H223073   2.373   1.475   1.830  0.5501  0.2322 -2.2339
  480TIP3   OH223074   3.229   5.925   8.092 -0.0252  0.3920  0.2723
  480TIP3    H123075   3.207   5.994   8.155 -1.5190 -0.2790  0.5338
  480TIP3    H223076   3.324   5.925   8.089  0.0512  1.2274  1.6713
  481TIP3   OH223077   4.683   0.699   0.644 -0.2064 -0.6397  0.5132
  481TIP3    H123078   4.701   0.668   0.733  0.0592 -0.9519  0.3517
  481TIP3    H223079   4.756   0.666   0.592  0.1983  0.4330  0.3710
  482TIP3   OH223080   3.081   5.341   0.931 -0.4897  0.2449 -0.1090
  482TIP3    H123081   3.090   5.248   0.952  0.6978  0.0818 -1.1726
  482TIP3    H223082   3.161   5.381   0.966 -1.2454  0.9906  0.8371
  483TIP3   OH223083   4.048   4.971   1.890  0.2354  0.0054  0.0433
  483TIP3    H123084   4.069   4.955   1.798 -0.4040 -1.1502  0.0862
  483TIP3    H223085   4.133   4.983   1.932  0.5599  0.0217 -0.6057
  484TIP3   OH223086   6.543   2.424   1.084  0.0409  0.1585 -0.2020
  484TIP3    H123087   6.448   2.425   1.078 -0.0205  1.5034  0.6295
  484TIP3    H223088   6.565   2.504   1.131  1.6083  0.0302 -0.6568
  485TIP3   OH223089   5.964   6.605   7.292 -1.1289  0.0462 -0.9023
  485TIP3    H123090   5.975   6.675   7.227 -1.6823  0.1162 -0.9278
  485TIP3    H223091   5.909   6.645   7.360  0.4496  0.3789  0.2311
  486TIP3   OH223092   4.007   2.007   0.324  0.3158 -0.0755  0.3127
  486TIP3    H123093   3.923   1.964   0.338  0.4173  0.2966  2.3629
  486TIP3    H223094   3.986   2.100   0.322  0.7001  0.0253  0.9606
  487TIP3   OH223095   0.741   2.469   2.173  0.8993 -0.0554 -0.3010
  487TIP3    H123096   0.811   2.498   2.114  1.9568 -1.5117  0.1610
  487TIP3    H223097   0.787   2.451   2.256  0.1214 -1.7345 -0.1946
  488TIP3   OH223098   4.972   4.412   1.480 -0.0619  0.2206  0.1303
  488TIP3    H123099   4.902   4.446   1.425 -0.0064  0.3533  0.1411
  488TIP3    H223100   5.018   4.490   1.511  1.4198  0.0995 -1.6039
  489TIP3   OH223101   4.425   4.854   1.662  0.1885 -0.1707 -0.5016
  489TIP3    H123102   4.495   4.839   1.598  0.9094  0.3103  0.1680
  489TIP3    H223103   4.432   4.781   1.723 -0.2295 -0.3952 -0.7094
  490TIP3   OH223104   3.362   2.418   2.257 -0.0633  0.0387  0.2062
  490TIP3    H123105   3.322   2.487   2.205  0.6544 -1.3327 -2.3291
  490TIP3    H223106   3.290   2.362   2.284 -0.2339 -0.8746 -1.9504
  491TIP3   OH223107   5.211   4.729   7.915 -0.0037 -0.4254  0.5355
  491TIP3    H123108   5.259   4.754   7.837 -0.7735 -1.7610 -0.4085
  491TIP3    H223109   5.142   4.795   7.924 -1.0719 -1.2828 -1.0205
  492TIP3   OH223110   5.239   3.582   1.040  0.1545 -0.0935  0.1206
  492TIP3    H123111   5.169   3.646   1.055  0.5050  0.4811 -0.6200
  492TIP3    H223112   5.299   3.626   0.979  0.7141 -0.9074  0.0685
  493TIP3   OH223113   5.708   5.808   1.170 -0.3888  0.8108  0.2703
  493TIP3    H123114   5.728   5.852   1.252  1.2838 -1.6596  1.2984
  493TIP3    H223115   5.753   5.860   1.103  0.5149  1.3293  1.2645
  494TIP3   OH223116   0.176   5.236   2.026  0.4888  0.3299 -0.5940
  494TIP3    H123117   0.145   5.305   1.968 -0.0634 -0.0610 -0.7728
  494TIP3    H223118   0.213   5.283   2.101 -0.1006  0.8170 -0.6038
  495TIP3   OH223119   2.623   5.877   0.508  0.9465 -0.9383 -0.3185
  495TIP3    H123120   2.695   5.848   0.563 -0.2703 -0.5902  1.5448
  495TIP3    H223121   2.665   5.927   0.438  2.5272 -0.8599  0.6391
  496TIP3   OH223122   4.972   0.906   0.052  0.2090 -0.0661  0.1160
  496TIP3    H123123   5.063   0.934   0.043 -0.3932  1.9625 -0.1149
  496TIP3    H223124   4.932   0.971   0.109 -1.3088 -0.4377 -0.4645
  497TIP3   OH223125   2.419   2.037   7.627 -0.1466 -0.3594 -0.4456
  497TIP3    H123126   2.363   2.111   7.604  0.5504  0.2150 -0.3478
  497TIP3    H223127   2.414   1.979   7.551  0.5793  0.5770 -1.2395
  498TIP3   OH223128   6.165   2.119   8.151 -0.4304 -0.4249  0.7250
  498TIP3    H123129   6.109   2.119   8.228 -1.5024 -0.8116 -0.0217
  498TIP3    H223130   6.104   2.124   8.077  0.5712  0.1601 -0.0972
  499TIP3   OH223131   4.649   0.011   0.469  0.6238  0.3234 -0.2408
  499TIP3    H123132   4.622   0.103   0.476 -0.3998  0.0506 -0.4499
  499TIP3    H223133   4.689   0.005   0.382  1.5110  0.7573  0.1184
  500TIP3   OH223134   2.432   6.347   1.690 -0.4616  0.1741 -0.4107
  500TIP3    H123135   2.418   6.399   1.611 -2.4882 -1.1947 -1.0503
  500TIP3    H223136   2.501   6.285   1.665  0.8592  1.5061 -0.1541
  501TIP3   OH223137   4.782   0.137   8.546  0.1789 -0.3832 -0.0319
  501TIP3    H123138   4.799   0.092   8.629  0.1630  1.2156  0.8678
  501TIP3    H223139   4.703   0.188   8.562  0.1281 -0.1200 -1.0650
  502TIP3   OH223140   1.066   5.177   0.176 -0.0455 -0.2284 -0.0997
  502TIP3    H123141   1.092   5.269   0.180 -3.2614  0.8211 -0.3766
  502TIP3    H223142   1.117   5.135   0.245  1.7964  1.6465 -0.2175
  503TIP3   OH223143   0.734   0.466   2.168  0.4095 -0.3793 -0.5398
  503TIP3    H123144   0.654   0.474   2.115 -1.6703  1.8688  2.5764
  503TIP3    H223145   0.789   0.538   2.138 -0.2150  0.1335 -0.4848
  504TIP3   OH223146   5.687   0.416   0.723  0.2409 -0.2862  0.0262
  504TIP3    H123147   5.742   0.372   0.787 -0.9536 -1.3903  0.3400
  504TIP3    H223148   5.613   0.357   0.710 -1.3673  1.5439  0.3398
  505TIP3   OH223149   1.534   4.566   8.323 -0.0903  0.6091  0.2116
  505TIP3    H123150   1.487   4.484   8.311 -1.7330  1.6365 -0.8186
  505TIP3    H223151   1.622   4.548   8.291 -0.5200 -0.6424 -0.3303
  506TIP3   OH223152   4.407   3.877   7.201 -0.0964 -0.2514  0.5571
  506TIP3    H123153   4.351   3.954   7.209  1.5780  0.9180  2.0289
  506TIP3    H223154   4.396   3.832   7.285  0.7814 -0.2549  0.6768
  507TIP3   OH223155   5.386   4.924   0.022  0.0757  0.4813  0.1397
  507TIP3    H123156   5.308   4.901   0.072 -0.2984  0.2599 -0.5380
  507TIP3    H223157   5.396   5.018   0.034 -1.5198  0.9030 -1.4714
  508TIP3   OH223158   6.818   4.216   7.663  0.2646 -0.6243  0.5221
  508TIP3    H123159   6.774   4.245   7.743 -2.0904  1.2479 -1.2598
  508TIP3    H223160   6.847   4.297   7.621 -0.9235 -1.2526 -1.6992
  509TIP3   OH223161   3.626   4.219   1.758 -0.4196  0.2890  0.0415
  509TIP3    H123162   3.582   4.304   1.750 -2.1567 -0.6218 -0.4188
  509TIP3    H223163   3.589   4.166   1.688  2.3608 -0.1815 -1.2090
  510TIP3   OH223164   0.789   2.325   8.606  0.2275  0.0356 -0.2305
  510TIP3    H123165   0.725   2.309   8.675  0.1009  0.6256 -0.2004
  510TIP3    H223166   0.868   2.353   8.652 -0.1103  1.2512 -0.3371
  511TIP3   OH223167   3.921   0.039   1.583  0.0714 -0.1207  0.0945
  511TIP3    H123168   3.891   0.112   1.530 -0.0235  0.0554  0.3873
  511TIP3    H223169   3.944  -0.029   1.520 -1.8467 -0.6150 -0.1373
  512TIP3   OH223170   1.083   1.600   0.324  0.1151 -0.4549  0.1262
  512TIP3    H123171   1.154   1.597   0.260 -0.0967 -0.6742 -0.1027
  512TIP3    H223172   1.051   1.690   0.321 -0.0995 -0.5446 -0.3039
  513TIP3   OH223173   0.742   3.942   7.102  0.5568  0.3355  0.0961
  513TIP3    H123174   0.686   3.935   7.025 -0.7095  0.2396  1.0020
  513TIP3    H223175   0.785   4.027   7.092 -0.7569  1.0191  0.0338
  514TIP3   OH223176   0.721   1.254   7.651  0.4172 -0.3332  0.3674
  514TIP3    H123177   0.745   1.234   7.741 -3.3133 -0.2033  1.5567
  514TIP3    H223178   0.751   1.344   7.637  1.2589 -0.4444  1.3773
  515TIP3   OH223179   1.818   5.108   1.025 -0.2149  0.1300 -0.0037
  515TIP3    H123180   1.907   5.113   0.991 -0.4027  0.4658 -0.4464
  515TIP3    H223181   1.764   5.148   0.958 -0.4256  2.1509  1.2879
  516TIP3   OH223182   2.318   3.737   1.519 -0.1584 -0.1969  0.3555
  516TIP3    H123183   2.334   3.830   1.539 -1.0199 -0.4704  2.5668
  516TIP3    H223184   2.317   3.733   1.424 -0.0778  2.0716  0.2049
  517TIP3   OH223185   4.172   3.432   7.496  0.7134  0.7690 -0.3388
  517TIP3    H123186   4.214   3.479   7.569  1.2794  1.2645 -0.9737
  517TIP3    H223187   4.216   3.348   7.493  0.9739  0.9061 -0.3694
  518TIP3   OH223188   3.778   1.529   7.745  0.0409  0.0939 -0.2130
  518TIP3    H123189   3.726   1.586   7.802 -0.3587 -0.9469  0.4790
  518TIP3    H223190   3.713   1.475   7.700  0.4925 -1.7525  1.2150
  519TIP3   OH223191   4.100   1.940   1.639 -0.1225  1.1049  0.2203
  519TIP3    H123192   4.148   1.941   1.721 -3.4656 -0.3721  2.4091
  519TIP3    H223193   4.110   1.850   1.606 -0.0315  1.2597 -0.1823
  520TIP3   OH223194   3.236   0.508   2.961 -0.1071 -0.1660 -0.2194
  520TIP3    H123195   3.240   0.418   2.995 -0.8964  0.3189  1.2418
  520TIP3    H223196   3.278   0.560   3.029  1.1907  0.4926 -1.4783
  521TIP3   OH223197   2.978   0.751   8.117  0.0837 -0.1786 -0.7112
  521TIP3    H123198   3.034   0.685   8.157  1.4822  1.6589  0.5815
  521TIP3    H223199   2.976   0.822   8.181 -1.0554  1.1698 -2.1625
  522TIP3   OH223200   5.453   5.946   7.570 -0.2424 -0.4879  0.8496
  522TIP3    H123201   5.547   5.961   7.583  0.0105 -1.3132  0.0878
  522TIP3    H223202   5.424   6.023   7.520  0.0867 -0.3676  0.8373
  523TIP3   OH223203   3.636   0.498   8.077 -0.2964  0.1622 -0.3166
  523TIP3    H123204   3.648   0.531   8.166  2.3720  2.3296 -1.3269
  523TIP3    H223205   3.558   0.542   8.045 -2.0240 -1.5814  1.2454
  524TIP3   OH223206   6.797   0.583   1.878  0.1358 -0.5123  0.0112
  524TIP3    H123207   6.786   0.631   1.960 -0.2846 -0.1001 -0.2772
  524TIP3    H223208   6.880   0.536   1.888  1.2741  1.3134 -0.1802
  525TIP3   OH223209   4.685   2.606   2.096 -0.0690  0.3997 -0.2277
  525TIP3    H123210   4.594   2.600   2.068 -0.0959 -0.2899 -0.0084
  525TIP3    H223211   4.704   2.521   2.135  0.4514  0.7930  0.3910
  526TIP3   OH223212   0.088   3.795   0.595  0.0790  0.1936 -0.1815
  526TIP3    H123213   0.099   3.762   0.505 -1.4326  2.1165 -1.1514
  526TIP3    H223214   0.176   3.797   0.631  0.7835 -0.2036 -1.7986
  527TIP3   OH223215   6.100   1.244   7.678 -0.5119 -0.2956  0.5971
  527TIP3    H123216   6.085   1.325   7.727 -2.0841 -0.8582  1.1055
  527TIP3    H223217   6.097   1.271   7.586 -1.4946  0.1606  0.7533
  528TIP3   OH223218   5.730   3.720   8.563  0.3181  0.1063 -0.5135
  528TIP3    H123219   5.752   3.662   8.490  2.5644 -1.2749  1.1306
  528TIP3    H223220   5.801   3.784   8.565  0.0295  0.4146  0.1559
  529TIP3   OH223221   0.501   6.776   8.397 -0.3276 -0.1446  0.2166
  529TIP3    H123222   0.546   6.860   8.406 -0.8367  0.1830 -0.2008
  529TIP3    H223223   0.570   6.710   8.405  0.3874  0.3725 -1.3745
  530TIP3   OH223224   1.330   6.162   2.830  0.4634  1.1635  0.7370
  530TIP3    H123225   1.265   6.111   2.782  0.6987  1.8032 -0.2914
  530TIP3    H223226   1.288   6.246   2.848  1.6763  2.4487 -1.9004
  531TIP3   OH223227   2.416   5.977   0.276  0.3712 -0.1109  0.1601
  531TIP3    H123228   2.469   6.053   0.299  3.1200 -1.7361 -0.2759
  531TIP3    H223229   2.389   5.940   0.360  0.6165  0.3268  0.4345
  532TIP3   OH223230   1.739   2.983   1.213  0.4607  0.0632 -0.0470
  532TIP3    H123231   1.733   3.041   1.137 -1.4353 -0.7423 -0.5632
  532TIP3    H223232   1.650   2.953   1.228  0.7318  0.3161  2.6355
  533TIP3   OH223233   0.577   2.082   2.771  0.2076  0.1971 -0.0477
  533TIP3    H123234   0.525   2.160   2.753 -1.6699 -1.5049 -2.8983
  533TIP3    H223235   0.665   2.104   2.738  0.0642  1.5201  0.3975
  534TIP3   OH223236   2.444   6.311   8.323  0.4456 -0.1061 -0.1452
  534TIP3    H123237   2.427   6.245   8.390 -0.6659  0.9256  0.6313
  534TIP3    H223238   2.538   6.331   8.332  1.2382 -2.7617 -1.5571
  535TIP3   OH223239   4.285   4.492   2.306 -0.2857  0.0901  0.0466
  535TIP3    H123240   4.373   4.529   2.316 -0.6724  1.7823 -2.1577
  535TIP3    H223241   4.228   4.567   2.296 -2.1400 -0.9570  1.9003
  536TIP3   OH223242   1.149   5.413   3.142  0.0710 -0.4314  0.1829
  536TIP3    H123243   1.181   5.402   3.232  0.2670 -2.2375 -0.0760
  536TIP3    H223244   1.059   5.444   3.153  0.4567  0.4943  0.9659
  537TIP3   OH223245   5.183   2.110   8.697  0.5614  0.0812 -0.4351
  537TIP3    H123246   5.183   2.069   8.611 -0.1702  1.8849 -1.3484
  537TIP3    H223247   5.107   2.072   8.742  1.2725 -1.2749 -0.3542
  538TIP3   OH223248   2.405   3.984   0.833 -0.7533 -0.1951 -0.0570
  538TIP3    H123249   2.385   4.063   0.883 -1.6190 -0.2533 -0.2942
  538TIP3    H223250   2.337   3.981   0.765  1.6229  1.0960 -2.7001
  539TIP3   OH223251   2.141   3.426   8.297  0.1370 -0.4361 -0.5526
  539TIP3    H123252   2.051   3.444   8.324 -0.2853 -1.6881 -1.0478
  539TIP3    H223253   2.192   3.498   8.333 -0.6231 -1.1383  2.1729
  540TIP3   OH223254   2.629   4.924   7.395 -0.6690  0.1086  0.1277
  540TIP3    H123255   2.692   4.964   7.334  0.0789 -2.1257 -0.7132
  540TIP3    H223256   2.651   4.830   7.392 -3.6093 -0.6781  0.3418
  541TIP3   OH223257   1.667   4.565   1.273 -0.0334  0.0659  0.0263
  541TIP3    H123258   1.643   4.492   1.217 -1.2306  0.7553 -0.4066
  541TIP3    H223259   1.762   4.572   1.264  0.1049 -1.4445  0.1127
  542TIP3   OH223260   4.720   5.282   8.303  0.4020  0.2259  0.3549
  542TIP3    H123261   4.711   5.261   8.396 -1.4894  0.9649  0.3795
  542TIP3    H223262   4.633   5.266   8.266  1.2790 -0.6838 -1.4413
  543TIP3   OH223263   4.048   5.812   8.398 -0.7266 -0.0736 -0.1286
  543TIP3    H123264   3.971   5.820   8.341 -0.1318 -1.5617 -1.1943
  543TIP3    H223265   4.122   5.817   8.338  0.0797  1.7084  0.9161
  544TIP3   OH223266   2.964   6.653   0.025  0.2678 -0.0123  0.0243
  544TIP3    H123267   2.908   6.697   0.089  0.0255  0.7329 -0.6846
  544TIP3    H223268   2.999   6.723  -0.029 -0.9426 -0.7028 -1.7787
  545TIP3   OH223269   1.002   4.617   7.834  0.0390 -0.1499 -0.1504
  545TIP3    H123270   1.062   4.563   7.886 -0.6561 -0.2935  0.5390
  545TIP3    H223271   1.027   4.707   7.855  0.3554 -0.2089 -0.2755
  546TIP3   OH223272   3.630   5.240   0.539  0.8413  0.1455  0.2070
  546TIP3    H123273   3.550   5.219   0.588 -1.6148  1.6463 -2.8353
  546TIP3    H223274   3.653   5.158   0.497 -2.2354  0.6219 -2.8608
  547TIP3   OH223275   2.635   3.412   7.931  0.0266  0.3004 -0.0500
  547TIP3    H123276   2.667   3.322   7.923 -2.6616 -0.7356 -0.2317
  547TIP3    H223277   2.646   3.449   7.843  1.8591  0.4860  0.2078
  548TIP3   OH223278   1.596   4.281   2.313  0.3899  0.4978 -0.7170
  548TIP3    H123279   1.544   4.272   2.393  1.1980 -0.6205 -0.2756
  548TIP3    H223280   1.636   4.368   2.319 -1.1941  1.2710 -0.9514
  549TIP3   OH223281   0.816   0.028   7.717 -0.3640 -0.3803 -0.6090
  549TIP3    H123282   0.870  -0.006   7.645  0.4143  0.2929 -0.3652
  549TIP3    H223283   0.774  -0.050   7.754  2.7873 -1.4406  1.1270
  550TIP3   OH223284   2.982   5.919   1.071  0.7331 -0.1019  0.1945
  550TIP3    H123285   2.961   5.914   0.977  2.1535  0.4794 -0.1741
  550TIP3    H223286   2.974   6.012   1.093 -1.7032 -0.4680  1.2139
  551TIP3   OH223287   1.318   6.579   0.810  0.1560  0.0082  0.2904
  551TIP3    H123288   1.412   6.575   0.825  0.0304  0.8884  1.4025
  551TIP3    H223289   1.289   6.488   0.816  1.0595 -0.4118 -1.0880
  552TIP3   OH223290   0.029   6.370   8.204  0.1466 -0.1243 -0.3317
  552TIP3    H123291   0.016   6.465   8.202  1.0940  0.0029 -1.4795
  552TIP3    H223292  -0.029   6.339   8.274  1.8924  1.6031  2.0446
  553TIP3   OH223293   0.475   2.880   7.521  0.1501  0.0223 -0.8064
  553TIP3    H123294   0.426   2.833   7.588  0.5482 -2.3382 -2.0218
  553TIP3    H223295   0.521   2.949   7.568  0.0896 -1.2740  1.2864
  554TIP3   OH223296   1.140   2.903   0.825  0.0820  0.5434  0.0460
  554TIP3    H123297   1.201   2.837   0.858  1.9030  1.6420 -0.9567
  554TIP3    H223298   1.149   2.976   0.887  0.2326  0.9209 -0.4137
  555TIP3   OH223299   0.973   3.946   1.110  0.2594  0.7001 -0.5169
  555TIP3    H123300   1.054   3.995   1.129  0.1790  0.7606 -0.3286
  555TIP3    H223301   0.933   3.932   1.196  1.1359 -1.1948 -0.3530
  556TIP3   OH223302   1.895   0.089   7.729  0.2748  0.2244 -0.1004
  556TIP3    H123303   1.816   0.114   7.682  1.4591  2.9888 -0.7831
  556TIP3    H223304   1.965   0.092   7.664  1.2269 -0.4727  0.8493
  557TIP3   OH223305   6.139   5.179   8.177  0.0600 -0.1573 -0.6035
  557TIP3    H123306   6.166   5.087   8.183 -0.3934 -0.3596 -1.5420
  557TIP3    H223307   6.048   5.180   8.205  0.1816  0.0736 -0.2084
  558TIP3   OH223308   4.222   6.229   8.309 -0.2456  0.2441  0.3476
  558TIP3    H123309   4.310   6.196   8.331 -0.9888 -3.8192 -1.8915
  558TIP3    H223310   4.233   6.268   8.222 -0.6834 -0.9067 -0.2526
  559TIP3   OH223311   0.642   4.675   7.027  0.1105 -0.1800  0.2161
  559TIP3    H123312   0.605   4.762   7.012  0.5419 -0.0044  0.1800
  559TIP3    H223313   0.569   4.624   7.063 -0.0269  0.3150  0.6549
  560TIP3   OH223314   5.311   3.369   2.413  0.6774  0.1390 -0.7665
  560TIP3    H123315   5.273   3.456   2.415 -0.1116 -0.2061 -0.4094
  560TIP3    H223316   5.385   3.373   2.474 -0.1874  0.1882  0.3075
  561TIP3   OH223317   0.041   2.451   8.730  0.0863 -0.4539  0.0209
  561TIP3    H123318   0.133   2.474   8.716 -0.1834  0.0717 -0.9949
  561TIP3    H223319   0.029   2.372   8.677 -0.7836  1.1914 -2.4276
  562TIP3   OH223320   2.910   0.468   7.359  0.4671 -0.6873 -0.1058
  562TIP3    H123321   2.870   0.555   7.369  2.0943 -0.0751  1.6418
  562TIP3    H223322   2.960   0.456   7.440  0.2338 -3.2987 -0.2869
  563TIP3   OH223323   3.707   5.013   0.373  0.7296  0.8828  0.0070
  563TIP3    H123324   3.756   4.944   0.417 -0.3626  0.1026  0.0398
  563TIP3    H223325   3.723   5.000   0.280  0.1518  0.2821 -0.0137
  564TIP3   OH223326   5.433   0.316   0.737  0.0798 -0.3764  0.3190
  564TIP3    H123327   5.399   0.405   0.730 -0.9436 -0.8704 -1.8262
  564TIP3    H223328   5.356   0.263   0.758  0.5667 -0.8443  0.9720
  565TIP3   OH223329   0.769   2.574   1.861  0.8151 -0.1193 -0.1051
  565TIP3    H123330   0.728   2.654   1.829  1.3493  0.9107  1.6080
  565TIP3    H223331   0.712   2.504   1.830 -0.5979  1.0389 -0.2715
  566TIP3   OH223332   1.873   2.295   2.281 -0.4830  0.1911 -0.0523
  566TIP3    H123333   1.855   2.320   2.371  0.0241  1.5056 -0.2932
  566TIP3    H223334   1.969   2.293   2.276 -0.5035  0.5662 -0.6678
  567TIP3   OH223335   4.837   6.106   1.816  0.2994  0.5134 -0.4885
  567TIP3    H123336   4.838   6.200   1.836 -3.1305  0.3672  1.0187
  567TIP3    H223337   4.846   6.063   1.901  0.2561 -0.4872 -0.9795
  568TIP3   OH223338   6.350   0.193   8.036 -0.6250 -0.2460  0.0057
  568TIP3    H123339   6.421   0.188   7.971 -1.2204 -1.2593 -0.5897
  568TIP3    H223340   6.377   0.133   8.105  0.2237  1.1700  0.9405
  569TIP3   OH223341   5.793   2.155   7.775  0.2685  1.1149 -0.1129
  569TIP3    H123342   5.731   2.227   7.769 -0.4384  0.8371  2.6845
  569TIP3    H223343   5.778   2.103   7.696 -1.2804  2.4197 -0.7146
  570TIP3   OH223344   3.063   2.737   8.777 -0.2299 -0.4826 -0.2800
  570TIP3    H123345   2.999   2.666   8.770 -1.4447  0.1980  2.5709
  570TIP3    H223346   3.127   2.707   8.841 -0.3229  0.6673  0.3818
  571TIP3   OH223347   5.246   3.899   0.973  0.5714 -0.3688 -0.2034
  571TIP3    H123348   5.153   3.879   0.983  0.6222 -0.0430  1.1067
  571TIP3    H223349   5.259   3.908   0.879 -0.6230 -0.8868 -0.4320
  572TIP3   OH223350   4.897   5.548   7.507  0.4285  0.4514  0.5440
  572TIP3    H123351   4.906   5.527   7.600 -0.3634  0.6300  0.6711
  572TIP3    H223352   4.813   5.507   7.482  1.2757 -0.7627 -0.4248
  573TIP3   OH223353   2.858   0.889   1.957  0.2497 -0.0116 -0.0288
  573TIP3    H123354   2.878   0.952   2.027 -1.7814 -0.6232  1.1820
  573TIP3    H223355   2.891   0.805   1.990 -1.4046 -0.4484  0.6104
  574TIP3   OH223356   5.825   6.086   1.063  0.3186  0.3370 -0.2276
  574TIP3    H123357   5.864   6.113   1.146  1.2134 -2.1377  0.2408
  574TIP3    H223358   5.792   6.167   1.025  1.5603  1.8244  1.6511
  575TIP3   OH223359   3.232   3.834   0.460 -0.2238 -0.1620  0.3078
  575TIP3    H123360   3.323   3.816   0.438 -0.4267 -0.5011 -0.2688
  575TIP3    H223361   3.191   3.748   0.465 -0.9362  0.0606 -1.3149
  576TIP3   OH223362   2.651   1.546   8.066 -0.4674 -0.5877 -0.2380
  576TIP3    H123363   2.583   1.520   8.005  1.5535 -1.2737 -2.3337
  576TIP3    H223364   2.607   1.547   8.151 -2.7227 -2.4119 -1.2605
  577TIP3   OH223365   4.871   5.040   0.103  0.2804  0.2737  0.8339
  577TIP3    H123366   4.930   5.006   0.036 -2.1968 -0.0526 -1.3511
  577TIP3    H223367   4.850   4.964   0.157  0.2641 -0.0586  0.3616
  578TIP3   OH223368   0.364   3.420   0.995 -0.1263 -0.4229  0.0356
  578TIP3    H123369   0.415   3.407   0.915 -1.8077 -1.1077 -0.9794
  578TIP3    H223370   0.276   3.393   0.972 -1.4309  2.4283  1.1479
  579TIP3   OH223371   0.696   6.500   8.118 -0.3777  0.2292  0.0486
  579TIP3    H123372   0.699   6.569   8.184 -1.0338  0.2160  0.1051
  579TIP3    H223373   0.787   6.483   8.096 -0.0204 -0.8598  2.0999
  580TIP3   OH223374   3.652   4.556   1.914 -0.6825 -0.0230  0.2930
  580TIP3    H123375   3.612   4.502   1.847 -2.0452 -0.1287  1.1528
  580TIP3    H223376   3.633   4.646   1.887 -0.5810 -0.0446  0.1501
  581TIP3   OH223377   6.734   1.778   0.224  0.1992 -0.2147 -0.0591
  581TIP3    H123378   6.744   1.701   0.281  1.2757 -0.5930 -0.7261
  581TIP3    H223379   6.805   1.836   0.250 -0.8240  0.7559  0.6904
  582TIP3   OH223380   5.658   0.188   0.337  0.5052  0.1457 -0.2205
  582TIP3    H123381   5.575   0.152   0.304  0.1318  1.5138 -0.8367
  582TIP3    H223382   5.632   0.260   0.394  1.2011 -1.1908  1.8997
  583TIP3   OH223383   5.571   5.172   7.842 -0.1508 -0.1056 -0.3189
  583TIP3    H123384   5.530   5.150   7.926  0.2184 -0.5609 -0.2544
  583TIP3    H223385   5.645   5.229   7.866 -0.4559  0.3283 -0.3956
  584TIP3   OH223386   3.358   1.399   2.500 -0.2795 -0.3925 -0.4372
  584TIP3    H123387   3.303   1.388   2.423 -0.7214  1.6887 -0.4806
  584TIP3    H223388   3.447   1.381   2.469 -0.5619 -0.4559 -1.2176
  585TIP3   OH223389   5.734   6.053   2.730  0.6300  0.1615  0.4384
  585TIP3    H123390   5.704   6.137   2.766 -2.2318 -0.1725 -0.9240
  585TIP3    H223391   5.726   5.992   2.804  0.2195  0.5781  0.7496
  586TIP3   OH223392   5.194   4.848   7.022 -0.4672  0.3840  0.3162
  586TIP3    H123393   5.191   4.850   7.117  1.3041  1.4011  0.3938
  586TIP3    H223394   5.275   4.802   7.001 -0.4462  0.8352 -0.6778
  587TIP3   OH223395   4.550   0.657   8.768  0.1495  0.1196  0.6405
  587TIP3    H123396   4.483   0.704   8.819  0.8528  1.1625  0.6482
  587TIP3    H223397   4.544   0.695   8.680  0.3445 -0.1761  0.4992
  588TIP3   OH223398   1.786   5.035   8.769  0.7128 -0.2492  0.4520
  588TIP3    H123399   1.773   5.004   8.679  1.5513 -0.8869  0.5384
  588TIP3    H223400   1.831   5.119   8.759  2.6211 -1.2337  0.2762
  589TIP3   OH223401   4.617   0.683   1.818 -0.2575 -0.4471  0.1913
  589TIP3    H123402   4.627   0.683   1.913 -1.1384 -0.7464  0.2931
  589TIP3    H223403   4.586   0.772   1.797 -2.4865 -1.0921  0.4873
  590TIP3   OH223404   6.025   4.916   7.703  0.5226 -0.2580 -0.0981
  590TIP3    H123405   6.009   4.825   7.682 -0.7293 -0.5636  1.8519
  590TIP3    H223406   5.940   4.948   7.736  1.2095  1.2963  0.2599
  591TIP3   OH223407   6.154   6.420   0.514 -0.1338 -0.5355  0.0749
  591TIP3    H123408   6.215   6.428   0.588  0.9047  0.2075 -0.8242
  591TIP3    H223409   6.068   6.433   0.553  0.2601 -1.6330  1.3872
  592TIP3   OH223410   1.876   6.099   1.755 -0.2108 -0.0883  0.6614
  592TIP3    H123411   1.828   6.059   1.827 -1.5680 -0.8218 -0.6151
  592TIP3    H223412   1.860   6.042   1.680  1.9250  0.1502 -0.0415
  593TIP3   OH223413   4.227   5.200   8.438 -0.2746 -0.2756 -0.3750
  593TIP3    H123414   4.194   5.173   8.524 -2.3785 -0.0222 -1.0367
  593TIP3    H223415   4.195   5.290   8.428  2.6370  0.8820 -0.1611
  594TIP3   OH223416   6.385   1.225   7.487 -0.0395 -0.2145  0.1051
  594TIP3    H123417   6.378   1.143   7.535  0.1342 -0.4618 -0.2844
  594TIP3    H223418   6.365   1.202   7.396  0.3879  0.0943 -0.0732
  595TIP3   OH223419   3.817   3.551   0.708  0.1647  0.1078 -0.6411
  595TIP3    H123420   3.837   3.543   0.801 -1.8380 -0.3435 -0.1957
  595TIP3    H223421   3.807   3.645   0.693  2.9952  0.4162 -1.0357
  596TIP3   OH223422   0.303   6.447   0.358  0.3457 -0.1752  0.4869
  596TIP3    H123423   0.375   6.496   0.396  0.5463  0.5636 -0.7958
  596TIP3    H223424   0.271   6.392   0.429  1.1526  0.6433  1.5054
  597TIP3   OH223425   1.063   1.658   8.267  0.3390 -0.0314 -0.0124
  597TIP3    H123426   1.024   1.740   8.295  0.2739  0.2286 -0.8357
  597TIP3    H223427   0.994   1.614   8.217 -0.3173 -1.5116  2.0503
  598TIP3   OH223428   3.029   0.495   7.611  1.3249  0.2617 -0.3634
  598TIP3    H123429   3.064   0.582   7.628  1.5465  0.1639 -0.3160
  598TIP3    H223430   2.986   0.469   7.693  2.7279 -0.3705  0.2100
  599TIP3   OH223431   0.013   5.457   0.018  0.0335 -0.3509  0.0956
  599TIP3    H123432  -0.069   5.418   0.048  0.1007 -0.5080  0.0770
  599TIP3    H223433   0.016   5.543   0.061  0.3814 -0.7817  0.9657
  600TIP3   OH223434   6.655   3.493   1.811 -0.5326  0.0022 -0.3460
  600TIP3    H123435   6.694   3.418   1.855 -0.3326 -0.5128 -1.3776
  600TIP3    H223436   6.585   3.456   1.758 -0.6568  0.5890 -0.5981
  601TIP3   OH223437   0.392   0.378   0.855 -0.1783 -0.1535 -0.6136
  601TIP3    H123438   0.300   0.402   0.848 -0.1116  0.2208 -0.2239
  601TIP3    H223439   0.433   0.419   0.778 -0.7015 -2.1869 -2.0660
  602TIP3   OH223440   0.216   4.905   1.618 -0.1876  0.1160 -0.0355
  602TIP3    H123441   0.216   4.992   1.659 -0.1868 -0.1441  0.5219
  602TIP3    H223442   0.299   4.866   1.645  0.0616  0.1425 -0.7336
  603TIP3   OH223443   4.858   1.818   0.705  0.1534 -0.9122 -0.3616
  603TIP3    H123444   4.846   1.852   0.616  0.3887 -1.0233 -0.4359
  603TIP3    H223445   4.940   1.858   0.735 -0.1860 -0.4688 -0.0010
  604TIP3   OH223446   3.892   2.150   1.230  0.3868 -0.4076 -0.0267
  604TIP3    H123447   3.962   2.113   1.284 -0.2495  0.3617  1.3892
  604TIP3    H223448   3.868   2.231   1.275 -1.2990 -0.5813 -0.5648
  605TIP3   OH223449   2.462   3.296   0.917  0.2932  0.2242 -0.6624
  605TIP3    H123450   2.530   3.241   0.877 -0.7903 -1.0528 -0.8529
  605TIP3    H223451   2.487   3.385   0.897  1.9371 -0.2183 -0.6732
  606TIP3   OH223452   5.105   0.535   1.909 -0.2033 -0.1013 -0.2447
  606TIP3    H123453   5.025   0.482   1.910 -1.2226  1.3470 -0.7948
  606TIP3    H223454   5.077   0.619   1.872  1.9111 -0.0777 -1.9788
  607TIP3   OH223455   6.441   2.313   8.798  0.1604 -0.2937  0.3919
  607TIP3    H123456   6.398   2.341   8.717  0.6077  1.2312  0.6406
  607TIP3    H223457   6.370   2.286   8.855 -0.3961  1.0309  0.3612
  608TIP3   OH223458   0.265   0.404   0.522 -0.0146 -0.5031 -0.0459
  608TIP3    H123459   0.337   0.437   0.575 -1.3078 -0.3969  1.7390
  608TIP3    H223460   0.301   0.397   0.433  2.2814 -0.8575  0.8494
  609TIP3   OH223461   0.665   1.659   1.485 -0.2532  0.4317 -0.8260
  609TIP3    H123462   0.694   1.719   1.416 -0.8611  0.8190 -0.7498
  609TIP3    H223463   0.684   1.705   1.566  3.1015 -1.1468 -0.5437
  610TIP3   OH223464   1.598   4.157   1.245  0.5948  1.1290  0.2980
  610TIP3    H123465   1.672   4.209   1.277  1.4269  0.0589  0.1545
  610TIP3    H223466   1.612   4.151   1.150 -0.2858  1.8336  0.1035
  611TIP3   OH223467   3.450   2.854   2.441 -0.1616  0.1481  0.3682
  611TIP3    H123468   3.530   2.881   2.487  0.7181 -2.0030  0.2373
  611TIP3    H223469   3.434   2.765   2.472 -1.5633 -0.0719 -0.8787
  612TIP3   OH223470   3.627   5.257   0.926 -0.1654 -0.2884  0.5540
  612TIP3    H123471   3.651   5.164   0.921 -0.3261 -0.3356  0.6652
  612TIP3    H223472   3.703   5.303   0.889 -0.9099 -0.5631 -1.4136
  613TIP3   OH223473   0.652   1.692   2.629 -0.3672  0.4398 -0.4425
  613TIP3    H123474   0.626   1.632   2.559 -2.0868  0.1126  0.4174
  613TIP3    H223475   0.709   1.640   2.686 -1.0608 -0.0958 -0.2256
  614TIP3   OH223476   4.784   5.194   0.961 -0.1138  0.2849  0.2254
  614TIP3    H123477   4.776   5.158   1.049  0.8946 -0.2567  0.1065
  614TIP3    H223478   4.870   5.235   0.959  1.0355 -2.0019 -1.2957
  615TIP3   OH223479   1.350   2.917   7.313 -0.6885  0.2871 -0.5354
  615TIP3    H123480   1.425   2.860   7.297 -1.4844 -0.9591 -0.0392
  615TIP3    H223481   1.290   2.863   7.365 -0.7333  2.1807  1.4995
  616TIP3   OH223482   3.906   0.226   1.169 -0.1143  0.2065 -0.0257
  616TIP3    H123483   3.811   0.232   1.172 -0.2852 -1.3469 -0.9779
  616TIP3    H223484   3.931   0.279   1.093 -0.0482  1.8295  1.0861
  617TIP3   OH223485   1.977   4.828   0.242 -0.4751 -0.0062  0.1285
  617TIP3    H123486   2.042   4.770   0.282 -0.5248 -1.3111 -1.5470
  617TIP3    H223487   2.017   4.857   0.160 -0.9602  1.3515  0.3580
  618TIP3   OH223488   2.065   3.556   1.525 -0.3275  0.4579 -0.2029
  618TIP3    H123489   2.092   3.496   1.456 -0.1858  1.4483 -1.0395
  618TIP3    H223490   1.974   3.534   1.543  0.0620 -0.7697  0.3339
  619TIP3   OH223491   5.855   5.764   8.333 -0.0083  0.2994 -0.0495
  619TIP3    H123492   5.946   5.746   8.313  0.0394 -0.8900  1.1147
  619TIP3    H223493   5.840   5.723   8.419 -1.0201  2.4501  0.8724
  620TIP3   OH223494   6.121   6.813   2.534 -0.5466  0.2002  0.6697
  620TIP3    H123495   6.156   6.728   2.507  1.1171  1.1533 -0.3836
  620TIP3    H223496   6.028   6.808   2.514 -0.5561 -1.4744  0.9422
  621TIP3   OH223497   5.721   1.286   8.648  0.0003 -0.2687  0.1052
  621TIP3    H123498   5.784   1.245   8.588 -0.2840 -0.9363  0.2572
  621TIP3    H223499   5.666   1.340   8.591  0.6806  0.2917 -0.0346
  622TIP3   OH223500   6.581   1.194   8.682  0.3263 -0.1772  0.0893
  622TIP3    H123501   6.643   1.200   8.610 -1.0751 -0.1840 -1.1783
  622TIP3    H223502   6.625   1.140   8.747  1.0934 -1.4203 -1.3876
  623TIP3   OH223503   4.276   2.636   0.187 -0.7427  0.5659  0.2442
  623TIP3    H123504   4.291   2.650   0.093 -0.1944 -2.0431 -0.1314
  623TIP3    H223505   4.326   2.557   0.207 -1.2739  0.7878  2.6465
  624TIP3   OH223506   2.902   5.728   7.044 -0.3767 -0.5996 -0.0397
  624TIP3    H123507   2.827   5.787   7.040  0.5894  0.7110  0.7138
  624TIP3    H223508   2.889   5.668   6.970 -0.5196  1.5954 -1.8804
  625TIP3   OH223509   6.613   6.756   0.197  0.1981  0.0102  0.1771
  625TIP3    H123510   6.528   6.800   0.194 -0.5198 -1.1940  1.6881
  625TIP3    H223511   6.660   6.791   0.121 -1.2107  1.5415 -0.0589
  626TIP3   OH223512   5.882   6.208   7.486 -0.1621  0.5176  0.0940
  626TIP3    H123513   5.903   6.201   7.393  0.4834  0.1430  0.2583
  626TIP3    H223514   5.791   6.178   7.493 -0.2193  0.5669 -0.4159
  627TIP3   OH223515   1.337   3.996   0.498  0.3761 -0.5593 -0.3874
  627TIP3    H123516   1.373   3.985   0.586 -0.8206  1.4953  0.4230
  627TIP3    H223517   1.395   4.060   0.456  0.0164 -0.3194 -0.5221
  628TIP3   OH223518   2.723   5.601   0.620  0.5871 -0.5977  0.3110
  628TIP3    H123519   2.808   5.562   0.641  0.9729 -0.4232 -0.8605
  628TIP3    H223520   2.724   5.611   0.525 -0.7103 -0.4935  0.2912
  629TIP3   OH223521   4.881   6.329   7.557 -0.2781  0.5696 -0.6851
  629TIP3    H123522   4.977   6.335   7.558 -0.3123  2.3078 -2.0802
  629TIP3    H223523   4.854   6.362   7.643  0.3432  0.5801 -0.4870
  630TIP3   OH223524   1.531   4.901   7.751 -0.4963  0.2820  0.2083
  630TIP3    H123525   1.504   4.921   7.661  0.4994 -0.5770 -0.3060
  630TIP3    H223526   1.626   4.917   7.752 -0.5264  0.4518  1.1542
  631TIP3   OH223527   1.191   2.652   8.542 -0.7556 -0.7548  0.4096
  631TIP3    H123528   1.121   2.600   8.579 -1.1190 -1.1198 -0.7594
  631TIP3    H223529   1.180   2.644   8.447  0.1660  0.1168  0.2086
  632TIP3   OH223530   3.915   5.771   2.398 -1.0396 -0.3890 -0.1083
  632TIP3    H123531   3.993   5.740   2.352 -1.2121 -1.7806  0.4881
  632TIP3    H223532   3.843   5.723   2.356 -1.2746 -1.1030  1.0699
  633TIP3   OH223533   1.096   6.147   1.346 -0.3713  0.1896  0.2553
  633TIP3    H123534   1.166   6.134   1.283 -0.3713  0.5182  0.1865
  633TIP3    H223535   1.133   6.206   1.412 -0.5565  0.2983  0.2618
  634TIP3   OH223536   3.157   2.652   1.392  0.2348 -0.2245 -0.6435
  634TIP3    H123537   3.092   2.583   1.378  1.7751 -1.7115 -0.8165
  634TIP3    H223538   3.187   2.674   1.304  0.7132 -0.3073 -0.5010
  635TIP3   OH223539   5.485   5.994   1.512 -0.2113  0.3645  0.1138
  635TIP3    H123540   5.425   6.004   1.438  1.0612  0.7560 -0.8927
  635TIP3    H223541   5.453   6.056   1.577 -0.0588  1.6387 -0.9795
  636TIP3   OH223542   0.142   0.357   8.745 -0.8490  0.5511  0.4804
  636TIP3    H123543   0.102   0.284   8.697  0.3695  0.8679 -1.1101
  636TIP3    H223544   0.101   0.354   8.831  1.0707 -3.7676  1.5350
  637TIP3   OH223545   4.941   3.346   6.805  0.2536  0.5280  0.0886
  637TIP3    H123546   5.030   3.317   6.789 -0.8169 -2.3917 -1.1744
  637TIP3    H223547   4.905   3.283   6.868 -1.3757  0.6480 -0.6535
  638TIP3   OH223548   4.476   3.521   1.597 -0.2034 -0.7049 -0.4299
  638TIP3    H123549   4.525   3.443   1.570  0.1317 -0.4119 -0.6811
  638TIP3    H223550   4.500   3.534   1.688  0.0757 -0.6452 -0.5118
  639TIP3   OH223551   5.584   1.301   0.063 -0.3702  0.6338  0.3390
  639TIP3    H123552   5.576   1.205   0.061  0.8636  0.4995 -2.0637
  639TIP3    H223553   5.617   1.324  -0.024 -0.6414  3.2708  0.8472
  640TIP3   OH223554   4.450   6.778   0.946  0.0456  0.0875 -0.1996
  640TIP3    H123555   4.487   6.866   0.934  1.8775 -0.7620 -1.3492
  640TIP3    H223556   4.526   6.723   0.965 -1.1154 -1.2072  0.8773
  641TIP3   OH223557   4.733   4.471   1.313 -0.0309  0.2386  0.1784
  641TIP3    H123558   4.697   4.503   1.231 -0.0742  0.2159  0.1885
  641TIP3    H223559   4.696   4.383   1.323  0.1326  0.1621  0.1218
  642TIP3   OH223560   6.620   5.800   1.286  0.1409 -0.4045  0.3490
  642TIP3    H123561   6.619   5.721   1.339 -1.3113 -2.2049 -2.1722
  642TIP3    H223562   6.560   5.860   1.331 -1.3292 -1.9953  0.5922
  643TIP3   OH223563   1.327   3.087   2.449  0.2197  0.1584  0.1136
  643TIP3    H123564   1.329   3.182   2.438  0.9966  0.3304  1.4953
  643TIP3    H223565   1.309   3.074   2.542  0.7692 -1.0377  0.0756
  644TIP3   OH223566   3.129   5.683   8.169  0.1049 -0.5194  0.6721
  644TIP3    H123567   3.139   5.768   8.126  0.6713 -0.7554  0.3248
  644TIP3    H223568   3.183   5.623   8.117  0.1548 -0.9767  1.2396
  645TIP3   OH223569   2.560   6.780   7.274 -0.6328  0.3258 -0.2101
  645TIP3    H123570   2.593   6.743   7.356 -3.5404 -1.3249  0.3620
  645TIP3    H223571   2.504   6.853   7.302  0.3663  1.4032 -0.9465
  646TIP3   OH223572   2.930   1.182   8.368  0.4184 -0.1313  0.1659
  646TIP3    H123573   2.928   1.256   8.429 -0.1914 -0.3739  0.4478
  646TIP3    H223574   2.878   1.212   8.293  1.6882  0.4021 -0.5203
  647TIP3   OH223575   6.578   2.085   1.639  0.0977  0.4109 -0.3754
  647TIP3    H123576   6.577   2.040   1.724 -1.1749 -1.2903 -1.2234
  647TIP3    H223577   6.666   2.070   1.605  0.2945  0.2281  0.1971
  648TIP3   OH223578   3.556   5.939   0.442  0.3860 -0.8841  0.0943
  648TIP3    H123579   3.610   5.882   0.496  0.8821 -2.0461 -1.5570
  648TIP3    H223580   3.584   6.028   0.466  0.8376 -1.3713  1.4466
  649TIP3   OH223581   6.198   4.731   1.808 -0.2062 -0.1167  0.3269
  649TIP3    H123582   6.287   4.700   1.823 -0.0990 -0.5558 -1.0535
  649TIP3    H223583   6.209   4.820   1.774 -0.4332  0.7828  2.4471
  650TIP3   OH223584   1.212   0.280   2.139  0.1065 -0.2878 -0.1839
  650TIP3    H123585   1.194   0.347   2.204 -1.0817  0.5279 -1.3164
  650TIP3    H223586   1.159   0.304   2.063  0.9538 -1.5633 -1.2385
  651TIP3   OH223587   4.547   1.081   0.281 -0.1825 -0.3900  0.1342
  651TIP3    H123588   4.472   1.116   0.233  0.3694  0.8336  0.1426
  651TIP3    H223589   4.551   1.132   0.362 -0.7710 -2.0646  1.2835
  652TIP3   OH223590   1.641   4.897   8.308  0.5297 -0.6657  0.0655
  652TIP3    H123591   1.677   4.983   8.330 -2.4147  0.4096  1.1799
  652TIP3    H223592   1.619   4.903   8.215  2.9104 -1.3119 -0.6108
  653TIP3   OH223593   0.361   1.815   8.505  0.2777 -0.1497 -0.0902
  653TIP3    H123594   0.384   1.855   8.421 -0.8755 -2.0925 -1.4263
  653TIP3    H223595   0.405   1.868   8.570  0.4360  2.0289 -1.8541
  654TIP3   OH223596   0.248   4.051   0.477  0.6780  0.1400 -0.4291
  654TIP3    H123597   0.257   3.963   0.512 -2.6481 -1.1699 -2.4011
  654TIP3    H223598   0.160   4.079   0.503  1.0640  2.2515 -1.1734
  655TIP3   OH223599   1.095   3.000   8.291 -0.1337  0.4856 -0.4255
  655TIP3    H123600   1.167   2.937   8.279  0.3591  1.0235 -0.3354
  655TIP3    H223601   1.016   2.946   8.295  0.3284 -0.1642  0.1213
  656TIP3   OH223602   5.063   2.256   8.404  0.0725 -0.3711  0.2801
  656TIP3    H123603   5.086   2.175   8.450 -0.2112 -0.9169 -0.5071
  656TIP3    H223604   5.014   2.308   8.468  1.0035 -0.4391  1.0672
  657TIP3   OH223605   3.616   2.671   2.213  0.3603 -0.4695  0.4908
  657TIP3    H123606   3.653   2.651   2.299 -0.4661  0.9185  1.2114
  657TIP3    H223607   3.529   2.707   2.232  0.4293  0.4879 -0.8674
  658TIP3   OH223608   4.097   6.529   2.589  0.0763  0.6395  0.0014
  658TIP3    H123609   4.009   6.526   2.551  0.5452 -0.1121 -1.0724
  658TIP3    H223610   4.089   6.590   2.662 -1.4379  0.2667  0.1906
  659TIP3   OH223611   1.915   0.954   0.331 -0.1830  0.3159  0.3857
  659TIP3    H123612   1.853   1.025   0.348 -0.9639 -0.0959 -0.6041
  659TIP3    H223613   1.935   0.961   0.237  2.2721  1.2052  0.8995
  660TIP3   OH223614   0.563   5.503   7.772 -0.6108 -1.0526 -0.4054
  660TIP3    H123615   0.522   5.515   7.687  0.1443 -1.5714 -0.8599
  660TIP3    H223616   0.503   5.544   7.834  0.3054  2.1888 -1.4854
  661TIP3   OH223617   2.024   2.042   7.357 -0.3493  0.4056  0.1435
  661TIP3    H123618   1.963   2.101   7.313 -0.4471 -0.8926 -1.5388
  661TIP3    H223619   2.111   2.077   7.337 -0.3812 -0.2686 -1.3083
  662TIP3   OH223620   4.870   2.650   7.992  0.0060 -0.0682 -0.6081
  662TIP3    H123621   4.862   2.724   7.931  1.3819  1.2188  0.7140
  662TIP3    H223622   4.919   2.584   7.942 -1.4995 -0.2840 -1.9096
  663TIP3   OH223623   1.815   1.052   1.799  0.0161 -0.4429  0.2895
  663TIP3    H123624   1.910   1.039   1.800  0.1026 -0.2869 -1.7143
  663TIP3    H223625   1.799   1.117   1.867  1.0469 -2.0147  2.1442
  664TIP3   OH223626   6.783   5.777   8.269 -0.1585 -0.2059 -0.0767
  664TIP3    H123627   6.790   5.711   8.200 -0.9916 -0.4170  0.0299
  664TIP3    H223628   6.838   5.743   8.340  0.5327 -0.0916 -0.5500
  665TIP3   OH223629   2.349   3.177   2.195 -0.1490  0.1781 -0.7348
  665TIP3    H123630   2.320   3.243   2.132 -0.4537  0.2700 -0.5043
  665TIP3    H223631   2.268   3.149   2.238 -0.0891 -0.7023 -1.1678
  666TIP3   OH223632   4.791   2.971   0.349  0.3550 -0.5816 -0.4036
  666TIP3    H123633   4.739   3.042   0.310  0.2651 -0.9332 -0.9382
  666TIP3    H223634   4.763   2.969   0.440  0.7898  0.4564 -0.2320
  667TIP3   OH223635   5.146   1.373   0.755  0.3103  0.1852  0.2159
  667TIP3    H123636   5.131   1.465   0.779  1.9144  0.5137  0.0997
  667TIP3    H223637   5.084   1.324   0.809  1.8243  1.0927  2.9950
  668TIP3   OH223638   6.391   6.792   8.190 -0.3701 -0.0833  0.1437
  668TIP3    H123639   6.350   6.712   8.224  0.0294 -0.2419  0.2579
  668TIP3    H223640   6.448   6.821   8.261 -1.6915  1.1830  0.7266
  669TIP3   OH223641   0.009   1.656   8.434  0.1445 -0.7548 -0.4264
  669TIP3    H123642  -0.061   1.638   8.371 -2.3220  1.3365  1.5116
  669TIP3    H223643  -0.002   1.589   8.501  0.9552 -1.2878 -0.8185
  670TIP3   OH223644   2.685   4.339   0.249  0.2710 -0.4403 -0.4908
  670TIP3    H123645   2.683   4.433   0.229  1.4281 -0.2336  0.2651
  670TIP3    H223646   2.633   4.331   0.329 -0.2371 -0.5219 -0.8269
  671TIP3   OH223647   0.539   3.353   8.191 -0.1644 -0.5140 -0.3133
  671TIP3    H123648   0.561   3.340   8.099 -3.3792 -0.1155 -1.2508
  671TIP3    H223649   0.544   3.266   8.230 -1.5524 -1.1958 -1.5855
  672TIP3   OH223650   0.355   4.620   7.505 -0.6228 -0.2452 -0.3572
  672TIP3    H123651   0.265   4.651   7.511 -1.6344 -2.6454 -1.5337
  672TIP3    H223652   0.361   4.552   7.573  0.2821 -0.1252 -0.3094
  673TIP3   OH223653   0.489   2.527   1.608  0.2624 -0.4775 -0.3975
  673TIP3    H123654   0.437   2.530   1.528  0.2905  0.3158 -0.3901
  673TIP3    H223655   0.525   2.438   1.610 -0.6509 -0.8632 -0.6739
  674TIP3   OH223656   3.222   1.788   2.735  0.0402 -0.1138  0.1557
  674TIP3    H123657   3.262   1.744   2.660 -2.8458 -0.2675 -1.4438
  674TIP3    H223658   3.251   1.879   2.726  1.2989 -0.5016  0.0361
  675TIP3   OH223659   3.006   2.784   2.439 -0.4786 -0.4243 -0.2136
  675TIP3    H123660   2.993   2.726   2.364 -0.2398 -1.9584  0.8754
  675TIP3    H223661   2.950   2.747   2.507  2.4364 -1.7148  1.7007
  676TIP3   OH223662   6.353   1.058   7.898  0.4071 -0.4672 -0.3665
  676TIP3    H123663   6.397   1.133   7.938 -0.7882 -0.3923  0.9026
  676TIP3    H223664   6.405   0.983   7.925  0.0565 -0.3388  0.7216
  677TIP3   OH223665   0.677   3.567   1.693 -0.1346  0.1399 -0.3384
  677TIP3    H123666   0.648   3.590   1.604 -0.7950  0.1053 -0.1308
  677TIP3    H223667   0.614   3.502   1.723 -0.7462  1.1961  0.7031
  678TIP3   OH223668   4.524   3.683   0.884  0.2552 -0.0198  0.6784
  678TIP3    H123669   4.611   3.642   0.881  0.8306  1.1801 -1.5669
  678TIP3    H223670   4.540   3.769   0.924  0.4479  0.7871 -1.0229
  679TIP3   OH223671   4.423   3.532   7.931 -0.6932  0.2586 -0.0616
  679TIP3    H123672   4.451   3.624   7.934  1.8808 -0.4578  1.1138
  679TIP3    H223673   4.397   3.512   8.020 -0.5656 -0.3216 -0.1510
  680TIP3   OH223674   0.871   3.823   8.202 -0.2948  0.0113 -0.0933
  680TIP3    H123675   0.897   3.772   8.279  0.4685 -1.4222 -1.2428
  680TIP3    H223676   0.782   3.794   8.183  0.3876 -1.5126 -1.1665
  681TIP3   OH223677   5.756   5.022   0.336  0.2802  0.5032  0.2272
  681TIP3    H123678   5.689   4.994   0.399  1.0733 -0.4473  0.6734
  681TIP3    H223679   5.760   5.117   0.345 -0.0632  0.4353  1.1635
  682TIP3   OH223680   6.520   6.230   2.152  0.1968  0.0417 -0.0696
  682TIP3    H123681   6.440   6.178   2.158  0.6571 -0.8282 -1.1154
  682TIP3    H223682   6.586   6.169   2.121  0.6815  1.3074 -1.6738
  683TIP3   OH223683   1.314   0.821   2.549  0.7337  0.1403 -0.4291
  683TIP3    H123684   1.237   0.879   2.543  1.7536  1.5788 -0.2240
  683TIP3    H223685   1.374   0.868   2.607  2.1562 -0.5083 -1.3246
  684TIP3   OH223686   2.654   0.848   1.519 -0.6403  0.1157  0.1799
  684TIP3    H123687   2.736   0.825   1.476 -1.2505 -0.5570 -0.6631
  684TIP3    H223688   2.680   0.881   1.605  0.6750  2.3335 -0.9860
  685TIP3   OH223689   0.651   1.433   8.068 -0.0954 -0.4707  0.8306
  685TIP3    H123690   0.564   1.458   8.038  0.3772 -1.0988 -1.2217
  685TIP3    H223691   0.692   1.515   8.096 -0.1764  0.3842 -1.3937
  686TIP3   OH223692   5.305   4.370   0.464 -0.1060  0.0855  0.5236
  686TIP3    H123693   5.342   4.405   0.384  0.2132 -2.3792 -0.5047
  686TIP3    H223694   5.210   4.378   0.452 -0.1342 -1.7250 -0.9025
  687TIP3   OH223695   1.498   0.360   8.482 -0.6914 -0.3578  0.5343
  687TIP3    H123696   1.432   0.427   8.466 -0.8357 -0.3708  1.0782
  687TIP3    H223697   1.554   0.363   8.405 -0.1142  1.0532  0.9891
  688TIP3   OH223698   6.032   4.599   8.679 -0.3122 -0.0055 -0.1488
  688TIP3    H123699   6.083   4.540   8.623 -1.7744 -0.9623 -0.5111
  688TIP3    H223700   6.093   4.622   8.749  0.5115 -1.4638 -0.3363
  689TIP3   OH223701   5.710   0.117   2.393 -0.3738  0.1785  0.4781
  689TIP3    H123702   5.718   0.093   2.485  1.4416 -0.3644  0.2105
  689TIP3    H223703   5.735   0.038   2.345 -0.5923  0.6714 -0.4763
  690TIP3   OH223704   6.600   4.967   1.872  0.0799  0.1040 -0.4265
  690TIP3    H123705   6.583   4.887   1.822  0.9652 -1.2094  1.2832
  690TIP3    H223706   6.683   4.951   1.916 -0.6463  1.1739  1.4740
  691TIP3   OH223707   5.020   2.586   2.375 -0.0189  0.5848  0.2151
  691TIP3    H123708   5.020   2.667   2.325  1.6628 -1.1483 -2.8328
  691TIP3    H223709   4.932   2.551   2.364  0.4277  0.0381 -2.0251
  692TIP3   OH223710   0.428   0.288   7.280 -0.7916 -0.2058  0.0526
  692TIP3    H123711   0.369   0.346   7.232 -0.4286  0.2959  0.2008
  692TIP3    H223712   0.449   0.336   7.360 -0.5842 -0.5959  0.2364
  693TIP3   OH223713   5.578   2.245   2.333 -0.1299 -0.1302  0.0778
  693TIP3    H123714   5.653   2.222   2.279 -1.2065 -0.7415 -1.2175
  693TIP3    H223715   5.605   2.225   2.422  1.8316  1.2646 -0.1428
  694TIP3   OH223716   0.562   4.692   8.310 -0.4065  0.6682  0.3335
  694TIP3    H123717   0.599   4.711   8.397  1.2870  0.6409 -0.3427
  694TIP3    H223718   0.481   4.743   8.307 -0.7873  0.2518  2.1259
  695TIP3   OH223719   0.298   2.091   1.384 -0.0202 -0.2633  0.6065
  695TIP3    H123720   0.253   2.057   1.306 -0.9917  1.0078  0.5785
  695TIP3    H223721   0.372   2.031   1.397 -1.3503 -2.0769  0.2746
  696TIP3   OH223722   2.770   0.086   1.320 -0.4401 -0.2251  0.7227
  696TIP3    H123723   2.856   0.109   1.284 -0.4092 -0.0201  0.9321
  696TIP3    H223724   2.788   0.013   1.380 -0.7133 -1.7891 -0.9961
  697TIP3   OH223725   5.523   2.744   1.701  0.2084  0.0988  0.5782
  697TIP3    H123726   5.575   2.717   1.625  2.0833  0.4899  1.6385
  697TIP3    H223727   5.484   2.664   1.734  1.4387 -0.4846  0.6574
  698TIP3   OH223728   3.977   1.272   6.862  0.0285  0.3203 -0.1407
  698TIP3    H123729   3.941   1.360   6.856  0.8864  0.6922 -0.0764
  698TIP3    H223730   3.978   1.252   6.956 -3.5445 -1.2516 -0.2952
  699TIP3   OH223731   0.279   5.661   1.336  0.2401  0.2063 -0.0304
  699TIP3    H123732   0.350   5.674   1.399 -0.9701  1.8608  1.0719
  699TIP3    H223733   0.306   5.584   1.286  1.0294 -1.5616  2.8521
  700TIP3   OH223734   6.301   0.449   2.734 -0.5478 -0.3142  0.1914
  700TIP3    H123735   6.315   0.483   2.823 -0.9493 -0.2300  0.2244
  700TIP3    H223736   6.217   0.404   2.739 -0.3180 -0.7645 -0.0146
  701TIP3   OH223737   6.177   0.296   0.881  0.1509  0.0396 -0.4754
  701TIP3    H123738   6.135   0.305   0.795 -1.8276  0.6456  0.4917
  701TIP3    H223739   6.114   0.335   0.942  0.4097 -2.5011  1.5517
  702TIP3   OH223740   0.661   4.058   1.598  0.2717  0.1770 -0.3045
  702TIP3    H123741   0.624   4.071   1.686  1.1788  0.4177  0.0534
  702TIP3    H223742   0.726   4.127   1.589  0.7174 -0.3086 -0.8711
  703TIP3   OH223743   3.109   1.032   8.178 -0.1583 -0.0829 -0.4399
  703TIP3    H123744   3.046   1.007   8.245  0.4066 -0.6112 -0.1051
  703TIP3    H223745   3.139   1.119   8.204 -0.1532 -0.1662 -0.1668
  704TIP3   OH223746   4.268   5.676   6.707 -0.8739  0.5154  0.0790
  704TIP3    H123747   4.177   5.648   6.712 -0.2534 -1.5593  0.4069
  704TIP3    H223748   4.308   5.619   6.642 -0.0115  2.0545 -0.7969
  705TIP3   OH223749   5.192   4.149   2.777  0.2251 -0.1593  0.4202
  705TIP3    H123750   5.272   4.150   2.828 -0.3093  1.5175  1.3145
  705TIP3    H223751   5.139   4.080   2.816  0.1666  0.5411  1.6263
  706TIP3   OH223752   0.222   1.863   0.068  0.3673 -0.4361  0.0260
  706TIP3    H123753   0.180   1.942   0.100 -0.1730 -1.1290  1.0751
  706TIP3    H223754   0.164   1.832  -0.002  0.0860 -0.4166  0.2512
  707TIP3   OH223755   0.286   4.112   2.180 -0.3293 -0.3497 -0.0510
  707TIP3    H123756   0.292   4.139   2.272 -0.3978 -0.1910 -0.0935
  707TIP3    H223757   0.367   4.144   2.141  0.6833 -2.1868  0.4097
  708TIP3   OH223758   0.404   1.666   1.975 -0.4718 -0.2776  0.5554
  708TIP3    H123759   0.354   1.698   2.050 -0.9637 -0.9603  0.5270
  708TIP3    H223760   0.339   1.627   1.917 -0.1144  0.3707 -0.3051
  709TIP3   OH223761   6.348   1.302   1.203 -0.3210 -0.5741 -0.0598
  709TIP3    H123762   6.330   1.209   1.215  0.1039 -0.7373 -0.6419
  709TIP3    H223763   6.380   1.309   1.113  3.0818 -0.4173  1.0149
  710TIP3   OH223764   5.539   4.858   8.426  0.2027  0.2332 -0.1745
  710TIP3    H123765   5.455   4.815   8.405  0.0719  0.0411  0.7138
  710TIP3    H223766   5.517   4.950   8.434  0.5752  0.6080 -2.6095
  711TIP3   OH223767   0.166   0.433   0.208  0.2451  1.1068 -0.7465
  711TIP3    H123768   0.141   0.511   0.258  1.7009  0.3809  1.2239
  711TIP3    H223769   0.241   0.461   0.156  0.0465  1.2925 -0.9403
  712TIP3   OH223770   2.357   4.476   6.748  0.1110 -0.2422 -0.4012
  712TIP3    H123771   2.281   4.451   6.799  1.1057 -0.9780  0.7813
  712TIP3    H223772   2.417   4.514   6.812  1.2992 -0.9648 -1.0430
  713TIP3   OH223773   5.504   4.039   8.260 -0.3064 -0.3560 -0.0227
  713TIP3    H123774   5.487   4.133   8.254 -1.3460 -0.4281  1.3467
  713TIP3    H223775   5.585   4.033   8.311  1.0986 -0.1774 -2.1020
  714TIP3   OH223776   0.424   0.930   1.966  0.0504  0.0779 -0.2740
  714TIP3    H123777   0.355   0.881   2.012 -0.3766 -0.9712 -1.9655
  714TIP3    H223778   0.499   0.927   2.027 -0.9129 -0.0397  0.9522
  715TIP3   OH223779   6.137   4.867   0.714  0.5909  0.5661  0.1873
  715TIP3    H123780   6.063   4.883   0.773  0.8573  2.4464  0.0761
  715TIP3    H223781   6.097   4.838   0.632 -0.1183  2.2773 -0.1184
  716TIP3   OH223782   2.932   4.298   7.039 -0.0949  0.1822  0.2127
  716TIP3    H123783   2.984   4.242   6.981 -1.2461 -0.7936  0.0805
  716TIP3    H223784   2.990   4.371   7.060  0.2332  0.8482 -2.5514
  717TIP3   OH223785   5.809   5.086   0.077 -0.1432 -0.0910  0.2541
  717TIP3    H123786   5.811   5.060   0.169  1.2396 -1.7094 -0.1926
  717TIP3    H223787   5.722   5.059   0.047 -1.3336  2.0757  1.4621
  718TIP3   OH223788   5.435   3.774   2.883 -0.2922  0.6386 -0.0695
  718TIP3    H123789   5.374   3.700   2.888  1.2738 -0.6328  1.3906
  718TIP3    H223790   5.517   3.737   2.852  0.0410  2.1452 -1.1260
  719TIP3   OH223791   5.561   0.657   2.778 -0.2592 -0.0105 -0.1995
  719TIP3    H123792   5.514   0.584   2.820 -1.1400  1.2252  1.0485
  719TIP3    H223793   5.644   0.618   2.749  0.5061 -0.9729  2.8962
  720TIP3   OH223794   4.144   3.794   8.638 -0.6614  0.4088  0.0172
  720TIP3    H123795   4.220   3.742   8.613 -0.9765 -0.4696  0.8086
  720TIP3    H223796   4.079   3.776   8.570 -0.6080  0.1200  0.0402
  721TIP3   OH223797   3.572   3.338   1.938  0.2860 -0.5438  0.3040
  721TIP3    H123798   3.668   3.346   1.933  0.3205 -1.4884 -1.9627
  721TIP3    H223799   3.540   3.404   1.876 -0.5873  0.1976  1.5124
  722TIP3   OH223800   5.801   3.066   7.984  0.0877 -0.0208 -0.5505
  722TIP3    H123801   5.846   2.989   8.018 -1.3863 -0.9351 -0.5684
  722TIP3    H223802   5.798   3.127   8.058  0.6888 -0.2493 -0.3370
  723TIP3   OH223803   5.786   3.919   8.213 -0.2271 -0.0152  0.2324
  723TIP3    H123804   5.877   3.925   8.243  0.1482  1.1585 -1.0201
  723TIP3    H223805   5.748   4.004   8.235 -0.4408  0.2190 -0.9512
  724TIP3   OH223806   1.771   6.064   0.834 -0.0348  0.1168  0.1418
  724TIP3    H123807   1.864   6.067   0.814  0.4576 -0.9774  2.0445
  724TIP3    H223808   1.764   6.097   0.923 -1.3791 -0.4689  0.2757
  725TIP3   OH223809   3.180   5.303   0.042 -0.7039 -0.1239 -0.0534
  725TIP3    H123810   3.183   5.238   0.112  1.8859  1.8863  1.9801
  725TIP3    H223811   3.244   5.272  -0.022 -2.1767 -1.3567 -0.9678
  726TIP3   OH223812   2.799   3.059   7.051  0.0256 -0.2394 -0.1568
  726TIP3    H123813   2.861   3.097   6.989 -0.7676  0.5150 -0.5042
  726TIP3    H223814   2.719   3.109   7.038 -0.9204 -1.7571 -0.3194
  727TIP3   OH223815   1.936   2.500   1.344 -0.2803  1.0732 -0.1913
  727TIP3    H123816   1.869   2.548   1.294  0.6604  1.4638 -1.1224
  727TIP3    H223817   2.019   2.526   1.304  0.3402 -0.5489 -0.0445
  728TIP3   OH223818   2.428   1.248   1.114 -0.0827  0.0714 -0.0871
  728TIP3    H123819   2.390   1.332   1.088  0.4596  0.3426 -0.0225
  728TIP3    H223820   2.369   1.182   1.078 -0.2999  0.4768 -0.4742
  729TIP3   OH223821   1.933   4.016   1.334  0.1889 -0.6686  0.5983
  729TIP3    H123822   1.946   3.959   1.259 -0.7168 -0.9991  0.6879
  729TIP3    H223823   1.965   3.966   1.409 -3.5287 -2.5003  1.1976
  730TIP3   OH223824   4.718   5.069   8.477  0.6600 -0.1064 -0.4422
  730TIP3    H123825   4.673   5.091   8.558 -0.0815 -0.1045 -0.8440
  730TIP3    H223826   4.746   4.979   8.489  1.6725  0.2915  0.3061
  731TIP3   OH223827   6.534   3.012   0.127 -0.2221  0.0580 -0.1200
  731TIP3    H123828   6.547   3.095   0.173  0.9621  0.1573 -0.5856
  731TIP3    H223829   6.455   2.975   0.165 -0.4085  1.0999  0.5442
  732TIP3   OH223830   2.766   0.711   7.696 -0.4404 -0.0270 -0.0842
  732TIP3    H123831   2.712   0.701   7.775 -0.4378  0.4546 -0.0193
  732TIP3    H223832   2.856   0.695   7.726 -0.4382  0.1673  0.0110
  733TIP3   OH223833   0.351   3.334   7.308 -0.0035 -0.3685  0.1395
  733TIP3    H123834   0.334   3.419   7.346  0.5589 -1.1695  2.3438
  733TIP3    H223835   0.428   3.347   7.252  2.0199  0.0534  2.8265
  734TIP3   OH223836   2.636   0.667   0.630  0.1188 -0.3049 -0.1931
  734TIP3    H123837   2.701   0.695   0.566  0.4943 -0.7020  0.0056
  734TIP3    H223838   2.566   0.627   0.579 -0.9043  1.8289 -0.5714
  735TIP3   OH223839   5.902   0.114   0.540 -0.0314  0.0120  0.7198
  735TIP3    H123840   5.822   0.149   0.500  0.1653  0.5148  0.7728
  735TIP3    H223841   5.911   0.027   0.501  0.2624  0.5670 -0.5000
  736TIP3   OH223842   1.816   2.686   0.142 -0.0657 -0.3718 -0.3046
  736TIP3    H123843   1.750   2.716   0.079 -1.2082 -0.3132  0.8815
  736TIP3    H223844   1.891   2.743   0.127 -0.6908  0.3168 -0.9257
  737TIP3   OH223845   6.467   1.813   0.491  0.4768  0.0570 -0.2211
  737TIP3    H123846   6.485   1.807   0.585 -0.7801 -1.5240 -0.0358
  737TIP3    H223847   6.504   1.897   0.465  0.4179  0.7577  1.7768
  738TIP3   OH223848   6.279   1.957   1.700  0.5263  0.3249  0.3731
  738TIP3    H123849   6.243   1.888   1.646  0.5591 -0.4992  1.3840
  738TIP3    H223850   6.371   1.933   1.711  0.6676  0.8150  0.2958
  739TIP3   OH223851   4.654   5.276   0.756  1.0221 -0.2188  0.5621
  739TIP3    H123852   4.689   5.243   0.839  0.7157 -0.3172  0.6533
  739TIP3    H223853   4.604   5.203   0.721  0.7008  0.0057  0.5520
  740TIP3   OH223854   0.704   5.691   1.690 -0.3453  0.0611 -1.3101
  740TIP3    H123855   0.702   5.595   1.685  2.6633 -0.2271  0.3466
  740TIP3    H223856   0.797   5.713   1.684 -0.5595  2.5628  1.7800
  741TIP3   OH223857   1.006   0.036   2.022 -0.3177  0.2398 -0.1472
  741TIP3    H123858   1.101   0.049   2.012 -0.6463  4.5772  0.8170
  741TIP3    H223859   0.970   0.061   1.937 -0.7251  0.6774  0.1544
  742TIP3   OH223860   4.890   4.846   7.208 -0.0542 -0.3289  0.5885
  742TIP3    H123861   4.798   4.847   7.180  0.3549 -1.3348 -0.9041
  742TIP3    H223862   4.893   4.784   7.280 -0.7044  0.4397  1.2941
  743TIP3   OH223863   4.881   5.654   0.471  0.1098  0.4703 -0.0342
  743TIP3    H123864   4.963   5.647   0.420 -1.1237  1.1679 -2.2525
  743TIP3    H223865   4.898   5.725   0.532  1.2627  0.4215 -0.2589
  744TIP3   OH223866   1.552   4.784   0.059  0.0062 -0.1769  0.2300
  744TIP3    H123867   1.598   4.755  -0.020 -0.8619  0.9287 -0.7029
  744TIP3    H223868   1.619   4.830   0.110  0.3148  0.0436 -0.3726
  745TIP3   OH223869   2.058   2.506   0.875  0.4981 -0.1194 -0.1341
  745TIP3    H123870   2.071   2.583   0.819  0.6513  0.8511  1.1839
  745TIP3    H223871   2.122   2.518   0.945 -0.8639 -0.3757  1.1968
  746TIP3   OH223872   0.234   1.596   8.286 -0.1600 -0.3782 -0.0471
  746TIP3    H123873   0.153   1.624   8.328  1.5131  1.8077  2.0124
  746TIP3    H223874   0.274   1.677   8.255  0.9923 -1.4618 -1.5362
  747TIP3   OH223875   0.617   2.661   8.262  0.4149  0.1729  0.1496
  747TIP3    H123876   0.587   2.570   8.267  0.6745  0.0895  0.1992
  747TIP3    H223877   0.705   2.655   8.224  0.0269  0.4887 -0.8280
  748TIP3   OH223878   1.745   6.058   7.482  0.1087 -0.6395 -0.2629
  748TIP3    H123879   1.760   6.035   7.574  1.4981 -0.6529 -0.4716
  748TIP3    H223880   1.786   6.143   7.471  1.3199 -1.3053 -1.2108
  749TIP3   OH223881   6.602   2.139   8.670 -0.1733  0.3030 -0.1585
  749TIP3    H123882   6.532   2.098   8.619 -0.4905  0.6822 -0.0392
  749TIP3    H223883   6.560   2.217   8.709  0.6620  1.3000 -1.1853
  750TIP3   OH223884   5.538   0.748   0.656  0.0385  0.5042 -0.3197
  750TIP3    H123885   5.502   0.835   0.640 -0.4097  0.5772  1.0047
  750TIP3    H223886   5.537   0.706   0.570  1.0600  2.0760 -1.1502
  751TIP3   OH223887   6.521   1.824   1.778  0.1029  0.0043 -0.5183
  751TIP3    H123888   6.560   1.772   1.707  1.9739  0.9718 -0.2510
  751TIP3    H223889   6.482   1.758   1.836  0.2343 -0.9327 -1.4524
  752TIP3   OH223890   3.554   4.662   0.255  0.2431 -0.3685  0.6735
  752TIP3    H123891   3.608   4.737   0.231  0.3614 -0.0400  1.9235
  752TIP3    H223892   3.612   4.606   0.306  0.5563 -2.0044 -1.3321
  753TIP3   OH223893   5.068   5.921   0.901 -0.1965  0.4747  0.1894
  753TIP3    H123894   5.065   5.907   0.996 -0.4564 -2.9303 -0.1961
  753TIP3    H223895   5.159   5.942   0.883  0.3434 -1.0093  1.0201
  754TIP3   OH223896   1.682   0.462   7.414 -0.9137 -0.0502 -0.3111
  754TIP3    H123897   1.771   0.426   7.417 -0.2520  1.5449  0.5660
  754TIP3    H223898   1.690   0.542   7.361 -1.2096  1.5409  1.8851
  755TIP3   OH223899   1.354   0.550   2.537  0.2563  0.5750  0.2521
  755TIP3    H123900   1.448   0.544   2.524  0.1596  0.4829 -0.4493
  755TIP3    H223901   1.337   0.644   2.551  0.1559  0.9960 -2.2343
  756TIP3   OH223902   0.458   2.482   1.049 -0.4096  0.6098 -1.3313
  756TIP3    H123903   0.529   2.547   1.055 -0.3652  0.4514  0.2534
  756TIP3    H223904   0.390   2.516   1.107 -0.6234 -0.4673 -0.9320
  757TIP3   OH223905   2.160   1.373   7.953  0.0062 -0.3395 -0.0927
  757TIP3    H123906   2.147   1.284   7.985  0.3655 -0.1421  0.6116
  757TIP3    H223907   2.098   1.426   8.003 -0.1690 -0.1826 -0.4726
  758TIP3   OH223908   6.203   6.524   0.038 -0.1996 -0.1757 -0.0690
  758TIP3    H123909   6.214   6.485  -0.049 -0.4373  1.3332 -0.8006
  758TIP3    H223910   6.256   6.468   0.096  0.3430 -0.9301 -1.2449
  759TIP3   OH223911   0.641   3.821   2.086  0.1960 -0.0748  0.2373
  759TIP3    H123912   0.718   3.780   2.125 -1.5998 -0.3992  3.7424
  759TIP3    H223913   0.658   3.818   1.991  3.4184 -2.1506  0.7399
  760TIP3   OH223914   0.935   4.162   7.872 -0.1451 -0.6739 -0.1410
  760TIP3    H123915   1.013   4.111   7.895 -0.0058 -0.7971 -0.8469
  760TIP3    H223916   0.965   4.223   7.805 -0.7769 -1.1339 -0.8642
  761TIP3   OH223917   5.588   2.859   1.971 -0.0781  0.1763 -0.8226
  761TIP3    H123918   5.551   2.837   1.886 -2.0173 -2.0859  0.4603
  761TIP3    H223919   5.530   2.928   2.005 -2.5638 -2.3417  0.5645
  762TIP3   OH223920   4.820   6.423   8.546 -0.2719 -0.2589 -0.3509
  762TIP3    H123921   4.861   6.422   8.633  1.2331  0.7790 -1.0114
  762TIP3    H223922   4.727   6.438   8.564  0.1439  0.8416  1.0432
  763TIP3   OH223923   0.116   2.362   0.640  0.3149  0.4730  0.6358
  763TIP3    H123924   0.023   2.376   0.658 -0.2061 -0.6851 -0.9404
  763TIP3    H223925   0.131   2.406   0.556  1.2982  0.9238  1.0253
  764TIP3   OH223926   1.287   4.589   1.124 -0.1203 -0.2156 -0.0956
  764TIP3    H123927   1.339   4.591   1.044 -1.9615  0.6320 -1.3353
  764TIP3    H223928   1.301   4.501   1.160  2.1122 -0.0162 -0.3469
  765TIP3   OH223929   2.253   4.962   8.579  0.3473  0.0325  0.1770
  765TIP3    H123930   2.319   5.031   8.585  0.4226 -0.1412  1.5771
  765TIP3    H223931   2.280   4.909   8.504 -0.1256  1.9168 -1.3923
  766TIP3   OH223932   6.064   0.371   8.676 -0.4751  0.0901  0.1331
  766TIP3    H123933   6.068   0.463   8.703  0.0126 -0.4476  1.9892
  766TIP3    H223934   6.137   0.329   8.721 -0.4086 -1.1363 -1.0523
  767TIP3   OH223935   5.085   2.936   1.488  0.0327  0.0001  0.0484
  767TIP3    H123936   5.146   2.996   1.445  0.1594  0.7899  1.3001
  767TIP3    H223937   5.020   2.993   1.530 -0.9337 -0.8009 -0.3009
  768TIP3   OH223938   0.354   1.036   0.393  0.2813 -0.2778  0.2851
  768TIP3    H123939   0.436   1.077   0.421 -0.7827  1.1931  1.4047
  768TIP3    H223940   0.305   1.106   0.351  0.1612 -1.5036 -1.7354
  769TIP3   OH223941   3.876   2.460   2.315 -0.8481  0.2989  0.2723
  769TIP3    H123942   3.816   2.520   2.360 -1.3509 -1.5123  2.1473
  769TIP3    H223943   3.872   2.379   2.366  2.1074 -0.3735 -0.3665
  770TIP3   OH223944   6.318   4.418   2.517  0.3269  0.2842  0.2793
  770TIP3    H123945   6.377   4.445   2.588 -1.1792  0.5732  1.4858
  770TIP3    H223946   6.253   4.488   2.512 -0.3542 -0.3845 -0.4898
  771TIP3   OH223947   5.378   2.139   7.681 -0.1599 -0.2950 -0.4900
  771TIP3    H123948   5.426   2.185   7.749  0.5846 -2.1768  0.3451
  771TIP3    H223949   5.438   2.136   7.606 -0.8939  1.5749 -1.2078
  772TIP3   OH223950   3.529   2.341   8.754  0.5912 -0.2575  0.0280
  772TIP3    H123951   3.472   2.402   8.707  1.0290  2.4990  2.7020
  772TIP3    H223952   3.607   2.333   8.699 -0.4998 -0.4187 -1.5388
  773TIP3   OH223953   3.707   1.632   0.040  0.1275 -0.3456 -0.0681
  773TIP3    H123954   3.754   1.557   0.003 -0.1494 -0.0116 -1.1118
  773TIP3    H223955   3.648   1.660  -0.029 -0.4501  0.2550  0.6578
  774TIP3   OH223956   0.244   0.021   2.511  0.0320 -0.5764 -0.6110
  774TIP3    H123957   0.282  -0.048   2.565  0.2388 -0.3047 -0.4030
  774TIP3    H223958   0.282   0.102   2.546 -0.4948 -0.3263 -0.6053
  775TIP3   OH223959   4.220   4.823   1.094  0.1024  0.1611 -0.6845
  775TIP3    H123960   4.290   4.853   1.036  1.6015 -0.4562  0.7296
  775TIP3    H223961   4.193   4.739   1.057 -1.1421  1.1823 -2.2152
  776TIP3   OH223962   0.204   0.808   1.164  0.4572 -0.0811  0.6918
  776TIP3    H123963   0.277   0.842   1.217 -0.1393  0.2355  1.3377
  776TIP3    H223964   0.126   0.836   1.212 -0.0910 -0.2717 -0.0802
  777TIP3   OH223965   2.259   6.832   0.820  0.1423  0.2733 -0.0260
  777TIP3    H123966   2.339   6.787   0.792  0.9039  0.7887  1.2592
  777TIP3    H223967   2.189   6.786   0.773  1.1161 -0.6677 -0.6155
  778TIP3   OH223968   6.207   4.746   8.821 -0.0904 -0.0871  0.2242
  778TIP3    H123969   6.174   4.815   8.764  2.3447 -0.4056 -1.6894
  778TIP3    H223970   6.200   4.783   8.909 -1.4683  1.4480 -0.4777
  779TIP3   OH223971   2.763   3.059   3.016 -0.5043 -0.3166  0.0943
  779TIP3    H123972   2.690   3.067   2.955  0.2959  1.9617 -0.6454
  779TIP3    H223973   2.839   3.039   2.961  0.0420  0.7936  0.4082
  780TIP3   OH223974   6.152   4.596   7.863  0.2861 -0.1243  0.1191
  780TIP3    H123975   6.132   4.648   7.785  1.7634  0.2758 -0.0343
  780TIP3    H223976   6.208   4.525   7.830 -0.2383 -0.7843  0.6107
  781TIP3   OH223977   2.456   6.040   7.731  0.1114 -0.5002 -0.3358
  781TIP3    H123978   2.430   6.131   7.745 -1.1390 -0.8834 -0.1030
  781TIP3    H223979   2.436   5.996   7.813  1.6480 -0.8083 -0.0888
  782TIP3   OH223980   6.388   2.300   0.544 -0.0750  0.5225 -0.2249
  782TIP3    H123981   6.440   2.381   0.544  1.2935 -0.3263  0.7398
  782TIP3    H223982   6.381   2.276   0.636 -0.3888 -0.5183 -0.5132
  783TIP3   OH223983   4.177   1.788   7.140  0.5167  0.0250  0.7392
  783TIP3    H123984   4.114   1.812   7.209 -0.1868  0.7204 -0.1299
  783TIP3    H223985   4.241   1.733   7.185  0.0197  0.3885  1.9365
  784TIP3   OH223986   5.233   2.745   1.186 -0.0605  0.0361  0.8153
  784TIP3    H123987   5.146   2.705   1.183  0.1970 -0.4978  0.1768
  784TIP3    H223988   5.293   2.671   1.196  0.3000  0.4424  1.7409
  785TIP3   OH223989   6.613   5.610   7.299  0.2433 -0.4661 -0.2705
  785TIP3    H123990   6.647   5.521   7.305  0.8255 -0.2871 -0.8039
  785TIP3    H223991   6.590   5.621   7.207  0.6772  0.1045 -0.3161
  786TIP3   OH223992   4.181   2.083   8.011  0.6247  0.4109 -0.3437
  786TIP3    H123993   4.118   2.144   8.050  0.1066  0.3106 -1.0021
  786TIP3    H223994   4.206   2.124   7.928  2.6970  1.2500  0.6151
  787TIP3   OH223995   6.786   4.629   0.109 -0.6077  0.4000 -1.1909
  787TIP3    H123996   6.766   4.670   0.024  1.1990  2.9922 -0.4900
  787TIP3    H223997   6.879   4.605   0.102 -0.4403  0.6494  0.0576
  788TIP3   OH223998   6.000   2.593   2.410  0.1193 -0.3901 -0.1342
  788TIP3    H123999   5.988   2.611   2.503 -0.8021  1.9403 -0.6401
  788TIP3    H224000   5.938   2.523   2.390  1.0808 -1.6816  1.1649
  789TIP3   OH224001   0.568   4.092   2.119  0.8765  0.0139 -0.2943
  789TIP3    H124002   0.602   4.002   2.126  0.6275 -0.3459 -2.9485
  789TIP3    H224003   0.589   4.131   2.204  1.5592 -2.3426  0.7211
  790TIP3   OH224004   6.370   0.112   1.437 -0.0243  0.5220  0.4842
  790TIP3    H124005   6.373   0.017   1.447  2.5260  0.5146  0.2068
  790TIP3    H224006   6.344   0.126   1.346 -0.9704  0.1440  0.6778
  791TIP3   OH224007   1.104   2.966   2.328 -0.0400 -0.9376  0.1176
  791TIP3    H124008   1.111   2.872   2.343  1.2344 -0.6667  1.4350
  791TIP3    H224009   1.180   3.003   2.373 -1.1725  0.8339  0.6629
  792TIP3   OH224010   5.857   1.433   1.869  0.4650 -0.0899 -0.5305
  792TIP3    H124011   5.920   1.377   1.914  0.5171 -0.6115 -1.2295
  792TIP3    H224012   5.909   1.479   1.803 -0.0443 -1.3359 -1.8426
  793TIP3   OH224013   3.961   2.278   8.504 -0.0340 -0.0004  0.0777
  793TIP3    H124014   3.871   2.274   8.471 -0.4007  0.5405  0.9860
  793TIP3    H224015   3.957   2.339   8.577  1.4243  1.4522 -0.9791
  794TIP3   OH224016   0.519   1.422   7.285 -0.0762 -0.2699 -0.3231
  794TIP3    H124017   0.466   1.500   7.306 -1.9237 -1.4585 -0.3342
  794TIP3    H224018   0.487   1.394   7.200  0.6141 -1.0249 -0.3467
  795TIP3   OH224019   2.180   6.609   0.478  0.2432 -0.6028  0.5064
  795TIP3    H124020   2.168   6.704   0.483  0.6704 -0.5637  0.8425
  795TIP3    H224021   2.239   6.596   0.404 -1.3863 -0.7600 -0.8256
  796TIP3   OH224022   4.316   4.889   2.193  0.7708  0.4315  0.5436
  796TIP3    H124023   4.255   4.828   2.153  0.0815  0.4123  1.5920
  796TIP3    H224024   4.323   4.962   2.131  1.1850 -0.4431 -0.4644
  797TIP3   OH224025   2.273   5.470   1.185  0.4626  0.0545 -0.4568
  797TIP3    H124026   2.303   5.530   1.253  0.9573  0.7618 -1.2864
  797TIP3    H224027   2.227   5.401   1.233  2.0727 -0.2572  0.7206
  798TIP3   OH224028   0.626   1.064   0.534 -0.0102 -0.3180 -0.4381
  798TIP3    H124029   0.699   1.106   0.489 -0.1109 -0.2417 -0.5312
  798TIP3    H224030   0.624   0.975   0.500 -0.9028  0.1109 -1.5715
  799TIP3   OH224031   0.734   2.616   7.768  0.5799 -0.1874 -0.0581
  799TIP3    H124032   0.653   2.587   7.726 -0.2825  1.4192  0.4362
  799TIP3    H224033   0.734   2.711   7.758  1.3222  0.0526  1.8304
  800TIP3   OH224034   3.533   5.430   0.369  0.0183  0.6872  1.0911
  800TIP3    H124035   3.589   5.503   0.344  0.5432  0.2559  0.9813
  800TIP3    H224036   3.594   5.363   0.400 -0.2875 -0.4093 -0.5359
  801TIP3   OH224037   0.294   0.656   8.259  0.0116 -0.7262 -0.1095
  801TIP3    H124038   0.232   0.597   8.216  0.7107  0.5268 -3.0830
  801TIP3    H224039   0.359   0.676   8.192 -0.0578  3.2433  0.7709
  802TIP3   OH224040   3.405   6.585   1.088 -0.0975 -0.0345  0.1593
  802TIP3    H124041   3.427   6.494   1.108  0.5132  0.4156  1.6704
  802TIP3    H224042   3.400   6.628   1.173 -2.9402  0.8188 -0.3184
  803TIP3   OH224043   0.958   0.115   1.505 -0.1852 -0.4086  0.1253
  803TIP3    H124044   1.053   0.126   1.509  0.1504 -3.0025  0.7537
  803TIP3    H224045   0.942   0.065   1.425 -1.1956  1.0477 -0.6349
  804TIP3   OH224046   0.878   4.614   7.608 -0.5995 -0.6143  0.3031
  804TIP3    H124047   0.939   4.567   7.551 -0.1251  0.0944  0.2083
  804TIP3    H224048   0.921   4.614   7.694 -1.0252 -1.1416  0.5234
  805TIP3   OH224049   4.628   4.888   7.061  0.0018  0.0972  0.5294
  805TIP3    H124050   4.568   4.816   7.078 -0.1085  0.6505  2.7710
  805TIP3    H224051   4.626   4.899   6.965 -1.5080 -1.5290  0.3283
  806TIP3   OH224052   1.351   2.876   8.610 -0.0443  0.3811 -0.0336
  806TIP3    H124053   1.311   2.959   8.582 -0.2152  0.1427 -0.5172
  806TIP3    H224054   1.287   2.809   8.585 -0.4031  0.1839  1.3461
  807TIP3   OH224055   4.591   5.443   8.030  0.0269 -0.2097 -0.0471
  807TIP3    H124056   4.565   5.488   8.110 -1.1310  0.1695 -0.6086
  807TIP3    H224057   4.584   5.510   7.961  0.2953 -0.7111 -0.5741
  808TIP3   OH224058   4.279   2.465   1.815  0.1932  0.2150 -0.4168
  808TIP3    H124059   4.242   2.478   1.902  1.1996 -0.0799  0.0775
  808TIP3    H224060   4.205   2.441   1.760 -0.0101 -3.3668  1.1631
  809TIP3   OH224061   1.470   2.334   8.451  0.3876  0.3005  0.1510
  809TIP3    H124062   1.430   2.399   8.509 -0.6413  1.1171 -1.4078
  809TIP3    H224063   1.455   2.250   8.496  1.7556  1.0708  2.2069
  810TIP3   OH224064   6.223   3.588   1.638  0.0712 -0.0703 -0.5395
  810TIP3    H124065   6.163   3.603   1.711  1.3078  0.3418  0.4260
  810TIP3    H224066   6.218   3.494   1.622 -0.6601 -0.0733 -0.3308
  811TIP3   OH224067   1.015   0.196   8.405 -0.2244 -0.3349  0.5366
  811TIP3    H124068   1.105   0.177   8.378  0.4631  2.0166  0.9590
  811TIP3    H224069   0.993   0.124   8.464  0.6235 -2.0097 -1.0557
  812TIP3   OH224070   4.018   1.120   1.858  0.1492  0.1165  0.1018
  812TIP3    H124071   4.028   1.035   1.900  1.0087  0.5982  0.9236
  812TIP3    H224072   3.933   1.152   1.888  1.1182  0.8294  2.2487
  813TIP3   OH224073   6.244   5.902   8.292 -0.1724  0.3961  0.3043
  813TIP3    H124074   6.338   5.897   8.304  0.0675  0.1112 -1.3710
  813TIP3    H224075   6.228   5.993   8.265  0.0765 -0.2283 -2.2468
  814TIP3   OH224076   0.695   5.885   2.055  0.1953 -0.3440 -0.4809
  814TIP3    H124077   0.676   5.927   1.971 -0.5286 -0.5745 -0.4444
  814TIP3    H224078   0.768   5.826   2.037  0.9004  0.5583 -0.6431
  815TIP3   OH224079   4.281   5.527   8.384  0.3480  0.3942  0.0489
  815TIP3    H124080   4.280   5.598   8.448 -0.5290  0.5161 -0.0853
  815TIP3    H224081   4.196   5.533   8.340  1.9494  2.1440 -3.1370
  816TIP3   OH224082   1.997   1.385   2.437 -0.4017 -0.1525  0.1594
  816TIP3    H124083   2.036   1.461   2.478  1.6132 -0.7553 -0.5416
  816TIP3    H224084   1.997   1.317   2.505  0.6390 -0.4167 -0.0948
  817TIP3   OH224085   6.537   3.284   8.076  0.2637  0.3136  0.5234
  817TIP3    H124086   6.554   3.200   8.033 -1.2943  0.2223  0.0515
  817TIP3    H224087   6.499   3.339   8.008 -0.0105  0.9595  1.1875
  818TIP3   OH224088   5.115   1.463   7.251 -0.4672 -0.8628  0.1304
  818TIP3    H124089   5.059   1.540   7.252 -0.6479 -0.8558 -2.4445
  818TIP3    H224090   5.203   1.496   7.267 -0.5412 -0.0699 -0.9722
  819TIP3   OH224091   6.221   3.488   7.881 -0.0865  0.7520 -0.4308
  819TIP3    H124092   6.126   3.482   7.867  0.2146 -1.4344 -2.2189
  819TIP3    H224093   6.242   3.408   7.930  0.9410  0.7248 -0.9005
  820TIP3   OH224094   4.160   1.139   8.543 -0.1374 -0.6616  0.2792
  820TIP3    H124095   4.208   1.080   8.485 -1.3623  0.0013 -1.4824
  820TIP3    H224096   4.212   1.219   8.545 -0.1815 -0.6250 -0.0510
  821TIP3   OH224097   5.089   5.581   0.190  0.0525 -0.1353  0.1338
  821TIP3    H124098   5.112   5.608   0.101 -0.7560 -0.4637 -0.1819
  821TIP3    H224099   5.001   5.544   0.183 -0.3636  0.5876  1.2146
  822TIP3   OH224100   2.597   3.381   7.290  0.4760 -0.0671 -0.4997
  822TIP3    H124101   2.614   3.427   7.372 -0.4938  0.0163 -0.3349
  822TIP3    H224102   2.577   3.291   7.317  2.0657 -0.5340 -0.7982
  823TIP3   OH224103   0.163   2.892   7.428 -0.2283  0.2234  0.0658
  823TIP3    H124104   0.204   2.961   7.376  0.0912  0.6497  0.8691
  823TIP3    H224105   0.159   2.817   7.368  2.1328  0.0182  0.0429
  824TIP3   OH224106   5.840   3.055   8.486 -0.0902  0.1495 -0.1368
  824TIP3    H124107   5.831   3.094   8.573  1.1180  0.9378 -0.3404
  824TIP3    H224108   5.919   3.001   8.491 -0.3542 -0.2890 -0.5750
  825TIP3   OH224109   2.402   2.886   0.178 -0.4130  0.0116  0.0566
  825TIP3    H124110   2.341   2.887   0.104 -1.4221 -2.3431  0.7699
  825TIP3    H224111   2.481   2.844   0.144 -0.1996  0.5457 -0.1248
  826TIP3   OH224112   5.704   3.991   1.333  0.4542 -0.2621 -0.4362
  826TIP3    H124113   5.789   4.009   1.293  1.5230 -0.0611  1.7694
  826TIP3    H224114   5.706   3.899   1.356 -0.0897 -0.3465 -0.6943
  827TIP3   OH224115   2.069   5.947   8.777 -0.1580  0.0685  0.1488
  827TIP3    H124116   2.139   5.927   8.714 -1.7215 -0.3323 -1.5311
  827TIP3    H224117   2.113   6.001   8.843  1.9296 -0.8552 -0.3772
  828TIP3   OH224118   1.627   4.325   7.905  0.2751  0.3416  0.0333
  828TIP3    H124119   1.659   4.408   7.941  1.8029  0.3095 -1.1626
  828TIP3    H224120   1.673   4.258   7.955  1.9422  0.2917 -1.4788
  829TIP3   OH224121   2.586   1.651   0.001 -0.3544  0.7753 -0.3177
  829TIP3    H124122   2.601   1.561  -0.030 -4.0660 -0.6732  1.4233
  829TIP3    H224123   2.632   1.655   0.084 -1.5792 -0.2503  0.4598
  830TIP3   OH224124   5.782   4.010   2.463  0.0080  0.4757  0.9463
  830TIP3    H124125   5.719   4.080   2.481  1.0471  1.4667  0.8442
  830TIP3    H224126   5.853   4.026   2.524  0.7391  0.1328  0.2006
  831TIP3   OH224127   4.488   3.354   8.456 -0.1207  0.1841 -0.6238
  831TIP3    H124128   4.451   3.427   8.506 -0.4195  0.0744 -0.6868
  831TIP3    H224129   4.463   3.371   8.365 -0.4800 -0.1728 -0.5946
  832TIP3   OH224130   4.756   2.752   2.803  0.1375  0.1389 -0.3973
  832TIP3    H124131   4.829   2.719   2.855 -1.4228 -1.6679  0.7812
  832TIP3    H224132   4.741   2.841   2.837  1.5573  0.4121 -0.4447
  833TIP3   OH224133   4.638   1.356   0.983 -0.1600  0.6260  0.0555
  833TIP3    H124134   4.557   1.402   0.961  0.0919  1.4868  0.8657
  833TIP3    H224135   4.655   1.300   0.907 -0.1321  2.3584 -1.2859
  834TIP3   OH224136   0.804   5.367   0.751 -0.1309 -1.0232 -0.4062
  834TIP3    H124137   0.795   5.411   0.835  0.7684 -0.4267 -0.6017
  834TIP3    H224138   0.885   5.316   0.758  3.2135  3.3154 -2.6340
  835TIP3   OH224139   4.727   1.405   0.051 -0.2991 -0.6108  0.2132
  835TIP3    H124140   4.783   1.362  -0.014  0.0204  0.7297 -0.4417
  835TIP3    H224141   4.641   1.365   0.039  0.0294 -1.1921 -0.2472
  836TIP3   OH224142   2.155   6.715   7.434 -0.1025  0.4251 -0.6619
  836TIP3    H124143   2.070   6.676   7.415 -2.1416  2.7566  2.6098
  836TIP3    H224144   2.216   6.641   7.433 -2.2798 -1.4951 -2.2096
  837TIP3   OH224145   1.244   4.434   2.399 -0.1922  0.2822 -0.1914
  837TIP3    H124146   1.321   4.404   2.446  0.3066  2.1469  0.2551
  837TIP3    H224147   1.172   4.426   2.462 -0.3349 -1.1610 -0.5088
  838TIP3   OH224148   4.918   4.625   7.941  0.0883  0.0513 -0.0978
  838TIP3    H124149   4.999   4.663   7.974 -0.7884  1.5554  0.3995
  838TIP3    H224150   4.871   4.595   8.019 -0.2521  0.0386 -0.3031
  839TIP3   OH224151   2.728   0.581   8.639 -0.1525  0.0841  0.3611
  839TIP3    H124152   2.738   0.622   8.724  0.6540 -0.2685  0.4464
  839TIP3    H224153   2.802   0.612   8.588 -0.2399 -0.2603  0.0170
  840TIP3   OH224154   4.772   2.726   8.809 -0.2244  0.1598 -0.0009
  840TIP3    H124155   4.782   2.692   8.720 -0.8252  0.8123 -0.3332
  840TIP3    H224156   4.744   2.817   8.796 -1.2077 -0.0137  0.8573
  841TIP3   OH224157   1.078   0.745   2.351 -0.2138  0.2175  0.0408
  841TIP3    H124158   1.044   0.821   2.398 -0.7249 -0.8376  1.4615
  841TIP3    H224159   1.171   0.744   2.371 -0.1351  0.6624 -0.2864
  842TIP3   OH224160   3.553   4.055   0.560  0.2693  0.0717 -0.2304
  842TIP3    H124161   3.552   4.018   0.471 -0.0748  0.3200 -0.3340
  842TIP3    H224162   3.609   4.132   0.553  0.6155 -0.1680 -0.1220
  843TIP3   OH224163   2.345   3.717   0.007 -0.0591 -0.2901 -0.5310
  843TIP3    H124164   2.255   3.734  -0.020  0.3052 -0.0759 -1.6402
  843TIP3    H224165   2.381   3.804   0.026 -0.8042 -0.5195  2.4005
  844TIP3   OH224166   5.831   4.131   1.765  0.9674 -0.0242  0.0122
  844TIP3    H124167   5.920   4.097   1.776  0.8093 -0.0755  1.1923
  844TIP3    H224168   5.833   4.217   1.808  0.2479 -0.3386  0.6829
  845TIP3   OH224169   4.386   3.524   0.717  0.6546 -0.0271  0.5966
  845TIP3    H124170   4.308   3.576   0.694  1.2818  0.4133 -0.6082
  845TIP3    H224171   4.430   3.577   0.783 -0.7516 -0.9258  2.3433
  846TIP3   OH224172   3.955   2.670   7.942 -0.4256 -0.4571  0.0277
  846TIP3    H124173   3.943   2.670   8.037 -0.0429 -1.8338  0.1034
  846TIP3    H224174   3.876   2.628   7.908 -0.7613  0.4199 -0.3164
  847TIP3   OH224175   6.304   2.899   0.258 -0.2170 -0.1082 -0.3055
  847TIP3    H124176   6.365   2.882   0.329 -1.0129 -0.5151  0.2973
  847TIP3    H224177   6.270   2.986   0.275  1.1533  0.6810 -1.3805
  848TIP3   OH224178   2.353   4.835   7.330 -0.0965 -0.3730 -0.3338
  848TIP3    H124179   2.358   4.805   7.239  0.6809  1.0433 -0.8020
  848TIP3    H224180   2.443   4.830   7.362 -0.6535 -2.8411  1.1015
  849TIP3   OH224181   0.848   1.648   7.400  0.1468 -0.4855 -0.0017
  849TIP3    H124182   0.807   1.609   7.478  1.8334 -0.8444  0.7404
  849TIP3    H224183   0.789   1.720   7.377  0.0523  0.2217  2.1757
  850TIP3   OH224184   2.629   3.520   0.843 -0.3916  0.5752  0.3395
  850TIP3    H124185   2.568   3.593   0.854  0.3531  1.1826  0.5683
  850TIP3    H224186   2.681   3.544   0.766  0.0988  0.4631  0.6333
  851TIP3   OH224187   0.449   2.277   1.288  0.4044 -0.6217  0.7743
  851TIP3    H124188   0.414   2.275   1.199  0.1030 -0.1497  0.8772
  851TIP3    H224189   0.401   2.209   1.335 -0.6103  0.2128  0.9929
  852TIP3   OH224190   3.777   4.522   8.312  0.1754 -0.3186  0.2361
  852TIP3    H124191   3.786   4.457   8.382 -0.3604 -1.7643 -0.9749
  852TIP3    H224192   3.703   4.577   8.339  0.6123 -0.2278  1.2693
  853TIP3   OH224193   6.775   4.342   6.983  0.2822  0.3827  0.4055
  853TIP3    H124194   6.760   4.249   6.998  1.7578 -0.1814 -1.2643
  853TIP3    H224195   6.868   4.349   6.962  0.4912  2.4320  1.6740
  854TIP3   OH224196   2.353   3.699   7.391 -0.0332 -0.6335 -0.2353
  854TIP3    H124197   2.330   3.670   7.303 -2.6796 -2.5158  0.9709
  854TIP3    H224198   2.391   3.622   7.433 -0.6716 -0.3502  0.8978
  855TIP3   OH224199   0.190   3.088   2.475 -0.0221 -0.3245  0.0712
  855TIP3    H124200   0.219   3.132   2.555  1.1740 -0.9895  0.0208
  855TIP3    H224201   0.129   3.150   2.435  1.0667  0.9972  0.3658
  856TIP3   OH224202   3.538   2.971   0.812 -0.5350 -0.7868  0.6167
  856TIP3    H124203   3.487   3.020   0.747 -0.6047 -2.9059 -1.0378
  856TIP3    H224204   3.473   2.928   0.867 -0.4745 -0.1082  1.2380
  857TIP3   OH224205   2.864   1.747   8.336 -0.6143  0.0718 -0.0128
  857TIP3    H124206   2.834   1.719   8.422 -1.2554  0.1373 -0.2074
  857TIP3    H224207   2.821   1.831   8.321 -0.0864  0.3210 -0.1746
  858TIP3   OH224208   4.146   0.456   1.178  0.1098  0.3240  0.1574
  858TIP3    H124209   4.158   0.501   1.262 -1.9811  1.7306 -0.2241
  858TIP3    H224210   4.066   0.493   1.142  1.0993 -0.0271 -2.6328
  859TIP3   OH224211   4.194   2.160   8.496 -1.0761 -0.1997  0.0372
  859TIP3    H124212   4.111   2.208   8.505 -1.7424 -0.6516 -2.7143
  859TIP3    H224213   4.168   2.068   8.491 -0.4478 -0.3352 -0.9484
  860TIP3   OH224214   5.618   6.525   1.218 -0.1516  0.5161  0.0110
  860TIP3    H124215   5.533   6.505   1.178 -0.1752  0.2210  0.2123
  860TIP3    H224216   5.597   6.585   1.290 -0.1357  0.8476 -0.2603
  861TIP3   OH224217   2.190   5.748   1.127  0.1918  0.4205  0.6984
  861TIP3    H124218   2.149   5.705   1.202  0.8389 -0.1458  0.7345
  861TIP3    H224219   2.220   5.676   1.072 -0.0640  0.8294  0.0017
  862TIP3   OH224220   2.501   0.129   1.504 -0.2795  0.0484 -0.3415
  862TIP3    H124221   2.526   0.104   1.415  1.3941 -0.4179  0.2175
  862TIP3    H224222   2.536   0.059   1.559 -0.4205  0.8206  0.7645
  863TIP3   OH224223   2.587   5.219   7.415 -0.2196  0.0218  0.7825
  863TIP3    H124224   2.654   5.274   7.374  2.1565 -0.2346  3.9451
  863TIP3    H224225   2.603   5.132   7.379  1.9818 -0.2530  2.2329
  864TIP3   OH224226   2.104   1.039   8.526 -0.4336 -0.3114  0.4238
  864TIP3    H124227   2.044   1.026   8.600  0.0356  0.1923  0.9052
  864TIP3    H224228   2.144   1.124   8.544  2.0705 -1.5874  1.2799
  865TIP3   OH224229   4.643   0.886   7.486 -0.4343 -0.4197 -0.0981
  865TIP3    H124230   4.661   0.858   7.397 -1.1863  0.0467 -0.4055
  865TIP3    H224231   4.727   0.918   7.519  0.2676 -2.2023 -0.0142
  866TIP3   OH224232   2.144   1.328   0.345  0.3023 -0.0341  0.2593
  866TIP3    H124233   2.230   1.306   0.380  1.4518  0.4775 -2.0464
  866TIP3    H224234   2.132   1.267   0.271 -1.4962 -0.3492  0.7647
  867TIP3   OH224235   3.206   4.491   1.838 -0.9360  0.1982 -0.6711
  867TIP3    H124236   3.213   4.555   1.908 -0.3027  0.6626 -1.1511
  867TIP3    H224237   3.114   4.496   1.810 -0.4270  2.5664 -2.2237
  868TIP3   OH224238   4.848   3.604   6.785 -0.2523 -0.0342  0.0969
  868TIP3    H124239   4.872   3.511   6.777  0.7777  0.3010 -1.0972
  868TIP3    H224240   4.788   3.607   6.860 -2.0357 -1.9789 -1.1255
  869TIP3   OH224241   5.850   3.067   1.173 -0.0259 -0.0198 -0.0477
  869TIP3    H124242   5.875   2.997   1.113 -2.6696  0.0900 -1.4133
  869TIP3    H224243   5.791   3.123   1.122  0.4997  2.1663  1.5855
  870TIP3   OH224244   3.545   5.780   1.991  0.0111  0.0947  0.3035
  870TIP3    H124245   3.572   5.842   1.923 -1.7913  0.8209  0.1969
  870TIP3    H224246   3.584   5.815   2.072  1.1635 -0.1057 -0.1462
  871TIP3   OH224247   2.296   2.526   7.715  0.1738  0.0946 -0.1814
  871TIP3    H124248   2.250   2.481   7.787  0.5757 -0.5232 -0.3063
  871TIP3    H224249   2.364   2.465   7.688 -0.8050 -0.2452 -1.9899
  872TIP3   OH224250   4.545   2.304   7.554  0.8277  0.3677 -0.0282
  872TIP3    H124251   4.547   2.214   7.521 -0.3002 -0.2160  1.3492
  872TIP3    H224252   4.622   2.310   7.611  0.4421 -0.0347  0.5528
  873TIP3   OH224253   2.474   6.613   0.394 -0.5348  0.2248 -0.3004
  873TIP3    H124254   2.474   6.537   0.336  1.1930  0.8248 -1.1664
  873TIP3    H224255   2.493   6.687   0.336  2.5326  0.7067  1.1171
  874TIP3   OH224256   3.972   6.270   0.915 -0.3379 -0.1911  0.2457
  874TIP3    H124257   3.990   6.204   0.848  0.7670 -2.7236  2.8184
  874TIP3    H224258   3.970   6.353   0.867 -0.5183 -1.8932 -2.9947
  875TIP3   OH224259   4.366   3.849   8.820  0.1102 -0.9229 -0.0954
  875TIP3    H124260   4.460   3.835   8.828 -0.0459 -1.3528  1.4524
  875TIP3    H224261   4.337   3.785   8.754  1.0005 -0.2054 -1.2023
  876TIP3   OH224262   0.100   2.331   0.167 -0.0044 -0.5329  0.4526
  876TIP3    H124263   0.075   2.397   0.102  1.1751 -0.4668  0.0387
  876TIP3    H224264   0.134   2.258   0.115  0.8358 -0.5290  0.9711
  877TIP3   OH224265   4.049   3.244   1.270 -0.1914  0.0692 -0.3222
  877TIP3    H124266   3.963   3.252   1.312 -0.2391 -0.3708 -0.3357
  877TIP3    H224267   4.077   3.155   1.289  0.8466  0.6023  0.8151
  878TIP3   OH224268   6.434   0.041   2.587  0.0198 -0.2272  0.2356
  878TIP3    H124269   6.451  -0.013   2.511  1.9493  0.9526 -0.2230
  878TIP3    H224270   6.386   0.116   2.553 -0.4617 -0.4281  0.4575
  879TIP3   OH224271   5.245   4.654   0.590  0.1184 -0.0734 -0.0716
  879TIP3    H124272   5.280   4.574   0.629 -1.3114 -0.4949  0.3934
  879TIP3    H224273   5.308   4.677   0.522  1.3124 -0.7720  0.7660
  880TIP3   OH224274   5.240   2.475   1.512 -0.5127  0.2100  0.0286
  880TIP3    H124275   5.231   2.547   1.449 -3.6153  0.9222  1.1273
  880TIP3    H224276   5.221   2.515   1.597 -1.0196 -1.6676  0.8343
  881TIP3   OH224277   5.671   6.666   2.293 -0.2172  0.2769 -0.2594
  881TIP3    H124278   5.665   6.648   2.199  0.3643 -0.2149 -0.2141
  881TIP3    H224279   5.581   6.684   2.320 -0.2301  1.6814 -1.1436
  882TIP3   OH224280   4.550   3.958   1.592 -0.1377  0.2690 -0.6099
  882TIP3    H124281   4.583   3.938   1.680  0.9421 -1.7647 -1.3998
  882TIP3    H224282   4.486   4.028   1.605 -0.0869 -0.0599  1.7937
  883TIP3   OH224283   4.284   3.107   0.115 -0.0913 -0.2670  0.2252
  883TIP3    H124284   4.305   3.056   0.193  2.0539 -0.8022 -0.6184
  883TIP3    H224285   4.368   3.117   0.070 -1.1109  0.7990 -1.5477
  884TIP3   OH224286   0.774   4.590   1.064 -0.0192 -0.7213  0.2252
  884TIP3    H124287   0.847   4.547   1.109  0.6410  1.3232  1.1984
  884TIP3    H224288   0.784   4.563   0.972  1.8976 -0.6017  0.3547
  885TIP3   OH224289   1.157   5.967   2.673  0.4539 -0.0936  0.9078
  885TIP3    H124290   1.066   5.937   2.674  0.3162  0.0441 -1.5672
  885TIP3    H224291   1.156   6.047   2.622  2.2712 -1.5075 -1.6157
  886TIP3   OH224292   4.537   1.290   8.437 -0.5000 -0.4242 -0.2411
  886TIP3    H124293   4.628   1.322   8.431  0.1539 -1.7640  1.6143
  886TIP3    H224294   4.525   1.237   8.359 -0.6714  1.9546 -1.9424
  887TIP3   OH224295   5.328   3.261   7.777  0.3891  0.2777 -0.2905
  887TIP3    H124296   5.410   3.227   7.742  1.1744  0.5930  1.1438
  887TIP3    H224297   5.279   3.183   7.804  1.3240  0.1391  1.1411
  888TIP3   OH224298   3.455   3.421   0.386  0.1774  0.2273  0.9480
  888TIP3    H124299   3.450   3.515   0.403  2.3324  0.9040 -1.4713
  888TIP3    H224300   3.523   3.389   0.446 -1.1251 -0.0142  2.3512
  889TIP3   OH224301   5.713   3.595   0.619 -0.2896  0.1320 -0.3831
  889TIP3    H124302   5.804   3.583   0.593  0.0040 -0.2288  0.7257
  889TIP3    H224303   5.669   3.515   0.590  0.2524 -0.7469  1.0559
  890TIP3   OH224304   4.756   6.398   7.777  0.0354  0.9069 -0.4813
  890TIP3    H124305   4.666   6.376   7.802  0.2962  1.8790  1.5548
  890TIP3    H224306   4.809   6.370   7.852  1.3313  1.1461 -1.2761
  891TIP3   OH224307   0.439   1.904   0.700  0.1993 -0.3409  0.1919
  891TIP3    H124308   0.470   1.822   0.738 -0.3240 -1.2706 -1.2999
  891TIP3    H224309   0.465   1.899   0.608  0.5868  1.3961  0.1751
  892TIP3   OH224310   0.013   5.097   1.112  0.0467 -0.2540 -0.1273
  892TIP3    H124311   0.016   5.061   1.200 -1.2634 -1.8304 -0.6833
  892TIP3    H224312  -0.036   5.179   1.121  0.8520  0.1392  0.7603
  893TIP3   OH224313   2.144   1.934   0.380 -0.1311 -0.6706  0.0168
  893TIP3    H124314   2.059   1.935   0.424 -0.1981 -0.0790 -0.1123
  893TIP3    H224315   2.184   1.852   0.407  0.0731 -0.0686  1.6392
  894TIP3   OH224316   2.611   2.995   7.642 -0.0142 -0.3564  0.1503
  894TIP3    H124317   2.539   2.953   7.689 -0.4484  1.2479  0.9858
  894TIP3    H224318   2.680   2.928   7.638 -0.3641 -0.8867  2.1611
  895TIP3   OH224319   5.117   6.105   2.140  0.1925 -0.2287  0.0488
  895TIP3    H124320   5.077   6.152   2.214 -1.4972  0.7699 -1.4235
  895TIP3    H224321   5.115   6.013   2.166 -0.4188  0.0997  1.2368
  896TIP3   OH224322   3.751   5.369   1.503  0.6459 -0.1059 -0.0376
  896TIP3    H124323   3.686   5.370   1.573  1.4974  1.8735  0.7832
  896TIP3    H224324   3.718   5.434   1.440  0.5079 -1.0009 -0.9075
  897TIP3   OH224325   5.609   6.704   0.199  0.1368 -0.5838 -0.5864
  897TIP3    H124326   5.544   6.711   0.128 -1.9188  2.0544  1.3775
  897TIP3    H224327   5.596   6.615   0.233 -1.5960 -0.5609 -1.0581
  898TIP3   OH224328   5.910   6.731   2.377  0.4791  0.0195 -0.1517
  898TIP3    H124329   5.962   6.736   2.296  3.6587 -0.9406  1.6482
  898TIP3    H224330   5.830   6.686   2.351  2.0637 -1.7200 -2.5034
  899TIP3   OH224331   4.400   5.336   0.976 -0.7768  0.4857 -0.1863
  899TIP3    H124332   4.479   5.384   0.998 -0.5370 -0.4835  1.2047
  899TIP3    H224333   4.328   5.396   0.998 -0.5034  0.0082  2.2133
  900TIP3   OH224334   2.912   0.456   6.660 -0.4719 -0.5686 -0.0513
  900TIP3    H124335   2.984   0.473   6.721 -0.4565  1.5384 -0.5625
  900TIP3    H224336   2.953   0.420   6.582  0.0144  0.3133 -0.2150
  901TIP3   OH224337   5.773   1.392   2.599  0.0605 -1.2591  0.0328
  901TIP3    H124338   5.740   1.434   2.678  0.9707  0.4983 -0.4598
  901TIP3    H224339   5.698   1.346   2.562 -1.6229  1.7769 -0.5577
  902TIP3   OH224340   3.414   2.075   7.546  0.0950 -0.4942 -0.3018
  902TIP3    H124341   3.454   2.153   7.508  2.5444 -1.8033 -0.6036
  902TIP3    H224342   3.342   2.054   7.486  0.5527  0.4867 -1.2356
  903TIP3   OH224343   6.048   3.856   7.152  0.2079  0.2271 -0.0332
  903TIP3    H124344   6.087   3.817   7.230  0.8199 -0.8559 -0.8519
  903TIP3    H224345   6.040   3.783   7.090 -2.0208  0.6574 -0.3373
  904TIP3   OH224346   5.951   1.766   7.589  0.1249  0.2531 -0.2713
  904TIP3    H124347   5.940   1.704   7.517  0.5423  0.4253 -0.4832
  904TIP3    H224348   5.885   1.834   7.572 -1.0871 -0.6766  0.5559
  905TIP3   OH224349   1.901   6.074   2.399  0.2517  0.0356  0.1702
  905TIP3    H124350   1.841   6.130   2.449  0.2873  1.0821 -0.8940
  905TIP3    H224351   1.982   6.125   2.394  0.5137 -0.4128 -0.2528
  906TIP3   OH224352   3.360   3.895   0.025 -0.4071 -0.4467 -0.2205
  906TIP3    H124353   3.366   3.806   0.060  1.6926  0.1060  0.9993
  906TIP3    H224354   3.412   3.892  -0.055  1.0976  0.0071  0.6873
  907TIP3   OH224355   4.143   0.154   0.922  1.2762 -0.1664 -0.1884
  907TIP3    H124356   4.208   0.224   0.910  1.4749 -0.4420 -0.7368
  907TIP3    H224357   4.141   0.140   1.016  1.9149 -0.0571 -0.1525
  908TIP3   OH224358   2.374   6.176   2.902 -0.1159 -0.1321 -0.1119
  908TIP3    H124359   2.319   6.250   2.930  0.0858 -0.4124  1.0609
  908TIP3    H224360   2.367   6.176   2.807 -2.7702 -0.6070  0.0088
  909TIP3   OH224361   3.179   4.999   8.234 -0.1136  0.0114  0.0345
  909TIP3    H124362   3.131   5.050   8.169  1.8356  0.1233 -1.4116
  909TIP3    H224363   3.228   4.935   8.183  2.3504  0.8120  1.2496
  910TIP3   OH224364   5.324   2.782   7.698 -0.0567  0.1840 -0.1403
  910TIP3    H124365   5.352   2.861   7.652 -1.2307 -0.1315 -1.4662
  910TIP3    H224366   5.399   2.723   7.693  0.1463  0.4994 -0.8602
  911TIP3   OH224367   3.973   3.121   0.244 -0.0091  0.2070  0.1842
  911TIP3    H124368   4.034   3.070   0.297 -0.3052  0.7322  1.0461
  911TIP3    H224369   3.980   3.210   0.278 -0.7325  0.4115 -0.1813
  912TIP3   OH224370   6.005   2.667   1.293  0.4790 -0.4546 -0.4047
  912TIP3    H124371   5.990   2.650   1.386  0.8954  2.0290  0.1834
  912TIP3    H224372   5.930   2.720   1.266  3.0720  3.9395  0.1492
  913TIP3   OH224373   5.792   0.720   2.254  0.8027 -0.9821 -0.7268
  913TIP3    H124374   5.739   0.657   2.302  2.2367 -0.1335  2.1980
  913TIP3    H224375   5.875   0.675   2.239  1.3891 -0.2855  0.2734
  914TIP3   OH224376   1.452   4.038   0.750 -0.0951  0.3697  0.1260
  914TIP3    H124377   1.481   3.985   0.825 -0.2949  1.4657  1.0086
  914TIP3    H224378   1.379   4.089   0.784 -0.6853  0.3294 -1.0533
  915TIP3   OH224379   4.399   3.419   2.380  0.6717  0.3319 -0.5226
  915TIP3    H124380   4.339   3.345   2.365  0.1007  0.7354 -0.2795
  915TIP3    H224381   4.341   3.493   2.399  1.2759  0.4396  1.0405
  916TIP3   OH224382   3.887   5.204   1.165 -0.4889 -0.2828 -0.8140
  916TIP3    H124383   3.945   5.243   1.229 -0.1486  0.0349 -1.3099
  916TIP3    H224384   3.945   5.161   1.102 -0.8281 -0.9187 -0.7057
  917TIP3   OH224385   6.266   3.775   0.171 -0.1803  0.3296 -0.0897
  917TIP3    H124386   6.360   3.787   0.155  0.3243  0.8941  2.7590
  917TIP3    H224387   6.260   3.689   0.213 -0.5666  1.2976  1.9430
  918TIP3   OH224388   3.375   4.592   0.615  0.1352  0.3238 -0.0622
  918TIP3    H124389   3.353   4.499   0.628  1.5068 -0.0529 -0.2800
  918TIP3    H224390   3.326   4.617   0.537 -0.2773 -0.2098  0.0148
  919TIP3   OH224391   4.795   3.615   0.892 -0.2506 -0.1266 -0.3132
  919TIP3    H124392   4.832   3.560   0.961  0.9447 -0.7004 -1.3666
  919TIP3    H224393   4.862   3.682   0.876 -0.8513  0.4698 -0.3959
  920TIP3   OH224394   4.822   5.486   0.156 -0.4031 -0.3455 -0.0262
  920TIP3    H124395   4.810   5.577   0.180 -2.2131 -0.8065  0.9632
  920TIP3    H224396   4.770   5.437   0.219 -1.5359 -1.9101 -2.0549
  921TIP3   OH224397   3.815   4.187   2.359 -0.2021 -0.3126 -0.3480
  921TIP3    H124398   3.877   4.116   2.347  1.6712  1.1994 -0.1739
  921TIP3    H224399   3.773   4.168   2.443 -1.5671 -2.4371 -1.4227
  922TIP3   OH224400   1.984   2.332   8.006 -0.1533  0.2826  0.1091
  922TIP3    H124401   1.894   2.360   7.992  0.3047  1.1372 -1.3658
  922TIP3    H224402   1.995   2.258   7.946  0.4294  0.8794 -0.5390
  923TIP3   OH224403   0.071   5.603   8.433 -0.2442  0.3259  0.0226
  923TIP3    H124404   0.120   5.616   8.514 -0.2945  0.2346  0.0682
  923TIP3    H224405   0.054   5.509   8.430  0.3809  0.2231 -0.4612
  924TIP3   OH224406   6.716   3.806   2.486 -0.1732 -0.7081 -0.0694
  924TIP3    H124407   6.755   3.825   2.400 -0.2847  1.1258  0.2350
  924TIP3    H224408   6.773   3.852   2.548 -1.0144 -0.6488  0.6806
  925TIP3   OH224409   6.810   0.325   1.509 -0.0236  0.1602  0.2318
  925TIP3    H124410   6.786   0.258   1.445  2.1573  0.9873 -1.5330
  925TIP3    H224411   6.862   0.278   1.575 -1.3993 -0.4827  0.9102
  926TIP3   OH224412   4.232   5.948   7.294 -0.4599 -0.2957  0.5463
  926TIP3    H124413   4.300   5.987   7.349  0.6429 -1.4061  0.0130
  926TIP3    H224414   4.280   5.909   7.220 -1.7878 -0.0371 -0.4789
  927TIP3   OH224415   1.270   0.804   8.144 -0.0323 -0.4775  0.1363
  927TIP3    H124416   1.286   0.874   8.208  1.0157 -0.9838  0.4442
  927TIP3    H224417   1.198   0.838   8.090 -1.6105 -0.4241  2.1433
  928TIP3   OH224418   0.345   0.921   1.375  0.1952  0.5807 -0.6264
  928TIP3    H124419   0.392   0.992   1.330 -1.0800  1.2016 -1.0247
  928TIP3    H224420   0.311   0.962   1.454 -0.9638  0.5697 -1.0987
  929TIP3   OH224421   0.483   5.205   1.123 -0.1562 -0.1681 -0.7646
  929TIP3    H124422   0.561   5.261   1.121 -1.2473  1.4457  0.1080
  929TIP3    H224423   0.490   5.157   1.205  0.4045 -0.7698 -1.1570
  930TIP3   OH224424   2.223   2.414   0.607  0.8254 -0.7805 -0.3563
  930TIP3    H124425   2.134   2.438   0.631 -0.0004 -2.7879 -1.2242
  930TIP3    H224426   2.244   2.470   0.532  0.5370  0.0968  0.2008
  931TIP3   OH224427   1.777   5.426   8.558  0.0675  0.0262 -0.7078
  931TIP3    H124428   1.819   5.497   8.607 -0.8624  0.7835 -0.9857
  931TIP3    H224429   1.755   5.465   8.474 -2.5345  0.1182 -0.0620
  932TIP3   OH224430   6.729   3.993   7.472 -0.0143 -0.2774  0.8820
  932TIP3    H124431   6.697   4.035   7.393  1.2288  0.8786  0.9546
  932TIP3    H224432   6.728   4.062   7.539  2.4041 -0.1796  0.9216
  933TIP3   OH224433   2.739   2.611   1.971 -0.2234 -0.0442  0.3235
  933TIP3    H124434   2.793   2.532   1.969 -1.9934 -1.3145 -1.2972
  933TIP3    H224435   2.785   2.672   1.913 -0.8117 -1.3657 -1.6397
  934TIP3   OH224436   4.067   4.146   6.819  0.4851 -0.2656 -0.4064
  934TIP3    H124437   4.138   4.202   6.789  0.5864 -0.6280 -0.8428
  934TIP3    H224438   4.050   4.087   6.746 -1.0459  0.5697 -0.7757
  935TIP3   OH224439   3.267   1.451   1.725  0.0307 -0.0909  0.4600
  935TIP3    H124440   3.338   1.495   1.678  1.0354 -1.7777  0.3166
  935TIP3    H224441   3.311   1.403   1.796 -0.7763 -2.1153 -0.3246
  936TIP3   OH224442   5.616   1.621   7.411  0.0615  0.3522  0.2091
  936TIP3    H124443   5.646   1.711   7.417  0.0946  0.5506 -2.1742
  936TIP3    H224444   5.696   1.570   7.399  0.0872 -0.0965  1.9929
  937TIP3   OH224445   5.582   3.545   7.944 -0.0240 -0.1359  0.0420
  937TIP3    H124446   5.639   3.491   7.999  0.2495  2.0332  2.0763
  937TIP3    H224447   5.519   3.483   7.907  0.8664 -1.9762  1.4322
  938TIP3   OH224448   1.390   3.393   8.253 -0.1702  0.7164  0.2104
  938TIP3    H124449   1.398   3.468   8.311 -1.9427  0.7623  0.4661
  938TIP3    H224450   1.298   3.395   8.224  0.6102  0.6914 -2.5920
  939TIP3   OH224451   5.983   6.375   1.057 -0.0629 -0.2412  0.1436
  939TIP3    H124452   6.036   6.444   1.098 -1.9178  0.9746  0.6399
  939TIP3    H224453   5.978   6.306   1.123  2.1091 -1.0899 -0.4924
  940TIP3   OH224454   1.073   1.201   8.603 -0.8271 -0.0180  0.2245
  940TIP3    H124455   1.122   1.195   8.685 -2.5839  1.7561  1.4988
  940TIP3    H224456   1.040   1.291   8.602 -1.2900 -0.1684 -2.1935
  941TIP3   OH224457   5.116   1.297   1.852  0.3974 -0.1789 -0.2563
  941TIP3    H124458   5.186   1.312   1.917 -0.3731 -0.3022  0.6229
  941TIP3    H224459   5.095   1.205   1.861  0.0794 -0.1261 -0.4697
  942TIP3   OH224460   5.987   2.467   1.103  0.8459 -0.6116 -0.2008
  942TIP3    H124461   5.936   2.387   1.116  0.4776 -0.6451 -1.6501
  942TIP3    H224462   6.001   2.502   1.191  2.4476 -3.1396  0.6783
  943TIP3   OH224463   6.534   0.189   3.171  0.2498 -0.2022  0.5967
  943TIP3    H124464   6.573   0.221   3.090 -0.6956  0.6354  0.4572
  943TIP3    H224465   6.540   0.093   3.164 -1.5072 -0.2437 -1.3636
  944TIP3   OH224466   0.414   0.091   7.823 -0.3400 -0.4543  0.4028
  944TIP3    H124467   0.388   0.002   7.797 -0.4291 -0.3091 -0.0127
  944TIP3    H224468   0.412   0.141   7.741  0.8640 -0.3414  0.4261
  945TIP3   OH224469   1.316   4.455   7.764  0.7566  0.0950 -0.2646
  945TIP3    H124470   1.274   4.446   7.849 -2.1901  2.8868 -1.2159
  945TIP3    H224471   1.382   4.523   7.778 -0.9977  1.9440 -0.4583
  946TIP3   OH224472   0.209   2.603   1.129 -0.6418 -0.2886 -0.4556
  946TIP3    H124473   0.205   2.583   1.035  1.8225 -2.5448 -0.1763
  946TIP3    H224474   0.151   2.538   1.169  0.2769 -0.9711 -0.2291
  947TIP3   OH224475   6.694   5.399   7.093  0.1080 -0.2682  0.0673
  947TIP3    H124476   6.613   5.447   7.073 -0.6552 -1.5513 -0.0920
  947TIP3    H224477   6.684   5.374   7.185  0.2320 -0.5902 -0.0062
  948TIP3   OH224478   6.303   5.847   0.131  0.3824 -0.3299  0.1382
  948TIP3    H124479   6.394   5.827   0.110  0.8540  0.3401  1.3843
  948TIP3    H224480   6.260   5.761   0.137  0.1543 -0.5872 -3.3798
  949TIP3   OH224481   2.659   6.430   8.076 -0.4295 -0.1652 -0.4936
  949TIP3    H124482   2.731   6.483   8.043 -0.5047  0.9381  0.9978
  949TIP3    H224483   2.668   6.346   8.031  2.6441 -0.5683  0.6111
  950TIP3   OH224484   4.329   0.343   7.214 -0.4742 -0.7006  0.2970
  950TIP3    H124485   4.319   0.350   7.119  0.7845 -1.1149  0.1270
  950TIP3    H224486   4.242   0.316   7.244 -0.9014 -0.5411 -0.7265
  951TIP3   OH224487   2.792   5.207   1.597 -0.2652  0.0998  0.4794
  951TIP3    H124488   2.861   5.215   1.532  0.8175 -2.0459  1.2694
  951TIP3    H224489   2.810   5.276   1.660 -0.2546  1.0423 -0.5316
  952TIP3   OH224490   5.031   5.764   2.511  0.1635 -0.3069  0.4614
  952TIP3    H124491   5.045   5.686   2.457 -0.1351 -0.1826  0.2055
  952TIP3    H224492   4.944   5.795   2.486  0.0469 -0.2168  0.9721
  953TIP3   OH224493   5.149   3.716   8.808  0.0664 -0.0260 -0.4364
  953TIP3    H124494   5.196   3.799   8.798  0.4259 -0.0194  0.9772
  953TIP3    H224495   5.132   3.711   8.902 -0.9125 -1.0451 -0.6548
  954TIP3   OH224496   2.213   4.785   1.385 -0.0126  0.5430 -0.0869
  954TIP3    H124497   2.297   4.830   1.378 -0.5553  1.4779 -0.8434
  954TIP3    H224498   2.148   4.855   1.383 -0.7794 -0.0558  2.1246
  955TIP3   OH224499   4.017   4.060   1.964 -0.2928  0.4077  0.0205
  955TIP3    H124500   3.933   4.015   1.969 -0.3633  0.6294  0.9312
  955TIP3    H224501   4.022   4.112   2.044  0.6568  0.4883 -0.0779
  956TIP3   OH224502   3.453   0.879   7.561 -0.0203 -0.1967  0.0356
  956TIP3    H124503   3.476   0.972   7.567 -0.6581  0.0433 -1.0993
  956TIP3    H224504   3.490   0.851   7.478 -0.3631 -0.8103  0.0865
  957TIP3   OH224505   2.926   3.502   0.094  0.1246  0.3861 -0.2213
  957TIP3    H124506   2.989   3.573   0.081  0.6972 -0.2959 -1.4904
  957TIP3    H224507   2.980   3.423   0.094 -0.3832 -0.0277  2.1350
  958TIP3   OH224508   5.071   1.579   0.216  0.0857 -0.7346 -0.0629
  958TIP3    H124509   5.030   1.633   0.149 -0.6402 -1.3701 -0.1369
  958TIP3    H224510   5.126   1.518   0.168  0.1922 -0.6657 -0.0298
  959TIP3   OH224511   4.142   5.422   7.012  0.4835  0.0188  0.4941
  959TIP3    H124512   4.063   5.368   7.013 -0.0990  0.8377  2.2732
  959TIP3    H224513   4.205   5.373   7.065  0.9720 -0.3013 -0.3550
  960TIP3   OH224514   5.126   1.193   7.698 -0.0401  0.9390 -0.2481
  960TIP3    H124515   5.043   1.169   7.741  2.9396 -1.9790  4.9531
  960TIP3    H224516   5.148   1.278   7.735 -0.0326  0.9979 -0.3906
  961TIP3   OH224517   4.440   0.917   0.035 -0.6736  0.2308  0.5982
  961TIP3    H124518   4.474   0.983  -0.027 -0.7331  0.7803  1.1438
  961TIP3    H224519   4.473   0.946   0.120 -0.1970 -0.7844  0.7701
  962TIP3   OH224520   3.662   6.437   2.104  0.9293  0.2917  0.1322
  962TIP3    H124521   3.643   6.528   2.078  3.6927  0.9395  0.0616
  962TIP3    H224522   3.614   6.426   2.186 -1.0376  1.1146 -0.8406
  963TIP3   OH224523   1.424   5.981   7.863  0.1991 -0.2907 -0.2110
  963TIP3    H124524   1.448   6.064   7.820 -0.1421 -0.5609 -0.9453
  963TIP3    H224525   1.456   5.914   7.802 -1.4755 -0.6783 -0.7179
  964TIP3   OH224526   6.064   3.684   8.604 -0.1312 -0.0916  0.3470
  964TIP3    H124527   6.070   3.776   8.578  1.5505 -0.7453 -1.9815
  964TIP3    H224528   6.051   3.687   8.699 -3.6020  2.5151  0.0105
  965TIP3   OH224529   3.605   0.841   0.366  0.3509  0.1982  0.2685
  965TIP3    H124530   3.584   0.750   0.387  0.9163 -0.0933 -0.3648
  965TIP3    H224531   3.552   0.860   0.288  0.0953  0.4731  0.5077
  966TIP3   OH224532   1.014   3.846   2.598  0.3853 -0.1415  0.1087
  966TIP3    H124533   1.108   3.859   2.604  0.1916  1.7942 -0.1599
  966TIP3    H224534   0.982   3.924   2.552 -1.4157 -0.4205  0.7824
  967TIP3   OH224535   3.382   1.318   0.689 -1.0417  0.1630  0.0297
  967TIP3    H124536   3.328   1.318   0.768  2.2000 -0.5385  2.4377
  967TIP3    H224537   3.400   1.226   0.671  2.4656  0.3470  1.7826
  968TIP3   OH224538   0.301   2.013   3.119  0.5194  0.3378  0.4186
  968TIP3    H124539   0.295   2.100   3.079  1.6160 -0.0941 -0.7762
  968TIP3    H224540   0.394   2.001   3.135  0.8459 -1.7784 -2.2957
  969TIP3   OH224541   6.106   3.313   0.461 -0.5347 -0.5549 -0.2551
  969TIP3    H124542   6.018   3.280   0.442 -1.2393  0.2600  1.4317
  969TIP3    H224543   6.111   3.316   0.556  0.3093  1.9481 -0.2944
  970TIP3   OH224544   1.321   2.741   0.961  0.0386 -0.1639  0.5900
  970TIP3    H124545   1.373   2.729   0.881 -0.2247  0.8388  0.2575
  970TIP3    H224546   1.352   2.672   1.020  0.9682 -0.2772 -0.0048
  971TIP3   OH224547   0.426   4.247   0.559 -0.2466 -0.2901 -0.6034
  971TIP3    H124548   0.365   4.178   0.532  0.1096 -0.5628 -0.7108
  971TIP3    H224549   0.472   4.210   0.634 -0.8928  0.2791  0.0984
  972TIP3   OH224550   6.625   5.714   6.779  0.1217  0.6081 -0.2055
  972TIP3    H124551   6.546   5.699   6.832  0.9490 -1.1971  0.5797
  972TIP3    H224552   6.599   5.783   6.718 -1.6381  1.0279  0.9263
  973TIP3   OH224553   4.358   2.881   8.630 -0.0271  0.6273  0.5376
  973TIP3    H124554   4.386   2.964   8.669 -2.7404  1.7988  0.2510
  973TIP3    H224555   4.346   2.902   8.537  0.6245 -0.4881  0.1932
  974TIP3   OH224556   0.371   1.599   7.633 -0.1919  0.1704  0.6725
  974TIP3    H124557   0.418   1.662   7.579 -3.0778  0.0041 -2.3635
  974TIP3    H224558   0.395   1.514   7.598 -0.4793 -0.0707  1.0505
  975TIP3   OH224559   2.133   5.649   1.392  0.8099  0.1734  0.0552
  975TIP3    H124560   2.146   5.594   1.469 -1.1591  0.2204  0.4698
  975TIP3    H224561   2.106   5.734   1.426  0.3082  0.3131 -0.6527
  976TIP3   OH224562   1.956   5.638   7.830  0.4442 -0.1544 -0.1535
  976TIP3    H124563   2.022   5.568   7.821 -0.6030 -1.3134  0.7626
  976TIP3    H224564   1.889   5.600   7.887  0.4114  2.0506  1.3876
  977TIP3   OH224565   0.337   4.792   0.727 -0.1121 -0.7621 -0.3325
  977TIP3    H124566   0.291   4.816   0.807 -1.2102 -0.9719 -0.8829
  977TIP3    H224567   0.284   4.722   0.688  0.8565 -1.2504 -0.8166
  978TIP3   OH224568   2.405   3.285   8.309 -0.0983 -0.1649 -0.4513
  978TIP3    H124569   2.370   3.288   8.398 -2.0912  2.1348 -1.1944
  978TIP3    H224570   2.477   3.347   8.309  0.3940 -0.7297 -0.2773
  979TIP3   OH224571   5.750   1.459   2.854 -0.2088 -0.1751 -0.0899
  979TIP3    H124572   5.802   1.387   2.890 -1.8216 -1.2282  0.2537
  979TIP3    H224573   5.695   1.487   2.927 -0.1177  0.9394 -0.4308
  980TIP3   OH224574   5.554   5.009   0.752  0.1439 -0.6990  0.3727
  980TIP3    H124575   5.459   4.998   0.745 -0.0069  0.1234  1.0684
  980TIP3    H224576   5.568   5.102   0.736  0.8741 -0.8831 -0.0774
  981TIP3   OH224577   0.128   3.368   0.585  0.1716  0.0073 -0.0858
  981TIP3    H124578   0.163   3.440   0.532  1.2090 -0.4895 -0.1065
  981TIP3    H224579   0.034   3.382   0.586  0.1537  0.2357 -1.7775
  982TIP3   OH224580   1.941   1.793   7.428  0.0072 -0.5035 -0.3900
  982TIP3    H124581   1.865   1.786   7.371 -0.2834  1.1756 -0.2434
  982TIP3    H224582   1.994   1.863   7.391  0.2996 -0.0455  0.8201
  983TIP3   OH224583   4.583   6.098   0.016 -0.2187  0.4659  0.5365
  983TIP3    H124584   4.490   6.083   0.002  0.1634 -0.9946 -0.6664
  983TIP3    H224585   4.613   6.144  -0.063  0.6733 -2.0408 -0.7116
  984TIP3   OH224586   3.939   2.572   6.904  0.3308 -0.1589 -0.1306
  984TIP3    H124587   4.011   2.566   6.841  1.5504  0.4465  1.1556
  984TIP3    H224588   3.930   2.483   6.939 -1.2097 -0.8167 -1.9900
  985TIP3   OH224589   6.781   1.601   0.824 -0.5011 -0.1503 -0.0277
  985TIP3    H124590   6.759   1.528   0.883 -0.1152  0.3130  0.6965
  985TIP3    H224591   6.805   1.673   0.883 -2.0655  0.9668 -0.6853
  986TIP3   OH224592   1.927   0.998   3.050  0.0275  0.3184 -0.0399
  986TIP3    H124593   1.996   0.999   2.984 -0.3507  3.3544 -0.5146
  986TIP3    H224594   1.973   0.975   3.131  1.2228  0.3734 -0.6780
  987TIP3   OH224595   3.521   6.496   8.217  0.3935 -0.2001  0.3166
  987TIP3    H124596   3.444   6.552   8.222  0.9834  1.0678 -2.7275
  987TIP3    H224597   3.589   6.552   8.181  1.3269 -2.5517 -1.8623
  988TIP3   OH224598   4.144   1.669   1.556 -0.2420 -0.0139  0.0606
  988TIP3    H124599   4.206   1.719   1.501 -2.2122  1.2725 -1.1190
  988TIP3    H224600   4.181   1.581   1.559 -0.2663 -0.3748 -3.9846
  989TIP3   OH224601   5.443   3.792   8.563 -0.5266 -0.9287 -0.0945
  989TIP3    H124602   5.537   3.785   8.581 -0.3467 -1.3392 -1.0992
  989TIP3    H224603   5.429   3.734   8.488 -0.3807  3.6472 -4.1581
  990TIP3   OH224604   3.689   6.219   0.992 -0.4893 -0.2720 -0.5096
  990TIP3    H124605   3.760   6.259   0.942 -0.8365  1.7964  0.5151
  990TIP3    H224606   3.621   6.202   0.927 -0.2125  0.5901 -1.0544
  991TIP3   OH224607   3.744   4.476   0.786  0.2462  0.0376 -0.1934
  991TIP3    H124608   3.818   4.445   0.839  1.6991  0.4725 -1.8999
  991TIP3    H224609   3.697   4.536   0.844  0.6284 -1.0126  1.2585
  992TIP3   OH224610   2.952   3.784   0.224  0.2731  0.2611  0.5751
  992TIP3    H124611   2.930   3.836   0.302  0.1222  0.3619  0.4679
  992TIP3    H224612   2.944   3.846   0.152 -0.2973 -0.0084  0.4027
  993TIP3   OH224613   5.953   5.814   8.053  0.2947  0.1665  0.3351
  993TIP3    H124614   5.938   5.720   8.058  0.4527  0.2196  3.2735
  993TIP3    H224615   6.016   5.832   8.123 -1.7104  2.7876  1.6136
  994TIP3   OH224616   4.973   5.254   1.967 -0.4559 -0.2940 -0.0804
  994TIP3    H124617   4.909   5.227   1.901  0.1136 -2.1184  0.0713
  994TIP3    H224618   4.976   5.181   2.029  1.7848 -0.2733 -0.1063
  995TIP3   OH224619   1.798   2.513   8.227 -0.1175 -0.0146 -0.3942
  995TIP3    H124620   1.881   2.469   8.242 -0.6804 -1.6695 -1.7651
  995TIP3    H224621   1.732   2.444   8.238 -1.5112  1.5636  2.1960
  996TIP3   OH224622   5.904   0.380   1.708 -0.1822 -0.3614 -0.2344
  996TIP3    H124623   5.822   0.379   1.658 -0.1682  0.2442 -0.2837
  996TIP3    H224624   5.877   0.358   1.797 -0.6531  1.3227  0.0748
  997TIP3   OH224625   1.329   5.757   2.579  0.2639 -0.1848 -0.6729
  997TIP3    H124626   1.412   5.794   2.610 -0.6137  0.3570  1.2084
  997TIP3    H224627   1.263   5.817   2.612 -0.9132 -0.7873 -1.8634
  998TIP3   OH224628   0.429   2.277   2.361 -0.1666  0.5319  0.0023
  998TIP3    H124629   0.425   2.267   2.266  3.5485  2.1207 -0.4868
  998TIP3    H224630   0.435   2.187   2.394  0.9047 -0.0064 -1.5270
  999TIP3   OH224631   2.814   1.270   1.546 -0.0094  0.4956 -0.6847
  999TIP3    H124632   2.890   1.244   1.495  0.4085 -1.7869  0.9685
  999TIP3    H224633   2.740   1.225   1.505  0.2389 -0.8653  0.3119
 1000TIP3   OH224634   0.467   4.390   1.219  0.1160 -0.0839  0.1251
 1000TIP3    H124635   0.389   4.359   1.264  0.4203 -1.5850 -0.3152
 1000TIP3    H224636   0.512   4.446   1.282  0.3561 -1.8423  1.5734
 1001TIP3   OH224637   4.373   0.016   0.414 -0.3290 -0.1908  0.2101
 1001TIP3    H124638   4.320  -0.037   0.474  1.5790  0.2593  2.4418
 1001TIP3    H224639   4.455   0.031   0.461  0.4753  1.9934 -1.6874
 1002TIP3   OH224640   1.691   0.088   8.109 -0.1874 -0.1620 -0.0579
 1002TIP3    H124641   1.698   0.013   8.169 -0.5291  1.6665  2.4229
 1002TIP3    H224642   1.778   0.128   8.110 -0.5267  0.5967  0.2594
 1003TIP3   OH224643   3.458   0.187   0.235 -0.8668 -0.4137  0.0332
 1003TIP3    H124644   3.548   0.205   0.260 -0.5601 -1.6929 -0.0786
 1003TIP3    H224645   3.407   0.202   0.315 -0.7134  1.2387 -0.1415
 1004TIP3   OH224646   4.603   2.637   7.930  0.3560  0.4140 -0.1835
 1004TIP3    H124647   4.686   2.661   7.971 -0.9954  0.8929  2.5192
 1004TIP3    H224648   4.575   2.716   7.884  0.6362  0.7648  0.2400
 1005TIP3   OH224649   3.434   1.871   0.099 -0.4841  0.5765 -0.4906
 1005TIP3    H124650   3.376   1.811   0.145 -0.3936  1.9611  1.5608
 1005TIP3    H224651   3.379   1.946   0.077 -0.0307  0.8254 -0.8014
 1006TIP3   OH224652   3.966   3.740   7.000  0.1660 -0.1991  0.6347
 1006TIP3    H124653   3.874   3.713   6.999  0.3744 -0.9064 -0.3598
 1006TIP3    H224654   3.975   3.799   6.925  0.4442  0.1533  0.9424
 1007TIP3   OH224655   6.612   5.090   7.880  0.0391  0.7107 -0.1476
 1007TIP3    H124656   6.596   5.077   7.786  0.9795  1.3093 -0.3955
 1007TIP3    H224657   6.535   5.052   7.922 -0.9971  1.5349 -1.2147
 1008TIP3   OH224658   6.090   5.619   7.871  0.0309 -0.1703  0.1202
 1008TIP3    H124659   6.176   5.649   7.841 -0.0015  0.1114  0.3047
 1008TIP3    H224660   6.110   5.559   7.943  0.0901 -0.4354 -0.1198
 1009TIP3   OH224661   2.777   0.295   8.600  0.0318  0.1654 -0.0081
 1009TIP3    H124662   2.770   0.302   8.505  2.0372  0.6805 -0.1642
 1009TIP3    H224663   2.766   0.384   8.631  2.8170  0.6466 -0.1097
 1010TIP3   OH224664   0.216   2.674   2.768 -0.1158  0.5289  0.0922
 1010TIP3    H124665   0.242   2.744   2.708  0.5156  2.2605  2.2622
 1010TIP3    H224666   0.153   2.622   2.718 -1.3559  3.1956 -1.3219
 1011TIP3   OH224667   1.525   3.864   0.958 -0.1270 -0.5772 -0.2223
 1011TIP3    H124668   1.441   3.821   0.940 -1.1570  0.3310  2.0617
 1011TIP3    H224669   1.571   3.803   1.017  0.1857 -0.3945 -0.2758
 1012TIP3   OH224670   2.162   3.623   7.591 -0.4234 -0.7829  0.1855
 1012TIP3    H124671   2.209   3.695   7.548 -0.3021 -0.4800  0.8013
 1012TIP3    H224672   2.076   3.659   7.612  0.0957 -0.3460  1.7110
 1013TIP3   OH224673   5.202   6.661   7.994 -0.2769  0.2613  0.1264
 1013TIP3    H124674   5.216   6.709   7.913  0.0161 -0.3092 -0.1672
 1013TIP3    H224675   5.288   6.661   8.037 -0.7060  1.6432  1.0545
 1014TIP3   OH224676   5.696   6.309   0.945 -0.0652 -0.8564 -0.0350
 1014TIP3    H124677   5.756   6.377   0.914  0.3347 -1.9361 -1.8202
 1014TIP3    H224678   5.654   6.347   1.022  0.0990  1.4123 -0.9773
 1015TIP3   OH224679   6.063   6.278   7.084 -0.1506  0.5818  0.3303
 1015TIP3    H124680   6.055   6.239   6.997  0.5711  1.0325  0.0515
 1015TIP3    H224681   6.155   6.301   7.091 -0.7748  3.6072 -0.1463
 1016TIP3   OH224682   2.651   0.089   0.129  0.3199 -0.0563  0.4475
 1016TIP3    H124683   2.573   0.107   0.182  1.1428 -0.1196  1.7156
 1016TIP3    H224684   2.679   0.001   0.155  0.5182 -0.2579 -0.3961
 1017TIP3   OH224685   4.398   5.766   0.619 -0.8145  0.1585 -0.3388
 1017TIP3    H124686   4.474   5.720   0.585  0.4187  0.5182  1.7669
 1017TIP3    H224687   4.430   5.853   0.643 -1.9055  0.3627  0.4808
 1018TIP3   OH224688   0.043   2.593   1.997  0.2457 -0.1534  0.5427
 1018TIP3    H124689   0.082   2.520   2.045  1.4267 -2.1425 -3.0883
 1018TIP3    H224690  -0.037   2.557   1.959  0.1979  0.8216 -0.3145
 1019TIP3   OH224691   5.936   0.675   1.667  0.2858  0.3952  0.4256
 1019TIP3    H124692   5.858   0.626   1.642  0.6572  0.3838 -0.7376
 1019TIP3    H224693   5.998   0.607   1.697  0.3116  0.2863  0.1243
 1020TIP3   OH224694   2.718   6.144   7.468 -0.1253 -0.0686 -0.5469
 1020TIP3    H124695   2.743   6.053   7.482 -0.0035 -0.1207 -1.0857
 1020TIP3    H224696   2.694   6.176   7.555 -1.9659 -1.1407 -0.6000
 1021TIP3   OH224697   4.520   2.723   8.280 -0.4190  0.1953 -0.3098
 1021TIP3    H124698   4.585   2.667   8.237 -1.1287 -0.3903 -0.6465
 1021TIP3    H224699   4.439   2.673   8.274 -1.1077  1.3442 -0.7704
 1022TIP3   OH224700   3.274   4.726   0.872  0.3498 -0.5372  0.0321
 1022TIP3    H124701   3.263   4.670   0.795  0.7097 -0.9371  0.2645
 1022TIP3    H224702   3.188   4.765   0.887 -0.2954 -2.1516  0.7226
 1023TIP3   OH224703   2.400   3.552   2.369  0.5089  0.0483  0.0816
 1023TIP3    H124704   2.483   3.587   2.399  0.6277 -1.3545  1.4952
 1023TIP3    H224705   2.414   3.458   2.363 -0.9024 -0.1918  0.1053
 1024TIP3   OH224706   6.561   1.638   1.522  0.3150 -0.0292 -0.4036
 1024TIP3    H124707   6.540   1.695   1.448  0.6211 -0.2040 -0.6285
 1024TIP3    H224708   6.656   1.629   1.519  0.4211  0.6406  0.5157
 1025TIP3   OH224709   6.590   2.941   1.287  0.3673  0.1027 -0.2294
 1025TIP3    H124710   6.572   2.943   1.381 -0.5437  1.0454 -0.4084
 1025TIP3    H224711   6.640   3.022   1.271  0.8683 -0.2517 -0.5034
 1026TIP3   OH224712   4.722   2.522   0.427 -0.6302 -0.4410  0.7210
 1026TIP3    H124713   4.768   2.581   0.367  0.0616  0.3692  1.9998
 1026TIP3    H224714   4.734   2.435   0.388  0.4468 -0.0326  0.0827
 1027TIP3   OH224715   6.467   1.725   8.313  0.2433  0.6221 -0.1239
 1027TIP3    H124716   6.538   1.759   8.259  0.8087  1.1054  0.8877
 1027TIP3    H224717   6.494   1.744   8.403 -0.4846 -0.4983  0.3605
 1028TIP3   OH224718   2.226   4.561   2.134  0.0952 -0.3218 -0.7415
 1028TIP3    H124719   2.218   4.480   2.184 -3.4662  0.7098  0.6619
 1028TIP3    H224720   2.190   4.539   2.048 -0.4974 -0.3332 -0.4920
 1029TIP3   OH224721   0.203   1.921   0.574 -0.2976  0.3134 -0.5154
 1029TIP3    H124722   0.151   1.843   0.592 -0.1341  0.4112  0.4167
 1029TIP3    H224723   0.291   1.898   0.602 -0.2624  0.8548 -0.1590
 1030TIP3   OH224724   2.312   1.104   0.227 -0.0098  0.2301  0.0007
 1030TIP3    H124725   2.402   1.132   0.244  0.7747 -0.6336 -2.3273
 1030TIP3    H224726   2.314   1.009   0.236 -0.8234  0.2376  0.4004
 1031TIP3   OH224727   5.016   5.050   8.630 -0.1318  0.0254  0.3227
 1031TIP3    H124728   5.080   5.117   8.602 -0.5748  0.4266  0.2516
 1031TIP3    H224729   5.054   4.967   8.601  0.5220  0.2231  0.5820
 1032TIP3   OH224730   3.126   3.654   7.679  0.7201  0.5193  0.0898
 1032TIP3    H124731   3.039   3.694   7.678  1.0727  1.6650 -4.2538
 1032TIP3    H224732   3.115   3.571   7.633  1.9213  0.8384 -0.8317
 1033TIP3   OH224733   2.550   0.110   1.855  0.1683 -0.6180  0.2692
 1033TIP3    H124734   2.552   0.023   1.815  0.3551  1.2718 -4.6104
 1033TIP3    H224735   2.640   0.143   1.846 -0.3025  0.7230  0.2236
 1034TIP3   OH224736   1.944   3.840   1.093 -0.0384 -0.2224  0.6554
 1034TIP3    H124737   1.993   3.774   1.143  0.7247 -0.8083 -0.7877
 1034TIP3    H224738   1.852   3.816   1.105  0.2499 -2.5045 -0.9603
 1035TIP3   OH224739   2.467   4.721   8.148 -0.1667 -0.3969  0.0941
 1035TIP3    H124740   2.438   4.738   8.238  1.0513 -2.5086  0.9708
 1035TIP3    H224741   2.389   4.733   8.095 -1.4048 -0.9322  1.6948
 1036TIP3   OH224742   3.385   2.184   8.137 -0.2240 -0.4434  0.3440
 1036TIP3    H124743   3.438   2.131   8.197  1.7957 -0.1754 -1.1077
 1036TIP3    H224744   3.430   2.268   8.133 -0.4488 -0.3707 -1.3544
 1037TIP3   OH224745   3.498   4.876   1.528  0.3900 -0.0561 -0.4860
 1037TIP3    H124746   3.416   4.895   1.482  0.3861 -0.2970 -0.5777
 1037TIP3    H224747   3.566   4.895   1.463  0.4433  0.8512 -0.1800
 1038TIP3   OH224748   2.873   5.319   7.008 -0.1527  0.2988 -0.0843
 1038TIP3    H124749   2.900   5.342   6.919  1.7338  0.6734  0.5271
 1038TIP3    H224750   2.901   5.228   7.019  0.5314  0.5599  0.4284
 1039TIP3   OH224751   1.578   1.675   7.333 -0.4760 -0.0711 -0.0065
 1039TIP3    H124752   1.494   1.630   7.341 -0.9442  0.5363 -1.2388
 1039TIP3    H224753   1.644   1.606   7.344 -1.1379 -0.5744  0.8194
 1040TIP3   OH224754   0.677   5.966   8.372 -0.6561 -0.1370 -0.8986
 1040TIP3    H124755   0.722   5.970   8.288 -0.4193  1.1409 -0.7322
 1040TIP3    H224756   0.598   5.914   8.355  0.0788 -1.0623 -1.5646
 1041TIP3   OH224757   3.470   6.531   2.552  0.7617 -0.1513  1.0711
 1041TIP3    H124758   3.386   6.569   2.528  0.0259 -1.5710  1.3464
 1041TIP3    H224759   3.464   6.516   2.646  0.4301 -2.3235  0.7465
 1042TIP3   OH224760   5.674   0.596   6.846  0.0067 -0.4198  0.1616
 1042TIP3    H124761   5.687   0.676   6.795 -1.8486 -0.2806 -0.1821
 1042TIP3    H224762   5.590   0.561   6.814 -0.7307 -0.8597  2.4252
 1043TIP3   OH224763   1.224   3.814   8.352 -0.0129 -0.1136  0.1521
 1043TIP3    H124764   1.258   3.767   8.275  0.1739  1.2555 -0.6316
 1043TIP3    H224765   1.160   3.754   8.391  0.3763 -1.0976 -0.6786
 1044TIP3   OH224766   4.455   4.700   1.247 -0.5883 -0.2005  0.0569
 1044TIP3    H124767   4.380   4.737   1.201 -0.7498 -0.6563 -0.0594
 1044TIP3    H224768   4.503   4.652   1.179  1.4272  2.4210 -0.5433
 1045TIP3   OH224769   5.409   2.508   1.784 -0.1317  0.0143 -0.2137
 1045TIP3    H124770   5.336   2.495   1.844 -1.0492 -0.9359 -1.4745
 1045TIP3    H224771   5.459   2.427   1.788  0.6284  0.5002  0.3267
 1046TIP3   OH224772   2.403   2.902   0.871  0.4820 -0.1167  0.0610
 1046TIP3    H124773   2.348   2.824   0.878  0.1139 -0.2010 -2.5877
 1046TIP3    H224774   2.348   2.967   0.828  1.4762  0.8491  0.1917
 1047TIP3   OH224775   2.313   3.330   8.589 -0.4304  0.0765 -0.5037
 1047TIP3    H124776   2.354   3.370   8.666 -2.6766 -0.0984  0.9032
 1047TIP3    H224777   2.220   3.329   8.611 -0.8496 -2.5073 -2.0740
 1048TIP3   OH224778   1.735   6.638   1.733  0.2863 -0.4817  0.1526
 1048TIP3    H124779   1.784   6.564   1.770  1.3132  0.1094  0.0168
 1048TIP3    H224780   1.774   6.652   1.647 -0.8592 -0.6753 -0.4120
 1049TIP3   OH224781   3.755   1.168   1.900  0.2731 -0.6897 -0.3640
 1049TIP3    H124782   3.701   1.245   1.882  2.5989  1.3751  0.9192
 1049TIP3    H224783   3.745   1.113   1.822 -2.3735  0.3133 -0.8202
 1050TIP3   OH224784   1.211   5.811   6.760 -0.4387 -0.1290  0.1171
 1050TIP3    H124785   1.139   5.829   6.821 -1.6662 -0.3049 -1.2327
 1050TIP3    H224786   1.172   5.821   6.673  0.6479 -2.2217 -0.6773
 1051TIP3   OH224787   6.001   2.374   7.808 -0.6398  0.0822 -0.0699
 1051TIP3    H124788   5.993   2.287   7.848  0.2741 -0.2018 -0.4766
 1051TIP3    H224789   5.977   2.361   7.716 -0.5123  0.2625 -0.1287
 1052TIP3   OH224790   1.169   1.825   2.910  0.6007  0.2194  0.0055
 1052TIP3    H124791   1.140   1.760   2.846  1.3411  0.4941 -0.6145
 1052TIP3    H224792   1.110   1.900   2.897 -0.3089 -0.3327  0.7775
 1053TIP3   OH224793   6.660   1.165   8.088 -0.7319  0.3006 -0.0190
 1053TIP3    H124794   6.730   1.168   8.022 -1.3525  1.8736 -0.6385
 1053TIP3    H224795   6.594   1.227   8.057 -0.7337  1.6446  2.4063
 1054TIP3   OH224796   5.371   0.906   1.443  0.1347  0.6547 -0.2036
 1054TIP3    H124797   5.327   0.848   1.505 -1.2557 -0.0198 -1.7507
 1054TIP3    H224798   5.410   0.974   1.498 -0.1938 -0.4395  1.4749
 1055TIP3   OH224799   0.523   6.468   2.260 -0.1955 -0.0656 -0.1666
 1055TIP3    H124800   0.552   6.548   2.303 -0.3601 -0.5293  0.8334
 1055TIP3    H224801   0.595   6.443   2.203  0.4762 -0.0113  0.6467
 1056TIP3   OH224802   5.802   5.285   2.030  0.9207 -0.4351  0.3036
 1056TIP3    H124803   5.801   5.199   1.989  2.3378 -0.4117  0.1544
 1056TIP3    H224804   5.710   5.306   2.046  0.2780 -0.4857 -2.7508
 1057TIP3   OH224805   5.965   5.561   8.550  0.2487 -0.1982  0.2107
 1057TIP3    H124806   6.047   5.515   8.527  0.2967 -0.6992  1.3181
 1057TIP3    H224807   5.917   5.498   8.604 -0.3342  0.5388  0.5651
 1058TIP3   OH224808   3.798   3.065   8.327  0.4969 -0.0434 -0.3147
 1058TIP3    H124809   3.721   3.073   8.382  0.6112  0.3731 -0.2078
 1058TIP3    H224810   3.871   3.092   8.383  0.7807 -0.8849 -0.2734
 1059TIP3   OH224811   2.243   5.257   8.368 -0.0928 -0.0978  0.1471
 1059TIP3    H124812   2.163   5.210   8.390 -1.0046  2.0192  1.7110
 1059TIP3    H224813   2.291   5.263   8.450  1.2057 -0.4116 -0.5536
 1060TIP3   OH224814   3.466   4.631   2.648 -0.4187  0.1061  0.2680
 1060TIP3    H124815   3.372   4.617   2.638 -0.6597  1.6067  0.2876
 1060TIP3    H224816   3.474   4.717   2.689  0.9229 -0.7538  1.9474
 1061TIP3   OH224817   1.592   5.738   0.115  0.3976 -0.0457  0.0344
 1061TIP3    H124818   1.609   5.831   0.123 -0.0305 -0.0237  0.8832
 1061TIP3    H224819   1.496   5.731   0.117  0.4257 -0.6274  2.0910
 1062TIP3   OH224820   6.247   0.688   1.731 -0.0237 -0.3488 -0.1652
 1062TIP3    H124821   6.223   0.602   1.765 -0.5736 -0.1119  0.0611
 1062TIP3    H224822   6.330   0.709   1.774  0.3194 -0.9392 -0.5289
 1063TIP3   OH224823   0.137   4.723   1.427  0.1907 -0.4850 -0.3260
 1063TIP3    H124824   0.212   4.736   1.369 -0.9260  0.1683 -1.6832
 1063TIP3    H224825   0.169   4.750   1.513  1.8049 -1.2056 -0.6619
 1064TIP3   OH224826   4.126   4.714   2.115 -0.2703  0.4208  0.1420
 1064TIP3    H124827   4.080   4.787   2.156 -1.4386 -1.0338  1.5660
 1064TIP3    H224828   4.058   4.662   2.073  0.4617 -0.1894 -0.3269
 1065TIP3   OH224829   1.760   4.555   8.022  0.0333 -0.2714  0.7034
 1065TIP3    H124830   1.752   4.610   7.944  0.2372  1.3542  1.7822
 1065TIP3    H224831   1.854   4.552   8.040  0.0158 -0.9141  0.7092
 1066TIP3   OH224832   5.247   5.709   1.431 -0.1177 -0.1238  0.1455
 1066TIP3    H124833   5.280   5.619   1.428  1.7334  0.5378 -0.0690
 1066TIP3    H224834   5.322   5.763   1.409 -1.8253  1.3680 -2.4315
 1067TIP3   OH224835   1.308   4.922   7.297 -0.3199 -0.0224 -0.0608
 1067TIP3    H124836   1.289   5.015   7.285  0.9086  0.4331  1.2505
 1067TIP3    H224837   1.273   4.880   7.218  0.2633  1.7114 -1.3102
 1068TIP3   OH224838   3.933   4.868   8.255 -0.0834 -0.0565  0.6190
 1068TIP3    H124839   4.019   4.911   8.256  0.2269 -0.6597  1.3146
 1068TIP3    H224840   3.925   4.832   8.167  1.1948 -1.5448  1.0571
 1069TIP3   OH224841   1.970   6.222   1.143 -0.2400  0.8430  0.1164
 1069TIP3    H124842   1.970   6.127   1.132 -0.0844  1.1174 -3.2971
 1069TIP3    H224843   2.051   6.241   1.189 -0.6904 -0.6930  1.6525
 1070TIP3   OH224844   6.821   4.153   0.842  0.3275  0.2882 -0.4939
 1070TIP3    H124845   6.826   4.118   0.753  1.0419 -0.7381 -0.0692
 1070TIP3    H224846   6.892   4.217   0.848 -0.5664  1.3669 -1.0658
 1071TIP3   OH224847   0.592   0.549   1.002 -0.1889  0.3588 -0.0939
 1071TIP3    H124848   0.572   0.494   1.077 -0.0516 -0.0753 -0.3723
 1071TIP3    H224849   0.564   0.498   0.926  0.9038  0.2107 -0.4183
 1072TIP3   OH224850   2.888   4.090   7.301  0.1692  0.2482  0.2437
 1072TIP3    H124851   2.920   4.177   7.275 -0.0065 -0.0558 -1.0299
 1072TIP3    H224852   2.966   4.035   7.302  0.2074  0.3039  0.5894
 1073TIP3   OH224853   2.287   2.138   0.510  0.2539  0.2378  0.1867
 1073TIP3    H124854   2.212   2.092   0.472 -0.5286  0.6693  1.1543
 1073TIP3    H224855   2.248   2.204   0.568  1.3697 -0.5563  1.9309
 1074TIP3   OH224856   0.288   0.257   1.385 -0.1896 -0.3111  0.3237
 1074TIP3    H124857   0.279   0.343   1.424  2.1496  1.4883 -2.6629
 1074TIP3    H224858   0.358   0.215   1.435  0.5884  0.6804  0.1014
 1075TIP3   OH224859   1.767   1.326   1.486 -0.5716 -0.1455  0.3458
 1075TIP3    H124860   1.739   1.298   1.573 -0.3912 -0.7258  0.2160
 1075TIP3    H224861   1.863   1.319   1.488 -0.6428 -1.6559 -0.4055
 1076TIP3   OH224862   2.820   6.259   6.377 -0.2734 -0.0377  0.2254
 1076TIP3    H124863   2.825   6.350   6.348  0.1943  0.2160  1.0594
 1076TIP3    H224864   2.905   6.242   6.418 -1.3955  0.1090  2.7978
 1077TIP3   OH224865   5.656   5.549   7.546 -0.5377 -0.2722 -0.1352
 1077TIP3    H124866   5.724   5.613   7.526 -0.1199 -1.3122 -2.4531
 1077TIP3    H224867   5.703   5.466   7.554 -1.2794 -0.6147  0.8924
 1078TIP3   OH224868   2.549   4.802   0.309  0.2684  0.2492 -0.7962
 1078TIP3    H124869   2.598   4.846   0.379 -2.0009  0.6987  0.6131
 1078TIP3    H224870   2.600   4.820   0.230  2.0602  1.1423  0.4793
 1079TIP3   OH224871   6.458   4.613   0.343  0.3957 -0.4103  0.0446
 1079TIP3    H124872   6.490   4.702   0.325 -0.8766  0.1361  0.3790
 1079TIP3    H224873   6.500   4.559   0.276  1.5046  0.3618  0.0795
 1080TIP3   OH224874   6.313   6.067   8.777 -0.4558 -0.2783  0.1393
 1080TIP3    H124875   6.336   5.992   8.722  0.3482  0.7050 -0.9096
 1080TIP3    H224876   6.321   6.035   8.866  0.5207 -1.2591 -0.2837
 1081TIP3   OH224877   0.232   5.174   0.967 -0.6325  0.1325 -0.0673
 1081TIP3    H124878   0.296   5.200   1.034 -0.7828  0.5489 -0.0817
 1081TIP3    H224879   0.148   5.176   1.013 -0.8767  1.4689 -0.5239
 1082TIP3   OH224880   4.358   1.334   2.607 -0.1152  0.0954 -0.2923
 1082TIP3    H124881   4.376   1.265   2.671 -0.1174  1.4632  1.2566
 1082TIP3    H224882   4.444   1.375   2.591  0.0431 -0.7658 -1.8716
 1083TIP3   OH224883   1.964   3.890   8.555 -0.7232  0.3438 -0.0303
 1083TIP3    H124884   2.014   3.963   8.518  1.2760 -1.8078 -1.8510
 1083TIP3    H224885   1.882   3.890   8.504  1.1839 -1.3689 -3.4244
 1084TIP3   OH224886   0.244   5.620   8.229 -0.4958  0.0441  0.2091
 1084TIP3    H124887   0.202   5.546   8.186  0.0011 -0.5538  0.7347
 1084TIP3    H224888   0.199   5.628   8.313 -1.6154  1.3500 -0.4624
 1085TIP3   OH224889   5.478   2.991   0.396  0.6709  0.1571 -0.1073
 1085TIP3    H124890   5.401   3.014   0.448  0.9561  1.9030 -0.3801
 1085TIP3    H224891   5.494   3.068   0.341  3.2239  0.3029  0.7015
 1086TIP3   OH224892   5.077   0.654   1.326 -0.0956 -0.2729 -0.3209
 1086TIP3    H124893   5.131   0.576   1.341  0.9874  0.0148 -2.3283
 1086TIP3    H224894   5.133   0.712   1.274 -1.3858  1.2529 -0.0939
 1087TIP3   OH224895   3.215   5.616   7.462  0.1140  0.2925 -0.5317
 1087TIP3    H124896   3.269   5.541   7.488  1.4595  1.7557  1.1413
 1087TIP3    H224897   3.130   5.599   7.501 -0.2569 -1.3242 -1.9327
 1088TIP3   OH224898   2.272   4.513   7.859  0.4568  0.0799  0.5361
 1088TIP3    H124899   2.232   4.600   7.854  0.3921  0.0073 -0.4599
 1088TIP3    H224900   2.230   4.463   7.789  0.1738 -0.8970  1.3808
 1089TIP3   OH224901   0.425   1.485   7.891  0.0268  0.4621 -0.3015
 1089TIP3    H124902   0.426   1.392   7.867  0.0639  0.5574 -0.6688
 1089TIP3    H224903   0.423   1.532   7.808  2.4148  0.8492 -0.2111
 1090TIP3   OH224904   6.411   6.659   1.405  0.2203  0.2942 -0.3570
 1090TIP3    H124905   6.343   6.607   1.362  0.5337  0.0696 -0.5878
 1090TIP3    H224906   6.488   6.650   1.348  0.5175  0.3331  0.0348
 1091TIP3   OH224907   2.389   3.678   8.303  0.1144  0.1004  0.4312
 1091TIP3    H124908   2.342   3.697   8.384 -1.1699 -1.1578  0.0363
 1091TIP3    H224909   2.456   3.614   8.328 -0.5880 -0.6471  0.4416
 1092TIP3   OH224910   4.729   0.043   8.068  0.5876  0.0010  0.1048
 1092TIP3    H124911   4.690  -0.036   8.030 -0.3722  0.4975  0.0210
 1092TIP3    H224912   4.771   0.013   8.148 -2.0630 -0.2293  1.5237
 1093TIP3   OH224913   3.516   3.053   1.103 -0.5895 -0.0146  0.0283
 1093TIP3    H124914   3.531   3.093   1.017  0.3697 -1.8986 -0.7392
 1093TIP3    H224915   3.459   2.978   1.085  2.3473 -2.5370  0.3651
 1094TIP3   OH224916   5.649   3.657   2.434 -0.3121 -0.0838  0.3704
 1094TIP3    H124917   5.652   3.590   2.502 -0.1874 -2.9583 -2.2758
 1094TIP3    H224918   5.710   3.725   2.464  0.2518 -1.5446  2.7538
 1095TIP3   OH224919   5.049   6.749   0.142  0.4244 -0.1183  0.1719
 1095TIP3    H124920   5.120   6.720   0.199  1.9656  1.5867 -0.7912
 1095TIP3    H224921   5.068   6.709   0.058 -0.3571 -0.4977  0.1713
 1096TIP3   OH224922   2.598   1.346   1.805  0.2673 -0.0139 -0.4699
 1096TIP3    H124923   2.591   1.427   1.855 -0.5748  0.0552 -0.6903
 1096TIP3    H224924   2.561   1.366   1.719 -0.3217 -0.7352 -0.3962
 1097TIP3   OH224925   4.581   1.674   7.427  0.3028  0.1710  0.5240
 1097TIP3    H124926   4.527   1.610   7.381  1.9110 -0.1192 -1.0783
 1097TIP3    H224927   4.521   1.745   7.448 -0.7813 -0.2437 -0.9708
 1098TIP3   OH224928   3.988   3.481   0.943 -0.2416 -0.5164  0.0129
 1098TIP3    H124929   4.044   3.547   0.983 -1.4469 -0.4849  1.7597
 1098TIP3    H224930   3.979   3.414   1.011 -1.6916 -0.8768 -0.5099
 1099TIP3   OH224931   0.379   1.540   2.750 -0.3079 -0.2373 -0.4063
 1099TIP3    H124932   0.340   1.474   2.807 -0.7047  1.5019  1.4283
 1099TIP3    H224933   0.435   1.592   2.807  1.3872 -0.0325 -2.1607
 1100TIP3   OH224934   5.699   4.806   0.983 -0.6079 -0.1644  1.1213
 1100TIP3    H124935   5.769   4.856   0.941 -2.1629  1.2514  0.1134
 1100TIP3    H224936   5.728   4.796   1.074  0.8886  0.3808  0.7350
 1101TIP3   OH224937   3.676   3.263   1.527 -0.1808 -0.8781  0.0622
 1101TIP3    H124938   3.615   3.336   1.511 -0.2432 -1.1168 -0.8520
 1101TIP3    H224939   3.672   3.211   1.447 -0.5081 -2.1759  0.8925
 1102TIP3   OH224940   0.940   0.866   1.646  0.4629 -0.1048 -0.2060
 1102TIP3    H124941   0.860   0.913   1.619  0.0739 -1.1320 -0.9042
 1102TIP3    H224942   0.916   0.827   1.731 -0.6661 -2.4045 -1.4934
 1103TIP3   OH224943   1.331   2.540   0.289  0.9121 -0.0756 -0.2189
 1103TIP3    H124944   1.389   2.512   0.359  0.6289 -2.2122 -0.7505
 1103TIP3    H224945   1.386   2.595   0.233  0.9174  2.4049  2.0245
 1104TIP3   OH224946   6.183   2.528   0.265  0.0075  0.0705  0.1587
 1104TIP3    H124947   6.263   2.574   0.290 -1.1318  1.8037  0.7403
 1104TIP3    H224948   6.151   2.489   0.347 -2.9380  4.5384  1.5394
 1105TIP3   OH224949   2.058   5.599   2.039 -0.3955 -0.7009 -0.3411
 1105TIP3    H124950   2.056   5.587   1.944  0.3892 -1.5758 -0.2596
 1105TIP3    H224951   2.137   5.651   2.055 -1.8784  1.7060 -0.3631
 1106TIP3   OH224952   3.610   0.958   7.949  0.1832 -0.3253  0.3521
 1106TIP3    H124953   3.665   0.936   7.873 -0.3304 -0.6381  0.0636
 1106TIP3    H224954   3.589   1.050   7.937  1.0275 -0.0802  0.7120
 1107TIP3   OH224955   4.204   5.338   0.384 -0.0828 -0.6570  0.6086
 1107TIP3    H124956   4.248   5.260   0.418  0.6058 -0.8187 -0.6091
 1107TIP3    H224957   4.168   5.381   0.462 -0.0215 -1.9036  1.3453
 1108TIP3   OH224958   3.096   5.546   1.279  0.1794  0.4310  0.5049
 1108TIP3    H124959   3.128   5.609   1.344  2.3109 -1.3917  1.3864
 1108TIP3    H224960   3.111   5.460   1.320  0.0815 -0.7378 -1.7535
 1109TIP3   OH224961   3.874   2.490   1.999  0.0268  0.8131  0.2182
 1109TIP3    H124962   3.840   2.579   1.999 -1.2630  0.3667 -0.7425
 1109TIP3    H224963   3.814   2.441   2.055 -1.4309 -0.1256 -2.0106
 1110TIP3   OH224964   3.068   4.480   0.730 -0.4326  0.3499  0.4141
 1110TIP3    H124965   3.017   4.558   0.710 -2.1884 -0.3596  1.8459
 1110TIP3    H224966   3.037   4.414   0.668  0.3832  0.4892 -0.1722
 1111TIP3   OH224967   4.493   2.322   1.594 -0.2325  0.4153  0.3081
 1111TIP3    H124968   4.512   2.321   1.688  1.7318 -1.6833 -0.0418
 1111TIP3    H224969   4.426   2.255   1.582  0.8794 -0.6626 -0.0033
 1112TIP3   OH224970   6.450   2.806   1.978 -0.1022  0.6617 -0.3220
 1112TIP3    H124971   6.503   2.874   1.937 -0.0861  0.6402 -0.3375
 1112TIP3    H224972   6.369   2.804   1.926 -0.9910  2.0965  0.9525
 1113TIP3   OH224973   2.944   3.166   8.000  0.3328 -0.5140  0.4118
 1113TIP3    H124974   2.864   3.137   7.957  0.4900 -0.5005  0.1113
 1113TIP3    H224975   3.011   3.104   7.971  0.3170 -0.8789  1.1174
 1114TIP3   OH224976   2.175   2.648   8.311  0.7190 -0.5562  0.0165
 1114TIP3    H124977   2.237   2.578   8.289  1.5486 -0.6245  2.2711
 1114TIP3    H224978   2.114   2.608   8.373 -2.4833 -0.8297 -3.0196
 1115TIP3   OH224979   5.225   5.621   0.487 -0.4325 -0.3544 -0.0221
 1115TIP3    H124980   5.196   5.673   0.412  0.1181 -0.7124 -0.4952
 1115TIP3    H224981   5.198   5.532   0.466  0.4252 -0.5835 -0.1691
 1116TIP3   OH224982   1.846   0.773   0.910  0.1512 -1.0641  0.3264
 1116TIP3    H124983   1.802   0.804   0.989  0.8557  1.2260 -0.0956
 1116TIP3    H224984   1.776   0.740   0.855 -0.5574 -1.0960  1.2215
 1117TIP3   OH224985   0.372   4.352   8.118  0.0685 -0.0877 -0.0422
 1117TIP3    H124986   0.306   4.296   8.076 -0.5649  1.2755 -0.9600
 1117TIP3    H224987   0.392   4.419   8.052  0.3300  1.1311  1.2231
 1118TIP3   OH224988   2.591   5.171   2.717  0.2865  0.4772  0.1304
 1118TIP3    H124989   2.554   5.086   2.740  1.4163 -0.1761 -0.3451
 1118TIP3    H224990   2.675   5.173   2.763  0.3640  1.2470 -0.0353
 1119TIP3   OH224991   4.196   0.653   1.406 -0.1283 -0.6295  0.7441
 1119TIP3    H124992   4.103   0.673   1.416 -0.1650 -0.7329  0.6099
 1119TIP3    H224993   4.238   0.738   1.396 -0.0345 -0.4729  2.2160
 1120TIP3   OH224994   4.777   5.607   8.268  0.0681  0.0601 -0.6319
 1120TIP3    H124995   4.824   5.524   8.253  0.6795  0.4421 -0.8601
 1120TIP3    H224996   4.686   5.581   8.278  0.3086 -0.6898 -0.2905
 1121TIP3   OH224997   5.408   5.094   8.514 -0.0587 -0.4625 -0.3355
 1121TIP3    H124998   5.336   5.155   8.500  0.1699 -0.1135 -0.0091
 1121TIP3    H224999   5.409   5.078   8.608  0.4824 -0.2265 -0.2957
 1122TIP3   OH225000   1.721   5.545   7.954 -0.4846 -0.4488 -0.9642
 1122TIP3    H125001   1.654   5.493   7.910 -0.5318 -1.3783  0.1474
 1122TIP3    H225002   1.677   5.628   7.975 -0.7371 -0.3615 -1.8109
 1123TIP3   OH225003   6.317   1.947   7.979  0.0723  0.3846 -0.7427
 1123TIP3    H125004   6.263   1.983   8.049  0.0966 -3.4259  1.5462
 1123TIP3    H225005   6.255   1.918   7.913 -0.4239 -0.2938 -0.0063
 1124TIP3   OH225006   6.800   2.709   0.669  0.4742  0.1157  0.1455
 1124TIP3    H125007   6.875   2.734   0.616 -0.8162  2.1137 -0.8548
 1124TIP3    H225008   6.770   2.627   0.630 -1.1078  2.0526 -3.1723
 1125TIP3   OH225009   5.651   1.900   8.359  0.5544  0.1447  0.3018
 1125TIP3    H125010   5.563   1.939   8.360  0.7969  0.9176  3.5599
 1125TIP3    H225011   5.636   1.809   8.382  0.5498  0.0806  0.0458
 1126TIP3   OH225012   0.656   1.598   8.403  0.3191 -0.1087 -0.4990
 1126TIP3    H125013   0.564   1.582   8.381 -0.0696  0.7119  0.4423
 1126TIP3    H225014   0.684   1.663   8.339 -0.2693  0.9079  0.2463
 1127TIP3   OH225015   2.617   0.858   2.232 -0.2646  0.0516 -0.0932
 1127TIP3    H125016   2.687   0.919   2.209  1.4325 -2.4539 -2.1297
 1127TIP3    H225017   2.661   0.785   2.276 -1.8541 -0.8112  0.1616
 1128TIP3   OH225018   6.419   3.095   2.415 -0.5895  0.3227  0.9103
 1128TIP3    H125019   6.372   3.177   2.433 -1.1396  0.4805 -1.0570
 1128TIP3    H225020   6.469   3.113   2.336 -1.2403 -1.4441  0.0581
 1129TIP3   OH225021   5.970   0.657   0.981  0.2783  0.1698  0.1096
 1129TIP3    H125022   5.954   0.702   0.898 -1.4495 -0.7447 -0.0966
 1129TIP3    H225023   5.908   0.698   1.042  0.0992 -0.5456  0.4186
 1130TIP3   OH225024   5.574   3.268   3.503 -0.4557  0.9298  0.5265
 1130TIP3    H125025   5.540   3.329   3.439  0.2870 -0.6111 -1.4687
 1130TIP3    H225026   5.508   3.199   3.509 -0.1271  0.6271  0.7637
 1131TIP3   OH225027   5.085   3.465   7.899 -0.0600 -0.0946 -0.5143
 1131TIP3    H125028   5.110   3.391   7.954  0.3649  0.1646 -0.3499
 1131TIP3    H225029   5.152   3.532   7.917 -0.4291  0.3203 -0.6715
 1132TIP3   OH225030   1.177   0.687   0.834  0.2481  0.1136 -0.2967
 1132TIP3    H125031   1.123   0.611   0.813 -0.2390  0.6149 -0.8798
 1132TIP3    H225032   1.115   0.752   0.866  0.3322  1.0949 -2.0427
 1133TIP3   OH225033   4.763   0.810   7.252  0.8279 -0.5026 -0.3946
 1133TIP3    H125034   4.813   0.735   7.221  0.2761 -1.6821  1.4039
 1133TIP3    H225035   4.729   0.851   7.173  1.4305 -1.9368 -1.4403
 1134TIP3   OH225036   2.874   2.178   2.654 -0.1976 -0.5271 -0.3154
 1134TIP3    H125037   2.831   2.251   2.610  0.7176  0.2745  0.0743
 1134TIP3    H225038   2.895   2.117   2.584  0.6744  0.4370 -0.9261
 1135TIP3   OH225039   1.500   3.164   8.357  0.0135 -0.5113 -0.2967
 1135TIP3    H125040   1.435   3.234   8.344 -0.9810 -1.3753 -0.1115
 1135TIP3    H225041   1.505   3.121   8.271  1.5869  0.5595 -0.7806
 1136TIP3   OH225042   3.763   2.813   0.183  0.0906  0.1083 -0.0720
 1136TIP3    H125043   3.794   2.839   0.270  1.2084  0.2456 -0.4994
 1136TIP3    H225044   3.670   2.793   0.196  0.4430 -0.7636  1.3512
 1137TIP3   OH225045   6.572   1.556   2.183 -0.0975 -0.3561 -0.4643
 1137TIP3    H125046   6.622   1.481   2.150 -0.1644 -0.9317  0.7003
 1137TIP3    H225047   6.634   1.629   2.183  0.9640 -1.1988  1.5355
 1138TIP3   OH225048   3.609   0.066   1.087 -0.5055 -0.4709  0.3935
 1138TIP3    H125049   3.600   0.110   1.172 -1.0862 -1.5768  0.9219
 1138TIP3    H225050   3.555  -0.013   1.094  0.3715 -1.1981 -0.5835
 1139TIP3   OH225051   2.218   4.122   1.952 -0.8296 -0.3466  0.0999
 1139TIP3    H125052   2.141   4.151   2.000  0.5946 -0.0897  2.3795
 1139TIP3    H225053   2.267   4.069   2.015 -0.0191 -2.0554 -1.8516
 1140TIP3   OH225054   1.163   6.049   7.501  0.2004  0.5331  0.8249
 1140TIP3    H125055   1.257   6.060   7.507  0.2302  0.4130  0.5849
 1140TIP3    H225056   1.130   6.136   7.478  0.4018  0.2349 -0.7018
 1141TIP3   OH225057   4.839   4.217   0.319 -0.3662 -0.5023 -0.5311
 1141TIP3    H125058   4.845   4.131   0.276  2.0534 -1.2324  1.0529
 1141TIP3    H225059   4.790   4.199   0.400 -0.6411 -0.1953 -0.6294
 1142TIP3   OH225060   0.429   1.201   7.806  0.0704  0.2350  0.5298
 1142TIP3    H125061   0.507   1.159   7.841  0.4187 -0.0139 -0.5048
 1142TIP3    H225062   0.450   1.219   7.714 -1.0589  0.2078  0.2426
 1143TIP3   OH225063   1.548   1.820   2.325 -0.3988  0.5246  0.3311
 1143TIP3    H125064   1.529   1.739   2.372 -2.0397  0.0410 -1.0689
 1143TIP3    H225065   1.476   1.879   2.348  0.3932  1.3593  0.7666
 1144TIP3   OH225066   2.156   2.233   3.070 -0.0162 -0.8227  0.2663
 1144TIP3    H125067   2.250   2.229   3.051  0.1540 -0.2467  0.9351
 1144TIP3    H225068   2.140   2.159   3.128  0.1166 -0.6795  0.4901
 1145TIP3   OH225069   6.112   2.538   8.527  0.0015 -0.0167 -0.5255
 1145TIP3    H125070   6.127   2.629   8.504 -0.0761 -0.4729 -2.6391
 1145TIP3    H225071   6.062   2.541   8.608 -1.0376  1.8712 -1.1799
 1146TIP3   OH225072   0.019   0.301   7.796 -0.4360  0.6043  0.1733
 1146TIP3    H125073  -0.008   0.247   7.721 -2.8102 -0.0381  1.3898
 1146TIP3    H225074   0.064   0.376   7.757  1.9482 -1.5885 -1.6479
 1147TIP3   OH225075   2.705   0.266   8.326 -0.1236  0.4159  0.2079
 1147TIP3    H125076   2.647   0.206   8.279 -0.4376  0.8445  0.0464
 1147TIP3    H225077   2.727   0.333   8.261  0.6434  0.2008  0.2314
 1148TIP3   OH225078   4.015   4.054   2.998  0.2383 -0.2297 -0.1254
 1148TIP3    H125079   4.024   3.965   2.964  1.4180 -0.1475 -0.0727
 1148TIP3    H225080   3.929   4.055   3.041 -1.2882 -0.3763 -2.9160
 1149TIP3   OH225081   3.028   4.999   0.598  0.0431 -0.1489 -0.4857
 1149TIP3    H125082   2.974   5.077   0.586 -0.9502 -0.6137  0.7211
 1149TIP3    H225083   3.004   4.942   0.525 -1.4146 -0.5043  0.2283
 1150TIP3   OH225084   0.303   3.044   0.781 -0.3504 -0.2703 -0.3437
 1150TIP3    H125085   0.272   2.986   0.711 -0.1597 -1.4051  0.4916
 1150TIP3    H225086   0.393   3.016   0.797 -0.6087 -0.4770  0.8097
 1151TIP3   OH225087   5.427   1.898   7.400  0.0640 -0.3157 -0.0499
 1151TIP3    H125088   5.372   1.955   7.347 -0.4721 -1.3304 -0.5869
 1151TIP3    H225089   5.516   1.915   7.369 -0.3167 -1.6565 -2.0470
 1152TIP3   OH225090   4.015   2.845   8.422 -0.1886  0.7436  0.0691
 1152TIP3    H125091   3.968   2.815   8.344 -1.6571  1.4628  0.6461
 1152TIP3    H225092   4.047   2.932   8.399  1.2698  0.0972 -0.4648
 1153TIP3   OH225093   3.501   6.554   7.258  0.2715  0.0060  0.3701
 1153TIP3    H125094   3.519   6.610   7.183 -0.3267  2.3832  1.8706
 1153TIP3    H225095   3.563   6.583   7.325 -0.4544 -0.7279  1.3991
 1154TIP3   OH225096   2.930   6.292   1.422  0.0991 -0.3756 -0.3121
 1154TIP3    H125097   2.999   6.321   1.363 -0.0638  0.5474 -0.0623
 1154TIP3    H225098   2.876   6.233   1.369 -0.1186  0.5361 -1.1238
 1155TIP3   OH225099   4.099   1.909   8.449 -0.6988  0.4289 -0.1074
 1155TIP3    H125100   4.136   1.824   8.426 -1.3401 -0.0595  0.5968
 1155TIP3    H225101   4.013   1.910   8.407 -0.1002  1.3855 -1.3907
 1156TIP3   OH225102   4.416   0.631   7.073 -0.0103 -0.4890 -0.6124
 1156TIP3    H125103   4.413   0.548   7.025 -0.8470 -0.8597  0.0599
 1156TIP3    H225104   4.490   0.621   7.133  0.0960 -0.6159 -0.7637
 1157TIP3   OH225105   3.621   5.913   7.883 -0.1337  0.1682  0.1090
 1157TIP3    H125106   3.637   5.864   7.803  0.2470  0.9133 -0.2766
 1157TIP3    H225107   3.535   5.954   7.869  0.8670  2.0474 -0.8366
 1158TIP3   OH225108   0.433   5.495   8.449 -0.0343  0.2358  0.0586
 1158TIP3    H125109   0.358   5.533   8.494 -0.0368 -0.5650  0.7623
 1158TIP3    H225110   0.397   5.461   8.367 -1.2786 -3.2782  1.8460
 1159TIP3   OH225111   3.722   6.796   7.902 -0.1622  0.4915 -0.4745
 1159TIP3    H125112   3.731   6.858   7.975  1.2373 -0.4662  0.2105
 1159TIP3    H225113   3.731   6.850   7.824 -0.6128  1.3803  0.0662
 1160TIP3   OH225114   0.623   1.391   1.496  0.0113  0.9734  0.2572
 1160TIP3    H125115   0.529   1.381   1.477  0.2914  1.5443 -1.7012
 1160TIP3    H225116   0.641   1.483   1.476  1.1596  0.6459 -0.2768
 1161TIP3   OH225117   5.423   4.068   7.582  0.3660 -0.8764 -0.0893
 1161TIP3    H125118   5.332   4.052   7.607  0.7954 -0.4923  1.9340
 1161TIP3    H225119   5.473   3.998   7.625  1.1386 -0.4468 -0.2539
 1162TIP3   OH225120   1.048   4.513   1.766  0.0711 -0.3019 -0.1360
 1162TIP3    H125121   1.021   4.543   1.680 -2.1840  2.4622  1.3716
 1162TIP3    H225122   1.128   4.563   1.785 -0.1641  0.0835 -0.1428
 1163TIP3   OH225123   3.048   4.679   1.246 -0.0543  0.2905 -0.2602
 1163TIP3    H125124   3.028   4.589   1.272 -1.6131  0.7004  0.0857
 1163TIP3    H225125   3.138   4.676   1.216  0.2020 -1.2177  0.5598
 1164TIP3   OH225126   0.026   1.550   1.157 -0.0743 -0.4056  0.2017
 1164TIP3    H125127   0.055   1.481   1.097  0.4349  0.0747 -0.1153
 1164TIP3    H225128   0.084   1.624   1.138 -0.1162 -0.1386  1.0602
 1165TIP3   OH225129   1.340   1.511   7.616 -0.0210  0.0412 -0.0898
 1165TIP3    H125130   1.369   1.508   7.525 -0.4880  1.3834 -0.3062
 1165TIP3    H225131   1.250   1.479   7.613 -0.2761  0.7599 -0.2173
 1166TIP3   OH225132   6.026   6.002   7.851  0.1810  0.0648  0.3686
 1166TIP3    H125133   5.999   5.932   7.910 -0.4337  0.7022  0.8641
 1166TIP3    H225134   6.060   5.957   7.774 -0.5732 -0.7675  0.5096
 1167TIP3   OH225135   0.391   2.262   8.472 -0.2953 -0.0807 -0.2013
 1167TIP3    H125136   0.466   2.208   8.449 -0.7414  0.0410 -2.1447
 1167TIP3    H225137   0.397   2.272   8.567  1.8525 -0.4823 -0.2308
 1168TIP3   OH225138   4.370   6.113   2.883  0.9621  0.3789 -0.8436
 1168TIP3    H125139   4.292   6.089   2.834  1.7057 -1.1547 -1.3189
 1168TIP3    H225140   4.438   6.053   2.853  2.1707  1.2320  0.0436
 1169TIP3   OH225141   4.695   3.016   0.619  0.5221 -0.4572 -0.5713
 1169TIP3    H125142   4.653   3.088   0.573 -0.2768 -1.4539 -1.4464
 1169TIP3    H225143   4.651   3.012   0.704  1.2055  0.6394 -0.1310
 1170TIP3   OH225144   6.112   3.719   6.929 -0.4666 -0.1279  0.2840
 1170TIP3    H125145   6.059   3.765   6.863  0.4200 -0.1429 -0.4687
 1170TIP3    H225146   6.201   3.752   6.915 -0.1041 -0.8351  0.8443
 1171TIP3   OH225147   0.557   2.899   8.334 -0.2032  0.0131 -0.1732
 1171TIP3    H125148   0.487   2.916   8.270  0.5186  0.8809 -0.7462
 1171TIP3    H225149   0.578   2.807   8.322  0.1764  0.2488 -1.4675
 1172TIP3   OH225150   0.864   0.037   8.625  0.4563 -0.0495  0.6025
 1172TIP3    H125151   0.928   0.079   8.683  1.3793  1.3891 -1.3762
 1172TIP3    H225152   0.779   0.053   8.668  1.0837  1.1505  1.4669
 1173TIP3   OH225153   0.625   3.426   1.099 -0.7200  0.9606  0.0260
 1173TIP3    H125154   0.573   3.377   1.161 -0.3525 -2.7986 -2.3195
 1173TIP3    H225155   0.562   3.459   1.035 -0.6535 -0.4189 -0.7997
 1174TIP3   OH225156   5.561   1.432   1.866 -0.6512 -0.5167 -0.1204
 1174TIP3    H125157   5.609   1.366   1.816 -0.0188 -0.7594  0.7862
 1174TIP3    H225158   5.609   1.440   1.949 -1.6737 -0.1339  0.4605
 1175TIP3   OH225159   5.235   1.414   2.739 -0.6385 -0.2221 -0.3045
 1175TIP3    H125160   5.248   1.322   2.718  0.4704 -0.1344 -0.0482
 1175TIP3    H225161   5.165   1.414   2.804 -0.8143 -0.8618 -0.4853
 1176TIP3   OH225162   0.982   0.590   2.113 -0.0098  0.3535  0.1168
 1176TIP3    H125163   1.019   0.519   2.166  0.1696 -0.2240 -0.7577
 1176TIP3    H225164   1.024   0.669   2.146 -0.3141  0.0770  1.2002
 1177TIP3   OH225165   0.934   2.058   0.024  0.2675  0.6031  0.4947
 1177TIP3    H125166   0.941   1.963   0.014  1.8310  0.7691 -0.3734
 1177TIP3    H225167   0.855   2.071   0.077 -0.9290 -1.0794 -0.7834
 1178TIP3   OH225168   2.834   5.886   8.053 -1.2035  0.2416 -0.0276
 1178TIP3    H125169   2.847   5.894   7.958 -0.7118 -2.7329 -0.3154
 1178TIP3    H225170   2.748   5.923   8.069 -0.9960  1.4466 -1.5101
 1179TIP3   OH225171   3.995   3.986   7.737  0.8033  0.2636  0.1316
 1179TIP3    H125172   3.908   4.017   7.763 -0.1752 -1.1404 -1.2882
 1179TIP3    H225173   4.051   4.064   7.743 -0.9128  1.6111 -0.5051
 1180TIP3   OH225174   2.863   1.854   2.398 -0.1117  0.1698  0.0516
 1180TIP3    H125175   2.860   1.849   2.494  1.1912  2.8905  0.3151
 1180TIP3    H225176   2.946   1.812   2.375  0.1877  0.6371  0.2521
 1181TIP3   OH225177   2.036   2.115   7.850  0.2330 -0.0183 -0.7729
 1181TIP3    H125178   1.997   2.073   7.773 -0.5577 -0.0891 -0.3527
 1181TIP3    H225179   2.128   2.128   7.828  1.3743 -4.7308  0.1277
 1182TIP3   OH225180   1.924   6.002   7.143 -0.0469 -0.5770  0.1381
 1182TIP3    H125181   1.927   5.928   7.082 -0.0093 -0.5487  0.1046
 1182TIP3    H225182   1.982   6.067   7.104 -0.6808 -0.2259 -0.2350
 1183TIP3   OH225183   5.668   3.126   3.237  0.3466 -0.5028  0.0863
 1183TIP3    H125184   5.672   3.145   3.331  1.1300  0.0187 -0.0419
 1183TIP3    H225185   5.702   3.205   3.196  0.1647 -0.7953 -0.6307
 1184TIP3   OH225186   0.594   6.298   7.271  0.0006 -0.8272 -0.1641
 1184TIP3    H125187   0.511   6.326   7.311  1.1911  0.5892  1.4984
 1184TIP3    H225188   0.631   6.379   7.235  1.3495 -1.1217  0.5085
 1185TIP3   OH225189   1.694   3.023   0.387 -0.3862  0.0335 -0.0825
 1185TIP3    H125190   1.600   3.008   0.382 -0.5937  0.9652  0.6451
 1185TIP3    H225191   1.705   3.076   0.466  0.7188  0.1564 -0.3069
 1186TIP3   OH225192   2.222   2.749   7.590 -0.5889  0.1816 -0.4753
 1186TIP3    H125193   2.137   2.753   7.547 -2.0799  0.8445  2.3334
 1186TIP3    H225194   2.219   2.669   7.643  0.2478  0.5710  0.1959
 1187TIP3   OH225195   3.410   0.573   7.973  0.1892 -0.3999  0.1451
 1187TIP3    H125196   3.352   0.628   7.920 -1.4494 -1.7795  0.4309
 1187TIP3    H225197   3.368   0.487   7.974  1.6949 -1.1801  1.2813
 1188TIP3   OH225198   2.894   6.235   2.071 -0.2805 -0.3280  0.1431
 1188TIP3    H125199   2.837   6.304   2.104 -2.1570 -1.1552 -1.2135
 1188TIP3    H225200   2.969   6.281   2.033 -0.3935  0.8249  1.2734
 1189TIP3   OH225201   1.155   0.438   8.788 -0.4520 -0.4220 -0.0329
 1189TIP3    H125202   1.248   0.415   8.786 -0.5851 -1.1816  1.5728
 1189TIP3    H225203   1.143   0.485   8.870 -1.3208  0.5135 -0.6676
 1190TIP3   OH225204   3.220   3.843   2.323 -0.3608 -0.1227 -0.1632
 1190TIP3    H125205   3.240   3.811   2.235 -2.0403 -2.3276  0.1805
 1190TIP3    H225206   3.230   3.766   2.379 -3.2461  0.2160  0.9386
 1191TIP3   OH225207   5.145   4.093   0.302  0.1444 -0.7688 -0.0530
 1191TIP3    H125208   5.175   4.042   0.377  1.3015 -2.3353 -1.5154
 1191TIP3    H225209   5.062   4.053   0.276 -0.9395  0.6049  1.1323
 1192TIP3   OH225210   5.299   2.394   6.948  0.3770  0.5037 -0.3658
 1192TIP3    H125211   5.381   2.378   6.901  1.2498 -0.0427  1.2789
 1192TIP3    H225212   5.294   2.324   7.013 -1.0801  0.9124 -0.0015
 1193TIP3   OH225213   1.038   1.987   8.111  0.6836  0.3347  0.4985
 1193TIP3    H125214   0.964   2.029   8.155  1.3270 -1.3102  3.3415
 1193TIP3    H225215   1.011   1.983   8.019 -2.6513  0.0875  1.3572
 1194TIP3   OH225216   3.318   4.434   7.995  0.1346 -0.8796  0.1042
 1194TIP3    H125217   3.287   4.343   8.000 -1.1178 -0.5591 -1.3058
 1194TIP3    H225218   3.406   4.427   7.957  0.5366 -1.5661  1.1090
 1195TIP3   OH225219   6.386   3.802   1.549 -0.0026 -0.3937 -0.3748
 1195TIP3    H125220   6.344   3.886   1.569  1.0337  1.0007 -3.4285
 1195TIP3    H225221   6.326   3.736   1.584 -1.3443  1.5618  1.2820
 1196TIP3   OH225222   4.439   2.695   2.809  0.2048  0.0856 -0.4946
 1196TIP3    H125223   4.451   2.708   2.903  0.2639  1.1680 -0.6379
 1196TIP3    H225224   4.467   2.777   2.770  2.5248 -1.1461 -1.6588
 1197TIP3   OH225225   6.604   4.592   7.432 -0.2862 -0.5199  0.2469
 1197TIP3    H125226   6.565   4.638   7.506 -2.0513 -1.0247 -0.3375
 1197TIP3    H225227   6.606   4.657   7.362 -2.6344 -1.2142 -0.5313
 1198TIP3   OH225228   5.937   0.113   0.957  0.5446  0.1313 -0.0955
 1198TIP3    H125229   5.960   0.197   0.917  1.2791 -0.5403 -1.1482
 1198TIP3    H225230   5.954   0.049   0.888  1.4103 -1.0213  1.1510
 1199TIP3   OH225231   3.058   1.004   0.977 -0.1890 -0.4011 -0.0528
 1199TIP3    H125232   2.999   1.075   0.951  0.6590  0.9063  1.4154
 1199TIP3    H225233   3.000   0.939   1.019 -0.7713  0.1949  0.0816
 1200TIP3   OH225234   2.178   4.338   7.669  0.2163  0.2326  0.1757
 1200TIP3    H125235   2.100   4.356   7.616 -0.7074 -0.5239  1.2371
 1200TIP3    H225236   2.166   4.249   7.700  1.5734  0.0696  0.2813
 1201TIP3   OH225237   6.661   5.206   2.228 -0.0248 -0.5481  0.4216
 1201TIP3    H125238   6.575   5.209   2.269 -0.3460  0.2743 -0.2679
 1201TIP3    H225239   6.666   5.288   2.179  0.2763 -1.5307 -1.2789
 1202TIP3   OH225240   1.409   4.717   0.290  0.1106 -0.1260  0.3016
 1202TIP3    H125241   1.438   4.804   0.317  0.4718 -0.7121  1.9300
 1202TIP3    H225242   1.440   4.708   0.200  0.7292  1.1330  0.3691
 1203TIP3   OH225243   4.825   0.049   8.799 -0.6486  0.5939  0.1829
 1203TIP3    H125244   4.786   0.099   8.871 -0.4334  0.1595  0.6091
 1203TIP3    H225245   4.837  -0.039   8.836  1.1671  0.8251  0.2124
 1204TIP3   OH225246   0.308   3.161   8.825 -0.4541  0.3923  0.0093
 1204TIP3    H125247   0.338   3.071   8.812 -1.8681 -0.3839  1.6498
 1204TIP3    H225248   0.222   3.163   8.784 -1.7905  0.0120  2.5913
 1205TIP3   OH225249   2.992   0.924   2.464  0.2110 -0.1299 -0.4613
 1205TIP3    H125250   2.942   0.988   2.514 -0.8039 -0.9817 -0.3480
 1205TIP3    H225251   3.062   0.895   2.523 -1.0633 -1.2421  0.5776
 1206TIP3   OH225252   0.939   1.890   8.392 -0.5203 -0.1032 -0.1385
 1206TIP3    H125253   0.945   1.980   8.363 -0.8654 -0.5036 -1.5113
 1206TIP3    H225254   0.853   1.860   8.362 -1.0760 -0.4428  1.6559
 1207TIP3   OH225255   6.614   4.667   0.864  0.1759 -0.0425 -0.7868
 1207TIP3    H125256   6.562   4.652   0.785  0.8961 -0.4683 -1.1873
 1207TIP3    H225257   6.564   4.623   0.934 -0.4186  0.2668 -1.0173
 1208TIP3   OH225258   2.074   3.860   8.822 -0.2388  0.4284  0.0306
 1208TIP3    H125259   2.009   3.792   8.839  0.4555 -0.0491  0.8726
 1208TIP3    H225260   2.035   3.914   8.754 -0.6860 -0.9865 -0.8826
 1209TIP3   OH225261   6.129   2.745   0.475 -0.1003 -1.0111 -0.2947
 1209TIP3    H125262   6.101   2.811   0.539  0.5005 -0.9627 -0.0790
 1209TIP3    H225263   6.155   2.795   0.398 -2.1671 -1.1181 -1.1535
 1210TIP3   OH225264   2.123   3.384   1.727 -0.6978 -0.3125  0.0322
 1210TIP3    H125265   2.121   3.363   1.820  0.9569  1.6401  0.5509
 1210TIP3    H225266   2.113   3.299   1.683 -2.1363 -1.2006  1.9286
 1211TIP3   OH225267   3.799   0.959   1.655 -0.2275  0.0127 -0.4424
 1211TIP3    H125268   3.855   0.949   1.579 -1.2230 -0.1677 -1.1758
 1211TIP3    H225269   3.835   0.898   1.720  0.0786 -0.5077 -1.0946
 1212TIP3   OH225270   5.179   0.195   0.146 -0.2936 -0.5250  0.0966
 1212TIP3    H125271   5.137   0.118   0.184  0.3634 -0.8953  0.0817
 1212TIP3    H225272   5.214   0.243   0.221 -2.0413  0.5991  0.2613
 1213TIP3   OH225273   5.163   3.193   2.180 -0.6564  0.1016  0.1053
 1213TIP3    H125274   5.181   3.281   2.214  0.0825  0.0340 -0.0960
 1213TIP3    H225275   5.191   3.196   2.089  1.8616 -1.0575  0.7420
 1214TIP3   OH225276   3.947   2.966   1.319 -0.2535 -0.3965 -0.4525
 1214TIP3    H125277   4.027   2.957   1.267 -0.8524 -1.4098 -1.2411
 1214TIP3    H225278   3.942   2.885   1.369 -0.8636 -0.4105 -0.5331
 1215TIP3   OH225279   6.425   6.697   7.207 -0.4891 -0.2443  0.0104
 1215TIP3    H125280   6.515   6.729   7.206 -1.2937  2.2217  0.1948
 1215TIP3    H225281   6.410   6.663   7.119  0.3456  0.1313 -0.2871
 1216TIP3   OH225282   2.199   0.626   8.674 -0.1575 -0.4576  0.7180
 1216TIP3    H125283   2.128   0.675   8.633 -0.1522 -0.4238  0.7494
 1216TIP3    H225284   2.190   0.644   8.768 -0.2035 -0.5787  0.7385
 1217TIP3   OH225285   4.191   4.989   0.817  0.0744  0.0946 -0.0456
 1217TIP3    H125286   4.231   5.026   0.896  0.7206 -0.5444 -0.0616
 1217TIP3    H225287   4.134   5.058   0.784 -0.2484  0.3502  1.0138
 1218TIP3   OH225288   4.730   4.610   7.291 -0.3358 -0.4836  0.5358
 1218TIP3    H125289   4.791   4.628   7.363 -0.2336 -1.4042  0.6894
 1218TIP3    H225290   4.747   4.520   7.267  0.6377  0.2290 -1.6484
 1219TIP3   OH225291   0.803   3.969   7.616 -0.1030  0.3598  0.3332
 1219TIP3    H125292   0.859   3.909   7.664  1.1604  0.5672 -0.8116
 1219TIP3    H225293   0.833   4.056   7.642  0.9365  0.4766 -1.1560
 1220TIP3   OH225294   2.451   6.190   0.467  0.1160 -0.1098  0.2338
 1220TIP3    H125295   2.502   6.253   0.517 -0.5890  0.9930 -0.3891
 1220TIP3    H225296   2.426   6.123   0.530 -0.4798  1.0745  1.2809
 1221TIP3   OH225297   0.601   2.625   0.726  0.1194  0.5932  0.4060
 1221TIP3    H125298   0.670   2.581   0.776  0.1029  1.6212  1.3622
 1221TIP3    H225299   0.522   2.575   0.745  0.7852 -1.5617 -1.9187
 1222TIP3   OH225300   2.055   5.854   0.311 -0.4286 -0.4163 -0.1499
 1222TIP3    H125301   2.069   5.931   0.366  0.0480  0.7891 -1.9146
 1222TIP3    H225302   1.969   5.821   0.338 -0.1610  0.0623  1.3799
 1223TIP3   OH225303   6.812   3.405   0.978  0.2296 -0.2321  0.1061
 1223TIP3    H125304   6.883   3.344   0.957  0.4126  0.2681 -0.7966
 1223TIP3    H225305   6.796   3.392   1.071  0.0731 -1.8565 -0.1166
 1224TIP3   OH225306   3.475   2.707   1.948  0.5066 -0.1452  0.2493
 1224TIP3    H125307   3.569   2.727   1.945  0.1537  1.6375  0.0580
 1224TIP3    H225308   3.452   2.717   2.041  0.5468 -0.9068  0.3516
 1225TIP3   OH225309   3.261   4.260   7.047 -0.3140  0.1020 -0.4666
 1225TIP3    H125310   3.211   4.212   6.980  0.5504  0.5533 -1.4690
 1225TIP3    H225311   3.346   4.217   7.049 -0.7049 -0.6413  1.2064
 1226TIP3   OH225312   0.216   5.374   3.203 -0.6576 -0.3288  0.4694
 1226TIP3    H125313   0.205   5.467   3.221  0.5178  0.4872 -2.4612
 1226TIP3    H225314   0.288   5.370   3.140  1.5137 -3.5114  2.8106
 1227TIP3   OH225315   3.052   3.391   2.217 -0.7743 -0.0631  0.4343
 1227TIP3    H125316   3.128   3.413   2.163  1.4791 -1.0551  2.9842
 1227TIP3    H225317   3.055   3.453   2.290 -2.7877  0.2324  0.3180
 1228TIP3   OH225318   0.144   6.692   0.258 -0.3125  0.0036  0.0221
 1228TIP3    H125319   0.184   6.606   0.269 -0.0130 -0.0119 -1.1318
 1228TIP3    H225320   0.123   6.697   0.165  1.7961  2.0951 -0.4284
 1229TIP3   OH225321   0.181   2.455   0.389 -0.0617 -0.2556 -0.4327
 1229TIP3    H125322   0.160   2.435   0.298  0.7373  0.8152 -0.8782
 1229TIP3    H225323   0.242   2.529   0.384 -0.2403  0.0193  0.9854
 1230TIP3   OH225324   1.164   0.610   7.025 -0.2159  0.0308 -0.3437
 1230TIP3    H125325   1.228   0.674   6.993 -0.5317 -0.5111 -2.1748
 1230TIP3    H225326   1.131   0.648   7.107 -0.1886  2.0828 -1.2124
 1231TIP3   OH225327   6.455   0.765   7.989 -0.0626 -0.0018 -0.5619
 1231TIP3    H125328   6.548   0.751   7.975  0.1528  0.2093  0.5771
 1231TIP3    H225329   6.416   0.678   7.979  0.3326 -0.1949 -0.4454
 1232TIP3   OH225330   5.960   1.379   0.148  0.5196 -0.6946 -0.4495
 1232TIP3    H125331   5.964   1.369   0.053 -1.5189  0.9835 -0.7991
 1232TIP3    H225332   6.023   1.448   0.167  0.0311 -0.1392 -0.7929
 1233TIP3   OH225333   1.441   1.650   7.993  0.2466  0.5611 -0.2503
 1233TIP3    H125334   1.396   1.700   8.060  0.6842  1.2219 -0.4383
 1233TIP3    H225335   1.445   1.708   7.918 -0.8099 -0.4042 -1.0829
 1234TIP3   OH225336   4.833   5.521   0.716 -0.1327  0.5250  0.2024
 1234TIP3    H125337   4.779   5.446   0.693 -1.2780  1.5553 -0.5585
 1234TIP3    H225338   4.842   5.570   0.635  2.4326  0.1349  0.1516
 1235TIP3   OH225339   1.883   0.293   7.921  0.1193  0.5405  0.4927
 1235TIP3    H125340   1.888   0.219   7.860  0.8916  0.8587  0.1570
 1235TIP3    H225341   1.794   0.327   7.910 -1.1810 -1.8517  2.4847
 1236TIP3   OH225342   6.759   6.019   6.892 -0.2474  0.5691 -0.1614
 1236TIP3    H125343   6.805   6.098   6.863  0.1686  0.0555 -0.9559
 1236TIP3    H225344   6.734   5.975   6.811  0.4553 -0.6415  0.2385
 1237TIP3   OH225345   3.192   6.165   0.452  0.4541  1.2705 -0.1824
 1237TIP3    H125346   3.177   6.253   0.487  1.4354  1.1018  0.7096
 1237TIP3    H225347   3.187   6.107   0.528 -1.1786  0.4052 -0.9036
 1238TIP3   OH225348   1.576   0.702   8.447  0.1369 -0.0156 -0.4025
 1238TIP3    H125349   1.517   0.641   8.403 -0.4480  0.8470 -0.8666
 1238TIP3    H225350   1.637   0.730   8.378  0.2324  0.1147 -0.2644
 1239TIP3   OH225351   4.955   5.555   1.610 -0.3409 -0.0307 -0.3201
 1239TIP3    H125352   5.050   5.545   1.617 -0.1422  0.9409 -1.3497
 1239TIP3    H225353   4.920   5.504   1.682  0.9606 -0.5638 -0.0431
 1240TIP3   OH225354   3.206   4.580   2.614  0.0845 -0.3549 -0.3262
 1240TIP3    H125355   3.141   4.539   2.671 -0.3417  2.1329  1.1372
 1240TIP3    H225356   3.159   4.651   2.571  1.1678 -0.2798 -1.4373
 1241TIP3   OH225357   1.176   1.373   1.829  0.0274 -0.1084 -0.3956
 1241TIP3    H125358   1.127   1.336   1.756  0.2422 -1.4475  0.1134
 1241TIP3    H225359   1.115   1.372   1.903  0.5258 -0.9384  0.0147
 1242TIP3   OH225360   1.736   2.976   0.108 -0.1754  0.7117  0.3553
 1242TIP3    H125361   1.824   2.938   0.112  0.9158  2.8686 -1.1173
 1242TIP3    H225362   1.705   2.975   0.199  0.5412 -1.7930  0.6436
 1243TIP3   OH225363   1.054   1.479   8.499  0.3143  0.4009 -0.4712
 1243TIP3    H125364   0.976   1.430   8.472  0.6305 -0.6513  0.4532
 1243TIP3    H225365   1.070   1.539   8.426 -0.6654 -0.1876 -1.2072
 1244TIP3   OH225366   0.640   3.281   7.912 -0.2674  0.3848 -0.0331
 1244TIP3    H125367   0.553   3.266   7.877 -0.4916  3.5415 -1.0877
 1244TIP3    H225368   0.658   3.374   7.896  1.9293  0.7051  3.1742
 1245TIP3   OH225369   5.143   1.302   8.798  0.6217 -0.3269  0.2165
 1245TIP3    H125370   5.195   1.238   8.750 -0.5069 -1.2553  0.1523
 1245TIP3    H225371   5.151   1.275   8.890 -0.5168 -1.1050  0.1102
 1246TIP3   OH225372   6.180   6.820   7.338  0.3168 -0.3436 -0.5191
 1246TIP3    H125373   6.231   6.742   7.318 -0.3076 -0.9061  0.0424
 1246TIP3    H225374   6.157   6.857   7.253 -1.0064 -1.8392 -0.8508
 1247TIP3   OH225375   5.300   2.128   8.046 -0.2019 -0.3177 -0.0645
 1247TIP3    H125376   5.304   2.047   7.996 -1.2482 -0.5574  0.2268
 1247TIP3    H225377   5.285   2.196   7.980  1.7074 -0.1953 -0.4316
 1248TIP3   OH225378   5.219   0.106   1.510  0.5017  0.3657 -0.4669
 1248TIP3    H125379   5.293   0.120   1.570  0.2574 -1.0312  0.1857
 1248TIP3    H225380   5.176   0.028   1.543 -0.8286  0.7185 -1.3085
 1249TIP3   OH225381   2.499   2.555   0.405 -0.3517 -1.2762 -0.4323
 1249TIP3    H125382   2.423   2.596   0.364  0.2449 -1.6228 -1.9396
 1249TIP3    H225383   2.491   2.462   0.382  0.1186 -1.4459  0.0679
 1250TIP3   OH225384   4.620   1.385   2.551 -0.2979  0.6208 -0.2489
 1250TIP3    H125385   4.615   1.371   2.456 -0.8527  1.5708 -0.3692
 1250TIP3    H225386   4.674   1.313   2.583  0.7804  0.8746 -1.4251
 1251TIP3   OH225387   5.771   0.314   8.625  0.3211  0.3695  0.0525
 1251TIP3    H125388   5.738   0.364   8.701  0.2823 -1.3595  1.2335
 1251TIP3    H225389   5.861   0.292   8.648  0.4721  0.2503 -0.6325
 1252TIP3   OH225390   1.354   1.447   1.079  0.0928 -0.1987 -0.2666
 1252TIP3    H125391   1.414   1.377   1.105  0.6496 -0.2102 -1.5094
 1252TIP3    H225392   1.352   1.442   0.983  0.0358  1.4068 -0.3713
 1253TIP3   OH225393   1.160   0.504   1.717  0.4933  0.0139  0.6776
 1253TIP3    H125394   1.118   0.541   1.640  0.6511  1.7158  1.3578
 1253TIP3    H225395   1.189   0.580   1.767  3.3418 -1.0518  0.8334
 1254TIP3   OH225396   0.840   4.375   8.417 -0.7684  0.0184  0.5578
 1254TIP3    H125397   0.796   4.379   8.332  3.1216  0.7263 -1.6613
 1254TIP3    H225398   0.893   4.295   8.413  1.4629  1.3711  1.1386
 1255TIP3   OH225399   6.030   5.953   1.523  0.4105 -0.3085  0.8695
 1255TIP3    H125400   6.082   5.938   1.445 -0.1120  0.1309  0.4240
 1255TIP3    H225401   5.990   5.869   1.543  0.9475 -0.5456  0.9708
 1256TIP3   OH225402   1.661   4.539   0.547 -0.0302  0.3481 -0.0421
 1256TIP3    H125403   1.750   4.559   0.519  0.6707 -1.1739  0.9464
 1256TIP3    H225404   1.672   4.497   0.633 -1.7608  0.8401  0.4631
 1257TIP3   OH225405   5.537   3.223   1.343 -0.2374 -0.4981 -0.4771
 1257TIP3    H125406   5.492   3.293   1.295  1.2774  0.2960 -0.8034
 1257TIP3    H225407   5.536   3.148   1.283 -0.9743 -0.4481 -0.5373
 1258TIP3   OH225408   3.286   0.453   0.714 -0.1631 -0.0704  0.1523
 1258TIP3    H125409   3.348   0.389   0.678 -1.3197 -0.8451 -0.5237
 1258TIP3    H225410   3.341   0.521   0.752  1.1076 -0.2009 -1.3662
 1259TIP3   OH225411   0.210   5.337   7.183 -0.7521 -0.3837  0.4545
 1259TIP3    H125412   0.258   5.361   7.104 -2.0866  0.3044 -0.1598
 1259TIP3    H225413   0.138   5.283   7.152 -0.9956 -0.5322  1.2669
 1260TIP3   OH225414   4.242   1.352   1.505  0.6552 -0.0529 -0.0962
 1260TIP3    H125415   4.335   1.346   1.528  1.1280  1.7748 -1.2921
 1260TIP3    H225416   4.218   1.263   1.479  2.3646 -0.3564 -0.7926
 1261TIP3   OH225417   0.267   6.804   7.116  0.2076  0.2661  0.1598
 1261TIP3    H125418   0.267   6.711   7.092 -1.0356  0.0190  0.9971
 1261TIP3    H225419   0.193   6.813   7.176  0.3078  1.8087  0.0926
 1262TIP3   OH225420   6.312   6.632   1.805 -0.2575  0.6273 -0.0717
 1262TIP3    H125421   6.374   6.691   1.849  1.0018  0.0394 -0.9687
 1262TIP3    H225422   6.367   6.559   1.776 -1.5973 -0.4783  0.0957
 1263TIP3   OH225423   1.470   4.091   8.760 -0.0665  0.0784 -0.3139
 1263TIP3    H125424   1.378   4.083   8.784 -0.1090 -0.3656 -0.6160
 1263TIP3    H225425   1.477   4.180   8.724 -0.3792  0.1072 -0.3097
 1264TIP3   OH225426   5.611   0.089   1.400  0.1184 -0.4513 -0.0677
 1264TIP3    H125427   5.644   0.005   1.431  0.3305  0.2144  1.6655
 1264TIP3    H225428   5.672   0.115   1.331 -0.5699 -2.1666 -1.4124
 1265TIP3   OH225429   2.350   3.436   7.508 -0.5450  0.9553 -0.3466
 1265TIP3    H125430   2.278   3.467   7.562 -0.6400  0.8772 -0.4296
 1265TIP3    H225431   2.310   3.377   7.445 -0.1121 -0.8676  0.9904
 1266TIP3   OH225432   0.895   5.191   1.193  0.5862  0.3139 -0.3322
 1266TIP3    H125433   0.840   5.151   1.125  0.0280  0.3850  0.0660
 1266TIP3    H225434   0.860   5.157   1.275  1.4013  0.0537 -0.0862
 1267TIP3   OH225435   2.672   4.424   1.167  0.0102  0.4026  0.1638
 1267TIP3    H125436   2.685   4.490   1.099 -0.6570  1.0217  0.6270
 1267TIP3    H225437   2.673   4.340   1.120  0.0999  0.7894 -0.5310
 1268TIP3   OH225438   1.933   1.555   7.661 -0.2259  0.3507  0.0040
 1268TIP3    H125439   2.014   1.531   7.616  2.0733  1.2513  3.2642
 1268TIP3    H225440   1.918   1.484   7.723 -1.6621  0.4395 -0.2143
 1269TIP3   OH225441   1.593   1.193   8.405 -0.2476  0.2890  0.1656
 1269TIP3    H125442   1.503   1.199   8.437 -0.0495  0.9710  0.6090
 1269TIP3    H225443   1.606   1.273   8.354 -0.3622 -0.5011 -1.1336
 1270TIP3   OH225444   0.774   6.316   0.072  0.1141 -1.1464  0.3612
 1270TIP3    H125445   0.714   6.270   0.130 -0.9741 -0.5942 -0.2843
 1270TIP3    H225446   0.858   6.312   0.116 -1.0841  1.4147  3.3131
 1271TIP3   OH225447   3.389   0.686   0.788 -0.2140 -0.1945 -0.4949
 1271TIP3    H125448   3.354   0.736   0.862  0.3472  0.3818 -0.6012
 1271TIP3    H225449   3.346   0.724   0.712  0.1804  0.1088 -0.5719
 1272TIP3   OH225450   0.406   3.304   0.692 -0.3279 -0.1768 -0.2531
 1272TIP3    H125451   0.334   3.360   0.663 -1.4712 -0.4210  1.9262
 1272TIP3    H225452   0.370   3.215   0.688 -0.7590 -0.1856  2.2731
 1273TIP3   OH225453   2.051   5.405   1.567 -0.2889  0.2761 -0.1091
 1273TIP3    H125454   2.093   5.327   1.531 -0.1811  0.5458 -0.5819
 1273TIP3    H225455   2.099   5.423   1.648 -1.0580 -0.8113  0.6211
 1274TIP3   OH225456   0.194   4.474   1.940 -0.4283  0.4101 -0.5250
 1274TIP3    H125457   0.200   4.453   1.847 -0.8804  1.9857 -0.9518
 1274TIP3    H225458   0.162   4.394   1.982  2.6557 -1.3230 -1.2421
 1275TIP3   OH225459   2.446   3.195   1.517 -0.2363 -0.4248 -0.3345
 1275TIP3    H125460   2.438   3.263   1.585  0.5740  1.4806 -2.0317
 1275TIP3    H225461   2.404   3.118   1.556 -0.3468  0.7329  2.0804
 1276TIP3   OH225462   3.850   3.632   8.695  0.1482 -0.4777 -0.3123
 1276TIP3    H125463   3.925   3.621   8.753 -0.7842 -0.2523  0.9991
 1276TIP3    H225464   3.791   3.690   8.743 -1.3549 -1.5431 -0.7941
 1277TIP3   OH225465   5.448   4.302   8.132  0.3744  0.3285 -0.7462
 1277TIP3    H125466   5.486   4.266   8.052  1.1090  0.1495 -0.3271
 1277TIP3    H225467   5.372   4.351   8.103 -0.3675 -1.1430 -1.4061
 1278TIP3   OH225468   1.693   3.930   0.623  0.1648 -0.2823 -0.1047
 1278TIP3    H125469   1.766   3.962   0.675  0.1637  0.0022 -0.2775
 1278TIP3    H225470   1.619   3.984   0.650  0.0955 -0.3418 -0.1742
 1279TIP3   OH225471   2.325   6.541   1.537  0.1207  0.8746 -0.5085
 1279TIP3    H125472   2.385   6.616   1.540  1.6689 -0.3506  0.4990
 1279TIP3    H225473   2.257   6.563   1.601  0.6343  1.3669 -0.1190
 1280TIP3   OH225474   1.362   0.387   0.480 -0.5013 -0.4339  1.0709
 1280TIP3    H125475   1.312   0.341   0.547 -0.1624 -0.6298  1.1925
 1280TIP3    H225476   1.296   0.426   0.423 -0.7907 -0.6088  1.2845
 1281TIP3   OH225477   0.005   3.684   7.903 -0.3044 -0.2200  0.5903
 1281TIP3    H125478  -0.005   3.772   7.938 -0.8883 -0.0509  0.0089
 1281TIP3    H225479  -0.018   3.626   7.975 -1.1170  0.1203  0.6066
 1282TIP3   OH225480   3.706   3.134   1.304  0.3207  0.2393 -0.0122
 1282TIP3    H125481   3.786   3.081   1.301  1.3238  1.6106  1.1195
 1282TIP3    H225482   3.656   3.106   1.227  1.6939 -0.9286 -0.5371
 1283TIP3   OH225483   1.236   2.787   1.781  0.3598  0.9356  0.2340
 1283TIP3    H125484   1.263   2.866   1.828 -1.3773  1.7692 -0.0547
 1283TIP3    H225485   1.197   2.820   1.700  0.1638 -0.2691 -0.1816
 1284TIP3   OH225486   0.656   2.954   1.339  0.1317 -0.2479  0.0146
 1284TIP3    H125487   0.732   2.985   1.289  0.8389 -2.7443 -0.6299
 1284TIP3    H225488   0.688   2.949   1.429  0.3799 -0.2518 -0.0724
 1285TIP3   OH225489   2.013   5.247   8.509  0.0916  0.1198  0.1042
 1285TIP3    H125490   2.044   5.192   8.581 -0.0069 -0.3772 -0.2257
 1285TIP3    H225491   1.932   5.286   8.542  0.2210  0.1572  0.3815
 1286TIP3   OH225492   0.014   1.914   7.231 -0.2794  0.5271 -0.4518
 1286TIP3    H125493  -0.010   2.005   7.245  0.0863  0.4310  0.9630
 1286TIP3    H225494   0.110   1.914   7.234 -0.2458  0.2378 -1.4248
 1287TIP3   OH225495   2.812   6.034   0.321 -0.1056 -0.6171  0.2594
 1287TIP3    H125496   2.848   6.006   0.237  0.0657 -0.2361  0.2059
 1287TIP3    H225497   2.821   6.129   0.321  0.1103 -0.6347  0.8060
 1288TIP3   OH225498   3.796   5.119   1.888  0.5458 -0.3172  0.6370
 1288TIP3    H125499   3.801   5.176   1.964  2.5215 -0.6031  0.7775
 1288TIP3    H225500   3.857   5.048   1.907  1.8374  0.1004 -1.5895
 1289TIP3   OH225501   6.615   4.058   0.356 -0.0271 -0.2199  0.3217
 1289TIP3    H125502   6.642   4.047   0.265  1.8973  0.8406  0.7101
 1289TIP3    H225503   6.569   4.142   0.357 -1.1587 -0.8139  0.1366
 1290TIP3   OH225504   5.443   1.431   0.333  0.3095 -0.6906 -0.4166
 1290TIP3    H125505   5.449   1.520   0.300 -0.4666 -0.0744  1.0480
 1290TIP3    H225506   5.533   1.398   0.330  0.3311 -0.5741 -2.7742
 1291TIP3   OH225507   4.293   5.065   1.953  0.3649 -0.2614 -0.9288
 1291TIP3    H125508   4.295   5.139   2.014  3.3287 -0.5808 -0.5078
 1291TIP3    H225509   4.373   5.075   1.901 -0.4628 -1.8047 -2.5757
 1292TIP3   OH225510   2.714   0.210   0.429  0.5807 -0.2204 -0.0906
 1292TIP3    H125511   2.750   0.267   0.361  2.2246 -0.6460  0.3739
 1292TIP3    H225512   2.622   0.200   0.406  0.8794  0.4364 -1.6907
 1293TIP3   OH225513   4.242   6.294   2.577  0.0072 -0.1680  0.4183
 1293TIP3    H125514   4.182   6.237   2.626 -1.4726  0.6005 -0.3982
 1293TIP3    H225515   4.196   6.378   2.574  0.4188  0.0206 -1.5668
 1294TIP3   OH225516   1.230   4.881   1.361  0.1619  0.0579 -0.3457
 1294TIP3    H125517   1.235   4.975   1.344 -1.9026  0.2224 -0.2105
 1294TIP3    H225518   1.253   4.840   1.278 -0.7331  0.7240 -0.9372
 1295TIP3   OH225519   2.302   5.716   2.059 -0.3127 -0.5268 -0.3571
 1295TIP3    H125520   2.380   5.662   2.043 -0.0050 -0.5384  1.0710
 1295TIP3    H225521   2.337   5.802   2.084 -0.7491 -0.5197  0.2507
 1296TIP3   OH225522   4.558   1.882   1.574  0.7481  0.7501 -0.7242
 1296TIP3    H125523   4.619   1.813   1.549  0.6014  0.1844  0.4201
 1296TIP3    H225524   4.610   1.945   1.623  0.5551  0.6313 -0.3650
 1297TIP3   OH225525   6.138   0.162   1.173  0.4328 -0.2628  0.0830
 1297TIP3    H125526   6.115   0.255   1.168 -0.4208 -0.4185  0.7794
 1297TIP3    H225527   6.071   0.118   1.121  0.0339 -0.5918  0.8521
 1298TIP3   OH225528   0.704   1.355   0.832 -0.0926 -0.1632 -0.4005
 1298TIP3    H125529   0.695   1.326   0.741  1.2961 -0.5937 -0.4267
 1298TIP3    H225530   0.709   1.450   0.826 -0.7371 -0.1457 -0.7083
 1299TIP3   OH225531   4.021   1.870   2.221 -0.2973  0.1530  0.3991
 1299TIP3    H125532   3.971   1.805   2.172 -0.8012  0.0561  1.0172
 1299TIP3    H225533   4.007   1.846   2.313 -0.0681  0.8315  0.6177
 1300TIP3   OH225534   5.342   5.920   2.436  0.1348  0.8258 -0.0026
 1300TIP3    H125535   5.364   5.911   2.343  1.5591  1.4181  0.2545
 1300TIP3    H225536   5.253   5.955   2.437  0.0909  0.7705 -1.1341
 1301TIP3   OH225537   5.468   1.731   8.638  0.1969 -0.2692 -0.1551
 1301TIP3    H125538   5.523   1.669   8.685 -2.5823 -2.0878  0.9843
 1301TIP3    H225539   5.426   1.783   8.706 -1.3407 -0.6589 -0.7461
 1302TIP3   OH225540   1.473   2.942   1.542  0.3769  0.2228  0.1222
 1302TIP3    H125541   1.428   2.861   1.517 -0.2894  0.3943  0.7309
 1302TIP3    H225542   1.522   2.919   1.621 -0.1315  0.5080  0.5259
 1303TIP3   OH225543   2.182   4.463   1.581  0.4353 -0.0960 -0.2225
 1303TIP3    H125544   2.145   4.538   1.628  1.4532 -1.5215  3.1610
 1303TIP3    H225545   2.277   4.472   1.592  0.7906 -0.2627 -2.5904
 1304TIP3   OH225546   3.386   1.362   1.964  0.0073  0.0775  0.7209
 1304TIP3    H125547   3.357   1.443   2.007 -2.2625 -0.6067  0.6100
 1304TIP3    H225548   3.325   1.295   1.995  0.0897 -1.0395 -1.3308
 1305TIP3   OH225549   6.245   4.354   1.120 -0.4380  0.5425  0.2134
 1305TIP3    H125550   6.311   4.285   1.125 -1.2937 -0.2418  1.3524
 1305TIP3    H225551   6.183   4.324   1.053 -1.6725 -0.6479  1.8008
 1306TIP3   OH225552   2.826   3.591   8.593 -0.2694 -0.1995  0.0250
 1306TIP3    H125553   2.807   3.585   8.499 -1.1548 -0.1434  0.1909
 1306TIP3    H225554   2.803   3.681   8.616 -0.1258 -0.2367  0.3124
 1307TIP3   OH225555   2.478   5.578   0.469  0.3732  0.0192 -0.3174
 1307TIP3    H125556   2.510   5.522   0.398  1.1322  0.2264 -0.1465
 1307TIP3    H225557   2.555   5.595   0.523  0.4803  2.2412 -1.0427
 1308TIP3   OH225558   1.530   5.222   2.516 -0.3097  0.1274  0.4193
 1308TIP3    H125559   1.471   5.148   2.529  0.2554 -0.4375 -0.1606
 1308TIP3    H225560   1.540   5.260   2.603 -1.9245  0.5493  0.4382
 1309TIP3   OH225561   1.908   2.030   7.610  0.1456  0.2400  0.0436
 1309TIP3    H125562   1.972   2.034   7.538 -0.7698 -0.7629 -0.8698
 1309TIP3    H225563   1.827   2.061   7.571  0.2812  2.6536  1.5096
 1310TIP3   OH225564   1.344   3.369   1.312 -0.2297  0.6476  0.0136
 1310TIP3    H125565   1.401   3.319   1.369  1.6894  2.1284 -0.5145
 1310TIP3    H225566   1.295   3.303   1.262  0.0899 -0.6429  1.3522
 1311TIP3   OH225567   0.806   5.194   0.438 -0.4229 -0.7100  0.3306
 1311TIP3    H125568   0.825   5.172   0.347  0.3807 -1.7302  0.7189
 1311TIP3    H225569   0.879   5.249   0.465 -0.6241 -0.4664  0.3797
 1312TIP3   OH225570   1.564   6.333   1.899  0.2711 -0.2975 -0.3498
 1312TIP3    H125571   1.478   6.346   1.937  0.4722 -0.1074  0.0420
 1312TIP3    H225572   1.577   6.238   1.901 -0.3806 -0.4209 -1.4213
 1313TIP3   OH225573   4.205   0.436   8.825 -0.2150  0.3917 -0.1849
 1313TIP3    H125574   4.124   0.470   8.786  0.5269 -0.0591 -2.2818
 1313TIP3    H225575   4.258   0.408   8.750  2.0715  1.0423  1.0766
 1314TIP3   OH225576   0.816   3.231   0.169 -0.3019 -0.7492 -0.2527
 1314TIP3    H125577   0.845   3.321   0.186 -1.8712 -0.3205  0.3349
 1314TIP3    H225578   0.727   3.228   0.204 -0.2882 -2.5316 -0.3128
 1315TIP3   OH225579   5.803   5.763   0.810  0.1214 -0.7011  0.5306
 1315TIP3    H125580   5.802   5.671   0.837  0.0519 -2.1706 -3.7266
 1315TIP3    H225581   5.894   5.780   0.786 -0.0810 -0.0102  0.2175
 1316TIP3   OH225582   0.639   1.108   1.813  0.2062  0.1910  0.8532
 1316TIP3    H125583   0.577   1.047   1.852  0.7281 -0.3673  0.8379
 1316TIP3    H225584   0.624   1.100   1.718  0.4065 -0.0587  0.8424
 1317TIP3   OH225585   3.335   4.153   7.394 -0.3442  0.3169  0.0266
 1317TIP3    H125586   3.286   4.204   7.331 -2.2138 -0.0375  1.1125
 1317TIP3    H225587   3.268   4.109   7.447  1.1440 -0.1049  1.6676
 1318TIP3   OH225588   0.669   6.669   7.872  0.2080  0.1649  0.5412
 1318TIP3    H125589   0.658   6.600   7.937 -0.1679 -0.2080  0.0804
 1318TIP3    H225590   0.594   6.727   7.886 -2.1463 -1.9873 -2.1147
 1319TIP3   OH225591   1.917   3.474   8.778  0.0873  0.1797  0.7039
 1319TIP3    H125592   1.864   3.495   8.701  2.0347  1.6721 -0.3275
 1319TIP3    H225593   1.890   3.538   8.844  1.1757  1.5606 -0.1310
 1320TIP3   OH225594   3.173   6.323   1.314 -0.3941 -0.1852  0.4148
 1320TIP3    H125595   3.228   6.318   1.235 -1.6065  0.0119 -0.4584
 1320TIP3    H225596   3.226   6.374   1.376 -0.2938  1.5428 -1.0178
 1321TIP3   OH225597   6.060   6.252   1.347 -0.4056 -0.1857 -0.4479
 1321TIP3    H125598   5.969   6.284   1.350 -1.1332 -2.1770  0.9980
 1321TIP3    H225599   6.087   6.248   1.439  0.5510 -1.2277 -0.7600
 1322TIP3   OH225600   3.513   4.906   8.751 -0.0377 -0.2065  0.1119
 1322TIP3    H125601   3.527   4.815   8.725 -1.8541 -0.1633 -1.2527
 1322TIP3    H225602   3.422   4.924   8.726  0.1734  1.8754  0.6662
 1323TIP3   OH225603   2.264   1.434   1.006 -0.0037 -0.1622  0.4425
 1323TIP3    H125604   2.171   1.438   0.983  0.2188 -0.0021 -0.4809
 1323TIP3    H225605   2.284   1.519   1.043 -0.9305 -1.1795  3.6255
 1324TIP3   OH225606   1.216   0.329   0.736 -0.3987 -0.1984 -0.1627
 1324TIP3    H125607   1.135   0.380   0.737  1.2314  2.6981 -1.5054
 1324TIP3    H225608   1.260   0.354   0.818 -0.8308 -1.8342  0.6104
 1325TIP3   OH225609   1.076   0.091   2.326 -0.3815 -0.8492 -0.8940
 1325TIP3    H125610   1.121   0.105   2.243 -0.2648  0.9781 -0.5639
 1325TIP3    H225611   1.004   0.154   2.326 -0.1857 -0.5747  0.5156
 1326TIP3   OH225612   6.484   4.675   1.937 -0.2771  0.7180 -0.2451
 1326TIP3    H125613   6.469   4.622   1.859 -1.7063  2.5776 -1.3135
 1326TIP3    H225614   6.541   4.621   1.992 -2.7978 -2.5718 -0.5269
 1327TIP3   OH225615   6.113   3.779   1.233  0.2708 -0.1157 -0.4653
 1327TIP3    H125616   6.131   3.751   1.323  2.2954  2.8948  0.2092
 1327TIP3    H225617   6.100   3.697   1.185 -0.2564 -1.8673  2.3856
 1328TIP3   OH225618   3.965   1.561   0.883 -0.1427  0.5369 -0.4499
 1328TIP3    H125619   3.986   1.652   0.906  0.2843  0.0586  1.1640
 1328TIP3    H225620   3.890   1.539   0.938  1.0551 -0.7293  0.7497
 1329TIP3   OH225621   1.466   0.750   0.285  0.3630 -0.2087  0.3719
 1329TIP3    H125622   1.418   0.833   0.286 -1.5737 -1.2675  1.8537
 1329TIP3    H225623   1.398   0.683   0.281  1.8812 -1.7806 -1.6924
 1330TIP3   OH225624   1.032   2.228   2.377 -0.2159  0.1522 -0.1861
 1330TIP3    H125625   1.053   2.318   2.351  0.8741  0.4718  1.6469
 1330TIP3    H225626   1.058   2.223   2.469 -1.2859 -1.7279  0.0549
 1331TIP3   OH225627   2.066   2.554   2.453  0.7160  0.1554  0.3698
 1331TIP3    H125628   1.986   2.606   2.440 -0.0717 -1.3209 -1.0091
 1331TIP3    H225629   2.084   2.561   2.547 -0.9549  0.6547  0.6863
 1332TIP3   OH225630   6.105   4.279   1.482  0.0069  0.1949  0.1228
 1332TIP3    H125631   6.164   4.354   1.488  1.6282 -1.0432  0.3592
 1332TIP3    H225632   6.025   4.309   1.525  1.0534  1.3938  1.3723
 1333TIP3   OH225633   4.428   1.540   8.272  0.2508  0.2083  0.2283
 1333TIP3    H125634   4.475   1.622   8.254 -0.4723  0.6775  0.4385
 1333TIP3    H225635   4.497   1.473   8.273  0.8439  0.7986 -0.0160
 1334TIP3   OH225636   4.055   4.632   0.618 -0.1022  0.0331 -0.3230
 1334TIP3    H125637   4.075   4.652   0.710  0.5671  0.4160 -0.5402
 1334TIP3    H225638   4.125   4.572   0.591 -0.5661 -0.4521 -0.4480
 1335TIP3   OH225639   1.637   2.109   1.544  0.2062 -0.0498 -0.5841
 1335TIP3    H125640   1.592   2.113   1.460 -1.0510 -1.6752 -0.0292
 1335TIP3    H225641   1.728   2.132   1.523 -0.1299 -0.1876 -2.3334
 1336TIP3   OH225642   5.530   0.829   3.034 -0.2694  0.0776  0.4177
 1336TIP3    H125643   5.548   0.735   3.031  2.4452  0.3416  3.3023
 1336TIP3    H225644   5.453   0.837   3.090 -0.8007 -0.3922 -0.2197
 1337TIP3   OH225645   0.726   0.049   1.879 -0.1431 -0.5414 -0.1385
 1337TIP3    H125646   0.661  -0.000   1.929 -2.1757  1.2723 -0.8150
 1337TIP3    H225647   0.704   0.031   1.787 -1.1379  1.6880 -0.4160
 1338TIP3   OH225648   1.918   6.131   1.437 -0.5327 -0.4395 -0.2696
 1338TIP3    H125649   1.922   6.200   1.371 -1.7518  0.3738  0.4738
 1338TIP3    H225650   1.839   6.150   1.487  1.0594 -0.2183  2.3251
 1339TIP3   OH225651   6.534   1.458   8.521 -0.3261 -0.3157 -0.0683
 1339TIP3    H125652   6.482   1.402   8.579 -0.9235 -1.0293 -1.2440
 1339TIP3    H225653   6.489   1.453   8.436 -0.0889  1.5488 -0.3487
 1340TIP3   OH225654   6.620   4.480   2.080  0.1758 -0.3877  0.0634
 1340TIP3    H125655   6.695   4.461   2.137 -1.7998  1.1390  3.4530
 1340TIP3    H225656   6.555   4.415   2.105 -0.8455  0.5033 -0.2291
 1341TIP3   OH225657   0.525   4.931   7.054  0.0920 -0.1553 -0.8607
 1341TIP3    H125658   0.584   5.000   7.085 -0.8699  0.6847 -0.8528
 1341TIP3    H225659   0.442   4.976   7.039 -0.0831 -0.9703 -2.5475
 1342TIP3   OH225660   2.343   5.693   2.875  0.3986  0.4499  0.5605
 1342TIP3    H125661   2.257   5.729   2.852  0.9656  0.9352 -0.9411
 1342TIP3    H225662   2.399   5.770   2.885  1.1156  0.0934 -0.5308
 1343TIP3   OH225663   3.171   1.263   1.538 -0.0416  0.0768  0.0534
 1343TIP3    H125664   3.134   1.330   1.481  1.3803  1.7119  0.9416
 1343TIP3    H225665   3.179   1.306   1.624  4.1086  0.0572 -0.1288
 1344TIP3   OH225666   0.747   3.551   0.654  0.0842  0.1290  0.1417
 1344TIP3    H125667   0.727   3.464   0.691  0.6582  0.2344  0.7281
 1344TIP3    H225668   0.672   3.605   0.678 -0.7327 -0.4369 -1.0663
 1345TIP3   OH225669   1.980   6.233   0.078 -0.3033  0.1600  0.1696
 1345TIP3    H125670   1.954   6.254  -0.012  0.2390  0.2212  0.0249
 1345TIP3    H225671   2.065   6.190   0.069  0.7307  1.9418  0.7685
 1346TIP3   OH225672   5.265   3.187   1.651 -0.0587  0.7057 -0.0653
 1346TIP3    H125673   5.267   3.202   1.557  1.4651  1.8606  0.1004
 1346TIP3    H225674   5.305   3.101   1.663 -1.6525 -0.1355 -0.5360
 1347TIP3   OH225675   4.161   0.620   7.221 -0.2585  0.1190 -0.5064
 1347TIP3    H125676   4.140   0.711   7.238  1.2126  0.7963 -1.9721
 1347TIP3    H225677   4.251   0.622   7.187  0.7418 -2.1163  1.6863
 1348TIP3   OH225678   4.160   0.965   0.882 -0.7035 -0.8190  0.1455
 1348TIP3    H125679   4.251   0.988   0.865 -1.0450  0.1552 -0.4095
 1348TIP3    H225680   4.116   0.977   0.798 -1.6794  0.4376  0.8107
 1349TIP3   OH225681   5.807   3.844   0.939  0.3067  0.3976  0.3323
 1349TIP3    H125682   5.826   3.784   0.866 -1.9011 -0.4966  0.3990
 1349TIP3    H225683   5.867   3.917   0.926 -0.4791  0.6371 -2.8450
 1350TIP3   OH225684   3.713   1.287   8.303  0.3329  0.1904  0.1622
 1350TIP3    H125685   3.687   1.361   8.358 -1.6770  0.2133 -0.7203
 1350TIP3    H225686   3.805   1.303   8.283  0.2110  1.9425  0.7915
 1351TIP3   OH225687   1.823   5.157   0.484  0.0866  0.2893  0.5550
 1351TIP3    H125688   1.860   5.177   0.399 -0.5915 -0.5340  0.0486
 1351TIP3    H225689   1.891   5.106   0.528 -0.4661 -1.4415 -0.4711
 1352TIP3   OH225690   2.163   1.853   7.160 -0.2534 -0.1177  0.2983
 1352TIP3    H125691   2.237   1.905   7.192 -1.4235  1.6632  0.2250
 1352TIP3    H225692   2.108   1.916   7.113 -0.7357 -1.8292 -1.5620
 1353TIP3   OH225693   6.155   4.818   7.010  0.1480  0.1135 -0.5718
 1353TIP3    H125694   6.156   4.737   6.959  2.8032 -0.1387 -0.2662
 1353TIP3    H225695   6.153   4.888   6.944  0.1590 -0.2068 -0.9131
 1354TIP3   OH225696   4.233   6.676   0.578 -0.4664 -0.1351 -0.4145
 1354TIP3    H125697   4.225   6.581   0.584  1.6254 -0.2497  1.3435
 1354TIP3    H225698   4.201   6.709   0.662 -0.2216  0.6515 -0.6195
 1355TIP3   OH225699   3.831   4.151   8.021  0.1459  0.1436  0.0301
 1355TIP3    H125700   3.765   4.095   8.064  0.4977  0.3938  0.9198
 1355TIP3    H225701   3.813   4.141   7.928 -2.3730  1.6618  0.2625
 1356TIP3   OH225702   0.290   1.929   0.931 -0.2821 -0.1131 -0.0453
 1356TIP3    H125703   0.262   2.020   0.936  1.6002  0.4221  1.8175
 1356TIP3    H225704   0.353   1.927   0.859 -0.1976  0.0835  0.0230
 1357TIP3   OH225705   4.901   0.994   6.858 -0.8477  0.2206 -0.2900
 1357TIP3    H125706   4.811   0.987   6.827 -0.3898 -3.2872 -1.2926
 1357TIP3    H225707   4.905   0.935   6.933  0.1486  2.0215  1.1353
 1358TIP3   OH225708   6.410   1.216   8.317  0.3090 -0.7858  0.5906
 1358TIP3    H125709   6.416   1.286   8.252 -1.4252  1.5026  2.6647
 1358TIP3    H225710   6.462   1.145   8.281  0.6351  0.8630 -2.5584
 1359TIP3   OH225711   2.318   5.631   0.885  0.7639  0.4794  0.2634
 1359TIP3    H125712   2.312   5.537   0.896 -0.6130  0.2652 -1.6914
 1359TIP3    H225713   2.412   5.649   0.878  1.0261 -0.7812  0.3673
 1360TIP3   OH225714   6.655   5.332   7.362 -0.0617 -0.0040  0.0434
 1360TIP3    H125715   6.590   5.271   7.397 -1.2089  1.4664  0.5427
 1360TIP3    H225716   6.726   5.330   7.425 -0.6806  0.1672  0.7583
 1361TIP3   OH225717   2.116   1.129   0.900 -0.3092  0.3709 -0.2411
 1361TIP3    H125718   2.081   1.050   0.859 -0.5802  0.2888  0.1391
 1361TIP3    H225719   2.150   1.099   0.984 -0.5018  0.6710 -0.0536
 1362TIP3   OH225720   2.890   1.471   7.818 -0.9768 -0.0111  0.2472
 1362TIP3    H125721   2.807   1.491   7.776 -1.9596 -0.5747  1.8293
 1362TIP3    H225722   2.876   1.386   7.860  0.6184 -0.4367  0.0027
 1363TIP3   OH225723   1.022   1.080   2.213 -0.5096  0.4259 -0.0320
 1363TIP3    H125724   1.052   1.159   2.169  2.5558 -1.0726 -0.9165
 1363TIP3    H225725   1.064   1.083   2.299  0.8392 -0.8537 -0.6066
 1364TIP3   OH225726   5.635   5.243   8.527 -1.0592 -0.4266 -0.6318
 1364TIP3    H125727   5.575   5.168   8.522 -0.4502 -1.1282  1.5153
 1364TIP3    H225728   5.600   5.298   8.596  0.7253 -0.8695  0.7088
 1365TIP3   OH225729   5.370   4.063   1.892 -0.6583 -0.5714 -0.0489
 1365TIP3    H125730   5.438   4.001   1.866  0.1710  0.8764 -1.5233
 1365TIP3    H225731   5.409   4.111   1.966  0.7718  1.4746 -1.9999
 1366TIP3   OH225732   2.981   3.127   1.060 -0.6865 -0.3759  0.2914
 1366TIP3    H125733   3.009   3.213   1.027 -1.7976  0.7073  1.9915
 1366TIP3    H225734   2.990   3.068   0.985  1.9808  0.7742 -0.4092
 1367TIP3   OH225735   1.975   0.385   1.622  0.5454 -0.6618 -0.6663
 1367TIP3    H125736   1.935   0.355   1.540  0.5846 -0.3980 -0.7822
 1367TIP3    H225737   1.906   0.371   1.688  0.2327 -0.1439 -0.8762
 1368TIP3   OH225738   1.716   6.458   0.974 -0.4642 -0.2105 -0.6680
 1368TIP3    H125739   1.671   6.491   0.897 -0.3375  0.7952 -0.3190
 1368TIP3    H225740   1.668   6.495   1.048  1.5095  1.8043 -0.2712
 1369TIP3   OH225741   5.875   4.598   1.418  0.0856  0.0222  0.1712
 1369TIP3    H125742   5.839   4.548   1.491 -1.5385 -0.8182 -1.1170
 1369TIP3    H225743   5.970   4.599   1.433 -0.1076 -1.1365  1.6485
 1370TIP3   OH225744   5.385   2.963   8.504  0.0285 -0.1969 -0.4263
 1370TIP3    H125745   5.365   3.040   8.451 -1.2145 -0.8589 -0.9834
 1370TIP3    H225746   5.350   2.983   8.590 -0.4119 -0.1750 -0.6059
 1371TIP3   OH225747   1.334   1.280   8.510 -0.4773 -0.1527  0.0507
 1371TIP3    H125748   1.243   1.261   8.486  0.2711 -1.4003 -2.0455
 1371TIP3    H225749   1.333   1.281   8.606 -2.8732  0.9080  0.1035
 1372TIP3   OH225750   6.628   6.415   7.931 -0.5299  0.5730 -0.5282
 1372TIP3    H125751   6.716   6.378   7.918 -0.4034  0.0306  1.4539
 1372TIP3    H225752   6.643   6.491   7.988 -1.3493  0.3427  0.0059
 1373TIP3   OH225753   6.050   4.175   2.516  0.1719  0.0300 -0.7657
 1373TIP3    H125754   6.004   4.154   2.434 -1.5838 -0.6444  0.3389
 1373TIP3    H225755   6.012   4.259   2.543  0.5992  0.1453 -0.5152
 1374TIP3   OH225756   4.288   2.719   7.268  0.3714 -0.2543  0.1821
 1374TIP3    H125757   4.350   2.789   7.289  1.3008 -0.9026 -0.3220
 1374TIP3    H225758   4.316   2.687   7.182  0.1630 -1.4526  0.5347
 1375TIP3   OH225759   0.418   2.318   2.670 -0.0781 -0.4152  0.4581
 1375TIP3    H125760   0.449   2.342   2.582  0.4581  0.2530  0.8164
 1375TIP3    H225761   0.326   2.296   2.657  0.0420 -0.5099 -0.3058
 1376TIP3   OH225762   2.194   3.668   0.669  0.3427  0.1823  0.2335
 1376TIP3    H125763   2.252   3.716   0.610 -0.5971 -0.1959 -1.0783
 1376TIP3    H225764   2.169   3.590   0.619 -1.6774  0.5842  0.5123
 1377TIP3   OH225765   0.787   0.465   6.843  0.0984  0.2251  0.0964
 1377TIP3    H125766   0.699   0.428   6.853 -0.1955  1.1637  1.0832
 1377TIP3    H225767   0.774   0.546   6.795  0.4444  0.3045  0.1334
 1378TIP3   OH225768   1.465   1.230   7.445 -0.5232 -0.0454  0.4232
 1378TIP3    H125769   1.447   1.257   7.355 -1.2371 -0.0791  0.5515
 1378TIP3    H225770   1.385   1.252   7.493  0.1531  0.7576  1.2287
 1379TIP3   OH225771   1.396   1.242   2.233  0.2928 -0.4419 -0.2834
 1379TIP3    H125772   1.417   1.310   2.169  0.9424 -0.3266  0.0443
 1379TIP3    H225773   1.452   1.261   2.308 -0.2425 -0.7542  0.2050
 1380TIP3   OH225774   4.481   5.065   2.338 -0.0884  0.2682 -0.1431
 1380TIP3    H125775   4.451   4.989   2.288  0.9964 -1.0028  1.0531
 1380TIP3    H225776   4.432   5.061   2.420  0.6360  0.3175  0.3013
 1381TIP3   OH225777   1.452   6.084   1.852  0.6133 -0.7345 -0.3248
 1381TIP3    H125778   1.494   6.001   1.873  1.1801 -0.7062 -1.2667
 1381TIP3    H225779   1.413   6.070   1.765  1.6309  0.2896 -0.9799
 1382TIP3   OH225780   1.374   5.616   1.479 -0.2396  0.2039  0.2754
 1382TIP3    H125781   1.429   5.690   1.452 -0.6353  0.3906 -0.0269
 1382TIP3    H225782   1.287   5.654   1.490 -1.1973 -0.7573 -2.9631
 1383TIP3   OH225783   2.457   4.678   2.064  0.3476 -0.9023 -0.6362
 1383TIP3    H125784   2.363   4.694   2.077  0.5224  0.5935 -1.0231
 1383TIP3    H225785   2.471   4.590   2.099 -0.8981 -0.5382  0.9100
 1384TIP3   OH225786   6.406   4.133   1.061 -0.3449 -0.5652  0.1237
 1384TIP3    H125787   6.497   4.133   1.091 -0.0097 -0.9561 -0.8464
 1384TIP3    H225788   6.375   4.044   1.080  0.1100 -1.0650 -1.3164
 1385TIP3   OH225789   1.925   4.829   2.745 -0.2518 -0.2617 -0.3090
 1385TIP3    H125790   1.918   4.898   2.679 -0.2977 -0.6747 -0.7442
 1385TIP3    H225791   1.842   4.781   2.739 -0.9686  0.7121  1.2160
 1386TIP3   OH225792   4.618   2.095   0.094  0.2926  0.3372  0.2524
 1386TIP3    H125793   4.574   2.095   0.009 -2.5213  0.8173  1.5975
 1386TIP3    H225794   4.668   2.013   0.095  0.0066  0.0961 -1.6650
 1387TIP3   OH225795   0.789   0.331   1.815 -0.2810  0.1434 -0.5014
 1387TIP3    H125796   0.796   0.312   1.722 -0.6816  0.9468 -0.7075
 1387TIP3    H225797   0.787   0.246   1.858  0.3135 -0.2256 -1.1957
 1388TIP3   OH225798   0.178   5.688   7.567  0.6655 -0.1555  0.3612
 1388TIP3    H125799   0.265   5.657   7.592  1.3585  0.6193 -0.9968
 1388TIP3    H225800   0.181   5.692   7.471 -0.0316  2.2279  0.3878
 1389TIP3   OH225801   4.615   6.307   8.150  0.1682  0.1224  0.3572
 1389TIP3    H125802   4.596   6.367   8.223  0.3603  1.9177 -1.0023
 1389TIP3    H225803   4.529   6.274   8.124 -0.1502  1.1768  0.0237
 1390TIP3   OH225804   1.076   4.982   8.233  0.2695  0.0977  0.3193
 1390TIP3    H125805   1.036   4.928   8.301 -0.8378  0.8382  0.2799
 1390TIP3    H225806   1.062   4.932   8.152 -2.6055  1.3165 -0.0318
 1391TIP3   OH225807   4.113   6.004   8.594  0.3745  0.0006  0.0383
 1391TIP3    H125808   4.081   5.940   8.530 -0.3500  0.5038 -0.1018
 1391TIP3    H225809   4.053   6.078   8.588  1.3415  0.8057  0.0388
 1392TIP3   OH225810   0.962   1.539   1.023 -0.1694  0.3964 -0.0940
 1392TIP3    H125811   0.896   1.493   1.074 -1.9141  0.0929 -2.4481
 1392TIP3    H225812   0.913   1.584   0.954  1.9930  0.9358 -1.4021
 1393TIP3   OH225813   1.334   0.810   0.614  0.6749  0.3895 -0.3462
 1393TIP3    H125814   1.307   0.776   0.699  0.4485  1.6110  0.0961
 1393TIP3    H225815   1.252   0.822   0.565  0.5716  1.8225  0.1177
 1394TIP3   OH225816   3.110   4.472   7.169  0.1990  0.2697  0.3423
 1394TIP3    H125817   3.061   4.417   7.230  0.9010 -1.6558 -0.7497
 1394TIP3    H225818   3.169   4.412   7.124  0.5174  1.7990 -1.4278
 1395TIP3   OH225819   5.099   3.979   7.876 -0.1858 -0.7257 -0.0171
 1395TIP3    H125820   5.039   3.967   7.950  0.8420 -0.0457  0.9611
 1395TIP3    H225821   5.152   3.900   7.875  0.4192 -0.3351  0.5744
 1396TIP3   OH225822   1.995   4.121   2.127  0.3813  0.4199 -0.1817
 1396TIP3    H125823   1.913   4.164   2.106  1.3826  2.2702 -0.5182
 1396TIP3    H225824   1.969   4.039   2.169 -1.6138  0.6552 -0.8511
 1397TIP3   OH225825   1.351   6.413   1.107 -0.2762  0.5573  0.2219
 1397TIP3    H125826   1.382   6.370   1.028  2.4531  2.2539  0.2396
 1397TIP3    H225827   1.302   6.489   1.076  1.2906  1.5524  0.0871
 1398TIP3   OH225828   3.882   4.563   0.421 -0.4676  0.4574  0.1417
 1398TIP3    H125829   3.958   4.595   0.470  0.3852 -0.5844 -0.4680
 1398TIP3    H225830   3.807   4.601   0.467  0.4011  1.2691  0.9356
 1399TIP3   OH225831   2.504   0.046   7.967  0.2409 -0.3197 -0.1840
 1399TIP3    H125832   2.415   0.076   7.987 -0.1377 -0.8678 -1.0002
 1399TIP3    H225833   2.491  -0.036   7.920  1.2024 -0.6965  0.1909
 1400TIP3   OH225834   4.312   1.706   6.645 -0.3855  0.2714 -0.0875
 1400TIP3    H125835   4.251   1.642   6.608 -2.5603  1.7827  0.6893
 1400TIP3    H225836   4.376   1.653   6.693 -1.1728 -1.3784 -0.7729
 1401TIP3   OH225837   6.047   0.549   0.469 -0.0016  0.5192 -0.2850
 1401TIP3    H125838   6.102   0.518   0.397 -0.0879  0.7964 -0.4697
 1401TIP3    H225839   6.001   0.625   0.434  0.0801  0.7570  0.1144
 1402TIP3   OH225840   5.494   3.113   3.023 -0.1789  0.4001 -0.0592
 1402TIP3    H125841   5.489   3.208   3.019 -0.5585  0.3810 -0.0775
 1402TIP3    H225842   5.552   3.094   3.097  1.5659  0.6717 -1.2843
 1403TIP3   OH225843   2.644   5.803   1.111 -0.3421  0.4620 -0.3402
 1403TIP3    H125844   2.652   5.757   1.027  0.6407  0.6652 -0.3720
 1403TIP3    H225845   2.714   5.767   1.165  0.0378  1.4482 -0.1457
 1404TIP3   OH225846   0.731   4.650   7.983 -0.3558 -0.1529 -0.0310
 1404TIP3    H125847   0.726   4.584   8.052 -0.2087  0.3246  0.4430
 1404TIP3    H225848   0.820   4.641   7.948 -0.3309 -0.1905  0.0422
 1405TIP3   OH225849   4.422   3.950   8.521  0.0939  0.1650  0.3908
 1405TIP3    H125850   4.385   3.864   8.541 -0.3445  0.2313 -0.0987
 1405TIP3    H225851   4.513   3.932   8.497 -1.0674 -0.8709 -4.3396
 1406TIP3   OH225852   1.103   3.420   8.224 -0.1660  0.3757 -0.4203
 1406TIP3    H125853   1.088   3.330   8.255 -0.3634  0.4133 -0.4049
 1406TIP3    H225854   1.029   3.470   8.258 -0.7947  0.2702 -1.5743
 1407TIP3   OH225855   5.591   6.451   7.492  0.4563  0.0994  0.2696
 1407TIP3    H125856   5.636   6.520   7.443  0.2675 -0.4095 -0.6470
 1407TIP3    H225857   5.654   6.426   7.560 -0.0349  2.1502  1.5604
 1408TIP3   OH225858   0.724   0.336   1.228 -0.1502 -0.1853 -0.1661
 1408TIP3    H125859   0.780   0.414   1.226  0.8875 -0.9297 -0.8925
 1408TIP3    H225860   0.763   0.276   1.165 -2.4493 -0.2805 -1.6456
 1409TIP3   OH225861   6.536   4.156   1.368  0.1818 -0.2028  0.5617
 1409TIP3    H125862   6.631   4.167   1.366  0.1255  0.4156  0.9049
 1409TIP3    H225863   6.502   4.246   1.368 -0.3834 -0.4106  1.1199
 1410TIP3   OH225864   2.104   3.074   1.038  0.0332  0.3175  0.0674
 1410TIP3    H125865   2.191   3.074   0.997 -0.6640 -1.8294 -1.6238
 1410TIP3    H225866   2.044   3.094   0.967 -1.0328 -0.9174  0.5716
 1411TIP3   OH225867   0.308   1.101   7.488  0.9346 -0.0450 -0.2538
 1411TIP3    H125868   0.304   1.075   7.396  1.8170 -0.1207 -0.2788
 1411TIP3    H225869   0.322   1.196   7.485  1.9596 -0.1833 -0.2225
 1412TIP3   OH225870   6.061   6.385   0.240 -0.5203  0.0921 -0.3469
 1412TIP3    H125871   6.064   6.474   0.203  1.3490  0.2574  0.1012
 1412TIP3    H225872   6.114   6.390   0.319 -0.0492 -1.5154 -0.5215
 1413TIP3   OH225873   5.366   2.212   0.186  0.0786  0.0920  0.0683
 1413TIP3    H125874   5.445   2.164   0.162  0.8986  1.9661 -1.1983
 1413TIP3    H225875   5.340   2.256   0.105 -0.9060  1.3932  1.0597
 1414TIP3   OH225876   1.979   2.407   2.017 -0.2225 -0.4086 -0.4172
 1414TIP3    H125877   2.011   2.471   2.080 -0.9152  0.0867 -0.5573
 1414TIP3    H225878   1.924   2.348   2.069  1.1653 -1.4725 -0.1088
 1415TIP3   OH225879   2.449   4.466   1.517  0.1391  0.1820 -0.0801
 1415TIP3    H125880   2.511   4.496   1.583  1.5056 -1.3692 -0.5954
 1415TIP3    H225881   2.432   4.375   1.540 -1.6439  0.4517 -0.2026
 1416TIP3   OH225882   5.418   4.750   0.357 -0.5248  0.0615  0.1473
 1416TIP3    H125883   5.505   4.782   0.382 -0.9435  0.1785  1.4966
 1416TIP3    H225884   5.434   4.661   0.325  0.1056  0.1277  0.2573
 1417TIP3   OH225885   3.426   0.547   1.376  0.0300  0.5976 -0.6325
 1417TIP3    H125886   3.398   0.531   1.286 -0.2889 -1.3352 -0.2334
 1417TIP3    H225887   3.345   0.557   1.425  0.1681  0.3351 -0.3480
 1418TIP3   OH225888   3.607   3.035   2.243 -0.0212 -0.4913  0.0140
 1418TIP3    H125889   3.527   2.998   2.208 -0.7925  1.2089 -0.1050
 1418TIP3    H225890   3.635   3.099   2.178  2.3147 -2.0925 -0.6913
 1419TIP3   OH225891   4.163   0.440   0.272 -0.0928  0.5349  0.3399
 1419TIP3    H125892   4.193   0.450   0.181 -0.0054  0.9102  0.4059
 1419TIP3    H225893   4.179   0.526   0.311  2.1234 -0.2923  1.3803
 1420TIP3   OH225894   4.488   5.703   0.157 -0.3645 -0.2870 -0.1905
 1420TIP3    H125895   4.430   5.770   0.194 -1.9269 -2.2369  1.0936
 1420TIP3    H225896   4.471   5.706   0.062 -3.0421 -1.1389  0.1865
 1421TIP3   OH225897   1.314   5.760   1.815  0.5331  0.1105  0.0390
 1421TIP3    H125898   1.403   5.781   1.786  0.3559  2.4458  0.9399
 1421TIP3    H225899   1.312   5.790   1.906 -1.1946  0.2166 -0.0117
 1422TIP3   OH225900   5.876   2.810   1.643  0.0110 -0.1157  0.0734
 1422TIP3    H125901   5.862   2.729   1.594  0.8623  0.1195 -0.5970
 1422TIP3    H225902   5.788   2.845   1.658 -0.2884 -0.3062 -1.1205
 1423TIP3   OH225903   4.836   6.553   1.196 -0.1835  0.2746  0.0281
 1423TIP3    H125904   4.863   6.481   1.252  1.3406  1.2589  0.6096
 1423TIP3    H225905   4.754   6.584   1.235  1.1018  1.2759  2.1037
 1424TIP3   OH225906   6.387   6.436   7.823 -0.5472  0.1061 -0.3557
 1424TIP3    H125907   6.462   6.439   7.882  0.1032  1.6659 -1.2113
 1424TIP3    H225908   6.343   6.353   7.844  0.5649 -0.1339  1.1774
 1425TIP3   OH225909   1.536   0.106   1.966  0.5156  0.1214 -0.5766
 1425TIP3    H125910   1.523   0.115   1.871 -1.9193  0.8551 -0.2368
 1425TIP3    H225911   1.512   0.016   1.985  3.6212 -0.8886 -0.9519
 1426TIP3   OH225912   2.021   5.935   6.834  0.6001 -0.3158 -0.1702
 1426TIP3    H125913   2.116   5.948   6.830  0.5381 -0.2041 -2.3357
 1426TIP3    H225914   1.984   6.018   6.804 -0.0599 -1.2579 -2.1643
 1427TIP3   OH225915   2.089   5.667   0.049 -0.0008  0.0189 -0.0724
 1427TIP3    H125916   2.178   5.653   0.081 -0.4501 -0.3002  1.0867
 1427TIP3    H225917   2.066   5.754   0.081  0.5555  0.9452 -2.0088
 1428TIP3   OH225918   1.621   0.315   0.171 -0.4030 -0.1361  0.0694
 1428TIP3    H125919   1.552   0.376   0.144 -0.6497 -0.4511 -0.0337
 1428TIP3    H225920   1.623   0.321   0.266 -0.9687 -0.5350  0.1130
 1429TIP3   OH225921   4.378   4.492   1.451  0.8947  0.3449  0.1399
 1429TIP3    H125922   4.374   4.526   1.362  2.9752 -1.3133 -0.6560
 1429TIP3    H225923   4.302   4.435   1.458  1.0226  0.0553 -0.7692
 1430TIP3   OH225924   4.121   3.966   0.080  0.2391 -0.1128 -0.1765
 1430TIP3    H125925   4.195   3.918   0.044  0.0031  0.1645 -1.0715
 1430TIP3    H225926   4.049   3.948   0.019  0.1277  1.3136 -0.4938
 1431TIP3   OH225927   1.299   3.213   7.523 -0.1923 -0.0958 -0.2654
 1431TIP3    H125928   1.249   3.294   7.517 -0.5435 -0.3142 -0.3561
 1431TIP3    H225929   1.377   3.236   7.572  0.2874  0.5721 -1.2991
 1432TIP3   OH225930   1.918   3.528   8.442  0.3128 -0.7985 -0.1725
 1432TIP3    H125931   1.850   3.500   8.503 -0.4111  1.0243 -0.0574
 1432TIP3    H225932   1.887   3.613   8.409  2.1101 -0.3235 -0.7934
 1433TIP3   OH225933   2.959   2.452   1.268 -0.1396 -0.3210 -0.7501
 1433TIP3    H125934   2.882   2.484   1.315  1.1944  1.0198  0.6562
 1433TIP3    H225935   2.968   2.361   1.297 -1.4314 -0.6463 -1.2974
 1434TIP3   OH225936   1.507   0.564   2.199 -0.1844  0.1420  0.0009
 1434TIP3    H125937   1.537   0.527   2.282  0.2350 -1.4282 -0.8200
 1434TIP3    H225938   1.480   0.489   2.147  0.9745  0.9280 -1.8570
 1435TIP3   OH225939   2.326   5.526   8.668 -0.0284 -0.2041 -0.7263
 1435TIP3    H125940   2.274   5.554   8.743  2.4058 -0.3647  1.1591
 1435TIP3    H225941   2.360   5.607   8.630  0.8792 -0.2021  0.0434
 1436TIP3   OH225942   4.617   6.630   8.067  0.1461 -0.2559 -0.2335
 1436TIP3    H125943   4.600   6.569   7.996  2.1017 -2.2447  0.8716
 1436TIP3    H225944   4.542   6.621   8.126  0.1977 -1.2464 -0.3189
 1437TIP3   OH225945   6.214   1.610   1.755  0.2564 -0.7486 -0.4469
 1437TIP3    H125946   6.291   1.625   1.810 -0.0207  1.5549 -0.5807
 1437TIP3    H225947   6.227   1.667   1.679 -1.2444 -0.8188 -0.7892
 1438TIP3   OH225948   6.218   5.631   0.675 -0.7113 -0.5912  0.1601
 1438TIP3    H125949   6.277   5.700   0.644  0.2857 -1.5314 -0.1153
 1438TIP3    H225950   6.276   5.568   0.719 -1.7759 -0.6030  1.5895
 1439TIP3   OH225951   3.429   6.298   1.156  0.1062 -0.1083  0.4953
 1439TIP3    H125952   3.399   6.227   1.099  0.4575  0.6644 -0.6884
 1439TIP3    H225953   3.525   6.295   1.149  0.1520 -0.0067  1.0537
 1440TIP3   OH225954   5.678   0.154   7.839  0.0747  0.0506  0.0754
 1440TIP3    H125955   5.652   0.129   7.928 -0.4624 -0.5841 -0.2529
 1440TIP3    H225956   5.741   0.224   7.852  0.2542 -0.2578  0.9730
 1441TIP3   OH225957   0.210   1.228   0.305  0.1080  0.3704  0.1350
 1441TIP3    H125958   0.177   1.181   0.228  1.1137 -0.2441  0.0757
 1441TIP3    H225959   0.150   1.204   0.375 -0.7207  0.7976 -0.4022
 1442TIP3   OH225960   3.451   2.791   0.127  0.1182 -0.5026  0.5879
 1442TIP3    H125961   3.441   2.882   0.099  0.5503 -0.9906 -1.2407
 1442TIP3    H225962   3.375   2.775   0.184 -0.8332  0.5323 -0.3431
 1443TIP3   OH225963   0.482   2.119   0.151  0.3452 -0.3071 -0.2685
 1443TIP3    H125964   0.467   2.184   0.219  1.5552 -0.1277 -0.1437
 1443TIP3    H225965   0.395   2.093   0.123 -0.2909  2.9420 -1.8288
 1444TIP3   OH225966   2.473   6.182   1.062 -0.4938  0.2212  0.2233
 1444TIP3    H125967   2.445   6.248   1.126 -0.2488 -0.4273  1.0209
 1444TIP3    H225968   2.433   6.101   1.092  1.9497 -0.6823  1.2583
 1445TIP3   OH225969   0.761   3.762   6.827  0.6032 -0.2025 -0.5496
 1445TIP3    H125970   0.685   3.818   6.812 -0.2592 -1.1688  0.1411
 1445TIP3    H225971   0.778   3.722   6.741  0.4060  0.0998 -0.7323
 1446TIP3   OH225972   1.306   5.508   2.630  0.0422 -0.2631  0.4332
 1446TIP3    H125973   1.337   5.498   2.720  0.2524  0.6868  0.4774
 1446TIP3    H225974   1.317   5.601   2.611  0.4912 -0.5355 -0.7537
 1447TIP3   OH225975   3.952   2.959   6.683  0.2409 -0.8211 -0.3904
 1447TIP3    H125976   3.944   3.018   6.758  3.1260 -1.0750  0.2346
 1447TIP3    H225977   3.883   2.893   6.697  0.9529 -1.1068  2.2972
 1448TIP3   OH225978   0.827   2.753   1.031  0.3144 -0.2072  0.8972
 1448TIP3    H125979   0.919   2.739   1.055  0.2568  1.0060  1.9039
 1448TIP3    H225980   0.806   2.678   0.976  1.6918 -0.8946  1.2454
 1449TIP3   OH225981   3.970   0.020   7.585 -0.2480  0.2004  0.6160
 1449TIP3    H125982   3.911   0.085   7.623 -1.8956 -1.0828  0.3598
 1449TIP3    H225983   3.912  -0.050   7.554  1.2830 -0.3370 -1.2191
 1450TIP3   OH225984   4.086   0.995   0.285 -0.0062  0.0751 -0.2940
 1450TIP3    H125985   4.020   0.976   0.351  0.0926  1.0430  0.0914
 1450TIP3    H225986   4.043   1.056   0.225  1.0418  2.0775  0.8974
 1451TIP3   OH225987   5.628   1.994   1.317 -0.3341  0.4090 -0.5642
 1451TIP3    H125988   5.573   1.918   1.333  0.7257 -0.1243  0.7123
 1451TIP3    H225989   5.676   2.007   1.399  1.5947  0.6999 -1.6783
 1452TIP3   OH225990   4.160   4.138   6.494  0.5969 -0.1274 -0.6023
 1452TIP3    H125991   4.146   4.210   6.433  1.5162  0.6419  0.0705
 1452TIP3    H225992   4.190   4.180   6.574  0.8823 -1.2422 -0.1079
 1453TIP3   OH225993   2.196   5.509   2.253 -0.2921 -0.6341  0.3211
 1453TIP3    H125994   2.144   5.519   2.174  0.4483 -0.7797 -0.1984
 1453TIP3    H225995   2.155   5.566   2.317  0.8485  1.8928 -1.0486
 1454TIP3   OH225996   2.808   6.416   8.713  0.6285 -0.1300  0.7670
 1454TIP3    H125997   2.846   6.500   8.739 -0.9809  1.5534 -1.8676
 1454TIP3    H225998   2.755   6.389   8.788  0.8168  1.4585  1.5065
 1455TIP3   OH225999   5.889   2.305   2.355  0.6355  0.0872 -0.1353
 1455TIP3    H126000   5.859   2.265   2.437  0.6644  0.5182  0.0847
 1455TIP3    H226001   5.942   2.237   2.314 -0.7757 -0.7615 -0.6187
 1456TIP3   OH226002   1.581   6.133   8.318 -0.0370  0.2223  0.1298
 1456TIP3    H126003   1.631   6.133   8.399 -0.7194  0.9323  0.5645
 1456TIP3    H226004   1.572   6.226   8.295 -1.6038  0.1569  0.3625
 1457TIP3   OH226005   4.627   2.040   1.339  0.0233 -0.5866 -0.2861
 1457TIP3    H126006   4.666   1.954   1.329  2.0689  0.1310  0.8464
 1457TIP3    H226007   4.579   2.036   1.422  0.2760 -0.6078 -0.1382
 1458TIP3   OH226008   0.240   5.163   2.933 -0.3930  0.2698  0.9304
 1458TIP3    H126009   0.316   5.104   2.928 -0.7856 -0.2012  0.3322
 1458TIP3    H226010   0.278   5.250   2.941  0.2158  0.0398  0.6283
 1459TIP3   OH226011   2.958   0.559   0.106 -0.2250 -0.0715 -0.2460
 1459TIP3    H126012   3.005   0.578   0.024  0.0185  1.1012  0.1463
 1459TIP3    H226013   2.912   0.478   0.088  1.8342 -1.2192 -0.7021
 1460TIP3   OH226014   3.894   4.054   2.731  0.1231  0.0593 -0.3025
 1460TIP3    H126015   3.848   4.017   2.806 -0.7089  0.6197 -0.5257
 1460TIP3    H226016   3.964   4.107   2.769  1.0808 -1.3797  0.0288
 1461TIP3   OH226017   4.527   3.673   8.298  0.8750 -0.3334 -0.4339
 1461TIP3    H126018   4.513   3.650   8.390 -0.7704  2.2436  0.0555
 1461TIP3    H226019   4.461   3.623   8.251  0.4832 -0.2599  0.0264
 1462TIP3   OH226020   4.819   5.856   1.088 -0.4515  0.3552  0.6391
 1462TIP3    H126021   4.750   5.841   1.152 -1.4678 -0.8399 -0.6784
 1462TIP3    H226022   4.807   5.787   1.022  1.8236  0.2680  0.2087
 1463TIP3   OH226023   2.089   2.803   1.154  0.4450 -0.4086 -0.0234
 1463TIP3    H126024   2.143   2.750   1.095 -0.5210  0.0435 -1.3704
 1463TIP3    H226025   2.092   2.891   1.116  1.1679  0.3001  1.5819
 1464TIP3   OH226026   0.918   1.692   7.860  0.2312  0.0653  0.4492
 1464TIP3    H126027   0.987   1.641   7.818 -0.6333 -0.9659  0.2265
 1464TIP3    H226028   0.958   1.777   7.877  1.6295 -0.5833  0.5605
 1465TIP3   OH226029   6.023   5.473   0.541  0.0080  0.3117  0.0708
 1465TIP3    H126030   6.078   5.533   0.591 -0.1133 -0.2424  0.9020
 1465TIP3    H226031   5.953   5.448   0.602  0.2126 -0.8748 -0.1573
 1466TIP3   OH226032   5.957   1.929   0.886 -0.3518  0.0151 -0.3759
 1466TIP3    H126033   5.962   1.839   0.921 -2.0755 -0.0032 -0.1080
 1466TIP3    H226034   5.938   1.983   0.963  0.6717  0.6355 -0.5386
 1467TIP3   OH226035   1.594   6.541   0.748  0.3624  0.0113  0.5973
 1467TIP3    H126036   1.567   6.511   0.661  2.5242 -0.1717 -0.0618
 1467TIP3    H226037   1.630   6.629   0.733  2.9553 -0.9222  0.8067
 1468TIP3   OH226038   3.578   6.463   8.640 -0.1352 -0.1723  0.0635
 1468TIP3    H126039   3.514   6.392   8.632  0.8628 -1.0697 -0.1293
 1468TIP3    H226040   3.646   6.441   8.577 -0.2347  1.4407 -0.6429
 1469TIP3   OH226041   1.887   4.670   7.487  0.1596  0.4464  0.1886
 1469TIP3    H126042   1.873   4.748   7.434 -0.3869  0.0151 -0.3077
 1469TIP3    H226043   1.976   4.680   7.521 -0.2120  1.7258  0.8739
 1470TIP3   OH226044   4.887   0.240   0.591  0.1621  0.0933 -0.3887
 1470TIP3    H126045   4.832   0.247   0.514 -0.7402 -0.1859  0.2137
 1470TIP3    H226046   4.829   0.261   0.664  1.2475  1.4039  0.1431
 1471TIP3   OH226047   6.770   0.725   2.126  0.2126  0.4091 -0.3570
 1471TIP3    H126048   6.695   0.740   2.184  0.5848  0.7041  0.0513
 1471TIP3    H226049   6.809   0.812   2.115 -1.7969  1.0512 -3.7673
 1472TIP3   OH226050   1.732   1.644   8.365 -0.3327 -0.4414 -0.2497
 1472TIP3    H126051   1.785   1.682   8.434 -1.2655 -0.8510  0.7244
 1472TIP3    H226052   1.787   1.576   8.326  0.8209  0.9030 -1.0631
 1473TIP3   OH226053   0.755   0.910   0.879 -0.0745 -0.4798  0.0834
 1473TIP3    H126054   0.777   0.988   0.827  0.6814  0.3041  1.4968
 1473TIP3    H226055   0.672   0.932   0.922  0.1720 -0.4075  0.5338
 1474TIP3   OH226056   5.063   6.665   1.046  0.3026  0.5843  0.0572
 1474TIP3    H126057   4.987   6.633   1.095  0.0051  0.5064 -0.4543
 1474TIP3    H226058   5.134   6.605   1.069 -0.7369 -1.8810 -2.5714
 1475TIP3   OH226059   4.895   3.620   1.789  0.0126 -0.0594 -0.5890
 1475TIP3    H126060   4.886   3.592   1.880 -2.6577 -0.6201 -0.9572
 1475TIP3    H226061   4.829   3.688   1.779  2.4737  2.4092 -1.3012
 1476TIP3   OH226062   0.630   2.302   7.482  0.7370 -1.0074  0.6129
 1476TIP3    H126063   0.547   2.272   7.445  0.5466 -1.1834  1.1810
 1476TIP3    H226064   0.636   2.394   7.456 -1.2066 -0.0101  3.2521
 1477TIP3   OH226065   3.876   0.339   0.881 -0.1065  0.2837 -0.7727
 1477TIP3    H126066   3.794   0.387   0.895 -0.3163  0.0614 -1.2218
 1477TIP3    H226067   3.881   0.327   0.787  0.9726  1.2084 -0.8519
 1478TIP3   OH226068   1.338   5.787   0.085 -0.3201 -0.3598 -0.3529
 1478TIP3    H126069   1.357   5.846   0.157 -0.8585  0.0172 -0.5071
 1478TIP3    H226070   1.260   5.825   0.043  0.5638  0.0066 -1.7492
 1479TIP3   OH226071   6.754   4.628   1.258 -0.0633 -0.0358 -0.2738
 1479TIP3    H126072   6.840   4.639   1.298  0.6418 -0.2119 -1.6815
 1479TIP3    H226073   6.703   4.581   1.324  0.6725  0.7121  0.8704
 1480TIP3   OH226074   3.842   1.181   2.171  0.6065  0.0877 -0.3447
 1480TIP3    H126075   3.874   1.267   2.198 -1.2645  0.6954  0.1058
 1480TIP3    H226076   3.785   1.199   2.096 -0.2659 -0.6856  0.1221
 1481TIP3   OH226077   5.784   6.572   2.684  0.3752 -0.3895  0.2349
 1481TIP3    H126078   5.875   6.579   2.714  0.6226  1.8974 -0.8611
 1481TIP3    H226079   5.761   6.661   2.656 -1.6192 -1.2814 -1.1829
 1482TIP3   OH226080   0.399   4.024   0.223 -0.3032  0.5256  0.0252
 1482TIP3    H126081   0.327   4.041   0.284 -0.8889 -0.1182 -0.4822
 1482TIP3    H226082   0.361   3.970   0.154  0.0238  2.2649 -1.6007
 1483TIP3   OH226083   4.137   4.943   1.644 -0.2302 -0.2005 -0.3769
 1483TIP3    H126084   4.132   4.933   1.549  0.8936  3.6196 -1.0013
 1483TIP3    H226085   4.229   4.926   1.665 -0.6038 -1.6820  0.2017
 1484TIP3   OH226086   1.879   3.651   0.147  0.3930  0.0859 -0.6013
 1484TIP3    H126087   1.930   3.662   0.227  1.5473  1.4036 -1.4742
 1484TIP3    H226088   1.789   3.666   0.174  0.6681 -0.2298  0.5755
 1485TIP3   OH226089   3.735   4.434   7.515  0.0645 -0.3552 -0.1250
 1485TIP3    H126090   3.678   4.363   7.546 -0.4298 -0.0884 -0.4078
 1485TIP3    H226091   3.746   4.416   7.421 -0.3664  0.1421 -0.2747
 1486TIP3   OH226092   1.032   5.121   3.027  0.0222  0.8748  0.2908
 1486TIP3    H126093   1.071   5.111   3.114  0.1669  0.8181  0.2201
 1486TIP3    H226094   0.974   5.196   3.035  1.3520  1.9745 -0.0277
 1487TIP3   OH226095   5.265   4.044   8.528 -0.2392 -0.0594  0.3252
 1487TIP3    H126096   5.312   3.972   8.571 -1.0098 -0.4885  0.4587
 1487TIP3    H226097   5.249   4.012   8.439 -2.0490 -0.7614  0.8599
 1488TIP3   OH226098   6.093   2.487   8.148 -0.4930 -0.1183  0.2658
 1488TIP3    H126099   5.997   2.494   8.153 -0.7235 -2.4530 -0.0093
 1488TIP3    H226100   6.109   2.426   8.076  0.9482 -3.9058  3.4470
 1489TIP3   OH226101   4.963   4.710   6.986 -0.3881  0.3739  0.7751
 1489TIP3    H126102   4.928   4.751   7.065 -0.0988  1.0635  0.5510
 1489TIP3    H226103   5.048   4.751   6.973 -0.2083 -0.1093  0.3939
 1490TIP3   OH226104   4.742   5.732   1.563 -0.2233  1.1363 -0.0685
 1490TIP3    H126105   4.770   5.735   1.654  0.3536  1.6158 -0.2512
 1490TIP3    H226106   4.809   5.680   1.519 -1.2093 -0.2453  0.0077
 1491TIP3   OH226107   2.025   0.041   8.184 -0.3489  0.8141 -0.2025
 1491TIP3    H126108   2.028   0.028   8.089  0.5062  0.6699 -0.1579
 1491TIP3    H226109   1.954  -0.016   8.213 -1.6569  2.0030 -0.9296
 1492TIP3   OH226110   3.008   0.491   1.846 -0.0538  0.2207 -0.1229
 1492TIP3    H126111   3.001   0.423   1.914  0.7192  0.5122  0.2594
 1492TIP3    H226112   2.973   0.570   1.888 -0.1936  0.2488 -0.2924
 1493TIP3   OH226113   5.438   1.109   0.746  0.3117 -0.6202 -0.5312
 1493TIP3    H126114   5.428   1.188   0.694 -1.9451 -0.0726  0.6284
 1493TIP3    H226115   5.469   1.043   0.684  0.0885  0.6061 -1.9963
 1494TIP3   OH226116   4.421   2.816   1.956 -0.0741 -0.5908 -0.1582
 1494TIP3    H126117   4.357   2.758   1.997 -0.5811 -0.3383 -0.5838
 1494TIP3    H226118   4.411   2.801   1.862  1.8532 -2.0086 -0.2120
 1495TIP3   OH226119   4.859   1.463   8.450 -0.2985 -0.3344 -0.6423
 1495TIP3    H126120   4.867   1.388   8.390 -1.2999 -0.3964 -0.7195
 1495TIP3    H226121   4.948   1.497   8.457  0.3472 -2.0376  0.0409
 1496TIP3   OH226122   5.866   5.446   1.218  0.8017 -0.5911 -0.1486
 1496TIP3    H126123   5.902   5.395   1.145  0.6467 -0.2093 -0.5023
 1496TIP3    H226124   5.801   5.503   1.176  0.5292 -0.5475  0.3310
 1497TIP3   OH226125   2.694   3.576   0.581 -0.2281  0.0613  0.1306
 1497TIP3    H126126   2.657   3.586   0.494 -0.2033 -1.1068 -0.0307
 1497TIP3    H226127   2.767   3.638   0.584  0.2619 -0.4287 -0.9698
 1498TIP3   OH226128   2.113   4.200   2.603 -0.1906 -0.1982 -0.7438
 1498TIP3    H126129   2.024   4.230   2.622  0.1132  0.2382  0.0620
 1498TIP3    H226130   2.104   4.107   2.584 -0.9311  0.0319 -1.5559
 1499TIP3   OH226131   1.239   5.231   2.533  0.0529  0.4122 -0.1070
 1499TIP3    H126132   1.253   5.323   2.553 -0.7605  0.2923  1.1050
 1499TIP3    H226133   1.145   5.225   2.513  0.3105  0.0269 -1.2732
 1500TIP3   OH226134   5.048   4.815   2.326  0.4232  0.4844 -0.0564
 1500TIP3    H126135   4.993   4.857   2.392  1.4646 -0.7164  1.6593
 1500TIP3    H226136   4.991   4.750   2.284 -0.2046  1.1419 -0.2406
 1501TIP3   OH226137   0.340   6.033   2.161 -0.5532  0.2287  0.1873
 1501TIP3    H126138   0.407   5.973   2.192 -1.9726 -1.1757  0.6771
 1501TIP3    H226139   0.389   6.108   2.127  1.2509 -0.8169  0.3342
 1502TIP3   OH226140   0.261   2.421   7.504  0.3538  0.2946 -0.3871
 1502TIP3    H126141   0.319   2.351   7.474 -2.2318 -2.8096  1.2129
 1502TIP3    H226142   0.213   2.447   7.425 -1.3405 -2.6545 -0.4899
 1503TIP3   OH226143   3.911   5.676   7.559 -0.0758  0.2643 -0.0385
 1503TIP3    H126144   3.900   5.581   7.549  0.0973  0.2858 -0.4721
 1503TIP3    H226145   3.981   5.698   7.497  0.5744  0.5200  0.7762
 1504TIP3   OH226146   2.649   4.710   1.306  0.2964 -0.3079  0.9742
 1504TIP3    H126147   2.692   4.704   1.221  1.4130  0.3371  1.4643
 1504TIP3    H226148   2.576   4.648   1.301 -1.2852  1.5907 -1.3587
 1505TIP3   OH226149   6.378   1.392   7.001 -0.4424 -0.2291 -0.2522
 1505TIP3    H126150   6.413   1.369   6.915  1.1681  1.9445 -0.2316
 1505TIP3    H226151   6.297   1.438   6.982 -0.6568 -0.7010 -0.5256
 1506TIP3   OH226152   4.257   4.525   0.101 -0.1452 -0.6496  0.2179
 1506TIP3    H126153   4.251   4.539   0.006  2.0717  0.8990  0.2176
 1506TIP3    H226154   4.346   4.493   0.114 -0.6067 -1.3935  1.7514
 1507TIP3   OH226155   1.324   0.400   0.968  0.4708  0.4819 -0.7219
 1507TIP3    H126156   1.263   0.450   1.023 -0.0647  0.5279 -1.3539
 1507TIP3    H226157   1.345   0.322   1.021  1.0469  1.1894  0.1239
 1508TIP3   OH226158   5.055   5.777   8.282  0.5312 -0.3392  0.4156
 1508TIP3    H126159   4.963   5.753   8.278  0.1698  0.5023  2.4510
 1508TIP3    H226160   5.081   5.787   8.191 -1.8387  1.0066 -0.2055
 1509TIP3   OH226161   4.109   3.694   2.047 -0.2729  0.4388  0.1665
 1509TIP3    H126162   4.095   3.602   2.065 -0.4284  1.0723  4.1927
 1509TIP3    H226163   4.035   3.739   2.088  0.2938  2.4057 -0.8193
 1510TIP3   OH226164   6.253   2.004   0.180 -0.1325  0.5222 -0.2081
 1510TIP3    H126165   6.160   1.989   0.161  0.1790 -0.8029 -0.8006
 1510TIP3    H226166   6.260   2.099   0.188 -1.3912  0.7119 -0.9884
 1511TIP3   OH226167   0.867   6.684   1.032  0.4962 -0.4360  0.5252
 1511TIP3    H126168   0.782   6.724   1.011  0.8825  0.0758 -0.0899
 1511TIP3    H226169   0.908   6.667   0.948  1.2031 -0.2486  0.8204
 1512TIP3   OH226170   1.689   0.613   7.830 -0.9134 -0.1853  0.1156
 1512TIP3    H126171   1.659   0.528   7.798 -2.3047  0.5173 -0.5508
 1512TIP3    H226172   1.627   0.636   7.898 -0.3726  0.1708  0.4955
 1513TIP3   OH226173   0.203   5.891   8.555 -0.5414  0.3043 -0.4265
 1513TIP3    H126174   0.256   5.953   8.606  2.4667 -2.8239  0.5963
 1513TIP3    H226175   0.155   5.947   8.494 -1.3235  3.9405  3.0827
 1514TIP3   OH226176   5.460   3.578   1.424  0.1313 -0.4073  0.2679
 1514TIP3    H126177   5.452   3.555   1.517  3.1688 -1.0737  0.4798
 1514TIP3    H226178   5.375   3.616   1.401 -0.8857 -0.6641  3.1721
 1515TIP3   OH226179   6.329   1.960   7.561 -0.4846 -0.1950  0.0817
 1515TIP3    H126180   6.309   2.054   7.552  0.8087  0.2807  1.7059
 1515TIP3    H226181   6.413   1.958   7.606 -0.2121 -2.1581 -0.4522
 1516TIP3   OH226182   0.725   1.794   1.702  0.0576  0.7266 -0.1924
 1516TIP3    H126183   0.808   1.842   1.697 -0.1371  0.9559 -1.6789
 1516TIP3    H226184   0.659   1.861   1.721  0.2262  0.4908  1.3830
 1517TIP3   OH226185   3.332   0.959   8.430  0.5081  0.2323  0.2063
 1517TIP3    H126186   3.304   0.996   8.346 -0.5726  1.5614  1.1078
 1517TIP3    H226187   3.421   0.992   8.441  0.7231 -0.0932 -0.4909
 1518TIP3   OH226188   4.076   1.600   6.921  0.0557  0.4011 -0.1505
 1518TIP3    H126189   4.001   1.543   6.904 -0.5013  1.4836 -1.4489
 1518TIP3    H226190   4.041   1.688   6.916  1.2606  0.9159  0.0649
 1519TIP3   OH226191   0.645   3.078   7.567  0.6718 -0.0628  0.1995
 1519TIP3    H126192   0.739   3.080   7.586  1.0320  1.7425 -1.4338
 1519TIP3    H226193   0.625   3.166   7.536 -1.3702 -0.6726 -0.3819
 1520TIP3   OH226194   0.255   5.226   7.915  0.4444 -0.0497  0.1879
 1520TIP3    H126195   0.275   5.241   7.822 -0.0182 -0.4077  0.0302
 1520TIP3    H226196   0.302   5.145   7.936  0.2847 -0.1439  0.1808
 1521TIP3   OH226197   0.317   6.710   7.442  0.4434 -0.6119 -0.0918
 1521TIP3    H126198   0.257   6.766   7.393 -1.3439 -3.0679 -0.9129
 1521TIP3    H226199   0.289   6.719   7.533  1.3146  1.0687  0.0499
 1522TIP3   OH226200   0.004   1.700   6.998  0.3730 -0.7906 -0.2478
 1522TIP3    H126201   0.053   1.675   7.077 -0.1145  0.0203  0.3235
 1522TIP3    H226202  -0.076   1.647   7.002  0.1374 -0.4159  0.0500
 1523TIP3   OH226203   6.678   3.998   8.333  0.3208  0.9732  0.2454
 1523TIP3    H126204   6.740   4.028   8.400  0.1899  0.7944  0.4465
 1523TIP3    H226205   6.732   3.949   8.271 -0.0422 -2.2427  2.2116
 1524TIP3   OH226206   2.556   5.436   1.980  0.3725  0.2471  0.0724
 1524TIP3    H126207   2.491   5.409   2.044 -1.3442  0.6661 -1.4031
 1524TIP3    H226208   2.621   5.486   2.030 -0.6326  0.1481  1.5301
 1525TIP3   OH226209   2.374   0.725   6.619  0.6640  0.0614  0.1357
 1525TIP3    H126210   2.446   0.666   6.596 -0.0987 -0.0697 -2.1694
 1525TIP3    H226211   2.299   0.667   6.632  0.5863  0.3197  0.8858
 1526TIP3   OH226212   3.202   5.857   2.235 -0.5510  0.2243  0.3003
 1526TIP3    H126213   3.267   5.794   2.265 -0.4962  0.5803  0.9549
 1526TIP3    H226214   3.144   5.807   2.178 -1.1016 -0.6603  1.6007
 1527TIP3   OH226215   0.719   5.000   1.823 -0.4624  0.1187  0.2795
 1527TIP3    H126216   0.796   5.026   1.872  0.8710 -1.7935 -0.6677
 1527TIP3    H226217   0.654   4.978   1.891  0.8076 -1.0016  1.1826
 1528TIP3   OH226218   6.394   5.644   2.046  0.4358  0.0237  0.2181
 1528TIP3    H126219   6.441   5.573   2.090  1.1791 -1.0043 -2.0806
 1528TIP3    H226220   6.431   5.646   1.958 -0.3367  2.5860 -0.1241
 1529TIP3   OH226221   4.922   0.204   7.532 -0.3397 -0.3046  0.1439
 1529TIP3    H126222   4.963   0.190   7.446 -0.3234  1.9835 -0.2797
 1529TIP3    H226223   4.983   0.261   7.579 -0.5933 -1.1179  1.5236
 1530TIP3   OH226224   0.233   4.453   2.307 -0.2121  0.2289 -0.3590
 1530TIP3    H126225   0.146   4.428   2.275 -0.9721  0.7977  1.1532
 1530TIP3    H226226   0.269   4.373   2.344 -0.7286  0.3187  0.3540
 1531TIP3   OH226227   5.368   4.863   1.198 -0.1039  0.1924  0.0923
 1531TIP3    H126228   5.288   4.858   1.145 -0.5952 -2.0531  0.9243
 1531TIP3    H226229   5.408   4.777   1.188  0.4602  0.1489  2.3133
 1532TIP3   OH226230   3.768   4.714   7.817 -0.2548  0.5825  0.3496
 1532TIP3    H126231   3.692   4.667   7.781  1.4856 -0.6725 -1.9632
 1532TIP3    H226232   3.843   4.664   7.787  1.5588  1.3316  3.2013
 1533TIP3   OH226233   1.109   0.627   7.677 -0.8855 -0.5099 -0.1749
 1533TIP3    H126234   1.117   0.594   7.767  1.4745 -0.2519 -0.2303
 1533TIP3    H226235   1.107   0.548   7.623  1.7226 -0.7007 -0.1043
 1534TIP3   OH226236   1.212   4.327   0.118  0.1021  0.3884  0.2426
 1534TIP3    H126237   1.251   4.397   0.065  0.4937  0.4349  0.5809
 1534TIP3    H226238   1.245   4.246   0.079  1.3394  0.4408  1.0909
 1535TIP3   OH226239   1.135   4.675   2.649 -0.3736  0.2687 -0.7712
 1535TIP3    H126240   1.084   4.606   2.606 -2.2205  2.3989 -2.2709
 1535TIP3    H226241   1.106   4.673   2.740 -1.8702  0.2722 -1.2196
 1536TIP3   OH226242   2.991   1.720   7.910  0.4168  0.0956 -0.2288
 1536TIP3    H126243   3.082   1.725   7.879  0.8055  0.4278  0.9272
 1536TIP3    H226244   2.959   1.636   7.876  1.2854 -0.2233 -0.2854
 1537TIP3   OH226245   4.336   3.582   2.702  0.1914 -0.4609 -0.7195
 1537TIP3    H126246   4.254   3.625   2.678 -0.2399 -0.0802  1.3102
 1537TIP3    H226247   4.399   3.653   2.708  0.3958 -0.6079 -1.0409
 1538TIP3   OH226248   6.395   6.208   1.688 -0.4948  0.5539  0.2996
 1538TIP3    H126249   6.449   6.236   1.761 -0.8429  1.8266  0.0971
 1538TIP3    H226250   6.445   6.235   1.610  0.3641 -1.6896 -0.0042
 1539TIP3   OH226251   0.607   4.859   7.863  0.1719 -0.6693  0.0884
 1539TIP3    H126252   0.630   4.786   7.921  1.9465  0.8167  1.4075
 1539TIP3    H226253   0.649   4.838   7.780  1.8510 -0.5868  0.8586
 1540TIP3   OH226254   2.289   0.953   7.642  0.2565 -0.9792  0.2260
 1540TIP3    H126255   2.383   0.946   7.627  0.3387  0.3910 -0.0622
 1540TIP3    H226256   2.259   1.014   7.574 -0.4403  0.3318  1.6443
 1541TIP3   OH226257   2.292   4.319   0.218 -0.1093 -0.4540 -0.3667
 1541TIP3    H126258   2.369   4.322   0.274 -0.1314  0.2232 -0.3676
 1541TIP3    H226259   2.218   4.319   0.278 -0.1397  0.5275 -0.3822
 1542TIP3   OH226260   1.047   6.814   7.359 -0.1110  0.3777 -0.6044
 1542TIP3    H126261   1.125   6.820   7.304 -0.4235 -0.1391 -1.1117
 1542TIP3    H226262   0.974   6.803   7.298 -0.3247 -1.5479 -0.0820
 1543TIP3   OH226263   3.329   4.752   0.399  0.5094 -0.4408  0.2271
 1543TIP3    H126264   3.405   4.715   0.353  0.7045  1.4467 -1.1322
 1543TIP3    H226265   3.367   4.813   0.462  0.1657  0.4070 -0.3594
 1544TIP3   OH226266   4.466   5.417   0.240 -0.5271  0.3910 -0.0619
 1544TIP3    H126267   4.457   5.511   0.225 -0.9923  0.5614  1.1888
 1544TIP3    H226268   4.376   5.387   0.257 -0.2783 -0.1282  0.3641
 1545TIP3   OH226269   0.928   5.534   1.439  0.3809  0.0341 -0.0057
 1545TIP3    H126270   1.002   5.574   1.483  0.3450 -2.3586  2.5000
 1545TIP3    H226271   0.860   5.602   1.438  1.9937  1.7049 -0.8325
 1546TIP3   OH226272   4.163   3.082   1.954  0.4579  0.2884 -0.0351
 1546TIP3    H126273   4.082   3.054   1.912  0.8908 -0.8782 -0.1106
 1546TIP3    H226274   4.188   3.161   1.906  0.1221 -0.1486 -0.9501
 1547TIP3   OH226275   5.344   3.192   8.311 -0.0194 -0.4501 -0.3393
 1547TIP3    H126276   5.308   3.152   8.232 -0.0496  0.4684 -0.8010
 1547TIP3    H226277   5.439   3.183   8.301  0.0027  0.1830 -0.7725
 1548TIP3   OH226278   6.174   4.628   1.106 -0.1444  0.0512  0.4161
 1548TIP3    H126279   6.200   4.536   1.115 -0.4722 -0.4643 -2.7913
 1548TIP3    H226280   6.246   4.669   1.058 -0.5229  1.1999  0.7956
 1549TIP3   OH226281   2.972   3.991   0.429 -0.0068  0.1481 -0.3754
 1549TIP3    H126282   3.061   4.001   0.395 -0.2650 -1.3571 -1.5701
 1549TIP3    H226283   2.917   4.042   0.369  0.0353  1.3091  0.5208
 1550TIP3   OH226284   5.817   4.993   1.979  0.2879  0.0833  0.1893
 1550TIP3    H126285   5.796   4.912   2.027  1.4015 -0.2493  0.1457
 1550TIP3    H226286   5.788   4.975   1.890  2.1046 -0.9994 -0.2494
 1551TIP3   OH226287   3.983   1.156   7.280  0.1647 -0.0006  0.9679
 1551TIP3    H126288   3.928   1.124   7.208 -1.2877  2.7229  0.7236
 1551TIP3    H226289   4.069   1.170   7.240 -0.1150 -0.2897  0.2447
 1552TIP3   OH226290   2.937   2.181   0.720 -0.1040  0.3762 -0.7458
 1552TIP3    H126291   2.910   2.092   0.740 -0.1171  0.6032  0.3205
 1552TIP3    H226292   2.862   2.220   0.675 -0.5791  0.2277 -0.0866
 1553TIP3   OH226293   3.201   3.379   7.613 -0.3639  0.3232  0.2497
 1553TIP3    H126294   3.175   3.288   7.624 -0.6030 -0.0334 -2.6535
 1553TIP3    H226295   3.284   3.387   7.661 -0.0597 -1.5621  0.0938
 1554TIP3   OH226296   1.729   0.720   0.243  0.1556 -0.1860 -0.2012
 1554TIP3    H126297   1.634   0.718   0.255 -0.0414 -1.2314 -1.6878
 1554TIP3    H226298   1.763   0.686   0.325 -0.5390  3.1193  1.6391
 1555TIP3   OH226299   6.712   6.046   2.090 -0.4301  0.4540 -0.1618
 1555TIP3    H126300   6.786   6.099   2.058  1.2932 -0.8731  1.3868
 1555TIP3    H226301   6.699   5.980   2.023  1.4182 -0.7209  0.5448
 1556TIP3   OH226302   6.275   4.455   2.928  0.0755  0.1088 -0.5269
 1556TIP3    H126303   6.319   4.528   2.972 -1.7325  2.0994 -1.7536
 1556TIP3    H226304   6.182   4.467   2.949 -0.7259  0.4115 -3.6345
 1557TIP3   OH226305   4.563   5.136   7.229  0.4548  0.7727 -0.9234
 1557TIP3    H126306   4.527   5.098   7.149 -0.9776 -3.5207  1.4668
 1557TIP3    H226307   4.657   5.115   7.226  0.4561  0.8770 -1.5914
 1558TIP3   OH226308   4.843   3.302   2.339  0.8385 -0.0250 -0.1947
 1558TIP3    H126309   4.922   3.308   2.393  0.9099  1.5967 -0.4386
 1558TIP3    H226310   4.793   3.381   2.361 -0.0503 -0.3198 -1.0944
 1559TIP3   OH226311   0.951   3.721   7.712  0.2093 -0.3332  0.2344
 1559TIP3    H126312   0.976   3.732   7.804  0.3210 -1.4781  0.3555
 1559TIP3    H226313   1.028   3.747   7.662  0.2722 -0.0528  0.4778
 1560TIP3   OH226314   1.149   4.453   8.297 -0.2979 -0.0909 -0.3363
 1560TIP3    H126315   1.182   4.485   8.381 -0.6010 -1.1429  0.2092
 1560TIP3    H226316   1.135   4.532   8.245  1.3687  0.4974  0.0381
 1561TIP3   OH226317   5.120   6.465   1.577 -0.3096  0.0408  0.1953
 1561TIP3    H126318   5.130   6.389   1.634  0.7704  0.0803  0.0841
 1561TIP3    H226319   5.167   6.442   1.498  3.5555  2.2435  1.5862
 1562TIP3   OH226320   1.807   5.769   0.365 -0.0507  0.3424  0.1668
 1562TIP3    H126321   1.760   5.798   0.442  0.0926 -0.2916  0.5009
 1562TIP3    H226322   1.842   5.683   0.389 -1.2033 -0.5313 -1.0689
 1563TIP3   OH226323   4.950   0.568   7.285  0.1518  0.3503 -0.0234
 1563TIP3    H126324   4.907   0.483   7.272  0.5484 -0.1928  1.9438
 1563TIP3    H226325   5.042   0.547   7.298  0.4802  1.2257 -0.7878
 1564TIP3   OH226326   3.818   6.695   7.429 -0.9530 -0.2285 -0.1987
 1564TIP3    H126327   3.907   6.675   7.399 -1.0289 -1.6399  0.4344
 1564TIP3    H226328   3.782   6.751   7.361 -0.0390 -0.7619 -1.1512
 1565TIP3   OH226329   6.521   6.011   1.460 -0.2261  0.2079  0.3083
 1565TIP3    H126330   6.528   6.106   1.470  2.4217  0.1758 -0.5252
 1565TIP3    H226331   6.559   5.975   1.540 -3.3020 -0.2797  1.7031
 1566TIP3   OH226332   0.856   3.097   7.964  0.0919  0.1934 -0.2823
 1566TIP3    H126333   0.924   3.146   8.010  0.1047 -0.0943  0.0040
 1566TIP3    H226334   0.784   3.159   7.956  0.1039  0.2590  0.0855
 1567TIP3   OH226335   2.376   6.701   0.154  0.4365 -0.0942 -0.7908
 1567TIP3    H126336   2.305   6.644   0.183  0.7337 -0.0854 -0.0401
 1567TIP3    H226337   2.334   6.761   0.093 -0.7978  1.5829  1.5526
 1568TIP3   OH226338   3.341   5.283   8.655 -0.7629  0.2310 -0.1464
 1568TIP3    H126339   3.327   5.366   8.609  1.6165  0.7532 -0.0316
 1568TIP3    H226340   3.433   5.263   8.642 -0.1781 -0.1456  3.5097
 1569TIP3   OH226341   2.677   2.442   7.959 -0.3122 -0.1417 -0.2676
 1569TIP3    H126342   2.717   2.444   7.872 -2.1774 -0.8380 -1.1901
 1569TIP3    H226343   2.680   2.350   7.984  0.8399  0.1420  0.7572
 1570TIP3   OH226344   5.794   5.428   8.705 -0.6803 -0.1433 -0.3056
 1570TIP3    H126345   5.777   5.521   8.691 -0.1123 -0.2773 -2.1870
 1570TIP3    H226346   5.716   5.396   8.750 -0.2677  1.4942  1.7143
 1571TIP3   OH226347   4.242   1.525   0.708 -0.6547 -0.2168  1.0435
 1571TIP3    H126348   4.175   1.478   0.758 -0.5626 -0.4942  0.9058
 1571TIP3    H226349   4.194   1.595   0.665 -0.9316 -0.6757  0.6039
 1572TIP3   OH226350   5.318   2.802   7.968 -0.3425  0.5505  0.5238
 1572TIP3    H126351   5.282   2.799   7.880 -0.4722 -1.4257  0.6014
 1572TIP3    H226352   5.408   2.832   7.957 -0.6456  1.2478 -0.1489
 1573TIP3   OH226353   0.747   4.843   7.628  0.1660 -0.1346 -0.3841
 1573TIP3    H126354   0.658   4.861   7.597 -0.0550  1.3347  0.9787
 1573TIP3    H226355   0.766   4.754   7.596 -0.9940  0.2891 -2.4016
 1574TIP3   OH226356   2.967   6.256   8.212 -0.6433  0.1368 -0.2397
 1574TIP3    H126357   3.005   6.193   8.274 -0.1027  0.0826 -0.6152
 1574TIP3    H226358   2.939   6.329   8.266 -1.4839 -0.5132  0.2344
 1575TIP3   OH226359   3.804   5.902   0.176  0.2876 -0.1412 -0.5079
 1575TIP3    H126360   3.744   5.929   0.107 -0.8306  1.0491  0.8568
 1575TIP3    H226361   3.825   5.984   0.222  0.1480 -1.0194  1.2001
 1576TIP3   OH226362   0.545   6.224   7.922 -0.4176 -0.1454  0.8886
 1576TIP3    H126363   0.555   6.308   7.879 -2.2243 -0.6916 -0.7395
 1576TIP3    H226364   0.617   6.220   7.985  0.1707  2.2425  0.4504
 1577TIP3   OH226365   4.696   2.978   8.735 -0.1022 -0.7283  0.3740
 1577TIP3    H126366   4.743   3.059   8.713  0.2137 -1.2174 -0.8201
 1577TIP3    H226367   4.605   2.997   8.711 -0.2446 -0.3235  1.2132
 1578TIP3   OH226368   4.487   5.100   1.759  0.0888 -0.2996  0.0167
 1578TIP3    H126369   4.439   5.030   1.716  1.4851 -0.7808 -0.8352
 1578TIP3    H226370   4.548   5.132   1.693 -1.7154  3.0256 -0.2409
 1579TIP3   OH226371   2.558   3.570   6.918 -0.0850  0.2234  0.0949
 1579TIP3    H126372   2.582   3.569   6.825  0.2296 -0.6350  0.1768
 1579TIP3    H226373   2.586   3.656   6.949  0.8851  0.0811 -0.3359
 1580TIP3   OH226374   2.299   5.079   0.067  0.1745  0.3469 -0.0323
 1580TIP3    H126375   2.392   5.098   0.079 -0.3089  2.0742  1.4261
 1580TIP3    H226376   2.275   5.028   0.144 -0.1813  0.3164 -0.1600
 1581TIP3   OH226377   2.439   4.250   1.696  0.5195  0.4496  0.1053
 1581TIP3    H126378   2.439   4.157   1.674  1.6902 -0.5175  3.4485
 1581TIP3    H226379   2.357   4.263   1.744  0.9729  0.7665  0.8144
 1582TIP3   OH226380   4.768   0.677   8.015 -0.2430  0.0789 -0.0137
 1582TIP3    H126381   4.854   0.694   8.052  0.8732 -1.2057 -1.8429
 1582TIP3    H226382   4.786   0.633   7.932 -2.6763 -0.9863 -0.0646
 1583TIP3   OH226383   5.811   6.346   8.000  0.0639  0.4194 -0.9179
 1583TIP3    H126384   5.865   6.295   7.941  1.8723  0.7414  0.3925
 1583TIP3    H226385   5.865   6.422   8.024 -0.4349  0.1231  1.3945
 1584TIP3   OH226386   1.837   4.931   7.768  0.3432 -0.2785  0.2688
 1584TIP3    H126387   1.892   4.968   7.698 -0.0661 -0.0023  0.0860
 1584TIP3    H226388   1.867   4.975   7.847  1.3770 -1.1931  0.4153
 1585TIP3   OH226389   0.294   1.712   2.976 -0.1769 -0.3695  0.2573
 1585TIP3    H126390   0.388   1.727   2.986 -0.2087 -0.3169  0.4904
 1585TIP3    H226391   0.254   1.795   3.002 -0.3358 -0.7101  1.1500
 1586TIP3   OH226392   5.802   6.768   8.149  0.1642  0.0463  0.8110
 1586TIP3    H126393   5.779   6.852   8.187 -0.3950 -0.1334  0.8759
 1586TIP3    H226394   5.792   6.705   8.221  0.2408 -0.1265  0.6723
 1587TIP3   OH226395   5.502   1.087   3.012 -0.3908  0.0040 -0.6348
 1587TIP3    H126396   5.510   0.992   2.999 -0.8799 -0.0456 -0.6084
 1587TIP3    H226397   5.455   1.117   2.934 -2.1594 -0.0952  0.3450
 1588TIP3   OH226398   5.160   5.583   2.352  0.3602 -0.3212 -0.4542
 1588TIP3    H126399   5.256   5.586   2.350  0.3980 -0.6195  0.5041
 1588TIP3    H226400   5.137   5.519   2.285  0.8948 -1.1346  0.1231
 1589TIP3   OH226401   3.114   6.174   8.824  0.0515  0.1281  0.1869
 1589TIP3    H126402   3.103   6.267   8.844 -1.0656 -0.1298  0.8278
 1589TIP3    H226403   3.134   6.134   8.908 -3.3615 -0.7696  0.6937
 1590TIP3   OH226404   4.970   6.282   1.373 -0.2798  0.3362  0.9860
 1590TIP3    H126405   5.013   6.264   1.457 -0.2080 -0.6627  0.7582
 1590TIP3    H226406   4.921   6.202   1.355  0.2637  0.2684 -0.2587
 1591TIP3   OH226407   6.795   3.032   7.724 -0.3894  0.2687  0.3524
 1591TIP3    H126408   6.812   3.090   7.650 -0.3399 -2.4581 -1.9594
 1591TIP3    H226409   6.874   2.979   7.732 -0.1943  0.8182  2.7691
 1592TIP3   OH226410   2.814   0.216   1.922 -0.0907  0.0061 -0.2925
 1592TIP3    H126411   2.831   0.195   1.830 -1.2563 -0.6173 -0.3854
 1592TIP3    H226412   2.870   0.156   1.971 -1.4879 -1.6597 -0.5992
 1593TIP3   OH226413   5.857   1.991   1.166 -0.2964  0.1603 -0.3633
 1593TIP3    H126414   5.784   2.003   1.227  0.8422  0.6218  0.9716
 1593TIP3    H226415   5.862   1.897   1.151  0.1493 -0.0921  1.2432
 1594TIP3   OH226416   4.729   5.845   7.736 -0.0820  0.1645 -0.5045
 1594TIP3    H126417   4.637   5.822   7.721 -0.4659  1.3738 -0.1214
 1594TIP3    H226418   4.755   5.893   7.657  0.9136 -2.0475 -1.5984
 1595TIP3   OH226419   6.327   1.394   2.253 -0.3319 -0.5873  0.0232
 1595TIP3    H126420   6.282   1.329   2.200 -0.1974  0.0515 -0.8906
 1595TIP3    H226421   6.412   1.406   2.211  0.7573 -1.7858  1.7321
 1596TIP3   OH226422   1.124   4.726   0.558 -0.2645  0.1304 -0.8519
 1596TIP3    H126423   1.199   4.776   0.526  0.1824  0.4203  0.5689
 1596TIP3    H226424   1.048   4.772   0.522  0.2143  0.2481 -1.7379
 1597TIP3   OH226425   4.526   4.474   0.571  0.4136  0.1550 -0.8979
 1597TIP3    H126426   4.598   4.492   0.631  0.5684  1.3136 -1.4151
 1597TIP3    H226427   4.447   4.479   0.625  0.7389 -2.4040 -0.0399
 1598TIP3   OH226428   3.890   0.316   0.140  0.1439 -0.6998  0.1732
 1598TIP3    H126429   3.961   0.352   0.193  1.1458 -1.7427 -0.4305
 1598TIP3    H226430   3.848   0.251   0.196  0.6192 -1.1476  0.0108
 1599TIP3   OH226431   6.206   6.548   7.038  0.5176  0.1258  0.1926
 1599TIP3    H126432   6.299   6.550   7.015  0.1082  0.2643 -1.5978
 1599TIP3    H226433   6.165   6.612   6.980 -0.8016 -0.4871  0.3942
 1600TIP3   OH226434   3.953   5.195   0.562  0.3604  0.0661  0.1945
 1600TIP3    H126435   3.883   5.260   0.567 -0.8372 -1.2342  0.7581
 1600TIP3    H226436   4.001   5.205   0.644 -0.1712 -0.1377  0.5324
 1601TIP3   OH226437   6.271   2.471   1.042  0.2236  0.3957 -0.2534
 1601TIP3    H126438   6.248   2.553   0.997 -0.0465  0.8343  0.6503
 1601TIP3    H226439   6.187   2.432   1.065  0.3538  0.2137 -0.0853
 1602TIP3   OH226440   0.304   1.036   7.225 -0.2574  0.1295 -0.0160
 1602TIP3    H126441   0.306   0.941   7.217  1.0393  0.1659 -0.2737
 1602TIP3    H226442   0.282   1.067   7.137 -0.3137  0.0810 -0.0189
 1603TIP3   OH226443   4.200   2.473   2.739  0.0228  0.0427 -0.1556
 1603TIP3    H126444   4.112   2.472   2.775 -0.0406 -2.6500 -0.1266
 1603TIP3    H226445   4.256   2.449   2.813  0.3082 -1.8509 -0.9251
 1604TIP3   OH226446   1.614   0.045   1.429 -0.0575  0.0642 -0.2306
 1604TIP3    H126447   1.657  -0.040   1.422  0.9280  0.2685  2.4522
 1604TIP3    H226448   1.656   0.098   1.361 -0.3622 -1.3970 -1.6363
 1605TIP3   OH226449   3.544   1.700   0.515 -0.1299  0.1689  0.0782
 1605TIP3    H126450   3.573   1.782   0.475 -1.5916  0.4620 -0.4450
 1605TIP3    H226451   3.473   1.670   0.459  0.5128 -1.5846  0.1371
 1606TIP3   OH226452   4.596   3.819   1.252  0.9344  0.2208  0.3598
 1606TIP3    H126453   4.666   3.854   1.307  1.4226 -0.0709 -0.0551
 1606TIP3    H226454   4.608   3.724   1.256  0.5747  0.1706  0.2692
 1607TIP3   OH226455   1.512   3.709   7.630  0.1846  0.7003  0.0175
 1607TIP3    H126456   1.576   3.777   7.653  2.3349 -0.4086 -2.2137
 1607TIP3    H226457   1.560   3.627   7.637 -0.7873 -0.1505 -2.2673
 1608TIP3   OH226458   5.775   2.845   2.323  0.0856  0.0411 -0.4395
 1608TIP3    H126459   5.830   2.920   2.347 -1.5950  1.3558 -0.5427
 1608TIP3    H226460   5.778   2.788   2.399  2.0909 -0.2683 -0.6855
 1609TIP3   OH226461   3.816   0.975   0.456 -0.7656  0.5005  0.2803
 1609TIP3    H126462   3.740   0.954   0.401 -0.5014  1.1384 -0.3320
 1609TIP3    H226463   3.783   1.040   0.518 -0.5718  1.2198 -0.3659
 1610TIP3   OH226464   0.144   1.398   7.955 -0.1859  0.1319  0.6351
 1610TIP3    H126465   0.150   1.352   8.039 -0.4781 -2.5673 -0.7301
 1610TIP3    H226466   0.234   1.418   7.931 -0.0837  0.6517  1.3974
 1611TIP3   OH226467   3.541   4.223   2.254  0.2211  0.4760 -0.1505
 1611TIP3    H126468   3.567   4.242   2.163  1.4908  2.8127  0.6089
 1611TIP3    H226469   3.620   4.188   2.295  0.0612  0.7290  0.3809
 1612TIP3   OH226470   5.113   5.696   8.777 -0.1362  0.6125 -0.3190
 1612TIP3    H126471   5.053   5.757   8.820 -0.4535  1.3528 -1.7591
 1612TIP3    H226472   5.169   5.751   8.723  1.4793 -0.1274  0.5341
 1613TIP3   OH226473   2.627   3.462   2.102  0.5087 -0.5807  0.0711
 1613TIP3    H126474   2.700   3.414   2.062  0.9429 -1.4945  1.8541
 1613TIP3    H226475   2.643   3.456   2.196  0.0346  2.2712  0.4159
 1614TIP3   OH226476   3.068   6.640   1.941 -0.8428 -0.5926  0.2275
 1614TIP3    H126477   3.130   6.660   2.011 -0.1139  0.6198 -0.7278
 1614TIP3    H226478   3.001   6.708   1.948 -0.4960 -0.1609 -0.5546
 1615TIP3   OH226479   3.535   6.108   8.605  0.0542 -0.0643  0.2084
 1615TIP3    H126480   3.522   6.156   8.688  0.7632 -0.5406  0.6044
 1615TIP3    H226481   3.495   6.164   8.539 -0.3636  0.4138  0.8522
 1616TIP3   OH226482   4.059   4.823   8.711 -0.1454 -0.8554 -0.2451
 1616TIP3    H126483   4.140   4.848   8.755  0.9928 -3.3053 -0.7730
 1616TIP3    H226484   4.084   4.807   8.620 -1.2306 -1.5231 -0.4518
 1617TIP3   OH226485   2.721   1.563   2.167 -0.2802  0.0591 -0.0535
 1617TIP3    H126486   2.674   1.615   2.233 -1.3576 -0.6156 -0.2655
 1617TIP3    H226487   2.813   1.575   2.189 -0.5455  1.1947  0.5539
 1618TIP3   OH226488   4.013   0.923   1.495  0.0035  0.0139  0.1712
 1618TIP3    H126489   4.040   1.011   1.469  0.4974  0.1006  0.9462
 1618TIP3    H226490   4.071   0.900   1.567 -0.7677 -0.5561  0.6295
 1619TIP3   OH226491   2.970   2.441   2.020  0.3936  0.5886 -0.0871
 1619TIP3    H126492   2.995   2.399   1.938 -1.4481 -0.5329 -0.1167
 1619TIP3    H226493   3.010   2.387   2.088 -0.1077  0.0911 -0.1853
 1620TIP3   OH226494   0.173   0.478   8.084 -0.3561  0.0352 -0.7981
 1620TIP3    H126495   0.187   0.540   8.013 -0.0412 -0.8795 -1.5664
 1620TIP3    H226496   0.216   0.398   8.054  3.0174  0.5716  1.9122
 1621TIP3   OH226497   0.926   0.732   1.891  0.5537 -0.4379 -0.5329
 1621TIP3    H126498   0.933   0.653   1.944  0.6693 -0.3091 -0.3529
 1621TIP3    H226499   0.959   0.802   1.948 -1.2428  0.0433 -0.0164
 1622TIP3   OH226500   1.825   0.382   0.776  0.4591  0.7222  0.6109
 1622TIP3    H126501   1.821   0.381   0.872 -2.5734  0.9809  0.5921
 1622TIP3    H226502   1.788   0.467   0.752  1.0596  0.6014 -0.8032
 1623TIP3   OH226503   2.442   5.180   1.826 -0.0383  0.3436  0.0585
 1623TIP3    H126504   2.494   5.248   1.867  0.6402 -0.2798  0.2615
 1623TIP3    H226505   2.369   5.166   1.886 -1.0424  1.9440 -0.7274
 1624TIP3   OH226506   0.999   4.485   7.405  0.6760  0.2669 -0.1950
 1624TIP3    H126507   0.956   4.524   7.328 -0.5590  0.8525  0.7578
 1624TIP3    H226508   1.093   4.492   7.386  0.4050  0.9016 -1.3995
 1625TIP3   OH226509   5.553   0.577   7.905 -0.2902  0.0621  0.3117
 1625TIP3    H126510   5.484   0.547   7.964  0.5089  2.1026  2.4174
 1625TIP3    H226511   5.634   0.546   7.945  0.1554 -0.7955 -1.1888
 1626TIP3   OH226512   3.538   4.432   2.812  0.3235 -0.0688  0.4723
 1626TIP3    H126513   3.627   4.439   2.778  0.6216 -0.4777  1.1475
 1626TIP3    H226514   3.488   4.498   2.763  1.3236  1.2596  1.1574
 1627TIP3   OH226515   0.379   4.768   1.310 -0.1352 -0.4034  0.1202
 1627TIP3    H126516   0.424   4.833   1.364 -1.4116  1.4631 -0.9684
 1627TIP3    H226517   0.427   4.768   1.227 -0.2849 -0.6737  0.0335
 1628TIP3   OH226518   4.551   3.153   7.913 -0.5067  0.1429  0.1016
 1628TIP3    H126519   4.456   3.161   7.919 -0.4708  1.3176 -0.5777
 1628TIP3    H226520   4.565   3.074   7.862 -1.1616  0.5988 -0.8135
 1629TIP3   OH226521   3.508   5.905   8.431  0.0279  0.5497  0.0194
 1629TIP3    H126522   3.501   5.977   8.494  0.1239 -1.4309  2.4794
 1629TIP3    H226523   3.418   5.873   8.421  0.0960  0.4809 -0.3670
 1630TIP3   OH226524   5.927   0.647   8.576  0.0083 -0.0624  0.4321
 1630TIP3    H126525   5.965   0.718   8.524  1.4872 -1.2780 -0.2332
 1630TIP3    H226526   5.986   0.640   8.652  0.0506 -0.7706  0.3342
 1631TIP3   OH226527   6.763   2.187   0.330 -0.3545 -0.2210 -0.3127
 1631TIP3    H126528   6.846   2.228   0.305 -0.7427  0.9777  0.2918
 1631TIP3    H226529   6.697   2.234   0.279 -0.7640 -0.4201  0.0275
 1632TIP3   OH226530   4.027   6.160   0.373  0.8804 -0.6360 -0.1665
 1632TIP3    H126531   4.033   6.178   0.279  2.6816  0.5861  0.1207
 1632TIP3    H226532   3.971   6.229   0.407  2.7241  0.8646  0.0317
 1633TIP3   OH226533   6.810   0.043   0.461  0.2867 -0.0846 -0.3276
 1633TIP3    H126534   6.744  -0.010   0.418  0.7884 -0.6642 -0.3966
 1633TIP3    H226535   6.841  -0.010   0.534 -0.5917  0.9131  0.8166
 1634TIP3   OH226536   1.078   4.697   8.188 -0.1997  0.7575 -0.4637
 1634TIP3    H126537   0.988   4.710   8.218  0.3597  2.5667  0.5935
 1634TIP3    H226538   1.079   4.729   8.098 -0.7940 -0.0868 -0.7770
 1635TIP3   OH226539   3.088   2.195   1.361  0.2976 -0.8987 -0.3775
 1635TIP3    H126540   3.116   2.119   1.311 -1.0292 -1.8943  0.3409
 1635TIP3    H226541   3.069   2.161   1.449  1.2926  0.5655  0.4442
 1636TIP3   OH226542   2.472   6.604   8.169 -0.1454 -0.0975 -0.0466
 1636TIP3    H126543   2.532   6.537   8.138 -1.0487 -0.2373 -1.5424
 1636TIP3    H226544   2.408   6.557   8.222 -0.2334 -0.2690 -0.3071
 1637TIP3   OH226545   1.946   1.608   2.280 -0.3988  0.2363 -0.0911
 1637TIP3    H126546   2.012   1.625   2.347  0.3035 -1.8419 -0.1838
 1637TIP3    H226547   1.942   1.513   2.273 -1.0370  0.3563 -2.4309
 1638TIP3   OH226548   4.948   2.246   8.160 -0.0851  0.3345  0.1730
 1638TIP3    H126549   4.976   2.235   8.251  0.1171 -1.0503 -0.0367
 1638TIP3    H226550   4.857   2.215   8.159 -0.4230  1.2838  0.0873
 1639TIP3   OH226551   4.101   1.274   0.861  0.4003 -0.1728 -0.5780
 1639TIP3    H126552   4.042   1.349   0.866 -0.2142 -0.5708 -1.4885
 1639TIP3    H226553   4.119   1.251   0.952  0.8536  1.2670 -0.2890
 1640TIP3   OH226554   3.893   2.031   8.251 -0.1173 -0.3965  0.0547
 1640TIP3    H126555   3.980   2.043   8.213 -0.0348 -3.5193 -1.0113
 1640TIP3    H226556   3.851   2.117   8.244  2.6313  1.0582  0.0865
 1641TIP3   OH226557   3.918   1.131   6.625  0.3308  0.1745  0.3607
 1641TIP3    H126558   3.929   1.181   6.707 -1.5092 -0.8556  1.3063
 1641TIP3    H226559   3.948   1.043   6.646 -2.5209 -0.7982  0.8311
 1642TIP3   OH226560   3.083   2.706   7.724  0.5412 -0.3115 -0.0673
 1642TIP3    H126561   3.093   2.699   7.629  2.2826  1.6360 -0.1015
 1642TIP3    H226562   3.005   2.654   7.744 -0.3815 -0.0590 -2.6540
 1643TIP3   OH226563   1.918   6.438   8.316  0.2710 -0.1044  0.6641
 1643TIP3    H126564   1.987   6.383   8.278  1.0892 -0.3040  2.3416
 1643TIP3    H226565   1.838   6.387   8.304  0.4550 -0.0790 -0.8958
 1644TIP3   OH226566   4.272   0.511   8.567 -0.1452 -0.3011  0.0846
 1644TIP3    H126567   4.293   0.598   8.600  0.4990 -0.0622 -0.9322
 1644TIP3    H226568   4.344   0.489   8.509 -1.4113 -0.5337 -1.4710
 1645TIP3   OH226569   3.985   6.374   1.476  0.0906  0.4899  0.5470
 1645TIP3    H126570   3.959   6.396   1.565  0.7696  1.0698  0.6110
 1645TIP3    H226571   4.069   6.418   1.464  0.2903 -0.0658 -0.1798
 1646TIP3   OH226572   2.744   0.384   1.352 -0.1389  0.6756  0.1887
 1646TIP3    H126573   2.778   0.315   1.408  0.6366  2.4843  2.1144
 1646TIP3    H226574   2.649   0.370   1.351  0.1526 -1.6579 -1.3169
 1647TIP3   OH226575   2.351   5.146   1.175  0.2377 -0.0875  0.1532
 1647TIP3    H126576   2.422   5.151   1.238 -0.2266  0.2017  0.6679
 1647TIP3    H226577   2.387   5.097   1.101  1.1445  0.5293  0.1665
 1648TIP3   OH226578   6.475   0.780   0.895  0.1361  0.0885  0.2291
 1648TIP3    H126579   6.546   0.734   0.940 -0.1163 -1.2030 -0.6220
 1648TIP3    H226580   6.398   0.724   0.910 -0.4557  0.8773  0.1779
 1649TIP3   OH226581   0.312   1.494   0.757  0.3257 -0.0734 -0.4417
 1649TIP3    H126582   0.397   1.539   0.749  0.1929  0.7484  1.9187
 1649TIP3    H226583   0.269   1.508   0.673  1.1150  2.5609 -0.4895
 1650TIP3   OH226584   3.279   0.260   6.690 -0.0617 -0.2035 -0.0573
 1650TIP3    H126585   3.372   0.257   6.713 -0.3760 -0.5214  1.2671
 1650TIP3    H226586   3.276   0.308   6.608  1.3143 -0.5365 -0.3303
 1651TIP3   OH226587   1.100   1.002   7.134  0.1656  0.0141  0.1523
 1651TIP3    H126588   1.184   1.039   7.108  1.0106 -2.2198 -0.5316
 1651TIP3    H226589   1.041   1.025   7.062  0.5128  0.4904  0.0084
 1652TIP3   OH226590   5.976   1.609   3.037 -0.6210  0.4329 -0.2748
 1652TIP3    H126591   5.959   1.530   3.088 -0.0412  1.0993  0.9829
 1652TIP3    H226592   6.014   1.576   2.955  1.9535 -0.5316  1.2062
 1653TIP3   OH226593   1.641   5.715   2.150 -0.1222  0.0193 -0.2202
 1653TIP3    H126594   1.707   5.770   2.193 -1.8700  2.4905 -0.4318
 1653TIP3    H226595   1.579   5.694   2.220 -0.6519  0.2636 -0.6113
 1654TIP3   OH226596   3.377   1.767   1.751 -0.2090  0.1218 -0.2430
 1654TIP3    H126597   3.369   1.815   1.668  0.5840  1.9522  0.6729
 1654TIP3    H226598   3.436   1.695   1.731  0.2427  0.7275 -1.2073
 1655TIP3   OH226599   0.069   5.892   1.316 -0.5083 -0.0973  1.2776
 1655TIP3    H126600  -0.026   5.889   1.328 -0.2817 -2.5690  3.3977
 1655TIP3    H226601   0.088   5.815   1.262  0.3853 -0.5034  2.1381
 1656TIP3   OH226602   3.467   0.776   1.714  0.4481  0.3111 -0.4893
 1656TIP3    H126603   3.387   0.799   1.668  1.3836 -1.2450 -3.1278
 1656TIP3    H226604   3.444   0.779   1.807 -2.7874 -0.5226 -1.1567
 1657TIP3   OH226605   1.168   5.869   7.704  0.3658  0.1625  0.0968
 1657TIP3    H126606   1.209   5.919   7.634 -1.3339  2.8692  0.9189
 1657TIP3    H226607   1.112   5.805   7.659  2.4090 -0.9992 -0.9587
 1658TIP3   OH226608   4.112   2.315   0.601  0.7216 -0.1021 -0.3523
 1658TIP3    H126609   4.021   2.321   0.631  0.4118 -3.9142 -0.0612
 1658TIP3    H226610   4.153   2.395   0.635 -1.7616  0.2073  2.3516
 1659TIP3   OH226611   1.411   6.556   7.556  0.3494  0.0008 -0.6528
 1659TIP3    H126612   1.353   6.498   7.507  1.5955 -0.1312 -2.0319
 1659TIP3    H226613   1.360   6.636   7.568 -0.1402 -0.1189 -1.7971
 1660TIP3   OH226614   6.552   6.228   6.847 -0.1239 -0.0713 -0.5498
 1660TIP3    H126615   6.469   6.182   6.837 -0.1868 -0.1050  0.0686
 1660TIP3    H226616   6.615   6.159   6.868  0.1419 -0.0943 -1.4007
 1661TIP3   OH226617   3.018   2.908   2.907  0.2509 -0.7680 -0.1739
 1661TIP3    H126618   3.033   2.831   2.961  2.0778  0.1290  0.6606
 1661TIP3    H226619   3.077   2.897   2.833  1.1153  0.2021  0.3597
 1662TIP3   OH226620   2.452   6.432   1.234 -0.0755 -0.1137 -0.0329
 1662TIP3    H126621   2.430   6.514   1.190  0.5999  1.1792  1.9486
 1662TIP3    H226622   2.543   6.415   1.211  0.1956  0.4186  0.6355
 1663TIP3   OH226623   5.609   4.994   1.404 -0.1736  0.1703 -0.4797
 1663TIP3    H126624   5.595   5.060   1.473 -0.4115 -1.3129  0.9557
 1663TIP3    H226625   5.641   5.044   1.329 -1.6799  2.1057  0.0789
 1664TIP3   OH226626   4.737   0.953   8.269 -0.1792  0.0947 -0.1111
 1664TIP3    H126627   4.805   0.989   8.326  0.0014 -1.3494  0.6362
 1664TIP3    H226628   4.785   0.913   8.196 -0.1480 -1.4610  0.7238
 1665TIP3   OH226629   3.795   2.120   0.536  0.7029  0.4241  0.5773
 1665TIP3    H126630   3.809   2.185   0.605  1.3013  2.0173 -0.9529
 1665TIP3    H226631   3.825   2.164   0.456 -2.5728 -0.2089 -1.1922
 1666TIP3   OH226632   6.795   3.768   7.617 -0.1130  0.2106 -0.4788
 1666TIP3    H126633   6.839   3.772   7.702 -4.6982 -0.6168  2.2309
 1666TIP3    H226634   6.775   3.859   7.595  0.2193  0.3460 -0.2329
 1667TIP3   OH226635   6.335   3.111   8.408 -0.2849 -0.3653 -0.1716
 1667TIP3    H126636   6.336   3.035   8.350 -1.8971 -0.4007 -0.1924
 1667TIP3    H226637   6.424   3.147   8.401  0.4096 -2.0058 -0.4538
 1668TIP3   OH226638   4.755   0.555   7.621 -0.6178  0.1460  0.5965
 1668TIP3    H126639   4.822   0.574   7.556 -0.7709  1.8650  0.8970
 1668TIP3    H226640   4.686   0.619   7.603 -1.7261 -0.9148  0.9502
 1669TIP3   OH226641   0.795   5.316   3.019  0.3434  0.7188  0.4664
 1669TIP3    H126642   0.724   5.372   2.987  0.3325  1.1099  1.1617
 1669TIP3    H226643   0.822   5.356   3.101  0.5281 -0.1396  0.8354
 1670TIP3   OH226644   1.098   5.422   7.867 -0.5290 -0.5742  0.3978
 1670TIP3    H126645   1.101   5.500   7.923  1.4393  0.3144 -0.8284
 1670TIP3    H226646   1.170   5.368   7.898  0.6044 -0.0589 -1.2139
 1671TIP3   OH226647   3.574   6.509   1.578 -0.0649 -0.1553 -0.4832
 1671TIP3    H126648   3.610   6.561   1.506  2.4433  0.0605  0.8138
 1671TIP3    H226649   3.614   6.423   1.568 -0.2406 -0.3269  0.2400
 1672TIP3   OH226650   4.882   6.806   8.298 -0.0542  0.0081 -0.0430
 1672TIP3    H126651   4.879   6.864   8.374  1.2851  0.2825 -0.1815
 1672TIP3    H226652   4.949   6.741   8.319 -1.0767 -1.1229 -0.1651
 1673TIP3   OH226653   0.256   6.790   1.075 -0.2695 -0.2062  0.6633
 1673TIP3    H126654   0.342   6.820   1.047  0.4936 -3.7311 -1.4071
 1673TIP3    H226655   0.272   6.746   1.159  0.1266 -1.3613  0.0032
 1674TIP3   OH226656   3.898   5.190   0.282 -0.1940 -0.1709  0.0742
 1674TIP3    H126657   3.834   5.154   0.344  1.8398 -1.5535  1.4982
 1674TIP3    H226658   3.966   5.228   0.337 -0.9009  3.6715 -1.3757
 1675TIP3   OH226659   0.984   3.914   6.822  0.0816  0.7265 -0.4571
 1675TIP3    H126660   0.903   3.872   6.852  1.6078 -0.6365  2.0987
 1675TIP3    H226661   0.993   3.887   6.731 -1.1746 -1.0046 -0.1087
 1676TIP3   OH226662   1.065   4.084   1.518  0.7560 -0.5026  0.6026
 1676TIP3    H126663   1.157   4.112   1.517  0.2224  1.3892 -1.3321
 1676TIP3    H226664   1.023   4.143   1.580  0.1798  1.2767 -1.3667
 1677TIP3   OH226665   5.815   1.077   6.773  0.6733 -0.4494  0.3804
 1677TIP3    H126666   5.899   1.032   6.787  1.0397  1.1726  5.4496
 1677TIP3    H226667   5.834   1.169   6.791 -2.0363  0.1023  0.8521
 1678TIP3   OH226668   1.348   5.870   2.068  0.2798  0.4199 -0.0757
 1678TIP3    H126669   1.431   5.911   2.044  1.8744 -2.1211  0.6830
 1678TIP3    H226670   1.369   5.814   2.143 -1.7501 -1.5504 -0.8407
 1679TIP3   OH226671   0.736   3.515   7.827 -0.3281 -0.1492  0.1993
 1679TIP3    H126672   0.657   3.560   7.796 -1.3373 -0.4262  2.2135
 1679TIP3    H226673   0.806   3.580   7.817 -1.2179  0.8610  0.3479
 1680TIP3   OH226674   1.327   1.591   8.280  0.1107  0.3912 -0.2081
 1680TIP3    H126675   1.294   1.512   8.236 -2.8394  1.9600 -1.0556
 1680TIP3    H226676   1.253   1.622   8.333  1.8494  1.5287  1.6757
 1681TIP3   OH226677   1.298   1.635   0.140  0.5863  0.0410 -0.4094
 1681TIP3    H126678   1.349   1.692   0.197 -0.2572  2.3685 -1.8286
 1681TIP3    H226679   1.343   1.638   0.055 -2.1960  2.9704 -1.9994
 1682TIP3   OH226680   1.182   5.653   1.221  0.4143 -0.0937 -0.2051
 1682TIP3    H126681   1.150   5.575   1.175 -0.2609 -0.5113  0.9275
 1682TIP3    H226682   1.272   5.664   1.189  0.6159 -1.4938 -0.2103
 1683TIP3   OH226683   4.727   3.672   2.130  0.3178  0.4954 -0.6116
 1683TIP3    H126684   4.778   3.604   2.086  0.3730  0.7594 -0.9495
 1683TIP3    H226685   4.703   3.632   2.214 -0.5641 -0.3517 -1.2319
 1684TIP3   OH226686   2.029   6.302   2.026  0.8302  0.0753  0.2891
 1684TIP3    H126687   2.064   6.255   2.102 -1.2082  0.9366  1.8341
 1684TIP3    H226688   2.023   6.235   1.958  3.0814 -0.6282  0.6845
 1685TIP3   OH226689   2.030   0.971   7.814  0.2135  0.2000 -0.0499
 1685TIP3    H126690   2.103   0.957   7.753  0.8976 -1.0811  1.0065
 1685TIP3    H226691   1.968   0.902   7.792  0.6766 -0.5727  0.9706
 1686TIP3   OH226692   3.329   3.188   0.752  0.2795 -0.4428 -0.2443
 1686TIP3    H126693   3.387   3.228   0.816  1.3191 -0.6207 -1.0493
 1686TIP3    H226694   3.277   3.261   0.717  0.3627 -0.2070  0.1259
 1687TIP3   OH226695   0.909   1.753   2.074  0.6697 -0.3852 -0.1853
 1687TIP3    H126696   0.857   1.689   2.025 -0.2776  0.7978 -0.7729
 1687TIP3    H226697   0.889   1.735   2.166  2.2026 -2.4096 -0.2029
 1688TIP3   OH226698   5.329   1.148   8.668 -0.1963  0.6428 -0.1071
 1688TIP3    H126699   5.362   1.212   8.605  0.7184  0.1911 -0.0930
 1688TIP3    H226700   5.382   1.070   8.654 -2.9615 -1.1129 -1.9671
 1689TIP3   OH226701   5.911   2.857   2.037  0.6286  0.2376  0.1691
 1689TIP3    H126702   5.870   2.941   2.055 -1.4085 -0.6091 -0.2071
 1689TIP3    H226703   5.901   2.845   1.943  1.3815 -0.2039  0.1335
 1690TIP3   OH226704   2.804   2.069   0.433 -0.6937 -0.7323 -0.3674
 1690TIP3    H126705   2.890   2.029   0.444 -0.4835 -0.1851  0.0837
 1690TIP3    H226706   2.749   2.028   0.500  0.2309  1.6134  2.0407
 1691TIP3   OH226707   2.701   6.409   8.430  0.4555  0.1023 -0.2175
 1691TIP3    H126708   2.717   6.391   8.522  1.5369 -1.4155 -0.6611
 1691TIP3    H226709   2.769   6.472   8.405  0.0930  0.6009  0.0190
 1692TIP3   OH226710   3.926   3.286   6.766 -0.2370 -0.4859  0.7016
 1692TIP3    H126711   3.992   3.268   6.699 -0.8556 -0.7363  0.1475
 1692TIP3    H226712   3.920   3.205   6.817 -1.8180 -1.3632 -0.7525
 1693TIP3   OH226713   2.151   0.385   1.234 -0.0396  0.8321  0.5804
 1693TIP3    H126714   2.114   0.469   1.207  0.2004  0.5761 -0.5852
 1693TIP3    H226715   2.118   0.322   1.170  0.0179  0.0769  1.2726
 1694TIP3   OH226716   4.733   3.271   1.230 -0.2226  0.5836  0.4368
 1694TIP3    H126717   4.758   3.208   1.298 -0.3201  0.2105  0.1348
 1694TIP3    H226718   4.685   3.218   1.166 -2.5098  1.4172  1.3878
 1695TIP3   OH226719   4.432   0.717   0.602 -0.7635 -0.1360 -0.0886
 1695TIP3    H126720   4.424   0.675   0.516 -0.1233  0.7448 -0.5863
 1695TIP3    H226721   4.526   0.721   0.619 -0.8490  0.3827  0.3111
 1696TIP3   OH226722   0.108   3.764   1.518 -0.0361  0.3921 -0.3508
 1696TIP3    H126723   0.014   3.772   1.505  0.2457  0.5669 -2.6124
 1696TIP3    H226724   0.131   3.682   1.474  1.1575  1.4847 -1.8890
 1697TIP3   OH226725   6.017   4.559   1.947 -0.6565 -0.1541  0.1111
 1697TIP3    H126726   6.055   4.553   2.034 -0.5804  0.7873  0.1562
 1697TIP3    H226727   6.069   4.627   1.903 -2.1511  1.0745  0.1360
 1698TIP3   OH226728   1.471   3.448   0.516  0.7774 -0.0900 -0.0495
 1698TIP3    H126729   1.405   3.513   0.540 -0.8333 -2.1349  1.5233
 1698TIP3    H226730   1.450   3.423   0.426 -0.2593 -0.2891  0.2380
 1699TIP3   OH226731   6.237   3.205   7.941 -0.3181  0.3485 -0.2399
 1699TIP3    H126732   6.150   3.187   7.906 -0.7734 -0.9302  1.4372
 1699TIP3    H226733   6.279   3.119   7.947  0.7880  0.8610 -0.2918
 1700TIP3   OH226734   3.486   6.322   7.850  0.1371  0.4404 -0.1744
 1700TIP3    H126735   3.435   6.241   7.855 -0.4602  0.6243 -2.1767
 1700TIP3    H226736   3.538   6.323   7.930  0.9617 -2.4677 -0.5636
 1701TIP3   OH226737   3.337   5.228   1.198  0.0744  0.0131 -0.6974
 1701TIP3    H126738   3.420   5.182   1.212  0.4072  0.4641 -1.1083
 1701TIP3    H226739   3.342   5.304   1.257 -1.8899 -2.0977  2.5050
 1702TIP3   OH226740   5.773   1.122   0.621  0.9759  0.2231  0.1835
 1702TIP3    H126741   5.868   1.106   0.625  0.8229 -0.7654 -0.0422
 1702TIP3    H226742   5.764   1.214   0.646  2.0375  0.4567 -0.2297
 1703TIP3   OH226743   1.566   5.815   1.725 -0.1781 -0.4908 -0.0184
 1703TIP3    H126744   1.590   5.765   1.646 -0.7920 -0.5062 -0.2008
 1703TIP3    H226745   1.650   5.835   1.767  0.1534 -0.5379 -0.6429
 1704TIP3   OH226746   2.399   1.514   7.929 -0.6535  0.6493  0.3113
 1704TIP3    H126747   2.416   1.591   7.875  1.6032  0.1107  0.1652
 1704TIP3    H226748   2.306   1.521   7.952 -1.2792  1.8070 -2.1826
 1705TIP3   OH226749   3.794   6.410   1.225  0.0379  0.2130 -0.3434
 1705TIP3    H126750   3.858   6.406   1.296  0.7220 -0.6006 -0.9861
 1705TIP3    H226751   3.781   6.318   1.200 -2.6374  0.1599  0.8787
 1706TIP3   OH226752   0.732   1.369   0.551  0.7815  0.1191 -0.2281
 1706TIP3    H126753   0.672   1.367   0.477  0.3730 -0.8967  0.1220
 1706TIP3    H226754   0.816   1.341   0.514  0.1659 -2.2785  0.0249
 1707TIP3   OH226755   3.713   5.673   0.313  0.8648 -0.0284  0.6014
 1707TIP3    H126756   3.788   5.618   0.291  0.7409 -0.0375  0.1814
 1707TIP3    H226757   3.730   5.755   0.265  1.1670  0.3914  1.4049
 1708TIP3   OH226758   1.506   2.394   0.014  0.4896 -0.0852  0.0896
 1708TIP3    H126759   1.491   2.439  -0.069  0.6095 -1.5667 -0.7863
 1708TIP3    H226760   1.601   2.388   0.021  0.4793  0.0808  0.3495
 1709TIP3   OH226761   5.372   6.682   0.877 -0.6278 -0.0486 -0.5455
 1709TIP3    H126762   5.418   6.763   0.899 -0.7934  0.5892 -2.3986
 1709TIP3    H226763   5.369   6.634   0.960 -1.7700  2.4299  0.9982
 1710TIP3   OH226764   1.501   5.921   8.481  0.1403  0.0725  0.0229
 1710TIP3    H126765   1.531   5.853   8.542  1.3927  1.0076  0.4934
 1710TIP3    H226766   1.559   5.995   8.498 -0.4122  0.8435 -1.3325
 1711TIP3   OH226767   3.638   5.417   7.900  0.1356  0.2574  0.5012
 1711TIP3    H126768   3.663   5.501   7.861 -0.3392  0.5561  0.8147
 1711TIP3    H226769   3.649   5.431   7.995 -0.3345  0.1055  0.5802
 1712TIP3   OH226770   6.546   1.035   6.874 -0.1247  0.0492 -0.4411
 1712TIP3    H126771   6.641   1.039   6.864 -0.2124 -1.0473 -1.8565
 1712TIP3    H226772   6.533   0.991   6.958  0.5922  1.8184  0.6591
 1713TIP3   OH226773   1.854   2.670   1.911  0.6684 -0.1553  0.1991
 1713TIP3    H126774   1.918   2.648   1.979  2.0439  1.7998 -0.3765
 1713TIP3    H226775   1.780   2.612   1.928  1.0077  0.1587  3.2927
 1714TIP3   OH226776   3.249   2.706   0.360 -0.1828  0.5532 -0.0222
 1714TIP3    H126777   3.243   2.801   0.348 -0.6848  0.3962 -1.0741
 1714TIP3    H226778   3.183   2.687   0.427 -0.3952  0.8771 -0.1369
 1715TIP3   OH226779   5.291   0.838   1.884 -0.0627  0.7329  0.0732
 1715TIP3    H126780   5.264   0.914   1.833  1.2697  0.1307 -1.6452
 1715TIP3    H226781   5.209   0.796   1.910 -0.7917  1.9548 -0.1738
 1716TIP3   OH226782   4.311   2.242   8.252  0.2544 -1.0766 -0.1785
 1716TIP3    H126783   4.239   2.270   8.197  1.1881  1.0655 -0.4134
 1716TIP3    H226784   4.270   2.215   8.334 -0.8065  3.4925  1.0988
 1717TIP3   OH226785   2.343   5.262   2.597 -0.4399  0.3441  0.3799
 1717TIP3    H126786   2.361   5.356   2.607  1.8325  0.0224 -0.1632
 1717TIP3    H226787   2.421   5.219   2.631 -0.8317 -1.3169 -0.7261
 1718TIP3   OH226788   4.295   1.375   8.534 -0.3901  0.2989 -0.7299
 1718TIP3    H126789   4.389   1.372   8.522 -0.1106  0.6346  1.0985
 1718TIP3    H226790   4.260   1.390   8.446  1.1032 -1.9462 -1.7796
 1719TIP3   OH226791   6.002   4.836   1.592  0.2883  0.0133  0.5322
 1719TIP3    H126792   5.956   4.912   1.555  0.7243  1.0915  2.0839
 1719TIP3    H226793   6.092   4.865   1.600  0.2119 -0.1780  2.3708
 1720TIP3   OH226794   5.227   3.091   2.442  0.0633 -0.3310 -0.6190
 1720TIP3    H126795   5.210   3.051   2.357  1.3310  0.4973 -1.2974
 1720TIP3    H226796   5.263   3.177   2.421 -1.4322  0.6907  0.7846
 1721TIP3   OH226797   2.241   1.107   7.281  0.0877 -0.6973 -0.4804
 1721TIP3    H126798   2.287   1.188   7.304 -0.3215 -1.3138  3.0891
 1721TIP3    H226799   2.179   1.093   7.353 -2.5187 -2.3001 -2.8136
 1722TIP3   OH226800   3.931   5.756   7.101 -0.1513  0.0720 -0.4810
 1722TIP3    H126801   3.936   5.685   7.038 -0.1331 -1.7721  1.5005
 1722TIP3    H226802   3.967   5.832   7.055 -0.0576 -1.2151 -2.6226
 1723TIP3   OH226803   3.287   1.435   0.441  0.8534 -0.1153 -0.2190
 1723TIP3    H126804   3.325   1.415   0.526  0.3800 -0.3375 -0.0573
 1723TIP3    H226805   3.234   1.358   0.420 -1.0009  0.9310  0.4053
 1724TIP3   OH226806   5.531   6.476   0.316  0.6114  0.0088  0.1884
 1724TIP3    H126807   5.463   6.539   0.339  0.5995 -0.6605  2.1233
 1724TIP3    H226808   5.490   6.420   0.250 -0.0400  0.7744 -0.0783
 1725TIP3   OH226809   5.721   5.966   1.387 -0.0624 -0.0470  0.5216
 1725TIP3    H126810   5.783   6.008   1.446  0.6781  0.4271 -0.5676
 1725TIP3    H226811   5.635   5.986   1.424  0.4027 -0.9575  2.2151
 1726TIP3   OH226812   5.147   0.499   7.990 -0.2248  0.3636  0.0334
 1726TIP3    H126813   5.061   0.529   7.960  0.5692  1.2145 -1.4902
 1726TIP3    H226814   5.172   0.430   7.928  1.0245  1.4858 -0.7740
 1727TIP3   OH226815   1.772   4.563   2.412 -0.5340  0.0657  0.0797
 1727TIP3    H126816   1.759   4.658   2.417  2.1787  0.4766  0.4767
 1727TIP3    H226817   1.755   4.532   2.501 -2.4990 -0.0378 -0.2868
 1728TIP3   OH226818   1.973   3.364   1.325 -0.0726 -0.4431  0.0192
 1728TIP3    H126819   1.880   3.359   1.349  0.1475 -0.4313  0.9092
 1728TIP3    H226820   2.013   3.289   1.370  0.5437  0.2176  0.5933
 1729TIP3   OH226821   1.686   0.336   1.695 -0.2828 -0.1617 -1.1691
 1729TIP3    H126822   1.600   0.365   1.663 -1.9160 -0.0223  2.6765
 1729TIP3    H226823   1.688   0.242   1.677 -1.5109 -0.2599 -0.8794
 1730TIP3   OH226824   0.581   0.808   1.131 -0.3871 -0.8555  0.2324
 1730TIP3    H126825   0.514   0.806   1.199 -2.4944 -0.7080 -1.7087
 1730TIP3    H226826   0.598   0.717   1.111  0.6789 -0.9130  1.3246
 1731TIP3   OH226827   5.701   5.646   6.704  0.3769  0.1545  0.0526
 1731TIP3    H126828   5.746   5.719   6.661  0.6829  1.6388  2.6878
 1731TIP3    H226829   5.771   5.587   6.732  0.4150  0.6068  0.9313
 1732TIP3   OH226830   5.897   3.164   8.721  0.1864 -0.4910 -0.4590
 1732TIP3    H126831   5.852   3.146   8.804 -2.2382 -0.1907 -1.6223
 1732TIP3    H226832   5.898   3.260   8.715 -1.3910 -0.5198 -1.6164
 1733TIP3   OH226833   0.437   5.188   1.428  0.0306  0.3427  0.2906
 1733TIP3    H126834   0.478   5.266   1.391 -0.2943  1.6528  2.5185
 1733TIP3    H226835   0.344   5.210   1.433  0.0716  0.2492  1.8731
 1734TIP3   OH226836   3.771   2.796   1.214 -0.3185 -0.0105 -0.1142
 1734TIP3    H126837   3.755   2.744   1.135  0.4667 -1.4275  0.6292
 1734TIP3    H226838   3.809   2.877   1.181  0.2990 -0.7110 -1.1785
 1735TIP3   OH226839   3.661   3.542   7.987  0.3195  0.1782  0.4227
 1735TIP3    H126840   3.586   3.571   8.039 -1.4172  0.4817 -2.0418
 1735TIP3    H226841   3.727   3.610   7.998 -1.3851  2.0863 -0.5184
 1736TIP3   OH226842   3.869   3.920   2.488  0.2487 -0.4370 -0.4615
 1736TIP3    H126843   3.889   3.949   2.577 -0.6637 -0.2867 -0.3021
 1736TIP3    H226844   3.808   3.847   2.499 -1.5246  0.9021 -0.9966
 1737TIP3   OH226845   4.731   1.029   2.162  0.3321  0.7309 -0.0433
 1737TIP3    H126846   4.806   1.019   2.104  1.1362  0.3322  1.0310
 1737TIP3    H226847   4.655   1.033   2.103  0.9879 -0.9129 -1.0842
 1738TIP3   OH226848   2.768   6.513   6.313  0.0440 -0.6352  0.4879
 1738TIP3    H126849   2.686   6.563   6.314 -0.1985 -0.9871 -0.4651
 1738TIP3    H226850   2.837   6.580   6.313 -0.2680 -0.3018 -0.3344
 1739TIP3   OH226851   0.921   1.354   0.303  0.2661 -0.0221  0.1697
 1739TIP3    H126852   0.847   1.407   0.272  0.4202  0.3611  0.4586
 1739TIP3    H226853   0.998   1.405   0.280  0.3498  1.5933  3.4993
 1740TIP3   OH226854   0.965   0.004   1.242 -0.0695  0.0261 -0.2622
 1740TIP3    H126855   0.916  -0.042   1.174  1.4997  0.4252 -1.7580
 1740TIP3    H226856   1.056  -0.026   1.230  0.1311 -0.6335  2.3259
 1741TIP3   OH226857   1.664   6.238   0.659  0.1291  0.2280  0.0350
 1741TIP3    H126858   1.660   6.164   0.719 -1.1329  0.7834  0.6825
 1741TIP3    H226859   1.757   6.247   0.637  0.2855 -1.6617 -0.2328
 1742TIP3   OH226860   4.981   5.396   8.213  0.2563  0.4588  0.4071
 1742TIP3    H126861   5.009   5.407   8.304 -1.0153 -3.3866  1.4817
 1742TIP3    H226862   4.908   5.334   8.218 -0.1788  0.4650 -3.2379
 1743TIP3   OH226863   4.093   4.481   1.761 -0.1805  0.0426 -0.3020
 1743TIP3    H126864   4.074   4.455   1.670  2.2022  0.4785 -0.9840
 1743TIP3    H226865   4.040   4.421   1.814 -0.0874 -1.5883 -1.9325
 1744TIP3   OH226866   2.456   6.292   1.986 -0.4304  0.1287 -0.1416
 1744TIP3    H126867   2.397   6.297   1.911 -0.1037  2.0314 -0.3370
 1744TIP3    H226868   2.541   6.316   1.951  0.4971 -2.4163  0.1787
 1745TIP3   OH226869   4.296   4.183   7.306 -0.8151 -0.5908 -0.0278
 1745TIP3    H126870   4.386   4.183   7.273 -1.0120 -0.8922 -0.5604
 1745TIP3    H226871   4.245   4.142   7.237 -1.7602  1.6694 -0.7515
 1746TIP3   OH226872   4.727   2.172   7.908  0.1040  0.2108 -0.1336
 1746TIP3    H126873   4.635   2.194   7.925  0.2118  0.3155  0.3073
 1746TIP3    H226874   4.749   2.224   7.830 -0.0020  0.7293  0.1806
 1747TIP3   OH226875   5.466   2.979   7.594 -0.2774 -0.1509 -0.4971
 1747TIP3    H126876   5.551   2.966   7.552  1.0109 -2.2043  2.3471
 1747TIP3    H226877   5.475   3.062   7.641  0.0872 -0.2426 -0.3988
 1748TIP3   OH226878   2.289   5.177   7.515  0.5236 -0.0574  0.7380
 1748TIP3    H126879   2.228   5.180   7.441 -0.4066 -0.3990  1.4737
 1748TIP3    H226880   2.374   5.198   7.477  0.0030  0.0968 -0.3703
 1749TIP3   OH226881   6.615   5.538   1.405  0.3216 -0.2738 -0.9805
 1749TIP3    H126882   6.660   5.487   1.338 -0.0025 -2.2872  0.2684
 1749TIP3    H226883   6.661   5.517   1.487 -1.1531 -0.2379 -0.1051
 1750TIP3   OH226884   5.698   0.024   2.660 -0.0586  0.0388  0.2513
 1750TIP3    H126885   5.756   0.077   2.714 -0.0469 -0.0935  0.3698
 1750TIP3    H226886   5.612   0.032   2.701 -0.0929  0.1117  0.1651
 1751TIP3   OH226887   5.884   3.210   1.872  0.2273  0.8470  0.2303
 1751TIP3    H126888   5.853   3.135   1.822  0.0817  1.9066 -1.3590
 1751TIP3    H226889   5.856   3.193   1.962 -0.5631 -0.5658 -0.2534
 1752TIP3   OH226890   0.770   2.506   0.904  0.5318  0.4076  0.4443
 1752TIP3    H126891   0.810   2.453   0.835 -0.8846  0.3322 -0.3534
 1752TIP3    H226892   0.789   2.459   0.985  2.1964  0.4872  0.1369
 1753TIP3   OH226893   6.462   3.757   8.722 -0.5039  0.0174  0.0302
 1753TIP3    H126894   6.480   3.775   8.815 -0.5783 -0.5499  0.1624
 1753TIP3    H226895   6.535   3.703   8.694  0.9235  2.3307 -0.9806
 1754TIP3   OH226896   4.116   5.136   2.303  0.1866 -0.2565  0.0407
 1754TIP3    H126897   4.080   5.220   2.277 -0.5942 -0.6434 -0.1433
 1754TIP3    H226898   4.195   5.126   2.250  0.0666  0.1753 -0.2212
 1755TIP3   OH226899   0.619   1.873   2.379 -0.5320  0.3831  0.3033
 1755TIP3    H126900   0.655   1.836   2.460  0.6477  2.7530  0.9512
 1755TIP3    H226901   0.545   1.926   2.408 -0.5260  0.7132 -0.2715
 1756TIP3   OH226902   5.791   0.054   8.766 -0.0738  0.2039  0.2244
 1756TIP3    H126903   5.845  -0.012   8.810  1.2650  0.6597 -0.6883
 1756TIP3    H226904   5.773   0.119   8.833 -2.0512 -1.3942  1.3622
 1757TIP3   OH226905   2.716   1.438   8.736  0.0603  0.0002  0.4340
 1757TIP3    H126906   2.764   1.359   8.759  1.1580  0.7794  0.9169
 1757TIP3    H226907   2.756   1.467   8.654 -1.2762 -0.6818 -0.4952
 1758TIP3   OH226908   4.893   5.777   1.819  0.3663  0.4160 -0.1287
 1758TIP3    H126909   4.887   5.852   1.878 -0.7671  0.5145 -0.3534
 1758TIP3    H226910   4.884   5.700   1.876 -1.2537  0.5189 -0.2045
 1759TIP3   OH226911   0.596   4.821   2.237 -0.0461 -0.1643  0.0958
 1759TIP3    H126912   0.682   4.796   2.271 -0.0420 -1.4102 -0.7877
 1759TIP3    H226913   0.544   4.841   2.316  0.8082 -0.1754  0.6690
 1760TIP3   OH226914   2.613   3.547   0.299  0.3777 -0.5393 -0.1144
 1760TIP3    H126915   2.615   3.542   0.203 -0.1007 -0.0706 -0.1507
 1760TIP3    H226916   2.521   3.530   0.322  0.3320  0.1115  0.2151
 1761TIP3   OH226917   2.320   2.433   1.578 -0.0886  0.6055  0.1867
 1761TIP3    H126918   2.239   2.477   1.601 -0.1950  0.4970  0.0288
 1761TIP3    H226919   2.314   2.348   1.621 -0.3049  0.3876 -0.2561
 1762TIP3   OH226920   5.523   0.119   8.079 -0.2687 -0.0440 -0.1060
 1762TIP3    H126921   5.466   0.044   8.060 -0.5381  0.7876 -3.1565
 1762TIP3    H226922   5.481   0.164   8.152 -0.9628 -1.9768  0.7344
 1763TIP3   OH226923   4.403   5.712   8.721  0.3403  0.5774  0.2839
 1763TIP3    H126924   4.448   5.737   8.640  0.5178 -0.4431  0.0631
 1763TIP3    H226925   4.311   5.733   8.705 -0.2962 -2.9115 -1.6340
 1764TIP3   OH226926   4.125   6.795   8.771  0.3812  0.0301 -0.3622
 1764TIP3    H126927   4.050   6.755   8.816  1.1874  0.2844  1.2754
 1764TIP3    H226928   4.175   6.720   8.738 -0.0913 -0.1690 -0.6468
 1765TIP3   OH226929   0.597   0.188   2.359  0.4982  0.3209 -0.3557
 1765TIP3    H126930   0.559   0.197   2.447  1.1462  1.9145 -0.2127
 1765TIP3    H226931   0.525   0.151   2.307  0.3160 -1.3353  0.9573
 1766TIP3   OH226932   0.128   4.782   7.471 -0.4029  0.5414 -0.6360
 1766TIP3    H126933   0.096   4.850   7.411  0.3948  0.7386 -0.8419
 1766TIP3    H226934   0.080   4.799   7.552 -3.8519 -1.5787 -1.9706
 1767TIP3   OH226935   2.564   6.185   6.462 -0.2871 -0.0740 -0.6444
 1767TIP3    H126936   2.649   6.206   6.424 -0.1769 -1.9343 -1.4875
 1767TIP3    H226937   2.584   6.134   6.540 -0.6177 -0.4967 -0.8283
 1768TIP3   OH226938   2.214   0.537   6.422  0.1039  0.7808  0.4198
 1768TIP3    H126939   2.200   0.625   6.388 -2.3571 -0.2091 -1.4259
 1768TIP3    H226940   2.192   0.542   6.514  1.2472  2.3111  0.6520
 1769TIP3   OH226941   6.572   4.460   0.146 -0.5562  0.0486  0.9444
 1769TIP3    H126942   6.654   4.502   0.171  0.5389 -2.4898  1.9405
 1769TIP3    H226943   6.561   4.484   0.053  0.7659  1.2159  1.0446
 1770TIP3   OH226944   2.404   3.187   1.174  0.0808  0.0799 -0.1823
 1770TIP3    H126945   2.402   3.227   1.087 -1.3896 -2.5077 -1.4539
 1770TIP3    H226946   2.497   3.172   1.191  0.3445 -0.0513 -1.6393
 1771TIP3   OH226947   1.140   2.689   2.022 -0.8190 -0.8035 -0.4992
 1771TIP3    H126948   1.203   2.744   2.068 -1.5316  0.2437 -0.7371
 1771TIP3    H226949   1.160   2.701   1.929 -0.6175 -1.4102 -0.5442
 1772TIP3   OH226950   3.864   3.034   2.349 -0.0084 -0.1883  0.5884
 1772TIP3    H126951   3.860   3.023   2.444 -0.6304 -0.8866  0.4951
 1772TIP3    H226952   3.772   3.037   2.321  0.1451  1.6926  0.1769
 1773TIP3   OH226953   1.377   1.730   0.801  0.0594 -0.1005 -0.3771
 1773TIP3    H126954   1.333   1.774   0.727 -0.8964 -0.1450  0.1509
 1773TIP3    H226955   1.353   1.783   0.877  0.8563 -0.1896 -0.0542
 1774TIP3   OH226956   6.103   4.289   0.867 -0.1134 -0.5445  0.1237
 1774TIP3    H126957   6.034   4.355   0.870  0.2460 -0.1174 -0.6956
 1774TIP3    H226958   6.184   4.340   0.869  0.1866 -0.8187 -2.1842
 1775TIP3   OH226959   0.992   5.336   7.292 -0.3242  0.1907  0.3356
 1775TIP3    H126960   0.995   5.394   7.368 -1.0463  1.5131 -0.6003
 1775TIP3    H226961   0.936   5.382   7.229  1.2450 -0.2587 -1.4819
 1776TIP3   OH226962   0.171   0.951   3.060 -0.4889  0.1269 -0.0033
 1776TIP3    H126963   0.185   0.886   3.129 -2.1823 -0.5735 -0.2735
 1776TIP3    H226964   0.203   0.908   2.981 -0.8228 -0.0359 -0.0486
 1777TIP3   OH226965   1.436   3.937   1.743 -0.1742  0.7021  0.0682
 1777TIP3    H126966   1.426   3.889   1.661 -0.5844 -0.3254  0.7020
 1777TIP3    H226967   1.373   3.896   1.803 -0.3725  1.8833  0.7033
 1778TIP3   OH226968   1.464   2.713   2.271  0.3120  0.1169  0.4203
 1778TIP3    H126969   1.424   2.649   2.212 -0.7156  0.0788  1.1299
 1778TIP3    H226970   1.536   2.666   2.312  3.0624  1.0252 -2.9872
 1779TIP3   OH226971   4.942   3.407   8.166  0.4758 -0.0072  0.0807
 1779TIP3    H126972   4.996   3.384   8.241 -1.2360  1.4677  1.8691
 1779TIP3    H226973   4.874   3.340   8.164 -0.8628  1.2239  1.4164
 1780TIP3   OH226974   1.848   4.216   2.493 -0.4952 -0.1283  0.3978
 1780TIP3    H126975   1.790   4.142   2.510  1.1318 -1.1736  1.8832
 1780TIP3    H226976   1.860   4.217   2.398 -0.7165 -1.6524  0.3326
 1781TIP3   OH226977   2.124   5.494   2.959  0.0782 -0.3884 -0.0316
 1781TIP3    H126978   2.205   5.546   2.959 -0.3927  0.4050  1.3131
 1781TIP3    H226979   2.054   5.559   2.968 -0.7314 -1.0671 -1.2023
 1782TIP3   OH226980   0.955   0.778   7.466 -0.7722 -0.4276 -0.3558
 1782TIP3    H126981   0.886   0.840   7.491 -0.7300 -0.3646 -0.3986
 1782TIP3    H226982   0.972   0.729   7.546  2.9727  3.0934  1.3472
 1783TIP3   OH226983   3.740   0.504   1.798  0.8094 -0.1376 -0.1032
 1783TIP3    H126984   3.713   0.552   1.877  0.3588 -1.0012  0.2812
 1783TIP3    H226985   3.661   0.502   1.744  1.1380  0.5203 -0.6310
 1784TIP3   OH226986   4.865   2.704   7.190 -0.2365 -0.4851  0.6572
 1784TIP3    H126987   4.951   2.714   7.231 -0.7206  0.4798  1.5031
 1784TIP3    H226988   4.815   2.780   7.220 -1.2443 -0.7773 -0.1899
 1785TIP3   OH226989   1.452   0.409   7.554  0.0850  0.8336 -0.4784
 1785TIP3    H126990   1.420   0.323   7.527 -0.2935  1.1329 -1.0173
 1785TIP3    H226991   1.533   0.422   7.505  0.5117  0.4918  0.1340
 1786TIP3   OH226992   5.633   2.889   2.925 -0.0229 -0.1080  0.5139
 1786TIP3    H126993   5.619   2.964   2.984  1.4131  1.3367 -0.8699
 1786TIP3    H226994   5.688   2.924   2.855  2.0003 -2.8375  0.5763
 1787TIP3   OH226995   1.775   3.266   0.548  0.4440  0.0116 -0.0641
 1787TIP3    H126996   1.740   3.339   0.497 -1.5152 -2.1051 -2.0093
 1787TIP3    H226997   1.702   3.238   0.603  1.4707  0.0829  1.3949
 1788TIP3   OH226998   3.690   1.993   1.404  0.6671 -0.0955 -0.0161
 1788TIP3    H126999   3.690   2.027   1.494  1.2858 -0.6417  0.1951
 1788TIP3    H227000   3.752   2.049   1.358 -1.9956  2.3049 -0.9544
 1789TIP3   OH227001   4.025   0.255   2.121  0.4789  0.2427 -0.2639
 1789TIP3    H127002   4.119   0.262   2.105  0.8196  0.4305  1.6345
 1789TIP3    H227003   4.013   0.287   2.210 -1.2706 -0.5903 -0.1533
 1790TIP3   OH227004   1.874   1.853   3.195  0.4461 -0.3481  0.1057
 1790TIP3    H127005   1.787   1.892   3.183  0.2979 -0.7138 -0.0292
 1790TIP3    H227006   1.909   1.844   3.107  0.4131 -0.6672  0.1240
 1791TIP3   OH227007   2.563   0.878   0.329 -0.0919 -0.1526 -0.5276
 1791TIP3    H127008   2.579   0.959   0.280 -0.1798  0.5598  0.5766
 1791TIP3    H227009   2.589   0.899   0.419 -0.4387 -1.2466 -0.1551
 1792TIP3   OH227010   2.721   3.422   1.591 -0.5830 -0.0017  0.0100
 1792TIP3    H127011   2.683   3.398   1.507 -0.1925 -0.3060 -0.0809
 1792TIP3    H227012   2.799   3.368   1.599 -0.2310  0.5351  0.2485
 1793TIP3   OH227013   5.625   1.598   1.611  0.2271  0.2946  0.4593
 1793TIP3    H127014   5.650   1.570   1.699  0.3695 -0.0410  0.3155
 1793TIP3    H227015   5.669   1.536   1.553  0.7825  0.9991  0.1125
 1794TIP3   OH227016   2.181   5.719   1.742 -0.2276  0.7387 -0.0587
 1794TIP3    H127017   2.171   5.624   1.746  1.9932  0.4973  1.4153
 1794TIP3    H227018   2.203   5.745   1.831 -3.3769  3.0680  0.2518
 1795TIP3   OH227019   4.830   1.057   0.196  0.0801 -0.7721 -0.4614
 1795TIP3    H127020   4.870   1.142   0.179  2.0825 -1.5900 -0.2090
 1795TIP3    H227021   4.739   1.076   0.215  0.0564  1.1366 -2.1641
 1796TIP3   OH227022   4.688   6.230   2.182  0.3727 -0.0525 -0.4839
 1796TIP3    H127023   4.693   6.137   2.203  0.0163 -0.0216 -0.2554
 1796TIP3    H227024   4.611   6.238   2.126  0.5930  0.0590 -0.7816
 1797TIP3   OH227025   6.561   6.443   0.847  0.0321 -0.2740  0.1899
 1797TIP3    H127026   6.486   6.455   0.789  2.0619  1.1237 -2.3782
 1797TIP3    H227027   6.561   6.349   0.868 -0.7217 -0.8957 -2.2674
 1798TIP3   OH227028   5.573   5.964   8.172  0.6784 -0.7395  0.0863
 1798TIP3    H127029   5.568   5.882   8.222 -0.7925  0.8159  2.7366
 1798TIP3    H227030   5.483   5.980   8.143  0.8555  0.1339 -0.0060
 1799TIP3   OH227031   0.849   3.032   1.061  0.2355  0.2719  0.3241
 1799TIP3    H127032   0.939   3.059   1.044  0.1352  0.3836 -0.0413
 1799TIP3    H227033   0.843   2.944   1.025 -0.4605  1.1436 -1.9007
 1800TIP3   OH227034   6.756   2.041   1.091 -0.1673 -0.3722  0.2067
 1800TIP3    H127035   6.780   2.079   1.007  0.1453 -0.4209  0.2735
 1800TIP3    H227036   6.709   2.112   1.137  0.4787 -0.0379  0.3629
 1801TIP3   OH227037   1.594   6.092   0.076  0.1596  0.1672 -0.1108
 1801TIP3    H127038   1.532   6.087   0.149  0.1219 -1.8050 -0.2449
 1801TIP3    H227039   1.679   6.101   0.119  0.0713 -0.2603  0.1578
 1802TIP3   OH227040   2.966   3.174   0.248  0.0176 -0.5264 -0.8950
 1802TIP3    H127041   2.958   3.084   0.282 -0.2603 -0.0617  0.3360
 1802TIP3    H227042   3.016   3.165   0.167 -0.1129 -1.8079 -0.8525
 1803TIP3   OH227043   0.816   1.843   0.519 -0.5334 -0.0835  0.2417
 1803TIP3    H127044   0.886   1.848   0.454 -0.0884  1.9189  0.7890
 1803TIP3    H227045   0.775   1.929   0.516 -2.2384 -0.8469  0.7607
 1804TIP3   OH227046   0.313   0.794   0.230 -0.2780 -0.0269  0.1807
 1804TIP3    H127047   0.294   0.885   0.253  0.8244  0.8832 -2.1662
 1804TIP3    H227048   0.250   0.743   0.280 -2.8631  2.2121 -0.5482
 1805TIP3   OH227049   0.847   6.156   1.717  0.1159  0.3233 -0.0463
 1805TIP3    H127050   0.758   6.188   1.708  0.4602  1.1698 -0.5744
 1805TIP3    H227051   0.861   6.148   1.811 -0.8973 -0.9358  0.0092
 1806TIP3   OH227052   3.760   6.353   7.000  0.8487 -0.0814  0.5363
 1806TIP3    H127053   3.675   6.349   7.042  1.5549 -1.3932  1.9480
 1806TIP3    H227054   3.749   6.416   6.928 -1.2114 -0.0568  0.8239
 1807TIP3   OH227055   1.179   2.240   2.002 -0.0671  0.1025  0.3382
 1807TIP3    H127056   1.250   2.177   2.012 -1.3641 -1.6820 -0.8598
 1807TIP3    H227057   1.101   2.186   1.987 -1.3640  1.9883 -0.1977
 1808TIP3   OH227058   3.885   2.846   7.698  0.4158  0.1367 -0.4848
 1808TIP3    H127059   3.810   2.845   7.757  0.0351  0.5867 -0.9513
 1808TIP3    H227060   3.877   2.765   7.648  0.3924  0.0548 -0.3494
 1809TIP3   OH227061   4.208   2.160   0.839  0.0980 -0.1706  0.1188
 1809TIP3    H127062   4.157   2.226   0.793 -1.3806 -1.3711 -0.0839
 1809TIP3    H227063   4.235   2.202   0.920  0.1495  1.0199 -0.5016
 1810TIP3   OH227064   5.403   2.587   8.786 -0.3509 -0.2617  0.4157
 1810TIP3    H127065   5.417   2.492   8.783 -0.5802 -0.3101  0.8254
 1810TIP3    H227066   5.491   2.624   8.787 -0.2135 -0.3943 -1.5081
 1811TIP3   OH227067   2.617   0.622   0.208  0.5112  0.5758  0.0237
 1811TIP3    H127068   2.673   0.654   0.137  0.5598 -0.9032 -0.6407
 1811TIP3    H227069   2.608   0.697   0.266 -0.7986  2.3424 -2.2846
 1812TIP3   OH227070   6.144   3.570   1.064  0.3876 -0.5527 -0.3911
 1812TIP3    H127071   6.184   3.507   1.005 -0.2816 -1.6677  0.3065
 1812TIP3    H227072   6.052   3.571   1.039  0.2898 -0.2692 -0.0307
 1813TIP3   OH227073   4.713   2.888   7.346  0.4752  0.0228  0.1986
 1813TIP3    H127074   4.697   2.797   7.371  3.0063 -0.5875 -0.1629
 1813TIP3    H227075   4.627   2.920   7.317 -0.6428 -1.9721  1.0562
 1814TIP3   OH227076   4.580   3.744   0.573  0.2516 -1.0373  0.0632
 1814TIP3    H127077   4.558   3.825   0.528  0.8713 -1.2748 -0.6845
 1814TIP3    H227078   4.496   3.698   0.581  0.1608 -1.1243 -1.1393
 1815TIP3   OH227079   0.792   2.306   2.517  0.0498 -0.0641  0.2409
 1815TIP3    H127080   0.794   2.256   2.598  1.4435  0.8375  0.7997
 1815TIP3    H227081   0.858   2.265   2.461 -0.5707 -0.3874 -0.2724
 1816TIP3   OH227082   0.011   6.522   2.632  0.1078  0.4544 -0.6791
 1816TIP3    H127083   0.076   6.585   2.663  0.2380 -0.1573  0.3562
 1816TIP3    H227084   0.045   6.437   2.660 -0.6611  0.0361 -0.9796
 1817TIP3   OH227085   1.452   6.315   0.867 -0.2457  0.1715  0.1918
 1817TIP3    H127086   1.450   6.222   0.844 -0.0149  0.3933 -0.7479
 1817TIP3    H227087   1.535   6.347   0.833 -0.0542  0.5965  1.0338
 1818TIP3   OH227088   2.671   2.900   0.747  0.1903  1.0333  0.3607
 1818TIP3    H127089   2.720   2.826   0.783  0.9203  1.6940  0.7607
 1818TIP3    H227090   2.579   2.874   0.756  0.4540 -0.3671 -0.7062
 1819TIP3   OH227091   3.864   4.598   1.169  0.4403  0.1323 -0.0062
 1819TIP3    H127092   3.908   4.662   1.225  0.4130  0.2176 -0.0816
 1819TIP3    H227093   3.926   4.582   1.098 -0.1724  1.2223 -0.8050
 1820TIP3   OH227094   3.479   2.385   0.558 -0.6391 -0.0480  0.1774
 1820TIP3    H127095   3.531   2.452   0.515  0.2523 -0.5810  0.4023
 1820TIP3    H227096   3.444   2.428   0.636  3.0063 -0.7515  2.4641
 1821TIP3   OH227097   2.944   1.042   0.288 -0.1623 -0.2845 -0.1009
 1821TIP3    H127098   2.894   1.103   0.233 -0.9403 -1.2959 -0.5481
 1821TIP3    H227099   2.939   1.080   0.376  0.5212  0.9967 -0.5855
 1822TIP3   OH227100   2.912   5.406   2.264  0.7369 -0.4011  0.3271
 1822TIP3    H127101   2.971   5.451   2.203  0.2686  1.8783  1.4310
 1822TIP3    H227102   2.845   5.471   2.284 -0.2281 -1.7687  1.7401
 1823TIP3   OH227103   3.083   5.558   2.107  0.6490 -0.6286 -0.3787
 1823TIP3    H127104   3.168   5.530   2.076  1.1652  0.5946 -0.1317
 1823TIP3    H227105   3.031   5.572   2.027  1.3846  0.7124 -0.6604
 1824TIP3   OH227106   6.537   0.530   0.710 -0.9170  0.1469 -1.2093
 1824TIP3    H127107   6.558   0.438   0.693  0.9079  0.5488 -1.3358
 1824TIP3    H227108   6.462   0.526   0.769 -1.4304 -1.3977 -1.8939
 1825TIP3   OH227109   5.490   5.113   8.113 -0.2390 -0.3603  0.7060
 1825TIP3    H127110   5.405   5.074   8.095  0.6521 -1.3826 -1.8976
 1825TIP3    H227111   5.471   5.199   8.148 -2.5054  0.8580 -2.9857
 1826TIP3   OH227112   0.977   6.341   1.590  0.1904 -0.5325  0.0879
 1826TIP3    H127113   0.925   6.323   1.512 -2.6435  0.1284  1.6981
 1826TIP3    H227114   0.955   6.270   1.651 -0.8130  1.0841  1.6967
 1827TIP3   OH227115   6.554   5.915   7.293  0.1793  1.1165 -0.0712
 1827TIP3    H127116   6.568   5.987   7.356 -2.5172  1.0683  0.7143
 1827TIP3    H227117   6.460   5.917   7.275 -0.2383 -2.8184  0.7712
 1828TIP3   OH227118   2.953   3.984   0.006  0.2838 -0.6051  0.2075
 1828TIP3    H127119   3.010   4.059   0.023 -0.2729 -0.0296 -0.3893
 1828TIP3    H227120   3.013   3.914  -0.019  0.7379  0.0126 -0.4922
 1829TIP3   OH227121   1.835   3.726   2.036  0.0543 -0.6596  0.2386
 1829TIP3    H127122   1.782   3.768   1.968  1.8773 -0.2479 -1.0079
 1829TIP3    H227123   1.818   3.633   2.025  2.5822 -0.9364 -2.9927
 1830TIP3   OH227124   2.940   2.035   8.683 -0.1671 -0.7691  0.4639
 1830TIP3    H127125   3.006   1.968   8.665  1.3191  0.1938  2.0864
 1830TIP3    H227126   2.988   2.107   8.724 -1.9096  0.8198 -0.1350
 1831TIP3   OH227127   2.930   1.792   2.647  0.1148  0.0199  0.2814
 1831TIP3    H127128   2.929   1.698   2.631  1.8253 -0.0957  0.6047
 1831TIP3    H227129   3.017   1.808   2.684 -1.0674  1.3223  2.6902
 1832TIP3   OH227130   0.838   5.685   0.962 -0.5836 -0.3325  0.0174
 1832TIP3    H127131   0.867   5.649   1.046  1.4339  2.1043  0.4844
 1832TIP3    H227132   0.742   5.691   0.970 -0.5419 -1.2912  1.6437
 1833TIP3   OH227133   0.995   5.653   7.623  0.0407 -0.4228 -0.3267
 1833TIP3    H127134   1.055   5.579   7.618 -1.1627 -1.4248 -0.3648
 1833TIP3    H227135   0.926   5.625   7.683 -0.4574  0.6529 -0.3623
 1834TIP3   OH227136   4.335   2.547   7.964  0.1966 -0.1973 -0.2038
 1834TIP3    H127137   4.288   2.610   7.909 -0.1445 -1.0242 -0.8770
 1834TIP3    H227138   4.425   2.577   7.963 -0.1475  0.9337  0.4199
 1835TIP3   OH227139   4.835   3.661   8.146 -0.1924  0.3904  0.9261
 1835TIP3    H127140   4.881   3.577   8.144  1.1310  1.0853 -1.1105
 1835TIP3    H227141   4.759   3.645   8.202  0.1240 -2.1006  0.7880
 1836TIP3   OH227142   4.225   3.935   0.353 -0.3574  0.3603  0.0343
 1836TIP3    H127143   4.258   3.847   0.333 -0.5870 -0.0089  1.2179
 1836TIP3    H227144   4.206   3.973   0.267  2.6710  0.4410 -0.7415
 1837TIP3   OH227145   0.882   3.114   2.252  0.2950  0.2404  0.3652
 1837TIP3    H127146   0.969   3.082   2.273  1.7156  3.6687  0.3052
 1837TIP3    H227147   0.872   3.099   2.158  0.3644 -1.0552  0.5514
 1838TIP3   OH227148   5.213   5.564   1.047 -0.8016  0.5591 -0.6568
 1838TIP3    H127149   5.275   5.623   1.004  0.0133  0.3085  0.1298
 1838TIP3    H227150   5.153   5.621   1.094 -0.2535  0.7788 -0.2162
 1839TIP3   OH227151   3.817   3.459   1.980  0.1841  0.5807  0.1756
 1839TIP3    H127152   3.907   3.463   2.011  0.2411 -1.8338  0.5221
 1839TIP3    H227153   3.765   3.485   2.056  0.5369  0.3118  0.5132
 1840TIP3   OH227154   4.073   0.908   2.450 -0.0535  0.4449  0.0302
 1840TIP3    H127155   4.006   0.973   2.469  0.2767  1.4445 -1.9693
 1840TIP3    H227156   4.047   0.870   2.366  1.0056 -0.3517  0.0418
 1841TIP3   OH227157   4.302   2.338   1.023 -0.5793  0.0558  0.1617
 1841TIP3    H127158   4.328   2.269   1.083  0.0068  0.0660 -0.0758
 1841TIP3    H227159   4.284   2.414   1.079  0.1891  0.1346  0.3111
 1842TIP3   OH227160   0.372   3.683   7.938  0.5803 -0.0867  0.0099
 1842TIP3    H127161   0.390   3.672   7.844 -0.5763 -0.3387 -0.2058
 1842TIP3    H227162   0.291   3.634   7.952 -0.0209  1.1113  0.8591
 1843TIP3   OH227163   2.648   0.474   8.115 -0.2535  0.9785 -0.5344
 1843TIP3    H127164   2.572   0.466   8.057  1.2911  0.0287 -2.5229
 1843TIP3    H227165   2.720   0.498   8.057  0.7682  3.1950  1.4979
 1844TIP3   OH227166   1.136   1.557   1.232  0.3283  0.1524  0.0152
 1844TIP3    H127167   1.074   1.525   1.166  0.4384 -1.1053  0.4911
 1844TIP3    H227168   1.219   1.518   1.206  0.5358  0.3020  0.4547
 1845TIP3   OH227169   3.324   5.971   7.418 -0.1467 -0.3860  0.2585
 1845TIP3    H127170   3.288   6.049   7.374 -0.3551 -0.9672 -0.6281
 1845TIP3    H227171   3.340   5.909   7.347  0.4200 -1.0045  0.9111
 1846TIP3   OH227172   4.502   4.683   2.299  0.5606  0.1406  0.1936
 1846TIP3    H127173   4.467   4.763   2.338  0.3457  0.3616 -0.4387
 1846TIP3    H227174   4.540   4.712   2.216  0.8985 -0.3394  0.1796
 1847TIP3   OH227175   4.979   5.234   7.469  0.4644 -0.4211  0.2024
 1847TIP3    H127176   4.910   5.190   7.520  1.3417 -1.0669  0.8762
 1847TIP3    H227177   5.061   5.197   7.504  1.1243 -0.1844 -1.0537
 1848TIP3   OH227178   1.948   2.646   8.697  0.2131 -0.1311  0.1842
 1848TIP3    H127179   1.867   2.698   8.689 -0.8359 -1.3730  2.0769
 1848TIP3    H227180   1.925   2.561   8.660  0.7074 -0.4429  0.5920
 1849TIP3   OH227181   6.119   6.680   8.222 -0.7047 -0.2583 -0.6861
 1849TIP3    H127182   6.087   6.614   8.161 -0.7055 -2.3179  1.3978
 1849TIP3    H227183   6.083   6.654   8.307  0.5277  1.5929  0.4944
 1850TIP3   OH227184   1.456   0.352   2.022 -0.4596 -0.0707  0.4630
 1850TIP3    H127185   1.361   0.342   2.020 -0.5156  0.4857  0.1523
 1850TIP3    H227186   1.489   0.262   2.029 -0.9655 -0.4286 -1.3008
 1851TIP3   OH227187   4.824   1.139   7.747 -0.3059 -0.3745 -0.4393
 1851TIP3    H127188   4.826   1.141   7.651  0.5925 -0.3949 -0.4354
 1851TIP3    H227189   4.732   1.151   7.770 -0.7042 -1.5716 -1.3317
 1852TIP3   OH227190   4.360   3.279   1.792 -0.2656  0.1395 -0.4824
 1852TIP3    H127191   4.294   3.310   1.730  0.5714  0.5040 -1.2147
 1852TIP3    H227192   4.414   3.356   1.810  0.0413 -0.1827  0.0197
 1853TIP3   OH227193   2.481   4.320   2.768 -0.2112  0.3589  0.1293
 1853TIP3    H127194   2.486   4.388   2.835 -0.0487  1.1641 -0.6873
 1853TIP3    H227195   2.566   4.275   2.774  1.2313  2.6047 -1.7611
 1854TIP3   OH227196   0.246   2.701   7.094  0.5283 -0.1402  0.3252
 1854TIP3    H127197   0.309   2.772   7.100 -0.0159  0.5327 -1.2972
 1854TIP3    H227198   0.163   2.739   7.123  0.2045 -0.0372 -0.6847
 1855TIP3   OH227199   6.786   0.773   1.688  0.1660  0.6307  0.0524
 1855TIP3    H127200   6.776   0.684   1.721  3.3878  0.1300  0.0619
 1855TIP3    H227201   6.784   0.828   1.766  0.5775  0.2568  0.3364
 1856TIP3   OH227202   0.587   4.535   7.350  0.4690 -0.0201 -0.2975
 1856TIP3    H127203   0.640   4.484   7.411  0.3058 -0.7681 -0.7649
 1856TIP3    H227204   0.499   4.535   7.388  0.1436 -1.3132 -0.9913
 1857TIP3   OH227205   3.410   3.402   1.457 -0.3393 -0.8716 -0.3567
 1857TIP3    H127206   3.379   3.327   1.406  1.2262 -0.6200 -1.7513
 1857TIP3    H227207   3.385   3.478   1.405  2.6602 -0.6553 -1.6937
 1858TIP3   OH227208   3.950   5.995   7.356 -0.4027 -0.2553 -0.4146
 1858TIP3    H127209   3.975   6.087   7.344  1.9114 -0.6854  0.5991
 1858TIP3    H227210   4.017   5.946   7.308  0.0593 -1.4671  1.3798
 1859TIP3   OH227211   0.859   3.261   8.573 -0.2542 -0.5131 -0.2862
 1859TIP3    H127212   0.833   3.177   8.609 -0.0516 -0.9595 -1.1565
 1859TIP3    H227213   0.818   3.326   8.631 -0.1401 -1.1953  0.5806
 1860TIP3   OH227214   5.293   4.118   7.048 -0.1970 -0.3850 -0.4482
 1860TIP3    H127215   5.332   4.098   7.133  0.0537 -1.1316 -0.7311
 1860TIP3    H227216   5.199   4.113   7.062 -0.1557 -0.4263 -0.1931
 1861TIP3   OH227217   4.393   3.080   1.236 -0.0729  0.2202  0.1268
 1861TIP3    H127218   4.426   3.102   1.149  0.2755  0.2240  0.2592
 1861TIP3    H227219   4.398   3.161   1.285  0.9043 -0.0615  0.5163
 1862TIP3   OH227220   1.962   2.934   1.401 -0.1946  0.1131  0.0808
 1862TIP3    H127221   1.905   2.959   1.328 -0.8652 -2.6174 -0.4389
 1862TIP3    H227222   2.025   2.873   1.363  1.1910  0.7170  1.2951
 1863TIP3   OH227223   2.536   3.919   8.163 -0.2594  0.1603 -0.1157
 1863TIP3    H127224   2.470   3.860   8.199 -1.6807  0.8706 -1.4785
 1863TIP3    H227225   2.604   3.921   8.230 -0.3057 -2.7159  0.1425
 1864TIP3   OH227226   6.606   6.169   0.749 -0.0250 -0.4021 -0.0231
 1864TIP3    H127227   6.681   6.219   0.717 -0.7200  1.1555  0.6806
 1864TIP3    H227228   6.642   6.109   0.814  0.6922 -0.1131 -0.1539
 1865TIP3   OH227229   3.729   4.084   8.492  0.2421 -0.7073 -0.0932
 1865TIP3    H127230   3.810   4.132   8.476 -0.5332 -0.1002 -2.7898
 1865TIP3    H227231   3.719   4.029   8.414 -0.8273 -2.4627  1.2035
 1866TIP3   OH227232   4.313   5.303   7.241 -0.2865 -0.0965  0.5756
 1866TIP3    H127233   4.396   5.256   7.237  0.7392  1.3069  3.0775
 1866TIP3    H227234   4.266   5.261   7.313 -2.3372 -1.6190 -1.5171
 1867TIP3   OH227235   3.570   3.034   1.955  0.6002  0.6610  0.0411
 1867TIP3    H127236   3.475   3.042   1.956  0.2772 -0.1487 -4.6389
 1867TIP3    H227237   3.601   3.122   1.934  0.8512  0.6518  0.3545
 1868TIP3   OH227238   1.437   3.475   1.012 -0.1995 -0.7803  0.0953
 1868TIP3    H127239   1.481   3.499   0.930  0.3124 -1.0224  0.2919
 1868TIP3    H227240   1.487   3.520   1.080 -1.2530  0.2729  0.2103
 1869TIP3   OH227241   2.858   2.719   0.375 -0.1805  0.2863 -0.2182
 1869TIP3    H127242   2.766   2.725   0.400 -0.1388  0.9412 -0.2173
 1869TIP3    H227243   2.893   2.649   0.432 -0.3740  0.9148  0.6993
 1870TIP3   OH227244   2.027   1.729   8.546  0.1660 -0.1327  0.1635
 1870TIP3    H127245   2.054   1.651   8.595  0.8135 -0.1794 -0.2564
 1870TIP3    H227246   1.963   1.772   8.603  0.2759 -0.6366  0.6771
 1871TIP3   OH227247   2.260   0.695   7.731 -0.2983 -0.0641 -0.4066
 1871TIP3    H127248   2.305   0.716   7.813 -0.6976  0.2310 -0.2600
 1871TIP3    H227249   2.262   0.777   7.681  1.7324 -0.7371 -1.5693
 1872TIP3   OH227250   4.848   3.820   7.009 -0.3004 -0.1214  0.1922
 1872TIP3    H127251   4.783   3.750   7.009 -0.4278 -0.0046  0.0785
 1872TIP3    H227252   4.923   3.783   7.054 -1.3130  0.5384  2.5943
 1873TIP3   OH227253   5.921   0.738   0.303 -0.1483 -0.1753 -1.2444
 1873TIP3    H127254   5.865   0.786   0.241 -0.6036 -0.8756 -1.3882
 1873TIP3    H227255   5.989   0.801   0.327  0.7579 -0.2453 -3.3865
 1874TIP3   OH227256   0.610   3.625   2.909 -0.4294  0.5247 -0.2186
 1874TIP3    H127257   0.658   3.698   2.947 -0.3798  1.1932 -1.5335
 1874TIP3    H227258   0.544   3.603   2.975  1.5310 -0.3550  1.5994
 1875TIP3   OH227259   5.891   0.532   7.271 -0.0008  0.5280 -0.4127
 1875TIP3    H127260   5.954   0.500   7.206 -0.6914 -1.8408 -0.0064
 1875TIP3    H227261   5.806   0.503   7.238 -0.7159  2.0226  0.0188
 1876TIP3   OH227262   5.626   2.680   1.464 -0.1359  0.5687 -0.1591
 1876TIP3    H127263   5.566   2.734   1.412 -1.1477  0.4125  0.8168
 1876TIP3    H227264   5.673   2.628   1.398 -1.6937  0.0583 -0.9444
 1877TIP3   OH227265   5.860   1.175   8.406  0.0029 -0.0491 -1.0156
 1877TIP3    H127266   5.898   1.236   8.342 -0.2738  0.1236 -1.0188
 1877TIP3    H227267   5.788   1.133   8.359 -2.7014  2.7839  0.2139
 1878TIP3   OH227268   0.285   0.879   7.691  0.0644  0.5032  0.4145
 1878TIP3    H127269   0.283   0.966   7.651  1.7032  0.7148  0.7038
 1878TIP3    H227270   0.299   0.819   7.617 -2.9377  0.2096 -0.0517
 1879TIP3   OH227271   0.196   2.459   2.177 -0.7235  0.1621 -0.3783
 1879TIP3    H127272   0.153   2.407   2.245 -0.5426 -0.7627 -0.9489
 1879TIP3    H227273   0.207   2.545   2.216 -0.8488 -0.2817  0.6734
 1880TIP3   OH227274   3.618   5.559   6.413  0.3758  0.3484  0.4422
 1880TIP3    H127275   3.711   5.566   6.436  0.1942  2.2207  0.8046
 1880TIP3    H227276   3.572   5.574   6.496 -0.2503  0.8303  0.0159
 1881TIP3   OH227277   0.874   3.468   8.364 -0.1885  0.0848 -0.7579
 1881TIP3    H127278   0.865   3.399   8.431 -1.8899  0.1972 -0.8142
 1881TIP3    H227279   0.788   3.512   8.364 -0.1838  0.1745 -2.9261
 1882TIP3   OH227280   1.494   1.803   8.281  0.4173  0.1839  0.4901
 1882TIP3    H127281   1.421   1.741   8.285  0.9569 -0.5459 -0.3567
 1882TIP3    H227282   1.563   1.762   8.333 -0.3827  1.8243  3.0268
 1883TIP3   OH227283   4.908   1.949   6.925 -0.1001 -0.1151  0.4336
 1883TIP3    H127284   4.878   1.879   6.867 -1.2352 -0.9602  1.9460
 1883TIP3    H227285   4.920   2.025   6.868 -0.3613 -1.1152 -1.0074
 1884TIP3   OH227286   1.353   5.961   6.968 -0.0380 -0.0934  0.4526
 1884TIP3    H127287   1.300   6.037   6.943  0.7705 -0.0370 -1.2740
 1884TIP3    H227288   1.341   5.899   6.896  1.7455 -0.3125  0.2955
 1885TIP3   OH227289   0.795   5.853   0.505 -0.2329 -1.2757 -0.3172
 1885TIP3    H127290   0.840   5.790   0.561  0.5141 -0.2970  0.2303
 1885TIP3    H227291   0.744   5.800   0.444 -0.7751 -2.3701  1.0469
 1886TIP3   OH227292   2.917   6.557   0.668  0.1181 -0.4815 -0.3570
 1886TIP3    H127293   2.978   6.592   0.733  1.3421 -0.9251 -1.2326
 1886TIP3    H227294   2.882   6.635   0.624 -0.5568 -0.1899  0.6787
 1887TIP3   OH227295   6.112   2.887   0.066 -0.2005 -0.2016  0.4243
 1887TIP3    H127296   6.187   2.886   0.125 -0.1495  0.4212  0.3708
 1887TIP3    H227297   6.037   2.905   0.122 -0.2731 -0.5016  0.4279
 1888TIP3   OH227298   6.795   5.009   2.403  0.3128 -0.1471 -0.3010
 1888TIP3    H127299   6.743   5.059   2.340 -1.6459 -0.8598  0.6807
 1888TIP3    H227300   6.755   5.028   2.488  0.7513 -1.8481  0.3162
 1889TIP3   OH227301   0.548   4.147   1.856  0.3068 -0.2259  0.0473
 1889TIP3    H127302   0.513   4.234   1.876  2.9608  0.6577  1.3937
 1889TIP3    H227303   0.570   4.110   1.941  0.4317 -1.6937 -0.5922
 1890TIP3   OH227304   5.086   4.646   2.010 -0.2602  0.0142 -0.7443
 1890TIP3    H127305   5.143   4.579   1.973  0.5872  0.9298 -1.1593
 1890TIP3    H227306   5.032   4.600   2.074  1.4403 -0.7927  0.1920
 1891TIP3   OH227307   4.005   5.874   1.093  0.2770  0.2218  0.1002
 1891TIP3    H127308   4.044   5.833   1.171  1.0158 -0.7275 -0.7363
 1891TIP3    H227309   4.049   5.831   1.019  0.4491  1.9379 -0.8377
 1892TIP3   OH227310   3.263   5.791   8.383  0.1966 -0.2793  0.3307
 1892TIP3    H127311   3.221   5.877   8.386  0.5711 -0.1035  0.6558
 1892TIP3    H227312   3.213   5.742   8.317 -0.0759  0.1548  0.2098
 1893TIP3   OH227313   3.614   3.821   0.698 -0.1433  0.1300 -0.4442
 1893TIP3    H127314   3.694   3.843   0.746 -1.1695  0.3974  1.2497
 1893TIP3    H227315   3.594   3.900   0.647  1.2172 -0.3240 -1.7439
 1894TIP3   OH227316   2.767   0.988   1.720 -0.6852  0.1194  0.0139
 1894TIP3    H127317   2.787   1.080   1.704  1.3936 -0.6230 -2.2464
 1894TIP3    H227318   2.816   0.966   1.799  0.0801  0.5804 -0.3302
 1895TIP3   OH227319   0.131   2.717   8.618 -0.1014 -0.4164  0.8278
 1895TIP3    H127320   0.153   2.645   8.557  0.9603  1.3731 -1.0353
 1895TIP3    H227321   0.205   2.777   8.611 -2.2101  2.2880  0.0534
 1896TIP3   OH227322   1.917   1.506   8.081 -0.5256  0.6912  0.2723
 1896TIP3    H127323   1.840   1.512   8.025 -0.1576  1.2571 -0.1961
 1896TIP3    H227324   1.901   1.431   8.138 -1.0244  0.2698 -0.4184
 1897TIP3   OH227325   0.613   5.464   7.303 -0.4254  0.0380 -0.4501
 1897TIP3    H127326   0.678   5.434   7.240 -1.6895  0.1894 -1.8935
 1897TIP3    H227327   0.642   5.552   7.328 -0.3854  0.3581 -1.5655
 1898TIP3   OH227328   3.319   3.330   2.069  0.2058 -0.3123  0.6507
 1898TIP3    H127329   3.273   3.262   2.020  0.4044  0.1514 -0.1994
 1898TIP3    H227330   3.411   3.318   2.047  0.2249  0.3277  0.3694
 1899TIP3   OH227331   4.391   2.249   8.668 -0.2739  0.3794 -0.2990
 1899TIP3    H127332   4.464   2.200   8.631 -0.9874 -2.1791  1.4249
 1899TIP3    H227333   4.313   2.212   8.627 -0.7739  1.2691 -0.1962
 1900TIP3   OH227334   5.983   5.437   1.878  0.5996  0.1196 -0.4436
 1900TIP3    H127335   5.922   5.394   1.939  0.3640 -0.3454 -0.9945
 1900TIP3    H227336   6.068   5.430   1.921  0.4546 -0.3111 -0.2141
 1901TIP3   OH227337   3.948   6.263   0.035  0.0921 -0.4917 -0.5686
 1901TIP3    H127338   3.911   6.350   0.019  0.6848 -0.1898 -0.3487
 1901TIP3    H227339   3.946   6.220  -0.051  0.3651 -0.0322 -0.8098
 1902TIP3   OH227340   3.424   2.982   7.083  0.0709  0.2319  0.2691
 1902TIP3    H127341   3.368   2.935   7.144 -0.7775  1.0136  0.1030
 1902TIP3    H227342   3.391   3.071   7.083  0.9446  0.5724 -0.2851
 1903TIP3   OH227343   1.911   3.415   7.162  0.1583  0.6153  0.3401
 1903TIP3    H127344   1.942   3.458   7.083 -1.6078 -0.7010 -1.1444
 1903TIP3    H227345   1.943   3.325   7.154  0.1250  0.5138  1.2319
 1904TIP3   OH227346   6.687   2.552   8.123  0.0964 -0.3198 -0.0853
 1904TIP3    H127347   6.735   2.581   8.046  1.8089 -0.2303  0.9740
 1904TIP3    H227348   6.597   2.542   8.092  0.5333  0.6923 -1.8319
 1905TIP3   OH227349   2.166   4.723   8.189  0.0812  0.0046  0.5555
 1905TIP3    H127350   2.214   4.743   8.269 -0.4105  1.9872  0.3963
 1905TIP3    H227351   2.087   4.678   8.218  0.2165  0.1364  1.1269
 1906TIP3   OH227352   5.282   6.274   2.372  0.1544 -0.6152 -0.2464
 1906TIP3    H127353   5.368   6.241   2.346  0.2565 -0.5801  0.0355
 1906TIP3    H227354   5.232   6.196   2.394  0.8685 -0.5467  1.8563
 1907TIP3   OH227355   1.811   5.588   0.040 -0.4864  0.5451 -0.4716
 1907TIP3    H127356   1.895   5.623   0.070  0.3529 -1.7101  0.0152
 1907TIP3    H227357   1.746   5.648   0.076  0.7475  0.5132  2.0628
 1908TIP3   OH227358   2.744   6.063   0.028 -0.6197 -0.1477 -0.5485
 1908TIP3    H127359   2.830   6.026   0.009 -0.0698  0.8117 -0.0270
 1908TIP3    H227360   2.693   5.990   0.062  0.2944 -0.5401  0.0305
 1909TIP3   OH227361   6.324   3.100   2.775  0.6091 -0.5897 -0.3472
 1909TIP3    H127362   6.275   3.116   2.694 -1.6565  1.8357  1.3575
 1909TIP3    H227363   6.265   3.047   2.828  0.4300  1.0084  1.1304
 1910TIP3   OH227364   1.393   3.384   0.244 -0.1647  0.2181  0.6389
 1910TIP3    H127365   1.472   3.339   0.215 -1.3834 -1.0674 -0.8910
 1910TIP3    H227366   1.322   3.338   0.200 -1.8253  1.0122  2.3469
 1911TIP3   OH227367   6.181   6.476   1.218 -0.2131 -0.0137  0.0224
 1911TIP3    H127368   6.260   6.464   1.165  0.6788  0.0104  1.3060
 1911TIP3    H227369   6.168   6.391   1.260 -1.3623 -0.2698 -0.7880
 1912TIP3   OH227370   4.021   0.572   1.992 -0.1160 -0.2260  1.0357
 1912TIP3    H127371   3.976   0.488   1.990  0.8722 -0.7747 -1.3773
 1912TIP3    H227372   4.112   0.550   1.971  0.2704  1.3922  0.9261
 1913TIP3   OH227373   1.544   3.535   2.708  0.2769  0.0532  0.0676
 1913TIP3    H127374   1.465   3.500   2.748  0.3730 -0.3445 -0.0831
 1913TIP3    H227375   1.588   3.459   2.671  1.6101 -0.0159  1.6563
 1914TIP3   OH227376   5.353   1.917   8.809 -0.4256  0.6097  0.4463
 1914TIP3    H127377   5.297   1.991   8.786 -0.9983  0.3979  1.1338
 1914TIP3    H227378   5.414   1.952   8.873 -0.7454  0.4732  0.8285
 1915TIP3   OH227379   0.867   2.312   1.730  0.1546  0.5337  0.1281
 1915TIP3    H127380   0.888   2.234   1.678  1.4191  1.3390 -0.6106
 1915TIP3    H227381   0.884   2.285   1.820 -2.2695 -0.9419  0.2464
 1916TIP3   OH227382   6.693   1.779   2.207 -0.2607 -0.2786  0.7851
 1916TIP3    H127383   6.681   1.874   2.196 -1.1675 -0.5370 -0.7814
 1916TIP3    H227384   6.786   1.769   2.226 -0.0931  0.9064  0.6956
 1917TIP3   OH227385   5.499   4.200   8.563 -1.0787 -0.2795 -0.2958
 1917TIP3    H127386   5.471   4.291   8.554 -0.8320 -0.2081 -0.3470
 1917TIP3    H227387   5.422   4.148   8.539 -1.1934 -0.0845 -0.3457
 1918TIP3   OH227388   0.090   6.626   8.143  0.1671 -0.2015  0.2659
 1918TIP3    H127389   0.158   6.652   8.204 -1.9929 -0.6137  3.0449
 1918TIP3    H227390   0.095   6.690   8.072  0.6074  2.5182  2.5836
 1919TIP3   OH227391   2.260   2.083   1.370 -0.1074  0.4009  0.1751
 1919TIP3    H127392   2.226   2.155   1.424 -1.4976 -0.7839  0.9349
 1919TIP3    H227393   2.340   2.119   1.331 -1.0136  2.5334  0.1218
 1920TIP3   OH227394   4.341   3.212   7.508 -0.3933  0.1969  0.1624
 1920TIP3    H127395   4.289   3.138   7.539 -1.9354  1.3543  0.4492
 1920TIP3    H227396   4.371   3.185   7.421 -0.6766 -0.8830  0.3836
 1921TIP3   OH227397   3.202   6.642   0.378  0.0994 -0.4494 -0.3554
 1921TIP3    H127398   3.285   6.649   0.330  0.3802  0.3313  0.2228
 1921TIP3    H227399   3.223   6.674   0.466 -0.1488 -2.8400  0.6218
 1922TIP3   OH227400   0.141   2.745   0.876 -0.2238 -0.3893  1.0656
 1922TIP3    H127401   0.201   2.690   0.826 -0.4476 -0.5916  1.0201
 1922TIP3    H227402   0.062   2.750   0.823 -0.7277 -1.1884  1.7129
 1923TIP3   OH227403   6.750   5.244   2.823  0.0015  0.0135 -0.5744
 1923TIP3    H127404   6.793   5.192   2.755  1.0940 -2.4654  1.7815
 1923TIP3    H227405   6.673   5.192   2.847  1.4333 -1.0169  2.2432
 1924TIP3   OH227406   6.581   2.844   8.720  0.7836  0.1641  1.0574
 1924TIP3    H127407   6.529   2.895   8.783 -3.2051 -2.1195 -0.0560
 1924TIP3    H227408   6.608   2.907   8.654 -0.7627  1.4539  1.6087
 1925TIP3   OH227409   5.898   1.996   8.789  0.1708 -0.5780 -0.3520
 1925TIP3    H127410   5.890   1.987   8.694  0.4001  0.7703 -0.5143
 1925TIP3    H227411   5.908   1.906   8.821 -0.1419 -1.0627 -1.5731
 1926TIP3   OH227412   1.359   3.304   8.002 -0.3603 -0.0028 -0.3775
 1926TIP3    H127413   1.302   3.377   7.976  0.2184  0.7286  0.3739
 1926TIP3    H227414   1.386   3.326   8.091 -0.2141 -1.1698 -0.1247
 1927TIP3   OH227415   5.198   4.976   1.006 -0.3946 -0.6310  0.0523
 1927TIP3    H127416   5.138   4.936   0.943  0.7099 -2.1412 -0.1081
 1927TIP3    H227417   5.269   5.011   0.954 -1.3690  1.6968  0.1966
 1928TIP3   OH227418   1.543   3.755   2.031 -0.3110  0.3901 -0.2809
 1928TIP3    H127419   1.449   3.775   2.040 -0.2311  0.5307  0.2987
 1928TIP3    H227420   1.550   3.710   1.947 -0.9380  0.1598 -0.2170
 1929TIP3   OH227421   1.831   1.538   0.924  0.0530 -0.3999 -0.3619
 1929TIP3    H127422   1.869   1.512   0.840  0.1600 -2.4404  0.2703
 1929TIP3    H227423   1.737   1.547   0.906 -0.2469 -2.8028 -0.3376
 1930TIP3   OH227424   5.049   3.316   0.329 -0.0681  0.0175 -0.1944
 1930TIP3    H127425   4.954   3.329   0.335 -0.2264 -1.5504  1.1770
 1930TIP3    H227426   5.080   3.322   0.420  1.6148  3.2952 -0.8058
 1931TIP3   OH227427   2.474   1.159   7.836 -0.3409 -0.5278 -0.2507
 1931TIP3    H127428   2.399   1.105   7.809 -0.7267  0.0338 -0.3240
 1931TIP3    H227429   2.456   1.245   7.797  0.6366 -0.5449 -0.7664
 1932TIP3   OH227430   6.179   1.391   8.124 -0.3927 -0.4686  0.0290
 1932TIP3    H127431   6.107   1.328   8.114  0.1922 -0.9212 -1.7823
 1932TIP3    H227432   6.163   1.457   8.057  0.7699 -0.4844 -0.2900
 1933TIP3   OH227433   4.062   0.867   7.249  0.2827 -0.0253  0.1431
 1933TIP3    H127434   4.053   0.925   7.173 -0.2904 -0.0610  0.1766
 1933TIP3    H227435   3.973   0.833   7.264  0.3605  0.0654  0.8905
 1934TIP3   OH227436   2.225   1.732   1.947 -0.0443 -0.0017  0.5634
 1934TIP3    H127437   2.287   1.804   1.933 -0.1458 -0.2207 -1.3202
 1934TIP3    H227438   2.239   1.706   2.038  1.7571  0.7629  0.5638
 1935TIP3   OH227439   3.566   1.409   7.621 -0.2113 -0.4778  0.4459
 1935TIP3    H127440   3.568   1.320   7.587 -0.1919 -0.2293 -0.2149
 1935TIP3    H227441   3.501   1.454   7.568 -1.2245 -0.4371  1.6711
 1936TIP3   OH227442   3.806   1.908   0.804  0.3631  0.4130  0.1665
 1936TIP3    H127443   3.898   1.895   0.829  0.2405  1.4246  1.2397
 1936TIP3    H227444   3.803   1.882   0.712  1.6931  0.2126  0.1512
 1937TIP3   OH227445   4.716   2.451   7.753 -0.5562  0.5422 -0.2954
 1937TIP3    H127446   4.782   2.478   7.689  1.9085  0.2697  1.9328
 1937TIP3    H227447   4.679   2.532   7.786 -0.4633  0.7525 -0.7018
 1938TIP3   OH227448   4.373   4.797   7.602 -0.1389 -0.7123  0.0289
 1938TIP3    H127449   4.337   4.866   7.657  0.6382 -2.1444  2.5142
 1938TIP3    H227450   4.387   4.838   7.517 -0.5426  1.9142  1.1395
 1939TIP3   OH227451   6.262   4.295   7.354 -0.1125  0.2696 -0.2316
 1939TIP3    H127452   6.348   4.329   7.378  0.5114 -0.4687 -1.2916
 1939TIP3    H227453   6.271   4.200   7.363 -1.2330  0.2467  0.8829
 1940TIP3   OH227454   4.415   3.949   0.770 -0.2889 -0.1056 -0.1529
 1940TIP3    H127455   4.446   3.907   0.690  1.3247 -0.2368  0.4942
 1940TIP3    H227456   4.478   3.922   0.837  0.9083  3.3520  0.3153
 1941TIP3   OH227457   5.232   0.174   7.879  0.0215 -0.0313 -0.3025
 1941TIP3    H127458   5.316   0.131   7.867  0.2759  0.4461 -0.2488
 1941TIP3    H227459   5.205   0.151   7.968  0.7927  0.9932  0.2256
 1942TIP3   OH227460   1.663   0.862   1.087 -0.1738  0.3280  0.3609
 1942TIP3    H127461   1.572   0.886   1.103  0.1045  1.4735  0.3445
 1942TIP3    H227462   1.705   0.867   1.173  0.7598  3.9776 -0.1406
 1943TIP3   OH227463   0.592   3.028   0.931 -0.3708 -0.5635  0.2194
 1943TIP3    H127464   0.668   3.070   0.970 -1.0566  1.3125 -0.3850
 1943TIP3    H227465   0.625   2.987   0.851  0.5095 -2.1636  1.3526
 1944TIP3   OH227466   0.568   0.365   1.472 -0.4122  0.1113  0.1179
 1944TIP3    H127467   0.661   0.366   1.495 -0.6492 -1.4822  1.3428
 1944TIP3    H227468   0.566   0.388   1.379  1.1495  0.6697  0.1847
 1945TIP3   OH227469   4.443   1.707   7.978 -0.7281  0.5164  0.0406
 1945TIP3    H127470   4.350   1.726   7.979 -0.7316  0.5058  1.4936
 1945TIP3    H227471   4.485   1.788   8.007 -0.4316 -0.0797  1.3688
 1946TIP3   OH227472   2.656   2.604   1.037 -0.0387 -0.4083 -0.0638
 1946TIP3    H127473   2.638   2.694   1.064  1.0034 -0.5178  1.0882
 1946TIP3    H227474   2.704   2.614   0.954 -0.3813  0.0690 -0.2142
 1947TIP3   OH227475   4.156   1.554   2.501 -0.6853 -0.3290  0.4735
 1947TIP3    H127476   4.178   1.479   2.557  1.8933  0.3730  0.5029
 1947TIP3    H227477   4.167   1.521   2.412 -1.5966 -0.5370  0.4290
 1948TIP3   OH227478   0.629   4.590   0.068 -0.5452  0.1166 -0.3183
 1948TIP3    H127479   0.621   4.627  -0.020  0.7981 -1.2753 -1.0714
 1948TIP3    H227480   0.710   4.628   0.102 -0.4358 -0.2758 -0.1440
 1949TIP3   OH227481   3.207   3.385   0.588 -0.0065  0.0204  0.4823
 1949TIP3    H127482   3.212   3.477   0.612 -4.2700  1.3959 -2.6646
 1949TIP3    H227483   3.121   3.356   0.620  0.8778 -2.6490  0.6945
 1950TIP3   OH227484   0.361   2.191   7.369 -0.4988  0.0324  0.1231
 1950TIP3    H127485   0.397   2.105   7.390  0.6421  0.4264 -0.1132
 1950TIP3    H227486   0.355   2.191   7.273 -0.4440  0.2215  0.1178
 1951TIP3   OH227487   5.889   3.639   7.877 -0.0305  0.0319 -0.5531
 1951TIP3    H127488   5.906   3.547   7.861  1.3472  0.3982 -1.4352
 1951TIP3    H227489   5.809   3.641   7.930  0.2587 -1.6777  0.0029
 1952TIP3   OH227490   0.015   6.309   1.461 -0.3014  0.6603 -0.4218
 1952TIP3    H127491   0.031   6.386   1.408 -0.5100 -0.8576 -2.8277
 1952TIP3    H227492   0.101   6.287   1.498  0.7051 -0.2881 -3.1170
 1953TIP3   OH227493   2.543   0.923   1.883 -0.4631  0.3983  0.0664
 1953TIP3    H127494   2.549   0.827   1.888  0.2257  0.4845  1.7666
 1953TIP3    H227495   2.626   0.950   1.846 -0.0596  0.3844  0.9280
 1954TIP3   OH227496   3.619   0.359   7.164  0.1379  0.6938  0.4269
 1954TIP3    H127497   3.686   0.349   7.096  1.2442 -1.7186  1.7507
 1954TIP3    H227498   3.564   0.282   7.155 -1.6989  1.9626  0.2561
 1955TIP3   OH227499   5.920   1.803   0.586 -0.0958  0.3365  0.6293
 1955TIP3    H127500   5.997   1.820   0.532 -0.2044  0.1362  0.4122
 1955TIP3    H227501   5.846   1.810   0.527 -0.1768 -0.4169  0.6313
 1956TIP3   OH227502   3.136   3.109   7.683  0.6890 -0.0479 -0.6981
 1956TIP3    H127503   3.231   3.114   7.697  0.5768  0.7339 -0.1049
 1956TIP3    H227504   3.125   3.040   7.619  1.6463 -0.3316 -0.5810
 1957TIP3   OH227505   3.227   2.946   0.666  0.0773 -0.3627  0.3903
 1957TIP3    H127506   3.281   3.022   0.685  0.0337 -0.2041 -0.0934
 1957TIP3    H227507   3.140   2.969   0.699 -0.3423  0.4744 -1.1601
 1958TIP3   OH227508   0.691   5.000   1.216  0.3074  0.3655 -0.1617
 1958TIP3    H127509   0.669   4.972   1.305  0.1206  0.3417 -0.2150
 1958TIP3    H227510   0.621   4.964   1.162  1.3121 -1.0575 -0.5492
 1959TIP3   OH227511   0.046   4.457   8.685 -0.1685 -0.0604 -0.5870
 1959TIP3    H127512   0.076   4.515   8.615 -0.3649  0.3365 -0.3480
 1959TIP3    H227513  -0.047   4.442   8.666 -0.0496 -0.5330 -0.8078
 1960TIP3   OH227514   4.002   1.675   1.791  0.3169 -0.6692 -0.2575
 1960TIP3    H127515   3.954   1.592   1.794  0.5810 -0.8025  1.0847
 1960TIP3    H227516   4.052   1.671   1.709 -0.7497 -1.1991 -0.9040
 1961TIP3   OH227517   2.411   1.725   0.430 -0.2473  0.0191  0.5454
 1961TIP3    H127518   2.412   1.661   0.501 -1.4518  1.4755  1.9405
 1961TIP3    H227519   2.364   1.681   0.359 -0.0774 -1.0309  1.0563
 1962TIP3   OH227520   3.408   4.265   2.996 -0.4066 -0.3510 -0.0998
 1962TIP3    H127521   3.467   4.216   3.053  0.7271 -0.2849 -1.1837
 1962TIP3    H227522   3.466   4.320   2.942 -1.4812  0.0634 -0.8733
 1963TIP3   OH227523   3.098   0.424   1.052 -0.3979  0.5252 -0.5804
 1963TIP3    H127524   3.041   0.501   1.045 -1.0973  0.0325 -0.4419
 1963TIP3    H227525   3.054   0.368   1.116  0.0925 -0.0022 -0.6994
 1964TIP3   OH227526   3.517   5.141   1.780 -0.1595  0.4521 -0.1045
 1964TIP3    H127527   3.561   5.219   1.814  2.0546 -0.7438 -0.0566
 1964TIP3    H227528   3.588   5.082   1.757 -1.7687 -2.2437  1.3918
 1965TIP3   OH227529   6.186   1.774   8.362 -0.5635  0.5108 -0.2465
 1965TIP3    H127530   6.137   1.745   8.285  0.5190  1.0020 -1.1369
 1965TIP3    H227531   6.278   1.771   8.336 -0.2064  1.2523  0.8272
 1966TIP3   OH227532   5.037   6.718   1.624  0.4540  0.0341 -0.8524
 1966TIP3    H127533   5.049   6.627   1.598  1.2384  0.5706 -2.5674
 1966TIP3    H227534   5.072   6.723   1.713  0.0436 -1.4057 -0.5924
 1967TIP3   OH227535   6.816   6.682   7.504 -0.0545 -0.9163 -0.0101
 1967TIP3    H127536   6.723   6.660   7.512 -0.1803 -0.6821 -0.8142
 1967TIP3    H227537   6.861   6.598   7.505 -0.4040 -1.1320 -1.3024
 1968TIP3   OH227538   3.290   4.690   2.008  0.1514 -0.2292 -0.8134
 1968TIP3    H127539   3.344   4.756   1.964  1.3662  0.1374  1.1393
 1968TIP3    H227540   3.219   4.740   2.049 -1.3911 -0.6428 -2.8140
 1969TIP3   OH227541   4.627   4.435   7.052 -0.7282  0.0372  0.6706
 1969TIP3    H127542   4.569   4.426   6.976  0.1103 -1.6710  0.1700
 1969TIP3    H227543   4.705   4.479   7.017  0.1716 -1.8391  0.1832
 1970TIP3   OH227544   2.352   3.532   0.318  0.4442  0.6562 -0.7840
 1970TIP3    H127545   2.295   3.545   0.243  2.8770 -0.4437 -2.9585
 1970TIP3    H227546   2.316   3.455   0.362  0.8898 -0.8273 -2.8706
 1971TIP3   OH227547   6.419   3.520   7.456  0.4798  1.1649  0.4234
 1971TIP3    H127548   6.450   3.429   7.456  0.8055  1.2735 -0.3822
 1971TIP3    H227549   6.324   3.512   7.451  0.5069  0.8715  0.3594
 1972TIP3   OH227550   2.761   3.771   7.324 -0.0791  0.7522 -0.9739
 1972TIP3    H127551   2.824   3.843   7.319  0.5454  0.2241 -0.9366
 1972TIP3    H227552   2.681   3.811   7.356  0.4262  1.3309 -0.4053
 1973TIP3   OH227553   4.823   1.218   8.310  0.3480  0.3670  0.2195
 1973TIP3    H127554   4.791   1.146   8.365  1.3092  1.2414  2.0092
 1973TIP3    H227555   4.915   1.198   8.297  0.2034  0.3498 -0.8416
 1974TIP3   OH227556   2.625   2.688   7.368  0.2800 -0.1484  0.0942
 1974TIP3    H127557   2.626   2.774   7.325 -2.9598 -0.1666 -0.2544
 1974TIP3    H227558   2.622   2.625   7.296  1.3802 -0.5174  0.3585
 1975TIP3   OH227559   6.523   5.567   8.584 -0.5345  0.7801  0.4142
 1975TIP3    H127560   6.614   5.552   8.559 -0.9942  0.1923 -1.0211
 1975TIP3    H227561   6.493   5.482   8.618 -0.4170  1.0979  1.3161
 1976TIP3   OH227562   0.141   3.801   0.912  0.0464 -0.6964 -1.0480
 1976TIP3    H127563   0.065   3.747   0.891 -1.0480  0.2348  0.2605
 1976TIP3    H227564   0.199   3.743   0.962 -0.9755 -0.7813  0.0926
 1977TIP3   OH227565   6.691   0.269   2.923 -0.0187  0.0208 -0.0073
 1977TIP3    H127566   6.784   0.292   2.923  0.0412 -0.0947 -1.7832
 1977TIP3    H227567   6.688   0.183   2.881 -0.8189 -0.6173  1.2856
 1978TIP3   OH227568   0.181   0.124   8.294  0.3657 -0.0687  0.0571
 1978TIP3    H127569   0.133   0.206   8.299  1.1697  0.3391  1.7551
 1978TIP3    H227570   0.243   0.137   8.222  0.5681  0.8805  0.3896
 1979TIP3   OH227571   1.253   3.811   1.324  0.0875 -0.3695 -0.1096
 1979TIP3    H127572   1.223   3.726   1.291  0.1825 -1.1609  1.7153
 1979TIP3    H227573   1.265   3.864   1.246 -1.7027 -1.4558 -1.1932
 1980TIP3   OH227574   2.905   3.358   0.435  0.1524 -0.1613 -0.3294
 1980TIP3    H127575   2.935   3.434   0.387 -1.2256  1.0464  0.6179
 1980TIP3    H227576   2.935   3.283   0.384  2.3293  0.9718 -0.8006
 1981TIP3   OH227577   1.460   1.983   0.149 -0.3018 -0.0706 -0.1788
 1981TIP3    H127578   1.473   2.006   0.057 -0.8149 -0.7582 -0.4373
 1981TIP3    H227579   1.495   1.895   0.157 -0.6440 -0.1767  0.1852
 1982TIP3   OH227580   2.568   1.237   1.360 -0.1012  0.5185 -0.2602
 1982TIP3    H127581   2.544   1.281   1.278 -0.0640  0.5378 -0.2610
 1982TIP3    H227582   2.502   1.168   1.371  1.0214 -0.7851 -1.3308
 1983TIP3   OH227583   2.935   2.626   2.239 -0.3640  0.2360  0.5083
 1983TIP3    H127584   2.935   2.565   2.165  2.4686  0.1285  0.4955
 1983TIP3    H227585   2.882   2.582   2.305 -1.5359 -0.4528 -0.8191
 1984TIP3   OH227586   3.649   2.369   2.124 -0.1678 -0.4429 -0.0739
 1984TIP3    H127587   3.622   2.451   2.165  1.0927  0.8280 -1.6504
 1984TIP3    H227588   3.685   2.317   2.196 -0.4714  0.6118  0.8689
 1985TIP3   OH227589   2.685   4.294   0.691 -0.2704 -0.8509  0.0948
 1985TIP3    H127590   2.665   4.205   0.662  0.3352 -0.8825 -0.2472
 1985TIP3    H227591   2.752   4.324   0.630  1.4699 -1.1054  1.7850
 1986TIP3   OH227592   2.018   0.923   0.736 -0.5461  0.3451 -0.4321
 1986TIP3    H127593   1.944   0.867   0.759 -0.0278  0.1760  0.9074
 1986TIP3    H227594   2.038   0.899   0.645  0.0279 -2.0822  0.2578
 1987TIP3   OH227595   1.682   1.485   8.772 -0.6196  0.4260 -0.2877
 1987TIP3    H127596   1.703   1.412   8.830  0.8841  0.9830 -0.0931
 1987TIP3    H227597   1.600   1.459   8.729 -1.8717  0.0637  2.1548
 1988TIP3   OH227598   2.523   4.246   0.026 -0.4587 -0.3203  0.0645
 1988TIP3    H127599   2.441   4.295   0.033 -0.9685 -1.0042 -0.8169
 1988TIP3    H227600   2.587   4.298   0.073 -1.5526 -0.1104  1.3847
 1989TIP3   OH227601   0.575   2.758   1.722 -0.0386 -0.9617 -0.1835
 1989TIP3    H127602   0.647   2.795   1.671 -0.2597  1.9970  1.4105
 1989TIP3    H227603   0.534   2.695   1.663  2.8955 -1.6543 -1.6687
 1990TIP3   OH227604   4.697   0.268   2.336  0.4252 -0.2009  0.0718
 1990TIP3    H127605   4.607   0.239   2.352 -0.5645  0.7823 -2.9718
 1990TIP3    H227606   4.701   0.355   2.375  0.5695 -0.7776  1.4269
 1991TIP3   OH227607   1.574   1.419   8.248 -0.6219  0.3897  0.2482
 1991TIP3    H127608   1.557   1.389   8.159  1.5998  1.2362 -0.5244
 1991TIP3    H227609   1.539   1.508   8.251  1.0921  1.1337 -0.4899
 1992TIP3   OH227610   2.488   3.103   7.394  0.1203  0.2312 -0.2894
 1992TIP3    H127611   2.528   3.058   7.319 -0.0999 -1.1037  0.3660
 1992TIP3    H227612   2.507   3.046   7.468 -2.5615 -0.2224  0.1333
 1993TIP3   OH227613   1.682   3.352   8.225  0.0913 -0.2521  0.7231
 1993TIP3    H127614   1.647   3.266   8.247 -0.7939 -0.2344 -0.5683
 1993TIP3    H227615   1.776   3.337   8.213 -0.3247 -1.4727 -1.4665
 1994TIP3   OH227616   4.892   1.859   1.002  0.6997  0.3143 -0.5992
 1994TIP3    H127617   4.905   1.911   1.081  0.0829 -1.3536  0.6650
 1994TIP3    H227618   4.946   1.781   1.016 -0.7141 -0.7830 -1.0248
 1995TIP3   OH227619   6.793   3.429   8.431 -1.0037  0.2845 -0.4544
 1995TIP3    H127620   6.879   3.388   8.422 -0.4010  1.8335 -3.2316
 1995TIP3    H227621   6.731   3.363   8.401 -0.6623 -0.3638  0.2264
 1996TIP3   OH227622   4.378   4.182   1.606  0.4060  0.2374  0.2559
 1996TIP3    H127623   4.320   4.169   1.681  0.1066 -0.5183 -0.0839
 1996TIP3    H227624   4.385   4.277   1.597 -0.4511  0.3466  0.5653
 1997TIP3   OH227625   4.756   4.852   7.888  0.1234 -0.4093  0.4846
 1997TIP3    H127626   4.713   4.857   7.803 -3.0917  0.1624  2.0181
 1997TIP3    H227627   4.778   4.759   7.897  1.2209 -0.3724 -1.2087
 1998TIP3   OH227628   2.405   2.473   0.106 -0.4461  0.5100  0.3048
 1998TIP3    H127629   2.336   2.408   0.086  0.0929  0.6415 -2.4097
 1998TIP3    H227630   2.357   2.554   0.121 -1.0061  0.0071  1.3346
 1999TIP3   OH227631   0.440   3.984   8.202 -0.0293 -0.2008  0.3359
 1999TIP3    H127632   0.468   4.063   8.248  0.2616  0.2945 -0.6484
 1999TIP3    H227633   0.354   4.006   8.166  0.0082 -0.3606  0.1449
 2000TIP3   OH227634   1.759   5.149   7.490 -0.4164  0.0020  0.2906
 2000TIP3    H127635   1.826   5.095   7.447 -2.0320 -0.7971 -1.3843
 2000TIP3    H227636   1.682   5.093   7.492 -1.1421  1.0000  1.9092
 2001TIP3   OH227637   4.163   6.748   0.820  0.0723  0.0446 -0.1823
 2001TIP3    H127638   4.252   6.748   0.857 -0.6917  0.2134  1.7707
 2001TIP3    H227639   4.135   6.839   0.825  0.0997  0.1560 -1.6710
 2002TIP3   OH227640   5.201   3.764   2.095 -0.2305  0.2780  0.1583
 2002TIP3    H127641   5.142   3.791   2.166 -2.9914 -2.3178 -0.9279
 2002TIP3    H227642   5.184   3.828   2.026  0.5756  1.3171  0.8797
 2003TIP3   OH227643   1.607   3.036   7.026 -0.2993  0.1889  0.7279
 2003TIP3    H127644   1.636   2.957   6.981 -0.9066  0.9900 -1.1777
 2003TIP3    H227645   1.528   3.063   6.979  0.1427  2.1713  1.0090
 2004TIP3   OH227646   5.859   5.564   0.335  0.4275  0.0808 -0.2046
 2004TIP3    H127647   5.924   5.526   0.394  1.5883  0.4051 -1.2277
 2004TIP3    H227648   5.810   5.626   0.389 -0.6783 -1.8846  1.1767
 2005TIP3   OH227649   0.491   2.204   0.962 -0.0942  0.2296  0.2286
 2005TIP3    H127650   0.511   2.296   0.974  0.9079 -0.0720  0.9725
 2005TIP3    H227651   0.411   2.190   1.013 -1.4635  1.1126 -1.5550
 2006TIP3   OH227652   0.853   6.128   1.283 -1.1031 -0.1797  0.5067
 2006TIP3    H127653   0.847   6.180   1.203  0.5801 -1.2720 -0.3974
 2006TIP3    H227654   0.947   6.113   1.296 -1.3707 -0.6445  2.2926
 2007TIP3   OH227655   1.451   2.029   1.728 -0.0228  0.5153  0.4455
 2007TIP3    H127656   1.529   2.026   1.672  0.8784  2.2756  1.5016
 2007TIP3    H227657   1.486   2.040   1.817 -1.4205  3.5504  0.7345
 2008TIP3   OH227658   6.156   5.429   8.067 -0.1738  0.1341 -0.2627
 2008TIP3    H127659   6.239   5.441   8.022 -0.4334  3.0280 -0.1688
 2008TIP3    H227660   6.155   5.336   8.092  2.2174 -0.3691 -1.7449
 2009TIP3   OH227661   0.950   0.630   7.927  0.0665 -0.2722  0.1625
 2009TIP3    H127662   0.928   0.544   7.891 -2.1052  0.4997 -0.5424
 2009TIP3    H227663   0.933   0.622   8.021 -0.5020 -0.5170  0.0430
 2010TIP3   OH227664   5.494   0.088   2.100 -0.0038  0.0789 -0.1055
 2010TIP3    H127665   5.580   0.112   2.065  1.1525  0.6168  2.8694
 2010TIP3    H227666   5.453   0.172   2.123 -1.7704 -0.1019 -2.2338
 2011TIP3   OH227667   4.627   0.115   0.146 -0.1381  0.6085  0.2403
 2011TIP3    H127668   4.572   0.038   0.132  0.5092  0.2949 -0.7029
 2011TIP3    H227669   4.568   0.183   0.176 -1.1945  0.5462 -1.5947
 2012TIP3   OH227670   5.833   0.194   8.258 -0.1982 -0.3629 -0.2464
 2012TIP3    H127671   5.883   0.259   8.308  0.1495 -0.1614 -0.8481
 2012TIP3    H227672   5.772   0.246   8.206  0.0900 -0.5121 -0.7389
 2013TIP3   OH227673   3.300   0.773   7.816  0.0523  0.0595 -0.3265
 2013TIP3    H127674   3.309   0.856   7.864 -1.9112  0.8230 -1.1639
 2013TIP3    H227675   3.289   0.799   7.725  0.1593 -1.1694 -0.7044
 2014TIP3   OH227676   0.772   3.891   2.454  0.1067 -0.3534 -0.3500
 2014TIP3    H127677   0.766   3.830   2.381 -0.6343 -1.1331  0.3345
 2014TIP3    H227678   0.753   3.838   2.532 -2.9041  1.1084  0.0935
 2015TIP3   OH227679   6.334   6.536   0.743  0.0678 -0.0238 -0.3134
 2015TIP3    H127680   6.256   6.543   0.798  1.2408 -0.7021  1.5125
 2015TIP3    H227681   6.355   6.626   0.719  0.0910  0.3951  1.2026
 2016TIP3   OH227682   0.509   3.633   1.354 -0.0371  0.7151 -0.7319
 2016TIP3    H127683   0.476   3.719   1.329 -1.5972 -0.2266 -2.1100
 2016TIP3    H227684   0.435   3.574   1.340  0.6782 -0.7146  1.1661
 2017TIP3   OH227685   4.186   5.292   0.090  0.5739  0.0463 -0.2509
 2017TIP3    H127686   4.186   5.357   0.020 -3.3712  0.4387 -0.1464
 2017TIP3    H227687   4.195   5.344   0.170  1.0258  0.0668 -0.3162
 2018TIP3   OH227688   2.441   0.187   8.629 -0.1591  0.0409  0.4117
 2018TIP3    H127689   2.446   0.281   8.646 -0.5084 -0.0808  1.2434
 2018TIP3    H227690   2.417   0.180   8.536  2.0003  0.7402 -0.2506
 2019TIP3   OH227691   4.461   4.845   8.202  0.3643 -0.5093 -0.2086
 2019TIP3    H127692   4.387   4.892   8.240 -0.0900 -0.0383 -1.6086
 2019TIP3    H227693   4.522   4.832   8.275 -0.2463  0.7758  0.5626
 2020TIP3   OH227694   6.204   5.685   0.370 -0.6697  0.7767 -0.3063
 2020TIP3    H127695   6.195   5.640   0.286 -1.0819 -0.1075  0.2065
 2020TIP3    H227696   6.210   5.615   0.435  1.1091  1.4006  0.2849
 2021TIP3   OH227697   2.133   2.141   1.969 -0.8793  0.7684  0.5640
 2021TIP3    H127698   2.153   2.109   1.880  0.8249  0.4120  1.0273
 2021TIP3    H227699   2.044   2.110   1.986 -0.5525 -0.7759 -0.3243
 2022TIP3   OH227700   0.698   2.757   0.482  0.3430 -0.2740 -0.7990
 2022TIP3    H127701   0.715   2.697   0.554 -0.3951  2.7069  2.1224
 2022TIP3    H227702   0.773   2.818   0.484 -1.3022  1.8536 -0.1655
 2023TIP3   OH227703   4.830   0.592   0.868  0.2955  0.0899  0.0251
 2023TIP3    H127704   4.909   0.594   0.921  0.3554  1.5049 -0.0880
 2023TIP3    H227705   4.759   0.576   0.930  0.4000  1.3939  0.5097
 2024TIP3   OH227706   0.562   5.664   1.015 -0.2797  0.0075  0.0253
 2024TIP3    H127707   0.502   5.711   1.073 -1.0507 -1.0823  0.1497
 2024TIP3    H227708   0.522   5.672   0.928  0.3559  0.7974 -0.2089
 2025TIP3   OH227709   3.720   6.208   8.262  0.4445 -0.6577  0.8004
 2025TIP3    H127710   3.713   6.264   8.185 -0.4301 -0.0188  1.3240
 2025TIP3    H227711   3.810   6.175   8.259  0.1494 -1.4052 -0.9956
 2026TIP3   OH227712   3.402   4.202   1.181  0.4788 -0.2053  0.3161
 2026TIP3    H127713   3.318   4.208   1.135  1.8278 -0.9259 -2.4609
 2026TIP3    H227714   3.407   4.283   1.232 -0.4575  1.4991 -2.1001
 2027TIP3   OH227715   5.475   0.646   8.829 -0.0266 -0.1470 -0.0271
 2027TIP3    H127716   5.437   0.592   8.898 -0.5244  0.4919  0.2116
 2027TIP3    H227717   5.552   0.598   8.800 -0.1669 -0.7244  0.5400
 2028TIP3   OH227718   6.252   3.873   1.012  0.0204  0.0100 -0.3598
 2028TIP3    H127719   6.331   3.821   1.026 -1.2095 -2.1225 -0.8448
 2028TIP3    H227720   6.190   3.840   1.078 -0.4715  1.6788  0.0491
 2029TIP3   OH227721   5.854   5.393   7.652  0.1052  0.7374  0.2877
 2029TIP3    H127722   5.835   5.353   7.738 -1.1698 -2.0000 -1.1336
 2029TIP3    H227723   5.950   5.397   7.649  0.1813  0.5929  1.7180
 2030TIP3   OH227724   5.068   3.296   8.405  0.2570 -0.1777 -0.0062
 2030TIP3    H127725   5.020   3.213   8.412 -1.1505  0.5080 -1.0362
 2030TIP3    H227726   5.149   3.274   8.359  0.2766 -1.1109  0.4590
 2031TIP3   OH227727   2.522   5.954   8.071  0.5069  0.2178  0.1431
 2031TIP3    H127728   2.489   5.882   8.018  1.0419 -0.3323  0.5413
 2031TIP3    H227729   2.530   5.918   8.159  0.2114  0.9416  0.4703
 2032TIP3   OH227730   1.264   3.095   1.285  0.4995  0.0076 -0.5777
 2032TIP3    H127731   1.214   3.126   1.360 -0.6033  0.7358 -1.5598
 2032TIP3    H227732   1.341   3.054   1.322 -0.3034 -0.1761  0.9622
 2033TIP3   OH227733   1.610   5.213   8.071  0.2519 -0.6230  0.4257
 2033TIP3    H127734   1.574   5.124   8.073 -0.7240 -0.2650  2.9129
 2033TIP3    H227735   1.704   5.200   8.058  0.1162 -2.0182  0.6074
 2034TIP3   OH227736   1.957   0.650   0.092 -0.1351 -0.0833 -0.7806
 2034TIP3    H127737   1.971   0.556   0.103  2.0892  0.2585 -0.2536
 2034TIP3    H227738   1.880   0.669   0.145 -0.3933 -1.5336 -0.5913
 2035TIP3   OH227739   1.248   6.340   8.626  0.4135  0.1933  0.3602
 2035TIP3    H127740   1.259   6.268   8.564 -0.9296  0.1992  0.0858
 2035TIP3    H227741   1.154   6.346   8.640  0.6270  0.7046  1.8170
 2036TIP3   OH227742   0.282   6.161   7.831 -0.3288  0.2980  0.3071
 2036TIP3    H127743   0.270   6.206   7.748  0.4403  0.5784  0.3399
 2036TIP3    H227744   0.362   6.198   7.868  0.1304 -0.8345  0.5087
 2037TIP3   OH227745   0.539   3.480   0.252 -0.2707  0.0541  0.0268
 2037TIP3    H127746   0.571   3.569   0.267 -0.1951 -0.0144  0.2850
 2037TIP3    H227747   0.499   3.483   0.165 -0.0580  0.2819 -0.0671
 2038TIP3   OH227748   1.103   2.031   8.626  0.0578 -0.2375  0.3884
 2038TIP3    H127749   1.089   2.047   8.719  0.4898  1.9783  0.1440
 2038TIP3    H227750   1.047   2.096   8.582  0.4214 -0.7462 -0.8827
 2039TIP3   OH227751   1.692   3.998   2.523  0.0005 -0.4779 -0.0471
 2039TIP3    H127752   1.680   3.971   2.431  0.1154 -1.1434  0.1237
 2039TIP3    H227753   1.697   3.915   2.571 -2.1761 -0.1620  0.8470
 2040TIP3   OH227754   3.254   0.926   7.057  0.3348 -0.3691  0.6711
 2040TIP3    H127755   3.193   0.987   7.016  0.5399 -0.0412  0.8544
 2040TIP3    H227756   3.209   0.841   7.052  0.2805 -0.3041 -0.0701
 2041TIP3   OH227757   4.837   0.426   1.226 -0.9408 -0.5205 -0.4371
 2041TIP3    H127758   4.834   0.517   1.254  1.2187 -0.3240 -0.6107
 2041TIP3    H227759   4.884   0.381   1.296 -0.3813 -1.1177 -1.1748
 2042TIP3   OH227760   1.209   2.711   2.428  0.6255 -0.6520  0.3468
 2042TIP3    H127761   1.205   2.636   2.487 -0.3916 -0.2363  0.8147
 2042TIP3    H227762   1.250   2.676   2.348 -1.0923 -2.0768  0.0292
 2043TIP3   OH227763   2.377   4.164   2.554 -0.1753 -0.1131 -0.1848
 2043TIP3    H127764   2.408   4.215   2.629 -0.2009 -1.0354  0.4632
 2043TIP3    H227765   2.283   4.179   2.551 -0.8570 -2.9873  2.3122
 2044TIP3   OH227766   4.193   2.760   7.791 -0.2170 -0.0874 -0.0739
 2044TIP3    H127767   4.180   2.750   7.697 -2.3172  2.8933 -0.2500
 2044TIP3    H227768   4.109   2.736   7.830 -0.0821  0.8192  0.8098
 2045TIP3   OH227769   1.805   1.901   2.397  0.1395  0.2458 -0.2886
 2045TIP3    H127770   1.888   1.878   2.355  1.2804 -2.4322  3.0394
 2045TIP3    H227771   1.746   1.828   2.376  0.1926 -0.2697  1.2547
 2046TIP3   OH227772   4.215   4.265   0.177  0.0123 -0.3375 -0.0967
 2046TIP3    H127773   4.207   4.359   0.165 -0.5617 -0.2940  0.5795
 2046TIP3    H227774   4.158   4.227   0.110 -2.4021 -0.1195  1.7021
 2047TIP3   OH227775   2.346   0.945   6.832 -0.5292  0.6089  0.5373
 2047TIP3    H127776   2.302   0.923   6.914 -0.2412 -0.9620  0.2938
 2047TIP3    H227777   2.364   0.861   6.791  2.0006  1.2005  0.2669
 2048TIP3   OH227778   2.350   1.056   2.066  0.0011 -0.0563  0.4637
 2048TIP3    H127779   2.421   1.070   2.002 -0.0403  1.2202  0.6707
 2048TIP3    H227780   2.344   0.961   2.074 -0.0733 -0.2712 -1.5271
 2049TIP3   OH227781   4.363   4.255   2.186  0.0279  0.1057  0.0274
 2049TIP3    H127782   4.394   4.248   2.096  0.0964 -1.7140  0.1596
 2049TIP3    H227783   4.325   4.343   2.191 -0.3273  0.1064 -1.8800
 2050TIP3   OH227784   0.333   0.969   2.417  0.2888  0.1155  0.2332
 2050TIP3    H127785   0.363   0.890   2.371 -1.9384 -1.5432  1.4166
 2050TIP3    H227786   0.352   0.952   2.509 -3.4550 -0.8895  1.0238
 2051TIP3   OH227787   4.549   5.390   1.362 -0.0569  0.8115  0.0213
 2051TIP3    H127788   4.627   5.428   1.404  0.2913 -2.1804  2.5026
 2051TIP3    H227789   4.555   5.297   1.383 -1.6315 -0.4657 -4.2390
 2052TIP3   OH227790   5.052   0.424   0.382  0.3804  0.3149 -0.7534
 2052TIP3    H127791   5.010   0.431   0.296 -0.0442 -1.2486 -0.6967
 2052TIP3    H227792   5.059   0.330   0.398  1.7032  0.5733  0.3299
 2053TIP3   OH227793   0.886   5.476   8.738  0.1800 -0.7790  0.2002
 2053TIP3    H127794   0.914   5.513   8.655 -1.1110 -0.2402 -0.0216
 2053TIP3    H227795   0.790   5.475   8.733  0.1071 -1.8611  1.1945
 2054TIP3   OH227796   6.531   5.866   8.306 -0.3543  0.0634  0.1736
 2054TIP3    H127797   6.531   5.842   8.213 -1.6442  1.1936 -0.1397
 2054TIP3    H227798   6.619   5.844   8.336 -0.3809 -1.7370 -0.9273
 2055TIP3   OH227799   3.594   2.908   7.620  0.0791  0.4778 -0.6559
 2055TIP3    H127800   3.505   2.872   7.623 -0.5274  1.9239 -0.5876
 2055TIP3    H227801   3.619   2.901   7.528 -0.6680  1.3450 -0.9344
 2056TIP3   OH227802   2.221   5.462   1.773 -0.5752 -0.4345 -0.4125
 2056TIP3    H127803   2.231   5.420   1.858  0.3798 -0.7483 -0.6596
 2056TIP3    H227804   2.311   5.468   1.739 -1.0210 -1.1722 -1.8066
 2057TIP3   OH227805   2.634   1.310   8.488 -0.5110  0.6252 -0.6611
 2057TIP3    H127806   2.584   1.382   8.527 -0.4832  0.3454 -0.1015
 2057TIP3    H227807   2.720   1.348   8.469 -0.1228  0.4592  0.6575
 2058TIP3   OH227808   4.774   1.617   8.677  0.1725  0.3962  0.1522
 2058TIP3    H127809   4.736   1.540   8.718  1.2014  0.4484  1.2551
 2058TIP3    H227810   4.830   1.582   8.607  0.3048  0.1569  0.3755
 2059TIP3   OH227811   4.596   6.531   7.300 -0.5122 -0.3503 -0.0183
 2059TIP3    H127812   4.686   6.544   7.328 -0.7870  1.4324  0.1652
 2059TIP3    H227813   4.601   6.468   7.228  0.8988 -0.0753 -0.1744
 2060TIP3   OH227814   4.288   6.744   1.531  0.1481  0.2094 -0.2190
 2060TIP3    H127815   4.248   6.827   1.554  0.0353  0.1074 -0.0433
 2060TIP3    H227816   4.328   6.759   1.445  1.6604  0.9737  0.5729
 2061TIP3   OH227817   2.448   5.335   2.209  0.1492 -0.3477 -0.3745
 2061TIP3    H127818   2.371   5.365   2.258 -1.1825 -1.6694 -1.5697
 2061TIP3    H227819   2.507   5.301   2.277 -0.2433  0.7885  0.5710
 2062TIP3   OH227820   1.932   3.139   0.293 -0.5947  0.0392  0.1253
 2062TIP3    H127821   1.941   3.222   0.341  0.9463 -1.0477  1.8842
 2062TIP3    H227822   1.838   3.124   0.288 -0.8760  1.5179  0.4276
 2063TIP3   OH227823   5.578   6.813   8.350  1.1414  0.1952  0.0693
 2063TIP3    H127824   5.616   6.773   8.429 -0.9199 -0.8592  0.5792
 2063TIP3    H227825   5.545   6.898   8.381 -1.9901 -1.2655  1.0753
 2064TIP3   OH227826   1.725   5.592   7.587  0.1030 -0.1123  0.1265
 2064TIP3    H127827   1.788   5.543   7.534 -0.9933  0.0823 -1.4154
 2064TIP3    H227828   1.754   5.579   7.677  3.1073  0.9883 -0.5617
 2065TIP3   OH227829   6.008   3.127   7.843  0.1920  0.0870 -0.1396
 2065TIP3    H127830   5.938   3.099   7.903 -0.5051  0.7726 -0.6047
 2065TIP3    H227831   6.005   3.063   7.772 -1.4445  1.2598 -1.2339
 2066TIP3   OH227832   4.317   3.658   1.221  0.1188 -0.3398  0.0384
 2066TIP3    H127833   4.303   3.657   1.315  0.4463  2.7067  0.2310
 2066TIP3    H227834   4.402   3.701   1.210  0.2881 -1.0167 -1.6437
 2067TIP3   OH227835   1.960   1.787   2.066  0.4185  0.0791 -0.1670
 2067TIP3    H127836   1.948   1.728   2.141  0.8459  0.6959  0.3965
 2067TIP3    H227837   2.037   1.754   2.021 -0.6856 -1.1969 -1.2237
 2068TIP3   OH227838   3.531   2.616   0.379  0.0323  0.2659 -0.4907
 2068TIP3    H127839   3.544   2.557   0.304 -1.9982 -0.2169 -0.5380
 2068TIP3    H227840   3.442   2.650   0.367 -0.7860 -0.6355  2.2315
 2069TIP3   OH227841   3.096   4.449   2.101  0.0698  0.3371 -0.1407
 2069TIP3    H127842   3.019   4.419   2.053 -0.3772 -0.0457  0.8088
 2069TIP3    H227843   3.071   4.534   2.137 -0.7766 -0.8232  2.1500
 2070TIP3   OH227844   3.892   1.040   7.071 -0.2072 -0.3346 -0.0183
 2070TIP3    H127845   3.893   1.066   6.979 -1.7447  2.4246  0.6270
 2070TIP3    H227846   3.810   0.990   7.081  1.0652 -2.6653 -0.5328
 2071TIP3   OH227847   3.171   0.908   0.201  0.6456 -0.2340 -0.5421
 2071TIP3    H127848   3.089   0.951   0.227  0.0137 -1.8698  0.3205
 2071TIP3    H227849   3.229   0.920   0.276  0.3787 -1.0596 -0.1907
 2072TIP3   OH227850   6.131   0.550   1.401  0.4508 -0.1382 -0.0392
 2072TIP3    H127851   6.037   0.534   1.401  0.5680 -0.8502 -0.4860
 2072TIP3    H227852   6.139   0.642   1.425 -0.2462 -0.6508  2.3800
 2073TIP3   OH227853   1.629   1.902   1.123 -0.3534  0.5205  0.0149
 2073TIP3    H127854   1.570   1.826   1.127 -0.6832  0.8228  1.4338
 2073TIP3    H227855   1.713   1.865   1.096 -0.2308 -0.5638  1.6848
 2074TIP3   OH227856   3.341   3.788   8.363  0.3256  0.3227 -0.1099
 2074TIP3    H127857   3.360   3.865   8.416  1.1207 -1.1425  1.8387
 2074TIP3    H227858   3.245   3.785   8.358  0.2709  1.0279  0.4374
 2075TIP3   OH227859   6.047   0.890   6.801 -0.3073  0.2346 -0.1906
 2075TIP3    H127860   6.064   0.799   6.776 -0.6228  0.5034 -1.4737
 2075TIP3    H227861   6.134   0.930   6.806 -0.0667 -0.4360  1.7204
 2076TIP3   OH227862   5.444   0.677   0.411 -0.4983 -0.7622 -0.0874
 2076TIP3    H127863   5.404   0.703   0.328 -2.3284  1.4815  1.3464
 2076TIP3    H227864   5.377   0.623   0.454 -1.3809  1.4335  1.5247
 2077TIP3   OH227865   6.823   1.528   2.441 -0.1124  0.8176 -0.1935
 2077TIP3    H127866   6.794   1.598   2.500 -0.2547  0.8815 -0.3384
 2077TIP3    H227867   6.885   1.571   2.382  0.5260  0.6113  0.3174
 2078TIP3   OH227868   3.008   1.521   2.163  0.3959  0.3481 -0.1607
 2078TIP3    H127869   3.022   1.513   2.069  1.0960  0.5876 -0.0811
 2078TIP3    H227870   3.013   1.615   2.181  0.5093  0.2868  0.1454
 2079TIP3   OH227871   2.589   0.091   7.648 -0.2295 -0.5176 -0.1982
 2079TIP3    H127872   2.613   0.152   7.578 -0.1744 -0.5624 -0.2190
 2079TIP3    H227873   2.503   0.121   7.678 -1.4242 -1.9416 -1.9507
 2080TIP3   OH227874   5.718   6.124   2.235  0.4091 -0.3186 -0.0175
 2080TIP3    H127875   5.689   6.075   2.311  1.8208 -0.9099  0.1611
 2080TIP3    H227876   5.686   6.213   2.250  1.5731 -0.1684  1.7895
 2081TIP3   OH227877   1.711   6.390   7.652  0.5580 -0.1713  0.5691
 2081TIP3    H127878   1.768   6.377   7.577  0.3384  0.7814  0.2172
 2081TIP3    H227879   1.654   6.464   7.627  0.6556  0.3342  1.7473
 2082TIP3   OH227880   1.215   2.051   0.272  0.1632  0.2983  0.2310
 2082TIP3    H127881   1.302   2.022   0.244  0.1011  1.3112 -1.1234
 2082TIP3    H227882   1.211   2.143   0.246 -0.7784  0.6754  1.6172
 2083TIP3   OH227883   6.268   1.542   8.714  0.1197 -0.2375  0.0605
 2083TIP3    H127884   6.291   1.456   8.750  0.3922 -0.7366 -1.2400
 2083TIP3    H227885   6.334   1.601   8.751  0.5083 -0.7605  0.2183
 2084TIP3   OH227886   5.094   6.065   7.624  0.0547  0.6929  0.1726
 2084TIP3    H127887   5.003   6.084   7.603 -0.3819  0.2490  1.5732
 2084TIP3    H227888   5.143   6.137   7.586 -0.7685  0.4330 -1.4634
 2085TIP3   OH227889   4.626   6.555   0.344  0.3097 -0.0201  0.1826
 2085TIP3    H127890   4.582   6.513   0.418 -2.0978  1.3772 -0.3540
 2085TIP3    H227891   4.662   6.636   0.381 -0.2065  0.2942  0.0044
 2086TIP3   OH227892   4.023   2.282   0.007 -0.4719 -0.2212 -0.5394
 2086TIP3    H127893   3.971   2.342  -0.046 -1.1387 -0.6746 -0.4032
 2086TIP3    H227894   4.016   2.317   0.096  0.1043  0.1618 -0.6390
 2087TIP3   OH227895   0.232   2.744   1.573  0.4874 -0.0931  0.4279
 2087TIP3    H127896   0.200   2.823   1.531 -2.8302 -1.0172  0.9482
 2087TIP3    H227897   0.255   2.686   1.500  1.5203  0.7587  0.0433
 2088TIP3   OH227898   1.741   4.462   6.702  0.4660  0.1242  0.2334
 2088TIP3    H127899   1.808   4.518   6.742  1.3056 -0.5260 -0.2210
 2088TIP3    H227900   1.670   4.521   6.679  0.7221  0.7760  1.0737
 2089TIP3   OH227901   3.940   1.503   0.629 -0.2904  0.1598 -0.2965
 2089TIP3    H127902   3.868   1.548   0.584  0.8175 -0.1933 -2.5997
 2089TIP3    H227903   3.951   1.550   0.711 -2.1152  1.1851 -0.5924
 2090TIP3   OH227904   2.478   2.205   8.358  0.1285 -0.4418  0.5669
 2090TIP3    H127905   2.522   2.122   8.342  0.1058 -0.3893  0.2234
 2090TIP3    H227906   2.390   2.194   8.321 -0.1304 -0.5243  1.1917
 2091TIP3   OH227907   6.268   4.497   0.822  0.2641  0.0252 -0.5083
 2091TIP3    H127908   6.294   4.589   0.823 -2.4018  0.8517  0.1181
 2091TIP3    H227909   6.221   4.486   0.739 -0.2972 -0.4868 -0.1331
 2092TIP3   OH227910   5.299   0.129   7.322  0.6260  0.5384 -0.2467
 2092TIP3    H127911   5.348   0.089   7.250  1.1535 -0.9710  0.8961
 2092TIP3    H227912   5.214   0.083   7.322 -0.4517  2.4105 -1.5571
 2093TIP3   OH227913   4.145   2.452   2.171  0.1042  0.6570 -0.0359
 2093TIP3    H127914   4.055   2.419   2.171  0.0428  0.7772 -1.1903
 2093TIP3    H227915   4.176   2.438   2.261 -1.2193  1.0738  0.5045
 2094TIP3   OH227916   3.803   5.341   8.505 -0.1697 -0.7230 -0.4288
 2094TIP3    H127917   3.875   5.296   8.460  1.2372  0.0096  0.9646
 2094TIP3    H227918   3.834   5.430   8.516 -1.0629 -0.5317  0.7070
 2095TIP3   OH227919   1.242   0.045   1.146 -0.1813  0.4413 -0.2829
 2095TIP3    H127920   1.180   0.109   1.111 -1.1716  0.3375  1.1641
 2095TIP3    H227921   1.325   0.065   1.102 -0.9933  1.2544 -1.5070
 2096TIP3   OH227922   0.578   6.203   1.806 -0.3336  0.2830  0.0793
 2096TIP3    H127923   0.574   6.108   1.797  0.5596  0.3093 -0.6764
 2096TIP3    H227924   0.551   6.220   1.896 -0.6939 -0.6704  0.1555
 2097TIP3   OH227925   5.607   3.041   8.741 -0.1195 -0.3939  0.4339
 2097TIP3    H127926   5.512   3.046   8.755 -0.3424  0.7646 -1.1672
 2097TIP3    H227927   5.618   2.967   8.681 -0.1693  0.2385 -0.3737
 2098TIP3   OH227928   4.894   4.662   7.504  0.5257 -0.1261 -0.4491
 2098TIP3    H127929   4.874   4.605   7.579 -0.1186  0.7107  0.0402
 2098TIP3    H227930   4.989   4.665   7.502  0.5690  0.4706  0.8738
 2099TIP3   OH227931   5.737   1.020   7.596 -0.4053 -0.3784  0.6084
 2099TIP3    H127932   5.668   0.972   7.549  1.9021 -1.9490 -1.4725
 2099TIP3    H227933   5.719   1.112   7.577 -1.6257 -0.7674 -0.2866
 2100TIP3   OH227934   1.848   6.826   0.590 -0.0539 -0.7452  0.1863
 2100TIP3    H127935   1.875   6.763   0.657  2.2288  0.2006  0.2514
 2100TIP3    H227936   1.834   6.773   0.511 -0.8517 -1.6219  0.8843
 2101TIP3   OH227937   3.927   4.568   7.636  0.1995  0.1656 -0.1816
 2101TIP3    H127938   3.857   4.525   7.588  1.4169 -0.4842 -1.4766
 2101TIP3    H227939   3.973   4.497   7.680 -0.6466  0.7131  1.6831
 2102TIP3   OH227940   6.590   2.612   2.403 -0.4289 -0.3990 -0.3784
 2102TIP3    H127941   6.539   2.616   2.483 -0.8866 -2.5959 -0.5168
 2102TIP3    H227942   6.666   2.669   2.420 -0.8155 -0.3642  1.3651
 2103TIP3   OH227943   2.594   2.461   1.662  0.4939  0.0023  0.4206
 2103TIP3    H127944   2.505   2.446   1.632  0.7793  0.0011 -0.4486
 2103TIP3    H227945   2.585   2.517   1.739 -0.2641 -0.2180  0.4966
 2104TIP3   OH227946   0.162   0.037   8.825  0.0881  0.4284  0.5444
 2104TIP3    H127947   0.238  -0.012   8.793  0.9404  0.4994  2.3598
 2104TIP3    H227948   0.184   0.060   8.915 -2.3395 -0.0385  1.3255
 2105TIP3   OH227949   4.422   1.871   8.303 -0.4533 -0.0413 -0.6020
 2105TIP3    H127950   4.498   1.818   8.279  0.8951  2.0980 -1.2950
 2105TIP3    H227951   4.367   1.869   8.224 -0.7870 -0.9383 -0.3708
 2106TIP3   OH227952   6.590   2.260   8.029  0.6277  0.2633  0.2953
 2106TIP3    H127953   6.535   2.294   7.959  0.8405  0.4723  0.2280
 2106TIP3    H227954   6.541   2.277   8.109  0.8255  0.9148  0.2808
 2107TIP3   OH227955   6.827   5.458   2.307 -0.6960 -0.3125  0.3828
 2107TIP3    H127956   6.812   5.415   2.391  1.6398  1.4406  1.8154
 2107TIP3    H227957   6.920   5.446   2.290 -0.9029  0.3123 -1.4402
 2108TIP3   OH227958   3.515   5.985   8.150  0.2580 -0.6716 -1.1268
 2108TIP3    H127959   3.532   5.992   8.244  2.3498 -2.1246 -1.3118
 2108TIP3    H227960   3.530   6.073   8.115  1.2140 -0.5015 -0.3165
 2109TIP3   OH227961   3.282   5.463   7.837  0.1714  0.7407 -0.0649
 2109TIP3    H127962   3.200   5.504   7.810  0.3523  2.6793  2.0424
 2109TIP3    H227963   3.347   5.495   7.774 -0.2102  1.4152 -0.1202
 2110TIP3   OH227964   0.066   6.323   7.939  0.5513  0.0037  0.4615
 2110TIP3    H127965   0.072   6.328   8.034 -0.5924  0.3493  0.5372
 2110TIP3    H227966   0.152   6.295   7.910  1.6511  2.1293  1.4460
 2111TIP3   OH227967   0.682   2.295   0.023 -0.4646  0.3301 -0.1809
 2111TIP3    H127968   0.715   2.339   0.101  0.3918 -0.7827  0.1144
 2111TIP3    H227969   0.624   2.227   0.056  1.7709 -1.7695 -0.2807
 2112TIP3   OH227970   3.484   1.563   8.140  0.1581  0.3463 -0.0491
 2112TIP3    H127971   3.435   1.509   8.077 -1.0174  1.1978  0.0980
 2112TIP3    H227972   3.451   1.535   8.225 -0.4872  1.2957  0.0243
 2113TIP3   OH227973   4.211   2.693   0.855  0.1893  0.0192 -0.1455
 2113TIP3    H127974   4.242   2.621   0.800 -0.6119 -1.4103  1.1674
 2113TIP3    H227975   4.276   2.700   0.925  0.7609  1.2467 -0.7745
 2114TIP3   OH227976   3.870   6.774   1.842 -0.3830 -0.3728  0.1638
 2114TIP3    H127977   3.815   6.696   1.847 -0.8234 -0.0868 -0.2028
 2114TIP3    H227978   3.871   6.797   1.749  1.0206 -0.8459  0.0304
 2115TIP3   OH227979   1.803   6.645   0.379 -0.1863  0.5110 -0.7973
 2115TIP3    H127980   1.808   6.551   0.391  1.2112  0.8147  1.7294
 2115TIP3    H227981   1.853   6.662   0.299  2.0134 -0.7038  0.2338
 2116TIP3   OH227982   3.735   1.489   1.061 -0.5457 -0.0397  0.4835
 2116TIP3    H127983   3.695   1.452   0.983 -0.2592  0.4275  0.1075
 2116TIP3    H227984   3.670   1.551   1.094 -0.1017  0.8269 -0.2093
 2117TIP3   OH227985   6.396   5.343   8.686  0.0588  0.6515  0.8019
 2117TIP3    H127986   6.365   5.283   8.754  1.8107 -0.8519  0.3779
 2117TIP3    H227987   6.366   5.302   8.604 -2.0247  2.4341  0.6040
 2118TIP3   OH227988   2.762   2.645   0.763  0.2005  0.0621  0.4937
 2118TIP3    H127989   2.858   2.635   0.761  0.1345 -0.5346 -1.0797
 2118TIP3    H227990   2.731   2.590   0.691 -1.3960 -0.3384  1.4401
 2119TIP3   OH227991   3.409   4.451   2.064 -0.2230 -0.2794  0.3421
 2119TIP3    H127992   3.495   4.472   2.026 -1.3727 -0.8397 -2.8685
 2119TIP3    H227993   3.360   4.533   2.058  0.0772  0.1138  2.4268
 2120TIP3   OH227994   5.690   1.618   8.785 -0.2982  0.3148 -0.3776
 2120TIP3    H127995   5.766   1.591   8.837 -1.6769 -0.2010  1.4925
 2120TIP3    H227996   5.726   1.642   8.700  2.0618  0.8757  0.6931
 2121TIP3   OH227997   4.535   3.946   0.372  0.1045 -0.1576 -0.1824
 2121TIP3    H127998   4.443   3.955   0.348  0.8436  4.4177 -2.4233
 2121TIP3    H227999   4.576   3.906   0.295  0.3353  0.2711 -0.2852
 2122TIP3   OH228000   5.689   3.653   6.958  0.8078  0.2292  0.1603
 2122TIP3    H128001   5.683   3.573   6.905  0.5111 -0.4993  1.2553
 2122TIP3    H228002   5.700   3.723   6.894 -1.9081 -0.3102 -1.0539
 2123TIP3   OH228003   4.104   5.521   0.571  0.5991  0.0743  0.0568
 2123TIP3    H128004   4.011   5.519   0.595  0.3976 -1.3178 -0.7423
 2123TIP3    H228005   4.149   5.545   0.652 -0.2955 -1.6776  1.1378
 2124TIP3   OH228006   5.413   3.359   2.947  0.7434  0.3915  0.2903
 2124TIP3    H128007   5.339   3.301   2.929 -0.8923  2.4655 -0.0727
 2124TIP3    H228008   5.385   3.444   2.915  2.6911  1.6032  1.5830
 2125TIP3   OH228009   5.028   4.151   8.198 -0.6933  0.0196  0.1087
 2125TIP3    H128010   5.103   4.094   8.213 -0.8338  0.1557  1.4526
 2125TIP3    H228011   4.960   4.118   8.258 -1.0695  1.0414  0.2741
 2126TIP3   OH228012   6.376   4.764   2.178 -0.3973 -0.3302  0.5862
 2126TIP3    H128013   6.324   4.690   2.210  0.1375  0.0328  2.3845
 2126TIP3    H228014   6.411   4.734   2.094 -0.8627 -1.8069  0.8929
 2127TIP3   OH228015   0.884   3.482   1.089  0.3319 -0.7292  0.0470
 2127TIP3    H128016   0.904   3.561   1.039 -0.0879 -0.3998  0.3949
 2127TIP3    H228017   0.793   3.463   1.068  1.1290 -2.6598 -2.1288
 2128TIP3   OH228018   4.411   2.547   2.096  0.7053  0.3312  0.3395
 2128TIP3    H128019   4.426   2.479   2.162  1.3524  0.4346  0.3073
 2128TIP3    H228020   4.316   2.559   2.095  0.4564 -1.4116 -0.5112
 2129TIP3   OH228021   2.483   5.460   7.555  0.3598 -0.0149 -0.2938
 2129TIP3    H128022   2.454   5.468   7.464  1.7164 -0.8689 -0.8218
 2129TIP3    H228023   2.561   5.405   7.551  0.7377  0.3530  1.3387
 2130TIP3   OH228024   4.277   3.827   8.104  0.2558 -0.1246  0.1021
 2130TIP3    H128025   4.346   3.860   8.161  0.7814 -2.0542  0.6776
 2130TIP3    H228026   4.319   3.813   8.019 -0.0807  1.0646 -0.2736
 2131TIP3   OH228027   0.628   0.947   8.078  0.3079  0.5813  0.3607
 2131TIP3    H128028   0.590   0.932   7.991  2.7338  2.4976 -1.1762
 2131TIP3    H228029   0.671   0.865   8.100  0.2023  0.2665 -0.5746
 2132TIP3   OH228030   4.632   1.928   2.183  0.2691  0.1078 -0.0065
 2132TIP3    H128031   4.692   1.974   2.242  2.5246  0.9197 -2.7118
 2132TIP3    H228032   4.662   1.838   2.184  0.0595  0.0380  0.3259
 2133TIP3   OH228033   6.234   5.377   2.026 -0.7173  0.1784  0.0593
 2133TIP3    H128034   6.329   5.382   2.038 -0.6547  2.6457 -0.8777
 2133TIP3    H228035   6.200   5.347   2.111  0.9999 -3.7668 -0.4291
 2134TIP3   OH228036   0.307   3.106   8.070 -0.2887 -0.7991  0.3237
 2134TIP3    H128037   0.282   3.014   8.060 -0.8774 -0.5493 -0.5826
 2134TIP3    H228038   0.348   3.129   7.987 -0.4959 -0.1276  0.4021
 2135TIP3   OH228039   2.500   3.128   8.660 -0.6727  0.4483 -0.2886
 2135TIP3    H128040   2.456   3.090   8.736 -0.2310  1.5887  0.5767
 2135TIP3    H228041   2.440   3.195   8.628 -2.2126 -2.0100 -2.8554
 2136TIP3   OH228042   2.003   6.483   0.997 -0.2814  0.1433  0.1878
 2136TIP3    H128043   2.008   6.405   1.052 -2.0871 -1.0679 -1.2262
 2136TIP3    H228044   1.910   6.491   0.976 -0.2805  3.1977  0.9200
 2137TIP3   OH228045   6.413   1.676   0.072  0.3766  0.0932 -0.0163
 2137TIP3    H128046   6.455   1.761   0.063 -0.8529  0.8730  1.2769
 2137TIP3    H228047   6.479   1.621   0.115  0.4329  1.0193  1.1176
 2138TIP3   OH228048   4.932   4.449   7.695 -0.2498 -0.6686 -0.0551
 2138TIP3    H128049   4.939   4.496   7.778 -0.7294  0.9681 -0.9019
 2138TIP3    H228050   4.990   4.373   7.705 -0.2159 -0.4496  1.7173
 2139TIP3   OH228051   0.363   0.163   6.939  0.0234  0.0282 -0.3432
 2139TIP3    H128052   0.347   0.098   7.008 -1.1125 -0.6427 -1.2000
 2139TIP3    H228053   0.302   0.234   6.958  0.8851  0.6271  0.2794
 2140TIP3   OH228054   3.009   0.681   7.850  0.1305 -0.4984  0.7152
 2140TIP3    H128055   3.073   0.722   7.793  0.7521 -1.7035  0.5087
 2140TIP3    H228056   3.010   0.734   7.930 -0.4334  0.9473 -0.2065
 2141TIP3   OH228057   0.477   1.338   7.536 -0.1617 -0.1850 -0.4822
 2141TIP3    H128058   0.558   1.288   7.550 -0.5715 -1.0162 -0.9436
 2141TIP3    H228059   0.491   1.383   7.453  0.2229  0.4958 -0.0488
 2142TIP3   OH228060   5.732   5.866   2.143  0.0581  0.1492 -0.5966
 2142TIP3    H128061   5.823   5.860   2.116  0.0818  0.8841 -0.6913
 2142TIP3    H228062   5.710   5.959   2.136  0.2031  0.5073  2.4005
 2143TIP3   OH228063   3.837   3.124   0.741 -0.2654 -0.2505 -0.1265
 2143TIP3    H128064   3.749   3.088   0.745  0.0708 -1.0670  0.0156
 2143TIP3    H228065   3.871   3.115   0.830 -0.4619  1.1903  0.1306
 2144TIP3   OH228066   2.012   0.788   7.051  0.3306 -0.0934  0.7537
 2144TIP3    H128067   1.918   0.775   7.041  0.4800 -2.0147  1.4772
 2144TIP3    H228068   2.051   0.716   7.001  1.4931  1.5614 -0.8463
 2145TIP3   OH228069   5.737   4.989   7.705  0.2459  0.2434 -0.1300
 2145TIP3    H128070   5.680   5.036   7.766  1.7172  0.7689  0.9032
 2145TIP3    H228071   5.751   5.051   7.633 -1.7064 -0.4738 -1.2150
 2146TIP3   OH228072   1.331   5.829   8.282  0.0529 -0.0912 -0.7923
 2146TIP3    H128073   1.406   5.860   8.332  1.1823 -0.3576 -2.2688
 2146TIP3    H228074   1.335   5.734   8.289 -0.1944 -0.1055 -0.8302
 2147TIP3   OH228075   6.806   5.031   2.055  0.3580 -0.2059  0.0825
 2147TIP3    H128076   6.889   5.073   2.033 -0.3565  0.3005 -1.8445
 2147TIP3    H228077   6.749   5.102   2.083 -0.7501  0.2006 -2.8656
 2148TIP3   OH228078   6.247   3.041   0.746 -0.0338 -0.1894  0.0266
 2148TIP3    H128079   6.235   3.132   0.773  0.6265 -0.3333  0.8568
 2148TIP3    H228080   6.178   3.026   0.682  2.2899  2.1400 -3.3691
 2149TIP3   OH228081   4.861   5.781   0.169  1.2564  0.0278 -0.0239
 2149TIP3    H128082   4.812   5.823   0.098  0.0756 -0.0889  0.6845
 2149TIP3    H228083   4.888   5.853   0.226  0.5011 -0.0196  0.4172
 2150TIP3   OH228084   0.825   0.322   0.027  0.2259 -0.1785 -0.4527
 2150TIP3    H128085   0.810   0.241   0.077  0.2740  0.8912  1.3604
 2150TIP3    H228086   0.908   0.306  -0.018  0.0479 -1.2797 -0.4250
 2151TIP3   OH228087   4.655   1.457   2.816 -0.4792  0.0907 -0.4923
 2151TIP3    H128088   4.630   1.440   2.725  0.0227  0.6021 -0.7346
 2151TIP3    H228089   4.589   1.411   2.868 -0.8834 -0.0490 -1.1119
 2152TIP3   OH228090   6.681   2.410   0.659 -0.5729  0.1855 -0.8106
 2152TIP3    H128091   6.606   2.372   0.705 -0.8715  0.8672 -0.7206
 2152TIP3    H228092   6.643   2.450   0.581  0.2174 -3.2182 -3.1285
 2153TIP3   OH228093   4.400   1.862   7.556 -0.4247 -0.2613  0.2300
 2153TIP3    H128094   4.369   1.937   7.606 -1.5652 -1.7891  1.9237
 2153TIP3    H228095   4.368   1.786   7.604  0.1620 -1.8477 -1.7584
 2154TIP3   OH228096   2.020   0.714   7.429 -0.4568  0.4486  0.0260
 2154TIP3    H128097   1.983   0.640   7.382 -3.4626  0.5874  1.9246
 2154TIP3    H228098   1.956   0.785   7.417  0.5293  1.6072  1.2334
 2155TIP3   OH228099   3.484   6.722   7.024 -0.1146  0.0982 -0.3850
 2155TIP3    H128100   3.487   6.781   6.949 -1.6988  1.4761  0.5615
 2155TIP3    H228101   3.397   6.682   7.020  0.2327 -0.7464  0.0603
 2156TIP3   OH228102   1.579   5.656   8.617  0.0386  0.1497  0.0486
 2156TIP3    H128103   1.648   5.598   8.651  1.1947  1.1007 -0.5860
 2156TIP3    H228104   1.584   5.645   8.522  1.1700  2.1839 -0.1899
 2157TIP3   OH228105   0.730   3.340   7.451 -0.0348 -0.3046  0.3622
 2157TIP3    H128106   0.687   3.335   7.366 -0.5143  1.2280  0.4892
 2157TIP3    H228107   0.808   3.394   7.436  0.2376 -0.5782  0.7573
 2158TIP3   OH228108   0.319   1.338   8.780 -0.7246  0.3570 -0.1283
 2158TIP3    H128109   0.315   1.410   8.717 -2.2076 -0.3158 -0.8458
 2158TIP3    H228110   0.229   1.308   8.788 -0.8610  1.2701  3.3741
 2159TIP3   OH228111   3.085   0.747   7.290  0.3071  0.2560 -0.4464
 2159TIP3    H128112   3.090   0.720   7.198  1.3049 -1.5060  0.0675
 2159TIP3    H228113   2.991   0.758   7.306  0.0860  0.1649 -1.5672
 2160TIP3   OH228114   1.762   1.717   6.771  0.0226 -0.3167  0.4454
 2160TIP3    H128115   1.850   1.740   6.799 -0.1414 -0.2102  0.8904
 2160TIP3    H228116   1.767   1.712   6.676  0.3939  0.1675  0.4372
 2161TIP3   OH228117   4.802   3.732   7.612 -0.3605  0.3666 -0.8431
 2161TIP3    H128118   4.790   3.725   7.707  0.4812 -1.3175 -0.8235
 2161TIP3    H228119   4.769   3.819   7.590 -1.9910  0.2133  0.7666
 2162TIP3   OH228120   6.284   0.248   8.767  0.5792  0.1460  0.7936
 2162TIP3    H128121   6.241   0.220   8.848  0.9623  0.9148  1.2659
 2162TIP3    H228122   6.364   0.196   8.763 -0.5686 -1.6966 -0.3649
 2163TIP3   OH228123   1.480   6.503   2.257 -0.1401 -0.2485  0.3157
 2163TIP3    H128124   1.508   6.454   2.180 -0.3081  1.3415 -0.8069
 2163TIP3    H228125   1.528   6.462   2.330  1.2330 -0.8114 -0.8476
 2164TIP3   OH228126   3.048   1.588   0.211 -0.3329  0.5490  0.3250
 2164TIP3    H128127   3.023   1.671   0.170 -1.1904  0.9355  1.5693
 2164TIP3    H228128   3.063   1.529   0.137  2.2894  2.2994 -0.6793
 2165TIP3   OH228129   0.446   4.532   1.650 -0.1667 -0.2141  0.4832
 2165TIP3    H128130   0.362   4.528   1.604  0.3002 -0.7620 -0.3408
 2165TIP3    H228131   0.435   4.471   1.723 -0.2997 -0.7048  0.0588
 2166TIP3   OH228132   5.961   2.553   1.650 -0.2255  0.4283 -0.0462
 2166TIP3    H128133   6.037   2.496   1.666 -0.8631 -0.1555  1.0530
 2166TIP3    H228134   5.918   2.514   1.574 -0.2465 -0.1402  0.2479
 2167TIP3   OH228135   3.328   2.037   2.709 -0.4815  0.2049 -0.3807
 2167TIP3    H128136   3.361   2.088   2.783 -3.6227  3.2995 -0.8202
 2167TIP3    H228137   3.367   2.078   2.632 -0.9038  0.1816 -0.6130
 2168TIP3   OH228138   5.438   4.159   2.187  0.2394  0.0314  0.5089
 2168TIP3    H128139   5.380   4.235   2.189  0.4613  0.1810  2.2988
 2168TIP3    H228140   5.522   4.193   2.155 -0.1158  0.1807 -0.3013
 2169TIP3   OH228141   6.788   4.390   2.291 -0.1274 -0.6379  0.6967
 2169TIP3    H128142   6.756   4.410   2.379 -5.1878  0.9565 -1.1704
 2169TIP3    H228143   6.765   4.298   2.278 -0.6458 -0.4981  0.6037
 2170TIP3   OH228144   0.430   5.393   8.195  0.1186 -0.3207  0.1224
 2170TIP3    H128145   0.523   5.374   8.212  0.0934 -0.3665  0.2061
 2170TIP3    H228146   0.429   5.428   8.106  0.2872  0.1972  0.3234
 2171TIP3   OH228147   3.134   2.192   7.079  0.7114  0.7993  0.8007
 2171TIP3    H128148   3.060   2.230   7.031  1.3961 -0.1672 -1.1251
 2171TIP3    H228149   3.101   2.109   7.113  0.8008  0.5294  0.2363
 2172TIP3   OH228150   5.520   3.658   0.861  0.2026  0.0901 -0.2895
 2172TIP3    H128151   5.582   3.682   0.793  0.0883 -0.5781 -0.6429
 2172TIP3    H228152   5.540   3.715   0.934  0.5586  0.5763 -0.7633
 2173TIP3   OH228153   2.987   4.744   8.103  0.2002 -0.7547  0.7177
 2173TIP3    H128154   2.997   4.839   8.095 -0.1453 -0.7190  0.6979
 2173TIP3    H228155   3.076   4.710   8.096  0.3373 -0.4242  0.8369
 2174TIP3   OH228156   1.494   0.534   1.833 -0.1872  0.3084 -0.2133
 2174TIP3    H128157   1.543   0.609   1.867 -0.1242  0.2377 -0.1479
 2174TIP3    H228158   1.497   0.470   1.904  0.4195 -0.0545 -0.5587
 2175TIP3   OH228159   6.702   1.925   2.818  0.5867 -0.7722 -0.0129
 2175TIP3    H128160   6.607   1.914   2.822  0.4789  0.2970  1.6938
 2175TIP3    H228161   6.715   2.020   2.822  1.7106 -0.7960  5.4631
 2176TIP3   OH228162   0.730   2.354   0.533 -0.1082 -0.2058  0.3110
 2176TIP3    H128163   0.804   2.396   0.575  0.4627  0.3112 -1.1319
 2176TIP3    H228164   0.692   2.298   0.600  1.1389  0.0876  1.2880
 2177TIP3   OH228165   1.527   4.952   8.039  0.2822  0.3415  0.4920
 2177TIP3    H128166   1.454   4.898   8.070 -0.6944 -0.1598 -2.4145
 2177TIP3    H228167   1.550   4.916   7.953  3.3545  1.0998  0.8537
 2178TIP3   OH228168   4.586   2.274   0.778 -0.1303  0.0152  0.1530
 2178TIP3    H128169   4.651   2.230   0.833  0.2444  0.2733 -0.0770
 2178TIP3    H228170   4.521   2.207   0.759  0.2569 -0.3482  0.0854
 2179TIP3   OH228171   1.604   6.147   8.626  0.0168  0.3471 -0.0037
 2179TIP3    H128172   1.584   6.103   8.708  0.5648 -0.3603 -0.2377
 2179TIP3    H228173   1.613   6.240   8.649  1.1564  0.0219  0.9075
 2180TIP3   OH228174   4.987   0.702   8.187  0.5250  0.5689  0.0257
 2180TIP3    H128175   4.987   0.751   8.269  1.3410  2.1233 -0.8459
 2180TIP3    H228176   4.977   0.610   8.214 -2.9023  1.2699  1.6130
 2181TIP3   OH228177   5.003   3.018   8.009 -0.1228 -0.1001  0.4651
 2181TIP3    H128178   5.073   2.989   8.067 -0.5181 -1.0925  0.4761
 2181TIP3    H228179   4.938   3.057   8.067  0.3905  0.7798  0.4594
 2182TIP3   OH228180   5.257   3.055   0.555 -0.4177  0.1298 -0.0161
 2182TIP3    H128181   5.220   2.974   0.589 -0.9492  1.0282  1.6408
 2182TIP3    H228182   5.185   3.118   0.562 -0.0655  0.7154 -1.4520
 2183TIP3   OH228183   2.128   0.719   2.191 -0.1462 -0.3525  0.1008
 2183TIP3    H128184   2.094   0.653   2.130  0.1335  1.5423 -2.2448
 2183TIP3    H228185   2.215   0.739   2.158  0.0251  0.7204  1.1477
 2184TIP3   OH228186   5.828   1.028   2.004 -0.0664 -0.3140  0.0927
 2184TIP3    H128187   5.887   0.964   1.963 -1.1787  0.1517 -2.4500
 2184TIP3    H228188   5.875   1.057   2.082  1.6969 -2.1772 -0.1844
 2185TIP3   OH228189   4.894   4.813   8.404  0.1343 -0.0344  0.3432
 2185TIP3    H128190   4.976   4.843   8.442 -1.6149  3.7050  1.7013
 2185TIP3    H228191   4.864   4.743   8.461  1.4653 -0.1407  0.9402
 2186TIP3   OH228192   0.642   3.333   2.254  0.2803 -0.6145 -0.0495
 2186TIP3    H128193   0.647   3.246   2.294 -0.0322 -0.1958  0.9172
 2186TIP3    H228194   0.552   3.362   2.268  0.5767  0.1720  0.2926
 2187TIP3   OH228195   4.652   1.738   8.238  0.2501  0.7569  0.6128
 2187TIP3    H128196   4.676   1.653   8.203 -1.1813  0.0263  1.3244
 2187TIP3    H228197   4.734   1.789   8.236  1.2355 -0.7660  0.6241
 2188TIP3   OH228198   3.447   0.818   2.240  0.0503  0.4509 -0.4382
 2188TIP3    H128199   3.416   0.863   2.318 -0.8178 -1.8245  0.6140
 2188TIP3    H228200   3.490   0.739   2.272  0.6670  0.0059 -2.2055
 2189TIP3   OH228201   1.843   6.619   8.757 -0.2987 -0.1706 -0.0016
 2189TIP3    H128202   1.907   6.687   8.736  0.9171  0.3716  4.4014
 2189TIP3    H228203   1.758   6.663   8.753  0.3440  1.2573  1.2786
 2190TIP3   OH228204   1.256   1.834   1.691  0.0546 -0.2275 -0.3031
 2190TIP3    H128205   1.208   1.865   1.768 -0.7062 -1.8004 -0.1183
 2190TIP3    H228206   1.347   1.858   1.710  0.0982 -1.6970  1.7313
 2191TIP3   OH228207   5.542   2.986   2.342 -0.1151 -0.5164  0.1120
 2191TIP3    H128208   5.541   3.010   2.435  2.8185  3.0658 -0.5712
 2191TIP3    H228209   5.614   2.925   2.333  0.6709  0.4017  0.0132
 2192TIP3   OH228210   6.374   4.987   8.437 -0.1260  0.5262  0.1956
 2192TIP3    H128211   6.339   5.076   8.438 -0.8814  0.2327  0.0357
 2192TIP3    H228212   6.389   4.966   8.529 -2.3265 -0.1028  0.4611
 2193TIP3   OH228213   2.641   3.444   8.359 -0.7854 -0.1775  0.0778
 2193TIP3    H128214   2.712   3.380   8.367 -2.2947 -1.7433  1.4918
 2193TIP3    H228215   2.658   3.487   8.276  0.5553 -2.1064 -0.7238
 2194TIP3   OH228216   6.220   2.444   7.225  0.0632 -0.1511 -0.6362
 2194TIP3    H128217   6.181   2.495   7.295 -0.7772  0.5713 -1.5904
 2194TIP3    H228218   6.204   2.496   7.146 -0.3236 -1.6318 -1.5636
 2195TIP3   OH228219   0.753   3.845   0.745 -0.0847  0.1317  0.0410
 2195TIP3    H128220   0.749   3.912   0.677  0.4670 -0.6319 -0.7735
 2195TIP3    H228221   0.753   3.894   0.827  0.5430  1.1414 -0.5382
 2196TIP3   OH228222   6.628   4.545   8.213  0.2167 -0.1510 -0.2129
 2196TIP3    H128223   6.664   4.487   8.280  1.3734  2.0278  1.1812
 2196TIP3    H228224   6.533   4.541   8.226  0.1989 -2.2050 -0.6423
 2197TIP3   OH228225   3.640   0.771   0.693 -0.2108  0.8274  0.1138
 2197TIP3    H128226   3.572   0.716   0.731  0.8068 -0.4016  0.2389
 2197TIP3    H228227   3.643   0.744   0.601  1.8773 -1.1410  0.6463
 2198TIP3   OH228228   2.866   0.805   0.804  0.0051  0.0955  0.2931
 2198TIP3    H128229   2.797   0.748   0.770 -0.7286  0.7234  0.7027
 2198TIP3    H228230   2.942   0.747   0.814 -0.6127 -0.7283  0.3543
 2199TIP3   OH228231   6.420   4.383   7.938 -0.0392 -0.3071 -0.0146
 2199TIP3    H128232   6.514   4.400   7.946  0.7489 -3.8408  0.1179
 2199TIP3    H228233   6.402   4.393   7.844 -0.0983  2.3942  0.2129
 2200TIP3   OH228234   6.652   5.657   2.429  0.3259  0.5715 -0.0103
 2200TIP3    H128235   6.718   5.600   2.389  1.5308  0.9082  1.4079
 2200TIP3    H228236   6.584   5.598   2.462 -0.4916  0.2643 -2.1081
 2201TIP3   OH228237   0.829   0.991   7.589 -0.0570  0.2981 -0.4902
 2201TIP3    H128238   0.896   1.053   7.561 -0.8382  1.6199  0.4426
 2201TIP3    H228239   0.759   1.046   7.625 -1.0172 -1.1047 -0.1285
 2202TIP3   OH228240   1.444   1.598   1.744 -0.1061 -0.1357  0.2263
 2202TIP3    H128241   1.507   1.664   1.770  0.6946 -1.0092  0.5667
 2202TIP3    H228242   1.479   1.563   1.661 -0.9113  0.3647 -0.3402
 2203TIP3   OH228243   4.853   0.662   8.815  0.0465  0.2574 -0.3877
 2203TIP3    H128244   4.774   0.676   8.762 -0.9591  0.2560  1.0367
 2203TIP3    H228245   4.888   0.750   8.830  0.6225  0.2218 -1.4320
 2204TIP3   OH228246   2.940   5.996   8.610 -0.0913  0.1311  0.3816
 2204TIP3    H128247   3.027   6.001   8.650  0.7549  2.1564 -1.4843
 2204TIP3    H228248   2.913   6.088   8.603 -1.0718 -0.2724 -1.7254
 2205TIP3   OH228249   3.129   5.234   7.699 -0.0629 -0.1957  0.2264
 2205TIP3    H128250   3.189   5.303   7.727 -0.9706  0.5786  0.2889
 2205TIP3    H228251   3.045   5.278   7.685 -1.2770 -1.6083  2.4095
 2206TIP3   OH228252   0.550   1.646   0.719 -0.1390 -0.8140 -0.2481
 2206TIP3    H128253   0.594   1.611   0.641  0.9455 -0.1735  0.0476
 2206TIP3    H228254   0.613   1.632   0.790  0.9532  2.7435 -0.3089
 2207TIP3   OH228255   1.636   4.727   2.796 -0.5471  0.0650 -0.0834
 2207TIP3    H128256   1.568   4.685   2.848 -3.8336  0.5009 -3.6640
 2207TIP3    H228257   1.590   4.791   2.742  2.2533 -1.1919 -4.4617
 2208TIP3   OH228258   3.591   1.725   0.775  0.4913 -0.8774 -0.4150
 2208TIP3    H128259   3.653   1.796   0.791  1.1258 -1.5884  0.3782
 2208TIP3    H228260   3.594   1.711   0.680  0.8626 -0.3139 -0.4921
 2209TIP3   OH228261   0.185   5.590   7.257 -0.2237 -0.3902  0.7761
 2209TIP3    H128262   0.189   5.498   7.231 -2.3055  0.2658 -2.4455
 2209TIP3    H228263   0.246   5.634   7.199 -0.3133  0.4634  1.3157
 2210TIP3   OH228264   1.467   2.585   8.612  0.5316 -0.1143  0.0836
 2210TIP3    H128265   1.384   2.626   8.591  0.1115 -1.1137 -0.2523
 2210TIP3    H228266   1.532   2.653   8.597 -0.3311  1.1528  1.7930
 2211TIP3   OH228267   4.554   0.487   0.430 -0.2939 -0.6345 -0.2431
 2211TIP3    H128268   4.539   0.447   0.515  0.4644  0.3196  0.3582
 2211TIP3    H228269   4.641   0.526   0.436 -0.9508  1.0152 -0.8166
 2212TIP3   OH228270   1.427   5.738   1.138  0.2332  0.1904  0.0328
 2212TIP3    H128271   1.475   5.788   1.204  0.3094  1.2637 -0.8053
 2212TIP3    H228272   1.491   5.674   1.105  0.6566  0.6424 -0.0427
 2213TIP3   OH228273   2.990   2.951   8.185 -0.5070 -0.5275 -0.0760
 2213TIP3    H128274   2.906   2.971   8.144 -0.2342 -0.4870 -0.6257
 2213TIP3    H228275   3.042   2.910   8.115 -0.4161 -1.4843  0.5336
 2214TIP3   OH228276   5.306   3.375   8.110  0.3113  0.0686 -0.2517
 2214TIP3    H128277   5.365   3.344   8.041 -0.8133  0.5796 -1.5004
 2214TIP3    H228278   5.348   3.348   8.192  1.8970 -0.2085 -1.1092
 2215TIP3   OH228279   2.706   6.378   1.929  0.1654  0.2889 -0.1102
 2215TIP3    H128280   2.757   6.297   1.929 -0.2657 -0.0080  1.2403
 2215TIP3    H228281   2.758   6.438   1.983 -0.1904  0.4666  0.0348
 2216TIP3   OH228282   3.303   4.217   1.954  0.0990 -0.0170 -0.1813
 2216TIP3    H128283   3.319   4.307   1.983 -0.1286  0.6698 -2.0048
 2216TIP3    H228284   3.376   4.167   1.989  0.8152  1.1005 -0.0252
 2217TIP3   OH228285   1.525   1.785   6.917 -0.7981  0.4234  0.0661
 2217TIP3    H128286   1.608   1.752   6.882  0.7776 -1.8617  5.0595
 2217TIP3    H228287   1.458   1.733   6.873  0.5959  0.1986 -1.9216
 2218TIP3   OH228288   4.360   3.464   1.006  0.0198  0.3026  0.5080
 2218TIP3    H128289   4.360   3.529   0.935  2.2510  0.0946  0.2608
 2218TIP3    H228290   4.390   3.512   1.083  1.2310 -0.2981  0.4289
 2219TIP3   OH228291   4.496   2.667   3.100 -0.6340 -0.1173 -0.2651
 2219TIP3    H128292   4.487   2.759   3.124 -1.3031  0.6349 -3.0997
 2219TIP3    H228293   4.590   2.649   3.108 -0.7063  0.2393  1.9933
 2220TIP3   OH228294   0.219   0.453   1.913 -0.1607 -0.6785 -0.5419
 2220TIP3    H128295   0.269   0.450   1.832  0.0608 -1.4609 -0.3780
 2220TIP3    H228296   0.266   0.517   1.967 -0.5523  0.1729 -1.1696
 2221TIP3   OH228297   6.550   6.753   7.456 -0.0138 -0.6645  0.2790
 2221TIP3    H128298   6.626   6.747   7.399 -0.4483 -1.2671 -0.2538
 2221TIP3    H228299   6.475   6.741   7.398 -0.5154 -0.2106  0.8174
 2222TIP3   OH228300   4.024   1.543   0.203  0.1129  0.0918  0.3644
 2222TIP3    H128301   4.062   1.561   0.117  0.0463  0.7619  0.4735
 2222TIP3    H228302   3.969   1.618   0.222 -0.6256 -0.4892  0.5848
 2223TIP3   OH228303   4.786   2.666   3.144  0.5340  0.2984 -0.0284
 2223TIP3    H128304   4.881   2.678   3.155  0.6841  1.6653 -2.2236
 2223TIP3    H228305   4.779   2.608   3.068 -0.4141 -0.1784  0.4126
 2224TIP3   OH228306   0.506   6.117   0.151 -0.3309 -0.4036  0.2688
 2224TIP3    H128307   0.421   6.074   0.158 -0.4946 -0.4045 -1.3512
 2224TIP3    H228308   0.539   6.119   0.241 -1.9561 -0.5434  0.9071
 2225TIP3   OH228309   1.793   3.397   7.416 -0.1402 -0.0465 -0.2663
 2225TIP3    H128310   1.862   3.370   7.478  0.9529  3.0514  0.0476
 2225TIP3    H228311   1.841   3.438   7.344 -1.5753  2.5725  0.1541
 2226TIP3   OH228312   2.030   0.670   1.565 -0.3277 -0.3971  0.2391
 2226TIP3    H128313   2.054   0.578   1.578 -0.8161 -0.8602 -1.7620
 2226TIP3    H228314   1.991   0.697   1.648  1.8738 -1.2872  1.6533
 2227TIP3   OH228315   3.938   0.795   1.249  0.2035 -0.8931  0.3547
 2227TIP3    H128316   3.855   0.837   1.225  0.4254 -1.6290 -2.0075
 2227TIP3    H228317   3.957   0.827   1.337 -1.5264  0.9436  0.1341
 2228TIP3   OH228318   4.027   0.341   2.661  0.3791  0.0232  0.4794
 2228TIP3    H128319   4.100   0.298   2.705 -1.0415  0.0070  3.0105
 2228TIP3    H228320   3.966   0.364   2.732 -1.7542  0.6634 -1.4335
 2229TIP3   OH228321   3.706   6.361   8.038 -0.2670  0.3403 -0.3625
 2229TIP3    H128322   3.776   6.423   8.017 -1.1458  1.3192 -0.4939
 2229TIP3    H228323   3.722   6.286   7.982  1.3162  0.0631  0.4017
 2230TIP3   OH228324   4.927   5.108   8.296  0.5652  0.4170 -0.0473
 2230TIP3    H128325   4.854   5.166   8.316  0.1725  0.5604 -1.7389
 2230TIP3    H228326   4.914   5.031   8.351 -1.2168  0.1754 -0.7551
 2231TIP3   OH228327   4.194   0.861   7.648  0.7845  0.4643  0.0108
 2231TIP3    H128328   4.234   0.774   7.651 -0.7325 -0.2558  0.1662
 2231TIP3    H228329   4.102   0.846   7.668  0.5781  2.1805  0.5071
 2232TIP3   OH228330   1.299   5.325   0.280 -0.0382  0.2193 -0.0466
 2232TIP3    H128331   1.281   5.398   0.339  1.5712 -1.2785  2.4819
 2232TIP3    H228332   1.273   5.247   0.329  4.3018 -1.3539  0.1688
 2233TIP3   OH228333   4.317   6.523   8.715 -0.4519  0.4473 -0.1115
 2233TIP3    H128334   4.269   6.485   8.641 -0.5882  0.0708  0.1688
 2233TIP3    H228335   4.298   6.465   8.788  0.2558  0.4265  0.0566
 2234TIP3   OH228336   3.135   2.356   0.594 -0.1290  0.2700  0.4651
 2234TIP3    H128337   3.069   2.296   0.629 -0.0018  0.6370  1.3560
 2234TIP3    H228338   3.210   2.344   0.652  1.8083 -2.4398 -2.3027
 2235TIP3   OH228339   6.411   4.922   1.538 -0.5591  0.3767 -0.1720
 2235TIP3    H128340   6.474   4.850   1.552 -0.8521 -0.1147 -1.2310
 2235TIP3    H228341   6.351   4.888   1.472 -2.1932  0.6924  1.0911
 2236TIP3   OH228342   0.861   3.730   8.709  0.1839  0.7511 -0.6780
 2236TIP3    H128343   0.940   3.745   8.762 -1.1634  1.4400  1.2293
 2236TIP3    H228344   0.838   3.638   8.726 -0.1806  0.9384 -0.1256
 2237TIP3   OH228345   0.969   1.833   0.845  0.2730  0.2973  0.0946
 2237TIP3    H128346   0.900   1.767   0.834  0.0609  0.7403 -1.5044
 2237TIP3    H228347   1.042   1.785   0.883 -0.5204 -0.4454  0.7310
 2238TIP3   OH228348   5.692   4.930   1.732 -0.3793 -0.3050  0.7799
 2238TIP3    H128349   5.753   4.856   1.725 -0.4714 -0.3962  0.9227
 2238TIP3    H228350   5.729   4.997   1.676 -0.1136 -0.3368  0.9133
 2239TIP3   OH228351   5.959   5.665   1.574 -0.0626 -0.1777  0.4260
 2239TIP3    H128352   5.952   5.679   1.480  0.4524  0.9979  0.5398
 2239TIP3    H228353   5.874   5.630   1.600  0.2708 -1.8772 -0.6824
 2240TIP3   OH228354   2.954   4.425   1.301 -0.2982  0.0786  0.4644
 2240TIP3    H128355   2.873   4.419   1.251  0.4412 -1.3951 -0.6635
 2240TIP3    H228356   2.954   4.345   1.354  1.5298 -1.3448 -1.4662
 2241TIP3   OH228357   3.133   2.321   1.833 -0.1155  0.5805  0.2342
 2241TIP3    H128358   3.211   2.315   1.888 -1.2951  1.1812  2.0303
 2241TIP3    H228359   3.092   2.235   1.839 -1.5789  1.3683  2.4088
 2242TIP3   OH228360   2.214   1.935   0.850 -0.5910 -0.0538 -0.1421
 2242TIP3    H128361   2.137   1.899   0.895 -0.1202  0.3171  0.9986
 2242TIP3    H228362   2.188   2.024   0.826 -0.6431 -0.0488 -0.0700
 2243TIP3   OH228363   2.963   4.188   0.820 -0.3406  0.4982 -0.1928
 2243TIP3    H128364   2.930   4.199   0.730  0.5585  1.4171 -0.4304
 2243TIP3    H228365   3.009   4.104   0.818  2.1367  1.7625 -1.4293
 2244TIP3   OH228366   3.895   1.571   8.357 -0.1813  0.6181 -0.2813
 2244TIP3    H128367   3.890   1.622   8.437 -0.0704  0.4319 -0.1546
 2244TIP3    H228368   3.987   1.545   8.350  0.1246  1.8640 -1.2441
 2245TIP3   OH228369   2.236   1.122   1.500 -0.3412  0.0070 -0.0439
 2245TIP3    H128370   2.284   1.145   1.579  1.4052  1.8063 -1.5314
 2245TIP3    H228371   2.288   1.052   1.460  0.9760  1.7173 -1.4762
 2246TIP3   OH228372   4.475   2.059   8.066  0.1114  0.1524 -0.6282
 2246TIP3    H128373   4.384   2.052   8.039 -0.1180 -0.9461  0.3784
 2246TIP3    H228374   4.475   2.126   8.134  0.0390  0.0469 -0.5247
 2247TIP3   OH228375   4.004   3.823   8.135  0.0167 -0.0693  0.0074
 2247TIP3    H128376   3.967   3.902   8.173  0.7022  0.1008  0.3373
 2247TIP3    H228377   4.099   3.839   8.133  0.1007 -0.5830 -0.5978
 2248TIP3   OH228378   2.056   3.813   7.837 -0.1855  0.4164 -0.0554
 2248TIP3    H128379   2.088   3.894   7.799 -0.2416  1.1544  1.3926
 2248TIP3    H228380   1.997   3.776   7.771 -0.2228  1.5934 -0.7009
 2249TIP3   OH228381   4.043   3.450   2.152  0.0548  0.2517 -0.2294
 2249TIP3    H128382   4.003   3.364   2.166 -0.2499 -0.0515 -2.5723
 2249TIP3    H228383   4.070   3.478   2.239  1.7998 -3.0208  0.4697
 2250TIP3   OH228384   5.780   4.384   8.777 -0.2852 -0.4874 -0.4515
 2250TIP3    H128385   5.862   4.368   8.824 -1.4060  1.1869  2.3234
 2250TIP3    H228386   5.776   4.479   8.767  0.0726 -0.6923 -4.5997
 2251TIP3   OH228387   5.451   4.179   0.240  0.2128 -0.6844  0.0543
 2251TIP3    H128388   5.383   4.212   0.299 -0.1181 -0.3736 -0.4885
 2251TIP3    H228389   5.441   4.232   0.160  0.2239 -1.5225 -0.5200
 2252TIP3   OH228390   2.681   2.109   8.645  0.3026 -0.6309  0.4518
 2252TIP3    H128391   2.773   2.083   8.652 -0.5179 -4.0015  0.1879
 2252TIP3    H228392   2.651   2.117   8.735  0.3923 -1.4623  0.5644
 2253TIP3   OH228393   3.274   1.480   7.970 -0.1209  0.1109  0.1522
 2253TIP3    H128394   3.235   1.528   7.897 -2.6768 -1.5239  0.3124
 2253TIP3    H228395   3.233   1.394   7.967  3.3255 -1.7565  0.6219
 2254TIP3   OH228396   3.084   5.273   8.464  0.0905 -0.1445 -0.4841
 2254TIP3    H128397   3.096   5.329   8.540  0.8099  0.4364 -1.0008
 2254TIP3    H228398   3.133   5.194   8.484 -0.2753 -0.2711 -0.0754
 2255TIP3   OH228399   0.338   1.620   7.025 -0.0699 -0.4108 -0.5611
 2255TIP3    H128400   0.339   1.620   6.930  0.5470 -2.4167 -0.5962
 2255TIP3    H228401   0.423   1.657   7.050 -0.4162  0.5388 -0.7674
 2256TIP3   OH228402   5.377   0.803   2.159 -1.0653 -0.0952  0.8713
 2256TIP3    H128403   5.370   0.813   2.064  1.6378  1.3821  0.7439
 2256TIP3    H228404   5.288   0.780   2.187 -1.7303 -1.5628 -2.0807
 2257TIP3   OH228405   6.526   5.927   2.345 -0.2330  0.0058 -0.2241
 2257TIP3    H128406   6.547   5.834   2.340 -0.3249 -0.0208 -0.1180
 2257TIP3    H228407   6.494   5.949   2.257  2.9009  0.7190 -1.3349
 2258TIP3   OH228408   5.101   0.324   7.696  0.2321 -0.3465 -0.5311
 2258TIP3    H128409   5.154   0.342   7.618  0.5320 -1.6860 -0.6438
 2258TIP3    H228410   5.152   0.262   7.747 -0.2439  0.0484  0.4511
 2259TIP3   OH228411   4.673   4.056   7.896 -0.5973 -0.0780 -0.8735
 2259TIP3    H128412   4.649   4.144   7.925 -1.4342 -0.4787 -0.2935
 2259TIP3    H228413   4.720   4.019   7.971  0.8285  0.2834 -1.5665
 2260TIP3   OH228414   1.259   3.046   0.497  0.5615 -0.0686 -0.1195
 2260TIP3    H128415   1.288   3.119   0.552  1.4372  0.3356 -1.0686
 2260TIP3    H228416   1.181   3.079   0.452  1.0374  0.3586 -0.6552
 2261TIP3   OH228417   2.757   4.995   7.894  0.4466 -0.0250  0.3511
 2261TIP3    H128418   2.839   5.009   7.941  0.0497 -0.4204  1.1814
 2261TIP3    H228419   2.689   5.003   7.962 -0.2137  0.4493 -0.3451
 2262TIP3   OH228420   3.164   2.895   2.648 -0.1690  0.1019 -0.3923
 2262TIP3    H128421   3.128   2.898   2.560  1.0242  0.6202 -0.8691
 2262TIP3    H228422   3.257   2.879   2.636 -0.0967 -0.4851  0.8030
 2263TIP3   OH228423   4.090   2.498   1.448 -0.3961  0.2402 -0.4576
 2263TIP3    H128424   4.110   2.471   1.538 -0.2840  0.2527 -0.4792
 2263TIP3    H228425   4.010   2.450   1.427 -0.2991  0.0639 -0.4303
 2264TIP3   OH228426   1.054   6.723   8.457  0.2172  0.3681 -0.0124
 2264TIP3    H128427   1.138   6.764   8.478  1.1522 -1.4650  0.0538
 2264TIP3    H228428   0.997   6.745   8.530  1.6951 -1.1485  1.6676
 2265TIP3   OH228429   2.040   1.318   1.513  0.6784 -0.6660 -0.1680
 2265TIP3    H128430   2.052   1.403   1.470  0.8297 -0.8275 -0.4522
 2265TIP3    H228431   2.114   1.265   1.481 -0.9071 -1.8091 -2.2039
 2266TIP3   OH228432   6.367   4.419   1.384  0.1924  0.1680  0.6025
 2266TIP3    H128433   6.339   4.416   1.293 -0.7116 -1.4682  0.8873
 2266TIP3    H228434   6.314   4.489   1.423 -1.1741 -0.7048  0.3748
 2267TIP3   OH228435   3.949   2.461   7.219  0.1190  0.3879  0.7721
 2267TIP3    H128436   3.993   2.539   7.187  1.5473 -0.1271  1.4314
 2267TIP3    H228437   4.012   2.419   7.278 -0.2679 -1.7202 -0.2221
 2268TIP3   OH228438   2.677   4.194   0.996 -0.0677 -0.4861  0.0068
 2268TIP3    H128439   2.711   4.244   0.922 -0.4857 -0.4292 -0.1524
 2268TIP3    H228440   2.662   4.106   0.961  4.3335 -1.9865  1.1952
 2269TIP3   OH228441   5.597   5.214   1.575 -0.2279  0.0670  0.1490
 2269TIP3    H128442   5.637   5.244   1.656  0.0174 -0.8628  0.3892
 2269TIP3    H228443   5.606   5.288   1.514 -1.5312  1.2475  1.3073
 2270TIP3   OH228444   4.070   4.356   7.263 -0.5923 -0.1015  0.9214
 2270TIP3    H128445   4.026   4.281   7.305 -2.2050  0.6684  0.7122
 2270TIP3    H228446   4.162   4.344   7.283 -0.9985 -1.2593  2.3167
 2271TIP3   OH228447   2.693   0.959   0.973 -0.4423 -0.2552 -0.7009
 2271TIP3    H128448   2.731   1.046   0.958  0.0562  0.1787  2.4453
 2271TIP3    H228449   2.744   0.901   0.917  1.2253  1.0917 -0.6615
 2272TIP3   OH228450   6.369   4.277   8.745 -0.3573 -0.3356 -0.2160
 2272TIP3    H128451   6.331   4.201   8.789 -1.0745  0.1246 -0.0146
 2272TIP3    H228452   6.438   4.307   8.804  0.5356 -1.3472 -0.7174
 2273TIP3   OH228453   1.833   0.084   1.708 -0.1290 -0.4412 -0.4915
 2273TIP3    H128454   1.863   0.074   1.618 -0.0770 -0.4704 -0.4711
 2273TIP3    H228455   1.780   0.007   1.725 -1.7544  0.4999 -1.1302
 2274TIP3   OH228456   4.669   5.529   6.766 -0.1735  0.7471  0.3281
 2274TIP3    H128457   4.687   5.583   6.689  2.1632  0.7189  0.7750
 2274TIP3    H228458   4.747   5.538   6.820 -1.7623  0.7900  2.7555
 2275TIP3   OH228459   4.648   4.157   0.522 -0.3489 -0.6144 -0.2465
 2275TIP3    H128460   4.578   4.201   0.570  0.1437 -1.5343  1.3924
 2275TIP3    H228461   4.606   4.079   0.485 -0.5873 -0.2102 -0.8630
 2276TIP3   OH228462   1.753   2.268   0.092 -0.2434  0.0845 -0.6376
 2276TIP3    H128463   1.809   2.193   0.071  0.3544  0.3000  0.1435
 2276TIP3    H228464   1.698   2.238   0.164  1.4181  0.9845  1.1168
 2277TIP3   OH228465   5.850   1.770   7.848 -0.4996  0.2493 -0.4138
 2277TIP3    H128466   5.781   1.798   7.788 -0.7916  0.5353  0.0523
 2277TIP3    H228467   5.930   1.771   7.795 -0.5840  1.4800 -0.5327
 2278TIP3   OH228468   3.496   6.655   7.965 -0.0799 -0.1678  0.5490
 2278TIP3    H128469   3.579   6.696   7.992 -0.7544  1.9326 -0.3337
 2278TIP3    H228470   3.523   6.573   7.923  1.3137 -0.9052  2.7311
 2279TIP3   OH228471   3.544   0.337   0.631  0.0808  0.2753 -0.4232
 2279TIP3    H128472   3.529   0.275   0.702 -1.7438  3.2312  1.9888
 2279TIP3    H228473   3.636   0.325   0.608  0.1207 -2.3560  0.8166
 2280TIP3   OH228474   1.767   1.235   0.122  0.2847  0.4601 -0.2151
 2280TIP3    H128475   1.729   1.299   0.183 -1.7296 -1.6475  0.8915
 2280TIP3    H228476   1.862   1.239   0.139  0.1230  2.4469  0.4706
 2281TIP3   OH228477   6.811   1.986   1.532 -0.1452  0.6069 -0.4915
 2281TIP3    H128478   6.857   2.061   1.571 -0.9159  2.7034 -3.2761
 2281TIP3    H228479   6.840   1.986   1.441 -2.6425 -0.4433 -1.3663
 2282TIP3   OH228480   0.756   4.704   1.321  0.1769 -0.1085 -0.1028
 2282TIP3    H128481   0.758   4.692   1.226  0.5025 -1.0571  0.0093
 2282TIP3    H228482   0.674   4.751   1.338 -0.4712 -0.9616 -0.7544
 2283TIP3   OH228483   2.279   2.682   1.034 -0.4087 -0.0389  0.2192
 2283TIP3    H128484   2.328   2.607   1.001  0.3108  0.6859 -0.3969
 2283TIP3    H228485   2.317   2.699   1.121  0.0625  0.1805 -0.0269
 2284TIP3   OH228486   4.982   3.979   1.916  0.3277  0.0486  0.0382
 2284TIP3    H128487   5.019   3.974   2.005  1.0535  3.6554  0.0799
 2284TIP3    H228488   4.922   4.054   1.920  0.3905  0.2939 -2.5155
 2285TIP3   OH228489   0.893   4.831   2.280  0.1778 -0.4459  0.3924
 2285TIP3    H128490   0.889   4.848   2.374  1.1407  1.6678  0.1162
 2285TIP3    H228491   0.981   4.795   2.266  0.3105 -0.0580  0.2169
 2286TIP3   OH228492   4.970   0.796   2.551 -0.1755  0.0183  0.4027
 2286TIP3    H128493   5.003   0.824   2.636  0.4376 -1.3165  0.6307
 2286TIP3    H228494   4.889   0.749   2.571 -0.6456  0.6818  0.1209
 2287TIP3   OH228495   4.661   2.735   2.527 -0.0358 -0.7191 -0.2390
 2287TIP3    H128496   4.700   2.752   2.613  0.3836  0.3396 -0.6209
 2287TIP3    H228497   4.735   2.710   2.472 -0.1605 -0.5072 -0.5084
 2288TIP3   OH228498   6.087   0.441   1.145 -0.4563  0.1081  0.0953
 2288TIP3    H128499   6.089   0.519   1.090  1.5231 -0.2732 -0.4611
 2288TIP3    H228500   6.120   0.471   1.230 -0.4215  0.0453  0.1042
 2289TIP3   OH228501   0.482   6.641   0.444 -0.1178 -0.1834  0.1144
 2289TIP3    H128502   0.552   6.704   0.425 -1.2492  0.6632 -1.5512
 2289TIP3    H228503   0.431   6.683   0.513  0.4203 -0.3357  0.6119
 2290TIP3   OH228504   4.341   2.469   7.506  0.3024  0.1719  0.5627
 2290TIP3    H128505   4.392   2.504   7.433  1.5380  1.5310  2.0050
 2290TIP3    H228506   4.394   2.397   7.540 -0.5000 -0.7778 -0.1283
 2291TIP3   OH228507   1.780   4.839   1.130  0.1095 -0.3942  0.2169
 2291TIP3    H128508   1.826   4.921   1.146 -0.5357  0.2713 -1.1655
 2291TIP3    H228509   1.840   4.771   1.161  0.4608  0.5990  1.8047
 2292TIP3   OH228510   3.941   4.552   2.025  0.2631  0.4440 -0.1678
 2292TIP3    H128511   3.869   4.605   1.990  0.0102  0.0936 -0.1896
 2292TIP3    H228512   3.898   4.471   2.053  0.7085  0.0906 -0.5072
 2293TIP3   OH228513   3.705   0.969   8.796  0.1916  0.0980 -0.1600
 2293TIP3    H128514   3.610   0.976   8.804 -0.0315 -1.6700 -0.7767
 2293TIP3    H228515   3.725   0.881   8.828  1.5236  0.1308 -0.8388
 2294TIP3   OH228516   3.889   0.977   7.478 -0.1396  0.4941  0.3396
 2294TIP3    H128517   3.850   0.895   7.448  0.4738  0.3730 -0.1473
 2294TIP3    H228518   3.930   1.014   7.400 -0.7101  1.4446  0.4674
 2295TIP3   OH228519   5.106   3.782   0.626  0.3641 -0.0045  0.0742
 2295TIP3    H128520   5.166   3.826   0.565  0.2689  0.6239  0.4209
 2295TIP3    H228521   5.065   3.714   0.574 -0.8601  1.4947 -1.0361
 2296TIP3   OH228522   0.455   5.949   1.409  0.5482 -0.0897  0.6475
 2296TIP3    H128523   0.520   6.014   1.434  0.4175 -0.7802  3.0238
 2296TIP3    H228524   0.383   5.961   1.471  0.3137 -2.1316  0.8497
 2297TIP3   OH228525   0.448   4.425   7.755  0.0222  0.9273 -0.8127
 2297TIP3    H128526   0.432   4.335   7.782 -2.0405  1.4827  0.0449
 2297TIP3    H228527   0.424   4.478   7.832  1.0767  2.2208 -1.3265
 2298TIP3   OH228528   1.604   6.784   0.930 -0.1377  0.2051 -0.5634
 2298TIP3    H128529   1.686   6.770   0.978 -0.1589 -0.0607 -0.6055
 2298TIP3    H228530   1.580   6.874   0.950 -0.1592  0.0870 -0.0436
 2299TIP3   OH228531   1.791   5.296   7.739  0.3086 -0.7104  0.1080
 2299TIP3    H128532   1.788   5.232   7.668  1.4276 -0.3834 -0.2569
 2299TIP3    H228533   1.699   5.314   7.759 -0.0199 -1.1151 -0.9700
 2300TIP3   OH228534   4.688   1.433   8.160 -0.1337 -0.0252 -0.1489
 2300TIP3    H128535   4.721   1.352   8.199 -0.9132 -0.6024 -0.6657
 2300TIP3    H228536   4.722   1.433   8.071  1.8153  1.3954  0.5367
 2301TIP3   OH228537   1.793   1.377   2.233 -0.1816  0.0290 -0.5128
 2301TIP3    H128538   1.832   1.357   2.318  0.3576 -0.5801 -0.8981
 2301TIP3    H228539   1.698   1.369   2.248 -0.0503 -1.6109 -0.3304
 2302TIP3   OH228540   1.389   6.109   8.112 -0.1240 -0.5992 -0.0131
 2302TIP3    H128541   1.446   6.082   8.183  0.5015 -0.3705 -0.4247
 2302TIP3    H228542   1.377   6.031   8.059 -0.3676 -0.6985  0.1825
 2303TIP3   OH228543   2.454   3.411   6.696  0.5127 -1.0787  0.1736
 2303TIP3    H128544   2.413   3.370   6.772  0.5649  0.4205  1.0429
 2303TIP3    H228545   2.468   3.502   6.722  3.3457 -1.2292 -0.4924
 2304TIP3   OH228546   3.964   2.505   1.096 -0.6179  0.6025  0.2200
 2304TIP3    H128547   3.926   2.580   1.143 -0.0290 -0.3186  2.2798
 2304TIP3    H228548   4.046   2.539   1.060  0.7207  0.5344  2.9226
 2305TIP3   OH228549   1.228   4.370   0.595 -0.1623  0.4308  0.1992
 2305TIP3    H128550   1.183   4.435   0.542 -0.1771  1.6196  1.5982
 2305TIP3    H228551   1.176   4.290   0.585  0.6148  0.1663 -2.6339
 2306TIP3   OH228552   6.234   4.157   0.357  0.3584  0.0048  0.3659
 2306TIP3    H128553   6.297   4.229   0.351 -0.2864  0.6143  0.7014
 2306TIP3    H228554   6.264   4.104   0.431 -0.3440  1.1334  1.4989
 2307TIP3   OH228555   2.835   6.496   7.765  0.3448 -0.4796 -0.0024
 2307TIP3    H128556   2.895   6.453   7.826  1.3568 -1.5845 -1.6912
 2307TIP3    H228557   2.892   6.542   7.704 -0.4937 -1.4004 -1.5309
 2308TIP3   OH228558   2.827   3.555   7.144  0.1347  0.1686  0.0446
 2308TIP3    H128559   2.753   3.497   7.162  0.1185 -0.6387 -2.1934
 2308TIP3    H228560   2.798   3.641   7.173 -1.4870 -0.2381 -0.2400
 2309TIP3   OH228561   3.563   2.007   0.960 -0.4879  0.0603  0.2061
 2309TIP3    H128562   3.581   2.052   1.042 -1.5767 -1.0392  1.0991
 2309TIP3    H228563   3.649   1.990   0.922  0.0239  0.7285  1.0264
 2310TIP3   OH228564   0.356   4.329   0.216 -1.0172 -0.2980  0.0845
 2310TIP3    H128565   0.395   4.275   0.147 -0.4832  0.4830 -0.2374
 2310TIP3    H228566   0.269   4.351   0.183 -1.0717 -0.6082  0.0246
 2311TIP3   OH228567   4.826   5.582   1.008 -0.4096 -0.2645  0.3806
 2311TIP3    H128568   4.833   5.539   0.923 -0.9946 -0.0539  0.2200
 2311TIP3    H228569   4.903   5.552   1.056 -1.3719 -2.4409  0.7072
 2312TIP3   OH228570   5.052   1.101   1.398 -0.5976 -0.4457 -0.0869
 2312TIP3    H128571   5.051   1.172   1.462 -2.6938  0.2684 -0.8519
 2312TIP3    H228572   5.025   1.141   1.316 -2.2137 -2.1384 -0.4657
 2313TIP3   OH228573   3.762   4.939   8.523 -0.1444 -0.8868 -0.3606
 2313TIP3    H128574   3.835   4.886   8.491  1.6651  1.7971 -1.0720
 2313TIP3    H228575   3.700   4.942   8.450  0.9622  0.0320 -1.2897
 2314TIP3   OH228576   2.557   4.177   2.332  0.2524  0.0660 -0.1289
 2314TIP3    H128577   2.632   4.189   2.390 -0.5277 -0.3453  1.0076
 2314TIP3    H228578   2.484   4.161   2.392 -0.6456 -0.0114 -1.2307
 2315TIP3   OH228579   3.329   2.504   0.750 -0.2070 -0.2987  0.2412
 2315TIP3    H128580   3.321   2.529   0.842 -0.3704  0.5412  0.0050
 2315TIP3    H228581   3.253   2.544   0.708 -1.1954 -2.2412  0.0535
 2316TIP3   OH228582   2.352   4.577   1.298 -0.0802 -0.3395  0.3203
 2316TIP3    H128583   2.390   4.531   1.373  0.0934  0.5169  0.7763
 2316TIP3    H228584   2.283   4.631   1.336 -0.9147 -0.9216 -0.3345
 2317TIP3   OH228585   2.404   1.952   0.288  0.5345 -0.8181 -0.2669
 2317TIP3    H128586   2.352   2.005   0.349  0.0835 -0.1822 -1.1846
 2317TIP3    H228587   2.421   1.870   0.335 -0.2235 -0.5326  0.5174
 2318TIP3   OH228588   4.491   1.100   8.250 -0.3787 -0.1364 -0.7033
 2318TIP3    H128589   4.576   1.058   8.266  0.0476  0.7096 -0.7136
 2318TIP3    H228590   4.472   1.082   8.158  0.5648  1.0239 -1.1478
 2319TIP3   OH228591   2.867   3.988   1.383 -0.3172  0.4071  0.5119
 2319TIP3    H128592   2.863   4.026   1.296  1.2781 -0.3707  0.0551
 2319TIP3    H228593   2.957   3.956   1.391 -1.2165 -2.2568  1.2598
 2320TIP3   OH228594   1.735   4.814   0.532 -0.3192 -0.3604  0.5634
 2320TIP3    H128595   1.697   4.734   0.568 -0.9120 -0.9700 -1.3006
 2320TIP3    H228596   1.762   4.864   0.608 -2.5384 -1.0651  1.9120
 2321TIP3   OH228597   0.648   4.625   1.991 -0.2131  0.2438  0.1874
 2321TIP3    H128598   0.610   4.692   2.047 -1.3452 -0.2578  0.0652
 2321TIP3    H228599   0.727   4.664   1.955 -0.5928  1.3230  0.5039
 2322TIP3   OH228600   2.329   3.308   6.935  0.4154  0.2946  0.5219
 2322TIP3    H128601   2.249   3.315   6.883  2.0509  3.0446 -1.9214
 2322TIP3    H228602   2.311   3.361   7.013 -0.6788 -0.5199  0.8542
 2323TIP3   OH228603   0.031   2.010   8.152 -0.6909  0.3789  0.0175
 2323TIP3    H128604  -0.044   1.998   8.210  0.1537 -0.8053  0.9029
 2323TIP3    H228605   0.090   1.938   8.173 -0.0353  0.3262 -1.8288
 2324TIP3   OH228606   5.338   0.708   1.643 -0.1088 -0.7184  0.6295
 2324TIP3    H128607   5.356   0.618   1.670  0.7123 -0.2575  1.6545
 2324TIP3    H228608   5.314   0.754   1.723 -0.2097  0.0668  0.1663
 2325TIP3   OH228609   5.663   4.433   8.257  0.3001  0.4331 -0.5139
 2325TIP3    H128610   5.591   4.389   8.213 -1.0603 -1.4800  3.2630
 2325TIP3    H228611   5.623   4.477   8.332  2.6187  2.3739 -0.2961
 2326TIP3   OH228612   6.443   5.497   2.492 -0.0118 -0.2573  0.0634
 2326TIP3    H128613   6.406   5.410   2.510 -1.5306  0.5511  1.0195
 2326TIP3    H228614   6.368   5.556   2.494  1.1712  1.2864  0.7298
 2327TIP3   OH228615   5.435   6.686   1.348  0.7986 -0.2984  0.3559
 2327TIP3    H128616   5.445   6.780   1.331  2.3107 -0.4392  0.3692
 2327TIP3    H228617   5.456   6.676   1.441  1.4115 -0.7409  0.1781
 2328TIP3   OH228618   4.449   5.980   0.367 -0.2628  0.7279 -0.4348
 2328TIP3    H128619   4.380   5.942   0.313  0.6456 -1.5809 -0.0870
 2328TIP3    H228620   4.510   5.908   0.382  0.1064  1.5462  2.7441
 2329TIP3   OH228621   0.272   5.653   8.625 -0.4337 -0.2641 -0.0840
 2329TIP3    H128622   0.305   5.649   8.715 -0.1180  0.8876 -0.1263
 2329TIP3    H228623   0.261   5.747   8.608 -2.2800 -0.5385 -0.6210
 2330TIP3   OH228624   6.620   0.331   8.219 -0.1384 -0.4957 -0.3437
 2330TIP3    H128625   6.645   0.327   8.127 -0.4975  1.2101 -0.5508
 2330TIP3    H228626   6.697   0.366   8.263  0.4727 -2.4445  0.2379
 2331TIP3   OH228627   6.136   6.388   1.953 -0.1809  0.3140  0.3093
 2331TIP3    H128628   6.156   6.406   2.045  0.1014  0.3041  0.2505
 2331TIP3    H228629   6.176   6.461   1.905  1.6685 -0.8314 -0.0068
 2332TIP3   OH228630   6.280   5.093   1.086  0.2700  0.4080  0.2088
 2332TIP3    H128631   6.298   5.067   0.996 -0.3910  0.6538 -0.0033
 2332TIP3    H228632   6.281   5.189   1.084  1.9222  0.4445  0.8229
 2333TIP3   OH228633   1.982   5.564   0.504 -0.1793 -0.3104  0.0409
 2333TIP3    H128634   2.070   5.528   0.519 -0.9845 -1.4056  2.7686
 2333TIP3    H228635   1.923   5.499   0.542 -2.0275  1.6888  0.7791
 2334TIP3   OH228636   0.780   1.415   2.132  0.0663  0.7959  0.0665
 2334TIP3    H128637   0.730   1.495   2.151  0.0183  0.8936 -0.4451
 2334TIP3    H228638   0.763   1.357   2.206 -1.4058  0.5363 -0.4430
 2335TIP3   OH228639   1.223   3.526   7.913  0.6109  0.2299 -0.3429
 2335TIP3    H128640   1.174   3.608   7.915  0.9286  0.4775 -1.7316
 2335TIP3    H228641   1.158   3.460   7.891  0.6654  0.3737 -0.9486
 2336TIP3   OH228642   1.318   0.769   1.345  0.1059 -0.0923 -0.3787
 2336TIP3    H128643   1.399   0.742   1.389 -0.1318 -2.5568 -1.3291
 2336TIP3    H228644   1.266   0.809   1.415  1.6848  0.5704  0.4760
 2337TIP3   OH228645   1.310   1.995   7.821  0.0644 -0.0080  0.2172
 2337TIP3    H128646   1.326   2.001   7.915 -2.0867 -0.4153  0.6720
 2337TIP3    H228647   1.215   1.986   7.813  0.3503 -2.2613 -1.8995
 2338TIP3   OH228648   2.119   5.494   7.528 -0.4338  0.1872  0.2576
 2338TIP3    H128649   2.191   5.434   7.508  0.8790  2.1113 -1.0917
 2338TIP3    H228650   2.042   5.454   7.486  1.0741  1.0578 -3.7086
 2339TIP3   OH228651   4.168   0.181   0.142 -0.1058  0.8525 -0.2593
 2339TIP3    H128652   4.178   0.101   0.091  0.7611 -0.3501  1.6819
 2339TIP3    H228653   4.175   0.252   0.078  0.4857 -0.5832 -1.8429
 2340TIP3   OH228654   6.688   3.277   2.018  0.1855 -0.5210 -0.6723
 2340TIP3    H128655   6.755   3.211   2.034 -0.4517 -0.9247  0.4841
 2340TIP3    H228656   6.695   3.337   2.093  0.6591  0.6632 -1.6335
 2341TIP3   OH228657   4.576   6.634   0.662  0.4547  0.0544 -0.1416
 2341TIP3    H128658   4.622   6.710   0.626  0.2802  0.6636  0.8881
 2341TIP3    H228659   4.640   6.563   0.658  0.2115 -0.1247 -2.3313
 2342TIP3   OH228660   5.047   1.360   1.191 -0.0444 -0.3890 -0.5799
 2342TIP3    H128661   5.122   1.303   1.179 -0.1068 -1.1425  1.9664
 2342TIP3    H228662   4.971   1.305   1.169  0.0525 -0.1829 -1.4474
 2343TIP3   OH228663   2.762   6.730   1.934 -0.2727  0.1069 -0.0601
 2343TIP3    H128664   2.799   6.778   2.008 -0.1995 -1.9798  1.3141
 2343TIP3    H228665   2.672   6.711   1.960  0.0183 -1.4110 -0.0814
 2344TIP3   OH228666   4.771   3.338   0.422 -0.1830  0.3592  0.1805
 2344TIP3    H128667   4.777   3.399   0.494 -1.2248  0.0728  0.5209
 2344TIP3    H228668   4.679   3.338   0.397  0.3686  1.5870 -2.1504
 2345TIP3   OH228669   5.398   5.706   8.033 -0.3473  0.2229  0.4915
 2345TIP3    H128670   5.408   5.756   7.952 -0.8335  0.0939  0.3526
 2345TIP3    H228671   5.481   5.660   8.043 -0.3739  0.0548 -0.0572
 2346TIP3   OH228672   0.389   6.593   0.826  0.0109  0.1798 -0.6179
 2346TIP3    H128673   0.295   6.612   0.833  0.1919  1.3668 -1.1318
 2346TIP3    H228674   0.394   6.497   0.827 -1.1333  0.1107  0.2014
 2347TIP3   OH228675   6.225   4.018   7.397 -0.2916 -0.2739  0.0829
 2347TIP3    H128676   6.294   3.960   7.432 -1.6636 -1.1195  1.5489
 2347TIP3    H228677   6.177   3.963   7.336 -2.1352 -1.0787  2.1195
 2348TIP3   OH228678   3.816   1.854   1.709  0.0364  0.3646 -0.7112
 2348TIP3    H128679   3.900   1.824   1.743 -0.9122 -0.7821  0.7548
 2348TIP3    H228680   3.791   1.787   1.645  0.0497  0.4858 -0.8430
 2349TIP3   OH228681   2.340   1.679   1.132  0.1608  0.5853  0.5920
 2349TIP3    H128682   2.287   1.732   1.192 -1.0996  0.6804 -0.5587
 2349TIP3    H228683   2.386   1.743   1.078 -0.1404  0.5049  0.2406
 2350TIP3   OH228684   2.652   4.070   1.868 -0.2932 -0.4188  0.2426
 2350TIP3    H128685   2.665   4.060   1.774 -1.2964  0.2701  0.0210
 2350TIP3    H228686   2.590   4.002   1.891  0.0169 -0.6412  0.4282
 2351TIP3   OH228687   4.634   1.727   0.870  0.5942  0.4147 -0.4119
 2351TIP3    H128688   4.622   1.722   0.775 -0.6067 -1.2585 -0.2259
 2351TIP3    H228689   4.715   1.776   0.881 -0.6016  3.0302 -2.1910
 2352TIP3   OH228690   3.619   2.168   1.160 -0.4445  0.3309  0.2845
 2352TIP3    H128691   3.579   2.249   1.190 -0.2739 -0.0318  1.5838
 2352TIP3    H228692   3.713   2.185   1.161 -0.4207  0.2050  0.3075
 2353TIP3   OH228693   2.582   4.443   0.901 -0.4526 -0.1514  0.4211
 2353TIP3    H128694   2.650   4.430   0.836 -0.0218  2.3318  0.2654
 2353TIP3    H228695   2.526   4.365   0.894  2.2188 -2.2024  0.4526
 2354TIP3   OH228696   1.772   2.000   8.312  0.2335  0.4700  0.2091
 2354TIP3    H128697   1.693   1.979   8.263  0.5160  1.1816 -0.5731
 2354TIP3    H228698   1.844   1.979   8.253  0.6453 -0.2912  0.9570
 2355TIP3   OH228699   5.863   5.136   8.448 -0.2415 -0.3218 -0.8976
 2355TIP3    H128700   5.809   5.203   8.490  1.2132  0.1315  0.3478
 2355TIP3    H228701   5.832   5.053   8.484  0.8276  0.0389  1.0091
 2356TIP3   OH228702   5.758   6.373   7.231 -0.0327 -0.1365 -0.3001
 2356TIP3    H128703   5.752   6.324   7.313  0.7307 -1.8080 -1.1783
 2356TIP3    H228704   5.677   6.423   7.227 -0.1011 -0.0458  1.4351
 2357TIP3   OH228705   4.149   5.759   8.696  0.4719  0.1881 -0.2793
 2357TIP3    H128706   4.109   5.780   8.781 -0.3317  0.8094 -0.7967
 2357TIP3    H228707   4.140   5.840   8.645 -1.2735 -0.8792 -1.7822
 2358TIP3   OH228708   6.776   0.751   1.387  0.4448 -0.5932 -0.1818
 2358TIP3    H128709   6.777   0.825   1.327 -2.0839 -1.3615 -1.2791
 2358TIP3    H228710   6.799   0.790   1.472  1.4322  0.9931 -1.1099
 2359TIP3   OH228711   2.868   1.325   1.834  0.3397 -0.0114 -0.4663
 2359TIP3    H128712   2.852   1.304   1.742 -0.1830 -1.7279 -0.0339
 2359TIP3    H228713   2.782   1.347   1.869  0.2382 -0.9831 -0.0487
 2360TIP3   OH228714   0.696   0.318   7.678  0.0767  0.0688  0.0294
 2360TIP3    H128715   0.722   0.229   7.700  2.0308  0.7506  0.7284
 2360TIP3    H228716   0.622   0.308   7.619 -0.4880 -1.9813  1.0046
 2361TIP3   OH228717   0.368   2.952   1.737 -0.0250  0.5613  0.4391
 2361TIP3    H128718   0.455   2.917   1.720  0.2051  1.1059  0.4788
 2361TIP3    H228719   0.337   2.903   1.813  1.2123  1.9610  1.9397
 2362TIP3   OH228720   5.181   5.196   8.398 -0.2578  0.2041 -0.3909
 2362TIP3    H128721   5.225   5.219   8.316  0.7805  0.3446  0.1890
 2362TIP3    H228722   5.097   5.159   8.371  0.2042 -0.0527 -1.5254
 2363TIP3   OH228723   1.129   6.471   2.345 -0.2417  0.3628  0.3018
 2363TIP3    H128724   1.212   6.457   2.390  0.1832 -0.8019 -0.7941
 2363TIP3    H228725   1.118   6.394   2.289 -3.1195 -0.6396  2.0005
 2364TIP3   OH228726   1.351   6.781   1.382 -0.6684  0.2091 -0.0604
 2364TIP3    H128727   1.310   6.828   1.308 -1.5768  3.1114  2.0951
 2364TIP3    H228728   1.430   6.830   1.401  0.0176 -1.0317  0.3914
 2365TIP3   OH228729   6.239   2.788   8.543  0.0685 -0.1600  0.6053
 2365TIP3    H128730   6.196   2.872   8.524 -1.2035 -0.7335  0.8510
 2365TIP3    H228731   6.302   2.778   8.472 -1.4210 -0.0950 -0.7952
 2366TIP3   OH228732   5.754   2.608   1.893  0.6816  0.1775  0.0315
 2366TIP3    H128733   5.831   2.629   1.840  1.6800 -0.3538  1.1988
 2366TIP3    H228734   5.729   2.520   1.864  1.3723 -0.2123  0.5726
 2367TIP3   OH228735   6.833   2.894   8.288 -1.0042  0.7646 -0.1192
 2367TIP3    H128736   6.870   2.852   8.211 -0.8840 -0.6673  0.6794
 2367TIP3    H228737   6.776   2.828   8.327  0.3803  0.7231  2.0425
 2368TIP3   OH228738   5.886   0.375   0.964 -0.1709  0.1928 -0.1887
 2368TIP3    H128739   5.878   0.350   1.056  1.5289  1.2562  0.2934
 2368TIP3    H228740   5.906   0.469   0.967 -2.1025  0.7245 -1.7434
 2369TIP3   OH228741   6.746   6.829   8.774 -0.0159 -0.0731 -0.3629
 2369TIP3    H128742   6.840   6.843   8.772  0.2551 -1.3346  1.1941
 2369TIP3    H228743   6.735   6.739   8.742 -0.8838  0.6432 -2.2020
 2370TIP3   OH228744   4.160   1.087   8.811  0.0378 -0.2229  0.2239
 2370TIP3    H128745   4.158   1.113   8.719 -0.6211 -0.1219  0.2602
 2370TIP3    H228746   4.068   1.089   8.838  0.3187  0.6824  1.1531
 2371TIP3   OH228747   0.115   6.665   1.577 -0.1887 -0.0345  0.3280
 2371TIP3    H128748   0.042   6.647   1.635 -0.9842 -2.7290 -1.3598
 2371TIP3    H228749   0.192   6.661   1.633 -1.1951  2.9467  2.1536
 2372TIP3   OH228750   0.754   3.973   1.339 -0.4467  0.5329  0.1812
 2372TIP3    H128751   0.762   4.058   1.294  0.7515  0.1436 -0.4109
 2372TIP3    H228752   0.735   3.996   1.430  2.2732  1.5934  0.5898
 2373TIP3   OH228753   1.171   0.447   7.447 -0.5468 -0.4454 -0.1909
 2373TIP3    H128754   1.252   0.471   7.402 -0.4271 -2.3632 -1.1039
 2373TIP3    H228755   1.200   0.394   7.522 -0.8980  0.3204  0.5063
 2374TIP3   OH228756   2.640   4.726   0.613 -0.1431  0.3067 -0.4797
 2374TIP3    H128757   2.638   4.813   0.573  0.3510  0.3250 -0.4658
 2374TIP3    H228758   2.692   4.738   0.693  0.4517 -0.1344 -0.7946
 2375TIP3   OH228759   0.253   5.159   8.289 -0.7529 -0.4414  0.0064
 2375TIP3    H128760   0.302   5.232   8.250 -0.6910 -1.8041 -2.7347
 2375TIP3    H228761   0.185   5.201   8.341  1.1691  1.5112  1.1352
 2376TIP3   OH228762   2.328   6.673   7.948 -0.4175 -0.1348  1.0810
 2376TIP3    H128763   2.357   6.658   8.038  0.0864 -2.0236  0.6425
 2376TIP3    H228764   2.402   6.644   7.895 -0.8972  0.5275  0.0234
 2377TIP3   OH228765   2.785   5.053   7.222 -0.9637  0.9736 -0.0930
 2377TIP3    H128766   2.859   5.108   7.248 -1.0953  0.9242  0.3853
 2377TIP3    H228767   2.825   4.985   7.166 -0.7152  1.2026 -0.1968
 2378TIP3   OH228768   6.351   2.280   7.847  0.4096  0.1518 -0.1000
 2378TIP3    H128769   6.428   2.297   7.793 -0.1379  0.6461 -0.7478
 2378TIP3    H228770   6.332   2.187   7.835  0.9023  0.0262  0.0720
 2379TIP3   OH228771   3.358   2.076   1.821  0.3398 -0.1422  0.3122
 2379TIP3    H128772   3.358   2.125   1.903  0.6461 -0.2140  0.3549
 2379TIP3    H228773   3.301   2.001   1.838 -0.5292  0.4542  0.0913
 2380TIP3   OH228774   4.351   0.446   1.524  0.3432  0.3409  0.7395
 2380TIP3    H128775   4.365   0.385   1.452  1.4975 -0.3316  1.5191
 2380TIP3    H228776   4.323   0.527   1.481  0.6059 -0.1660 -0.4243
 2381TIP3   OH228777   5.680   4.537   2.482  0.2781 -0.0613  0.3055
 2381TIP3    H128778   5.593   4.531   2.522  1.1803 -0.5369  2.3411
 2381TIP3    H228779   5.664   4.572   2.394 -2.1586 -2.0118 -0.1415
 2382TIP3   OH228780   0.940   2.424   8.151 -0.0773 -0.3223 -0.4450
 2382TIP3    H128781   0.904   2.506   8.117  1.6644  0.2549 -1.0003
 2382TIP3    H228782   0.863   2.369   8.167 -1.2687  1.2867 -0.3675
 2383TIP3   OH228783   2.962   3.589   7.433 -0.1952 -0.3840  0.2652
 2383TIP3    H128784   2.884   3.646   7.428  0.4581  0.4184 -3.2290
 2383TIP3    H228785   3.035   3.649   7.420  0.7858 -1.5684  0.2313
 2384TIP3   OH228786   5.326   1.881   1.603  0.1964  0.6478 -0.1060
 2384TIP3    H128787   5.419   1.902   1.617  0.4283 -0.1933 -0.3160
 2384TIP3    H228788   5.306   1.919   1.518  0.5951  0.0879 -0.4576
 2385TIP3   OH228789   1.073   5.467   8.273 -0.1642  0.3373  0.2212
 2385TIP3    H128790   1.044   5.391   8.224  0.7643  0.8694 -1.2185
 2385TIP3    H228791   1.054   5.542   8.216 -0.3511  1.1191  1.2743
 2386TIP3   OH228792   4.570   5.520   1.091 -0.0104  1.0668 -0.1180
 2386TIP3    H128793   4.662   5.542   1.076  0.3019 -0.2887 -0.3309
 2386TIP3    H228794   4.565   5.498   1.184  0.2742 -0.5073 -0.4443
 2387TIP3   OH228795   4.046   3.394   7.866  0.1068  0.1661  0.2224
 2387TIP3    H128796   3.987   3.369   7.938  2.1998 -2.7594  1.0781
 2387TIP3    H228797   4.017   3.341   7.792  0.3872  0.2602  0.0472
 2388TIP3   OH228798   1.380   4.855   2.193  0.1418 -0.7829  0.4029
 2388TIP3    H128799   1.347   4.938   2.160  1.5381 -0.2532  0.2532
 2388TIP3    H228800   1.321   4.832   2.265 -0.9678 -0.2815 -0.3270
 2389TIP3   OH228801   2.457   2.294   7.268 -0.2394 -0.5453 -0.5165
 2389TIP3    H128802   2.477   2.348   7.191  0.1527  0.1212  0.0396
 2389TIP3    H228803   2.478   2.350   7.343 -2.5476 -0.4493  0.1129
 2390TIP3   OH228804   1.720   1.740   7.698  0.1105 -0.1194  0.0486
 2390TIP3    H128805   1.624   1.739   7.702  0.0778 -0.8826 -0.6875
 2390TIP3    H228806   1.746   1.655   7.735  0.4272 -0.5135 -1.0373
 2391TIP3   OH228807   2.173   2.308   8.827 -0.0949  0.4767  0.0261
 2391TIP3    H128808   2.132   2.229   8.862 -1.3117  0.8856 -0.4153
 2391TIP3    H228809   2.220   2.279   8.749 -0.2298  0.1338  0.0720
 2392TIP3   OH228810   0.001   1.469   1.770  0.8178 -0.2733  0.2261
 2392TIP3    H128811  -0.010   1.536   1.837 -0.5681  0.7589 -0.9523
 2392TIP3    H228812  -0.052   1.395   1.800 -0.7685  0.6249 -0.2429
 2393TIP3   OH228813   1.421   2.641   0.726 -0.1835 -0.3133 -0.0107
 2393TIP3    H128814   1.367   2.659   0.649 -1.5242 -0.3654  0.8768
 2393TIP3    H228815   1.486   2.577   0.695 -1.0097 -0.7192 -0.9829
 2394TIP3   OH228816   2.913   0.207   1.644  0.1623  0.1185 -0.5870
 2394TIP3    H128817   2.931   0.117   1.616  0.4135  0.2075 -0.7127
 2394TIP3    H228818   2.999   0.243   1.666  0.0280  0.2248 -0.2221
 2395TIP3   OH228819   4.708   2.489   2.866 -0.7597 -0.3247  0.9039
 2395TIP3    H128820   4.715   2.451   2.778  2.9220  0.1963  0.8302
 2395TIP3    H228821   4.683   2.581   2.850 -0.8524 -0.4202  0.4858
 2396TIP3   OH228822   2.371   0.275   0.070  0.2856  0.1676  0.6897
 2396TIP3    H128823   2.381   0.196   0.017  0.6677  0.1601  0.7689
 2396TIP3    H228824   2.415   0.344   0.019  1.9721 -0.1291  1.6487
 2397TIP3   OH228825   6.147   0.665   8.240  0.2318  0.4501  0.0383
 2397TIP3    H128826   6.111   0.750   8.213  0.1790  0.3730 -0.1382
 2397TIP3    H228827   6.187   0.682   8.324  0.3025  0.6740 -0.0384
 2398TIP3   OH228828   2.346   5.813   7.871  0.2449  0.2465  0.0444
 2398TIP3    H128829   2.253   5.835   7.872 -0.4304 -1.8563  3.9990
 2398TIP3    H228830   2.349   5.722   7.843  0.9530 -0.0957  1.1741
 2399TIP3   OH228831   0.531   5.498   2.034  0.1999 -0.3291  0.3040
 2399TIP3    H128832   0.515   5.570   2.095  1.2077  0.7161 -0.5940
 2399TIP3    H228833   0.546   5.422   2.090 -4.0774 -0.7044  1.2663
 2400TIP3   OH228834   1.785   5.150   8.309  0.4062 -0.5099  0.5088
 2400TIP3    H128835   1.776   5.223   8.247 -1.4946 -0.2061  1.0562
 2400TIP3    H228836   1.870   5.164   8.351  0.5079  0.8504 -0.0871
 2401TIP3   OH228837   4.782   3.676   7.876  0.1754  0.4992 -0.1738
 2401TIP3    H128838   4.777   3.686   7.971 -2.2518  2.4302 -0.4021
 2401TIP3    H228839   4.857   3.618   7.862  2.1926  2.1180  2.7878
 2402TIP3   OH228840   5.466   6.688   8.142  0.4649  0.4066  0.1660
 2402TIP3    H128841   5.501   6.737   8.216  0.4578 -0.4951  0.7742
 2402TIP3    H228842   5.541   6.670   8.087  1.0849 -1.7050  1.5672
 2403TIP3   OH228843   5.833   6.505   8.607  0.2570 -0.4039  0.3595
 2403TIP3    H128844   5.858   6.458   8.686  1.4553 -0.8989 -0.2891
 2403TIP3    H228845   5.830   6.438   8.539 -0.1392  0.1189 -0.1485
 2404TIP3   OH228846   2.789   6.183   7.994  0.2157 -0.3471 -0.5628
 2404TIP3    H128847   2.859   6.243   8.020 -0.7699  0.8066 -0.4609
 2404TIP3    H228848   2.774   6.129   8.071  0.8173 -0.4326 -0.4992
 2405TIP3   OH228849   6.484   3.023   0.912 -0.2760 -0.5112 -0.3791
 2405TIP3    H128850   6.403   3.022   0.862 -0.8787 -0.9393  0.5846
 2405TIP3    H228851   6.459   3.053   0.999  1.0309  1.9208 -0.7540
 2406TIP3   OH228852   6.220   2.184   8.554 -0.2911 -0.0767  0.1355
 2406TIP3    H128853   6.287   2.157   8.491  0.5048  2.4201 -0.1965
 2406TIP3    H228854   6.222   2.117   8.621 -0.4836 -2.3243 -1.9650
 2407TIP3   OH228855   4.358   2.092   7.035  0.1019 -0.2413 -0.5779
 2407TIP3    H128856   4.329   2.057   7.120 -0.1389 -0.9315 -0.9366
 2407TIP3    H228857   4.370   2.185   7.051  0.4441 -0.4256  0.3253
 2408TIP3   OH228858   5.567   1.810   7.959  0.0851  0.6333 -0.0132
 2408TIP3    H128859   5.652   1.769   7.942 -0.0348  0.7993 -1.0258
 2408TIP3    H228860   5.590   1.898   7.990  0.3635 -0.3174  2.7530
 2409TIP3   OH228861   0.491   1.981   1.672 -0.2316  0.2793  0.5991
 2409TIP3    H128862   0.436   2.054   1.701  1.3220  0.9810  1.9649
 2409TIP3    H228863   0.429   1.914   1.645 -1.7269  1.6772  0.3783
 2410TIP3   OH228864   2.058   3.861   1.508  0.3918 -0.3230 -0.5248
 2410TIP3    H128865   2.075   3.767   1.516 -0.0473 -0.3163  0.6170
 2410TIP3    H228866   2.091   3.898   1.590 -1.3637  0.2291 -0.0274
 2411TIP3   OH228867   4.777   1.792   7.675 -0.7550  0.7588 -0.1254
 2411TIP3    H128868   4.800   1.831   7.759  0.4520 -0.3052  0.0770
 2411TIP3    H228869   4.822   1.845   7.609  1.4791 -0.6160  0.1940
 2412TIP3   OH228870   5.383   6.130   1.720  0.7370 -0.2338  0.3667
 2412TIP3    H128871   5.427   6.157   1.801  1.6156  0.7052 -0.4062
 2412TIP3    H228872   5.300   6.091   1.750 -0.0393  2.2117  1.6250
 2413TIP3   OH228873   3.176   0.590   1.499  0.4729  0.1014 -0.1942
 2413TIP3    H128874   3.157   0.582   1.592 -0.3784  0.9872 -0.2712
 2413TIP3    H228875   3.099   0.555   1.455  0.8332 -0.2354 -0.5661
 2414TIP3   OH228876   4.298   1.641   7.661 -0.0587 -0.1976  0.3934
 2414TIP3    H128877   4.249   1.613   7.584  1.3798  0.6270 -0.8608
 2414TIP3    H228878   4.259   1.591   7.733 -0.2895 -2.3269 -1.1091
 2415TIP3   OH228879   3.578   1.193   8.642 -0.0957  0.1615 -0.9318
 2415TIP3    H128880   3.557   1.125   8.577  0.8698 -0.4059 -0.6615
 2415TIP3    H228881   3.673   1.189   8.651 -0.2067  0.3009  0.4493
 2416TIP3   OH228882   3.476   5.403   7.660 -0.1907  0.4038 -0.0260
 2416TIP3    H128883   3.563   5.424   7.694 -0.4805  1.4307  0.1181
 2416TIP3    H228884   3.480   5.425   7.567 -0.2703  0.3808 -0.0350
 2417TIP3   OH228885   4.292   3.538   7.712 -0.7984 -0.2778 -0.1047
 2417TIP3    H128886   4.268   3.629   7.731  0.4406  0.1404 -0.4427
 2417TIP3    H228887   4.322   3.503   7.795 -1.2481 -0.3751  0.0194
 2418TIP3   OH228888   4.806   3.754   0.397  0.2484 -0.4349 -0.2432
 2418TIP3    H128889   4.868   3.682   0.411  0.8216  0.0922 -0.0314
 2418TIP3    H228890   4.742   3.744   0.467  0.0370 -1.0447 -0.5224
 2419TIP3   OH228891   3.302   0.798   1.046 -0.2633 -0.2283 -0.1708
 2419TIP3    H128892   3.343   0.854   1.112  1.9670 -1.9628  0.0555
 2419TIP3    H228893   3.212   0.788   1.076  0.0400  0.9928  1.2882
 2420TIP3   OH228894   1.193   0.921   1.533  0.0568  0.6970  0.0593
 2420TIP3    H128895   1.104   0.920   1.568 -0.5674  1.3610 -1.4058
 2420TIP3    H228896   1.245   0.967   1.599 -0.5180 -0.3329  1.2599
 2421TIP3   OH228897   2.433   3.729   0.945 -0.5396 -0.1342 -0.4364
 2421TIP3    H128898   2.455   3.741   1.038  1.3137 -1.3843 -0.6654
 2421TIP3    H228899   2.438   3.817   0.908 -2.0231  0.4999  0.7455
 2422TIP3   OH228900   5.244   0.843   1.196 -0.5589  0.5902  0.1318
 2422TIP3    H128901   5.281   0.884   1.275 -0.7648 -0.3313  0.7189
 2422TIP3    H228902   5.309   0.860   1.128 -0.3019  1.2565  0.5256
 2423TIP3   OH228903   4.002   3.437   8.522 -0.2366  0.5587  0.0311
 2423TIP3    H128904   3.982   3.491   8.598  3.3687  1.7656  0.3183
 2423TIP3    H228905   3.981   3.494   8.447  0.0811  0.9603  0.2410
 2424TIP3   OH228906   0.545   0.064   8.725 -0.3115 -0.0101 -0.4992
 2424TIP3    H128907   0.518   0.141   8.675  3.8823  2.3043  0.3890
 2424TIP3    H228908   0.552   0.095   8.815 -0.9591 -2.1889  0.3596
 2425TIP3   OH228909   4.231   1.833   2.424 -0.5005 -0.4392  0.2497
 2425TIP3    H128910   4.191   1.753   2.457 -0.5860 -0.0284  1.1833
 2425TIP3    H228911   4.314   1.839   2.470  0.1739 -0.7279 -0.8884
 2426TIP3   OH228912   6.690   6.710   2.199 -0.0219  0.3920  0.1229
 2426TIP3    H128913   6.756   6.706   2.269  1.2019  0.9223 -0.9619
 2426TIP3    H228914   6.679   6.804   2.183  0.5792  0.2553 -1.1732
 2427TIP3   OH228915   0.834   3.062   1.989 -0.4283  0.2047  0.3694
 2427TIP3    H128916   0.748   3.091   1.959 -0.0155  1.1509  0.0610
 2427TIP3    H228917   0.826   2.967   1.994 -1.5265  0.2807  0.4646
 2428TIP3   OH228918   6.132   6.252   1.621  0.1779  0.4374 -0.3883
 2428TIP3    H128919   6.224   6.244   1.647  0.1283  0.9247 -0.0377
 2428TIP3    H228920   6.086   6.191   1.679  0.0821  1.4408  0.6239
 2429TIP3   OH228921   6.581   1.730   8.579  0.2915 -0.2440 -0.6635
 2429TIP3    H128922   6.571   1.748   8.672  0.0847 -0.6272 -0.6099
 2429TIP3    H228923   6.574   1.635   8.571 -1.6002 -0.0976 -1.2750
 2430TIP3   OH228924   1.448   2.278   2.334 -0.7479  0.1658  0.2184
 2430TIP3    H128925   1.516   2.223   2.374  0.2049  1.7032  0.8139
 2430TIP3    H228926   1.432   2.347   2.399 -2.0118  0.5161 -0.4365
 2431TIP3   OH228927   0.162   1.781   7.564 -0.1029 -0.3815 -0.4317
 2431TIP3    H128928   0.183   1.801   7.473 -0.0851 -0.8348 -0.5298
 2431TIP3    H228929   0.236   1.728   7.595 -0.4771 -0.8882 -0.3898
 2432TIP3   OH228930   5.855   0.551   1.383  0.1987 -0.2467 -0.1173
 2432TIP3    H128931   5.774   0.530   1.430  0.4652  2.9881  2.1214
 2432TIP3    H228932   5.830   0.618   1.319  0.8494 -0.2049 -0.3418
 2433TIP3   OH228933   2.009   1.792   1.524  0.0042  0.0564  0.2343
 2433TIP3    H128934   2.065   1.736   1.576  0.2462  0.9188  0.9274
 2433TIP3    H228935   1.922   1.784   1.564  0.0544  0.2277  0.3790
 2434TIP3   OH228936   4.566   5.947   2.765 -0.4401 -0.3285  0.1596
 2434TIP3    H128937   4.653   5.953   2.803 -0.8536  1.2502  0.9521
 2434TIP3    H228938   4.581   5.942   2.671  0.5260 -1.5944  0.3537
 2435TIP3   OH228939   3.983   3.802   7.520 -0.0370 -0.7613  0.3263
 2435TIP3    H128940   3.991   3.851   7.602 -0.0947  2.4372 -1.3867
 2435TIP3    H228941   3.890   3.810   7.497  0.1877 -0.5564 -0.5798
 2436TIP3   OH228942   4.943   3.966   1.648  0.0036  0.1484 -0.1437
 2436TIP3    H128943   5.038   3.957   1.635 -0.1708 -2.2107 -0.3466
 2436TIP3    H228944   4.930   3.948   1.741 -0.2865 -0.2885 -0.2638
 2437TIP3   OH228945   4.022   1.327   8.263  0.4279  0.2187 -0.2631
 2437TIP3    H128946   4.084   1.255   8.274  1.8915  1.6340  1.4314
 2437TIP3    H228947   3.980   1.309   8.179  1.4767 -2.0271 -0.3937
 2438TIP3   OH228948   3.388   1.787   0.944 -0.2410 -0.4267  0.0674
 2438TIP3    H128949   3.454   1.760   0.879 -0.7267  0.2386 -0.7218
 2438TIP3    H228950   3.438   1.833   1.011  0.1571 -0.3296 -0.2920
 2439TIP3   OH228951   4.486   2.898   1.416  0.2666 -0.6464  0.5956
 2439TIP3    H128952   4.409   2.928   1.368 -1.5404 -1.4143  2.8114
 2439TIP3    H228953   4.495   2.961   1.488  1.9388 -0.3891  0.1863
 2440TIP3   OH228954   5.722   0.930   8.708 -0.2615  0.9920 -0.0001
 2440TIP3    H128955   5.814   0.943   8.687  0.3041 -1.0419  0.9683
 2440TIP3    H228956   5.720   0.920   8.803 -1.2776 -0.1603 -0.1080
 2441TIP3   OH228957   5.969   1.022   1.370  0.0162  0.0212  0.5604
 2441TIP3    H128958   5.876   1.012   1.390 -0.6409 -1.7104 -2.6195
 2441TIP3    H228959   6.012   0.954   1.422 -1.1318 -2.0564 -1.0352
 2442TIP3   OH228960   6.695   1.742   8.182  0.0844  0.4953 -0.0204
 2442TIP3    H128961   6.676   1.807   8.115 -2.3398  0.0734  0.1521
 2442TIP3    H228962   6.740   1.672   8.136  0.6495  1.2795 -0.6769
 2443TIP3   OH228963   4.462   6.069   0.639 -1.2556  0.6744  0.0900
 2443TIP3    H128964   4.457   6.065   0.544  0.1439 -1.2050  0.0299
 2443TIP3    H228965   4.556   6.070   0.659 -1.4459 -1.4550  1.4381
 2444TIP3   OH228966   2.369   5.026   0.659 -0.5644  0.0524  0.0973
 2444TIP3    H128967   2.368   5.044   0.565 -1.8619  0.2863  0.1362
 2444TIP3    H228968   2.356   5.111   0.700 -1.4332 -0.2401  0.4418
 2445TIP3   OH228969   5.727   4.628   0.749  0.0409  0.2429  0.0958
 2445TIP3    H128970   5.679   4.684   0.809 -2.7124 -2.3507  0.5230
 2445TIP3    H228971   5.771   4.564   0.805 -0.7112 -0.8424 -0.5263
 2446TIP3   OH228972   5.543   2.573   2.602  0.2072  1.0999 -0.3703
 2446TIP3    H128973   5.553   2.480   2.623  0.7061  1.0045 -0.9907
 2446TIP3    H228974   5.524   2.614   2.686 -1.1224  0.2872 -0.2520
 2447TIP3   OH228975   0.136   4.466   1.647  0.2970  1.1810  0.1320
 2447TIP3    H128976   0.061   4.505   1.601 -0.2142  0.4756  0.3502
 2447TIP3    H228977   0.164   4.394   1.591  0.0711  0.7146  0.6153
 2448TIP3   OH228978   6.087   3.509   0.091 -0.0164 -0.6220  0.5337
 2448TIP3    H128979   6.006   3.477   0.051 -0.3227 -0.9588  1.4000
 2448TIP3    H228980   6.088   3.603   0.071 -0.3701 -0.7036  0.1022
 2449TIP3   OH228981   1.265   5.500   0.512 -0.8329 -0.4180  0.0921
 2449TIP3    H128982   1.271   5.463   0.600 -1.4467 -0.2604  0.2083
 2449TIP3    H228983   1.242   5.592   0.526  0.1286 -0.1153 -0.2082
 2450TIP3   OH228984   4.894   1.249   8.693 -0.0474 -0.0143 -0.0273
 2450TIP3    H128985   4.970   1.296   8.729  0.1749  0.8403 -1.5048
 2450TIP3    H228986   4.915   1.237   8.600 -1.2241 -0.8085 -0.2173
 2451TIP3   OH228987   5.859   5.456   0.771  0.8731  0.9170 -0.0726
 2451TIP3    H128988   5.922   5.465   0.842 -0.0552 -1.1625  1.1423
 2451TIP3    H228989   5.804   5.382   0.798 -0.4101  0.9591 -2.3181
 2452TIP3   OH228990   3.169   5.357   1.428 -0.0809 -0.4782 -0.0927
 2452TIP3    H128991   3.136   5.326   1.513  0.7115 -1.2141 -0.0377
 2452TIP3    H228992   3.257   5.321   1.422  1.0298  2.0434  0.0705
 2453TIP3   OH228993   1.746   0.769   8.254 -0.3865  0.2491 -0.0065
 2453TIP3    H128994   1.729   0.859   8.227 -1.0286 -0.0983 -0.7861
 2453TIP3    H228995   1.825   0.744   8.205 -1.0899 -0.1131 -0.9808
 2454TIP3   OH228996   3.471   2.454   8.096  0.0128  0.7396 -0.2178
 2454TIP3    H128997   3.519   2.459   8.178 -1.6921 -0.9042  0.9604
 2454TIP3    H228998   3.413   2.530   8.097 -0.7940  0.1356  0.6744
 2455TIP3   OH228999   2.367   1.764   8.697  0.7394  0.2455 -0.0051
 2455TIP3    H129000   2.442   1.725   8.742 -0.3010 -0.7075  0.9697
 2455TIP3    H229001   2.323   1.816   8.764 -0.0893 -0.1261 -0.2449
 2456TIP3   OH229002   3.855   4.882   7.304  0.1638  0.0735  0.2415
 2456TIP3    H129003   3.922   4.893   7.237  0.9905  1.0555  1.2002
 2456TIP3    H229004   3.829   4.790   7.296  0.8358 -0.0474 -0.8539
 2457TIP3   OH229005   4.617   4.530   1.557 -0.0489 -0.1873  0.4404
 2457TIP3    H129006   4.528   4.521   1.522 -0.0485  0.2557  0.3217
 2457TIP3    H229007   4.672   4.543   1.479 -0.1242  1.4236  0.6258
 2458TIP3   OH229008   6.808   6.806   2.569  0.0417  0.4549 -0.5056
 2458TIP3    H129009   6.903   6.810   2.555  0.4811  0.7883  2.0020
 2458TIP3    H229010   6.791   6.715   2.590 -0.3154  0.2830 -1.4939
 2459TIP3   OH229011   0.609   5.770   2.510  0.4889  0.1427 -0.5047
 2459TIP3    H129012   0.517   5.784   2.487 -0.1542 -2.3727  0.2535
 2459TIP3    H229013   0.617   5.808   2.598  0.8419  2.4255 -1.4521
 2460TIP3   OH229014   2.394   3.449   8.812  0.2633 -0.0691  0.4872
 2460TIP3    H129015   2.385   3.544   8.816  2.6714  0.2294  0.4194
 2460TIP3    H229016   2.488   3.434   8.820  0.2467 -2.2982 -2.2266
 2461TIP3   OH229017   4.980   3.818   0.849 -0.2190 -0.5587 -0.6452
 2461TIP3    H129018   4.994   3.910   0.875 -1.3690 -0.5765  0.1185
 2461TIP3    H229019   5.022   3.811   0.763  1.1023  0.3081 -0.0990
 2462TIP3   OH229020   2.328   3.776   0.452 -0.1544  0.4545 -0.4069
 2462TIP3    H129021   2.356   3.723   0.377  2.0950 -0.2975  0.8695
 2462TIP3    H229022   2.383   3.855   0.447  1.9666 -0.7378  1.7653
 2463TIP3   OH229023   3.364   2.159   0.856  0.5804  0.2745 -0.0313
 2463TIP3    H129024   3.427   2.089   0.874  2.1056  1.0127 -2.0643
 2463TIP3    H229025   3.411   2.240   0.875 -0.3595  0.8114  0.0801
 2464TIP3   OH229026   0.882   4.986   2.045  0.1519  0.3980 -0.3080
 2464TIP3    H129027   0.889   4.933   2.124  1.6959  0.7591 -0.1720
 2464TIP3    H229028   0.944   4.946   1.984 -2.1112 -0.8410 -1.9692
 2465TIP3   OH229029   6.665   0.352   1.921 -0.2255 -0.6815 -0.3030
 2465TIP3    H129030   6.601   0.349   1.849  1.3554 -1.1439 -1.7558
 2465TIP3    H229031   6.690   0.444   1.927 -1.0461 -0.4884  0.3126
 2466TIP3   OH229032   4.524   2.480   1.378  0.4769 -0.5211  0.2349
 2466TIP3    H129033   4.604   2.453   1.333  0.4697 -0.5121  0.2162
 2466TIP3    H229034   4.521   2.427   1.457  1.0661  0.2430  0.7894
 2467TIP3   OH229035   3.184   4.117   2.230  0.0957 -0.0673 -0.0845
 2467TIP3    H129036   3.089   4.109   2.221  0.0403  0.7509 -0.3025
 2467TIP3    H229037   3.211   4.035   2.270 -0.9015  0.3312  1.4923
 2468TIP3   OH229038   4.474   0.505   1.275 -0.6270  0.4396  0.2375
 2468TIP3    H129039   4.543   0.559   1.313  1.1443 -1.2859 -0.3331
 2468TIP3    H229040   4.435   0.560   1.206  1.8204  0.7056 -1.0618
 2469TIP3   OH229041   2.820   0.721   2.394  0.2977  0.3726  0.1241
 2469TIP3    H129042   2.890   0.786   2.407 -0.0764  1.2528 -1.8872
 2469TIP3    H229043   2.862   0.652   2.342  0.4122 -0.5472  1.3868
 2470TIP3   OH229044   0.206   2.141   8.817  0.3765 -0.2009  0.1846
 2470TIP3    H129045   0.172   2.072   8.760  0.9712 -0.8627  0.6229
 2470TIP3    H229046   0.241   2.206   8.756 -0.0596 -0.3452 -0.2291
 2471TIP3   OH229047   0.352   2.637   1.367 -0.2663 -0.9339 -0.2649
 2471TIP3    H129048   0.288   2.621   1.298  0.1651  0.5960 -1.0664
 2471TIP3    H229049   0.427   2.676   1.322 -0.8745  2.3223  1.2712
 2472TIP3   OH229050   2.193   5.206   7.766 -0.3464  0.3945  0.3053
 2472TIP3    H129051   2.259   5.216   7.697 -0.5297  1.2731  0.2520
 2472TIP3    H229052   2.222   5.129   7.815  0.9375  0.9832  0.5143
 2473TIP3   OH229053   5.008   0.021   2.177 -0.0227 -0.4598 -0.1723
 2473TIP3    H129054   5.030   0.017   2.270 -1.2087 -2.4513  0.0786
 2473TIP3    H229055   4.936   0.084   2.171  1.9836  1.9474 -0.2305
 2474TIP3   OH229056   6.757   0.968   8.795  0.2894 -0.1923 -0.3546
 2474TIP3    H129057   6.679   0.914   8.785 -0.2789  0.3951  0.7358
 2474TIP3    H229058   6.830   0.908   8.780 -0.3523 -0.9423 -0.5230
 2475TIP3   OH229059   6.364   6.267   1.088 -0.1104 -0.1825  0.4572
 2475TIP3    H129060   6.353   6.207   1.162 -2.4386 -0.1642  0.2051
 2475TIP3    H229061   6.370   6.211   1.011  0.1102 -0.1497  0.4505
 2476TIP3   OH229062   2.086   3.867   7.425  0.1816  0.0863  0.0477
 2476TIP3    H129063   2.007   3.825   7.390  0.7020 -0.0687 -1.0062
 2476TIP3    H229064   2.157   3.829   7.373  1.1470 -1.0390  2.0825
 2477TIP3   OH229065   1.445   2.401   0.503  0.2958  0.2077  0.3879
 2477TIP3    H129066   1.510   2.446   0.558 -0.4719  1.4682  0.3008
 2477TIP3    H229067   1.497   2.339   0.452  1.2822  0.3773  1.1385
 2478TIP3   OH229068   2.765   3.086   1.694  0.1377 -0.8299 -1.0670
 2478TIP3    H129069   2.691   3.047   1.740  0.6115  0.6081  1.1165
 2478TIP3    H229070   2.835   3.087   1.760  0.9015  1.2755 -1.8291
 2479TIP3   OH229071   5.730   2.795   2.579  0.2980  0.7549  0.1307
 2479TIP3    H129072   5.650   2.846   2.564  1.0255  1.5220 -1.3596
 2479TIP3    H229073   5.699   2.712   2.615 -0.9320  2.2282  2.7795
 2480TIP3   OH229074   1.738   2.861   2.091  0.2999  0.2116 -0.3414
 2480TIP3    H129075   1.685   2.819   2.022 -0.3474  0.8606 -0.2479
 2480TIP3    H229076   1.811   2.801   2.104 -0.4947 -0.7944 -0.3670
 2481TIP3   OH229077   1.226   4.414   1.518  0.0802 -0.2752  0.0737
 2481TIP3    H129078   1.207   4.506   1.536  0.0480 -0.3230  0.2874
 2481TIP3    H229079   1.204   4.369   1.599 -3.3939 -0.9908 -1.1365
 2482TIP3   OH229080   5.791   4.232   0.700 -0.5180 -0.5841  0.2573
 2482TIP3    H129081   5.804   4.142   0.730  0.3104 -0.2816  0.8204
 2482TIP3    H229082   5.700   4.234   0.671 -1.1941 -1.0462  2.2207
 2483TIP3   OH229083   5.812   2.516   2.185 -0.2127  1.0000  0.2442
 2483TIP3    H129084   5.799   2.439   2.241 -1.2885  1.5423  0.7592
 2483TIP3    H229085   5.884   2.491   2.127 -1.0789 -0.7320 -0.1657
 2484TIP3   OH229086   5.863   5.254   8.208 -0.1866  0.2564 -0.3449
 2484TIP3    H129087   5.865   5.222   8.298 -0.7684 -0.3555 -0.5449
 2484TIP3    H229088   5.781   5.302   8.201 -0.4707 -0.2890 -0.7483
 2485TIP3   OH229089   1.664   0.885   0.022 -0.4698  0.0741  0.0683
 2485TIP3    H129090   1.734   0.917  -0.034  0.1662 -1.6658 -0.2001
 2485TIP3    H229091   1.710   0.840   0.093 -1.3050 -0.4875  0.2617
 2486TIP3   OH229092   1.818   5.281   6.769 -0.1926 -0.2396  0.1854
 2486TIP3    H129093   1.774   5.198   6.788  0.3434 -1.6376 -3.6344
 2486TIP3    H229094   1.900   5.255   6.727 -0.3473  2.1167 -1.8123
 2487TIP3   OH229095   1.872   6.777   0.993  0.5061 -0.8690  0.0086
 2487TIP3    H129096   1.931   6.742   0.927  0.4743 -1.4324  0.2733
 2487TIP3    H229097   1.930   6.813   1.060  0.5400 -0.7330 -0.0925
 2488TIP3   OH229098   5.174   3.659   2.500 -0.7133 -0.1835 -0.4027
 2488TIP3    H129099   5.094   3.617   2.529 -1.8349  0.7946 -1.9104
 2488TIP3    H229100   5.148   3.749   2.479  0.5165 -0.1205 -1.8771
 2489TIP3   OH229101   0.874   5.480   3.232 -0.4550 -0.1242 -0.7962
 2489TIP3    H129102   0.898   5.572   3.241 -0.3739  0.0189 -2.2129
 2489TIP3    H229103   0.811   5.464   3.302  0.0938  0.8050 -0.0721
 2490TIP3   OH229104   1.874   4.142   0.682 -0.4163  0.0222 -0.4233
 2490TIP3    H129105   1.889   4.149   0.588 -1.9157  3.1357 -0.5705
 2490TIP3    H229106   1.918   4.219   0.719  2.4602 -2.4901  1.9047
 2491TIP3   OH229107   0.313   3.562   0.403  0.2833 -0.0136  0.1248
 2491TIP3    H129108   0.253   3.540   0.332 -1.3918  1.1708  1.0793
 2491TIP3    H229109   0.394   3.516   0.382 -0.7682 -1.2165 -1.5402
 2492TIP3   OH229110   2.845   0.451   7.933 -0.0162  0.3402 -0.2481
 2492TIP3    H129111   2.891   0.368   7.922 -1.0728 -0.1396 -1.2169
 2492TIP3    H229112   2.910   0.517   7.911  1.8450  0.0369  3.4606
 2493TIP3   OH229113   2.261   6.480   6.873 -0.6902 -0.4519 -0.1615
 2493TIP3    H129114   2.209   6.472   6.953 -0.2299 -1.4177  0.0587
 2493TIP3    H229115   2.301   6.568   6.879 -0.2396 -0.7075  0.9391
 2494TIP3   OH229116   2.560   6.608   7.801 -0.1621  0.0356 -0.8182
 2494TIP3    H129117   2.624   6.568   7.860 -1.3986  1.0311  1.3410
 2494TIP3    H229118   2.611   6.632   7.723  2.1053  0.6841  0.7438
 2495TIP3   OH229119   6.610   6.792   3.055  0.5191 -0.1255 -1.0662
 2495TIP3    H129120   6.630   6.805   2.962  0.8014  0.3633 -0.9413
 2495TIP3    H229121   6.652   6.709   3.078  1.8229  0.5249 -0.9887
 2496TIP3   OH229122   0.511   4.751   6.717  0.0937  0.4492  0.3623
 2496TIP3    H129123   0.506   4.772   6.624 -0.5465  0.2468  0.3448
 2496TIP3    H229124   0.422   4.763   6.749 -0.0129 -0.8535  0.6365
 2497TIP3   OH229125   0.143   1.905   2.795  0.6733 -0.6922 -0.3748
 2497TIP3    H129126   0.050   1.892   2.815  0.2771 -0.3686 -1.8353
 2497TIP3    H229127   0.150   1.997   2.770  1.9211  0.0012  2.1899
 2498TIP3   OH229128   2.156   3.119   8.814 -0.2203 -0.9842  0.0927
 2498TIP3    H129129   2.066   3.150   8.823 -0.4567 -1.8496  0.7876
 2498TIP3    H229130   2.205   3.169   8.879 -0.1244 -0.2764 -0.5082
 2499TIP3   OH229131   1.995   0.096   2.172 -0.3060 -0.2291  0.4974
 2499TIP3    H129132   1.989   0.126   2.082  1.1665 -1.1944  0.0335
 2499TIP3    H229133   1.940   0.018   2.176  0.4036 -0.7576  0.1496
 2500TIP3   OH229134   3.359   5.545   2.037 -0.1545 -0.3131 -0.7941
 2500TIP3    H129135   3.387   5.549   2.128 -0.1138 -0.8940 -0.7788
 2500TIP3    H229136   3.348   5.637   2.011 -0.8509 -0.1637  0.0029
 2501TIP3   OH229137   1.804   1.089   7.437 -0.1763  0.0405 -0.1451
 2501TIP3    H129138   1.813   0.998   7.409 -0.3182  0.5952 -2.1525
 2501TIP3    H229139   1.884   1.108   7.486  0.1318 -0.9825 -0.2358
 2502TIP3   OH229140   5.435   0.822   7.967 -0.3338  0.2494  0.3784
 2502TIP3    H129141   5.447   0.732   7.937 -1.5477  0.0491  0.4714
 2502TIP3    H229142   5.393   0.867   7.894  0.0225  0.6784  0.4324
 2503TIP3   OH229143   5.751   4.942   8.614  0.2190 -0.3698  0.2919
 2503TIP3    H129144   5.695   4.900   8.549 -1.2943 -0.2298  1.4470
 2503TIP3    H229145   5.714   4.916   8.698 -0.6726  2.9866  1.0798
 2504TIP3   OH229146   4.447   5.169   7.980 -0.3910 -0.1322 -0.0780
 2504TIP3    H129147   4.518   5.129   8.030 -0.9064 -0.1023  0.6875
 2504TIP3    H229148   4.481   5.254   7.953  0.4696 -0.7827 -1.1519
 2505TIP3   OH229149   2.145   3.606   2.257 -0.8089 -0.2897 -0.1197
 2505TIP3    H129150   2.082   3.535   2.264 -0.1166 -0.8558  0.4063
 2505TIP3    H229151   2.223   3.575   2.302 -0.8602  1.2372  1.1042
 2506TIP3   OH229152   2.904   6.277   1.687 -0.1337 -0.6980 -0.1179
 2506TIP3    H129153   2.940   6.283   1.599 -1.8832 -2.9983 -1.0965
 2506TIP3    H229154   2.932   6.192   1.719  1.1297  0.3968  1.9483
 2507TIP3   OH229155   4.914   5.196   0.398  0.5474 -0.2186 -0.0572
 2507TIP3    H129156   4.922   5.180   0.304 -2.2483 -1.2391 -0.2129
 2507TIP3    H229157   4.820   5.211   0.412  0.9529  0.3982  2.5161
 2508TIP3   OH229158   5.146   6.735   8.393  0.3213  0.4239  0.1191
 2508TIP3    H129159   5.194   6.807   8.433 -0.7881  0.8716  0.6732
 2508TIP3    H229160   5.156   6.662   8.454  1.2059  0.1765 -0.3047
 2509TIP3   OH229161   1.990   1.252   0.532  0.4226  1.3592  0.6049
 2509TIP3    H129162   2.014   1.304   0.455  0.5267 -0.4512 -0.6581
 2509TIP3    H229163   1.900   1.224   0.514  0.9345 -0.2689  0.3959
 2510TIP3   OH229164   1.784   2.530   0.932 -0.3609  0.8465  0.2898
 2510TIP3    H129165   1.765   2.568   1.018 -0.7774 -0.9963  1.0692
 2510TIP3    H229166   1.877   2.507   0.936 -0.4536  0.4702  0.3941
 2511TIP3   OH229167   6.179   0.761   2.916 -0.6246 -0.5484  0.2801
 2511TIP3    H129168   6.233   0.723   2.986  0.0840 -0.2432 -0.0881
 2511TIP3    H229169   6.239   0.770   2.842 -0.4288  2.3126  0.6865
 2512TIP3   OH229170   3.465   6.386   0.579  0.1875 -0.1954 -0.1721
 2512TIP3    H129171   3.528   6.444   0.623  1.4477 -1.3519 -0.3645
 2512TIP3    H229172   3.423   6.339   0.651  0.2623 -0.1270 -0.0816
 2513TIP3   OH229173   5.667   6.663   0.676 -0.1626  0.2757 -0.0934
 2513TIP3    H129174   5.658   6.758   0.678 -0.7808  0.2454  2.6204
 2513TIP3    H229175   5.761   6.647   0.685 -0.0909  0.6385 -0.2014
 2514TIP3   OH229176   1.594   0.869   0.550  0.2367 -0.2246 -0.1238
 2514TIP3    H129177   1.505   0.833   0.548  0.2841 -0.3552  0.0642
 2514TIP3    H229178   1.590   0.947   0.495 -0.1120  0.0427  0.2728
 2515TIP3   OH229179   6.241   4.249   8.345  0.3182 -0.1298 -0.0394
 2515TIP3    H129180   6.273   4.339   8.343  1.2488 -0.4634 -1.3577
 2515TIP3    H229181   6.314   4.196   8.312 -0.7256 -1.2017 -0.7255
 2516TIP3   OH229182   5.241   2.540   0.842 -0.3252 -0.0183  0.0379
 2516TIP3    H129183   5.272   2.627   0.817 -0.6512 -0.5246 -2.3976
 2516TIP3    H229184   5.151   2.554   0.871 -0.4585  0.4406 -0.5701
 2517TIP3   OH229185   3.152   0.222   7.359  0.2218  0.0276 -0.1230
 2517TIP3    H129186   3.182   0.153   7.300 -2.3382  1.0103 -2.8486
 2517TIP3    H229187   3.156   0.302   7.307 -1.2445  1.1392  1.3495
 2518TIP3   OH229188   3.040   1.007   1.578  0.1649  0.1456 -0.4643
 2518TIP3    H129189   3.088   1.088   1.562  0.3946  0.4076  1.2565
 2518TIP3    H229190   3.070   0.979   1.665 -1.4075 -0.6999 -0.1656
 2519TIP3   OH229191   6.775   2.829   1.582 -0.2650 -0.0671  0.3386
 2519TIP3    H129192   6.858   2.835   1.629  0.1207  0.4875 -0.3954
 2519TIP3    H229193   6.780   2.745   1.535  0.7180  0.8195 -1.2184
 2520TIP3   OH229194   2.020   6.134   8.487  0.3500 -0.2803 -0.0563
 2520TIP3    H129195   2.012   6.178   8.403  1.0190  0.4905  0.2633
 2520TIP3    H229196   1.994   6.200   8.551 -0.3735 -0.9322  0.3362
 2521TIP3   OH229197   5.904   3.162   0.836 -0.1146  0.3256 -0.2859
 2521TIP3    H129198   5.872   3.246   0.869  1.9385  0.6253  1.1555
 2521TIP3    H229199   5.988   3.183   0.794 -0.6017 -0.7195 -1.8509
 2522TIP3   OH229200   2.370   3.508   2.008 -0.6533 -0.0248  0.2294
 2522TIP3    H129201   2.463   3.490   2.018 -0.5774  1.0630  1.7718
 2522TIP3    H229202   2.363   3.556   1.925  0.5493  2.0725  1.2482
 2523TIP3   OH229203   1.861   1.175   7.802 -0.3017  0.1906  0.9705
 2523TIP3    H129204   1.871   1.208   7.892 -0.4232  1.9172  0.3826
 2523TIP3    H229205   1.922   1.101   7.797  0.6353  0.8365  2.1154
 2524TIP3   OH229206   4.994   6.020   8.410 -0.0612 -0.4320 -0.3369
 2524TIP3    H129207   5.031   5.946   8.361 -1.8954 -2.6441  1.3804
 2524TIP3    H229208   4.917   6.045   8.360 -1.0410 -1.6373  0.5168
 2525TIP3   OH229209   1.310   6.357   2.012  0.7133 -0.5508  0.0711
 2525TIP3    H129210   1.255   6.333   2.087 -0.3503 -0.7596 -0.7448
 2525TIP3    H229211   1.274   6.307   1.939  1.0969  0.3779 -0.7890
 2526TIP3   OH229212   1.622   2.296   8.220 -0.6273 -0.4910 -0.3149
 2526TIP3    H129213   1.563   2.318   8.292  1.2745  1.1981  0.8127
 2526TIP3    H229214   1.630   2.200   8.223  0.3602 -0.3922  2.5582
 2527TIP3   OH229215   4.363   6.254   8.076 -0.0571 -0.6027 -0.0549
 2527TIP3    H129216   4.367   6.188   8.006 -1.6629  0.9650 -1.7183
 2527TIP3    H229217   4.298   6.317   8.046  0.4744  1.0726  2.0868
 2528TIP3   OH229218   1.455   0.716   7.936  0.1408  0.1935  0.2467
 2528TIP3    H129219   1.387   0.649   7.944  1.7837 -1.3845  2.0099
 2528TIP3    H229220   1.424   0.788   7.990 -0.7767  0.1023 -0.1451
 2529TIP3   OH229221   4.292   3.243   7.877  0.1166  0.2794 -0.5474
 2529TIP3    H129222   4.221   3.292   7.918  0.1141  2.3833 -2.8884
 2529TIP3    H229223   4.300   3.279   7.789  2.1099 -1.9716 -1.4187
 2530TIP3   OH229224   4.380   0.856   7.866 -0.2364  0.0764 -0.4631
 2530TIP3    H129225   4.291   0.846   7.898  0.8332  0.9295  3.2608
 2530TIP3    H229226   4.422   0.772   7.884  0.4790  0.6869  0.9416
 2531TIP3   OH229227   4.396   4.139   1.141 -0.4200  0.0865  0.3958
 2531TIP3    H129228   4.364   4.087   1.215  1.4448 -0.5606  0.8050
 2531TIP3    H229229   4.318   4.181   1.106 -2.4586 -4.2358 -1.0050
 2532TIP3   OH229230   2.325   0.923   0.803  0.0307  0.6753  0.8129
 2532TIP3    H129231   2.234   0.949   0.791 -0.7882 -1.2579  2.3037
 2532TIP3    H229232   2.344   0.942   0.895  0.7387  0.0219  0.8162
 2533TIP3   OH229233   1.187   0.228   2.978 -0.0284  0.0584 -0.0117
 2533TIP3    H129234   1.267   0.219   3.029  0.8177 -0.0053 -1.2942
 2533TIP3    H229235   1.215   0.270   2.897 -1.0745 -1.0500 -0.9905
 2534TIP3   OH229236   4.910   3.035   2.740 -0.2407  0.2106 -0.5735
 2534TIP3    H129237   4.863   3.040   2.823 -0.7525  0.4955 -0.8797
 2534TIP3    H229238   4.987   2.981   2.760  0.1855  1.1334  0.3300
 2535TIP3   OH229239   4.643   5.673   8.548 -0.4374 -0.2304  0.1371
 2535TIP3    H129240   4.649   5.583   8.581 -0.7364 -0.3015  0.0057
 2535TIP3    H229241   4.727   5.688   8.505 -0.7184 -0.7658 -0.6219
 2536TIP3   OH229242   6.688   6.755   7.205  0.2179 -0.2500  0.6705
 2536TIP3    H129243   6.739   6.819   7.254  1.4148 -0.6387 -0.0374
 2536TIP3    H229244   6.724   6.757   7.116 -2.8055  1.4679 -0.6834
 2537TIP3   OH229245   6.176   0.921   7.449  0.2207 -0.4372 -0.1278
 2537TIP3    H129246   6.207   0.954   7.533  0.0018 -0.2382 -0.1230
 2537TIP3    H229247   6.255   0.895   7.402  0.3722 -0.1846 -0.0103
 2538TIP3   OH229248   2.875   6.598   7.201 -0.0055  0.1020 -0.9400
 2538TIP3    H129249   2.817   6.522   7.209  0.9020 -0.8423 -2.6487
 2538TIP3    H229250   2.962   6.565   7.222  0.3199  0.8108 -1.1168
 2539TIP3   OH229251   3.555   6.098   0.778 -0.0194 -0.1546 -0.1544
 2539TIP3    H129252   3.595   6.099   0.691  0.1754 -0.1898 -0.0655
 2539TIP3    H229253   3.493   6.025   0.775  1.6406 -1.6549  0.4696
 2540TIP3   OH229254   5.050   2.541   0.352  0.5021 -0.1338  0.1035
 2540TIP3    H129255   4.971   2.591   0.329  0.5238  0.7141  1.7401
 2540TIP3    H229256   5.086   2.587   0.428  1.3926 -1.7513  0.6939
 2541TIP3   OH229257   0.202   5.747   2.313  0.0882  0.2002 -0.1700
 2541TIP3    H129258   0.286   5.784   2.285  1.3387 -1.4745  1.0836
 2541TIP3    H229259   0.211   5.738   2.408 -2.0645  1.1829  0.1691
 2542TIP3   OH229260   0.834   5.256   2.044  0.3888 -0.1679  0.5152
 2542TIP3    H129261   0.741   5.260   2.068  0.4506  2.2027  0.6006
 2542TIP3    H229262   0.853   5.162   2.038 -1.2412 -0.8208  3.4614
 2543TIP3   OH229263   3.045   6.816   7.969  0.2586  0.3072  0.0264
 2543TIP3    H129264   3.136   6.796   7.991  0.3309  2.0682  1.6228
 2543TIP3    H229265   3.009   6.854   8.049 -1.4534  1.0019 -1.0245
 2544TIP3   OH229266   1.231   5.881   1.371 -0.3758 -0.4120  0.2268
 2544TIP3    H129267   1.312   5.926   1.345 -0.3742  0.1133  1.0893
 2544TIP3    H229268   1.219   5.813   1.305  1.1405 -0.9313  0.4473
 2545TIP3   OH229269   2.589   3.228   0.268  0.2035  0.8514  0.0764
 2545TIP3    H129270   2.615   3.318   0.284  0.4551  1.3086 -2.4264
 2545TIP3    H229271   2.500   3.235   0.233  1.2775  0.5431 -3.0698
 2546TIP3   OH229272   3.904   2.123   1.733  0.3869  0.0925 -0.1352
 2546TIP3    H129273   3.816   2.087   1.732 -0.7055  2.5767 -0.0023
 2546TIP3    H229274   3.959   2.052   1.699 -1.8405 -1.0292 -1.6276
 2547TIP3   OH229275   4.213   6.024   1.444  0.6725  0.0092 -1.0473
 2547TIP3    H129276   4.237   6.044   1.534  0.0619  1.2948 -1.1489
 2547TIP3    H229277   4.131   6.072   1.429  1.6902  1.3432 -2.8158
 2548TIP3   OH229278   1.034   6.239   0.196 -0.4862  0.3239  0.2598
 2548TIP3    H129279   1.110   6.181   0.197 -0.1903  0.7108  0.5869
 2548TIP3    H229280   0.999   6.234   0.284  0.1127  1.3745  0.5753
 2549TIP3   OH229281   1.395   2.722   1.416  0.1893  0.2510 -0.0974
 2549TIP3    H129282   1.473   2.668   1.401  0.9387  1.4422 -0.7233
 2549TIP3    H229283   1.328   2.660   1.444  1.5939 -0.6988  1.3474
 2550TIP3   OH229284   5.893   6.429   0.031 -0.1452 -0.2270 -0.0361
 2550TIP3    H129285   5.969   6.379   0.062 -0.1986 -0.5245 -0.3777
 2550TIP3    H229286   5.823   6.364   0.027 -0.7425  0.2796  1.4210
 2551TIP3   OH229287   2.209   5.074   2.424 -0.2430 -0.3680  0.2184
 2551TIP3    H129288   2.287   5.028   2.394  0.0320  0.2307 -0.0126
 2551TIP3    H229289   2.241   5.137   2.489 -0.3548  0.6449 -0.6672
 2552TIP3   OH229290   0.272   3.992   1.420 -0.0579  0.2674  0.6598
 2552TIP3    H129291   0.208   3.921   1.410 -0.4757  0.7571 -0.2177
 2552TIP3    H229292   0.350   3.959   1.376 -0.4116  0.5427 -0.1870
 2553TIP3   OH229293   2.210   3.716   8.531  0.3452 -0.6129  0.1856
 2553TIP3    H129294   2.231   3.688   8.620 -2.0390 -3.9018 -0.1127
 2553TIP3    H229295   2.123   3.755   8.539 -0.0322 -1.2487 -0.6962
 2554TIP3   OH229296   3.665   6.413   2.911  0.0099 -0.1389 -0.0361
 2554TIP3    H129297   3.661   6.491   2.855  1.1228 -1.3426 -1.9018
 2554TIP3    H229298   3.759   6.399   2.926 -0.2365 -0.3744  1.4033
 2555TIP3   OH229299   3.302   3.329   8.490 -0.1089  0.1698  0.5389
 2555TIP3    H129300   3.250   3.406   8.515 -1.7470 -0.8892  0.5398
 2555TIP3    H229301   3.317   3.340   8.396  2.7175  2.1934  1.0876
 2556TIP3   OH229302   5.631   4.127   8.784  0.3502 -0.6090 -0.3552
 2556TIP3    H129303   5.665   4.207   8.825  1.8899 -1.0629 -0.6841
 2556TIP3    H229304   5.598   4.157   8.699  2.4665 -0.5039 -1.2247
 2557TIP3   OH229305   5.241   1.189   1.162  0.3477 -0.5275 -0.2196
 2557TIP3    H129306   5.240   1.139   1.080  0.7630 -1.0178  0.0705
 2557TIP3    H229307   5.325   1.167   1.202  0.7068  0.6785 -0.2547
 2558TIP3   OH229308   5.358   5.260   7.687 -0.0550  0.1819  0.1131
 2558TIP3    H129309   5.364   5.356   7.682 -1.5972  0.4092  1.7386
 2558TIP3    H229310   5.428   5.236   7.748 -0.0845  0.3467  0.2147
 2559TIP3   OH229311   6.671   3.544   1.254  0.0579 -0.2287 -0.1478
 2559TIP3    H129312   6.656   3.491   1.176  1.7690 -0.4646 -0.3707
 2559TIP3    H229313   6.760   3.577   1.243 -0.1613  0.8222  1.0846
 2560TIP3   OH229314   2.560   0.827   7.580  0.4413  0.3455  0.5591
 2560TIP3    H129315   2.539   0.739   7.549  2.4739 -0.4207  1.2166
 2560TIP3    H229316   2.631   0.814   7.643  0.2893  2.3945  1.2260
 2561TIP3   OH229317   3.131   2.686   7.429  0.0020  0.0681  0.3420
 2561TIP3    H129318   3.211   2.638   7.451 -0.7997 -1.6163 -0.2540
 2561TIP3    H229319   3.066   2.618   7.413 -1.5882  1.4031  0.8673
 2562TIP3   OH229320   0.265   4.462   0.450 -0.6872 -0.1951 -0.9230
 2562TIP3    H129321   0.321   4.390   0.479 -1.4717 -0.4995 -0.0940
 2562TIP3    H229322   0.268   4.459   0.355  0.7148 -0.1774 -0.8988
 2563TIP3   OH229323   4.598   0.813   0.934 -0.5027 -0.1839 -0.0169
 2563TIP3    H129324   4.520   0.798   0.987  0.1150 -3.0322  0.2611
 2563TIP3    H229325   4.669   0.769   0.982  0.6595 -0.2577 -1.7085
 2564TIP3   OH229326   3.000   3.743   3.090  0.2937  0.3506  0.1453
 2564TIP3    H129327   3.085   3.727   3.049  0.5056  0.9596  0.3367
 2564TIP3    H229328   2.997   3.837   3.104  0.7689  0.0615  2.6920
 2565TIP3   OH229329   0.743   1.197   7.953  0.5560 -0.2339  0.4271
 2565TIP3    H129330   0.707   1.131   8.012  1.1838 -0.2879  0.7652
 2565TIP3    H229331   0.696   1.278   7.975 -1.7152 -0.9531 -1.4030
 2566TIP3   OH229332   2.941   2.912   0.163 -0.1070 -0.3240  0.8641
 2566TIP3    H129333   2.989   2.876   0.088 -1.1837  0.4465 -0.2339
 2566TIP3    H229334   2.909   2.835   0.210 -0.8332 -0.8218 -0.4201
 2567TIP3   OH229335   0.432   6.118   2.450 -0.0967  0.9185 -0.0945
 2567TIP3    H129336   0.427   6.111   2.545 -0.2506  0.3444 -0.1433
 2567TIP3    H229337   0.417   6.029   2.418  0.3891  1.0228 -0.6409
 2568TIP3   OH229338   5.180   0.174   0.779  1.0299 -0.3119  0.2810
 2568TIP3    H129339   5.228   0.109   0.727 -0.9743 -1.2691 -0.4785
 2568TIP3    H229340   5.148   0.125   0.855 -0.2781 -0.1804 -0.1625
 2569TIP3   OH229341   4.776   2.669   0.634 -0.1944  0.7152 -0.2454
 2569TIP3    H129342   4.849   2.728   0.617  0.0509  0.2269 -0.9594
 2569TIP3    H229343   4.746   2.643   0.547 -0.2106 -0.3109  0.0580
 2570TIP3   OH229344   1.528   5.254   7.326 -0.0746 -0.1217  0.5438
 2570TIP3    H129345   1.612   5.229   7.365  1.0985  0.1080 -1.7039
 2570TIP3    H229346   1.476   5.174   7.326  1.7364 -1.3998 -1.8619
 2571TIP3   OH229347   3.603   0.071   8.587  0.6256 -0.6158  0.1305
 2571TIP3    H129348   3.602  -0.011   8.637 -0.5463 -1.0183 -0.5039
 2571TIP3    H229349   3.689   0.074   8.546  2.6104  0.8209  3.8339
 2572TIP3   OH229350   4.308   0.640   0.832  0.0829  0.2638  0.0455
 2572TIP3    H129351   4.222   0.677   0.813 -0.2058 -0.4638 -0.1152
 2572TIP3    H229352   4.362   0.665   0.757  0.1117  1.0167  0.3121
 2573TIP3   OH229353   3.485   2.309   7.377 -0.6566 -0.7350 -0.0321
 2573TIP3    H129354   3.407   2.297   7.323 -0.2241 -0.4587 -0.7358
 2573TIP3    H229355   3.558   2.305   7.315 -0.0015 -2.4176  0.7799
 2574TIP3   OH229356   2.981   2.709   1.080  0.4827  0.1758 -0.2991
 2574TIP3    H129357   2.906   2.680   1.133 -0.6248  0.8294 -1.4705
 2574TIP3    H229358   3.036   2.759   1.141  0.3630 -0.9282  0.7474
 2575TIP3   OH229359   2.668   4.849   0.080  0.0460  0.0074  0.3593
 2575TIP3    H129360   2.596   4.911   0.069 -1.3344 -1.2453  1.7940
 2575TIP3    H229361   2.747   4.902   0.070 -1.0250  1.4095 -1.3943
 2576TIP3   OH229362   4.389   6.582   8.196 -0.4071 -0.0558 -0.2617
 2576TIP3    H129363   4.348   6.551   8.116 -0.1733  1.1181 -0.8548
 2576TIP3    H229364   4.323   6.637   8.237 -0.5322 -0.6593  0.3805
 2577TIP3   OH229365   0.778   1.925   8.622  0.2853 -0.2175 -0.1434
 2577TIP3    H129366   0.854   1.927   8.565  0.7554 -0.8390  0.4405
 2577TIP3    H229367   0.811   1.890   8.705 -0.4712  0.2629  0.3698
 2578TIP3   OH229368   0.057   1.142   0.509 -0.0042 -0.2295 -0.1688
 2578TIP3    H129369   0.024   1.059   0.544  0.4872 -0.7015 -0.7885
 2578TIP3    H229370   0.030   1.208   0.573 -1.2550 -0.7268 -0.1618
 2579TIP3   OH229371   3.837   1.000   7.749  0.5398 -0.2943 -0.2073
 2579TIP3    H129372   3.904   1.041   7.803  0.7799 -0.6669 -0.2180
 2579TIP3    H229373   3.875   0.996   7.661 -0.0839  0.8610 -0.5439
 2580TIP3   OH229374   3.843   4.013   0.114 -0.3873  0.3686  0.3892
 2580TIP3    H129375   3.867   3.999   0.206  0.0693  0.6407  0.3173
 2580TIP3    H229376   3.848   4.108   0.102 -0.7355  0.3593  0.1591
 2581TIP3   OH229377   5.144   3.997   7.572 -0.4575 -0.7743  0.1238
 2581TIP3    H129378   5.112   3.932   7.635 -0.1136 -0.8918  0.1831
 2581TIP3    H229379   5.141   3.952   7.488  0.2872 -1.0581  0.2397
 2582TIP3   OH229380   1.495   3.446   2.013 -0.0767  0.3071  0.3193
 2582TIP3    H129381   1.484   3.379   2.081 -0.9792  1.1935  1.0778
 2582TIP3    H229382   1.408   3.453   1.973  1.0084 -2.2987 -3.0354
 2583TIP3   OH229383   5.707   1.885   7.627  0.4396  0.1357  0.1172
 2583TIP3    H129384   5.672   1.944   7.560 -0.7102  2.2942  2.4118
 2583TIP3    H229385   5.642   1.816   7.635  1.2297 -0.8921 -1.8163
 2584TIP3   OH229386   3.207   3.967   1.711  0.2079 -0.6457 -0.0036
 2584TIP3    H129387   3.133   3.991   1.767  2.6425  1.0426  2.7817
 2584TIP3    H229388   3.218   4.042   1.652 -1.4590 -1.7977 -1.8930
 2585TIP3   OH229389   6.617   1.467   1.192 -0.0643 -0.2808  0.1747
 2585TIP3    H129390   6.705   1.505   1.186  0.1780 -0.7625  0.6066
 2585TIP3    H229391   6.560   1.540   1.216 -0.2428  0.6374 -2.6600
 2586TIP3   OH229392   1.986   0.188   1.913  0.0846 -0.7230  0.1728
 2586TIP3    H129393   2.063   0.180   1.857  0.4535 -2.5876  0.8674
 2586TIP3    H229394   1.918   0.138   1.868 -0.6539  0.6631 -0.2905
 2587TIP3   OH229395   5.175   6.212   8.542 -0.5414 -0.0998  0.0019
 2587TIP3    H129396   5.266   6.201   8.515  0.9830  0.5759  4.1326
 2587TIP3    H229397   5.139   6.124   8.543  0.1852 -0.4334 -1.2327
 2588TIP3   OH229398   0.617   1.943   2.085  0.2903  0.5163  0.3619
 2588TIP3    H129399   0.579   1.945   2.173 -0.6031  2.0611 -0.0301
 2588TIP3    H229400   0.585   1.861   2.047  1.0725 -0.4188  1.6049
 2589TIP3   OH229401   3.928   4.155   7.352 -0.6657 -0.5094 -0.1547
 2589TIP3    H129402   3.946   4.108   7.271 -1.8061  0.9504 -1.3117
 2589TIP3    H229403   3.841   4.123   7.379 -0.4540 -0.7133  0.3015
 2590TIP3   OH229404   4.469   6.320   2.059 -0.1232  0.1685 -0.1631
 2590TIP3    H129405   4.409   6.343   2.130  0.5564  0.6114  0.2902
 2590TIP3    H229406   4.421   6.340   1.979 -0.6852  0.2320  0.1830
 2591TIP3   OH229407   4.147   0.787   7.977  0.1729 -0.3498 -0.3756
 2591TIP3    H129408   4.170   0.774   8.070  0.5451 -0.4209 -0.4757
 2591TIP3    H229409   4.073   0.847   7.979  0.0793 -0.4746 -0.0212
 2592TIP3   OH229410   5.136   2.830   6.946  0.4598 -0.0728 -0.0125
 2592TIP3    H129411   5.229   2.811   6.951  0.5666  0.4765  0.2049
 2592TIP3    H229412   5.119   2.887   7.021 -0.0578 -0.2106 -0.0212
 2593TIP3   OH229413   0.019   1.345   7.691  0.2913  0.5546  0.8486
 2593TIP3    H129414   0.021   1.434   7.656  0.7266  1.3077  2.6508
 2593TIP3    H229415   0.081   1.347   7.764  0.7625 -1.4110  0.5500
 2594TIP3   OH229416   3.170   5.671   8.645 -0.8370 -0.0089 -0.1413
 2594TIP3    H129417   3.156   5.764   8.663  1.2724  0.3105  0.1345
 2594TIP3    H229418   3.262   5.665   8.620 -0.2466 -2.3078  2.1103
 2595TIP3   OH229419   6.059   0.076   7.829  0.0705  0.1348  0.2729
 2595TIP3    H129420   6.118   0.008   7.795  0.0844  1.5349 -2.9252
 2595TIP3    H229421   5.974   0.054   7.791  0.0541  1.7500 -0.7069
 2596TIP3   OH229422   5.075   6.207   0.876  0.7682  0.3150  0.3897
 2596TIP3    H129423   5.097   6.115   0.863  1.0152  0.0132  2.4779
 2596TIP3    H229424   5.014   6.206   0.950  0.7327  1.8302  0.4054
 2597TIP3   OH229425   1.068   0.348   1.909  0.1162 -0.0665  0.0519
 2597TIP3    H129426   1.098   0.401   1.835 -1.5194  0.4858 -0.2661
 2597TIP3    H229427   0.973   0.357   1.907 -0.0611 -1.3899  1.2384
 2598TIP3   OH229428   4.395   4.094   8.267 -0.2442 -0.0696  0.0698
 2598TIP3    H129429   4.489   4.116   8.268 -0.5967  1.7298 -1.0910
 2598TIP3    H229430   4.374   4.078   8.359  0.8008  1.5003  0.6435
 2599TIP3   OH229431   2.866   5.978   0.812 -0.8461  0.1037 -0.4064
 2599TIP3    H129432   2.809   6.050   0.786 -2.7487 -1.4071 -0.6205
 2599TIP3    H229433   2.904   5.946   0.730 -1.1431 -0.0429 -0.4883
 2600TIP3   OH229434   5.026   0.106   1.036 -0.0586 -0.4068  0.1371
 2600TIP3    H129435   5.006   0.138   1.124 -0.8511 -0.6658  0.0557
 2600TIP3    H229436   5.055   0.016   1.049 -1.2509 -0.8248  0.0470
 2601TIP3   OH229437   5.058   0.750   8.466  0.0486 -0.1654  0.0185
 2601TIP3    H129438   5.098   0.675   8.510  0.0054  0.3575  0.9817
 2601TIP3    H229439   5.131   0.811   8.453 -0.3654  0.7356  1.6608
 2602TIP3   OH229440   1.556   5.474   0.663  1.2139 -0.2139 -0.6170
 2602TIP3    H129441   1.645   5.450   0.689  1.4861  2.0805  0.8742
 2602TIP3    H229442   1.565   5.504   0.572  1.8983 -0.2726 -0.5749
 2603TIP3   OH229443   3.390   6.348   1.923  0.2814  0.2420 -0.1913
 2603TIP3    H129444   3.366   6.318   2.011 -0.2081 -0.3599 -0.5156
 2603TIP3    H229445   3.360   6.439   1.920  1.9734  0.8836  0.8811
 2604TIP3   OH229446   2.347   2.407   2.521 -0.3928 -0.1271  0.1130
 2604TIP3    H129447   2.266   2.458   2.519  0.8394  2.0910  2.0452
 2604TIP3    H229448   2.415   2.471   2.501  1.0541 -1.5569  0.2956
 2605TIP3   OH229449   3.033   1.907   0.519 -0.3327 -0.0247 -0.3737
 2605TIP3    H129450   3.045   1.815   0.497 -1.8992 -0.6651  1.2179
 2605TIP3    H229451   3.100   1.925   0.585 -0.4446 -0.2034 -0.2116
 2606TIP3   OH229452   0.704   2.884   7.808 -0.0322 -0.2856 -0.2404
 2606TIP3    H129453   0.701   2.968   7.761  0.8388 -0.2731 -0.2847
 2606TIP3    H229454   0.726   2.908   7.898 -0.7647 -0.3951 -0.0201
 2607TIP3   OH229455   0.130   5.761   0.482 -0.6317  0.2068 -0.0751
 2607TIP3    H129456   0.045   5.720   0.465 -0.6379  0.3816 -0.4721
 2607TIP3    H229457   0.116   5.854   0.465 -0.1607  0.1366 -0.9165
 2608TIP3   OH229458   6.496   1.934   1.420  0.3317 -0.2217 -0.0731
 2608TIP3    H129459   6.566   1.930   1.485  0.6591 -0.5435 -0.4387
 2608TIP3    H229460   6.453   2.018   1.436 -0.9140 -1.1586  1.8958
 2609TIP3   OH229461   0.387   6.452   7.413 -0.3110 -0.1237  0.3565
 2609TIP3    H129462   0.370   6.545   7.426  0.3754  0.0785 -0.1969
 2609TIP3    H229463   0.300   6.414   7.395 -0.8614  0.0965  2.3164
 2610TIP3   OH229464   1.627   2.854   7.248 -0.1209 -0.2196 -0.3381
 2610TIP3    H129465   1.624   2.904   7.166  1.1479 -0.8256 -0.7621
 2610TIP3    H229466   1.707   2.883   7.291 -0.7867  0.1174  0.7389
 2611TIP3   OH229467   4.532   5.118   1.411  0.3220 -0.4926 -0.5553
 2611TIP3    H129468   4.444   5.113   1.373 -0.1231  0.0055  0.3856
 2611TIP3    H229469   4.548   5.030   1.445 -0.9049  0.0575  1.5946
 2612TIP3   OH229470   3.172   3.743   8.016  0.3273 -0.0124 -0.2126
 2612TIP3    H129471   3.216   3.658   8.003  0.6879  0.3199 -1.3352
 2612TIP3    H229472   3.082   3.720   8.037  0.0392 -0.6984 -2.0118
 2613TIP3   OH229473   0.589   1.399   2.605  0.2579 -0.6566 -0.1907
 2613TIP3    H129474   0.499   1.407   2.635 -0.4341  0.9892 -2.4531
 2613TIP3    H229475   0.585   1.336   2.533  0.8270 -0.2468 -0.5921
 2614TIP3   OH229476   2.406   6.002   0.699 -0.5178  0.2769  0.1878
 2614TIP3    H129477   2.457   5.938   0.650  2.0801  1.4430  1.1809
 2614TIP3    H229478   2.359   5.950   0.764 -1.6660 -0.9610 -1.5418
 2615TIP3   OH229479   3.169   5.985   0.670  0.1172 -0.2767  0.3372
 2615TIP3    H129480   3.095   5.929   0.691 -0.1330 -0.1946 -0.2935
 2615TIP3    H229481   3.246   5.929   0.682 -0.0520 -0.4072  0.8415
 2616TIP3   OH229482   3.296   1.646   0.654 -0.2564 -0.5353 -0.1738
 2616TIP3    H129483   3.382   1.638   0.696 -0.7634 -0.7053  0.8858
 2616TIP3    H229484   3.282   1.740   0.645 -1.1354 -0.3438  2.2994
 2617TIP3   OH229485   5.590   2.059   0.113  0.1592  0.4211 -0.2760
 2617TIP3    H129486   5.648   1.987   0.089  0.4496  0.9532 -1.2385
 2617TIP3    H229487   5.648   2.124   0.153 -0.1144  0.0926  0.6661
 2618TIP3   OH229488   6.028   2.954   0.617  0.4299 -0.4820  0.1585
 2618TIP3    H129489   5.949   2.914   0.653  0.8145  0.4129  2.1009
 2618TIP3    H229490   5.997   3.007   0.544 -0.2819 -2.9186 -1.4297
 2619TIP3   OH229491   2.300   5.092   2.072 -0.0971 -0.0069 -0.2398
 2619TIP3    H129492   2.228   5.033   2.096  0.1886  0.0055  0.7102
 2619TIP3    H229493   2.351   5.101   2.153 -2.3777  4.7961  0.9709
 2620TIP3   OH229494   6.285   0.190   7.587  0.5127 -0.1449  0.2902
 2620TIP3    H129495   6.353   0.228   7.530 -0.3232  3.4226  1.3753
 2620TIP3    H229496   6.204   0.201   7.537  0.2302 -0.4758  0.6737
 2621TIP3   OH229497   3.287   3.847   2.061  0.5668 -0.3295 -0.4195
 2621TIP3    H129498   3.280   3.891   1.977 -3.0911 -1.6132 -0.9487
 2621TIP3    H229499   3.302   3.755   2.039  1.0520 -0.4728  0.4275
 2622TIP3   OH229500   4.700   2.639   6.715  0.2267 -0.3440 -0.0688
 2622TIP3    H129501   4.672   2.555   6.752  0.5770  0.5565  2.4667
 2622TIP3    H229502   4.739   2.685   6.789  1.4224  1.4695 -1.7526
 2623TIP3   OH229503   0.887   4.868   1.655  0.4608 -0.5161 -0.2084
 2623TIP3    H129504   0.969   4.906   1.688  0.5386 -1.1609  0.3459
 2623TIP3    H229505   0.819   4.926   1.688  0.6357 -0.4157 -0.0221
 2624TIP3   OH229506   3.328   3.699   6.770 -0.7445  0.7031  0.1988
 2624TIP3    H129507   3.364   3.784   6.797  0.2260  0.3913 -0.0943
 2624TIP3    H229508   3.393   3.635   6.799 -1.1160  0.1160 -0.2512
 2625TIP3   OH229509   6.443   2.356   0.830  0.2579  0.3439  0.3741
 2625TIP3    H129510   6.486   2.350   0.916  0.2591 -0.1456  0.3402
 2625TIP3    H229511   6.370   2.417   0.844  0.7222  0.8730  0.5297
 2626TIP3   OH229512   1.566   3.027   0.982 -0.5034  0.4458 -0.1986
 2626TIP3    H129513   1.512   2.968   1.035  0.1890  0.4981  0.5864
 2626TIP3    H229514   1.608   2.970   0.918 -1.0475  0.3233 -0.4519
 2627TIP3   OH229515   3.951   6.170   7.064 -0.2909 -0.1439 -0.5769
 2627TIP3    H129516   3.946   6.088   7.014 -1.0512  0.0483 -0.8297
 2627TIP3    H229517   3.875   6.220   7.035 -0.1916  0.3815  0.0546
 2628TIP3   OH229518   0.005   2.222   7.968 -0.2056 -0.1651  0.1724
 2628TIP3    H129519   0.030   2.166   8.042  1.3264  0.1883 -0.0247
 2628TIP3    H229520  -0.089   2.235   7.978 -0.1544 -0.6894  1.6744
 2629TIP3   OH229521   1.518   6.338   1.646 -0.1776  0.2174 -0.0175
 2629TIP3    H129522   1.499   6.427   1.616  0.1322 -0.1310 -1.3228
 2629TIP3    H229523   1.537   6.348   1.739 -0.4383  1.4753 -0.0750
 2630TIP3   OH229524   3.860   2.714   8.217  0.5889 -0.1318 -0.2151
 2630TIP3    H129525   3.826   2.784   8.161 -0.5039  0.0272  0.6329
 2630TIP3    H229526   3.783   2.669   8.250  1.2650 -1.3712 -0.2523
 2631TIP3   OH229527   4.595   6.660   7.605 -0.1926  0.2705  0.7122
 2631TIP3    H129528   4.604   6.571   7.640  0.7485 -0.3260 -0.9768
 2631TIP3    H229529   4.506   6.662   7.568  0.4762 -0.6695 -1.0407
 2632TIP3   OH229530   5.458   0.838   0.186 -0.5378 -0.2752 -0.0942
 2632TIP3    H129531   5.406   0.903   0.138 -1.0441 -0.1159  0.6514
 2632TIP3    H229532   5.472   0.767   0.123  0.1853  0.6308 -0.9783
 2633TIP3   OH229533   2.331   5.009   8.177 -0.1452  0.5602  0.1805
 2633TIP3    H129534   2.266   5.027   8.246  0.7719 -0.3949  1.3323
 2633TIP3    H229535   2.279   4.971   8.106 -0.9215  0.2864  0.8734
 2634TIP3   OH229536   4.047   2.456   7.775 -0.1417  0.3240  0.1956
 2634TIP3    H129537   4.039   2.542   7.816 -0.1727  1.3575 -1.8564
 2634TIP3    H229538   4.062   2.474   7.682  1.0749 -1.8763 -0.1237
 2635TIP3   OH229539   3.793   3.351   1.115  0.6804 -0.1416 -0.6706
 2635TIP3    H129540   3.759   3.304   1.191  0.3245  0.7388 -0.2604
 2635TIP3    H229541   3.741   3.319   1.041 -0.4553  0.5227 -0.1977
 2636TIP3   OH229542   6.712   4.947   0.457 -0.2412  1.0115  0.3622
 2636TIP3    H129543   6.777   4.992   0.511  0.1559  0.2010  0.5690
 2636TIP3    H229544   6.759   4.874   0.417 -1.1414  0.0774  0.9520
 2637TIP3   OH229545   5.157   4.629   1.035  0.2140 -0.2895 -0.4523
 2637TIP3    H129546   5.171   4.539   1.063  0.9980  0.1765  0.7463
 2637TIP3    H229547   5.244   4.661   1.010  0.5628  1.0437  2.1152
 2638TIP3   OH229548   0.439   4.139   1.125 -0.0134  0.3230  0.4454
 2638TIP3    H129549   0.423   4.170   1.035 -0.4487 -0.7434  0.1417
 2638TIP3    H229550   0.470   4.217   1.171  1.3745  0.6449 -0.9148
 2639TIP3   OH229551   4.510   4.453   0.026 -0.2574  0.2488  0.2823
 2639TIP3    H129552   4.531   4.406   0.107 -0.7098 -0.3813  0.0420
 2639TIP3    H229553   4.573   4.526   0.024  0.1451 -0.0667  0.9007
 2640TIP3   OH229554   0.361   4.142   7.807  0.4120  0.4539  0.1063
 2640TIP3    H129555   0.390   4.095   7.729 -0.2645  1.4312 -0.7709
 2640TIP3    H229556   0.435   4.138   7.867  0.5847 -1.1801 -0.1816
 2641TIP3   OH229557   4.300   5.897   0.172 -0.3699  0.4978 -0.6105
 2641TIP3    H129558   4.304   5.959   0.100 -1.0332 -1.1474 -2.1271
 2641TIP3    H229559   4.212   5.860   0.168 -0.1754 -0.1571  0.6003
 2642TIP3   OH229560   4.005   5.635   7.962  0.0850 -0.5622  0.0132
 2642TIP3    H129561   3.979   5.580   7.889 -2.1087 -1.4725  1.3756
 2642TIP3    H229562   4.091   5.602   7.988  0.5640 -0.7025 -1.6348
 2643TIP3   OH229563   6.063   2.279   1.705 -0.1071 -0.2406  0.0131
 2643TIP3    H129564   6.096   2.212   1.644  0.5978 -0.2040  0.3407
 2643TIP3    H229565   6.124   2.276   1.779 -0.1291  0.6839  0.0856
 2644TIP3   OH229566   0.579   5.711   1.389  0.1533 -0.4093  0.8151
 2644TIP3    H129567   0.670   5.740   1.394  0.1101 -0.0063 -0.4446
 2644TIP3    H229568   0.528   5.792   1.396 -0.0815 -0.5534  0.7957
 2645TIP3   OH229569   0.212   1.746   1.135 -0.0531 -0.3080  0.5549
 2645TIP3    H129570   0.285   1.737   1.197 -0.1530  2.8563  1.2758
 2645TIP3    H229571   0.245   1.806   1.068 -2.1656  1.9214  1.3606
 2646TIP3   OH229572   1.375   2.032   2.612  0.2447 -0.2572  0.3131
 2646TIP3    H129573   1.379   2.042   2.517  1.7203 -0.9686  0.2822
 2646TIP3    H229574   1.283   2.051   2.634 -0.1293 -0.1332 -1.2436
 2647TIP3   OH229575   6.836   4.681   1.818  0.4029  0.4165 -0.2271
 2647TIP3    H129576   6.898   4.613   1.793  1.6426  1.8680 -1.2982
 2647TIP3    H229577   6.802   4.653   1.904  0.5934 -1.6786 -0.7904
 2648TIP3   OH229578   5.766   0.857   2.489  0.0549  0.1493 -0.2827
 2648TIP3    H129579   5.756   0.815   2.404 -0.8255 -3.3423  1.3953
 2648TIP3    H229580   5.855   0.891   2.489 -0.2949  1.3484 -2.9437
 2649TIP3   OH229581   5.131   6.382   1.164 -0.5562 -0.0242 -0.2823
 2649TIP3    H129582   5.139   6.310   1.102  1.7740 -0.5491  0.4891
 2649TIP3    H229583   5.070   6.350   1.231 -1.8380 -0.0705 -1.4377
 2650TIP3   OH229584   4.853   3.509   7.369 -0.0500  0.0900 -0.5995
 2650TIP3    H129585   4.817   3.542   7.286  1.0921  0.0992 -1.1172
 2650TIP3    H229586   4.888   3.423   7.347 -2.4081 -1.2746  0.5913
 2651TIP3   OH229587   1.935   0.458   7.114  0.2233 -0.4843 -0.2861
 2651TIP3    H129588   1.988   0.514   7.057 -0.7487  2.1323  1.2049
 2651TIP3    H229589   1.882   0.519   7.165 -2.3314 -2.8767  0.1609
 2652TIP3   OH229590   4.281   2.527   1.233 -0.3533  0.0936  0.0496
 2652TIP3    H129591   4.355   2.505   1.290 -1.0332 -0.5014  0.7260
 2652TIP3    H229592   4.204   2.520   1.290 -0.7410  3.3082  0.0939
 2653TIP3   OH229593   2.681   1.119   7.599  0.2906  0.2274  0.1772
 2653TIP3    H129594   2.636   1.039   7.573 -1.8131  0.8293  1.6695
 2653TIP3    H229595   2.648   1.186   7.539  0.6451  0.3276  0.0909
 2654TIP3   OH229596   2.075   0.127   7.526  0.2617  0.8432 -0.0334
 2654TIP3    H129597   2.116   0.042   7.509  0.2356  0.5570  1.2481
 2654TIP3    H229598   2.142   0.176   7.574 -0.2694  1.0020  0.5523
 2655TIP3   OH229599   3.870   5.683   1.819  0.2346 -0.3566  0.1953
 2655TIP3    H129600   3.905   5.752   1.764 -1.7381  0.7197  0.1967
 2655TIP3    H229601   3.874   5.718   1.908  1.5314 -1.2751  0.5248
 2656TIP3   OH229602   6.448   3.407   2.228  0.1270  0.1666  0.3084
 2656TIP3    H129603   6.541   3.401   2.248  0.4464  0.8569 -0.8524
 2656TIP3    H229604   6.443   3.464   2.151 -1.1475 -0.8417 -0.4217
 2657TIP3   OH229605   5.109   1.190   8.509  0.0942  0.1367  0.2468
 2657TIP3    H129606   5.152   1.241   8.441  0.9070 -1.6761 -0.6701
 2657TIP3    H229607   5.179   1.168   8.571 -0.5017  1.1692  1.3364
 2658TIP3   OH229608   1.529   3.466   7.400  0.1588 -0.1308 -0.1912
 2658TIP3    H129609   1.534   3.480   7.306 -1.0595 -5.1399 -1.2654
 2658TIP3    H229610   1.614   3.428   7.424 -0.1280 -0.4434  0.3587
 2659TIP3   OH229611   0.792   6.419   1.342 -0.8394 -0.1019 -0.2750
 2659TIP3    H129612   0.872   6.405   1.292 -0.3084 -0.0958  0.5422
 2659TIP3    H229613   0.722   6.416   1.277 -0.0593  1.4848 -1.2354
 2660TIP3   OH229614   6.446   1.597   1.936 -0.3647  0.6632  0.7330
 2660TIP3    H129615   6.456   1.585   2.031  0.6091  0.4294  0.6084
 2660TIP3    H229616   6.467   1.511   1.899  1.6319  1.3561  0.1572
 2661TIP3   OH229617   4.907   4.230   1.105  0.7214  0.0196 -0.4934
 2661TIP3    H129618   4.950   4.197   1.184 -0.1292 -1.0178 -0.4455
 2661TIP3    H229619   4.958   4.307   1.081  0.8254  0.5222  1.2243
 2662TIP3   OH229620   3.660   0.969   1.140 -0.0581 -0.5425 -0.1585
 2662TIP3    H129621   3.620   0.918   1.211  1.7548 -1.4408  0.2780
 2662TIP3    H229622   3.631   1.059   1.156 -1.4035 -1.0575  0.4540
 2663TIP3   OH229623   1.893   3.695   7.316  0.3105 -0.0676 -0.5076
 2663TIP3    H129624   1.955   3.648   7.260  0.0741  0.6223 -1.3711
 2663TIP3    H229625   1.824   3.725   7.256  0.7122  1.8268 -0.0862
 2664TIP3   OH229626   3.208   1.358   2.272 -0.0494  0.3901  0.4692
 2664TIP3    H129627   3.126   1.395   2.238  1.7793  2.4260 -2.0882
 2664TIP3    H229628   3.215   1.273   2.229 -0.8504  0.1370  0.8139
 2665TIP3   OH229629   6.426   4.024   0.781  0.4611  0.0834 -0.0315
 2665TIP3    H129630   6.476   4.096   0.742 -1.4760  1.1851 -0.6525
 2665TIP3    H229631   6.399   4.056   0.866  0.3794 -0.2982  0.0898
 2666TIP3   OH229632   5.490   3.684   2.197 -0.3053  0.4253  0.1661
 2666TIP3    H129633   5.457   3.599   2.171  1.1337  0.1568 -0.9325
 2666TIP3    H229634   5.529   3.669   2.284  0.6997 -0.2746 -0.3810
 2667TIP3   OH229635   1.356   6.417   7.973 -0.7368  0.2139 -0.1810
 2667TIP3    H129636   1.364   6.510   7.950 -0.1299  0.5985  1.4642
 2667TIP3    H229637   1.359   6.415   8.068  2.1368 -1.6954 -0.1558
 2668TIP3   OH229638   4.236   5.749   1.001  0.0299 -0.5944 -0.0366
 2668TIP3    H129639   4.251   5.707   1.086 -0.5913 -2.5572 -0.8411
 2668TIP3    H229640   4.316   5.799   0.985  0.2333 -0.3503  1.5974
 2669TIP3   OH229641   1.164   5.035   8.725 -0.2587 -0.7643 -0.0694
 2669TIP3    H129642   1.104   5.105   8.705 -0.6603 -1.2888 -0.7344
 2669TIP3    H229643   1.126   4.957   8.684  1.5791 -0.8494 -1.8039
 2670TIP3   OH229644   2.308   4.243   0.904 -0.0339  0.6890 -0.0439
 2670TIP3    H129645   2.287   4.322   0.855  1.8711  2.3534  1.6788
 2670TIP3    H229646   2.303   4.269   0.996  2.5136 -0.6202  0.5610
 2671TIP3   OH229647   5.589   6.432   1.507  0.2708  0.1349 -0.5456
 2671TIP3    H129648   5.610   6.509   1.559  2.4359  0.0173 -1.1622
 2671TIP3    H229649   5.616   6.358   1.562  0.7912 -0.0691 -1.0746
 2672TIP3   OH229650   0.544   6.430   1.210 -0.3849  0.3224  0.3384
 2672TIP3    H129651   0.483   6.490   1.253 -0.7007  0.1556  0.1343
 2672TIP3    H229652   0.553   6.465   1.121 -1.2679 -0.4101 -0.0637
 2673TIP3   OH229653   2.482   6.659   2.263  0.3072  0.5674 -0.2410
 2673TIP3    H129654   2.525   6.581   2.298  1.6850  1.6472  0.6002
 2673TIP3    H229655   2.495   6.725   2.330 -1.1191  1.4443 -0.7939
 2674TIP3   OH229656   6.480   2.886   1.560  0.3416  0.0235  0.1599
 2674TIP3    H129657   6.555   2.864   1.616  1.0867 -0.8769 -1.1295
 2674TIP3    H229658   6.427   2.945   1.613  0.9211 -0.9213  1.8790
 2675TIP3   OH229659   0.778   2.721   1.503 -0.4188 -0.1929 -0.0983
 2675TIP3    H129660   0.839   2.794   1.498 -0.1608 -0.4687 -1.0132
 2675TIP3    H229661   0.737   2.717   1.417 -0.6820 -0.9174  0.0496
 2676TIP3   OH229662   4.810   6.685   1.995  0.2229 -0.1238  0.2026
 2676TIP3    H129663   4.806   6.695   2.090 -0.2424  0.0520  0.1668
 2676TIP3    H229664   4.903   6.673   1.977  0.1838 -1.4828  0.8035
 2677TIP3   OH229665   5.844   2.377   1.456 -0.2284  0.5644  0.0888
 2677TIP3    H129666   5.832   2.316   1.529 -0.2074 -1.0805 -1.2167
 2677TIP3    H229667   5.881   2.323   1.386 -0.5608  2.0045 -1.2523
 2678TIP3   OH229668   4.538   4.649   1.807 -0.3205 -0.0168 -0.1983
 2678TIP3    H129669   4.570   4.605   1.729  0.0888  0.9446 -0.5953
 2678TIP3    H229670   4.457   4.604   1.829 -0.2496 -0.5333 -0.9635
 2679TIP3   OH229671   2.796   0.280   7.180 -0.0252  0.2164 -0.0101
 2679TIP3    H129672   2.827   0.194   7.208 -1.0464 -0.0906  0.2276
 2679TIP3    H229673   2.845   0.342   7.234  0.6689 -0.2197 -0.1379
 2680TIP3   OH229674   1.062   1.332   2.116 -0.2124  0.3759 -0.0209
 2680TIP3    H129675   1.116   1.396   2.164 -0.3213 -0.7713  1.7304
 2680TIP3    H229676   0.972   1.359   2.135 -0.2742 -0.7037  1.4076
 2681TIP3   OH229677   1.864   5.777   6.978 -0.7978  0.1549 -0.5777
 2681TIP3    H129678   1.789   5.757   6.923 -1.6021 -0.0285  0.5369
 2681TIP3    H229679   1.930   5.812   6.918 -1.4699 -0.4542 -1.6947
 2682TIP3   OH229680   6.540   1.245   2.105 -0.4671 -0.1621 -0.7351
 2682TIP3    H129681   6.544   1.150   2.097 -1.3403 -0.2425 -0.3692
 2682TIP3    H229682   6.618   1.269   2.155 -0.5645 -0.7569 -0.2861
 2683TIP3   OH229683   1.214   4.421   0.844  0.0126  0.0791  0.1946
 2683TIP3    H129684   1.232   4.398   0.753 -0.9598  2.2958 -0.6318
 2683TIP3    H229685   1.289   4.474   0.872 -0.4490  0.7895  0.1135
 2684TIP3   OH229686   3.255   4.652   6.714  0.0621 -0.1660 -0.0336
 2684TIP3    H129687   3.331   4.656   6.772  0.0218 -1.3542  0.1186
 2684TIP3    H229688   3.238   4.559   6.701 -1.9659  0.0342  0.7162
 2685TIP3   OH229689   6.632   5.956   2.585 -0.2977 -0.2070 -0.9354
 2685TIP3    H129690   6.590   6.033   2.624 -1.1264 -0.4638 -1.3064
 2685TIP3    H229691   6.586   5.943   2.502  0.0981 -0.8712 -1.0548
 2686TIP3   OH229692   2.624   3.636   8.086  0.2320 -0.6786  0.5250
 2686TIP3    H129693   2.553   3.692   8.055  1.2140  1.1166  1.4132
 2686TIP3    H229694   2.613   3.554   8.037 -2.3119 -0.3952  0.4908
 2687TIP3   OH229695   3.863   5.124   8.295 -0.2346 -0.1649  0.4420
 2687TIP3    H129696   3.780   5.134   8.250  0.0806 -2.4062 -0.7922
 2687TIP3    H229697   3.875   5.029   8.302  3.0519 -0.0161 -1.1220
 2688TIP3   OH229698   4.828   3.941   8.088 -0.5301  0.3955  0.1456
 2688TIP3    H129699   4.815   4.000   8.162 -1.2536  0.1602  0.2090
 2688TIP3    H229700   4.855   3.858   8.128  0.8154  0.7554  0.0385
 2689TIP3   OH229701   1.606   5.433   0.168  0.3899  0.3659 -0.6009
 2689TIP3    H129702   1.679   5.371   0.166 -0.2247 -0.3712 -1.0509
 2689TIP3    H229703   1.625   5.496   0.099  0.8592  0.4872 -0.3614
 2690TIP3   OH229704   1.240   0.444   8.481  0.0160  0.0519  0.0650
 2690TIP3    H129705   1.204   0.451   8.569 -2.3216 -1.2809 -0.6698
 2690TIP3    H229706   1.181   0.497   8.427  0.3370 -0.5808 -0.9405
 2691TIP3   OH229707   6.712   1.021   0.882 -0.4508 -0.2710 -0.2927
 2691TIP3    H129708   6.644   1.034   0.948  0.2315 -1.2683  0.6579
 2691TIP3    H229709   6.794   1.026   0.932  0.0996 -0.5691 -1.1533
 2692TIP3   OH229710   6.118   0.011   1.848  0.0876 -0.0575 -0.2230
 2692TIP3    H129711   6.146  -0.072   1.809  1.1923  0.9987 -1.7608
 2692TIP3    H229712   6.065   0.053   1.781  0.2558  0.8656  0.2042
 2693TIP3   OH229713   1.058   2.578   0.349  0.4758 -0.8507  0.4382
 2693TIP3    H129714   1.145   2.563   0.313 -0.0659 -0.5986 -1.0514
 2693TIP3    H229715   1.062   2.666   0.386 -0.2392  1.0773 -3.4728
 2694TIP3   OH229716   2.381   5.526   2.647  0.4343 -0.3975 -0.6604
 2694TIP3    H129717   2.391   5.552   2.738 -0.2779 -0.4174 -0.5718
 2694TIP3    H229718   2.287   5.535   2.629  0.8703  2.1660 -2.1812
 2695TIP3   OH229719   1.893   2.852   8.304  0.0256 -0.1822 -0.3026
 2695TIP3    H129720   1.982   2.860   8.268 -0.4321 -0.2134 -1.4692
 2695TIP3    H229721   1.903   2.876   8.396  1.1763  0.2066 -0.5081
 2696TIP3   OH229722   6.657   0.136   2.403  0.2600  0.5295  0.0475
 2696TIP3    H129723   6.631   0.219   2.443 -0.4222  0.4193 -0.1448
 2696TIP3    H229724   6.701   0.088   2.472  0.7935  1.1165  0.1172
 2697TIP3   OH229725   4.833   1.316   1.982 -0.3378 -0.1622 -0.0180
 2697TIP3    H129726   4.882   1.239   1.953 -0.7129  0.3262 -2.0950
 2697TIP3    H229727   4.897   1.387   1.980 -0.4812 -0.0350 -0.1396
 2698TIP3   OH229728   0.087   6.564   7.783 -0.4454  0.6807 -0.0508
 2698TIP3    H129729   0.052   6.499   7.844 -0.2490 -0.1118 -0.7674
 2698TIP3    H229730   0.053   6.538   7.697  1.7899 -0.0744 -0.7618
 2699TIP3   OH229731   2.818   4.793   0.797 -0.2471  0.2997  0.3730
 2699TIP3    H129732   2.901   4.841   0.790 -0.4180  0.4916 -0.5468
 2699TIP3    H229733   2.791   4.805   0.888  0.0398  1.4090  0.3326
 2700TIP3   OH229734   6.612   3.668   2.149  0.1455  0.0987  0.1306
 2700TIP3    H129735   6.548   3.629   2.089 -1.5882  1.0616  1.2665
 2700TIP3    H229736   6.639   3.596   2.205 -1.7751  0.0977  1.1472
 2701TIP3   OH229737   5.140   5.826   0.292 -0.5068  0.2939 -0.3311
 2701TIP3    H129738   5.101   5.745   0.260 -0.9192 -0.4090  1.7686
 2701TIP3    H229739   5.221   5.836   0.242 -1.0823 -0.7011 -1.5195
 2702TIP3   OH229740   4.557   0.241   0.579  0.2153 -0.6570  0.0443
 2702TIP3    H129741   4.606   0.200   0.650 -0.2847  0.2289  0.9312
 2702TIP3    H229742   4.470   0.256   0.615 -0.0305 -0.1293 -0.7353
 2703TIP3   OH229743   6.541   0.450   1.700  0.3664 -0.1891 -0.1497
 2703TIP3    H129744   6.575   0.484   1.618 -0.1829 -0.2132 -0.3936
 2703TIP3    H229745   6.447   0.466   1.696  0.5072  1.3247  1.1933
 2704TIP3   OH229746   3.080   0.130   1.265  0.7151 -0.0989  0.1079
 2704TIP3    H129747   3.085   0.039   1.237 -1.3610 -0.6162  1.2150
 2704TIP3    H229748   3.116   0.130   1.354  0.1101  0.0191  0.3574
 2705TIP3   OH229749   1.707   0.764   1.691  0.1381 -0.3496 -0.0174
 2705TIP3    H129750   1.738   0.724   1.772  1.4702 -0.8693 -0.7548
 2705TIP3    H229751   1.779   0.822   1.664 -0.5646  0.3225 -0.4925
 2706TIP3   OH229752   4.521   3.321   0.227  0.1937 -0.1407 -0.1647
 2706TIP3    H129753   4.538   3.246   0.170 -0.4522  0.1422 -0.7418
 2706TIP3    H229754   4.533   3.397   0.170 -1.3268  0.1162 -0.1697
 2707TIP3   OH229755   1.121   0.086   7.969 -0.2866 -0.6810 -0.2682
 2707TIP3    H129756   1.143   0.035   8.048 -2.2446 -0.0086  0.7799
 2707TIP3    H229757   1.031   0.060   7.949 -2.2955  3.7174  1.5951
 2708TIP3   OH229758   0.935   3.718   0.925  0.3630 -0.4166 -0.0418
 2708TIP3    H129759   0.938   3.791   0.986 -0.9068 -1.8062  1.7917
 2708TIP3    H229760   0.875   3.746   0.856  0.4973  0.5367  0.2178
 2709TIP3   OH229761   2.552   6.348   7.142  0.2955  0.1312  0.1082
 2709TIP3    H129762   2.534   6.442   7.150  0.9054  0.3896 -1.2792
 2709TIP3    H229763   2.613   6.329   7.213 -1.0441  0.4246  1.3874
 2710TIP3   OH229764   0.127   2.254   1.538  0.2249 -0.2573 -0.1603
 2710TIP3    H129765   0.122   2.248   1.633  0.5387  0.7691 -0.0662
 2710TIP3    H229766   0.202   2.200   1.514  1.7294  1.4440  0.4316
 2711TIP3   OH229767   5.892   4.841   6.391 -0.3429  0.0371 -0.1228
 2711TIP3    H129768   5.869   4.748   6.396 -1.8659  0.3920  0.0668
 2711TIP3    H229769   5.814   4.886   6.424 -0.7126  1.4687 -2.7055
 2712TIP3   OH229770   4.681   4.535   2.455 -0.7690  0.1316 -0.6621
 2712TIP3    H129771   4.630   4.586   2.392 -0.1878  0.8151 -0.5823
 2712TIP3    H229772   4.674   4.445   2.423 -1.3285  0.3288 -1.1233
 2713TIP3   OH229773   2.350   4.806   0.801  0.0738  0.0827  0.6769
 2713TIP3    H129774   2.355   4.889   0.754 -1.0991 -0.0357  0.3138
 2713TIP3    H229775   2.436   4.795   0.840  0.6700  0.8144 -0.3896
 2714TIP3   OH229776   6.709   6.200   1.086 -0.1097  0.1034  0.4580
 2714TIP3    H129777   6.691   6.258   1.160  0.6703  1.1440 -0.1489
 2714TIP3    H229778   6.785   6.239   1.043  0.3523 -1.3050 -0.0513
 2715TIP3   OH229779   4.518   5.840   2.076 -0.2456  0.2492  0.2145
 2715TIP3    H129780   4.571   5.885   2.141  0.3540 -1.1694  0.7516
 2715TIP3    H229781   4.447   5.901   2.055 -0.8220  0.4998  2.6614
 2716TIP3   OH229782   4.964   6.308   8.820 -0.8157 -0.0107  0.1401
 2716TIP3    H129783   4.982   6.214   8.826 -4.2146 -0.7620  0.6730
 2716TIP3    H229784   4.919   6.329   8.901  0.4049  2.2925  0.2928
 2717TIP3   OH229785   0.187   3.665   8.718 -0.1532  0.1720  0.1202
 2717TIP3    H129786   0.175   3.570   8.715 -0.7873  0.2313  0.6099
 2717TIP3    H229787   0.148   3.697   8.637 -1.3676  0.1512  0.6751
 2718TIP3   OH229788   5.559   3.247   8.089  0.4401  0.2731  0.3575
 2718TIP3    H129789   5.602   3.257   8.174  0.2273  1.7814  0.3139
 2718TIP3    H229790   5.628   3.265   8.025 -0.0610  2.1688  0.2816
 2719TIP3   OH229791   2.402   6.354   7.759 -0.4673  0.3659  0.2664
 2719TIP3    H129792   2.405   6.373   7.665  0.9868  0.8422  0.3801
 2719TIP3    H229793   2.480   6.396   7.794 -0.7156 -0.2500  1.6139
 2720TIP3   OH229794   6.412   6.397   0.162  0.2535  0.3212  0.0824
 2720TIP3    H129795   6.507   6.389   0.152  0.1364 -2.1933  0.2811
 2720TIP3    H229796   6.384   6.309   0.188 -2.4547  0.1606 -2.7682
 2721TIP3   OH229797   6.681   0.028   2.807 -0.5536 -0.3521 -0.8169
 2721TIP3    H129798   6.733   0.057   2.732 -0.5872 -1.0501 -1.1145
 2721TIP3    H229799   6.611  -0.024   2.768 -0.9146 -0.2322 -0.3394
 2722TIP3   OH229800   4.283   5.995   7.869 -0.2141 -0.1504 -0.5608
 2722TIP3    H129801   4.376   5.999   7.845 -0.5467  1.3160 -1.7705
 2722TIP3    H229802   4.238   5.969   7.789 -1.0471  1.5305 -0.6828
 2723TIP3   OH229803   0.145   3.163   7.275  0.0124  0.4501 -0.3883
 2723TIP3    H129804   0.216   3.224   7.295  0.3173  0.1502 -0.5366
 2723TIP3    H229805   0.177   3.114   7.199 -1.0140  1.4082 -1.4823
 2724TIP3   OH229806   5.002   6.419   2.886  0.4513 -0.0530  0.0264
 2724TIP3    H129807   5.077   6.471   2.915  0.9553 -1.1564  0.7925
 2724TIP3    H229808   4.927   6.478   2.894  0.7451  0.1145  2.4671
 2725TIP3   OH229809   3.112   2.276   2.242 -0.3469  0.2810 -0.1245
 2725TIP3    H129810   3.138   2.194   2.284  1.4952  0.2469 -1.1952
 2725TIP3    H229811   3.019   2.284   2.259 -0.3995 -1.6266  0.6895
 2726TIP3   OH229812   5.763   4.165   8.340 -0.0794 -0.0230 -0.4137
 2726TIP3    H129813   5.837   4.180   8.281  0.4899  0.2110  0.3385
 2726TIP3    H229814   5.726   4.252   8.355 -0.8415 -0.2000 -1.1963
 2727TIP3   OH229815   6.305   1.624   0.889 -0.1794  0.1445 -0.0596
 2727TIP3    H129816   6.384   1.647   0.840 -0.0655  0.0158  0.0632
 2727TIP3    H229817   6.272   1.546   0.845 -0.4551  0.4218 -0.3515
 2728TIP3   OH229818   5.099   1.940   8.108 -0.3787  0.3225 -0.2037
 2728TIP3    H129819   5.128   2.023   8.145  1.5702 -1.0616  1.6055
 2728TIP3    H229820   5.171   1.911   8.053 -0.2271 -0.9854  0.6241
 2729TIP3   OH229821   4.351   4.555   7.401 -0.3988  0.1580 -0.6883
 2729TIP3    H129822   4.402   4.630   7.432  1.1722  0.3561 -3.4689
 2729TIP3    H229823   4.270   4.593   7.369 -0.5079  0.3818 -0.1602
 2730TIP3   OH229824   6.647   0.495   8.476 -0.0919 -0.5198  0.6125
 2730TIP3    H129825   6.741   0.482   8.493  0.4918  0.4098 -1.5276
 2730TIP3    H229826   6.636   0.590   8.474 -0.8934 -0.6169  0.0266
 2731TIP3   OH229827   4.458   2.518   2.577  0.0078 -0.4033  1.0760
 2731TIP3    H129828   4.398   2.537   2.649 -0.4637  1.3779  0.2896
 2731TIP3    H229829   4.540   2.561   2.603 -0.9731  2.8360 -0.5795
 2732TIP3   OH229830   4.540   4.832   8.708 -0.1719  0.1252 -0.0767
 2732TIP3    H129831   4.459   4.829   8.759  0.4672  0.0483  0.9464
 2732TIP3    H229832   4.580   4.916   8.730 -1.0885  1.2727 -2.3835
 2733TIP3   OH229833   3.044   6.683   1.205  0.1587 -0.3624  0.4066
 2733TIP3    H129834   3.093   6.668   1.286 -0.6365  0.6282  1.1018
 2733TIP3    H229835   3.012   6.596   1.180  2.2196 -1.0351 -0.0684
 2734TIP3   OH229836   3.601   5.732   1.562  0.0622 -0.1635 -0.2908
 2734TIP3    H129837   3.568   5.806   1.511 -1.5579  0.5598  1.6607
 2734TIP3    H229838   3.688   5.758   1.590  1.1546 -0.7547 -2.9343
 2735TIP3   OH229839   6.206   6.561   2.878  0.4330 -0.4455 -0.3310
 2735TIP3    H129840   6.151   6.500   2.829  1.7184 -1.0331 -1.1225
 2735TIP3    H229841   6.262   6.504   2.931  1.8704  0.0055 -1.3130
 2736TIP3   OH229842   5.001   4.039   7.111 -0.1771  0.1276 -0.2381
 2736TIP3    H129843   4.954   4.110   7.068  1.8712  0.9315 -1.2738
 2736TIP3    H229844   4.972   3.960   7.066  0.6026  0.7753 -1.9815
 2737TIP3   OH229845   2.657   4.271   7.910 -0.5308  0.1466 -0.5115
 2737TIP3    H129846   2.618   4.357   7.927  1.0820  0.7602  0.3947
 2737TIP3    H229847   2.620   4.214   7.978 -0.6127  0.4643 -0.2881
 2738TIP3   OH229848   3.468   0.100   1.660 -0.0410 -0.1062  0.2694
 2738TIP3    H129849   3.544   0.091   1.717  0.1553  0.2802  0.0744
 2738TIP3    H229850   3.489   0.174   1.603 -0.5086 -0.0734  0.1295
 2739TIP3   OH229851   1.886   3.629   6.959  0.0131  0.1514  0.5031
 2739TIP3    H129852   1.799   3.595   6.979  0.1387  0.0743  0.9150
 2739TIP3    H229853   1.881   3.721   6.984 -0.2460  0.3826 -0.3701
 2740TIP3   OH229854   5.942   5.314   0.064 -0.2798 -0.3635  0.5172
 2740TIP3    H129855   5.891   5.234   0.076  0.5204 -0.7325  1.7408
 2740TIP3    H229856   5.903   5.357  -0.012 -1.7546 -1.1171  0.8113
 2741TIP3   OH229857   3.411   2.991   7.900  0.4846  0.2350 -0.2623
 2741TIP3    H129858   3.505   2.986   7.885  0.8664 -1.1457  1.9946
 2741TIP3    H229859   3.373   2.925   7.842  1.2741 -1.2268  0.8160
 2742TIP3   OH229860   6.447   3.307   0.560  0.1262  0.1360  0.3181
 2742TIP3    H129861   6.391   3.242   0.602 -1.9357  2.1829  0.9665
 2742TIP3    H229862   6.425   3.390   0.603  2.9836  1.2460 -0.1067
 2743TIP3   OH229863   2.017   6.113   0.461 -0.1889  0.1972 -0.1292
 2743TIP3    H129864   2.020   6.110   0.557  0.7786 -0.3207 -0.1557
 2743TIP3    H229865   2.063   6.194   0.439  2.3727 -1.1646 -0.1964
 2744TIP3   OH229866   3.235   5.309   8.191 -0.0169  0.1267  0.1799
 2744TIP3    H129867   3.160   5.314   8.251 -0.6631 -2.3855 -0.2994
 2744TIP3    H229868   3.275   5.396   8.196 -2.7415  1.4716  0.6989
 2745TIP3   OH229869   0.869   4.683   1.851  0.0327  0.0975  0.1187
 2745TIP3    H129870   0.923   4.612   1.814 -0.6242 -0.7789  0.7793
 2745TIP3    H229871   0.864   4.748   1.782  0.7335 -0.4587 -0.4804
 2746TIP3   OH229872   3.657   3.067   0.475  0.3398  0.2668 -0.5389
 2746TIP3    H129873   3.569   3.099   0.495  0.1312 -0.6247 -0.0249
 2746TIP3    H229874   3.683   3.117   0.397 -0.5911  0.5774 -0.6597
 2747TIP3   OH229875   6.667   4.159   2.028  0.0565  0.1382 -0.1220
 2747TIP3    H129876   6.649   4.088   1.967 -0.5517 -1.3773  1.7371
 2747TIP3    H229877   6.601   4.226   2.007 -1.0357 -0.9452 -0.2434
 2748TIP3   OH229878   3.714   1.694   1.508  0.3702  0.2036  0.1389
 2748TIP3    H129879   3.756   1.625   1.455  0.5662  0.8976 -0.6221
 2748TIP3    H229880   3.716   1.771   1.453 -2.4923  0.1456 -0.1742
 2749TIP3   OH229881   6.445   1.382   1.507 -0.9914  0.1952  0.0081
 2749TIP3    H129882   6.487   1.468   1.511 -0.8358  0.0908  2.6577
 2749TIP3    H229883   6.369   1.395   1.451  0.8628  1.1543 -2.4396
 2750TIP3   OH229884   1.860   5.418   7.432 -0.3298  0.1999 -0.2519
 2750TIP3    H129885   1.814   5.415   7.348 -0.0692 -1.1278 -0.3622
 2750TIP3    H229886   1.829   5.340   7.479  0.9112 -0.0643  0.1511
 2751TIP3   OH229887   6.596   5.071   2.619 -0.2852  0.2038 -0.4521
 2751TIP3    H129888   6.503   5.086   2.602 -0.7250  1.1108  2.2595
 2751TIP3    H229889   6.601   5.060   2.714  2.1952 -1.4410 -0.6801
 2752TIP3   OH229890   6.571   6.057   3.230  0.1655 -1.0418 -0.8430
 2752TIP3    H129891   6.482   6.070   3.264  0.4163 -1.4552 -0.0120
 2752TIP3    H229892   6.580   6.124   3.161  1.0593  2.7311  2.5773
 2753TIP3   OH229893   3.112   1.010   8.586  0.3820 -1.0521  0.2382
 2753TIP3    H129894   3.061   1.024   8.507  1.4910  1.5331 -0.1154
 2753TIP3    H229895   3.203   1.014   8.557  0.8161 -1.8788  1.4034
 2754TIP3   OH229896   1.824   1.240   8.574  0.6877  0.2999  0.3658
 2754TIP3    H129897   1.801   1.333   8.582 -1.1008 -0.2517  2.3668
 2754TIP3    H229898   1.765   1.206   8.506 -0.6451  0.0700  1.6031
 2755TIP3   OH229899   3.416   5.711   0.313  0.1930  0.2671  0.4994
 2755TIP3    H129900   3.417   5.636   0.253 -0.0001  0.2951  0.4595
 2755TIP3    H229901   3.452   5.783   0.262 -1.0880  0.5869  0.0107
 2756TIP3   OH229902   3.278   4.736   8.099  0.3657  0.0016 -0.5970
 2756TIP3    H129903   3.308   4.647   8.076  1.5985  0.0459  0.6730
 2756TIP3    H229904   3.348   4.793   8.067  0.3278  0.3756 -0.0115
 2757TIP3   OH229905   5.135   6.624   2.228  0.3537  0.0140  0.4256
 2757TIP3    H129906   5.106   6.706   2.188  0.1326  0.0296  0.6177
 2757TIP3    H229907   5.071   6.559   2.198 -0.4883  0.2395  1.6740
 2758TIP3   OH229908   0.993   0.576   8.596 -0.2204 -0.0269  0.0544
 2758TIP3    H129909   0.922   0.572   8.659  1.7924  0.0368  2.5086
 2758TIP3    H229910   1.072   0.590   8.650  1.6836 -0.3337 -2.4625
 2759TIP3   OH229911   0.324   2.893   8.750  0.3552 -0.2489 -0.1406
 2759TIP3    H129912   0.256   2.881   8.816 -0.4201 -1.0681 -1.0592
 2759TIP3    H229913   0.396   2.836   8.778  1.3444  1.7280  1.6411
 2760TIP3   OH229914   5.293   2.126   1.791 -0.0092  0.0168  0.5954
 2760TIP3    H129915   5.258   2.054   1.739  1.3208  0.2092 -0.6319
 2760TIP3    H229916   5.308   2.196   1.728 -1.4642  1.4843  1.7942
 2761TIP3   OH229917   2.858   3.281   8.583  0.0257 -0.6236 -0.5228
 2761TIP3    H129918   2.913   3.273   8.505 -0.2177  3.1428 -1.2907
 2761TIP3    H229919   2.824   3.371   8.579 -3.5810 -1.6953  1.6283
 2762TIP3   OH229920   2.326   2.652   1.859 -0.1977  0.4833 -0.6141
 2762TIP3    H129921   2.325   2.564   1.896  0.4519  0.5517 -0.4292
 2762TIP3    H229922   2.234   2.671   1.840 -0.3749 -0.1112 -0.3678
 2763TIP3   OH229923   0.527   3.962   7.608 -0.6464 -0.1803  0.1133
 2763TIP3    H129924   0.531   3.894   7.676 -0.2230  0.0727  0.3438
 2763TIP3    H229925   0.617   3.991   7.597 -0.4615 -1.2549 -1.6264
 2764TIP3   OH229926   6.051   4.963   8.682  0.1603  0.5072 -0.2133
 2764TIP3    H129927   6.065   5.011   8.600 -0.1043  4.5149  1.8629
 2764TIP3    H229928   5.956   4.967   8.696  0.1441 -0.6089  0.0820
 2765TIP3   OH229929   3.458   3.472   1.759  0.0914 -0.3587 -0.3248
 2765TIP3    H129930   3.469   3.549   1.703  1.5747 -1.3225 -1.4367
 2765TIP3    H229931   3.462   3.398   1.699 -0.1068 -1.3595  0.8597
 2766TIP3   OH229932   0.792   6.181   8.041  0.0186  0.2186  0.8296
 2766TIP3    H129933   0.809   6.201   7.948  0.6476  0.1968  0.9389
 2766TIP3    H229934   0.860   6.229   8.088  0.2150 -0.4499  1.2324
 2767TIP3   OH229935   2.967   1.270   8.816 -0.1657 -0.7646  0.7902
 2767TIP3    H129936   3.010   1.321   8.748 -3.4692  0.6353 -0.4394
 2767TIP3    H229937   2.956   1.331   8.889 -0.9132 -0.7624  0.6889
 2768TIP3   OH229938   5.095   4.174   2.226 -0.1295  0.1647  0.6289
 2768TIP3    H129939   5.106   4.198   2.318 -2.6683 -0.4968  1.1573
 2768TIP3    H229940   5.081   4.080   2.227 -0.1276  0.1386 -0.4573
 2769TIP3   OH229941   2.294   0.759   7.381  0.5446  0.3051 -0.4973
 2769TIP3    H129942   2.338   0.692   7.434  0.2681  0.1229 -0.4951
 2769TIP3    H229943   2.201   0.749   7.402  0.4379  0.2717 -0.9707
 2770TIP3   OH229944   5.912   1.981   8.263 -0.3493  0.1291  0.0278
 2770TIP3    H129945   5.822   1.949   8.257 -0.3960  0.5923 -3.7029
 2770TIP3    H229946   5.962   1.922   8.207  1.2776  1.2180  0.2777
 2771TIP3   OH229947   6.459   1.239   0.634 -0.5267 -1.0284  0.4179
 2771TIP3    H129948   6.441   1.287   0.715 -0.4181  0.2843 -0.3008
 2771TIP3    H229949   6.373   1.229   0.594 -0.3265  0.8283 -0.6170
 2772TIP3   OH229950   1.244   4.879   1.044 -0.4396 -0.0220 -0.5496
 2772TIP3    H129951   1.270   4.795   1.082  0.3695  0.5583  0.2127
 2772TIP3    H229952   1.151   4.886   1.064 -0.4737 -0.6563 -0.4582
 2773TIP3   OH229953   6.128   3.812   2.165 -0.6471 -0.3826 -0.3099
 2773TIP3    H129954   6.119   3.839   2.074  1.6042  0.6917 -0.2641
 2773TIP3    H229955   6.047   3.842   2.206 -0.6109  1.4264 -1.4330
 2774TIP3   OH229956   4.890   1.613   7.441  0.0795 -0.2958  0.5602
 2774TIP3    H129957   4.844   1.663   7.374 -0.5658  0.6434  1.6681
 2774TIP3    H229958   4.973   1.660   7.453  0.9710 -1.4551 -0.7733
 2775TIP3   OH229959   3.168   4.274   0.376  0.2697 -0.5208 -0.3686
 2775TIP3    H129960   3.192   4.224   0.454  0.3947  0.7304  0.4332
 2775TIP3    H229961   3.251   4.303   0.339  0.2656 -1.8477 -1.5225
 2776TIP3   OH229962   5.874   0.319   7.931 -0.1552 -0.1038 -0.0028
 2776TIP3    H129963   5.913   0.393   7.884 -1.8576 -0.2713 -1.7987
 2776TIP3    H229964   5.822   0.359   8.000 -1.0299  0.4109 -0.9366
 2777TIP3   OH229965   5.278   1.864   0.472  0.1149  0.1582 -0.4729
 2777TIP3    H129966   5.182   1.858   0.471  0.1755 -1.1430 -0.0696
 2777TIP3    H229967   5.308   1.773   0.481  1.3623  0.6831  1.0606
 2778TIP3   OH229968   2.060   2.045   1.172  0.2308 -0.0513  0.2143
 2778TIP3    H129969   2.082   2.051   1.265 -1.1820  0.4307  0.5451
 2778TIP3    H229970   2.092   1.959   1.145  1.2356  0.0704  0.9816
 2779TIP3   OH229971   4.952   2.044   0.053 -0.5864 -0.2020  0.3266
 2779TIP3    H129972   4.879   2.101   0.028 -0.2501  0.0156 -0.1785
 2779TIP3    H229973   5.008   2.099   0.108  2.3281  1.7055 -4.0189
 2780TIP3   OH229974   2.368   4.343   1.169  0.1932 -0.3134 -0.2163
 2780TIP3    H129975   2.464   4.351   1.171  0.0505  1.9381  0.2777
 2780TIP3    H229976   2.337   4.426   1.204 -1.9658 -1.5400  0.9369
 2781TIP3   OH229977   2.810   2.690   8.369  0.2533 -0.7875  0.4095
 2781TIP3    H129978   2.811   2.761   8.305  0.1365 -0.8462  0.3428
 2781TIP3    H229979   2.759   2.724   8.443  1.3206 -0.2997  0.9543
 2782TIP3   OH229980   0.728   1.964   0.173  0.0330 -0.2606 -0.0920
 2782TIP3    H129981   0.718   1.871   0.191 -1.2971  0.0768  1.1248
 2782TIP3    H229982   0.643   1.991   0.137  0.7254  0.3011 -1.3673
 2783TIP3   OH229983   6.156   4.089   1.764 -0.3932  0.1585 -0.5244
 2783TIP3    H129984   6.192   4.117   1.680  0.5718  0.0174 -0.1707
 2783TIP3    H229985   6.225   4.107   1.828 -1.6060  1.5090  0.4729
 2784TIP3   OH229986   1.038   1.087   7.423 -0.1813 -0.6046 -0.0975
 2784TIP3    H129987   1.085   1.011   7.389 -0.1044 -0.3578 -0.5458
 2784TIP3    H229988   1.053   1.156   7.359 -0.7436 -0.3792  0.0030
 2785TIP3   OH229989   3.720   3.487   7.703 -0.1250 -0.4419 -0.7712
 2785TIP3    H129990   3.702   3.508   7.795  0.3300 -0.5722 -0.6460
 2785TIP3    H229991   3.684   3.561   7.654 -0.0620 -0.2005 -0.4606
 2786TIP3   OH229992   0.307   2.610   0.707  0.1704  0.3088  0.6367
 2786TIP3    H129993   0.246   2.537   0.697  0.3580  0.1259  0.8126
 2786TIP3    H229994   0.339   2.627   0.618  0.0367  0.2540  0.5788
 2787TIP3   OH229995   0.907   4.423   0.474 -0.1297  0.0865 -0.3601
 2787TIP3    H129996   0.821   4.422   0.431  0.0490  0.6316 -0.7429
 2787TIP3    H229997   0.896   4.366   0.550 -0.8948  0.3070 -0.2942
 2788TIP3   OH229998   3.765   6.808   0.862 -0.3536  0.1806 -0.0701
 2788TIP3    H129999   3.775   6.726   0.910  0.9999  0.0222 -0.5697
 2788TIP3    H230000   3.731   6.869   0.926 -1.9261 -0.8910  0.1710
 2789TIP3   OH230001   5.841   5.779   7.413 -0.4883  0.2758  0.0159
 2789TIP3    H130002   5.834   5.872   7.433 -3.0593  0.4768 -1.3921
 2789TIP3    H230003   5.846   5.776   7.317  1.5277 -1.0105  0.0908
 2790TIP3   OH230004   3.355   4.157   7.837  0.3406 -0.2075 -0.6502
 2790TIP3    H130005   3.408   4.081   7.862  1.0009  0.8955  1.6303
 2790TIP3    H230006   3.272   4.145   7.883  1.4020  1.6227  2.0717
 2791TIP3   OH230007   1.974   6.794   0.167  0.0665 -0.0241  0.4312
 2791TIP3    H130008   2.007   6.882   0.186  0.7291 -0.1970  0.0982
 2791TIP3    H230009   1.886   6.809   0.131 -0.1556  0.4476  1.1276
 2792TIP3   OH230010   2.406   5.774   8.618  0.3443  0.6701  0.5979
 2792TIP3    H130011   2.346   5.836   8.578 -0.0722  0.1126  0.3449
 2792TIP3    H230012   2.486   5.824   8.633  0.4038  0.9694 -0.6477
 2793TIP3   OH230013   2.118   2.815   8.571  0.2336 -0.1085 -0.1940
 2793TIP3    H130014   2.048   2.876   8.545  1.0958  1.4957  1.0704
 2793TIP3    H230015   2.072   2.747   8.620 -0.5521  0.6049  0.1093
 2794TIP3   OH230016   4.647   4.191   1.358  0.4333 -0.9922  0.2284
 2794TIP3    H130017   4.570   4.179   1.302  0.9126 -1.4867 -0.3440
 2794TIP3    H230018   4.675   4.102   1.380  0.8570 -0.8172  0.4129
 2795TIP3   OH230019   5.538   3.182   7.307 -0.4964  0.3827 -0.7863
 2795TIP3    H130020   5.578   3.227   7.233  2.8006 -1.2650 -0.1508
 2795TIP3    H230021   5.519   3.094   7.276 -1.0628  0.3028 -0.2517
 2796TIP3   OH230022   3.364   5.185   7.980  0.2319 -0.4318  0.5738
 2796TIP3    H130023   3.312   5.196   8.059 -0.4433 -0.9387  0.2150
 2796TIP3    H230024   3.347   5.264   7.929  2.4532  0.9827  1.8939
 2797TIP3   OH230025   1.611   3.342   7.147 -0.6308 -0.6983  0.6592
 2797TIP3    H130026   1.626   3.431   7.113  0.5099 -1.8137 -2.0743
 2797TIP3    H230027   1.699   3.309   7.167 -0.9480 -1.5555  0.6648
 2798TIP3   OH230028   1.884   6.375   0.679 -0.4212  0.3535  0.4503
 2798TIP3    H130029   1.980   6.381   0.686 -0.0801 -2.0401 -0.9580
 2798TIP3    H230030   1.852   6.416   0.759  1.7441  1.8037  0.6729
 2799TIP3   OH230031   3.996   5.835   1.613 -0.7558 -0.1497  0.2329
 2799TIP3    H130032   4.091   5.829   1.626 -0.9809 -3.1856  1.2858
 2799TIP3    H230033   3.986   5.843   1.518  0.5466 -0.2653  0.0616
 2800TIP3   OH230034   3.396   2.802   6.874  0.3260  0.0716 -0.4014
 2800TIP3    H130035   3.412   2.865   6.945  1.5346 -0.6871  0.0231
 2800TIP3    H230036   3.372   2.721   6.918 -2.0608  0.3878 -0.9633
 2801TIP3   OH230037   1.197   4.266   1.745  0.2596  0.2062  0.4478
 2801TIP3    H130038   1.164   4.184   1.783  0.2953 -0.2645 -0.5122
 2801TIP3    H230039   1.155   4.335   1.796  0.6512 -0.4081  1.6242
 2802TIP3   OH230040   0.682   4.417   7.579  0.2579 -0.8934 -0.0491
 2802TIP3    H130041   0.744   4.486   7.603  0.9750 -2.0308  1.5621
 2802TIP3    H230042   0.608   4.430   7.638 -0.9009  0.1845 -1.6656
 2803TIP3   OH230043   3.462   5.947   0.173  0.0499 -0.2587  0.6728
 2803TIP3    H130044   3.498   5.969   0.259 -0.2897  0.0873  0.7258
 2803TIP3    H230045   3.479   6.024   0.120  0.1726 -0.4354  0.4523
 2804TIP3   OH230046   5.049   4.411   0.423 -0.4577  0.2120 -0.0505
 2804TIP3    H130047   5.009   4.487   0.465  0.0472  1.1567 -1.2126
 2804TIP3    H230048   4.979   4.347   0.416 -1.0231  0.7680  0.4836
 2805TIP3   OH230049   2.143   0.326   6.268  0.3589  0.1215 -0.6387
 2805TIP3    H130050   2.049   0.315   6.283  0.2063  1.1970 -0.7447
 2805TIP3    H230051   2.174   0.373   6.346  0.9067 -0.6482 -0.3774
 2806TIP3   OH230052   4.159   1.819   8.718 -0.2475 -0.1504 -0.4519
 2806TIP3    H130053   4.113   1.861   8.646 -0.3050 -0.1146 -0.3945
 2806TIP3    H230054   4.152   1.881   8.790  0.9452  0.3940 -0.7953
 2807TIP3   OH230055   4.195   6.785   8.165 -0.2028  0.2459  0.1073
 2807TIP3    H130056   4.152   6.810   8.084  0.1690 -0.5154 -0.3365
 2807TIP3    H230057   4.262   6.851   8.178  0.5997 -0.3362 -0.9132
 2808TIP3   OH230058   0.840   6.778   7.128 -0.1285  0.4050 -0.2510
 2808TIP3    H130059   0.886   6.802   7.047  1.1308 -1.2755 -0.0885
 2808TIP3    H230060   0.760   6.831   7.127 -0.2988  0.2281 -2.7488
 2809TIP3   OH230061   4.668   6.124   1.607 -0.0875  0.2993 -0.1471
 2809TIP3    H130062   4.646   6.217   1.596 -3.4991 -0.3011  0.4669
 2809TIP3    H230063   4.727   6.123   1.683  1.1910  2.0331 -1.0407
 2810TIP3   OH230064   5.730   3.683   1.567 -0.2263 -0.1589  0.5185
 2810TIP3    H130065   5.736   3.728   1.483  0.4595  0.5132  0.9075
 2810TIP3    H230066   5.784   3.605   1.556 -0.0416 -0.0113  0.3715
 2811TIP3   OH230067   1.753   3.469   1.976  0.3751  0.0024  0.0177
 2811TIP3    H130068   1.784   3.381   1.996  1.3106  0.1970 -0.5430
 2811TIP3    H230069   1.658   3.459   1.965  0.5936 -1.1049 -0.9657
 2812TIP3   OH230070   3.587   1.862   8.148  0.3484 -0.8672 -0.0090
 2812TIP3    H130071   3.621   1.887   8.233  0.2827 -0.3197 -0.1407
 2812TIP3    H230072   3.551   1.774   8.161 -0.0575 -0.6063  0.6296
 2813TIP3   OH230073   2.097   1.618   1.717  0.5840  0.1905 -0.4854
 2813TIP3    H130074   2.143   1.542   1.680  1.1656  0.1968  0.1950
 2813TIP3    H230075   2.141   1.634   1.800 -0.5626  0.2858  0.1312
 2814TIP3   OH230076   5.545   1.262   1.253 -0.3875  0.0649  0.3285
 2814TIP3    H130077   5.595   1.316   1.314 -0.7640  0.1340  0.5743
 2814TIP3    H230078   5.559   1.304   1.168 -0.1590  0.1793  0.4215
 2815TIP3   OH230079   6.716   5.339   7.901 -0.0763 -0.2613  0.5056
 2815TIP3    H130080   6.689   5.248   7.913 -0.3273 -0.1453  0.8219
 2815TIP3    H230081   6.640   5.391   7.926  0.7426  0.1086  2.3841
 2816TIP3   OH230082   6.565   1.582   6.974 -0.1330  0.4296  0.5524
 2816TIP3    H130083   6.534   1.494   6.994 -0.7864  0.3630 -0.6879
 2816TIP3    H230084   6.496   1.620   6.920  1.6315  0.4914 -1.8070
 2817TIP3   OH230085   6.740   6.592   0.981 -0.1502 -0.2762 -0.0944
 2817TIP3    H130086   6.827   6.559   0.958  0.5298  1.0982  0.3689
 2817TIP3    H230087   6.680   6.545   0.923  1.1217  0.2784 -1.9483
 2818TIP3   OH230088   5.131   3.349   1.146  1.0028  0.4344 -0.1465
 2818TIP3    H130089   5.163   3.422   1.093 -0.0383  0.8774 -0.1856
 2818TIP3    H230090   5.043   3.376   1.173  1.3622  0.0409  1.4887
 2819TIP3   OH230091   4.691   6.685   1.762  0.6671  0.1306  0.2882
 2819TIP3    H130092   4.715   6.690   1.855  0.7038  0.1717  0.2766
 2819TIP3    H230093   4.727   6.601   1.733 -1.3429 -1.0003  0.8852
 2820TIP3   OH230094   4.004   1.752   1.093  0.2602  0.1967  0.3586
 2820TIP3    H130095   3.991   1.835   1.048  1.0145 -0.2230 -0.6692
 2820TIP3    H230096   4.094   1.726   1.071 -0.0576 -1.0335  0.4033
 2821TIP3   OH230097   4.890   3.497   1.130  0.1031  0.0202 -0.3597
 2821TIP3    H130098   4.855   3.417   1.168  2.4651 -0.0833  1.8693
 2821TIP3    H230099   4.870   3.565   1.193 -0.9450  1.0590 -1.7384
 2822TIP3   OH230100   2.973   3.558   1.510 -0.2856 -0.4327 -0.0314
 2822TIP3    H130101   3.048   3.603   1.473 -1.8730  0.7523 -1.9984
 2822TIP3    H230102   2.947   3.494   1.444  0.1933 -2.3483  1.5135
 2823TIP3   OH230103   5.343   2.317   8.720  0.2210 -0.1137  0.0778
 2823TIP3    H130104   5.279   2.257   8.683 -0.0356  0.5390 -0.5479
 2823TIP3    H230105   5.427   2.285   8.687  0.2217 -0.9207  0.8347
 2824TIP3   OH230106   2.822   3.208   2.398  0.1277  0.4565 -0.0145
 2824TIP3    H130107   2.841   3.298   2.373 -1.9848  1.1326  0.5319
 2824TIP3    H230108   2.733   3.212   2.434 -0.0917 -1.8889 -0.1443
 2825TIP3   OH230109   2.097   6.515   7.703 -0.5355 -0.3108  0.1132
 2825TIP3    H130110   2.051   6.562   7.633 -0.6051 -0.8245 -0.1887
 2825TIP3    H230111   2.119   6.430   7.665 -0.3598 -0.5058  0.6396
 2826TIP3   OH230112   3.257   4.972   7.642  0.1353  0.0214  0.5499
 2826TIP3    H130113   3.301   4.929   7.716 -0.2830 -0.2720  0.6306
 2826TIP3    H230114   3.210   5.045   7.682  1.0062  0.6832  0.3851
 2827TIP3   OH230115   0.233   6.285   1.647 -0.3972  0.6646 -0.1730
 2827TIP3    H130116   0.251   6.365   1.695  0.5799  0.1775  0.3081
 2827TIP3    H230117   0.298   6.284   1.576  0.7372 -0.4901  0.8159
 2828TIP3   OH230118   4.761   5.996   6.972  0.1345  0.1937  0.5453
 2828TIP3    H130119   4.752   5.923   7.033 -0.2966  1.0056  1.4908
 2828TIP3    H230120   4.695   6.060   7.001 -1.2575 -0.0690 -1.7941
 2829TIP3   OH230121   0.016   3.953   6.909 -0.6129 -0.0096  0.2820
 2829TIP3    H130122  -0.041   4.007   6.964  1.1117  1.4955  0.6790
 2829TIP3    H230123   0.064   4.016   6.855 -1.6601 -1.3718 -2.4930
 2830TIP3   OH230124   0.426   0.532   0.127  0.0554 -0.1966 -0.1360
 2830TIP3    H130125   0.469   0.521   0.042  1.1582 -0.4500  0.4294
 2830TIP3    H230126   0.422   0.627   0.140 -0.0704 -0.1585 -0.4398
 2831TIP3   OH230127   6.056   3.849   7.940 -0.3918 -0.2179  0.3167
 2831TIP3    H130128   6.003   3.775   7.910  0.1392 -0.3348 -0.3724
 2831TIP3    H230129   6.011   3.926   7.907 -0.6450 -0.2633  0.5538
 2832TIP3   OH230130   3.622   5.166   8.121 -0.0516  0.1196 -0.0938
 2832TIP3    H130131   3.645   5.231   8.055  1.1013 -0.8591 -0.6871
 2832TIP3    H230132   3.529   5.149   8.106 -0.3429  1.4988 -0.0143
 2833TIP3   OH230133   4.902   6.115   6.756  0.5352  0.0109  0.1270
 2833TIP3    H130134   4.853   6.090   6.834 -1.3631  1.5242 -0.5119
 2833TIP3    H230135   4.857   6.072   6.683 -0.1833  1.7284 -0.5104
 2834TIP3   OH230136   3.633   5.951   1.805 -0.0441 -0.2261  0.2554
 2834TIP3    H130137   3.602   5.953   1.714  0.5165  0.4766  0.0656
 2834TIP3    H230138   3.696   6.024   1.810  0.2985 -0.5688  1.0747
 2835TIP3   OH230139   3.690   5.685   7.713 -0.0341 -0.1503 -0.2389
 2835TIP3    H130140   3.755   5.694   7.644  0.0043 -1.7444 -0.4571
 2835TIP3    H230141   3.606   5.679   7.666 -0.1013 -0.3358 -0.0973
 2836TIP3   OH230142   1.886   5.766   1.839 -1.0084 -0.0031  0.7352
 2836TIP3    H130143   1.921   5.820   1.909  2.2384 -1.8933  0.7295
 2836TIP3    H230144   1.943   5.782   1.764  0.6669 -3.8560  0.9580
 2837TIP3   OH230145   4.496   4.678   7.173  0.2522  0.2253  0.8134
 2837TIP3    H130146   4.572   4.635   7.212  0.5109  0.9594  1.1173
 2837TIP3    H230147   4.447   4.606   7.133  1.4227 -0.1776  0.0549
 2838TIP3   OH230148   1.852   5.663   0.711 -0.1454 -0.2036  0.1183
 2838TIP3    H130149   1.887   5.636   0.626 -2.3327 -1.9034 -0.3307
 2838TIP3    H230150   1.779   5.721   0.690 -0.8641 -0.8388  0.8175
 2839TIP3   OH230151   0.368   3.394   2.617 -0.1866  0.6170  0.1950
 2839TIP3    H130152   0.421   3.416   2.694  0.3730  0.6120 -0.1848
 2839TIP3    H230153   0.315   3.319   2.645  0.8526 -0.1251  0.2250
 2840TIP3   OH230154   4.587   6.386   1.590 -0.1852  0.0609  0.1483
 2840TIP3    H130155   4.672   6.418   1.617  0.5741 -1.0203 -0.8496
 2840TIP3    H230156   4.568   6.432   1.508 -0.9748  0.9244  0.7906
 2841TIP3   OH230157   5.726   6.156   1.589 -0.0409 -0.4910  0.1202
 2841TIP3    H130158   5.787   6.193   1.651 -0.4654  1.1320 -0.3905
 2841TIP3    H230159   5.690   6.079   1.633  0.3482  0.0963  1.4889
 2842TIP3   OH230160   0.983   2.209   8.453  0.0070 -0.8719 -0.3722
 2842TIP3    H130161   0.902   2.229   8.500 -0.1795 -0.3764 -0.8898
 2842TIP3    H230162   0.955   2.197   8.362  0.4709 -1.0232 -0.4980
 2843TIP3   OH230163   1.985   0.552   2.027 -0.3445 -0.0740  0.3435
 2843TIP3    H130164   2.060   0.512   1.982 -0.5123  0.5071 -0.4709
 2843TIP3    H230165   1.911   0.495   2.007 -0.5873  0.6338 -0.8312
 2844TIP3   OH230166   1.766   2.769   0.429  0.5921 -0.7414 -0.1699
 2844TIP3    H130167   1.766   2.725   0.344  0.6485  0.5302 -0.8534
 2844TIP3    H230168   1.728   2.855   0.412  0.2973 -0.5797  1.1652
 2845TIP3   OH230169   2.933   2.878   0.601  0.4803  0.1616  0.0842
 2845TIP3    H130170   2.935   2.839   0.514 -0.4573 -1.9989  0.9680
 2845TIP3    H230171   2.840   2.891   0.620  0.7408  2.9388 -0.1532
 2846TIP3   OH230172   2.746   5.623   8.136 -0.0545  0.4434  0.3289
 2846TIP3    H130173   2.803   5.570   8.191  1.0750  1.4001  0.1279
 2846TIP3    H230174   2.804   5.690   8.099 -1.1152  0.8416 -0.6845
 2847TIP3   OH230175   0.820   0.380   1.538 -1.3849  0.3036 -0.0841
 2847TIP3    H130176   0.872   0.310   1.498  0.8062  0.6835  1.9044
 2847TIP3    H230177   0.879   0.456   1.538 -3.2919  1.8769 -1.1265
 2848TIP3   OH230178   1.787   1.502   7.392  0.3634  0.0176 -0.4894
 2848TIP3    H130179   1.754   1.478   7.478  0.2572  0.3025 -0.4499
 2848TIP3    H230180   1.880   1.478   7.395  0.0345 -1.4273 -0.8421
 2849TIP3   OH230181   2.469   6.592   8.455  0.0620  0.2613  0.1057
 2849TIP3    H130182   2.492   6.609   8.547 -0.3260 -1.4828  0.5575
 2849TIP3    H230183   2.539   6.535   8.423  0.6683  1.5594 -0.9817
 2850TIP3   OH230184   1.970   3.723   8.076  0.2968  0.3068 -0.4226
 2850TIP3    H130185   1.930   3.639   8.053 -0.6032  0.5005  0.3911
 2850TIP3    H230186   2.000   3.759   7.992  1.1875 -1.0623 -0.7197
 2851TIP3   OH230187   6.400   5.297   0.598 -0.0370 -0.6873 -0.2076
 2851TIP3    H130188   6.459   5.226   0.624 -0.9182 -0.9860  1.1402
 2851TIP3    H230189   6.391   5.350   0.677  1.5857  1.7147 -1.5188
 2852TIP3   OH230190   1.282   3.346   2.537 -0.0040  0.0879 -0.0083
 2852TIP3    H130191   1.226   3.342   2.460 -0.3079 -0.7919  0.2515
 2852TIP3    H230192   1.249   3.277   2.595 -0.4244  1.3761  1.3572
 2853TIP3   OH230193   4.401   6.777   1.789  0.6962  0.0053  0.1131
 2853TIP3    H130194   4.347   6.782   1.710  1.7283  3.5415 -0.5633
 2853TIP3    H230195   4.490   6.765   1.756  0.8226 -1.9430  1.0137
 2854TIP3   OH230196   2.742   0.060   8.705  0.0636  0.2611 -0.0164
 2854TIP3    H130197   2.746   0.144   8.658 -0.8841 -0.1960 -0.9629
 2854TIP3    H230198   2.703   0.082   8.790 -0.6912  0.7093 -0.4687
 2855TIP3   OH230199   0.228   0.110   0.695  0.2312 -0.4707  0.3334
 2855TIP3    H130200   0.187   0.192   0.670  0.5512 -0.7991 -1.3627
 2855TIP3    H230201   0.154   0.053   0.719 -0.1855 -0.4206 -0.7585
 2856TIP3   OH230202   4.459   3.143   2.042  0.3875  0.3022 -0.3729
 2856TIP3    H130203   4.396   3.165   1.973 -0.3856 -0.7105 -0.0154
 2856TIP3    H230204   4.472   3.225   2.090 -1.0942  0.4254 -0.1210
 2857TIP3   OH230205   5.984   2.238   0.115  0.5363 -1.1862  0.7260
 2857TIP3    H130206   5.961   2.178   0.044 -0.1969 -1.0098  0.8049
 2857TIP3    H230207   5.913   2.303   0.115  0.7503 -0.9460  1.3472
 2858TIP3   OH230208   0.347   4.366   2.806 -0.1961 -0.1090 -0.0846
 2858TIP3    H130209   0.422   4.352   2.863 -0.6322  2.1022  1.1514
 2858TIP3    H230210   0.385   4.381   2.719  0.8365  1.0025  0.5321
 2859TIP3   OH230211   1.399   4.529   0.007  0.3480  0.0605 -0.0251
 2859TIP3    H130212   1.402   4.621  -0.017 -3.2450 -0.0836 -1.6079
 2859TIP3    H230213   1.467   4.488  -0.047  0.7003  1.4853 -0.7090
 2860TIP3   OH230214   1.256   2.941   2.070 -0.2866  0.5846 -0.2957
 2860TIP3    H130215   1.249   3.015   2.010 -0.4575  0.9991  0.2261
 2860TIP3    H230216   1.206   2.968   2.147  1.0390  0.6195  0.5757
 2861TIP3   OH230217   0.630   2.175   0.721  0.0476  0.1911  0.1985
 2861TIP3    H130218   0.588   2.199   0.804 -0.5825 -1.6982  0.4853
 2861TIP3    H230219   0.591   2.090   0.699  0.1696  0.6646 -2.0683
 2862TIP3   OH230220   2.508   2.439   7.511 -0.0766  0.1151 -0.1430
 2862TIP3    H130221   2.602   2.429   7.526 -0.3464 -1.0224  0.9613
 2862TIP3    H230222   2.496   2.533   7.494  0.9608  0.7115  2.0732
 2863TIP3   OH230223   5.661   1.921   0.506 -0.3007  0.5908  0.2921
 2863TIP3    H130224   5.618   2.004   0.527 -1.4953 -0.1466  0.8805
 2863TIP3    H230225   5.649   1.912   0.412 -1.4112  0.4328  0.4337
 2864TIP3   OH230226   3.324   0.159   0.482 -0.0997  0.3067 -0.1621
 2864TIP3    H130227   3.371   0.077   0.498  0.4491  0.6726  0.1473
 2864TIP3    H230228   3.316   0.199   0.568 -1.9915 -0.2612 -0.0297
 2865TIP3   OH230229   5.417   4.699   0.941  0.3912 -0.2022  0.3309
 2865TIP3    H130230   5.480   4.763   0.906 -0.2486  0.8248  0.9968
 2865TIP3    H230231   5.464   4.657   1.012 -0.2386  1.9335  2.1269
 2866TIP3   OH230232   1.792   4.668   7.778  0.0020 -0.0886  0.2488
 2866TIP3    H130233   1.817   4.760   7.785 -1.5176  0.2508  2.0096
 2866TIP3    H230234   1.783   4.652   7.685 -3.2356  2.5922 -0.0479
 2867TIP3   OH230235   3.267   0.852   1.570 -0.2917  0.1730  0.9817
 2867TIP3    H130236   3.205   0.923   1.554 -1.2854 -0.7488  0.6387
 2867TIP3    H230237   3.245   0.786   1.504  1.6862  0.2114  0.2118
 2868TIP3   OH230238   2.632   6.805   1.089  0.4802 -0.0357  0.3403
 2868TIP3    H130239   2.688   6.808   1.166  0.0720 -2.2852  0.8032
 2868TIP3    H230240   2.559   6.748   1.115 -0.0488 -0.2414 -1.4557
 2869TIP3   OH230241   3.351   5.710   7.241 -0.2914  0.7451  0.0520
 2869TIP3    H130242   3.291   5.682   7.311  0.5334  1.5614  1.1261
 2869TIP3    H230243   3.297   5.711   7.162 -1.4281  0.4564  0.7994
 2870TIP3   OH230244   5.141   5.693   7.481  0.4733  0.6765  0.7838
 2870TIP3    H130245   5.091   5.724   7.406 -0.6918 -2.1976  0.2357
 2870TIP3    H230246   5.076   5.647   7.535  2.2648 -2.4845  0.4610
 2871TIP3   OH230247   1.847   2.346   2.555 -0.1211  0.0698 -0.0693
 2871TIP3    H130248   1.929   2.319   2.595 -0.5861 -2.4016 -0.6364
 2871TIP3    H230249   1.797   2.386   2.626  0.0828 -1.8997  1.2373
 2872TIP3   OH230250   4.482   1.236   2.888 -0.2630 -0.4051 -0.1941
 2872TIP3    H130251   4.560   1.215   2.836 -0.4643 -1.2365 -0.1685
 2872TIP3    H230252   4.445   1.151   2.911 -0.6943 -0.0257  0.5308
 2873TIP3   OH230253   6.529   4.192   8.532  0.6123  0.4261  0.0481
 2873TIP3    H130254   6.460   4.195   8.598  0.3094 -1.5777 -0.1131
 2873TIP3    H230255   6.494   4.136   8.463  1.7148  0.8327 -0.8831
 2874TIP3   OH230256   4.727   5.888   6.649 -0.5869  0.5318  0.1574
 2874TIP3    H130257   4.643   5.909   6.689 -0.6425  0.4248  0.0979
 2874TIP3    H230258   4.774   5.839   6.715 -1.4902 -1.4782 -0.6221
 2875TIP3   OH230259   3.369   4.264   8.673  0.2618 -0.6281  0.5870
 2875TIP3    H130260   3.318   4.291   8.596 -2.7739 -0.2817  2.5752
 2875TIP3    H230261   3.373   4.342   8.728 -0.5640 -1.6824  2.2319
 2876TIP3   OH230262   6.581   2.626   1.266 -0.2975  0.1128 -0.0357
 2876TIP3    H130263   6.643   2.617   1.339 -0.7275  0.4609  0.3836
 2876TIP3    H230264   6.557   2.719   1.268  0.7197  0.4379 -1.4858
 2877TIP3   OH230265   0.949   0.959   8.690  0.1796 -0.1681 -0.1463
 2877TIP3    H130266   1.012   0.888   8.706 -0.1328 -0.4601 -0.2081
 2877TIP3    H230267   0.998   1.023   8.638  0.7533  0.0994  0.6899
 2878TIP3   OH230268   0.685   6.673   1.438 -0.3049  0.4311  0.3850
 2878TIP3    H130269   0.632   6.606   1.481 -1.7481  1.2164 -0.1063
 2878TIP3    H230270   0.761   6.625   1.405 -0.3934 -0.6232  1.6156
 2879TIP3   OH230271   1.649   0.149   7.542  0.5042  0.0016 -0.8057
 2879TIP3    H130272   1.668   0.079   7.480 -0.0930 -1.5468  0.6826
 2879TIP3    H230273   1.672   0.230   7.495  2.1128 -1.2175 -2.2288
 2880TIP3   OH230274   3.823   2.186   0.251  0.0348 -0.1137 -0.0854
 2880TIP3    H130275   3.801   2.278   0.267 -0.8274  0.0994 -2.1374
 2880TIP3    H230276   3.765   2.160   0.180 -1.7707 -3.1351  2.2723
 2881TIP3   OH230277   4.848   6.828   1.442  0.3205  0.1724 -0.0261
 2881TIP3    H130278   4.915   6.786   1.494 -0.4455 -0.7677  0.2203
 2881TIP3    H230279   4.831   6.911   1.487  1.9400  0.8431 -0.5994
 2882TIP3   OH230280   5.690   6.357   8.245  0.1321 -0.0734 -0.0590
 2882TIP3    H130281   5.751   6.335   8.315  1.9889  1.1744 -1.2146
 2882TIP3    H230282   5.734   6.329   8.165 -1.8412 -1.2519 -0.7992
 2883TIP3   OH230283   0.342   3.940   8.539  0.1610  0.2231 -0.3269
 2883TIP3    H130284   0.436   3.955   8.534  0.0808  0.8355 -0.1250
 2883TIP3    H230285   0.326   3.868   8.479  0.6908  0.4164 -0.7072
 2884TIP3   OH230286   1.463   4.238   1.638 -0.2348 -0.0916 -0.5992
 2884TIP3    H130287   1.420   4.305   1.584  0.3660 -0.1907 -1.2007
 2884TIP3    H230288   1.396   4.215   1.703 -0.6950  0.5858 -0.8140
 2885TIP3   OH230289   6.211   3.177   8.810 -0.7744 -0.3656 -0.0380
 2885TIP3    H130290   6.188   3.085   8.799  1.1158 -1.0576  1.2998
 2885TIP3    H230291   6.202   3.194   8.903  0.2123  0.4057 -0.0643
 2886TIP3   OH230292   6.421   5.858   0.435 -0.0991 -0.7179  0.3475
 2886TIP3    H130293   6.360   5.800   0.391 -0.3822 -0.8017  0.8417
 2886TIP3    H230294   6.506   5.841   0.393 -0.3307 -0.9154 -0.0412
 2887TIP3   OH230295   5.132   2.263   7.646  0.4582 -0.5411 -0.2035
 2887TIP3    H130296   5.221   2.230   7.639  0.9527  0.9398 -1.5587
 2887TIP3    H230297   5.120   2.281   7.739  1.6639 -0.5607 -0.0290
 2888TIP3   OH230298   1.146   2.331   2.798 -0.4004  0.5632 -0.0230
 2888TIP3    H130299   1.141   2.246   2.755  2.7482 -0.3837  1.2206
 2888TIP3    H230300   1.079   2.328   2.866 -2.1029  0.1885 -1.6336
 2889TIP3   OH230301   4.675   0.456   8.171  0.7462  0.6130  0.4965
 2889TIP3    H130302   4.720   0.530   8.131 -1.3843  1.1435 -1.1630
 2889TIP3    H230303   4.650   0.401   8.097 -0.9910  0.2128  1.3295
 2890TIP3   OH230304   6.591   6.119   7.483  0.1040 -0.6365  0.5696
 2890TIP3    H130305   6.676   6.157   7.505 -0.4283 -0.2679  2.0725
 2890TIP3    H230306   6.529   6.192   7.488 -0.3281 -0.9091 -0.4679
 2891TIP3   OH230307   6.524   3.221   0.321  0.7535 -0.4234  0.4793
 2891TIP3    H130308   6.592   3.287   0.310  0.0891  0.4335  1.4319
 2891TIP3    H230309   6.490   3.235   0.409  0.1080 -1.5712  0.4319
 2892TIP3   OH230310   3.506   1.070   1.749  0.3508 -0.1542 -0.2175
 2892TIP3    H130311   3.534   0.989   1.707  0.3328 -0.6429  0.6809
 2892TIP3    H230312   3.497   1.047   1.842 -0.2715  0.7137 -0.0479
 2893TIP3   OH230313   5.884   1.956   8.519 -0.0343 -0.3381 -0.2803
 2893TIP3    H130314   5.952   1.986   8.459 -0.8980  0.9346 -0.6475
 2893TIP3    H230315   5.808   1.939   8.464  0.0534 -2.0693  0.0864
 2894TIP3   OH230316   6.636   0.519   1.449  0.3096 -0.4214  0.3585
 2894TIP3    H130317   6.665   0.594   1.397 -0.0194  0.6589  1.6491
 2894TIP3    H230318   6.717   0.475   1.475  0.4309 -2.4111 -2.9440
 2895TIP3   OH230319   1.231   3.291   0.956 -0.3168 -0.2341 -0.2593
 2895TIP3    H130320   1.313   3.326   0.992 -0.2922 -1.1752  0.6521
 2895TIP3    H230321   1.178   3.369   0.938  0.7798  0.3909 -0.8984
 2896TIP3   OH230322   2.409   6.076   1.810  0.6352  0.0651  0.1120
 2896TIP3    H130323   2.452   6.068   1.725  1.8950  0.0731  0.7263
 2896TIP3    H230324   2.321   6.042   1.795  1.1295 -0.8160 -0.9824
 2897TIP3   OH230325   1.336   5.552   7.679 -0.2237  0.2280 -0.1859
 2897TIP3    H130326   1.298   5.592   7.758 -4.2562  0.7886 -2.1653
 2897TIP3    H230327   1.374   5.626   7.631 -0.8933  0.4613 -0.3621
 2898TIP3   OH230328   0.471   4.567   2.340 -0.1913  0.1251 -0.9316
 2898TIP3    H130329   0.391   4.553   2.288  0.3637  1.6498 -2.2896
 2898TIP3    H230330   0.450   4.639   2.398 -0.5308 -1.0285  0.4352
 2899TIP3   OH230331   6.143   2.763   2.141  0.2915  0.0926 -0.4115
 2899TIP3    H130332   6.188   2.841   2.176  0.3535  0.3951 -1.1469
 2899TIP3    H230333   6.066   2.799   2.095 -0.4638 -0.3881  0.4506
 2900TIP3   OH230334   2.336   5.755   0.123 -0.1991  0.1312  0.2303
 2900TIP3    H130335   2.357   5.824   0.185 -0.9049 -0.2945  0.9612
 2900TIP3    H230336   2.395   5.770   0.049 -0.5576  1.6858  0.2355
 2901TIP3   OH230337   6.454   6.616   2.301 -0.2121  0.1402  0.4676
 2901TIP3    H130338   6.496   6.553   2.360 -1.2998 -0.5253  0.5481
 2901TIP3    H230339   6.527   6.652   2.250  0.5003 -0.7720  0.8024
 2902TIP3   OH230340   4.922   4.860   0.313 -0.0839 -0.0777  1.1518
 2902TIP3    H130341   4.866   4.801   0.363 -1.9383  1.1816  0.6693
 2902TIP3    H230342   5.011   4.832   0.333 -0.8623 -2.7143  1.2950
 2903TIP3   OH230343   5.854   1.616   0.366  0.0931  0.1902  0.4795
 2903TIP3    H130344   5.884   1.618   0.456  0.6291 -2.6283  0.4570
 2903TIP3    H230345   5.810   1.531   0.357  0.6629  0.0756 -2.0587
 2904TIP3   OH230346   2.960   3.120   2.603 -0.1954  0.0027 -0.3382
 2904TIP3    H130347   2.958   3.187   2.671  0.3087 -0.2420 -0.0841
 2904TIP3    H230348   2.925   3.164   2.525 -0.6518  0.3188  0.0375
 2905TIP3   OH230349   2.741   2.162   7.941 -0.0518  0.2401 -0.2974
 2905TIP3    H130350   2.683   2.132   8.011  0.8048  1.3256  0.9205
 2905TIP3    H230351   2.827   2.127   7.964  0.4884  1.6322 -0.0980
 2906TIP3   OH230352   5.449   0.912   8.727 -0.3294 -0.2841 -0.2316
 2906TIP3    H130353   5.436   0.836   8.669 -1.0101 -0.1510 -0.2584
 2906TIP3    H230354   5.541   0.936   8.714 -0.0182 -1.2995  0.0100
 2907TIP3   OH230355   3.039   4.261   0.080  0.5622 -0.0258  0.3300
 2907TIP3    H130356   3.053   4.245   0.173 -0.2793  0.7007  0.6035
 2907TIP3    H230357   3.082   4.345   0.063  0.4887 -0.0289  0.1244
 2908TIP3   OH230358   5.814   2.594   7.505 -0.5170  0.7494 -0.2101
 2908TIP3    H130359   5.902   2.632   7.508 -0.4218  0.4555  1.1019
 2908TIP3    H230360   5.830   2.501   7.489 -0.6326  0.8049 -0.6700
 2909TIP3   OH230361   2.473   0.509   2.959 -0.3325 -0.0106  0.1519
 2909TIP3    H130362   2.459   0.441   2.893 -0.3800 -0.1595  0.3132
 2909TIP3    H230363   2.521   0.578   2.913  0.4233 -0.4979  0.1834
 2910TIP3   OH230364   6.158   4.579   1.510 -0.0541 -0.7818  0.1966
 2910TIP3    H130365   6.172   4.662   1.465 -1.5052  0.3714  1.7259
 2910TIP3    H230366   6.099   4.600   1.582  0.3161 -2.9673  1.2443
 2911TIP3   OH230367   4.070   4.643   7.398  0.1077  0.2455 -0.3394
 2911TIP3    H130368   4.040   4.612   7.483 -1.1589  0.2928 -0.7336
 2911TIP3    H230369   4.065   4.565   7.342  0.3943  0.3390 -0.4928
 2912TIP3   OH230370   4.102   0.039   7.911 -0.4727 -0.2713  0.1645
 2912TIP3    H130371   4.144   0.103   7.853 -0.8412 -1.6246 -1.6895
 2912TIP3    H230372   4.068  -0.028   7.851 -0.6662 -1.8695  1.9890
 2913TIP3   OH230373   5.205   2.953   8.180 -0.4243 -0.4801 -0.5927
 2913TIP3    H130374   5.245   2.896   8.115 -1.6707 -0.6532 -1.2455
 2913TIP3    H230375   5.160   2.894   8.240  0.6174 -0.3113  0.3635
 2914TIP3   OH230376   4.320   2.545   8.254 -0.1681  0.4935  0.2354
 2914TIP3    H130377   4.228   2.531   8.274 -0.5430  1.2448 -0.8797
 2914TIP3    H230378   4.328   2.526   8.160  0.1698  3.2338 -0.3932
 2915TIP3   OH230379   2.343   2.990   1.684 -0.1375 -0.0280 -0.4776
 2915TIP3    H130380   2.266   3.023   1.731  0.4672  1.2262 -0.3288
 2915TIP3    H230381   2.390   2.938   1.749 -0.4325 -0.1239 -0.3351
 2916TIP3   OH230382   0.081   6.251   0.197  0.1339 -0.0428  0.2113
 2916TIP3    H130383   0.155   6.280   0.144 -0.5481 -0.1194 -0.8283
 2916TIP3    H230384   0.009   6.309   0.172 -0.6532 -1.1548 -0.2402
 2917TIP3   OH230385   5.029   1.371   2.930 -0.1072  0.2583 -0.5669
 2917TIP3    H130386   5.025   1.290   2.879  3.7342 -0.8647  0.5755
 2917TIP3    H230387   4.980   1.352   3.010 -1.5537  0.1299 -1.4380
 2918TIP3   OH230388   4.767   4.660   8.172  0.3043  0.0402  0.7717
 2918TIP3    H130389   4.672   4.658   8.162  0.1737  3.1617  0.5333
 2918TIP3    H230390   4.784   4.737   8.227  2.8191  1.1009 -1.2970
 2919TIP3   OH230391   3.660   3.592   8.501  0.6580 -0.2909  0.4045
 2919TIP3    H130392   3.700   3.540   8.571  1.9620 -0.2125 -0.2587
 2919TIP3    H230393   3.625   3.669   8.545 -0.9373 -1.4833  1.3454
 2920TIP3   OH230394   5.064   2.213   3.060  0.1253  0.1012  0.4227
 2920TIP3    H130395   4.986   2.174   3.021 -0.5006  1.6648  0.0521
 2920TIP3    H230396   5.031   2.266   3.132  0.8270  0.8568  0.2048
 2921TIP3   OH230397   0.557   6.744   2.055  0.2987  0.3034  0.4196
 2921TIP3    H130398   0.472   6.758   2.098  0.4033  2.5175  0.0223
 2921TIP3    H230399   0.621   6.759   2.124  0.3918  0.8505  0.2229
 2922TIP3   OH230400   6.324   3.832   7.938  0.0432 -0.2886  0.2320
 2922TIP3    H130401   6.344   3.826   8.031 -0.1440  0.2355  0.3129
 2922TIP3    H230402   6.232   3.857   7.935 -0.1215 -0.9324 -0.1064
 2923TIP3   OH230403   3.247   1.633   8.582  0.6780  0.1945  0.3057
 2923TIP3    H130404   3.197   1.625   8.501 -2.1612 -1.1486  2.0371
 2923TIP3    H230405   3.283   1.546   8.597  0.5043  0.2204  0.8917
 2924TIP3   OH230406   5.080   3.717   1.249  0.0735  0.0659 -0.6734
 2924TIP3    H130407   4.995   3.725   1.292 -0.2544 -2.3194 -0.7504
 2924TIP3    H230408   5.129   3.655   1.304  2.1342  2.0216 -0.1370
 2925TIP3   OH230409   4.089   2.351   0.338  0.6719 -0.1323 -0.0792
 2925TIP3    H130410   4.181   2.340   0.316  1.0751  0.1085  1.3806
 2925TIP3    H230411   4.084   2.332   0.432 -0.2407  2.5468  0.5240
 2926TIP3   OH230412   3.684   3.827   8.810  0.6544  0.6209 -0.2676
 2926TIP3    H130413   3.734   3.881   8.870 -1.3549  1.4189  0.7772
 2926TIP3    H230414   3.623   3.888   8.767  1.1893 -0.1353 -2.2311
 2927TIP3   OH230415   0.472   2.727   7.802 -0.2558  0.6510  0.0774
 2927TIP3    H130416   0.551   2.777   7.822  2.0843 -2.4671 -0.7556
 2927TIP3    H230417   0.440   2.698   7.888  0.4106  0.6736  0.3423
 2928TIP3   OH230418   4.609   0.289   7.954 -0.1624 -0.3335 -0.0671
 2928TIP3    H130419   4.626   0.292   7.860  1.6285  0.9368  0.2492
 2928TIP3    H230420   4.664   0.217   7.986 -0.1474 -0.2359  0.1278
 2929TIP3   OH230421   3.231   1.047   1.785  0.1253  0.4840  0.2880
 2929TIP3    H130422   3.308   1.065   1.731  1.0068 -0.1513  1.2986
 2929TIP3    H230423   3.259   0.979   1.846 -1.5745 -0.5773 -0.0468
 2930TIP3   OH230424   4.844   5.348   6.581  0.4576 -0.3136 -1.0042
 2930TIP3    H130425   4.796   5.270   6.609  0.1808 -0.3246 -1.5015
 2930TIP3    H230426   4.783   5.420   6.597  0.8483 -0.1569 -0.2044
 2931TIP3   OH230427   3.135   0.822   1.289  0.1598  0.3897 -0.8530
 2931TIP3    H130428   3.080   0.890   1.327  0.5671  0.7402 -0.8828
 2931TIP3    H230429   3.077   0.746   1.279 -0.0768  0.4526 -0.0026
 2932TIP3   OH230430   1.851   1.273   1.024 -0.1953  0.1478  0.8716
 2932TIP3    H130431   1.860   1.234   0.937  2.3093 -1.4553  1.7614
 2932TIP3    H230432   1.849   1.367   1.008  2.1733 -0.0152 -0.8623
 2933TIP3   OH230433   4.501   4.384   7.555  0.0990 -0.3962  0.2453
 2933TIP3    H130434   4.483   4.446   7.484  2.2612 -0.0654 -0.0856
 2933TIP3    H230435   4.540   4.308   7.511 -0.0083 -0.8516  0.9221
 2934TIP3   OH230436   3.617   3.957   8.062  0.4738 -0.4644 -0.1376
 2934TIP3    H130437   3.691   3.911   8.022 -0.3794 -0.8901 -1.2831
 2934TIP3    H230438   3.541   3.922   8.017 -0.2419  1.9649 -0.9115
 2935TIP3   OH230439   5.342   0.309   2.146  0.3855 -0.1644 -0.4370
 2935TIP3    H130440   5.353   0.403   2.162 -1.8561  0.5539 -2.4782
 2935TIP3    H230441   5.290   0.279   2.221  0.3581  0.4350 -0.2078
 2936TIP3   OH230442   6.254   6.206   7.904  0.2313 -0.5166 -0.1746
 2936TIP3    H130443   6.320   6.139   7.889  1.4191  0.5851 -0.0251
 2936TIP3    H230444   6.173   6.168   7.871  1.3192 -1.1051 -2.3600
 2937TIP3   OH230445   1.167   1.800   0.634 -0.3368 -0.7028  0.1478
 2937TIP3    H130446   1.170   1.892   0.607  1.5205 -0.0374  2.2895
 2937TIP3    H230447   1.085   1.792   0.682 -0.5161 -0.1561 -0.0562
 2938TIP3   OH230448   0.874   3.694   2.246 -0.2299  0.6658  1.0348
 2938TIP3    H130449   0.963   3.674   2.275  1.1366  0.6071 -2.6471
 2938TIP3    H230450   0.835   3.608   2.227 -0.6136  0.7633  1.3510
 2939TIP3   OH230451   5.144   4.950   8.192  0.3802 -0.0143  0.4155
 2939TIP3    H130452   5.154   4.927   8.284 -1.1432 -1.5408  0.2527
 2939TIP3    H230453   5.054   4.982   8.185 -0.4031 -2.2954 -0.9357
 2940TIP3   OH230454   0.510   4.850   7.518  0.2998 -0.2886 -0.2608
 2940TIP3    H130455   0.444   4.919   7.529 -0.3146 -1.0671  1.2377
 2940TIP3    H230456   0.459   4.773   7.494  0.7502 -0.7107  0.1368
 2941TIP3   OH230457   4.290   5.524   7.702  0.0431 -0.1283  0.3184
 2941TIP3    H130458   4.381   5.550   7.686  0.7511 -2.0657  0.9794
 2941TIP3    H230459   4.277   5.541   7.795 -1.1902  2.6332 -0.2503
 2942TIP3   OH230460   2.643   0.306   0.686  0.4942  0.0365 -0.0330
 2942TIP3    H130461   2.684   0.278   0.604  2.4792  1.6382  0.3361
 2942TIP3    H230462   2.648   0.402   0.684  2.0998  0.0996  2.6426
 2943TIP3   OH230463   0.183   6.208   1.021 -0.2059 -0.8005 -0.0642
 2943TIP3    H130464   0.246   6.143   0.988  0.6620 -0.3743  0.7208
 2943TIP3    H230465   0.174   6.188   1.114 -1.3964 -0.9746 -0.2079
 2944TIP3   OH230466   2.493   2.252   0.396 -0.4999 -0.6093  0.5973
 2944TIP3    H130467   2.420   2.203   0.436 -0.5344 -0.6387  0.4985
 2944TIP3    H230468   2.562   2.187   0.387 -0.9779 -0.9678 -0.7215
 2945TIP3   OH230469   6.712   1.737   2.571  0.0855  0.4359 -0.7246
 2945TIP3    H130470   6.631   1.777   2.540 -0.1714  0.0274 -0.5876
 2945TIP3    H230471   6.731   1.781   2.654  0.8148  1.5841 -1.4809
 2946TIP3   OH230472   6.787   4.039   0.586  0.0307 -0.6029  0.3488
 2946TIP3    H130473   6.723   4.032   0.515 -0.8748 -0.4768  1.1310
 2946TIP3    H230474   6.819   3.949   0.599 -0.1683 -0.7085  0.1101
 2947TIP3   OH230475   3.858   5.507   6.992  0.2784 -0.1188  0.0806
 2947TIP3    H130476   3.803   5.437   7.026  0.7181  0.5626  2.3215
 2947TIP3    H230477   3.801   5.557   6.934 -0.2950 -1.7226 -0.8228
 2948TIP3   OH230478   5.763   1.411   0.669  0.1854 -0.2104 -0.0835
 2948TIP3    H130479   5.718   1.488   0.633  1.0491 -0.1522 -1.0881
 2948TIP3    H230480   5.841   1.447   0.711 -1.3047 -0.1385  2.9513
 2949TIP3   OH230481   6.600   6.329   1.873 -0.0765 -0.0571 -0.7729
 2949TIP3    H130482   6.611   6.423   1.884 -0.1323  0.2362 -2.7679
 2949TIP3    H230483   6.586   6.295   1.961  2.4828  1.4396  0.3137
 2950TIP3   OH230484   3.165   1.924   8.590 -0.2266  0.5481 -0.0590
 2950TIP3    H130485   3.212   1.841   8.577  0.4898  0.9785 -0.3144
 2950TIP3    H230486   3.208   1.964   8.666 -2.9225 -0.9193  2.4607
 2951TIP3   OH230487   5.140   6.374   8.154  0.0889 -0.3064 -0.1791
 2951TIP3    H130488   5.214   6.397   8.210  0.3390 -0.3001 -0.5058
 2951TIP3    H230489   5.066   6.367   8.213  0.0406  1.1337 -0.0328
 2952TIP3   OH230490   1.055   5.858   8.226  0.6172 -0.7555 -0.5235
 2952TIP3    H130491   1.148   5.857   8.251  0.2062 -0.9008  1.1492
 2952TIP3    H230492   1.013   5.908   8.296 -0.5568 -0.5561 -1.3523
 2953TIP3   OH230493   3.612   1.271   7.006 -0.1160  0.3289  0.2219
 2953TIP3    H130494   3.545   1.337   7.025 -1.3896 -0.6295 -0.7115
 2953TIP3    H230495   3.563   1.189   7.002  1.4422 -0.6889  1.3932
 2954TIP3   OH230496   6.312   0.775   2.660  0.4387 -0.0954 -0.2103
 2954TIP3    H130497   6.345   0.840   2.597  3.3726 -0.7460  0.4699
 2954TIP3    H230498   6.333   0.691   2.620 -0.2684 -0.5746  0.4020
 2955TIP3   OH230499   2.923   4.361   0.523  0.0569 -0.0002  0.9811
 2955TIP3    H130500   2.989   4.327   0.463  2.0471 -0.4403  3.2486
 2955TIP3    H230501   2.901   4.447   0.489 -0.0114 -0.8123 -1.1464
 2956TIP3   OH230502   2.413   2.855   7.772  0.3433  0.2243  0.5554
 2956TIP3    H130503   2.446   2.834   7.860  1.1534 -1.5823 -0.1291
 2956TIP3    H230504   2.366   2.776   7.745  0.8445  0.4154 -0.9532
 2957TIP3   OH230505   5.869   3.829   2.288 -0.9525 -0.6255  0.4064
 2957TIP3    H130506   5.827   3.891   2.347 -0.2019 -0.0095  0.3172
 2957TIP3    H230507   5.832   3.848   2.202 -0.2516  0.1762  0.2590
 2958TIP3   OH230508   6.630   3.046   8.556 -0.4430 -0.1037  0.4136
 2958TIP3    H130509   6.599   3.117   8.613  0.9641  0.1007  0.9845
 2958TIP3    H230510   6.620   3.081   8.467 -0.6574  0.4406  0.6449
 2959TIP3   OH230511   5.115   1.343   8.182  0.2078  0.0385 -0.3944
 2959TIP3    H130512   5.025   1.354   8.154 -0.7198 -1.0962  1.8682
 2959TIP3    H230513   5.125   1.407   8.253 -0.0431 -2.1877  1.7834
 2960TIP3   OH230514   4.241   1.000   7.405 -0.1670 -0.4203 -0.0131
 2960TIP3    H130515   4.170   0.955   7.358 -0.0641 -0.5989  0.0012
 2960TIP3    H230516   4.260   0.942   7.479 -1.2401  0.4964  1.0204
 2961TIP3   OH230517   6.307   4.067   1.487 -0.1619 -0.1488  0.7144
 2961TIP3    H130518   6.260   4.145   1.455 -1.2704 -0.6945  0.9621
 2961TIP3    H230519   6.398   4.083   1.463 -0.6860  0.2528 -1.2025
 2962TIP3   OH230520   2.919   5.532   7.827  0.0406  0.3054 -0.2516
 2962TIP3    H130521   2.939   5.543   7.734  2.0495 -0.3184  0.0795
 2962TIP3    H230522   2.969   5.601   7.871  1.0602 -0.9130  0.5577
 2963TIP3   OH230523   1.832   5.298   1.724 -0.4905 -0.1457 -0.1435
 2963TIP3    H130524   1.910   5.347   1.698 -0.2470 -1.0385 -1.1270
 2963TIP3    H230525   1.759   5.357   1.702 -0.1614  0.1955 -0.3320
 2964TIP3   OH230526   1.224   2.266   1.232 -0.1613 -0.2818 -0.5474
 2964TIP3    H130527   1.239   2.208   1.306 -0.7123 -1.7336 -1.5324
 2964TIP3    H230528   1.150   2.322   1.259  0.5240  0.1431  0.4926
 2965TIP3   OH230529   6.613   5.787   8.796  0.0700 -0.2515  0.4179
 2965TIP3    H130530   6.704   5.769   8.773  0.9550  1.5950  2.2093
 2965TIP3    H230531   6.581   5.704   8.833  0.2309 -1.6256 -2.2436
 2966TIP3   OH230532   1.530   5.956   0.753  0.1640 -0.0045  0.0533
 2966TIP3    H130533   1.475   5.932   0.828  0.2800  2.7797  1.1582
 2966TIP3    H230534   1.615   5.977   0.793  0.7237 -0.0676 -1.0873
 2967TIP3   OH230535   1.626   5.564   0.943 -0.1754 -0.2233  0.5808
 2967TIP3    H130536   1.611   5.541   0.852 -1.1879  1.8567  0.1613
 2967TIP3    H230537   1.594   5.489   0.993 -0.1683 -1.1301 -0.7389
 2968TIP3   OH230538   6.393   2.170   1.365 -0.7160  0.2617  0.5856
 2968TIP3    H130539   6.403   2.263   1.387 -2.1311 -0.0206  2.7754
 2968TIP3    H230540   6.300   2.161   1.342  0.2700  0.1920 -4.5268
 2969TIP3   OH230541   0.669   3.289   0.699 -0.1250 -0.4111  0.2526
 2969TIP3    H130542   0.682   3.197   0.723 -0.7213 -0.1947  1.4802
 2969TIP3    H230543   0.576   3.296   0.677 -0.0423 -0.1405 -0.0173
 2970TIP3   OH230544   2.194   4.713   0.557 -0.3525  0.6297  0.0180
 2970TIP3    H130545   2.225   4.644   0.498 -0.3432  0.0711  0.6771
 2970TIP3    H230546   2.237   4.695   0.640 -1.2039  0.7872  0.4979
 2971TIP3   OH230547   0.113   4.677   8.513  0.1843 -0.1125  0.0687
 2971TIP3    H130548   0.085   4.766   8.532  1.3059  0.5017 -0.9858
 2971TIP3    H230549   0.206   4.676   8.535  0.7675 -0.2848 -2.1596
 2972TIP3   OH230550   3.128   4.183   7.988 -0.5808 -0.7019  0.1402
 2972TIP3    H130551   3.113   4.195   8.082 -0.9409 -1.2711  0.1579
 2972TIP3    H230552   3.041   4.192   7.949 -0.4343 -0.4930 -0.1404
 2973TIP3   OH230553   1.836   5.908   8.453 -0.1234 -0.3593 -0.3222
 2973TIP3    H130554   1.821   5.896   8.547 -2.0799 -0.4942 -0.6194
 2973TIP3    H230555   1.913   5.965   8.448 -0.0469 -0.2771  1.3559
 2974TIP3   OH230556   4.146   6.246   7.868  0.3581  0.6655 -0.6609
 2974TIP3    H130557   4.100   6.256   7.784  0.7273  0.3655 -0.8985
 2974TIP3    H230558   4.157   6.152   7.878 -1.0210  0.5954  0.4531
 2975TIP3   OH230559   1.419   4.971   0.428 -0.6027  0.0949 -0.2784
 2975TIP3    H130560   1.466   5.054   0.438  2.3508 -1.3550 -0.9551
 2975TIP3    H230561   1.373   4.980   0.344 -0.4527  1.1148 -0.2646
 2976TIP3   OH230562   5.637   1.453   2.169 -0.4562 -0.4653 -0.3015
 2976TIP3    H130563   5.632   1.358   2.174  2.8544 -0.8355 -1.4385
 2976TIP3    H230564   5.702   1.476   2.235  1.9275  0.4427 -2.7706
 2977TIP3   OH230565   5.636   1.292   3.108  0.3468  0.0654 -0.2051
 2977TIP3    H130566   5.616   1.382   3.082  1.1781 -0.2149 -1.9759
 2977TIP3    H230567   5.554   1.245   3.098  0.1136  0.4439 -0.0924
 2978TIP3   OH230568   3.157   2.944   7.142  0.6383 -0.1945  0.0241
 2978TIP3    H130569   3.204   2.946   7.059  0.0314 -0.6618 -0.3446
 2978TIP3    H230570   3.072   2.905   7.120  1.1493 -2.1270  1.1924
 2979TIP3   OH230571   6.218   6.146   2.045  0.2200  0.2761  0.1420
 2979TIP3    H130572   6.250   6.096   1.969 -0.9853 -0.5634  0.1668
 2979TIP3    H230573   6.188   6.229   2.008  1.0784  0.4987 -0.0762
 2980TIP3   OH230574   6.764   3.676   8.820 -0.5921  0.1316  0.8500
 2980TIP3    H130575   6.850   3.634   8.821  1.1358  3.2909 -0.4936
 2980TIP3    H230576   6.715   3.629   8.752  1.9358  1.3516 -2.0387
 2981TIP3   OH230577   5.454   3.036   0.928 -0.3935  0.6113  0.0561
 2981TIP3    H130578   5.383   3.082   0.885 -0.1311  0.8413 -0.1336
 2981TIP3    H230579   5.502   3.104   0.976  0.2027  0.5991 -0.5093
 2982TIP3   OH230580   6.554   5.423   1.067 -0.0411  0.2676 -0.2533
 2982TIP3    H130581   6.620   5.488   1.042 -0.7232  0.8168 -0.6732
 2982TIP3    H230582   6.596   5.339   1.049  0.5413  0.6083 -0.5270
 2983TIP3   OH230583   1.780   3.993   8.313  0.3707 -0.8469  0.5569
 2983TIP3    H130584   1.734   4.055   8.256  1.8579 -0.7369 -0.5806
 2983TIP3    H230585   1.727   3.989   8.392 -0.0381  1.5001  0.4683
 2984TIP3   OH230586   5.721   2.696   8.549  0.1480  0.2344 -0.5746
 2984TIP3    H130587   5.724   2.601   8.564 -0.5091  0.4067  0.7211
 2984TIP3    H230588   5.803   2.728   8.586  0.6433  0.1257 -1.5342
 2985TIP3   OH230589   5.569   2.626   7.628  1.0401  0.3916  0.5851
 2985TIP3    H130590   5.533   2.665   7.548 -0.7161  0.1568  1.2061
 2985TIP3    H230591   5.652   2.587   7.602  0.2909 -0.0609 -1.2147
 2986TIP3   OH230592   3.349   1.352   6.963 -0.3100 -0.3311  0.1687
 2986TIP3    H130593   3.343   1.427   7.023  2.0227 -0.8859  1.1940
 2986TIP3    H230594   3.265   1.352   6.917 -0.9843  1.9791  1.2276
 2987TIP3   OH230595   1.933   6.365   8.663 -0.1534  0.4282 -0.2444
 2987TIP3    H130596   1.870   6.435   8.682  0.5521  0.6634  1.4636
 2987TIP3    H230597   2.017   6.410   8.656  0.1596 -0.1352 -0.1448
 2988TIP3   OH230598   3.910   6.381   2.781 -0.3591  0.1958  0.5980
 2988TIP3    H130599   3.925   6.456   2.724  1.6742 -1.5096 -1.2943
 2988TIP3    H230600   3.856   6.322   2.728 -1.6067  0.1190  1.9080
 2989TIP3   OH230601   1.765   5.014   1.529  0.1177 -0.0560  0.1644
 2989TIP3    H130602   1.714   5.060   1.463 -1.6634 -0.2429  1.3484
 2989TIP3    H230603   1.721   5.033   1.612 -0.9566 -4.0232  0.7143
 2990TIP3   OH230604   1.729   4.739   6.853 -0.4395  0.0607 -0.5315
 2990TIP3    H130605   1.814   4.708   6.824 -0.9965 -0.7743 -1.3374
 2990TIP3    H230606   1.672   4.727   6.777 -1.0036  1.8113 -0.4441
 2991TIP3   OH230607   2.084   5.205   0.918 -0.1394 -0.4919  0.7860
 2991TIP3    H130608   2.035   5.287   0.917 -2.6084 -1.8794  1.3755
 2991TIP3    H230609   2.170   5.228   0.882 -0.9546  2.1974  0.3772
 2992TIP3   OH230610   5.106   6.467   8.473  0.2429 -0.1832 -0.1763
 2992TIP3    H130611   5.016   6.453   8.504  0.6445  0.7481  1.5402
 2992TIP3    H230612   5.146   6.380   8.476 -0.8629 -0.8103 -2.0087
 2993TIP3   OH230613   4.926   5.426   1.352  0.5412  0.5872  0.1708
 2993TIP3    H130614   4.907   5.456   1.441  1.8282  0.8709  0.3656
 2993TIP3    H230615   4.973   5.499   1.311  1.3600 -0.1389 -0.2194
 2994TIP3   OH230616   5.065   1.401   2.220  0.0736 -0.6095  0.4452
 2994TIP3    H130617   5.071   1.306   2.214  0.0321 -0.5196 -1.4317
 2994TIP3    H230618   5.124   1.434   2.153 -1.4011  0.6406 -0.2944
 2995TIP3   OH230619   4.596   2.670   7.441 -0.0135 -0.1777  0.1053
 2995TIP3    H130620   4.567   2.600   7.382 -0.0800  0.5847 -0.7726
 2995TIP3    H230621   4.672   2.633   7.486 -0.4601 -1.0646  0.1554
 2996TIP3   OH230622   0.558   2.752   2.486 -0.5195  0.6187 -0.1370
 2996TIP3    H130623   0.545   2.658   2.475  0.3443  0.6613 -1.8132
 2996TIP3    H230624   0.651   2.765   2.469 -0.3546  1.6273  1.3626
 2997TIP3   OH230625   5.337   1.311   0.575  0.0564 -0.4479  0.0392
 2997TIP3    H130626   5.344   1.388   0.518  2.1257 -1.2973 -0.9423
 2997TIP3    H230627   5.287   1.342   0.651  0.9021  1.8842 -0.2831
 2998TIP3   OH230628   0.287   1.170   1.692  0.4068  0.3685 -0.4068
 2998TIP3    H130629   0.203   1.180   1.649  0.5107  0.4863 -0.5816
 2998TIP3    H230630   0.294   1.076   1.709  0.5594  0.2578 -1.0463
 2999TIP3   OH230631   5.358   3.398   0.410 -0.2588  0.1071 -0.1177
 2999TIP3    H130632   5.425   3.346   0.455 -0.9889 -1.0458 -0.3300
 2999TIP3    H230633   5.379   3.489   0.433  0.5334 -0.3292  0.9646
 3000TIP3   OH230634   6.123   3.737   7.363 -0.0746 -0.1224  0.0303
 3000TIP3    H130635   6.054   3.672   7.350 -1.2292  1.0416  0.0486
 3000TIP3    H230636   6.162   3.714   7.448 -0.9111 -0.4048  0.3506
 3001TIP3   OH230637   2.087   1.973   2.338 -0.0967 -0.2827 -0.5940
 3001TIP3    H130638   2.151   1.902   2.343  0.5333  0.3088  0.1841
 3001TIP3    H230639   2.051   1.979   2.427  0.4601  0.8828 -0.4248
 3002TIP3   OH230640   4.102   3.896   1.579 -0.1179 -0.3256 -0.1723
 3002TIP3    H130641   4.187   3.925   1.614  0.1686  3.0370 -3.0614
 3002TIP3    H230642   4.111   3.801   1.571  2.7360 -0.2966  1.1450
 3003TIP3   OH230643   1.708   4.504   2.667  0.4138 -0.6120 -0.1943
 3003TIP3    H130644   1.691   4.583   2.719 -0.4933 -0.5975 -0.4985
 3003TIP3    H230645   1.769   4.453   2.721 -0.3585 -0.5135  0.8054
 3004TIP3   OH230646   5.528   0.305   2.479 -0.2215 -0.4207  0.1965
 3004TIP3    H130647   5.467   0.244   2.521  0.4827 -2.0314 -1.0091
 3004TIP3    H230648   5.586   0.249   2.429  1.0392  1.2212 -0.2470
 3005TIP3   OH230649   0.253   0.070   0.430 -0.2212  0.1439 -0.0240
 3005TIP3    H130650   0.169   0.032   0.405  0.0106 -1.9286  2.0789
 3005TIP3    H230651   0.248   0.079   0.525  1.9966 -0.2088  0.1712
 3006TIP3   OH230652   2.456   5.489   1.447 -0.1058  0.0990 -0.4318
 3006TIP3    H130653   2.461   5.501   1.542 -0.0978 -1.8824 -0.1405
 3006TIP3    H230654   2.534   5.534   1.413  0.2858  0.2078  0.5757
 3007TIP3   OH230655   1.992   5.249   0.271 -0.4544  0.2238  0.5420
 3007TIP3    H130656   2.066   5.288   0.224  1.3033 -2.1649  1.1398
 3007TIP3    H230657   1.941   5.204   0.204  0.6540 -1.0653  0.5180
 3008TIP3   OH230658   5.931   0.610   7.925 -0.0852  0.0181  0.1600
 3008TIP3    H130659   5.883   0.686   7.958  0.1084 -0.6668  2.1691
 3008TIP3    H230660   5.954   0.633   7.835 -2.1709  1.3036 -0.1194
 3009TIP3   OH230661   6.791   3.430   8.052  0.4522  0.9173  0.0772
 3009TIP3    H130662   6.731   3.392   8.115  1.7751  1.2794  1.6279
 3009TIP3    H230663   6.810   3.359   7.990  0.6768 -0.0782  1.2578
 3010TIP3   OH230664   2.997   6.196   7.504  0.3276 -0.0413 -0.1704
 3010TIP3    H130665   3.047   6.142   7.566 -1.0338  1.1153  2.0860
 3010TIP3    H230666   2.910   6.156   7.503  0.7230 -1.0396 -2.7618
 3011TIP3   OH230667   4.965   3.406   8.631  0.2964 -0.0199 -0.4723
 3011TIP3    H130668   4.992   3.369   8.547 -0.4694  0.1845 -0.8150
 3011TIP3    H230669   4.970   3.332   8.692  3.0503  0.3379 -0.1718
 3012TIP3   OH230670   3.301   0.816   0.559  0.0749 -0.0672 -0.5009
 3012TIP3    H130671   3.286   0.764   0.480 -1.5102  1.9501 -1.5909
 3012TIP3    H230672   3.332   0.900   0.527  1.0028  0.2572  1.1562
 3013TIP3   OH230673   0.532   1.173   8.660  0.1208 -0.1471 -0.0482
 3013TIP3    H130674   0.485   1.223   8.726  0.6937 -0.7388  0.8404
 3013TIP3    H230675   0.513   1.217   8.578  0.5413  1.4838  0.6827
 3014TIP3   OH230676   0.854   0.402   2.903 -0.1374 -0.0369  0.1066
 3014TIP3    H130677   0.935   0.451   2.919  0.2234 -0.8926  0.9784
 3014TIP3    H230678   0.785   0.458   2.936  0.3456 -0.4517  1.9444
 3015TIP3   OH230679   0.757   0.102   7.422  0.3339 -0.1550  0.4197
 3015TIP3    H130680   0.847   0.068   7.423  0.2104 -0.6724 -1.4427
 3015TIP3    H230681   0.703   0.025   7.405 -0.6058 -0.0234  2.4929
 3016TIP3   OH230682   0.490   3.320   7.577 -0.7061 -0.4610  0.2995
 3016TIP3    H130683   0.440   3.297   7.499  1.3178  0.3332 -1.3278
 3016TIP3    H230684   0.578   3.338   7.544  0.4875 -1.0620  2.9187
 3017TIP3   OH230685   4.141   4.076   8.355  0.4026  0.3678  0.3778
 3017TIP3    H130686   4.126   3.998   8.408  0.7335 -0.9419 -1.3509
 3017TIP3    H230687   4.222   4.058   8.308 -0.0315  1.3124 -0.8030
 3018TIP3   OH230688   1.289   0.223   8.328  0.3365  0.7348 -0.3284
 3018TIP3    H130689   1.369   0.260   8.293  1.7077  0.0046  1.8245
 3018TIP3    H230690   1.251   0.293   8.381 -1.0990  1.4468 -2.1960
 3019TIP3   OH230691   2.664   5.809   0.061 -0.1843  0.2868 -0.2516
 3019TIP3    H130692   2.741   5.785   0.010 -0.7660 -0.7070 -0.6934
 3019TIP3    H230693   2.654   5.738   0.125 -1.2453 -0.0769 -0.7938
 3020TIP3   OH230694   6.617   3.527   8.628 -0.4292 -0.2079  0.4789
 3020TIP3    H130695   6.673   3.486   8.562 -1.0726  0.5743 -0.5949
 3020TIP3    H230696   6.528   3.503   8.602 -1.0663  3.5296 -1.5833
 3021TIP3   OH230697   2.660   3.355   1.341 -0.5301 -0.3632 -0.1813
 3021TIP3    H130698   2.703   3.373   1.257 -1.9029 -0.0939 -0.8431
 3021TIP3    H230699   2.670   3.260   1.352 -0.1160 -0.3631 -0.5152
 3022TIP3   OH230700   4.502   2.301   1.856  0.4279  0.2053  0.2397
 3022TIP3    H130701   4.476   2.250   1.933 -0.0218 -2.5930 -1.6371
 3022TIP3    H230702   4.435   2.369   1.849 -1.2769 -1.3513  0.6498
 3023TIP3   OH230703   5.518   6.476   2.035  0.4318  0.3573  0.4383
 3023TIP3    H130704   5.445   6.533   2.013  1.0447  0.6303 -1.0285
 3023TIP3    H230705   5.596   6.530   2.019  1.0635 -1.1015 -1.8388
 3024TIP3   OH230706   2.658   3.593   6.664 -0.5140  0.0399 -0.0400
 3024TIP3    H130707   2.748   3.569   6.645  0.1930  0.9550  1.9004
 3024TIP3    H230708   2.645   3.676   6.617 -0.9327 -0.9205 -1.6828
 3025TIP3   OH230709   1.304   4.589   1.871 -0.2072  0.4737 -0.1151
 3025TIP3    H130710   1.396   4.608   1.888 -0.1250  0.4664 -0.5373
 3025TIP3    H230711   1.285   4.515   1.928 -0.2534  1.1605  0.7743
 3026TIP3   OH230712   3.529   6.456   7.595  0.6020 -0.5538  0.1936
 3026TIP3    H130713   3.552   6.410   7.676  1.4879 -1.7722 -0.7134
 3026TIP3    H230714   3.590   6.422   7.530  1.7136  2.3501 -0.4298
 3027TIP3   OH230715   0.881   5.653   2.100  0.3466 -0.4757 -0.0591
 3027TIP3    H130716   0.876   5.656   2.196  1.2556 -0.9819  0.0179
 3027TIP3    H230717   0.883   5.560   2.080 -2.1525 -0.4419 -0.7367
 3028TIP3   OH230718   4.552   6.238   0.361 -0.2257  0.0932 -0.6009
 3028TIP3    H130719   4.635   6.224   0.408 -0.0271  0.5069 -0.8249
 3028TIP3    H230720   4.522   6.150   0.341 -1.0792 -0.1962  1.6118
 3029TIP3   OH230721   6.476   1.430   7.718 -0.1797  0.4134 -0.6413
 3029TIP3    H130722   6.446   1.369   7.650  0.2313  0.7946 -1.1677
 3029TIP3    H230723   6.452   1.517   7.685  0.4056  0.6326 -0.4915
 3030TIP3   OH230724   1.776   4.180   1.494 -0.1196 -0.2246 -0.2746
 3030TIP3    H130725   1.853   4.135   1.460  0.1886 -1.3502  1.7445
 3030TIP3    H230726   1.812   4.247   1.553 -0.6327  1.5446 -1.8828
 3031TIP3   OH230727   5.759   5.894   1.787  0.0872  0.5700 -0.1698
 3031TIP3    H130728   5.748   5.961   1.855  0.1041  0.4900 -0.0878
 3031TIP3    H230729   5.796   5.819   1.834 -0.2876  0.3714 -0.1888
 3032TIP3   OH230730   3.199   5.053   0.169  0.7162 -0.6891 -0.3015
 3032TIP3    H130731   3.230   5.041   0.079  1.6418  1.0251 -0.2645
 3032TIP3    H230732   3.279   5.051   0.222  0.0632 -3.1951  0.7315
 3033TIP3   OH230733   6.821   4.348   7.287  0.2244 -0.3503  0.3968
 3033TIP3    H130734   6.879   4.366   7.213 -0.7940  1.6215  0.0213
 3033TIP3    H230735   6.756   4.287   7.253  0.1874 -0.0172 -0.1437
 3034TIP3   OH230736   1.178   4.023   7.937  0.1485 -0.0723 -0.2611
 3034TIP3    H130737   1.244   3.999   7.871  0.1552  1.4219 -0.8401
 3034TIP3    H230738   1.228   4.035   8.017  0.2118 -1.3879 -0.0746
 3035TIP3   OH230739   0.649   5.834   0.185  0.0940  0.0543  0.0401
 3035TIP3    H130740   0.618   5.763   0.130  0.8491 -0.4438  0.2406
 3035TIP3    H230741   0.642   5.912   0.130  1.4337 -0.5266 -1.0159
 3036TIP3   OH230742   3.124   6.117   7.739 -0.1428  0.0839 -0.2960
 3036TIP3    H130743   3.211   6.086   7.764 -0.9391 -1.5602  0.6364
 3036TIP3    H230744   3.121   6.208   7.767  1.3742  0.2626 -0.6446
 3037TIP3   OH230745   3.007   4.633   8.621  0.1433 -0.5292  0.5722
 3037TIP3    H130746   3.082   4.575   8.614  0.3368 -0.1672 -0.4913
 3037TIP3    H230747   2.949   4.607   8.549  0.0258  0.2912  0.3585
 3038TIP3   OH230748   4.600   4.277   8.341  0.0668  0.3773 -0.3208
 3038TIP3    H130749   4.528   4.337   8.321 -0.5241 -0.8199 -2.0426
 3038TIP3    H230750   4.659   4.286   8.267  0.9440  0.2383  0.3513
 3039TIP3   OH230751   2.647   0.304   1.039 -0.0678 -0.1527 -0.9755
 3039TIP3    H130752   2.583   0.233   1.031 -0.5902  0.3052 -0.9752
 3039TIP3    H230753   2.684   0.294   1.127 -0.6494 -0.0076 -0.7105
 3040TIP3   OH230754   3.427   2.254   8.450  0.5726  0.3244  0.5235
 3040TIP3    H130755   3.433   2.343   8.487 -0.6080 -0.2151  2.1321
 3040TIP3    H230756   3.338   2.226   8.469  0.6657 -0.8953 -0.7366
 3041TIP3   OH230757   2.566   5.337   8.542 -0.2208 -0.1751  0.6242
 3041TIP3    H130758   2.520   5.286   8.475  0.5422  0.3316 -0.3079
 3041TIP3    H230759   2.499   5.396   8.576 -0.4634  0.0210 -0.1710
 3042TIP3   OH230760   5.427   6.115   0.342  0.0325  0.0164 -0.2202
 3042TIP3    H130761   5.422   6.175   0.268  1.0071  1.1238  0.5851
 3042TIP3    H230762   5.409   6.169   0.419  0.7535 -0.7507  0.5124
 3043TIP3   OH230763   6.025   0.376   8.405  0.7817 -0.0766 -0.2338
 3043TIP3    H130764   5.970   0.452   8.421  0.2373 -0.6492  0.6955
 3043TIP3    H230765   6.053   0.347   8.492 -2.4915 -3.4539 -0.0472
 3044TIP3   OH230766   1.586   2.186   0.753 -0.4487  0.3196 -0.3788
 3044TIP3    H130767   1.518   2.240   0.793  0.1391  0.2603  0.7268
 3044TIP3    H230768   1.618   2.239   0.680 -1.7676  0.2828 -1.0204
 3045TIP3   OH230769   3.415   3.454   8.771  0.0203 -0.1214 -0.9378
 3045TIP3    H130770   3.507   3.453   8.747  0.1404  2.0136 -0.7241
 3045TIP3    H230771   3.377   3.379   8.726  1.4991  0.0133 -2.4747
 3046TIP3   OH230772   4.672   4.730   2.066  0.6440 -0.5621  0.2693
 3046TIP3    H130773   4.647   4.714   1.975 -0.5852  0.8558  0.3193
 3046TIP3    H230774   4.732   4.659   2.088  0.2616 -1.4207 -1.3682
 3047TIP3   OH230775   3.141   4.720   7.762  0.1670  0.0576 -0.2437
 3047TIP3    H130776   3.079   4.763   7.702  0.2242  0.5161  0.0159
 3047TIP3    H230777   3.096   4.640   7.789 -0.3311  0.3993 -0.0345
 3048TIP3   OH230778   1.037   1.334   7.252 -0.2002  0.0675 -0.4521
 3048TIP3    H130779   1.008   1.424   7.242 -0.4013  0.0435 -0.1090
 3048TIP3    H230780   1.133   1.338   7.248 -0.1489  0.4687  0.8858
 3049TIP3   OH230781   4.710   5.850   8.779  0.0980  0.0052 -0.2040
 3049TIP3    H130782   4.653   5.926   8.784 -1.3311 -1.0513  0.3341
 3049TIP3    H230783   4.675   5.799   8.706  0.2921 -0.6995  0.1847
 3050TIP3   OH230784   0.496   5.800   0.762  0.2107  0.0076  0.8827
 3050TIP3    H130785   0.499   5.879   0.709 -1.7253 -0.5280 -0.0990
 3050TIP3    H230786   0.527   5.731   0.704 -0.4500 -0.3439  0.9448
 3051TIP3   OH230787   4.851   2.699   0.253 -0.0862 -0.1466  0.3089
 3051TIP3    H130788   4.805   2.781   0.265 -0.2199 -0.2808  0.7245
 3051TIP3    H230789   4.830   2.672   0.164  0.0798  0.3418  0.1200
 3052TIP3   OH230790   2.960   4.393   7.681 -0.1271  0.5643 -0.4545
 3052TIP3    H130791   2.936   4.324   7.742  0.1011  0.2573 -0.7086
 3052TIP3    H230792   2.918   4.472   7.716 -0.2333  0.3355 -0.0620
 3053TIP3   OH230793   2.739   3.132   0.038  0.4581  0.5744 -0.3254
 3053TIP3    H130794   2.688   3.174   0.107  0.6782  0.7919 -0.2937
 3053TIP3    H230795   2.818   3.101   0.081 -0.5456 -1.6151  0.0655
 3054TIP3   OH230796   3.342   2.873   0.968 -0.1414  0.5009 -0.0535
 3054TIP3    H130797   3.305   2.823   1.041  0.1751 -0.0544 -0.2748
 3054TIP3    H230798   3.266   2.911   0.924 -0.3504  0.6367  0.4180
 3055TIP3   OH230799   1.633   5.772   0.569 -0.1162  0.4044 -0.2451
 3055TIP3    H130800   1.598   5.704   0.511 -0.7167 -0.7896  1.4485
 3055TIP3    H230801   1.556   5.825   0.593 -0.1479 -0.0426  0.6573
 3056TIP3   OH230802   5.073   5.413   2.172 -0.0266  0.1291  0.3855
 3056TIP3    H130803   5.168   5.401   2.171  0.1100  1.1241 -0.4959
 3056TIP3    H230804   5.042   5.361   2.098  0.0167  1.0102 -0.2726
 3057TIP3   OH230805   3.802   5.708   0.804  0.1656 -0.4573  0.1885
 3057TIP3    H130806   3.796   5.658   0.723  0.4318  0.5768 -0.4882
 3057TIP3    H230807   3.779   5.797   0.779 -1.1322 -0.3808  1.5358
 3058TIP3   OH230808   4.552   5.856   1.761  0.2550  0.4430 -0.0107
 3058TIP3    H130809   4.576   5.883   1.849  0.4537  0.8084 -0.1770
 3058TIP3    H230810   4.618   5.895   1.704  1.5397 -1.7179 -0.1230
 3059TIP3   OH230811   3.644   5.680   1.018  0.4436 -0.0583 -0.2633
 3059TIP3    H130812   3.685   5.669   0.932 -0.8491 -0.2117 -0.8744
 3059TIP3    H230813   3.662   5.772   1.041 -0.7337  0.5227 -1.5297
 3060TIP3   OH230814   3.060   1.608   0.488 -0.1166 -0.2853  0.2465
 3060TIP3    H130815   3.063   1.561   0.404 -0.6304 -0.7437  0.4801
 3060TIP3    H230816   3.144   1.590   0.529 -0.1715 -0.7101  0.1752
 3061TIP3   OH230817   3.398   4.481   0.027 -0.6392  0.0445  0.0908
 3061TIP3    H130818   3.447   4.519  -0.046  0.9969 -2.0363  0.0021
 3061TIP3    H230819   3.423   4.535   0.103 -1.7243  1.7117 -0.6699
 3062TIP3   OH230820   3.919   6.490   8.725  0.1462  0.3266 -0.4944
 3062TIP3    H130821   3.841   6.479   8.779  0.2335 -2.1348 -0.7260
 3062TIP3    H230822   3.886   6.496   8.635  0.1677 -0.9277 -0.6139
 3063TIP3   OH230823   5.578   2.158   7.495  0.3513 -0.0534  0.7239
 3063TIP3    H130824   5.595   2.095   7.425 -0.1102  0.5758  0.0280
 3063TIP3    H230825   5.574   2.242   7.450  1.7325  0.5922  1.7318
 3064TIP3   OH230826   1.301   2.172   7.206  0.1688 -0.0265  0.0583
 3064TIP3    H130827   1.216   2.212   7.221 -0.4237 -1.0207 -0.5369
 3064TIP3    H230828   1.355   2.241   7.168 -0.4471  0.5369  0.1980
 3065TIP3   OH230829   6.066   3.909   2.643 -0.2415  0.7260  0.4915
 3065TIP3    H130830   6.145   3.909   2.589 -0.6731  0.0950 -0.1560
 3065TIP3    H230831   6.075   3.987   2.698  0.3620  1.2047 -0.2601
 3066TIP3   OH230832   4.558   5.487   7.669  0.1141 -0.3882 -0.2293
 3066TIP3    H130833   4.637   5.490   7.723  0.1537  0.7110 -0.3239
 3066TIP3    H230834   4.573   5.414   7.609 -0.1498 -1.9868  1.5428
 3067TIP3   OH230835   1.497   6.715   8.168 -0.3529  0.6133 -0.3800
 3067TIP3    H130836   1.411   6.746   8.139 -0.8501  0.5630  0.9702
 3067TIP3    H230837   1.545   6.698   8.087 -1.7162  0.3651 -1.1613
 3068TIP3   OH230838   1.239   2.178   1.485  0.5435  0.9074 -0.1251
 3068TIP3    H130839   1.252   2.228   1.566 -0.1495 -0.6092  0.9814
 3068TIP3    H230840   1.321   2.129   1.474 -0.1246 -0.5407  0.9262
 3069TIP3   OH230841   4.770   5.407   8.654  0.2743 -0.1302  0.0867
 3069TIP3    H130842   4.814   5.447   8.729  3.0270 -1.0204 -0.9218
 3069TIP3    H230843   4.796   5.315   8.658 -1.1501 -0.6033 -0.8765
 3070TIP3   OH230844   5.117   2.845   1.869 -0.6248 -0.3535  0.3294
 3070TIP3    H130845   5.135   2.798   1.788 -0.8508  0.9883 -0.5486
 3070TIP3    H230846   5.048   2.794   1.912 -0.5750 -1.0320 -0.3755
 3071TIP3   OH230847   4.618   2.054   7.495 -0.0621  0.2965 -0.2442
 3071TIP3    H130848   4.704   2.017   7.479  0.4314  1.5908 -0.6805
 3071TIP3    H230849   4.564   1.978   7.519  0.7927 -0.7748 -1.5233
 3072TIP3   OH230850   3.646   1.414   1.875 -0.3458 -0.2577 -0.2205
 3072TIP3    H130851   3.558   1.387   1.903 -0.6596  0.9672  0.0578
 3072TIP3    H230852   3.636   1.506   1.850  0.8246 -0.1574 -0.3958
 3073TIP3   OH230853   5.034   2.873   8.631  0.1285  0.1802  0.3940
 3073TIP3    H130854   4.974   2.924   8.578 -0.6257 -1.5332 -0.5012
 3073TIP3    H230855   5.121   2.904   8.607 -0.3213  1.4015  0.3000
 3074TIP3   OH230856   2.958   1.817   0.092  0.1951 -0.3303  0.3689
 3074TIP3    H130857   2.891   1.856   0.036  1.5274  0.8712 -0.4432
 3074TIP3    H230858   2.997   1.892   0.138 -0.5001 -1.2180  2.5658
 3075TIP3   OH230859   4.057   3.593   2.426 -0.5439  0.7524  0.0236
 3075TIP3    H130860   4.086   3.635   2.507 -0.9583  1.8492 -0.3881
 3075TIP3    H230861   3.990   3.531   2.454 -1.6534  2.0832  0.3990
 3076TIP3   OH230862   4.579   0.329   8.597  0.0325 -0.0696  0.2297
 3076TIP3    H130863   4.584   0.397   8.530  2.1564 -1.7530 -1.4484
 3076TIP3    H230864   4.492   0.290   8.584  0.1494  0.0585 -1.1385
 3077TIP3   OH230865   6.707   3.021   2.391 -0.7253  0.5384 -0.0838
 3077TIP3    H130866   6.762   3.099   2.393  1.5456 -0.9787  0.6533
 3077TIP3    H230867   6.704   2.995   2.299  0.6343  0.1263 -0.0307
 3078TIP3   OH230868   2.436   6.601   7.107 -0.2067 -0.4936  0.6066
 3078TIP3    H130869   2.475   6.662   7.168  0.2602 -0.4695  0.2847
 3078TIP3    H230870   2.425   6.651   7.026 -0.1330 -0.7363  0.4449
 3079TIP3   OH230871   1.635   3.099   7.922 -0.7331  1.2128 -0.5072
 3079TIP3    H130872   1.685   3.057   7.852 -0.4712 -0.0101  0.3814
 3079TIP3    H230873   1.700   3.118   7.990 -1.2504  0.8745  0.0879
 3080TIP3   OH230874   3.944   3.878   6.777 -0.2594  0.5111  0.0192
 3080TIP3    H130875   3.855   3.909   6.788 -0.5592 -0.4144  0.2930
 3080TIP3    H230876   3.939   3.815   6.705 -0.0121 -0.2347  0.6434
 3081TIP3   OH230877   3.532   0.147   0.824  0.0525  0.4825 -0.0742
 3081TIP3    H130878   3.437   0.144   0.832  0.1635 -0.4062  1.4348
 3081TIP3    H230879   3.564   0.115   0.909  1.6938 -0.2324 -0.9134
 3082TIP3   OH230880   5.669   0.473   7.083 -0.0650  0.2429 -0.1505
 3082TIP3    H130881   5.685   0.522   7.002 -2.0480  0.4164 -0.5127
 3082TIP3    H230882   5.584   0.507   7.114 -0.2614 -1.1845  0.9585
 3083TIP3   OH230883   2.968   5.899   1.991 -0.2077  0.5439  0.3168
 3083TIP3    H130884   2.960   5.993   2.001  0.3215  0.7545 -1.0859
 3083TIP3    H230885   2.902   5.863   2.051  0.1353  1.7621  1.4558
 3084TIP3   OH230886   3.546   4.919   8.261  0.4142  0.5964 -0.2276
 3084TIP3    H130887   3.545   5.014   8.268 -1.3364  0.6399 -0.7390
 3084TIP3    H230888   3.527   4.901   8.169 -4.0432 -0.2415  0.6530
 3085TIP3   OH230889   0.763   1.137   2.089 -0.1009  0.0692  0.1879
 3085TIP3    H130890   0.833   1.132   2.154 -0.2633 -0.8027  0.3094
 3085TIP3    H230891   0.711   1.058   2.103 -0.6895  0.3375 -0.3855
 3086TIP3   OH230892   4.241   1.109   7.769 -0.2578  0.3100  0.2261
 3086TIP3    H130893   4.245   1.023   7.728  2.2157  0.3426  0.2632
 3086TIP3    H230894   4.181   1.097   7.843 -2.4265 -0.5090 -1.5607
 3087TIP3   OH230895   0.421   1.777   1.310  0.0065 -0.4653 -0.4643
 3087TIP3    H130896   0.490   1.843   1.308  0.3899 -0.8381  0.0689
 3087TIP3    H230897   0.390   1.777   1.400 -0.8589 -0.1358 -0.7567
 3088TIP3   OH230898   4.971   2.076   2.084  0.1326 -0.4834 -0.1426
 3088TIP3    H130899   4.908   2.048   2.150 -0.8149 -2.1098 -1.6587
 3088TIP3    H230900   4.990   1.997   2.034  2.6806  0.1850 -0.3371
 3089TIP3   OH230901   0.050   1.232   8.757  0.0673  0.1300 -0.2094
 3089TIP3    H130902   0.029   1.232   8.664 -1.4527  0.0050  0.1162
 3089TIP3    H230903   0.026   1.144   8.787 -1.9789  0.9645  0.8081
 3090TIP3   OH230904   0.805   5.585   7.833 -0.0404  0.5348  0.4294
 3090TIP3    H130905   0.838   5.517   7.891  0.0241  1.4310  1.4690
 3090TIP3    H230906   0.721   5.551   7.802 -0.8177  0.6717  2.2645
 3091TIP3   OH230907   0.329   5.917   0.190  0.4086 -0.1386 -0.2488
 3091TIP3    H130908   0.355   5.882   0.105 -2.3066 -1.7540 -0.5367
 3091TIP3    H230909   0.358   5.851   0.253  0.0137 -0.3127 -0.2412
 3092TIP3   OH230910   2.941   5.451   0.691 -0.0465 -0.0082 -0.5556
 3092TIP3    H130911   2.982   5.419   0.771 -1.6121 -1.8194 -0.3927
 3092TIP3    H230912   3.003   5.515   0.656  1.1613  0.0569  1.5261
 3093TIP3   OH230913   1.015   1.796   1.324 -0.2851 -0.1727 -0.5433
 3093TIP3    H130914   0.946   1.788   1.258 -0.9440  0.3731  0.0683
 3093TIP3    H230915   1.062   1.713   1.319 -0.8360 -0.4607 -1.1307
 3094TIP3   OH230916   1.197   4.055   8.794 -0.0595 -0.9851 -0.5539
 3094TIP3    H130917   1.106   4.045   8.821  0.0837 -0.6108  0.1164
 3094TIP3    H230918   1.198   4.036   8.701 -0.9407 -0.3611 -0.6990
 3095TIP3   OH230919   0.517   4.448   2.579 -0.4164 -0.1976  0.6452
 3095TIP3    H130920   0.491   4.474   2.491 -2.6105  1.4425  1.6716
 3095TIP3    H230921   0.613   4.458   2.579 -0.5717  2.1283 -0.8839
 3096TIP3   OH230922   3.762   0.137   7.691 -0.1609  0.1874  0.1459
 3096TIP3    H130923   3.736   0.219   7.733 -0.6511 -0.7317  1.7311
 3096TIP3    H230924   3.688   0.114   7.635 -0.0407  0.7959 -0.2667
 3097TIP3   OH230925   1.122   3.057   1.050  0.2441 -0.4323 -0.3213
 3097TIP3    H130926   1.178   3.131   1.026 -0.2583 -0.0859 -0.4511
 3097TIP3    H230927   1.155   3.028   1.135 -0.2333  0.6479  0.2518
 3098TIP3   OH230928   0.628   4.758   0.778 -0.0752 -0.3812 -0.4308
 3098TIP3    H130929   0.684   4.835   0.773 -0.2928 -0.2884 -2.0734
 3098TIP3    H230930   0.540   4.792   0.766 -0.1135 -0.9302 -1.8590
 3099TIP3   OH230931   5.458   0.094   0.951  0.3651  0.8299  0.0007
 3099TIP3    H130932   5.527   0.086   1.017 -0.1523  2.9408  0.8834
 3099TIP3    H230933   5.405   0.168   0.981 -1.8326 -0.2082 -1.0587
 3100TIP3   OH230934   5.148   5.723   2.766  0.1760 -0.2812 -0.0996
 3100TIP3    H130935   5.068   5.716   2.818  0.4668 -0.9083  0.2815
 3100TIP3    H230936   5.118   5.724   2.675 -0.2163 -2.0838 -0.0346
 3101TIP3   OH230937   6.682   5.897   0.589  0.0604 -0.4558 -0.1878
 3101TIP3    H130938   6.713   5.911   0.678 -0.7541 -1.3046  0.2472
 3101TIP3    H230939   6.669   5.985   0.554  4.1656  0.0643 -0.9116
 3102TIP3   OH230940   4.234   1.908   1.872  0.8335 -0.0714  0.0704
 3102TIP3    H130941   4.248   1.925   1.965 -0.9636  1.5154  0.1241
 3102TIP3    H230942   4.318   1.875   1.840  2.8270  3.2041  1.4315
 3103TIP3   OH230943   5.664   6.716   8.583 -0.8901 -0.2351 -0.4706
 3103TIP3    H130944   5.724   6.643   8.592 -1.7906 -0.7736  1.6667
 3103TIP3    H230945   5.700   6.785   8.639 -2.0207 -0.4205  0.5143
 3104TIP3   OH230946   1.708   5.849   7.283  0.5594  0.2726  0.2905
 3104TIP3    H130947   1.717   5.927   7.339 -0.3396  0.0528  0.7516
 3104TIP3    H230948   1.771   5.864   7.212 -0.0259  1.7319  0.0258
 3105TIP3   OH230949   4.198   1.346   0.356 -0.3438  0.4773  0.7085
 3105TIP3    H130950   4.197   1.338   0.452 -1.5123 -0.6595  0.6322
 3105TIP3    H230951   4.113   1.385   0.335 -0.8150 -0.8488  0.0470
 3106TIP3   OH230952   4.110   4.345   0.736  0.1078  0.1648  0.6187
 3106TIP3    H130953   4.197   4.304   0.738  0.5162  0.9780  0.1064
 3106TIP3    H230954   4.114   4.413   0.802  0.0363  0.5422  0.2382
 3107TIP3   OH230955   0.943   5.174   2.514 -0.3975  0.1606 -0.0304
 3107TIP3    H130956   0.855   5.181   2.553 -0.8322 -3.1239 -0.1355
 3107TIP3    H230957   0.977   5.091   2.546  1.2892 -0.2930 -2.6493
 3108TIP3   OH230958   4.087   1.918   0.852  0.0126 -0.3602  0.0980
 3108TIP3    H130959   4.121   2.005   0.833 -0.1655 -0.4898 -0.8427
 3108TIP3    H230960   4.162   1.859   0.839 -0.4974 -0.6277 -1.8221
 3109TIP3   OH230961   1.307   0.022   2.782 -0.0857 -0.4227 -0.1333
 3109TIP3    H130962   1.370   0.045   2.850  0.8156 -1.1477 -0.7082
 3109TIP3    H230963   1.273  -0.063   2.808  0.4612 -0.8238 -0.7279
 3110TIP3   OH230964   3.660   3.372   8.716 -0.1303 -0.1057 -0.1457
 3110TIP3    H130965   3.662   3.314   8.640  1.3622  0.0921 -0.2831
 3110TIP3    H230966   3.751   3.399   8.728 -0.7059  1.8742  0.1621
 3111TIP3   OH230967   5.729   5.995   7.934 -0.1849  0.4735 -0.3364
 3111TIP3    H130968   5.689   5.952   8.010 -1.6051  0.8623 -0.8208
 3111TIP3    H230969   5.820   5.966   7.935 -0.4744 -0.5005  0.8078
 3112TIP3   OH230970   6.297   5.999   7.233  0.6356 -0.5358  0.1078
 3112TIP3    H130971   6.208   6.018   7.264  0.8405  0.2904  0.2028
 3112TIP3    H230972   6.326   6.080   7.191  1.3917 -0.7580  0.1849
 3113TIP3   OH230973   0.959   0.387   7.789 -0.2407 -0.0498 -0.0200
 3113TIP3    H130974   0.933   0.319   7.850 -1.5495  1.4791  1.1892
 3113TIP3    H230975   0.883   0.399   7.731 -0.1124  0.5282 -0.0808
 3114TIP3   OH230976   4.277   0.477   2.008 -0.1153  0.3024 -0.0800
 3114TIP3    H130977   4.305   0.485   1.917  1.2755  0.9845  0.3779
 3114TIP3    H230978   4.350   0.433   2.052 -0.6729  0.1751  0.7497
 3115TIP3   OH230979   0.648   0.051   3.066  1.1695 -0.3949  0.0069
 3115TIP3    H130980   0.663  -0.030   3.115  0.1363  0.7412  2.3818
 3115TIP3    H230981   0.552   0.057   3.058  1.1209  1.3966  1.4238
 3116TIP3   OH230982   4.922   6.599   7.793 -0.8563  0.2693  0.2799
 3116TIP3    H130983   4.945   6.656   7.720 -0.1826  0.0195  0.2895
 3116TIP3    H230984   4.858   6.538   7.756 -2.7938  1.9533  0.6519
 3117TIP3   OH230985   5.205   4.937   1.457 -0.3885 -0.1074  0.2580
 3117TIP3    H130986   5.187   4.879   1.383 -1.2369  0.1945  0.2117
 3117TIP3    H230987   5.291   4.911   1.488  0.9711  1.1353 -2.1736
 3118TIP3   OH230988   4.642   0.946   2.407  0.5065  0.2718 -0.3340
 3118TIP3    H130989   4.723   0.915   2.447  0.6329  1.5386  0.4720
 3118TIP3    H230990   4.666   0.967   2.317  0.9038 -0.0327 -0.3009
 3119TIP3   OH230991   0.476   4.842   0.209 -0.4107  0.4041 -0.8921
 3119TIP3    H130992   0.531   4.897   0.154 -0.2341  1.0748 -0.0747
 3119TIP3    H230993   0.538   4.794   0.265 -0.6092  0.3204 -0.7414
 3120TIP3   OH230994   2.914   5.907   7.804  0.6003 -0.4128  0.1295
 3120TIP3    H130995   2.967   5.983   7.829 -2.1602  1.5118  0.5836
 3120TIP3    H230996   2.881   5.928   7.717  0.0159 -1.1966  0.1490
 3121TIP3   OH230997   1.662   2.517   0.669 -0.3745 -0.5284 -0.0574
 3121TIP3    H130998   1.702   2.536   0.754  2.1922  1.7249 -1.5852
 3121TIP3    H230999   1.721   2.455   0.628  0.5682  1.2420 -1.5469
 3122TIP3   OH231000   3.970   5.436   1.655 -0.2216 -0.0574 -0.2675
 3122TIP3    H131001   3.932   5.492   1.723 -0.0629 -0.9486  0.5913
 3122TIP3    H231002   3.894   5.397   1.611 -0.3236  0.0321 -0.1695
 3123TIP3   OH231003   2.273   2.889   1.433  0.6767  0.5674  0.4323
 3123TIP3    H131004   2.297   2.935   1.514  1.4963  1.0747 -0.0739
 3123TIP3    H231005   2.258   2.960   1.370  1.4422  0.1571 -0.2251
 3124TIP3   OH231006   6.701   0.938   7.684 -0.1826  0.3950 -0.1867
 3124TIP3    H131007   6.711   0.863   7.743  4.2076  1.4551  0.7950
 3124TIP3    H231008   6.694   1.013   7.743  2.1716  1.2847 -0.9422
 3125TIP3   OH231009   0.869   4.787   6.778  0.4970 -0.0447 -0.4171
 3125TIP3    H131010   0.929   4.744   6.716  1.7027  0.3363  0.4364
 3125TIP3    H231011   0.896   4.879   6.777 -0.4208  0.2355 -0.3795
 3126TIP3   OH231012   6.136   4.547   6.949 -0.1495 -0.9509  0.1925
 3126TIP3    H131013   6.096   4.478   7.002  0.8409 -1.4049  0.3784
 3126TIP3    H231014   6.086   4.546   6.867 -0.2970 -1.7430  0.2824
 3127TIP3   OH231015   1.125   0.102   7.698 -0.4234  0.1381  0.3765
 3127TIP3    H131016   1.149   0.109   7.790  1.6814  1.3390 -0.2066
 3127TIP3    H231017   1.034   0.134   7.695 -0.7884 -0.6261  2.1022
 3128TIP3   OH231018   0.019   4.744   0.819 -0.4704 -0.6871  0.0131
 3128TIP3    H131019  -0.071   4.722   0.840 -0.6446 -1.5574 -1.5297
 3128TIP3    H231020   0.049   4.672   0.763  1.5300 -0.9810  1.3382
 3129TIP3   OH231021   4.308   5.140   0.545 -0.9045 -0.7040  0.3185
 3129TIP3    H131022   4.395   5.116   0.579 -0.7184 -0.4907 -0.0008
 3129TIP3    H231023   4.276   5.061   0.502 -0.5767 -0.5816 -0.1557
 3130TIP3   OH231024   6.379   0.509   7.942  0.3581 -0.2939 -0.8921
 3130TIP3    H131025   6.448   0.444   7.926 -0.7751 -1.5825 -0.7539
 3130TIP3    H231026   6.308   0.483   7.882 -0.3763  0.4105 -0.3443
 3131TIP3   OH231027   3.097   0.790   7.616  0.3802  0.5844  0.1168
 3131TIP3    H131028   3.046   0.757   7.543  0.4607 -0.1772  0.3902
 3131TIP3    H231029   3.062   0.877   7.634 -0.6303  0.1805  0.1276
 3132TIP3   OH231030   5.212   6.458   0.290  0.2100  0.4829  0.0253
 3132TIP3    H131031   5.252   6.449   0.376 -1.3060 -0.4498  0.6836
 3132TIP3    H231032   5.176   6.372   0.271 -0.5857  1.0086 -0.9529
 3133TIP3   OH231033   4.348   3.706   0.244  0.0783  0.0302  0.7486
 3133TIP3    H131034   4.401   3.639   0.287  0.1058 -1.0391 -0.8673
 3133TIP3    H231035   4.370   3.699   0.152 -0.8165  1.4862  0.3824
 3134TIP3   OH231036   3.139   0.039   7.129  0.0815  0.4152  0.0071
 3134TIP3    H131037   3.171  -0.024   7.065  1.2397  0.9838 -0.0039
 3134TIP3    H231038   3.106  -0.015   7.201  0.3475 -0.2093 -0.3305
 3135TIP3   OH231039   4.960   2.564   0.842 -0.5565  0.0040 -0.0244
 3135TIP3    H131040   4.899   2.522   0.903  1.1016 -1.0930  0.9982
 3135TIP3    H231041   4.908   2.585   0.765 -2.6586  1.0752  1.5975
 3136TIP3   OH231042   0.831   2.416   0.244  0.2305  0.5453  0.4790
 3136TIP3    H131043   0.778   2.384   0.317  1.9908 -1.3002  1.0364
 3136TIP3    H231044   0.889   2.482   0.284  0.5476  0.2254  0.5455
 3137TIP3   OH231045   5.787   6.284   1.324  0.2292  0.0784 -0.7008
 3137TIP3    H131046   5.709   6.340   1.323  0.2295  0.1361  0.9285
 3137TIP3    H231047   5.780   6.234   1.405  2.6295  1.1377  0.2483
 3138TIP3   OH231048   2.673   5.525   0.006  0.1376 -0.0369 -0.7869
 3138TIP3    H131049   2.651   5.514  -0.087  0.2673 -1.1471 -0.6992
 3138TIP3    H231050   2.760   5.563   0.005  0.5265 -0.8952 -1.1394
 3139TIP3   OH231051   1.456   3.262   7.747 -0.1593 -0.1755 -0.4124
 3139TIP3    H131052   1.445   3.280   7.840  0.9039  0.0049 -0.3075
 3139TIP3    H231053   1.521   3.191   7.744  0.7642  0.6607 -1.0335
 3140TIP3   OH231054   4.515   0.250   1.268 -0.0191  0.0164 -0.7128
 3140TIP3    H131055   4.587   0.257   1.331 -1.5035  1.1427  0.9592
 3140TIP3    H231056   4.498   0.340   1.241 -2.3838  0.1358  0.8899
 3141TIP3   OH231057   0.953   2.121   1.576  0.3332 -0.1936  0.2631
 3141TIP3    H131058   1.045   2.127   1.550 -0.3260 -1.7093 -2.9557
 3141TIP3    H231059   0.943   2.032   1.609  0.1521  0.2573  1.4901
 3142TIP3   OH231060   2.499   0.506   2.499  0.0028  0.2041 -0.4640
 3142TIP3    H131061   2.530   0.423   2.534 -1.0213  0.0962  0.1948
 3142TIP3    H231062   2.500   0.566   2.574 -1.0427  0.2921 -0.5149
 3143TIP3   OH231063   2.316   5.748   8.279  0.4267  0.1327 -0.4104
 3143TIP3    H131064   2.308   5.653   8.287  0.5404  0.0714 -0.9855
 3143TIP3    H231065   2.410   5.765   8.286  0.4465  0.1594 -0.7181
 3144TIP3   OH231066   6.671   5.963   1.696  0.5385  0.0685  0.8416
 3144TIP3    H131067   6.743   6.024   1.711  0.3071  0.3696  0.7252
 3144TIP3    H231068   6.669   5.909   1.775  0.7341  0.2195  0.9508
 3145TIP3   OH231069   5.730   4.561   7.579  0.0163  0.1039 -0.6882
 3145TIP3    H131070   5.653   4.505   7.571 -0.7468  1.1527 -0.8785
 3145TIP3    H231071   5.705   4.629   7.641  0.7894  0.4633 -0.7502
 3146TIP3   OH231072   5.108   4.821   8.813  0.0065 -0.0385 -0.0516
 3146TIP3    H131073   5.126   4.848   8.904  1.1429  0.2056 -0.3215
 3146TIP3    H231074   5.024   4.776   8.817 -1.5792  2.7368  0.6018
 3147TIP3   OH231075   4.895   6.150   1.063  0.2663  0.1296  0.1382
 3147TIP3    H131076   4.814   6.180   1.106  0.4639  0.3243  0.3755
 3147TIP3    H231077   4.916   6.068   1.108 -0.1463 -0.2556 -0.3548
 3148TIP3   OH231078   3.648   4.092   7.440  0.3694 -0.2236  0.4530
 3148TIP3    H131079   3.563   4.100   7.484 -0.2868 -0.4002 -0.7545
 3148TIP3    H231080   3.668   3.998   7.445 -0.4284 -0.4834 -0.9185
 3149TIP3   OH231081   4.069   0.465   0.567 -0.3992 -0.1579 -0.2430
 3149TIP3    H131082   4.038   0.555   0.558 -0.5024 -0.0795  0.7979
 3149TIP3    H231083   3.994   0.411   0.540  0.1147  0.0521 -2.2307
 3150TIP3   OH231084   2.682   2.436   0.126  0.0339 -0.0107  0.3886
 3150TIP3    H131085   2.587   2.428   0.117 -0.0018 -0.0702  0.8410
 3150TIP3    H231086   2.713   2.348   0.146  0.5007 -0.6086 -2.4333
 3151TIP3   OH231087   4.207   5.504   8.756  0.6100 -0.3875  0.0104
 3151TIP3    H131088   4.254   5.587   8.758  2.1324 -1.2301  0.8830
 3151TIP3    H231089   4.120   5.526   8.724  1.7281  1.1790 -2.2537
 3152TIP3   OH231090   5.403   6.786   7.821  0.2969  0.1888  0.1662
 3152TIP3    H131091   5.411   6.708   7.766  1.2400  0.8324 -0.6349
 3152TIP3    H231092   5.470   6.846   7.789 -1.9472  2.3518 -0.8621
 3153TIP3   OH231093   4.722   3.267   8.749  0.4947  0.1357  0.1316
 3153TIP3    H131094   4.736   3.327   8.675 -0.4093 -0.6760 -0.7398
 3153TIP3    H231095   4.803   3.271   8.799  1.6764 -0.2743 -1.6420
 3154TIP3   OH231096   3.024   2.274   0.355 -0.4599 -0.1404 -0.7628
 3154TIP3    H131097   2.947   2.303   0.404  0.2508  2.4523 -1.0418
 3154TIP3    H231098   3.099   2.301   0.409  0.3157 -2.0938 -0.7684
 3155TIP3   OH231099   1.261   3.291   2.244  0.2610 -0.2754  1.0377
 3155TIP3    H131100   1.220   3.300   2.158 -1.6153 -1.3535  1.7534
 3155TIP3    H231101   1.355   3.293   2.226 -0.0631  1.4991 -0.7833
 3156TIP3   OH231102   2.859   4.857   7.046  0.2999 -0.1344 -0.0764
 3156TIP3    H131103   2.786   4.802   7.077 -1.0654  2.4757  1.7971
 3156TIP3    H231104   2.888   4.816   6.965 -2.9097 -1.6462 -0.6245
 3157TIP3   OH231105   3.548   0.947   2.002  0.0083 -0.4220  0.0209
 3157TIP3    H131106   3.501   0.934   2.084  0.1710 -0.7318  0.0672
 3157TIP3    H231107   3.612   1.016   2.022 -0.4804  0.0663 -0.0689
 3158TIP3   OH231108   0.980   6.405   7.436  0.2234  0.9575 -0.2819
 3158TIP3    H131109   0.926   6.327   7.427  0.4485  0.7977 -0.2338
 3158TIP3    H231110   0.919   6.473   7.465 -0.2898  1.1840 -1.7719
 3159TIP3   OH231111   5.640   3.466   0.172  0.4876  0.5067  0.5798
 3159TIP3    H131112   5.648   3.560   0.159 -0.1880  0.2994 -1.7842
 3159TIP3    H231113   5.617   3.431   0.085  0.2527 -1.7799  1.4821
 3160TIP3   OH231114   3.519   1.561   1.658 -0.6245  0.5915 -0.1006
 3160TIP3    H131115   3.557   1.610   1.585  1.2105  0.4882  0.7242
 3160TIP3    H231116   3.540   1.470   1.641  0.5395  0.6385  0.9107
 3161TIP3   OH231117   5.417   6.760   2.349 -0.8695  0.0289 -0.4958
 3161TIP3    H131118   5.454   6.824   2.289  0.7517 -0.7225 -0.3508
 3161TIP3    H231119   5.416   6.804   2.434 -0.1828  0.0214 -0.4802
 3162TIP3   OH231120   2.551   1.780   2.362  0.0785 -0.2844 -0.7977
 3162TIP3    H131121   2.473   1.801   2.413  0.6995  1.8155 -0.6386
 3162TIP3    H231122   2.594   1.710   2.412 -0.0133  0.8063  0.8885
 3163TIP3   OH231123   2.598   5.648   0.860 -0.4437 -0.4062  0.4345
 3163TIP3    H131124   2.596   5.557   0.890  0.7212 -0.8924 -0.8399
 3163TIP3    H231125   2.651   5.646   0.780  1.1143  1.6665  1.3075
 3164TIP3   OH231126   6.559   4.753   2.424 -0.1724  0.0020  0.9459
 3164TIP3    H131127   6.525   4.730   2.338  0.7591  0.0221  0.5579
 3164TIP3    H231128   6.483   4.752   2.481 -1.2000  2.1405 -0.2755
 3165TIP3   OH231129   3.407   5.549   1.596  0.8020  0.3082  0.5962
 3165TIP3    H131130   3.484   5.594   1.561  0.9757 -0.5703 -0.2113
 3165TIP3    H231131   3.356   5.617   1.638  1.9067  0.9452  0.9410
 3166TIP3   OH231132   0.811   3.032   7.255 -0.6134  0.0572 -0.6077
 3166TIP3    H131133   0.873   2.966   7.285 -1.5429 -0.7830 -0.4661
 3166TIP3    H231134   0.864   3.110   7.240  0.1851 -0.0228  1.4675
 3167TIP3   OH231135   6.475   2.077   2.114  0.3275 -1.2022 -0.1793
 3167TIP3    H131136   6.441   2.075   2.204  0.9455  1.9861  0.2138
 3167TIP3    H231137   6.398   2.090   2.060  0.3584  2.0561  0.3948
 3168TIP3   OH231138   6.398   5.771   0.998 -0.8130 -1.1369 -0.1583
 3168TIP3    H131139   6.487   5.738   1.010 -0.0287  0.8867 -0.0172
 3168TIP3    H231140   6.387   5.777   0.904 -0.0886  0.3162 -0.1742
 3169TIP3   OH231141   4.518   2.708   0.741 -0.1458 -0.0201  0.1752
 3169TIP3    H131142   4.534   2.792   0.784 -0.4999  0.6430 -0.9311
 3169TIP3    H231143   4.591   2.699   0.680 -1.4770  0.8270 -1.6427
 3170TIP3   OH231144   5.745   4.297   7.747 -0.2934 -0.2245 -0.4613
 3170TIP3    H131145   5.654   4.299   7.775  0.0977 -0.4692  0.8807
 3170TIP3    H231146   5.770   4.389   7.738 -1.5008 -0.0893 -3.8231
 3171TIP3   OH231147   3.338   2.517   7.528  0.0570 -0.6368  0.2556
 3171TIP3    H131148   3.349   2.536   7.622  1.1498  1.1744 -0.1793
 3171TIP3    H231149   3.404   2.451   7.510  2.7736  1.8983  0.0496
 3172TIP3   OH231150   4.944   4.950   0.874 -0.3985  0.1041  0.1423
 3172TIP3    H131151   4.945   4.972   0.781  1.0276  1.0273  0.3504
 3172TIP3    H231152   4.875   5.006   0.911  0.3530  1.1725 -0.0428
 3173TIP3   OH231153   4.323   5.617   7.260 -0.3461  0.7527  0.1897
 3173TIP3    H131154   4.321   5.527   7.292  1.4845  1.0683  1.3489
 3173TIP3    H231155   4.315   5.609   7.165 -3.5856 -0.3598  0.4264
 3174TIP3   OH231156   0.260   4.859   8.760  0.3901  0.1856  0.0082
 3174TIP3    H131157   0.276   4.796   8.689  1.1866  0.5745 -0.1651
 3174TIP3    H231158   0.318   4.933   8.740  0.3101  0.4811  0.8435
 3175TIP3   OH231159   1.932   2.227   8.356 -0.4893 -0.5373 -0.2261
 3175TIP3    H131160   1.863   2.178   8.311 -2.0940 -0.1227  1.6504
 3175TIP3    H231161   1.967   2.166   8.421 -1.1415  0.1613  0.8020
 3176TIP3   OH231162   6.115   5.673   8.233 -0.2636  0.1891 -0.3333
 3176TIP3    H131163   6.176   5.601   8.219 -0.4014 -0.0858  0.4601
 3176TIP3    H231164   6.166   5.740   8.280 -0.0366  0.7661 -1.3641
 3177TIP3   OH231165   2.044   2.950   8.094  0.3676  0.2001  0.0800
 3177TIP3    H131166   2.113   3.003   8.136  1.3161 -1.6507  0.9679
 3177TIP3    H231167   2.022   2.998   8.015  1.9918  1.3489  0.2745
 3178TIP3   OH231168   3.885   1.120   2.512  0.0630  0.5738 -0.5775
 3178TIP3    H131169   3.801   1.100   2.472  0.3146 -1.8384 -0.0517
 3178TIP3    H231170   3.863   1.179   2.585 -0.9386  1.2448 -1.3916
 3179TIP3   OH231171   1.532   5.199   0.488  0.0507 -0.0635 -0.2986
 3179TIP3    H131172   1.535   5.284   0.533 -1.1808 -0.4664  0.6063
 3179TIP3    H231173   1.618   5.160   0.504  0.4114  0.7458 -0.1980
 3180TIP3   OH231174   4.456   1.340   8.797  0.9694 -0.0557 -0.3583
 3180TIP3    H131175   4.412   1.299   8.871  0.0399 -4.1844 -2.8701
 3180TIP3    H231176   4.385   1.376   8.744  0.8752 -2.3968 -1.9978
 3181TIP3   OH231177   3.464   0.127   7.783 -0.0557 -0.5980  0.1287
 3181TIP3    H131178   3.515   0.159   7.858  1.2745 -0.4228 -0.8077
 3181TIP3    H231179   3.484   0.033   7.780 -0.5158 -0.7005  0.2991
 3182TIP3   OH231180   3.746   6.172   2.121 -0.1004  0.1243  0.8784
 3182TIP3    H131181   3.668   6.118   2.132  1.0868 -1.9362 -0.1511
 3182TIP3    H231182   3.722   6.257   2.157 -3.3431  0.0726 -0.8249
 3183TIP3   OH231183   1.782   3.204   1.427  0.3851 -0.4561 -0.3424
 3183TIP3    H131184   1.809   3.214   1.519 -1.4609 -1.1567  0.3301
 3183TIP3    H231185   1.794   3.111   1.409 -1.3751 -0.7627 -0.0595
 3184TIP3   OH231186   0.840   4.070   8.315  0.0614  0.5655  0.0794
 3184TIP3    H131187   0.936   4.069   8.323  0.0456  1.2555  0.3968
 3184TIP3    H231188   0.818   3.982   8.285  1.0075  1.1753 -2.7308
 3185TIP3   OH231189   6.388   3.840   2.183 -0.3631 -0.2524 -0.7217
 3185TIP3    H131190   6.451   3.768   2.189 -1.4065 -1.1626 -0.3747
 3185TIP3    H231191   6.303   3.797   2.175 -1.1478  0.9119  0.7155
 3186TIP3   OH231192   5.478   1.934   1.880 -0.5153 -0.3284 -0.0292
 3186TIP3    H131193   5.399   1.987   1.872 -1.3203 -1.5572 -0.6154
 3186TIP3    H231194   5.544   1.994   1.914 -1.5819  0.8380  0.0649
 3187TIP3   OH231195   3.140   2.578   0.153 -0.3237  0.0062  0.0476
 3187TIP3    H131196   3.184   2.601   0.235 -1.0763 -1.2500  0.8374
 3187TIP3    H231197   3.047   2.590   0.171 -0.4905 -0.1885 -0.6602
 3188TIP3   OH231198   5.111   5.760   8.012 -0.0198  0.2862 -0.7358
 3188TIP3    H131199   5.198   5.735   8.041  0.3649  1.9632 -0.3659
 3188TIP3    H231200   5.117   5.763   7.916 -0.4527 -2.2274 -0.9117
 3189TIP3   OH231201   3.611   0.272   1.517 -0.0970 -0.3239  0.4104
 3189TIP3    H131202   3.609   0.355   1.564 -1.3267  1.8177 -3.0392
 3189TIP3    H231203   3.703   0.260   1.493 -0.2485  1.5310 -1.2942
 3190TIP3   OH231204   0.593   4.175   8.342 -1.0148  0.2782 -0.0767
 3190TIP3    H131205   0.586   4.153   8.435 -0.5384 -0.2931 -0.1616
 3190TIP3    H231206   0.676   4.134   8.315 -0.7599  1.1047 -0.5692
 3191TIP3   OH231207   4.468   4.652   6.677  0.3554 -0.1455  0.1017
 3191TIP3    H131208   4.542   4.648   6.617  0.1809 -0.4475 -0.0963
 3191TIP3    H231209   4.503   4.620   6.760  0.7006  0.6434  0.2760
 3192TIP3   OH231210   6.488   5.622   1.785 -0.0551  0.3557  0.0149
 3192TIP3    H131211   6.434   5.616   1.706  1.2001 -0.0394 -0.8352
 3192TIP3    H231212   6.572   5.585   1.759  0.3060  0.0109  1.6167
 3193TIP3   OH231213   6.714   2.063   0.800 -0.2091 -0.0693 -0.1205
 3193TIP3    H131214   6.662   1.984   0.811  1.3081 -0.9874  0.7366
 3193TIP3    H231215   6.697   2.090   0.709 -0.5740 -1.5072 -0.5096
 3194TIP3   OH231216   5.649   6.625   7.911 -0.2208 -0.4402  0.1186
 3194TIP3    H131217   5.647   6.560   7.841 -0.5183  0.6888 -0.9536
 3194TIP3    H231218   5.713   6.690   7.882  0.9238 -0.7816  1.6989
 3195TIP3   OH231219   4.784   2.343   1.468 -0.5158  0.2092 -0.0944
 3195TIP3    H131220   4.783   2.266   1.412  1.9983 -0.3665  0.5304
 3195TIP3    H231221   4.700   2.339   1.515 -0.6953 -1.8278 -0.4791
 3196TIP3   OH231222   1.176   6.165   7.887  0.6692 -0.8217  0.0602
 3196TIP3    H131223   1.245   6.108   7.853 -0.0539 -1.3306 -0.5953
 3196TIP3    H231224   1.221   6.225   7.946  1.5792 -1.5056  0.0796
 3197TIP3   OH231225   4.489   0.671   0.248  0.0745 -0.1684  0.3099
 3197TIP3    H131226   4.530   0.598   0.294 -0.3635  0.6715  2.1172
 3197TIP3    H231227   4.558   0.703   0.189  0.3996 -1.7530 -0.2011
 3198TIP3   OH231228   5.346   4.623   8.349  0.2081  0.1553  0.2581
 3198TIP3    H131229   5.367   4.624   8.256  0.4188  2.2566  0.2784
 3198TIP3    H231230   5.252   4.605   8.352  0.0316  0.9175 -0.4144
 3199TIP3   OH231231   0.804   6.177   7.388  0.5641  0.2426  0.3155
 3199TIP3    H131232   0.760   6.093   7.397  0.9418 -0.0916 -0.7612
 3199TIP3    H231233   0.735   6.238   7.363  0.7557 -0.4083 -2.0131
 3200TIP3   OH231234   5.161   2.202   0.957  1.1878  0.4759 -0.6030
 3200TIP3    H131235   5.097   2.216   0.888  0.5864  1.4659  0.1335
 3200TIP3    H231236   5.234   2.156   0.914  0.0304 -0.6133 -1.4620
 3201TIP3   OH231237   5.378   5.530   7.669  0.3852  0.6376 -0.0709
 3201TIP3    H131238   5.290   5.534   7.631  0.6241 -1.3324 -0.9343
 3201TIP3    H231239   5.384   5.608   7.724 -2.1835  0.4400  0.6094
 3202TIP3   OH231240   6.318   3.866   8.510  0.0901  0.1915  0.1048
 3202TIP3    H131241   6.249   3.911   8.560 -2.4485 -2.1857 -0.9633
 3202TIP3    H231242   6.360   3.809   8.574 -0.4272  0.0847  0.3598
 3203TIP3   OH231243   4.258   1.334   6.807 -0.0437 -0.4298  0.3382
 3203TIP3    H131244   4.257   1.417   6.760 -0.5520 -0.4607  0.2884
 3203TIP3    H231245   4.168   1.322   6.836  0.4769  0.2607  2.5001
 3204TIP3   OH231246   4.103   6.208   7.569  0.7407 -0.4698 -0.1529
 3204TIP3    H131247   4.082   6.240   7.481  0.5596 -0.1246  0.0139
 3204TIP3    H231248   4.021   6.167   7.599  0.1124  1.2936  0.6857
 3205TIP3   OH231249   4.361   3.357   3.035  0.6255 -0.6288 -0.0795
 3205TIP3    H131250   4.387   3.408   3.112 -2.4344 -1.7751  1.8475
 3205TIP3    H231251   4.440   3.308   3.011  1.9199  0.4769  1.6818
 3206TIP3   OH231252   3.706   0.360   7.820 -0.5855  0.3382 -0.4332
 3206TIP3    H131253   3.612   0.365   7.838 -0.9027 -0.2218 -1.8197
 3206TIP3    H231254   3.743   0.319   7.898 -1.1946  2.3458  0.9685
 3207TIP3   OH231255   6.410   5.855   0.707  0.1709 -0.2464  0.3532
 3207TIP3    H131256   6.409   5.949   0.725  2.9236 -0.0850  0.1110
 3207TIP3    H231257   6.420   5.849   0.612 -1.8369 -0.8729  0.1357
 3208TIP3   OH231258   1.056   3.625   2.008 -0.1818  0.6800  0.1704
 3208TIP3    H131259   0.998   3.631   2.084 -1.2356  3.2035 -0.7401
 3208TIP3    H231260   0.997   3.614   1.933  0.8420 -1.9820 -0.3843
 3209TIP3   OH231261   1.886   2.185   8.677  0.5464 -0.2130  0.3471
 3209TIP3    H131262   1.857   2.274   8.659 -1.0252 -0.6261  0.7208
 3209TIP3    H231263   1.963   2.173   8.621 -0.2492  0.7886 -1.0080
 3210TIP3   OH231264   3.028   3.331   1.767 -0.3517 -0.6098 -0.4070
 3210TIP3    H131265   3.073   3.257   1.725 -1.8844 -1.5728 -0.4360
 3210TIP3    H231266   3.023   3.397   1.698 -0.3360 -1.0795 -0.8684
 3211TIP3   OH231267   3.903   5.242   7.094 -0.2654  0.6259  0.1322
 3211TIP3    H131268   3.922   5.297   7.170 -0.9425  1.5756 -0.3625
 3211TIP3    H231269   3.882   5.304   7.025 -1.2460 -0.2598 -0.3943
 3212TIP3   OH231270   0.343   1.220   2.594 -0.6442 -0.3721 -0.0417
 3212TIP3    H131271   0.379   1.153   2.652 -1.1823 -0.8664 -0.2630
 3212TIP3    H231272   0.269   1.256   2.642 -0.6325 -0.2614 -0.1076
 3213TIP3   OH231273   6.707   2.059   2.544 -0.3207 -0.1351  0.0976
 3213TIP3    H131274   6.686   2.136   2.597  1.1075  0.9533 -0.8196
 3213TIP3    H231275   6.631   2.002   2.552 -1.8787  1.8308 -0.0119
 3214TIP3   OH231276   0.911   5.236   8.441  0.2303 -0.6216 -0.3899
 3214TIP3    H131277   0.960   5.218   8.522 -0.5899  2.5016  0.9578
 3214TIP3    H231278   0.837   5.176   8.444 -1.3590  1.2219  2.7856
 3215TIP3   OH231279   5.304   6.117   1.274 -0.3865 -0.0828 -0.2801
 3215TIP3    H131280   5.383   6.112   1.221  0.0591 -2.0732  0.4979
 3215TIP3    H231281   5.321   6.187   1.337 -0.0255  0.7644 -1.2903
 3216TIP3   OH231282   3.689   1.918   8.399 -0.2877 -0.6666 -0.3475
 3216TIP3    H131283   3.748   1.973   8.346 -1.0221 -0.4594 -0.9671
 3216TIP3    H231284   3.747   1.872   8.459  0.7527 -2.0342 -2.3001
 3217TIP3   OH231285   5.043   2.448   1.727 -0.1809  0.3736  0.3909
 3217TIP3    H131286   5.042   2.426   1.634 -0.7177 -0.9814  0.6910
 3217TIP3    H231287   4.953   2.471   1.748 -0.7771 -2.3205  1.1891
 3218TIP3   OH231288   0.572   5.279   2.193 -0.2406  0.8678  0.8141
 3218TIP3    H131289   0.613   5.273   2.280 -0.7709  2.0255  1.1656
 3218TIP3    H231290   0.496   5.221   2.199 -0.3117  0.9915  1.1407
 3219TIP3   OH231291   1.537   1.318   0.785  0.4117 -0.4032 -0.4154
 3219TIP3    H131292   1.450   1.293   0.754 -0.2826 -0.7108  1.6073
 3219TIP3    H231293   1.544   1.276   0.871  2.1308  0.5040 -0.0746
 3220TIP3   OH231294   4.562   3.035   0.175 -0.2779  0.6114 -0.5783
 3220TIP3    H131295   4.527   2.970   0.235  1.6513  2.2380  2.5560
 3220TIP3    H231296   4.606   2.984   0.107 -0.3269 -1.3654  0.7870
 3221TIP3   OH231297   4.782   4.173   2.243  0.5245  0.3725 -0.2475
 3221TIP3    H131298   4.860   4.223   2.268  1.9250 -1.3418 -0.9910
 3221TIP3    H231299   4.765   4.200   2.153  1.4392 -0.6041 -0.7410
 3222TIP3   OH231300   1.130   3.541   0.844  0.3467  0.2029 -0.6167
 3222TIP3    H131301   1.043   3.578   0.855  0.2470 -0.3026  0.4457
 3222TIP3    H231302   1.139   3.526   0.750 -0.8575 -0.0949 -0.6928
 3223TIP3   OH231303   4.337   4.670   0.326 -0.1305 -0.2079  0.2900
 3223TIP3    H131304   4.324   4.624   0.244 -1.0280  0.3059  0.1271
 3223TIP3    H231305   4.337   4.602   0.393  0.6786 -0.6342 -0.1367
 3224TIP3   OH231306   2.644   6.367   0.589  0.5050 -0.2902  0.4847
 3224TIP3    H131307   2.686   6.388   0.506 -1.7396  0.5575 -0.5138
 3224TIP3    H231308   2.626   6.453   0.629  2.3277 -0.6779  2.3425
 3225TIP3   OH231309   5.145   4.404   7.274  0.1022 -0.3646  0.3817
 3225TIP3    H131310   5.204   4.465   7.229 -0.2087  0.2777  0.8356
 3225TIP3    H231311   5.100   4.359   7.203  0.2070  0.0641  0.0342
 3226TIP3   OH231312   1.588   2.797   1.852  0.4402  0.1600 -0.6301
 3226TIP3    H131313   1.670   2.783   1.805  0.3403 -0.2684 -0.6799
 3226TIP3    H231314   1.555   2.709   1.869 -1.0228  0.3378 -2.3770
 3227TIP3   OH231315   3.543   2.772   8.556  0.3958  1.1534  0.3114
 3227TIP3    H131316   3.553   2.695   8.500  0.0742 -0.0294  1.8264
 3227TIP3    H231317   3.449   2.790   8.556  0.4107  1.2340  0.3575
 3228TIP3   OH231318   1.970   3.241   8.179  0.0162 -0.3006  0.6114
 3228TIP3    H131319   1.978   3.325   8.134 -1.1511 -0.5642 -0.1360
 3228TIP3    H231320   2.059   3.220   8.205  0.4903  0.6580 -0.1359
 3229TIP3   OH231321   2.970   6.270   8.547  0.2545 -0.5647 -0.2604
 3229TIP3    H131322   2.903   6.319   8.595 -0.5598 -1.5887 -0.3072
 3229TIP3    H231323   3.027   6.337   8.509  0.3169  0.2961  1.2594
 3230TIP3   OH231324   4.825   5.471   7.779  0.3949  0.1062  0.1175
 3230TIP3    H131325   4.817   5.391   7.830 -1.6472 -0.9122 -1.6430
 3230TIP3    H231326   4.802   5.541   7.840 -3.0932 -1.1520  0.4999
 3231TIP3   OH231327   5.319   4.594   8.790 -0.1500  0.3374 -0.0127
 3231TIP3    H131328   5.322   4.688   8.812  0.3659  0.3647 -0.2014
 3231TIP3    H231329   5.236   4.564   8.827  0.7132  0.3601  2.0314
 3232TIP3   OH231330   3.605   3.314   0.166 -0.2966 -0.2370 -0.0051
 3232TIP3    H131331   3.578   3.385   0.224 -1.3470 -0.9449  0.4059
 3232TIP3    H231332   3.634   3.357   0.086  2.4540  0.8693  1.4534
 3233TIP3   OH231333   5.833   0.227   0.134  0.4561  0.1320  0.0248
 3233TIP3    H131334   5.837   0.320   0.157 -0.2765  0.0665  0.4521
 3233TIP3    H231335   5.782   0.187   0.204  1.1933 -0.6903  0.1097
 3234TIP3   OH231336   5.461   4.481   1.886  0.4799  0.0411 -0.3739
 3234TIP3    H131337   5.486   4.421   1.956  0.6312 -1.8435 -1.9522
 3234TIP3    H231338   5.386   4.438   1.844  1.3402  0.3400 -2.2952
 3235TIP3   OH231339   3.242   2.989   0.335  0.0163 -0.1330  0.3386
 3235TIP3    H131340   3.306   3.031   0.278  0.4718 -0.9461  0.2228
 3235TIP3    H231341   3.249   3.036   0.418 -1.1012  1.4746 -0.4171
 3236TIP3   OH231342   1.836   3.627   2.428 -0.7269 -0.1993 -0.3078
 3236TIP3    H131343   1.806   3.645   2.517  0.3568  0.6888 -0.0799
 3236TIP3    H231344   1.900   3.556   2.438  1.0585  1.3578 -0.0007
 3237TIP3   OH231345   6.731   3.389   0.350  0.4326 -0.0396  0.2733
 3237TIP3    H131346   6.709   3.373   0.441  2.5235  2.5560  1.3677
 3237TIP3    H231347   6.793   3.320   0.328 -0.0236 -0.6372  0.8340
 3238TIP3   OH231348   0.065   0.912   8.403 -0.4066 -0.6541  0.2563
 3238TIP3    H131349   0.105   0.967   8.335  0.0195 -2.0222 -0.6314
 3238TIP3    H231350   0.139   0.885   8.458 -0.7230  0.2836  1.1984
 3239TIP3   OH231351   2.787   4.459   8.132 -0.3270  0.3574 -0.0693
 3239TIP3    H131352   2.727   4.492   8.065  0.3840 -0.9461 -1.3948
 3239TIP3    H231353   2.732   4.406   8.190 -0.5468 -0.5659 -1.0893
 3240TIP3   OH231354   3.019   3.382   0.941  0.1600 -0.2653 -0.3216
 3240TIP3    H131355   3.026   3.368   0.847  1.3357  0.0272 -0.2900
 3240TIP3    H231356   3.038   3.476   0.953 -1.5315  0.0616  0.0637
 3241TIP3   OH231357   2.417   6.018   2.082 -0.4592  0.4622 -0.0538
 3241TIP3    H131358   2.422   6.057   1.995 -0.4637 -1.5395 -1.0185
 3241TIP3    H231359   2.508   5.999   2.104 -0.5295  0.1602 -0.0231
 3242TIP3   OH231360   6.099   3.140   1.332  0.3176 -0.6048  0.1684
 3242TIP3    H131361   6.031   3.124   1.266  0.6010  2.1262 -0.9159
 3242TIP3    H231362   6.172   3.176   1.283  0.3307  2.0992  1.9835
 3243TIP3   OH231363   2.842   3.449   7.707 -0.2949  0.5688  0.1639
 3243TIP3    H131364   2.882   3.465   7.793  2.3729  0.5478 -0.9711
 3243TIP3    H231365   2.842   3.535   7.665  0.4851  0.2131 -0.5954
 3244TIP3   OH231366   3.286   6.435   2.202  0.0152  0.3184  0.3191
 3244TIP3    H131367   3.216   6.418   2.266 -0.5469 -0.2685 -0.4352
 3244TIP3    H231368   3.271   6.526   2.174 -0.2093  0.3208  0.4409
 3245TIP3   OH231369   3.328   6.668   8.344  0.2904 -0.1782  0.4793
 3245TIP3    H131370   3.348   6.718   8.422 -1.2506 -1.4898  1.7995
 3245TIP3    H231371   3.285   6.730   8.286  0.8887  0.6633  0.9211
 3246TIP3   OH231372   4.571   6.390   8.707 -0.0928 -0.2653 -0.4011
 3246TIP3    H131373   4.493   6.445   8.697 -0.0988 -0.4162 -1.2625
 3246TIP3    H231374   4.600   6.406   8.797  0.7171  2.2358 -1.0073
 3247TIP3   OH231375   3.093   0.991   0.672  0.0414  0.0347  0.0806
 3247TIP3    H131376   3.118   0.899   0.659 -1.2500 -0.5895  1.6558
 3247TIP3    H231377   3.079   0.999   0.766  0.1995  1.8927 -0.0111
 3248TIP3   OH231378   0.820   5.804   1.351  0.1779  0.2497  0.4054
 3248TIP3    H131379   0.836   5.866   1.422  0.8406  0.1601  0.3429
 3248TIP3    H231380   0.875   5.836   1.279 -0.4874  0.3403 -0.0684
 3249TIP3   OH231381   3.085   4.905   0.861 -0.3186  0.7785  0.2309
 3249TIP3    H131382   3.103   4.960   0.938  1.6470  0.1767  0.2560
 3249TIP3    H231383   3.069   4.968   0.791 -0.9228  1.3467  0.8566
 3250TIP3   OH231384   5.735   2.023   2.167 -0.9572  0.3829  0.3589
 3250TIP3    H131385   5.696   1.972   2.239 -1.7339 -0.6538 -0.7488
 3250TIP3    H231386   5.829   2.018   2.182 -0.8324 -3.1750 -0.7732
 3251TIP3   OH231387   5.833   6.766   7.738 -0.0461  0.2460  0.4573
 3251TIP3    H131388   5.859   6.743   7.649 -1.7492 -2.0848  0.4718
 3251TIP3    H231389   5.789   6.851   7.729  2.6815  1.6843 -0.3174
 3252TIP3   OH231390   2.267   2.090   7.257  0.4581 -0.2895  0.2270
 3252TIP3    H131391   2.317   2.170   7.272  0.0722  0.2219 -1.1001
 3252TIP3    H231392   2.306   2.026   7.318  1.3417  0.6560  0.6895
 3253TIP3   OH231393   3.689   2.382   7.175 -0.2987 -0.4431 -0.2024
 3253TIP3    H131394   3.780   2.411   7.182 -0.2132 -0.1677 -2.0122
 3253TIP3    H231395   3.681   2.350   7.086 -1.8971 -0.8006  0.0404
 3254TIP3   OH231396   2.194   6.285   6.699 -0.0290  0.0589  0.2450
 3254TIP3    H131397   2.221   6.359   6.753 -0.0275  0.1091  0.1759
 3254TIP3    H231398   2.219   6.310   6.610  2.1170 -1.0065  0.4870
 3255TIP3   OH231399   3.624   3.371   8.322 -0.0841  0.3217  0.0917
 3255TIP3    H131400   3.634   3.435   8.393 -1.1805  0.2363  0.3496
 3255TIP3    H231401   3.551   3.404   8.270 -1.1459 -1.0720  0.6399
 3256TIP3   OH231402   2.425   0.681   1.613 -0.2351  0.0405 -0.0198
 3256TIP3    H131403   2.415   0.601   1.562  0.1446 -0.1918  0.2659
 3256TIP3    H231404   2.481   0.737   1.559 -0.9271  0.3240 -0.4556
 3257TIP3   OH231405   6.686   6.732   1.705 -0.5808  0.2639  0.2619
 3257TIP3    H131406   6.700   6.700   1.794  2.1277 -2.3992 -0.9323
 3257TIP3    H231407   6.630   6.666   1.664 -0.3062  0.4827 -0.4900
 3258TIP3   OH231408   2.964   6.770   7.692 -0.1454 -0.0201  0.1952
 3258TIP3    H131409   2.959   6.795   7.784  0.2843 -1.3912  0.6148
 3258TIP3    H231410   3.041   6.816   7.659 -0.3320  0.5160  0.4992
 3259TIP3   OH231411   3.835   0.232   8.042 -0.8065 -0.0032 -0.4852
 3259TIP3    H131412   3.824   0.296   8.112  1.2321 -0.0604 -0.0435
 3259TIP3    H231413   3.922   0.251   8.006 -0.1783 -2.4274 -0.4154
 3260TIP3   OH231414   1.876   2.145   1.404  0.5034  0.1359 -0.2849
 3260TIP3    H131415   1.854   2.228   1.363 -0.8153 -0.6885 -1.3174
 3260TIP3    H231416   1.892   2.085   1.331 -0.0498 -0.8999  0.4165
 3261TIP3   OH231417   5.056   3.803   7.392 -0.0406  0.3463 -0.0738
 3261TIP3    H131418   5.123   3.780   7.327  1.2334 -0.2310  1.3956
 3261TIP3    H231419   4.984   3.837   7.339  1.0218  0.1102 -1.7867
 3262TIP3   OH231420   4.963   1.591   7.918 -0.1720 -0.0879 -0.7737
 3262TIP3    H131421   4.991   1.651   7.849  0.9974  0.1349 -0.1474
 3262TIP3    H231422   4.996   1.631   7.999 -1.8484 -0.1483 -0.0273
 3263TIP3   OH231423   3.311   6.726   2.415  0.1345  0.2971 -0.4747
 3263TIP3    H131424   3.382   6.770   2.369  1.4175 -1.7332 -0.5884
 3263TIP3    H231425   3.264   6.796   2.459  3.9222  1.5909  2.0086
 3264TIP3   OH231426   6.652   4.878   1.235  0.3455 -0.1436 -0.3645
 3264TIP3    H131427   6.715   4.922   1.292  0.4820 -0.6361 -0.1288
 3264TIP3    H231428   6.671   4.784   1.247 -2.3097 -0.5015  1.9368
 3265TIP3   OH231429   0.549   4.919   1.452  0.3656 -0.2269 -0.1644
 3265TIP3    H131430   0.500   5.000   1.441  0.6244  0.1450  1.2204
 3265TIP3    H231431   0.537   4.895   1.544  2.0136 -0.6098 -0.0032
 3266TIP3   OH231432   0.554   0.505   8.701 -0.1210  0.1403  0.3573
 3266TIP3    H131433   0.606   0.459   8.636  0.9655  0.8265  0.7029
 3266TIP3    H231434   0.527   0.586   8.658  0.7921  0.7025  0.8001
 3267TIP3   OH231435   1.911   6.384   1.761  0.5384 -0.6180 -0.2779
 3267TIP3    H131436   1.876   6.300   1.733 -1.0539  0.0280 -0.3197
 3267TIP3    H231437   2.005   6.377   1.744  0.8099 -3.1225  1.6566
 3268TIP3   OH231438   4.431   2.880   7.877 -0.2596  0.3776 -0.3368
 3268TIP3    H131439   4.428   2.902   7.784 -0.0560 -0.8312 -0.6401
 3268TIP3    H231440   4.348   2.836   7.895 -0.7182  1.4587  0.2921
 3269TIP3   OH231441   5.250   6.614   0.026  0.3911  0.4063 -0.4174
 3269TIP3    H131442   5.254   6.552   0.099 -0.0623  1.4638  0.5465
 3269TIP3    H231443   5.292   6.569  -0.047  0.8908 -0.6681  0.5096
 3270TIP3   OH231444   3.312   5.937   1.914  0.5937  0.3961 -0.2205
 3270TIP3    H131445   3.280   6.005   1.974  0.8074  1.7969 -1.6464
 3270TIP3    H231446   3.383   5.894   1.963 -1.5088 -0.9367  1.9119
 3271TIP3   OH231447   3.572   2.875   1.721  0.5980  0.2767  0.3448
 3271TIP3    H131448   3.579   2.935   1.796 -0.6914  0.6201  0.2135
 3271TIP3    H231449   3.480   2.880   1.695  1.2655  1.0719 -2.0354
 3272TIP3   OH231450   6.244   6.528   2.498 -0.4318 -0.4757  0.1115
 3272TIP3    H131451   6.315   6.491   2.550  0.8230  0.1465 -1.0935
 3272TIP3    H231452   6.173   6.465   2.506  1.2012 -2.5847 -0.8608
 3273TIP3   OH231453   4.175   2.975   8.118  0.0482  0.0210 -0.0840
 3273TIP3    H131454   4.086   2.988   8.085  0.2370  0.3875 -0.4449
 3273TIP3    H231455   4.231   2.990   8.043  0.4364  0.0858  0.2184
 3274TIP3   OH231456   2.112   3.103   2.330 -0.4161 -0.6096  0.1126
 3274TIP3    H131457   2.038   3.049   2.359 -2.0130  0.4430 -1.6924
 3274TIP3    H231458   2.142   3.148   2.409 -1.3856 -1.4435  0.9865
 3275TIP3   OH231459   3.273   5.821   1.097 -0.0857  0.5290 -0.3367
 3275TIP3    H131460   3.289   5.788   1.009  0.2937  0.7374 -0.3492
 3275TIP3    H231461   3.182   5.797   1.117  0.1150 -0.3081 -0.4311
 3276TIP3   OH231462   3.017   3.442   7.943 -0.4786 -0.2387  0.4806
 3276TIP3    H131463   2.992   3.370   8.000  0.6853  1.9601  4.1016
 3276TIP3    H231464   3.111   3.431   7.928 -0.7471 -0.7338 -1.0536
 3277TIP3   OH231465   2.971   4.671   7.493  0.2184  0.0237  0.0062
 3277TIP3    H131466   2.938   4.744   7.546 -1.1700 -1.5078  1.3650
 3277TIP3    H231467   2.917   4.674   7.413 -2.1534 -1.3448  1.4270
 3278TIP3   OH231468   2.395   1.409   0.672  0.3725  0.5078  0.2371
 3278TIP3    H131469   2.372   1.317   0.666  2.0805  0.1156 -1.0663
 3278TIP3    H231470   2.322   1.449   0.719 -0.8040 -1.3389  0.0797
 3279TIP3   OH231471   0.662   1.628   8.673 -0.5368 -0.5248 -0.1452
 3279TIP3    H131472   0.667   1.608   8.579 -3.4958 -0.9395 -0.3406
 3279TIP3    H231473   0.673   1.723   8.678 -1.4532 -0.3409 -1.1146
 3280TIP3   OH231474   3.129   4.960   8.492  0.1595 -0.7184 -0.1680
 3280TIP3    H131475   3.188   4.969   8.417  0.1470  0.0138 -0.1009
 3280TIP3    H231476   3.043   4.947   8.454 -0.1446  1.3773 -0.3551
 3281TIP3   OH231477   5.515   3.325   7.533 -0.2089  0.4906 -0.3029
 3281TIP3    H131478   5.483   3.277   7.456 -1.6952  0.2704  0.4025
 3281TIP3    H231479   5.596   3.280   7.557  0.1109  0.3640 -1.5273
 3282TIP3   OH231480   6.501   0.695   1.838 -0.0042 -0.0957 -0.7161
 3282TIP3    H131481   6.544   0.614   1.809 -0.2385  0.3199 -2.3009
 3282TIP3    H231482   6.474   0.676   1.928 -0.5081 -1.9811 -1.2084
 3283TIP3   OH231483   1.574   6.436   8.307 -0.3918  0.0635  0.4416
 3283TIP3    H131484   1.537   6.524   8.295  1.5761  0.7923 -0.8081
 3283TIP3    H231485   1.571   6.422   8.402 -2.5946  0.5914  0.5033
 3284TIP3   OH231486   3.968   2.151   7.143 -0.1113 -0.3733  0.3323
 3284TIP3    H131487   4.009   2.236   7.126 -2.6670  0.9909  0.4919
 3284TIP3    H231488   3.950   2.116   7.055  1.9528 -1.3525  0.2436
 3285TIP3   OH231489   6.404   5.964   7.866  0.0435  0.0819 -0.2173
 3285TIP3    H131490   6.369   5.899   7.804  0.1121 -1.1600  0.9918
 3285TIP3    H231491   6.417   5.915   7.947  0.0442  1.6520  0.7697
 3286TIP3   OH231492   3.552   5.243   0.087 -0.0448  0.2370  0.2625
 3286TIP3    H131493   3.539   5.201   0.003 -1.3238 -0.0719  0.5945
 3286TIP3    H231494   3.570   5.335   0.066  0.9837 -0.0969 -0.3829
 3287TIP3   OH231495   2.620   4.099   7.644 -0.1574  0.2928  0.4851
 3287TIP3    H131496   2.676   4.042   7.591  0.5865  0.7058  0.8070
 3287TIP3    H231497   2.636   4.070   7.734  0.1273  0.9221  0.6386
 3288TIP3   OH231498   5.890   6.398   6.891 -0.0972  0.2419 -0.4160
 3288TIP3    H131499   5.947   6.330   6.854  0.8451  0.2465  0.9517
 3288TIP3    H231500   5.829   6.419   6.820 -0.1454 -1.7158 -1.0363
 3289TIP3   OH231501   4.449   3.520   0.422 -0.4893 -0.6302  0.1626
 3289TIP3    H131502   4.406   3.475   0.495  1.3789 -1.6318  0.7146
 3289TIP3    H231503   4.486   3.449   0.369 -2.0256  0.0572 -1.9746
 3290TIP3   OH231504   3.903   6.714   2.249  0.0857  0.3009  0.1903
 3290TIP3    H131505   3.933   6.781   2.310  0.4485 -0.1277  0.4856
 3290TIP3    H231506   3.810   6.704   2.268 -0.5295  2.2968 -1.3477
 3291TIP3   OH231507   1.654   3.268   0.056 -0.9360  0.1147 -0.1403
 3291TIP3    H131508   1.630   3.176   0.059 -2.2516  0.4715  1.2571
 3291TIP3    H231509   1.632   3.295  -0.034 -0.8813 -0.8249 -0.4495
 3292TIP3   OH231510   2.266   6.471   7.285 -0.0410  0.6407 -0.1017
 3292TIP3    H131511   2.329   6.511   7.226  0.0245  0.5192 -0.1135
 3292TIP3    H231512   2.183   6.473   7.236 -0.0623  0.8631 -0.0591
 3293TIP3   OH231513   1.696   4.835   2.457 -0.0194  0.7012 -0.7391
 3293TIP3    H131514   1.755   4.910   2.450 -0.2526  0.9486 -0.1145
 3293TIP3    H231515   1.629   4.863   2.519  0.1906 -0.2194 -0.0746
 3294TIP3   OH231516   1.984   4.441   1.405 -0.1527 -0.3082  0.1787
 3294TIP3    H131517   2.055   4.458   1.467 -0.1244 -2.6148  0.8907
 3294TIP3    H231518   1.974   4.523   1.357  1.2044  0.9262  1.8450
 3295TIP3   OH231519   1.476   3.595   1.263 -1.0512 -0.4885  0.0211
 3295TIP3    H131520   1.536   3.599   1.337 -0.2074  0.3864 -0.6783
 3295TIP3    H231521   1.421   3.519   1.280  1.4823 -2.5108 -0.2149
 3296TIP3   OH231522   2.436   3.001   0.422 -0.0620 -0.1939 -0.1466
 3296TIP3    H131523   2.499   3.073   0.427  0.1429 -0.4110  0.5340
 3296TIP3    H231524   2.435   2.976   0.329 -0.6471  1.1208 -0.5253
 3297TIP3   OH231525   2.572   4.480   2.246  0.6462 -0.6099 -0.1510
 3297TIP3    H131526   2.550   4.387   2.252 -0.7071 -0.4416 -1.9021
 3297TIP3    H231527   2.566   4.512   2.337 -3.6548 -1.2623  0.0199
 3298TIP3   OH231528   5.326   5.202   1.598  0.2867 -0.7894 -0.4202
 3298TIP3    H131529   5.320   5.121   1.546  1.4043 -0.8326 -0.5038
 3298TIP3    H231530   5.420   5.220   1.603 -0.0167  1.5526 -1.9957
 3299TIP3   OH231531   1.953   5.626   8.638 -0.6640  0.5950 -0.2912
 3299TIP3    H131532   1.900   5.705   8.655 -2.5604 -1.0003  1.9816
 3299TIP3    H231533   2.016   5.624   8.710 -1.7583 -0.7706  0.6888
 3300TIP3   OH231534   2.817   2.473   0.508  0.0398 -0.4908 -0.2121
 3300TIP3    H131535   2.770   2.395   0.539 -1.1110 -0.0316 -0.7342
 3300TIP3    H231536   2.753   2.518   0.452  0.2642  1.4333  0.9969
 3301TIP3   OH231537   5.012   5.597   7.252 -0.0222 -0.0903 -0.6010
 3301TIP3    H131538   4.981   5.563   7.336 -0.1616 -0.0295 -0.6267
 3301TIP3    H231539   4.961   5.677   7.238 -1.1966 -0.9498 -1.5173
 3302TIP3   OH231540   5.452   4.243   0.667  0.5055  0.2838 -0.1387
 3302TIP3    H131541   5.459   4.334   0.696  0.1384  0.2501  0.0509
 3302TIP3    H231542   5.399   4.247   0.588 -0.6909  0.0794  0.6373
 3303TIP3   OH231543   0.015   1.118   1.671  0.5135  0.0199  0.2576
 3303TIP3    H131544  -0.016   1.166   1.594  1.1670 -0.2075 -0.1580
 3303TIP3    H231545  -0.034   1.036   1.669 -0.3189  0.4886  0.7490
 3304TIP3   OH231546   4.172   3.264   1.012 -0.2587  0.4647  0.2306
 3304TIP3    H131547   4.146   3.224   1.095 -0.0013 -0.3206 -0.0594
 3304TIP3    H231548   4.234   3.332   1.036 -0.2844  0.3256  0.6919
 3305TIP3   OH231549   0.009   4.284   1.322 -0.5422 -0.1556 -0.1007
 3305TIP3    H131550  -0.008   4.279   1.228  0.2964 -1.0416 -0.2240
 3305TIP3    H231551   0.007   4.193   1.352 -0.9526  0.1308  0.7703
 3306TIP3   OH231552   2.647   3.950   7.865  0.0495  0.5352  0.0839
 3306TIP3    H131553   2.682   3.959   7.954  1.8671  0.9124 -0.6268
 3306TIP3    H231554   2.586   3.877   7.871 -0.7689  1.3087  1.8917
 3307TIP3   OH231555   0.628   4.121   2.403  0.1542  0.3645 -0.3482
 3307TIP3    H131556   0.665   4.033   2.400 -0.4584  0.0779  0.2984
 3307TIP3    H231557   0.699   4.176   2.434  0.1941 -0.1033  0.4129
 3308TIP3   OH231558   1.657   1.208   1.265 -0.2513 -0.4205  0.8932
 3308TIP3    H131559   1.688   1.234   1.352 -2.3594 -1.8317  2.1452
 3308TIP3    H231560   1.732   1.224   1.208  1.3838  0.0836  3.0351
 3309TIP3   OH231561   1.604   4.566   1.815 -0.7663  0.0110  0.0668
 3309TIP3    H131562   1.637   4.643   1.768  0.5964 -0.3504  0.3838
 3309TIP3    H231563   1.558   4.515   1.748 -1.1164  0.7747 -0.2883
 3310TIP3   OH231564   3.291   6.442   1.551  0.3174 -0.3455 -0.5110
 3310TIP3    H131565   3.371   6.488   1.575 -0.0397 -0.2290  0.5229
 3310TIP3    H231566   3.299   6.356   1.592 -0.3635 -0.1015  0.1606
 3311TIP3   OH231567   0.993   1.838   1.601 -0.4605  0.0226 -0.4608
 3311TIP3    H131568   1.084   1.839   1.632 -0.8899 -3.3231  1.4281
 3311TIP3    H231569   1.000   1.807   1.510  0.3526  2.1994 -1.2008
 3312TIP3   OH231570   0.554   5.280   0.133  0.2283 -0.2027 -0.0260
 3312TIP3    H131571   0.610   5.214   0.093  1.1724 -0.0670  1.0224
 3312TIP3    H231572   0.506   5.233   0.201  0.4369  0.0596  0.3038
 3313TIP3   OH231573   1.656   1.699   0.562 -0.0959 -0.4202  0.3864
 3313TIP3    H131574   1.664   1.655   0.646 -0.2327  1.0921  1.2211
 3313TIP3    H231575   1.577   1.662   0.523  0.8868 -2.3827  0.1071
 3314TIP3   OH231576   4.092   6.137   2.101  0.0381  0.4992  0.6305
 3314TIP3    H131577   4.038   6.196   2.154  0.6691  0.9618  0.7660
 3314TIP3    H231578   4.030   6.093   2.044 -1.0147 -1.6503  3.2156
 3315TIP3   OH231579   0.234   2.210   1.089 -0.1221 -0.4174 -0.2707
 3315TIP3    H131580   0.192   2.209   1.003  0.6575 -1.0406 -0.6487
 3315TIP3    H231581   0.169   2.250   1.147 -0.8304 -0.4195 -1.0546
 3316TIP3   OH231582   5.617   1.897   1.620 -0.4486 -0.1455 -0.8122
 3316TIP3    H131583   5.600   1.803   1.611 -0.7854 -0.0691 -0.9921
 3316TIP3    H231584   5.615   1.913   1.714 -1.9159 -0.0531 -0.8284
 3317TIP3   OH231585   3.291   1.220   8.293 -0.4892 -0.0055  0.6348
 3317TIP3    H131586   3.278   1.308   8.326 -1.1394  0.1295  0.0331
 3317TIP3    H231587   3.366   1.228   8.233 -0.3860  0.0883  0.7780
 3318TIP3   OH231588   5.668   3.265   2.287  0.2779  0.2184 -0.0666
 3318TIP3    H131589   5.710   3.296   2.368 -0.0327 -2.1616  1.0638
 3318TIP3    H231590   5.612   3.193   2.314  0.6138 -1.0617 -2.4806
 3319TIP3   OH231591   4.956   6.837   0.744  0.8712  0.1357  0.3227
 3319TIP3    H131592   4.966   6.922   0.702 -0.5424 -0.8009 -2.1556
 3319TIP3    H231593   4.865   6.834   0.772 -0.3287 -1.9040 -3.2110
 3320TIP3   OH231594   2.089   0.992   2.200 -0.6200  0.1376  0.3915
 3320TIP3    H131595   2.168   1.023   2.158 -1.7147  1.6495 -0.6474
 3320TIP3    H231596   2.095   0.896   2.194 -0.6865  0.2301 -3.2947
 3321TIP3   OH231597   6.024   0.094   1.604  0.1310  0.5699 -0.1433
 3321TIP3    H131598   6.073   0.171   1.577  0.8287  0.0850 -0.2803
 3321TIP3    H231599   6.036   0.031   1.533 -2.1013  1.0120 -0.9981
 3322TIP3   OH231600   1.591   5.621   8.352 -0.1543 -0.1385 -0.1083
 3322TIP3    H131601   1.609   5.688   8.286 -1.1993 -0.3152 -0.5952
 3322TIP3    H231602   1.500   5.596   8.336 -0.4457 -0.1657  1.4140
 3323TIP3   OH231603   4.228   5.093   6.661 -0.8614 -0.0484  0.1803
 3323TIP3    H131604   4.315   5.129   6.682 -0.0659 -0.8148 -1.6095
 3323TIP3    H231605   4.186   5.162   6.610 -1.2613  0.2575  0.9098
 3324TIP3   OH231606   5.183   4.374   8.099 -0.5474  0.0096  0.5191
 3324TIP3    H131607   5.112   4.432   8.128 -0.6959  0.4235 -0.6142
 3324TIP3    H231608   5.152   4.286   8.117 -0.9340  0.2282  0.9309
 3325TIP3   OH231609   0.624   6.099   0.394 -0.0311 -0.2161 -0.3409
 3325TIP3    H131610   0.572   6.094   0.474  0.4935 -0.3867  0.0004
 3325TIP3    H231611   0.666   6.014   0.387  0.1919 -0.0858 -0.6145
 3326TIP3   OH231612   1.236   4.132   7.425  0.5280  0.4674 -0.0477
 3326TIP3    H131613   1.231   4.138   7.521 -2.9672 -0.3688 -0.0449
 3326TIP3    H231614   1.199   4.046   7.405 -1.0443  1.5841 -2.2270
 3327TIP3   OH231615   1.436   1.269   1.871 -0.4989 -0.0667  0.1216
 3327TIP3    H131616   1.429   1.180   1.837  1.0123  0.1678 -0.9090
 3327TIP3    H231617   1.350   1.308   1.854 -1.3952 -1.4910  1.1778
 3328TIP3   OH231618   2.179   3.129   1.283 -0.2125  0.0119  0.1643
 3328TIP3    H131619   2.126   3.102   1.209  1.5785 -1.0067 -0.8250
 3328TIP3    H231620   2.257   3.169   1.244  1.1166 -1.1836  1.4201
 3329TIP3   OH231621   4.627   6.545   2.468  0.0459  0.2933 -0.4483
 3329TIP3    H131622   4.589   6.630   2.444  2.6672  1.9522  0.7623
 3329TIP3    H231623   4.614   6.539   2.563 -0.2935 -0.7957 -0.5465
 3330TIP3   OH231624   4.394   1.221   1.023 -0.2547 -0.0124 -0.1971
 3330TIP3    H131625   4.456   1.215   1.096  0.1832 -1.6025 -0.6521
 3330TIP3    H231626   4.341   1.298   1.042 -1.1698 -1.2158  2.6331
 3331TIP3   OH231627   0.493   0.638   8.069 -0.2450  0.0243 -0.0754
 3331TIP3    H131628   0.428   0.676   8.010 -2.3456 -1.2254  1.2730
 3331TIP3    H231629   0.521   0.557   8.025 -1.2268 -0.5116  0.2512
 3332TIP3   OH231630   6.486   6.583   0.362  0.0706  0.3127 -0.1948
 3332TIP3    H131631   6.448   6.518   0.302  0.7066 -0.4250  0.1752
 3332TIP3    H231632   6.535   6.642   0.306 -2.7432  2.1900 -0.8755
 3333TIP3   OH231633   0.211   4.760   7.948 -1.0261 -0.4755  0.1123
 3333TIP3    H131634   0.161   4.717   8.017 -3.6911 -0.1565 -1.4921
 3333TIP3    H231635   0.175   4.848   7.943 -0.9664 -0.5150 -1.7117
 3334TIP3   OH231636   3.494   0.342   8.650  0.0054 -0.3466 -0.3841
 3334TIP3    H131637   3.399   0.342   8.637 -0.3526  1.3213  1.7902
 3334TIP3    H231638   3.518   0.250   8.646 -1.7084 -0.8198 -0.8692
 3335TIP3   OH231639   2.726   4.749   8.226 -0.1146 -0.4037  0.2484
 3335TIP3    H131640   2.801   4.726   8.172  0.0937  0.2950  0.2355
 3335TIP3    H231641   2.652   4.748   8.166  0.0852  0.1618 -0.0201
 3336TIP3   OH231642   2.869   5.125   0.119 -0.0965  0.2434 -0.5357
 3336TIP3    H131643   2.856   5.150   0.027 -0.0295  1.3915 -0.2466
 3336TIP3    H231644   2.951   5.075   0.119  0.0057  0.4055 -1.0640
 3337TIP3   OH231645   6.003   1.482   8.398 -0.1121 -0.3372  0.6313
 3337TIP3    H131646   6.081   1.532   8.378  0.6678 -1.2172  1.3606
 3337TIP3    H231647   6.034   1.391   8.406 -1.1799 -0.6879  1.0252
 3338TIP3   OH231648   3.847   6.687   0.159  0.3280  0.3036 -0.1478
 3338TIP3    H131649   3.809   6.766   0.197 -1.2758 -1.1456  1.4645
 3338TIP3    H231650   3.930   6.676   0.205  1.1068  1.6218 -1.1931
 3339TIP3   OH231651   0.250   3.925   7.545 -0.5144 -0.2291  0.1942
 3339TIP3    H131652   0.340   3.954   7.560  0.0229 -1.6507 -0.1134
 3339TIP3    H231653   0.255   3.874   7.464 -1.7211  0.2037 -0.1639
 3340TIP3   OH231654   5.050   1.810   1.263  0.4225 -0.1510 -0.0262
 3340TIP3    H131655   5.106   1.787   1.188 -1.2210 -0.3751 -1.2343
 3340TIP3    H231656   5.111   1.850   1.326  1.6029  1.9735 -2.3046
 3341TIP3   OH231657   4.760   5.130   7.620  0.1016 -0.0280 -0.4043
 3341TIP3    H131658   4.745   5.035   7.613  3.9389 -0.8297  0.1950
 3341TIP3    H231659   4.778   5.144   7.713  2.2032  0.7571 -0.8862
 3342TIP3   OH231660   5.393   0.276   0.395  0.3928  0.0799 -0.2806
 3342TIP3    H131661   5.414   0.315   0.309  0.5512  0.3805 -0.1065
 3342TIP3    H231662   5.326   0.334   0.431  0.5401  0.1190 -0.0721
 3343TIP3   OH231663   1.633   0.311   0.457 -0.4365 -0.1235 -0.5359
 3343TIP3    H131664   1.564   0.343   0.515 -1.4338 -3.0017  0.0115
 3343TIP3    H231665   1.703   0.283   0.516  1.8175  3.6647 -1.1042
 3344TIP3   OH231666   5.084   2.904   0.317  0.1281  0.0504 -0.6428
 3344TIP3    H131667   5.099   2.857   0.399  1.3029 -1.1796 -1.5254
 3344TIP3    H231668   4.988   2.913   0.312  0.0796  2.1610  1.9141
 3345TIP3   OH231669   5.219   1.072   0.506  0.1413 -0.2380  0.4343
 3345TIP3    H131670   5.125   1.090   0.516  0.1755 -0.2695  0.8358
 3345TIP3    H231671   5.261   1.139   0.560  0.3497 -0.2121  0.2365
 3346TIP3   OH231672   6.122   3.067   2.594  0.5390  0.1263  0.6348
 3346TIP3    H131673   6.095   2.984   2.633  2.4983 -0.8435  0.0638
 3346TIP3    H231674   6.057   3.130   2.624 -0.2162 -1.3330  2.2364
 3347TIP3   OH231675   0.667   4.176   0.442  0.0916 -0.2526  0.5020
 3347TIP3    H131676   0.594   4.210   0.493 -0.0004  1.1022 -0.4969
 3347TIP3    H231677   0.630   4.157   0.356  0.7970 -0.0461  0.1474
 3348TIP3   OH231678   6.395   2.624   2.181 -0.3766  0.0514 -0.3470
 3348TIP3    H131679   6.418   2.674   2.103 -1.1344  0.4065 -0.3619
 3348TIP3    H231680   6.478   2.596   2.218 -0.0224 -2.1342 -2.5432
 3349TIP3   OH231681   3.118   3.028   8.418 -0.1630 -0.4705  0.0837
 3349TIP3    H131682   3.063   3.028   8.339  0.2693 -0.6178 -0.2246
 3349TIP3    H231683   3.208   3.031   8.384  0.0518 -1.3356  0.5523
 3350TIP3   OH231684   5.020   0.859   1.531 -0.0619  0.3515  0.0704
 3350TIP3    H131685   5.080   0.923   1.492  0.6845  0.5095  1.4375
 3350TIP3    H231686   5.029   0.781   1.476  2.8059 -0.2726  1.2474
 3351TIP3   OH231687   1.973   0.566   1.183  0.0417  0.0504 -0.1622
 3351TIP3    H131688   1.890   0.604   1.155  0.1496  1.3740  1.1489
 3351TIP3    H231689   2.023   0.640   1.218  2.0956 -0.5826 -1.5849
 3352TIP3   OH231690   2.939   5.284   7.485 -0.4450 -0.3174 -0.3312
 3352TIP3    H131691   3.001   5.215   7.460 -0.2746 -0.3471  0.1668
 3352TIP3    H231692   2.868   5.237   7.527 -1.2447 -0.3760 -1.6882
 3353TIP3   OH231693   0.890   3.417   2.210 -0.6489  0.0117  0.2819
 3353TIP3    H131694   0.803   3.386   2.235 -0.7479  0.3746  0.3891
 3353TIP3    H231695   0.949   3.346   2.235 -0.9871 -0.5167 -0.4051
 3354TIP3   OH231696   3.109   2.823   2.140  0.2726 -0.6031  0.1136
 3354TIP3    H131697   3.061   2.753   2.183  1.1957 -0.3516  1.6307
 3354TIP3    H231698   3.089   2.901   2.192 -1.1553  0.4399 -1.8281
 3355TIP3   OH231699   3.691   2.277   6.930 -0.1579  0.5880 -0.3928
 3355TIP3    H131700   3.690   2.349   6.867 -2.2833 -1.6012 -3.0951
 3355TIP3    H231701   3.766   2.224   6.904  1.5732  1.8040  1.7664
 3356TIP3   OH231702   0.567   0.605   0.398  0.1923 -0.1549  0.3429
 3356TIP3    H131703   0.533   0.582   0.311 -1.4972 -0.3482  1.0057
 3356TIP3    H231704   0.594   0.697   0.389 -0.5754  0.0351 -0.2463
 3357TIP3   OH231705   0.394   4.905   8.288  0.4944  0.3793 -0.4192
 3357TIP3    H131706   0.392   4.985   8.340  0.2406  0.8528 -1.1349
 3357TIP3    H231707   0.371   4.934   8.199  0.2784 -0.5074 -0.6609
 3358TIP3   OH231708   5.978   4.862   0.442  0.2944  0.1441 -0.3249
 3358TIP3    H131709   5.903   4.912   0.409  0.1578  0.4799  0.4649
 3358TIP3    H231710   5.945   4.773   0.454  0.0428  0.2741 -0.0531
 3359TIP3   OH231711   2.025   4.486   1.920  0.3616 -0.0128 -0.5850
 3359TIP3    H131712   2.054   4.563   1.872 -1.8269 -0.1567 -2.2750
 3359TIP3    H231713   1.981   4.432   1.855  1.9654 -2.8396  0.4889
 3360TIP3   OH231714   2.426   2.453   1.338 -0.5137 -0.1370 -0.2563
 3360TIP3    H131715   2.375   2.463   1.418 -0.5559  0.4156 -0.3455
 3360TIP3    H231716   2.440   2.543   1.307  0.6347 -0.2663 -0.1592
 3361TIP3   OH231717   2.068   5.181   7.337 -0.3324 -0.1088  0.5852
 3361TIP3    H131718   2.065   5.127   7.258 -2.6061 -0.4652  0.8171
 3361TIP3    H231719   2.021   5.261   7.314  2.2348  1.4897  0.5168
 3362TIP3   OH231720   0.990   3.837   0.263  0.5760  0.5822  0.1377
 3362TIP3    H131721   1.079   3.815   0.236  0.4508  0.8675 -0.5140
 3362TIP3    H231722   0.977   3.789   0.345  1.3702  0.6330  0.2959
 3363TIP3   OH231723   6.571   4.882   0.006  0.1585 -0.3246 -0.3143
 3363TIP3    H131724   6.647   4.939   0.015  1.1927 -1.4546 -1.5088
 3363TIP3    H231725   6.525   4.890   0.089  0.1179  2.4177 -0.5226
 3364TIP3   OH231726   2.651   3.298   0.560  0.0840 -0.5611 -0.1964
 3364TIP3    H131727   2.708   3.276   0.486  1.0192  0.4744  0.1844
 3364TIP3    H231728   2.669   3.391   0.577 -1.6454 -0.2272  0.0146
 3365TIP3   OH231729   4.727   1.173   2.700  0.1690 -0.1083  0.5087
 3365TIP3    H131730   4.732   1.078   2.709  0.2892 -0.2515 -0.7677
 3365TIP3    H231731   4.797   1.207   2.755 -0.9164 -0.6352  2.2974
 3366TIP3   OH231732   5.454   0.413   0.178 -0.4299 -0.3105 -0.1598
 3366TIP3    H131733   5.372   0.429   0.131  0.0995 -0.2761 -1.1050
 3366TIP3    H231734   5.506   0.360   0.117  0.3880 -0.0358  0.2867
 3367TIP3   OH231735   4.150   0.057   1.842  0.4603  0.5463 -0.1755
 3367TIP3    H131736   4.217  -0.011   1.856 -0.5076 -0.4082 -0.0354
 3367TIP3    H231737   4.174   0.097   1.758  0.4933 -0.6529 -0.7612
 3368TIP3   OH231738   6.793   2.352   2.351  0.5114  0.3469 -0.2741
 3368TIP3    H131739   6.757   2.325   2.267  0.3265 -1.4702  0.3413
 3368TIP3    H231740   6.716   2.365   2.407  0.6897 -0.4017  0.1535
 3369TIP3   OH231741   5.890   5.073   1.556  0.2665  0.4666  0.2164
 3369TIP3    H131742   5.916   5.155   1.598  1.6153  0.0235  0.2874
 3369TIP3    H231743   5.854   5.099   1.471  2.0094  1.0513 -0.3676
 3370TIP3   OH231744   5.796   3.355   7.996 -0.1304  0.3752 -0.0341
 3370TIP3    H131745   5.864   3.383   8.056  0.5687 -1.5622  0.1524
 3370TIP3    H231746   5.841   3.338   7.913 -0.1547 -1.7529  0.3264
 3371TIP3   OH231747   2.207   4.077   7.209 -0.4788  0.2028  0.4353
 3371TIP3    H131748   2.147   4.151   7.203 -1.0205 -0.0496  2.2678
 3371TIP3    H231749   2.238   4.077   7.299 -0.0881 -1.4998  0.3495
 3372TIP3   OH231750   0.946   2.358   0.729 -0.4827  0.3650 -0.9629
 3372TIP3    H131751   1.010   2.374   0.660  0.7227  1.1534  0.2781
 3372TIP3    H231752   0.978   2.278   0.772 -0.1809  0.8804 -0.2065
 3373TIP3   OH231753   0.032   4.329   0.616 -0.0050  0.1028 -0.2446
 3373TIP3    H131754   0.058   4.344   0.707  0.3465  2.1293 -0.6346
 3373TIP3    H231755   0.063   4.407   0.569 -1.2938 -0.3079 -1.8618
 3374TIP3   OH231756   0.371   4.204   2.420  0.4550 -0.2336 -0.1881
 3374TIP3    H131757   0.344   4.228   2.509 -0.4247 -2.1689  0.1210
 3374TIP3    H231758   0.454   4.158   2.432 -0.9613 -2.9303  0.0376
 3375TIP3   OH231759   2.329   0.923   8.351  0.4980 -0.1316 -0.0356
 3375TIP3    H131760   2.375   1.000   8.386 -0.2540  0.6278 -0.6608
 3375TIP3    H231761   2.242   0.928   8.390  0.7341 -1.2214  0.6648
 3376TIP3   OH231762   6.645   5.647   0.773 -0.2406 -0.2835 -0.3514
 3376TIP3    H131763   6.647   5.648   0.868 -0.8086 -0.8467 -0.3232
 3376TIP3    H231764   6.591   5.722   0.749  0.7593  0.4757 -0.2748
 3377TIP3   OH231765   4.928   2.012   7.823 -0.3204 -0.2605 -0.3801
 3377TIP3    H131766   4.856   2.068   7.852 -1.0217 -1.0403 -0.5801
 3377TIP3    H231767   4.992   2.017   7.894 -1.8122 -1.8049  1.1763
 3378TIP3   OH231768   6.807   6.379   0.635  0.5176 -0.3151 -0.0651
 3378TIP3    H131769   6.771   6.356   0.549  0.6037 -2.1756  0.3547
 3378TIP3    H231770   6.740   6.434   0.676  0.5095  0.6647 -1.3259
 3379TIP3   OH231771   5.316   1.558   1.193  0.2467 -0.0340 -0.0390
 3379TIP3    H131772   5.347   1.506   1.118 -0.5820 -2.8914  1.4550
 3379TIP3    H231773   5.277   1.494   1.252 -0.0512  2.2365  2.4136
 3380TIP3   OH231774   5.960   4.325   0.509  0.4636  0.3609 -0.5179
 3380TIP3    H131775   5.947   4.254   0.447 -1.1103  0.7988 -0.7288
 3380TIP3    H231776   5.926   4.291   0.592  0.3221  0.6199 -0.4674
 3381TIP3   OH231777   5.927   2.839   8.074  0.1990  0.3863 -0.1091
 3381TIP3    H131778   5.959   2.761   8.029 -2.2973 -1.7155  1.4850
 3381TIP3    H231779   5.926   2.815   8.166 -2.7230  1.3839  0.2467
 3382TIP3   OH231780   1.569   2.523   1.383  0.4090  0.0522  0.4040
 3382TIP3    H131781   1.608   2.532   1.470  1.5706 -1.5668  0.1057
 3382TIP3    H231782   1.602   2.439   1.351 -0.5595  0.2861 -1.3226
 3383TIP3   OH231783   6.783   2.189   7.266  0.4506  0.3145 -0.5294
 3383TIP3    H131784   6.854   2.253   7.257  0.2572  0.4706 -0.9674
 3383TIP3    H231785   6.729   2.224   7.337  0.5234  0.4640 -0.5463
 3384TIP3   OH231786   5.468   3.488   8.596  0.0808 -0.0815  0.2730
 3384TIP3    H131787   5.439   3.506   8.506 -0.9334 -1.7257  0.2331
 3384TIP3    H231788   5.389   3.461   8.642  0.3675  1.8074  2.0229
 3385TIP3   OH231789   6.786   1.476   8.619 -0.9914 -0.0897  0.2206
 3385TIP3    H131790   6.795   1.457   8.713 -0.4292 -0.1636  0.1514
 3385TIP3    H231791   6.710   1.424   8.592  0.0096 -1.6179  0.2136
 3386TIP3   OH231792   3.414   4.765   7.749  0.1792  0.4120  0.4016
 3386TIP3    H131793   3.443   4.677   7.771 -0.3874  0.2061  0.3359
 3386TIP3    H231794   3.319   4.764   7.764 -0.7788 -0.4831 -4.2635
 3387TIP3   OH231795   0.636   5.998   8.760 -0.0683 -0.1808 -0.2654
 3387TIP3    H131796   0.587   5.972   8.682 -1.6177 -3.0488  1.4748
 3387TIP3    H231797   0.575   6.052   8.810 -0.3618 -1.1434  0.4497
 3388TIP3   OH231798   5.061   2.722   1.632  0.3512  0.6244  0.4206
 3388TIP3    H131799   4.972   2.737   1.665 -0.0233  1.0252 -0.7073
 3388TIP3    H231800   5.071   2.787   1.562  1.2443  0.0626  0.0156
 3389TIP3   OH231801   0.329   1.550   8.593 -0.6195  0.1256  0.1120
 3389TIP3    H131802   0.414   1.591   8.576 -0.4302 -1.0533 -2.0337
 3389TIP3    H231803   0.266   1.607   8.550 -0.5654 -0.6596 -1.0457
 3390TIP3   OH231804   2.293   0.829   7.063 -0.3301 -0.6157  0.2549
 3390TIP3    H131805   2.202   0.802   7.067  0.3557 -3.0890  1.2946
 3390TIP3    H231806   2.320   0.836   7.155  0.6209 -0.3123 -0.0326
 3391TIP3   OH231807   2.797   2.762   1.380  0.1932 -0.4579 -0.2317
 3391TIP3    H131808   2.753   2.677   1.385  0.7598 -0.7560 -0.2964
 3391TIP3    H231809   2.740   2.820   1.431 -1.7426 -0.1724 -2.5367
 3392TIP3   OH231810   0.081   4.005   2.606 -0.0888 -0.4013 -0.1772
 3392TIP3    H131811   0.108   3.945   2.675  2.8972 -2.2771 -2.7165
 3392TIP3    H231812   0.122   4.088   2.628  2.7179 -1.5449 -0.6292
 3393TIP3   OH231813   3.793   6.126   7.926  0.0074 -0.5090 -0.6076
 3393TIP3    H131814   3.739   6.049   7.906  0.1352 -0.6455 -0.4362
 3393TIP3    H231815   3.855   6.094   7.992  0.5831 -0.4638 -1.1299
 3394TIP3   OH231816   1.651   6.650   7.626 -0.3469 -0.2363  0.1150
 3394TIP3    H131817   1.558   6.635   7.641 -0.2261 -0.8541  0.2436
 3394TIP3    H231818   1.653   6.722   7.563 -0.8791  1.2925  1.7683
 3395TIP3   OH231819   2.625   2.723   0.122 -0.1972  0.1844 -0.3730
 3395TIP3    H131820   2.599   2.631   0.124 -0.6855  0.3250 -0.0740
 3395TIP3    H231821   2.656   2.742   0.210  1.0189 -0.0001 -0.7472
 3396TIP3   OH231822   0.836   0.584   1.246  0.5579 -0.2443 -0.1396
 3396TIP3    H131823   0.853   0.674   1.217 -0.9115 -0.6660 -2.6385
 3396TIP3    H231824   0.792   0.593   1.330 -2.4344  1.6356 -1.7412
 3397TIP3   OH231825   4.159   3.667   0.596 -0.0118  0.2148  0.3463
 3397TIP3    H131826   4.156   3.763   0.597 -1.5588  0.1760  1.4774
 3397TIP3    H231827   4.067   3.640   0.599  0.4465 -1.3093  1.6557
 3398TIP3   OH231828   6.541   5.467   0.422  0.6251 -0.4412  0.1656
 3398TIP3    H131829   6.504   5.397   0.369 -0.0832  0.1865 -0.1892
 3398TIP3    H231830   6.536   5.435   0.512  1.6427 -1.4287 -0.1119
 3399TIP3   OH231831   4.515   6.358   0.969  0.5310 -0.4146  0.0311
 3399TIP3    H131832   4.585   6.395   0.915  0.3260 -0.8655 -0.5505
 3399TIP3    H231833   4.558   6.288   1.018  0.3554 -1.1800 -0.8640
 3400TIP3   OH231834   2.179   3.990   0.217 -0.1312  0.3784 -1.3226
 3400TIP3    H131835   2.134   3.922   0.168 -0.4962  1.4256 -2.5129
 3400TIP3    H231836   2.243   4.026   0.155  0.7292  0.4721 -0.4060
 3401TIP3   OH231837   2.370   0.260   0.568 -0.0048  0.0819 -0.5472
 3401TIP3    H131838   2.293   0.316   0.562  0.1604  0.2689 -1.0087
 3401TIP3    H231839   2.442   0.321   0.585  0.0112 -0.1160  0.1210
 3402TIP3   OH231840   4.475   1.632   0.620 -0.4075 -0.4770 -0.3113
 3402TIP3    H131841   4.395   1.580   0.610 -0.9424  0.5593 -1.7281
 3402TIP3    H231842   4.455   1.715   0.577  1.5106 -0.2693 -0.9014
 3403TIP3   OH231843   2.730   2.289   1.833 -0.1498 -0.1761  0.0712
 3403TIP3    H131844   2.723   2.194   1.830 -2.1376 -0.0762  0.1793
 3403TIP3    H231845   2.692   2.318   1.750  1.7152  0.5040 -0.5924
 3404TIP3   OH231846   2.953   4.111   1.117 -0.6498  0.2526  0.3198
 3404TIP3    H131847   2.939   4.023   1.082 -1.0957 -0.4593  2.1755
 3404TIP3    H231848   2.886   4.165   1.074 -0.5249 -0.3433 -0.6561
 3405TIP3   OH231849   4.759   1.804   1.319 -0.2048  0.7556 -0.1358
 3405TIP3    H131850   4.853   1.805   1.336 -0.0776 -0.4599 -0.6796
 3405TIP3    H231851   4.748   1.740   1.248 -1.4848  0.5283  0.2421
 3406TIP3   OH231852   3.455   4.924   8.003 -0.1737 -0.2809  0.1708
 3406TIP3    H131853   3.445   5.016   7.976 -0.1907 -0.3267  0.0204
 3406TIP3    H231854   3.467   4.876   7.921  1.2739 -0.2364  0.3325
 3407TIP3   OH231855   5.395   5.770   0.636 -0.1484  0.2964 -0.5783
 3407TIP3    H131856   5.430   5.810   0.556 -0.7716 -0.1737 -1.0944
 3407TIP3    H231857   5.312   5.733   0.609 -0.8041  0.9298  0.5042
 3408TIP3   OH231858   0.986   0.602   1.521 -0.1965  0.0793 -0.1975
 3408TIP3    H131859   0.945   0.659   1.586 -0.5192 -0.7014  0.3020
 3408TIP3    H231860   0.985   0.653   1.440 -0.2500  0.8726  0.2861
 3409TIP3   OH231861   4.951   0.750   2.947  0.2690  0.1094 -0.0018
 3409TIP3    H131862   4.873   0.777   2.898  1.0795  1.9799 -0.3377
 3409TIP3    H231863   5.003   0.830   2.956  2.0705 -1.0380  0.3782
 3410TIP3   OH231864   3.572   2.260   7.884  0.3589  0.6014 -0.1775
 3410TIP3    H131865   3.643   2.198   7.868 -1.0447 -0.7874 -1.4223
 3410TIP3    H231866   3.506   2.209   7.932 -0.5787  1.2768 -0.7109
 3411TIP3   OH231867   3.767   2.782   6.768 -0.4054 -0.0475  0.3533
 3411TIP3    H131868   3.700   2.727   6.726  2.0617 -2.1170 -1.1529
 3411TIP3    H231869   3.808   2.725   6.833  1.9602  0.0346 -0.9579
 3412TIP3   OH231870   0.010   4.001   0.152  0.2456  0.0832 -0.1878
 3412TIP3    H131871  -0.000   3.947   0.074  1.4111  0.5681 -0.7025
 3412TIP3    H231872   0.042   4.085   0.120  4.2174 -0.7429  0.9582
 3413TIP3   OH231873   6.361   2.317   8.203 -0.2831  0.3852 -0.4675
 3413TIP3    H131874   6.337   2.230   8.171  1.3039 -0.0026 -0.6528
 3413TIP3    H231875   6.278   2.365   8.205 -1.6732 -1.8429  2.0739
 3414TIP3   OH231876   2.864   5.741   8.744  0.4133  0.0726 -0.2849
 3414TIP3    H131877   2.849   5.678   8.674 -0.1668 -0.3378  0.1944
 3414TIP3    H231878   2.907   5.815   8.702 -0.0147 -0.1309 -1.0892
 3415TIP3   OH231879   3.208   5.439   0.599  0.2763  0.5051  0.7788
 3415TIP3    H131880   3.218   5.379   0.525 -0.3347 -2.0216  2.6046
 3415TIP3    H231881   3.282   5.499   0.591  1.2005 -0.7414 -0.9236
 3416TIP3   OH231882   0.219   2.008   2.183  0.4249 -0.2879 -0.0950
 3416TIP3    H131883   0.132   2.037   2.209  0.0712  0.4194 -1.9009
 3416TIP3    H231884   0.219   1.913   2.199 -0.7545 -0.3204 -0.2496
 3417TIP3   OH231885   6.774   4.012   1.357 -0.2295  0.8112 -0.2882
 3417TIP3    H131886   6.800   3.984   1.269  0.2088 -1.3722  0.4592
 3417TIP3    H231887   6.764   3.930   1.406 -0.6775  1.9518  1.6402
 3418TIP3   OH231888   0.562   3.203   0.290 -0.6957  0.0415  0.1174
 3418TIP3    H131889   0.479   3.158   0.279 -0.5506  0.2772 -2.5617
 3418TIP3    H231890   0.542   3.295   0.277 -0.1614  0.1993  0.3816
 3419TIP3   OH231891   1.873   2.233   7.187  0.3060  0.1845  0.6087
 3419TIP3    H131892   1.791   2.279   7.199 -0.3688 -0.6990 -0.4180
 3419TIP3    H231893   1.938   2.286   7.234 -1.2389 -0.4804  3.8135
 3420TIP3   OH231894   4.125   2.988   7.168 -0.2058 -0.4822 -0.1607
 3420TIP3    H131895   4.192   2.972   7.235  1.0108  0.4754 -1.0924
 3420TIP3    H231896   4.051   2.933   7.194 -0.0144  0.2824  2.2989
 3421TIP3   OH231897   2.816   5.625   0.368 -0.0152 -0.4140 -0.0193
 3421TIP3    H131898   2.879   5.553   0.360  0.0483 -0.3607  0.0036
 3421TIP3    H231899   2.800   5.652   0.278  0.0122 -0.4124 -0.0237
 3422TIP3   OH231900   5.008   5.792   6.686  0.8505  0.0355  0.7088
 3422TIP3    H131901   5.092   5.761   6.653 -0.3337 -1.7402 -0.8082
 3422TIP3    H231902   5.026   5.820   6.776  3.0706 -0.1354  0.3551
 3423TIP3   OH231903   4.002   6.271   7.306 -0.0193  0.1544 -0.7633
 3423TIP3    H131904   3.995   6.248   7.214  0.6562 -0.1655 -0.7446
 3423TIP3    H231905   4.018   6.365   7.307 -0.6673  0.2666 -0.9423
 3424TIP3   OH231906   2.022   6.058   0.754  0.0275 -0.2177  0.4870
 3424TIP3    H131907   2.099   6.098   0.795  0.7900  0.5585 -1.5574
 3424TIP3    H231908   2.045   5.965   0.745  0.2506 -0.2035  0.8997
 3425TIP3   OH231909   0.350   4.987   0.531 -0.0148  0.2048 -0.2744
 3425TIP3    H131910   0.429   4.979   0.478 -0.7423 -0.0926 -1.3444
 3425TIP3    H231911   0.335   4.899   0.565 -0.5847 -0.0212 -1.1051
 3426TIP3   OH231912   1.605   6.737   8.747 -0.2888  0.2821  0.3121
 3426TIP3    H131913   1.586   6.767   8.658 -0.3495  1.6985  0.7655
 3426TIP3    H231914   1.525   6.693   8.776 -0.9456  1.4241  0.2880
 3427TIP3   OH231915   0.167   4.272   2.637 -0.1909 -0.1989 -0.2310
 3427TIP3    H131916   0.187   4.333   2.707 -0.1728  1.3151 -1.4908
 3427TIP3    H231917   0.084   4.303   2.600 -0.1855 -0.9314 -0.8963
 3428TIP3   OH231918   0.457   3.714   0.007 -0.1140  0.0775  0.0367
 3428TIP3    H131919   0.455   3.648  -0.062  0.2474 -1.3756  1.3699
 3428TIP3    H231920   0.365   3.738   0.020 -0.3070 -0.5926 -0.0641
 3429TIP3   OH231921   4.152   2.668   7.517 -0.6381  0.0372 -0.3878
 3429TIP3    H131922   4.173   2.698   7.429 -2.2193  0.2680 -0.7095
 3429TIP3    H231923   4.210   2.593   7.531  0.5353  0.7697 -1.1068
 3430TIP3   OH231924   1.372   3.721   0.485  0.0641  0.0558 -0.1487
 3430TIP3    H131925   1.339   3.811   0.488 -1.4622 -0.4619  2.8571
 3430TIP3    H231926   1.467   3.729   0.485  0.1452  1.8758  4.2535
 3431TIP3   OH231927   3.433   4.351   8.380  0.2783  0.6720 -0.2652
 3431TIP3    H131928   3.473   4.323   8.297 -0.2944  1.3727 -0.7889
 3431TIP3    H231929   3.507   4.382   8.432  0.6827 -0.0599 -0.3959
 3432TIP3   OH231930   1.418   4.373   6.485  0.0340 -0.1674 -0.0970
 3432TIP3    H131931   1.402   4.394   6.393  0.6117  0.8646  0.0189
 3432TIP3    H231932   1.510   4.347   6.487 -0.1106 -0.6585  0.1092
 3433TIP3   OH231933   2.279   1.513   1.409  0.0208  0.2296 -0.3692
 3433TIP3    H131934   2.334   1.518   1.330 -0.9792 -3.3257 -1.4756
 3433TIP3    H231935   2.190   1.506   1.376 -0.7285  1.6099  1.2510
 3434TIP3   OH231936   5.425   4.655   8.073  1.1820 -0.2258  0.3017
 3434TIP3    H131937   5.482   4.731   8.088  0.8858 -0.0767  0.6980
 3434TIP3    H231938   5.367   4.682   8.002  1.7723 -0.4749 -0.2860
 3435TIP3   OH231939   6.630   5.978   0.189 -0.2291 -0.1813  0.5830
 3435TIP3    H131940   6.630   5.937   0.102  2.3343  2.5261 -0.8967
 3435TIP3    H231941   6.720   5.966   0.221 -0.3454  1.2989  1.5580
 3436TIP3   OH231942   4.047   2.726   1.746  0.5633  1.0056  0.1218
 3436TIP3    H131943   4.126   2.710   1.797 -1.3088  0.5621  3.1100
 3436TIP3    H231944   3.975   2.713   1.808 -1.9704 -0.1608 -2.8026
 3437TIP3   OH231945   0.183   2.951   1.105 -0.2872 -0.7709  0.2894
 3437TIP3    H131946   0.267   2.906   1.100 -0.8477 -2.0487  1.6616
 3437TIP3    H231947   0.131   2.914   1.033 -0.3739 -1.5268  0.7360
 3438TIP3   OH231948   0.176   4.854   1.943  0.2232 -0.2033  0.4420
 3438TIP3    H131949   0.144   4.841   1.854  0.2992 -0.0468  0.3917
 3438TIP3    H231950   0.107   4.902   1.988  0.9131  1.2625 -0.0225
 3439TIP3   OH231951   3.001   6.471   7.520  0.3008  0.3330 -0.0282
 3439TIP3    H131952   2.989   6.383   7.484 -1.0466  0.3811  0.2415
 3439TIP3    H231953   2.915   6.512   7.511  0.9224  1.6353 -0.1571
 3440TIP3   OH231954   2.188   6.463   8.480  0.4900  0.3792  0.1698
 3440TIP3    H131955   2.269   6.512   8.464  1.7947 -1.2439  1.4260
 3440TIP3    H231956   2.203   6.378   8.438  0.8123 -1.1020  3.0174
 3441TIP3   OH231957   1.732   1.815   1.515 -0.2531  0.3441  0.2944
 3441TIP3    H131958   1.737   1.905   1.480  0.1425 -0.1213 -0.9033
 3441TIP3    H231959   1.674   1.822   1.590 -2.2931  1.1907 -1.2434
 3442TIP3   OH231960   4.568   4.213   7.206 -0.1184 -0.0733 -0.0343
 3442TIP3    H131961   4.600   4.230   7.295  1.8381 -1.7339 -0.3686
 3442TIP3    H231962   4.597   4.288   7.155 -0.2560  0.3365  0.4798
 3443TIP3   OH231963   6.650   2.338   2.608  0.6626  0.0859  0.3629
 3443TIP3    H131964   6.612   2.425   2.616  0.3436 -0.0113 -0.0819
 3443TIP3    H231965   6.678   2.316   2.697 -1.2004 -0.2389  0.9149
 3444TIP3   OH231966   3.298   4.634   1.150  0.0442 -0.1894  0.0270
 3444TIP3    H131967   3.387   4.661   1.173  0.0036  0.2606 -0.3239
 3444TIP3    H231968   3.283   4.673   1.063 -1.2478  1.4742  0.9451
 3445TIP3   OH231969   4.534   1.585   1.570  0.0568 -0.3874 -0.0450
 3445TIP3    H131970   4.500   1.496   1.579 -0.2063 -0.3714 -0.8576
 3445TIP3    H231971   4.567   1.590   1.480  1.7410 -0.2306  0.5282
 3446TIP3   OH231972   4.285   3.267   0.516  0.4291  0.5752  0.5983
 3446TIP3    H131973   4.241   3.193   0.474  1.8033 -0.8712  1.5622
 3446TIP3    H231974   4.218   3.307   0.571 -0.2778 -0.1443  0.2712
 3447TIP3   OH231975   1.996   5.470   0.870 -0.1138 -0.6445  0.1862
 3447TIP3    H131976   1.990   5.538   0.803 -0.4672 -0.0688  0.7828
 3447TIP3    H231977   1.964   5.513   0.950  1.8738 -0.7998  1.1210
 3448TIP3   OH231978   3.032   0.256   7.843  0.3544  0.3348 -0.4228
 3448TIP3    H131979   3.075   0.244   7.758  1.2519 -2.0405  0.2895
 3448TIP3    H231980   2.962   0.191   7.843 -0.0069  0.7186  0.4262
 3449TIP3   OH231981   6.570   5.024   7.567 -0.5496 -0.7994  0.0649
 3449TIP3    H131982   6.498   5.084   7.584  0.1976  0.2554 -0.4466
 3449TIP3    H231983   6.563   5.002   7.474 -0.5800 -1.1946  0.1571
 3450TIP3   OH231984   5.448   0.205   7.658 -0.1329  0.2294  0.1264
 3450TIP3    H131985   5.406   0.289   7.642 -0.6503 -0.0294  0.1192
 3450TIP3    H231986   5.516   0.224   7.723 -0.5680  0.5620  0.4885
 3451TIP3   OH231987   0.432   5.022   8.023 -0.2095 -0.2520  0.5750
 3451TIP3    H131988   0.435   4.967   7.945 -2.2823 -1.4986  1.3028
 3451TIP3    H231989   0.524   5.039   8.043  0.4534 -2.0126 -0.6813
 3452TIP3   OH231990   3.165   5.069   1.064 -0.2192 -0.6319  0.1676
 3452TIP3    H131991   3.202   5.143   1.113  0.3910 -1.0256  0.3188
 3452TIP3    H231992   3.234   5.002   1.067 -0.3544 -0.8272 -0.8557
 3453TIP3   OH231993   3.690   2.283   8.408  0.3345  0.5855  0.0610
 3453TIP3    H131994   3.686   2.376   8.389  1.8346  0.6266 -0.1759
 3453TIP3    H231995   3.600   2.259   8.430 -1.0666  1.1404 -4.1523
 3454TIP3   OH231996   3.971   3.392   0.300 -0.3437  0.2585  0.1786
 3454TIP3    H131997   4.003   3.474   0.338  1.1117  0.7453 -1.8890
 3454TIP3    H231998   3.889   3.375   0.345 -0.8999  3.0981  0.4172
 3455TIP3   OH231999   6.677   3.721   0.708 -0.1703  0.9609  0.7432
 3455TIP3    H132000   6.614   3.756   0.645 -0.3959 -4.6855 -2.7881
 3455TIP3    H232001   6.762   3.737   0.668 -0.1827 -0.8642 -0.0760
 3456TIP3   OH232002   4.721   0.862   2.800  0.1651 -0.1408  0.0274
 3456TIP3    H132003   4.717   0.801   2.726  1.0864 -0.5783  0.3285
 3456TIP3    H232004   4.632   0.863   2.834 -0.2116 -0.1433 -0.9166
 3457TIP3   OH232005   3.776   3.352   0.533  0.7869  0.1573  0.0299
 3457TIP3    H132006   3.804   3.422   0.593  2.4561  0.9837 -1.5986
 3457TIP3    H232007   3.793   3.272   0.582 -0.3980  0.8077  1.6359
 3458TIP3   OH232008   5.997   1.906   2.762  0.6653  0.3425 -0.4502
 3458TIP3    H132009   6.003   2.000   2.745  0.8713  0.2821 -0.7133
 3458TIP3    H232010   5.944   1.900   2.842 -0.3488  0.6190 -1.0891
 3459TIP3   OH232011   5.784   3.398   0.893 -0.2847 -0.8124 -0.0008
 3459TIP3    H132012   5.872   3.428   0.919 -1.6965  1.5808  2.5191
 3459TIP3    H232013   5.759   3.456   0.821  0.0380 -1.2368 -0.4581
 3460TIP3   OH232014   1.909   3.912   0.838 -0.1419  0.3295 -0.0508
 3460TIP3    H132015   1.933   3.927   0.930  0.1459 -0.7295  0.0623
 3460TIP3    H232016   1.949   3.985   0.791 -1.2579  1.5317  0.7810
 3461TIP3   OH232017   2.674   2.315   0.979 -0.5112 -0.4555  0.4063
 3461TIP3    H132018   2.688   2.399   1.021  1.9075 -0.0018 -1.1088
 3461TIP3    H232019   2.741   2.258   1.018  1.4026 -0.1724 -2.2534
 3462TIP3   OH232020   0.325   1.217   0.842 -0.0693  0.1337 -0.3722
 3462TIP3    H132021   0.365   1.172   0.768  0.8920  0.3677 -0.0013
 3462TIP3    H232022   0.324   1.309   0.816  0.9676  0.3192  0.2035
 3463TIP3   OH232023   1.321   2.193   8.214 -0.3803  0.2398 -0.2272
 3463TIP3    H132024   1.349   2.105   8.241 -1.5334  0.5350  2.2764
 3463TIP3    H232025   1.338   2.247   8.291 -0.9696  1.9395 -1.2463
 3464TIP3   OH232026   3.778   5.114   1.589  0.3503  0.3562 -0.2762
 3464TIP3    H132027   3.817   5.118   1.676  1.4899 -0.2078 -0.7460
 3464TIP3    H232028   3.784   5.204   1.556  0.4348  0.4498 -0.0068
 3465TIP3   OH232029   0.471   3.145   2.010  0.4531  0.4998  0.1207
 3465TIP3    H132030   0.421   3.130   2.091 -0.2225 -0.4355 -0.4514
 3465TIP3    H232031   0.504   3.059   1.987  0.6611  0.7690 -0.5904
 3466TIP3   OH232032   4.650   6.190   1.170 -0.0161 -0.4859 -0.2457
 3466TIP3    H132033   4.607   6.157   1.249 -0.6635 -0.4040 -0.5578
 3466TIP3    H232034   4.625   6.128   1.102 -0.4776  0.1349 -0.6429
 3467TIP3   OH232035   1.488   5.197   1.465  0.0887 -0.0591  0.1639
 3467TIP3    H132036   1.548   5.197   1.392 -1.2448 -0.6779 -0.9862
 3467TIP3    H232037   1.402   5.177   1.426 -0.4064 -2.0539  2.0658
 3468TIP3   OH232038   0.101   1.444   1.411  0.2656  0.0903 -0.2741
 3468TIP3    H132039   0.023   1.402   1.446 -0.5162  1.7632  0.1022
 3468TIP3    H232040   0.070   1.494   1.336  1.1329  0.1172 -0.6279
 3469TIP3   OH232041   3.281   1.980   0.351 -0.8922 -0.0003  1.0372
 3469TIP3    H132042   3.341   2.054   0.350 -2.2488  1.1526  1.3854
 3469TIP3    H232043   3.261   1.967   0.444 -2.7272  0.9906  0.8318
 3470TIP3   OH232044   3.110   2.618   0.587 -0.3415  0.1338 -0.1877
 3470TIP3    H132045   3.095   2.524   0.592  0.8520 -0.0085  1.6380
 3470TIP3    H232046   3.065   2.654   0.663 -1.5515  1.1900 -1.3520
 3471TIP3   OH232047   5.358   5.395   0.821  0.7833  0.1241 -0.2167
 3471TIP3    H132048   5.280   5.435   0.785  0.9736 -0.2904 -1.1002
 3471TIP3    H232049   5.358   5.421   0.913 -0.3616  0.1574 -0.2221
 3472TIP3   OH232050   2.447   1.875   8.304 -0.1305  0.2217 -0.2611
 3472TIP3    H132051   2.367   1.877   8.357  0.6726 -0.2945  1.0302
 3472TIP3    H232052   2.463   1.782   8.287  1.8497 -0.0106  2.2225
 3473TIP3   OH232053   3.629   1.446   0.751 -0.1410 -0.3576  0.0042
 3473TIP3    H132054   3.615   1.541   0.748  1.3139 -0.0684  1.1408
 3473TIP3    H232055   3.542   1.409   0.737 -1.2279  1.1817  2.0634
 3474TIP3   OH232056   5.412   3.997   0.765  0.3070 -0.6081 -0.4948
 3474TIP3    H132057   5.428   4.090   0.747 -0.4589 -0.0518  1.4759
 3474TIP3    H232058   5.493   3.953   0.739  1.5363  0.9147  0.5772
 3475TIP3   OH232059   1.851   6.076   8.230  0.1665  0.5846  0.3932
 3475TIP3    H132060   1.914   6.014   8.265  0.3331  0.3859 -0.2350
 3475TIP3    H232061   1.766   6.036   8.249  0.2835 -0.1763 -0.5727
 3476TIP3   OH232062   5.494   4.604   1.207  0.2343  0.3895  0.3281
 3476TIP3    H132063   5.584   4.638   1.213  1.5167 -2.6289  0.2097
 3476TIP3    H232064   5.490   4.537   1.274 -1.4751 -0.5024 -0.6192
 3477TIP3   OH232065   1.781   6.470   2.033  0.3268  0.3530 -0.2146
 3477TIP3    H132066   1.865   6.453   1.989  0.8898  0.1140  0.9029
 3477TIP3    H232067   1.718   6.416   1.986  0.9607 -0.1077 -0.5490
 3478TIP3   OH232068   3.017   3.006   1.891  0.2304  0.3377 -0.2662
 3478TIP3    H132069   3.021   2.910   1.888  2.0524  0.2753  1.6006
 3478TIP3    H232070   3.060   3.034   1.810  1.6837 -0.4805  0.1862
 3479TIP3   OH232071   2.286   4.898   0.294  0.5348 -0.5097  0.6018
 3479TIP3    H132072   2.268   4.887   0.387 -0.5239  0.8408  0.5853
 3479TIP3    H232073   2.374   4.862   0.283  1.6836  1.3675  2.5999
 3480TIP3   OH232074   3.860   6.056   2.357  0.2360 -0.2274 -0.0028
 3480TIP3    H132075   3.871   5.963   2.375  1.3033 -0.0153  0.5171
 3480TIP3    H232076   3.801   6.059   2.282 -2.3079 -1.2379  1.7846
 3481TIP3   OH232077   5.222   5.452   1.704  0.2338 -0.3644  0.1626
 3481TIP3    H132078   5.278   5.379   1.680 -1.3096 -1.4751 -0.2457
 3481TIP3    H232079   5.281   5.517   1.742  2.3365 -0.0002 -3.2615
 3482TIP3   OH232080   2.145   4.366   8.244 -0.2691  0.8307 -0.1884
 3482TIP3    H132081   2.089   4.295   8.277  1.3332  0.3651  1.6963
 3482TIP3    H232082   2.174   4.335   8.159 -1.0203  0.0396 -0.1818
 3483TIP3   OH232083   5.311   1.599   0.572 -0.1198 -0.0325  0.2886
 3483TIP3    H132084   5.404   1.600   0.593 -0.1588 -1.2452  0.5969
 3483TIP3    H232085   5.268   1.628   0.653  0.0153  2.0371 -0.3070
 3484TIP3   OH232086   0.189   1.693   0.310 -0.2102  0.1828 -0.1980
 3484TIP3    H132087   0.180   1.751   0.234 -0.2769 -0.4812 -0.7011
 3484TIP3    H232088   0.151   1.743   0.382 -1.9124  0.0767 -0.9701
 3485TIP3   OH232089   0.860   4.365   8.683 -0.3459 -0.2576  0.2431
 3485TIP3    H132090   0.836   4.392   8.595 -0.0304 -0.1479  0.1902
 3485TIP3    H232091   0.778   4.337   8.723 -0.3426 -1.2454 -0.4089
 3486TIP3   OH232092   0.117   5.533   2.926  0.1735  0.7208  0.6209
 3486TIP3    H132093   0.068   5.542   3.008  0.4266  1.1149  0.7357
 3486TIP3    H232094   0.197   5.486   2.951 -0.6114 -0.8882  0.2368
 3487TIP3   OH232095   5.353   2.502   0.361  0.1418 -0.1518  0.1932
 3487TIP3    H132096   5.349   2.580   0.416  0.9828  0.1232 -0.1291
 3487TIP3    H232097   5.446   2.486   0.347 -0.0111  0.4442 -2.0514
 3488TIP3   OH232098   6.590   1.872   0.006 -0.0331  0.2951  0.0224
 3488TIP3    H132099   6.643   1.837   0.077  1.0395 -1.0309 -1.3655
 3488TIP3    H232100   6.638   1.949  -0.024  0.1506  0.1576 -0.0385
 3489TIP3   OH232101   3.615   1.222   7.847 -0.7012 -0.8309 -0.5130
 3489TIP3    H132102   3.581   1.296   7.796  0.5426  0.7162  0.7611
 3489TIP3    H232103   3.671   1.174   7.786  0.3716  0.6894 -0.7874
 3490TIP3   OH232104   6.138   0.362   2.101  0.4353  0.3373  0.3060
 3490TIP3    H132105   6.148   0.401   2.015 -0.1118 -0.7135 -0.2515
 3490TIP3    H232106   6.227   0.334   2.125  0.2462 -1.5076 -0.9832
 3491TIP3   OH232107   4.231   0.197   7.748 -0.2880 -0.0295 -0.1006
 3491TIP3    H132108   4.308   0.147   7.719 -0.3000 -0.2849  0.3028
 3491TIP3    H232109   4.220   0.264   7.681 -0.5765 -0.8742 -0.9259
 3492TIP3   OH232110   4.520   5.515   0.690  0.0524  0.2216 -0.6568
 3492TIP3    H132111   4.591   5.576   0.711 -0.6561  0.3967  1.4683
 3492TIP3    H232112   4.545   5.433   0.733 -0.7486  0.1230 -0.3573
 3493TIP3   OH232113   5.979   1.746   0.050 -0.3254  0.3301 -0.4947
 3493TIP3    H132114   6.026   1.688   0.110 -1.8370 -1.5793 -1.0760
 3493TIP3    H232115   5.994   1.708  -0.037 -1.8700  0.4393 -0.8281
 3494TIP3   OH232116   4.794   1.604   1.683  0.8026  0.1547  0.8284
 3494TIP3    H132117   4.826   1.694   1.683  2.3428 -0.2058 -2.5258
 3494TIP3    H232118   4.702   1.610   1.658  1.0832  0.8095 -0.0817
 3495TIP3   OH232119   0.287   6.644   2.663  0.2518 -0.4498  0.3487
 3495TIP3    H132120   0.293   6.550   2.682  2.4028 -0.7397 -1.3432
 3495TIP3    H232121   0.360   6.682   2.711 -0.4526  0.3572  0.8059
 3496TIP3   OH232122   0.735   4.709   2.719 -0.2387  0.1599 -0.4873
 3496TIP3    H132123   0.724   4.620   2.687 -0.8899 -0.7247  2.0000
 3496TIP3    H232124   0.646   4.740   2.734  0.0248 -0.2294  2.2925
 3497TIP3   OH232125   0.954   3.721   0.532  0.1763 -0.2553  0.4643
 3497TIP3    H132126   0.976   3.629   0.546 -0.4789 -0.3017  1.2116
 3497TIP3    H232127   0.887   3.741   0.597 -1.3445  0.1357 -1.1491
 3498TIP3   OH232128   2.392   0.147   1.147 -0.2210  0.6214 -0.1684
 3498TIP3    H132129   2.345   0.148   1.064  1.1173  0.2434 -0.9503
 3498TIP3    H232130   2.406   0.240   1.168 -1.9813  0.7916  0.5163
 3499TIP3   OH232131   6.211   4.051   0.088  0.0550 -0.3828  0.6089
 3499TIP3    H132132   6.235   3.959   0.100  1.1397 -0.0524  1.1028
 3499TIP3    H232133   6.225   4.090   0.174 -1.7252 -0.0307  0.7577
 3500TIP3   OH232134   6.619   3.791   1.785 -0.8181 -0.2077  0.4068
 3500TIP3    H132135   6.592   3.790   1.693  1.9901 -0.8495 -0.5204
 3500TIP3    H232136   6.649   3.702   1.803  1.4936  0.6026  0.9395
 3501TIP3   OH232137   3.841   2.357   1.390  0.1975 -0.3053  0.0061
 3501TIP3    H132138   3.778   2.414   1.346  1.0304  0.6783  0.0513
 3501TIP3    H232139   3.797   2.331   1.471 -1.2534 -1.9245 -1.2256
 3502TIP3   OH232140   2.674   3.108   1.193  0.3661 -0.5183  0.2543
 3502TIP3    H132141   2.720   3.081   1.272  0.9487 -1.1440 -0.2869
 3502TIP3    H232142   2.744   3.131   1.131 -0.0613 -0.7687 -0.3310
 3503TIP3   OH232143   2.417   2.311   0.761 -0.2324 -0.1168 -0.2409
 3503TIP3    H132144   2.378   2.246   0.819  0.8837  0.7129  1.5158
 3503TIP3    H232145   2.344   2.341   0.706 -1.2390 -1.2206  0.4474
 3504TIP3   OH232146   0.698   1.215   6.902 -0.2412  0.6511 -0.1994
 3504TIP3    H132147   0.606   1.239   6.898 -0.4709 -0.2254 -0.5456
 3504TIP3    H232148   0.725   1.236   6.992 -1.3256 -0.8870  0.5397
 3505TIP3   OH232149   2.024   2.065   0.048  0.2678 -0.8179 -0.0784
 3505TIP3    H132150   1.972   2.103  -0.022  1.4765  2.1938  0.5109
 3505TIP3    H232151   1.960   2.015   0.100 -1.1834 -0.6926 -1.6339
 3506TIP3   OH232152   5.535   1.321   0.949  0.1570 -0.0630  0.7358
 3506TIP3    H132153   5.512   1.236   0.913 -1.5392  0.5020  0.3843
 3506TIP3    H232154   5.623   1.340   0.914 -0.6282 -0.3804 -1.5989
 3507TIP3   OH232155   2.376   0.349   8.264 -0.3155  0.1360  0.0746
 3507TIP3    H132156   2.467   0.320   8.257 -0.8724 -1.3448 -1.9468
 3507TIP3    H232157   2.337   0.291   8.329  0.4087  1.5619  1.8648
 3508TIP3   OH232158   0.280   4.292   1.393 -0.3154  0.3029  0.3035
 3508TIP3    H132159   0.270   4.223   1.458 -1.8294 -0.5897 -0.7920
 3508TIP3    H232160   0.190   4.315   1.369  0.1941  1.4436 -0.5967
 3509TIP3   OH232161   0.797   5.910   8.146  0.5511  0.1709 -0.0407
 3509TIP3    H132162   0.887   5.879   8.158  0.2035 -1.1751 -0.6985
 3509TIP3    H232163   0.807   5.999   8.113  1.6463  0.0586 -0.0650
 3510TIP3   OH232164   1.743   0.850   1.367 -0.2019  0.4871  0.3482
 3510TIP3    H132165   1.821   0.881   1.414  0.4434  1.1162 -1.0528
 3510TIP3    H232166   1.699   0.792   1.429  1.9194 -0.6982  0.8824
 3511TIP3   OH232167   5.498   6.723   0.462 -0.0056  0.0577  0.0520
 3511TIP3    H132168   5.574   6.757   0.414 -0.8809 -0.0703 -1.4855
 3511TIP3    H232169   5.536   6.681   0.539  1.4016  0.8787 -0.1564
 3512TIP3   OH232170   3.027   6.174   1.121 -0.2707 -0.2144  0.4285
 3512TIP3    H132171   2.955   6.235   1.106 -0.2062 -0.3352 -0.3890
 3512TIP3    H232172   3.082   6.219   1.185  0.7388  1.4416 -1.4681
 3513TIP3   OH232173   4.281   1.496   7.054  0.5516  0.0427  0.1635
 3513TIP3    H132174   4.207   1.552   7.028  1.8662  0.7098 -2.5957
 3513TIP3    H232175   4.272   1.418   6.999  1.8694  0.1378 -0.2233
 3514TIP3   OH232176   6.448   4.874   3.280  0.4455 -0.1660  0.2049
 3514TIP3    H132177   6.494   4.827   3.350  0.1887  0.0902  0.5444
 3514TIP3    H232178   6.516   4.928   3.240  0.4357  0.2328  0.7245
 3515TIP3   OH232179   4.335   4.210   7.762 -0.0653  0.0898 -0.1687
 3515TIP3    H132180   4.272   4.225   7.692  1.1107  1.7099 -0.9427
 3515TIP3    H232181   4.389   4.289   7.763  0.4861 -0.2457  2.0169
 3516TIP3   OH232182   3.590   5.211   8.624  0.1520 -0.0303  0.0089
 3516TIP3    H132183   3.620   5.123   8.602  0.3847 -0.0775  0.4886
 3516TIP3    H232184   3.654   5.270   8.585  0.7305 -0.1224  0.7900
 3517TIP3   OH232185   5.683   0.516   1.594 -0.3188 -0.2559 -0.6647
 3517TIP3    H132186   5.663   0.597   1.547 -1.7397  1.0910  2.0501
 3517TIP3    H232187   5.601   0.467   1.594 -0.2749 -0.3415  0.1601
 3518TIP3   OH232188   1.111   6.527   7.830 -0.1524  0.3441 -0.2609
 3518TIP3    H132189   1.183   6.467   7.851 -1.1370 -0.3317  1.3291
 3518TIP3    H232190   1.151   6.592   7.771  1.6114 -0.3163  0.1436
 3519TIP3   OH232191   3.860   3.252   7.666  0.4428  0.2168  0.1576
 3519TIP3    H132192   3.812   3.331   7.690  1.8410  0.7875  1.2000
 3519TIP3    H232193   3.861   3.252   7.571 -0.6843  0.7487  0.1308
 3520TIP3   OH232194   3.303   6.098   1.008 -0.5180 -1.0000  0.0932
 3520TIP3    H132195   3.212   6.094   1.037 -0.8091 -0.1800 -0.6540
 3520TIP3    H232196   3.340   6.013   1.031 -1.7831 -1.7626 -0.6025
 3521TIP3   OH232197   5.197   1.449   7.784 -0.1532  0.2801 -0.4211
 3521TIP3    H132198   5.143   1.513   7.830  0.1177 -0.0132  0.3138
 3521TIP3    H232199   5.217   1.491   7.700 -2.5966 -0.1266 -1.2787
 3522TIP3   OH232200   0.678   2.617   0.015  0.0208  0.0948 -0.0890
 3522TIP3    H132201   0.621   2.550   0.054 -0.2096 -0.3185 -1.1036
 3522TIP3    H232202   0.694   2.679   0.086 -1.6960  0.2206  0.2263
 3523TIP3   OH232203   3.418   5.857   0.734  0.1000 -0.0009 -0.4674
 3523TIP3    H132204   3.396   5.803   0.658 -0.0306  0.5178 -0.7997
 3523TIP3    H232205   3.415   5.796   0.808  1.0038 -0.6795 -0.9685
 3524TIP3   OH232206   0.467   3.882   1.240  0.5833  0.1120 -0.3288
 3524TIP3    H132207   0.562   3.895   1.240  0.4266  1.5066 -1.6887
 3524TIP3    H232208   0.435   3.939   1.170 -1.2135 -0.7201 -0.2362
 3525TIP3   OH232209   4.223   4.491   7.657 -0.1864  0.1638 -0.1521
 3525TIP3    H132210   4.291   4.485   7.589  1.0273 -1.1524  1.1233
 3525TIP3    H232211   4.264   4.539   7.728 -1.0441  0.4775  0.1433
 3526TIP3   OH232212   2.803   6.574   1.715 -0.3510  0.3093 -0.2014
 3526TIP3    H132213   2.827   6.481   1.720  1.7585  0.8150  0.1013
 3526TIP3    H232214   2.792   6.600   1.806 -2.6535  0.0140 -0.3320
 3527TIP3   OH232215   1.609   1.062   8.117 -0.0453 -0.3982  0.5243
 3527TIP3    H132216   1.584   1.047   8.208 -1.0396 -0.3609  0.2727
 3527TIP3    H232217   1.544   1.124   8.085 -0.6334 -1.5593 -0.6340
 3528TIP3   OH232218   3.548   1.146   7.276 -0.0659  0.5028  0.0042
 3528TIP3    H132219   3.617   1.111   7.219 -0.2616 -1.8097  1.0886
 3528TIP3    H232220   3.561   1.241   7.273  2.0799  0.2395 -1.1772
 3529TIP3   OH232221   4.333   2.465   0.770  0.1773  0.1410  0.2027
 3529TIP3    H132222   4.338   2.407   0.846  2.3070 -2.2419 -1.5833
 3529TIP3    H232223   4.408   2.523   0.780  0.2324  0.0834  0.1243
 3530TIP3   OH232224   4.132   5.871   7.658  0.3041 -0.0721 -0.1386
 3530TIP3    H132225   4.093   5.789   7.689  0.1707  0.1366  0.2438
 3530TIP3    H232226   4.091   5.886   7.573 -3.4402  2.1326  1.8084
 3531TIP3   OH232227   1.983   0.210   0.635  0.6762  0.4745 -0.1383
 3531TIP3    H132228   1.929   0.278   0.674  0.3585  0.8450 -1.1845
 3531TIP3    H232229   1.921   0.140   0.613  0.8690  0.2147  0.1478
 3532TIP3   OH232230   1.836   4.748   1.976 -0.4279 -0.2013 -0.1141
 3532TIP3    H132231   1.756   4.763   1.926 -1.8365 -2.2303  1.3491
 3532TIP3    H232232   1.883   4.682   1.925 -0.1686  0.2413 -0.4563
 3533TIP3   OH232233   4.525   5.318   8.820 -0.8150  0.4428 -0.0807
 3533TIP3    H132234   4.527   5.350   8.910 -0.1306  0.3613 -0.0578
 3533TIP3    H232235   4.503   5.395   8.767 -1.2497  0.4832  0.1553
 3534TIP3   OH232236   3.318   6.286   0.784 -0.3412 -0.6903 -0.1114
 3534TIP3    H132237   3.332   6.208   0.837 -0.9749  0.2666  1.5454
 3534TIP3    H232238   3.223   6.293   0.775 -0.2960 -0.0825 -0.1821
 3535TIP3   OH232239   2.749   3.933   8.333  0.0886  0.8964 -0.0572
 3535TIP3    H132240   2.812   3.971   8.271  0.5769 -0.7362 -0.6000
 3535TIP3    H232241   2.798   3.923   8.414  0.8156 -1.0963 -0.6962
 3536TIP3   OH232242   4.674   3.848   8.457 -0.4462 -0.2292 -0.3949
 3536TIP3    H132243   4.704   3.783   8.521 -1.9224 -0.3932  0.1652
 3536TIP3    H232244   4.626   3.798   8.392 -3.0701  0.3866  0.9263
 3537TIP3   OH232245   0.049   0.318   2.647 -0.1767  0.3351 -0.2800
 3537TIP3    H132246   0.080   0.321   2.738  0.0615 -0.0618 -0.3439
 3537TIP3    H232247   0.128   0.298   2.596 -0.6397 -1.3745 -0.3835
 3538TIP3   OH232248   2.554   3.891   7.451  0.2979 -0.4569 -0.2479
 3538TIP3    H132249   2.537   3.904   7.544 -0.1051 -1.1181 -0.2256
 3538TIP3    H232250   2.471   3.860   7.415  1.2908 -3.5939 -0.1476
 3539TIP3   OH232251   5.215   3.949   6.617  0.1332 -0.1175  0.0180
 3539TIP3    H132252   5.251   4.018   6.673 -1.1824  0.2953  0.3788
 3539TIP3    H232253   5.132   3.984   6.585  0.8413 -0.3304 -2.2449
 3540TIP3   OH232254   3.022   1.561   8.772 -0.1256 -0.1782 -0.2272
 3540TIP3    H132255   2.955   1.629   8.770  1.2341  1.3796  2.3089
 3540TIP3    H232256   3.096   1.598   8.724  0.1150 -0.4448 -0.0711
 3541TIP3   OH232257   3.732   5.647   7.308 -0.1694  0.1137  0.5379
 3541TIP3    H132258   3.743   5.553   7.299 -0.8400 -0.1456  2.1373
 3541TIP3    H232259   3.817   5.683   7.283  0.3124 -0.9545  0.5733
 3542TIP3   OH232260   4.174   4.834   2.759  0.2564 -0.3484  0.7047
 3542TIP3    H132261   4.116   4.910   2.761  0.0483 -0.4855  0.1244
 3542TIP3    H232262   4.115   4.759   2.762  0.4039 -0.4883  0.2066
 3543TIP3   OH232263   1.511   6.446   8.606 -0.4181 -0.0029 -0.5273
 3543TIP3    H132264   1.523   6.447   8.701  0.0850  0.9969 -0.5846
 3543TIP3    H232265   1.418   6.432   8.594 -0.9071  2.1729  0.2018
 3544TIP3   OH232266   3.339   3.344   8.194  1.2811 -0.0199 -0.1515
 3544TIP3    H132267   3.348   3.372   8.103 -1.2614  0.0661 -0.4398
 3544TIP3    H232268   3.344   3.248   8.190 -0.8986 -0.1741 -0.7623
 3545TIP3   OH232269   2.270   1.276   8.550 -0.1228 -0.2211 -0.1088
 3545TIP3    H132270   2.325   1.274   8.628  0.0885  0.0405 -0.2516
 3545TIP3    H232271   2.312   1.217   8.488 -0.4560 -0.6650  0.0830
 3546TIP3   OH232272   3.389   5.206   0.687  0.1735 -0.1067 -0.3023
 3546TIP3    H132273   3.338   5.285   0.669 -0.7363 -0.5655  0.1516
 3546TIP3    H232274   3.371   5.187   0.780  0.1971 -0.9601 -0.4613
 3547TIP3   OH232275   5.613   5.935   0.888 -0.0825 -0.3249 -0.0695
 3547TIP3    H132276   5.697   5.895   0.864  0.0592 -1.5461  2.1645
 3547TIP3    H232277   5.554   5.860   0.900 -0.8259  0.3684  0.7063
 3548TIP3   OH232278   3.979   6.494   0.729 -0.7367 -0.5557 -0.0403
 3548TIP3    H132279   4.005   6.586   0.724  1.2809 -1.1531 -2.7438
 3548TIP3    H232280   3.886   6.494   0.705 -0.5778  0.7254 -0.7497
 3549TIP3   OH232281   4.790   4.605   8.567 -0.1311  0.2645 -0.2011
 3549TIP3    H132282   4.810   4.623   8.658  0.0529  0.2445 -0.2378
 3549TIP3    H232283   4.736   4.526   8.569  0.9950 -0.5268 -0.2066
 3550TIP3   OH232284   5.085   5.216   0.093  0.3520 -0.5127  0.3143
 3550TIP3    H132285   5.007   5.161   0.096  1.1507 -1.7745 -0.6690
 3550TIP3    H232286   5.080   5.260   0.008  1.2563 -1.5043 -0.2814
 3551TIP3   OH232287   2.534   2.068   0.057  0.1860  0.3607  1.0050
 3551TIP3    H132288   2.607   2.107   0.106 -0.5960  2.5497  0.5573
 3551TIP3    H232289   2.475   2.035   0.125  1.4354 -1.2562  1.3780
 3552TIP3   OH232290   2.876   1.271   2.293  0.1457 -0.4399 -0.4888
 3552TIP3    H132291   2.856   1.298   2.382  2.5613 -0.3960  0.1303
 3552TIP3    H232292   2.908   1.351   2.250 -0.1048 -0.6581 -1.0879
 3553TIP3   OH232293   2.878   5.341   8.310 -0.0208 -0.3090 -0.4254
 3553TIP3    H132294   2.946   5.329   8.377 -0.0538  0.7886 -0.1744
 3553TIP3    H232295   2.862   5.253   8.276  0.2081 -0.8401  0.8044
 3554TIP3   OH232296   4.366   2.525   8.527 -0.4972  0.4495 -0.0097
 3554TIP3    H132297   4.355   2.532   8.433 -2.8497  0.1129  0.1826
 3554TIP3    H232298   4.354   2.432   8.546  1.5626  0.2339  0.5018
 3555TIP3   OH232299   2.653   0.436   2.269  0.0735  0.1398  0.6649
 3555TIP3    H132300   2.600   0.492   2.326 -0.7652  0.1014 -0.0511
 3555TIP3    H232301   2.731   0.417   2.320 -0.2735  0.7998  1.4698
 3556TIP3   OH232302   1.253   1.838   8.489  0.0378  0.4284  0.0726
 3556TIP3    H132303   1.198   1.836   8.411 -0.6481 -0.9905  0.5509
 3556TIP3    H232304   1.212   1.904   8.546  0.4017  1.2902 -0.6476
 3557TIP3   OH232305   0.305   3.239   8.504 -0.2923 -0.3870 -0.3630
 3557TIP3    H132306   0.253   3.160   8.509 -0.6937 -0.0516  1.3453
 3557TIP3    H232307   0.377   3.217   8.444 -0.3076 -2.0788  0.2011
 3558TIP3   OH232308   4.994   3.350   7.179  0.3652  0.0916 -0.5582
 3558TIP3    H132309   5.065   3.305   7.132 -0.7049 -0.3876 -1.7852
 3558TIP3    H232310   4.916   3.298   7.159 -0.0168 -0.7684  2.6652
 3559TIP3   OH232311   0.221   4.966   7.255  0.0677 -0.0594 -0.5944
 3559TIP3    H132312   0.127   4.975   7.268 -0.1696 -2.3311 -0.4136
 3559TIP3    H232313   0.236   4.995   7.164 -0.9227 -0.4419 -0.8877
 3560TIP3   OH232314   6.016   1.407   8.709  0.2435  0.0984 -0.0287
 3560TIP3    H132315   5.998   1.401   8.615 -0.2532 -0.1165  0.0760
 3560TIP3    H232316   6.096   1.460   8.715  0.1605  0.2914 -0.5592
 3561TIP3   OH232317   0.042   0.365   8.300  0.1995 -0.2108 -0.0501
 3561TIP3    H132318   0.043   0.424   8.376 -2.2998 -1.2199  0.8824
 3561TIP3    H232319   0.092   0.411   8.233 -0.0210  2.0820  1.2587
 3562TIP3   OH232320   0.949   2.549   1.644  0.2597  0.5719  0.2640
 3562TIP3    H132321   0.893   2.612   1.600  0.4261  0.3937 -0.2043
 3562TIP3    H232322   0.888   2.490   1.688  0.1037  1.3979  1.2108
 3563TIP3   OH232323   2.540   2.778   1.792  0.5719 -0.6035  0.5525
 3563TIP3    H132324   2.555   2.783   1.887 -0.9100 -2.1044  0.9204
 3563TIP3    H232325   2.453   2.737   1.784  0.0021  0.8503 -1.4459
 3564TIP3   OH232326   0.776   4.062   0.948 -0.1832  0.1162  0.2785
 3564TIP3    H132327   0.816   4.140   0.907 -0.1315 -0.1157 -0.1183
 3564TIP3    H232328   0.841   4.032   1.011 -0.2913  0.5202  0.5832
 3565TIP3   OH232329   1.287   5.453   2.901  0.0490  0.1015 -0.4538
 3565TIP3    H132330   1.377   5.425   2.918  0.0390 -0.6603 -1.5113
 3565TIP3    H232331   1.240   5.432   2.981  0.6761 -0.1565 -0.1453
 3566TIP3   OH232332   0.613   0.468   2.429  0.4476  1.0163 -0.3270
 3566TIP3    H132333   0.601   0.401   2.361  0.2800 -0.3481  1.0069
 3566TIP3    H232334   0.693   0.442   2.474 -0.1926  1.0951  0.8860
 3567TIP3   OH232335   3.078   5.348   7.243 -0.1197  0.3217 -0.1529
 3567TIP3    H132336   3.009   5.346   7.309 -0.3454 -3.1059 -0.3322
 3567TIP3    H232337   3.031   5.356   7.160  0.0314  2.0146 -0.1282
 3568TIP3   OH232338   3.335   6.577   0.830  0.1300 -0.3613  0.1654
 3568TIP3    H132339   3.335   6.482   0.814 -0.5876 -0.2135 -0.7871
 3568TIP3    H232340   3.374   6.586   0.917 -0.3381 -1.5821  0.5270
 3569TIP3   OH232341   5.748   3.100   2.093  0.9403  0.2686 -0.0366
 3569TIP3    H132342   5.662   3.078   2.056  1.4461 -2.5951  0.1983
 3569TIP3    H232343   5.730   3.127   2.183  0.2837 -0.8056  0.1706
 3570TIP3   OH232344   0.267   5.934   1.837 -0.0035  0.0880 -0.1300
 3570TIP3    H132345   0.264   5.848   1.877 -1.2092  0.2727  0.2008
 3570TIP3    H232346   0.239   5.920   1.746  1.0209 -0.0514 -0.4393
 3571TIP3   OH232347   2.986   4.846   0.355  0.6789 -0.2543  0.0195
 3571TIP3    H132348   3.027   4.901   0.289 -0.2986 -1.1253 -1.3678
 3571TIP3    H232349   3.036   4.764   0.353 -0.9729 -1.2961 -1.6360
 3572TIP3   OH232350   2.410   4.626   1.018 -0.0306  0.2047 -0.6829
 3572TIP3    H132351   2.481   4.571   0.985 -0.2289  0.8263 -2.2079
 3572TIP3    H232352   2.403   4.602   1.111  2.0128 -0.0219 -0.5357
 3573TIP3   OH232353   0.327   6.479   8.530 -0.1351  0.3482 -0.5729
 3573TIP3    H132354   0.393   6.477   8.460  0.8634  0.7127  0.3345
 3573TIP3    H232355   0.370   6.524   8.603  0.6312 -3.8845  1.9866
 3574TIP3   OH232356   4.864   4.550   2.184  0.3356 -0.0203  0.2271
 3574TIP3    H132357   4.870   4.494   2.107  0.4076  1.0730 -0.5809
 3574TIP3    H232358   4.927   4.514   2.246 -0.6138 -1.6702  0.2870
 3575TIP3   OH232359   1.098   6.226   2.165 -0.3316 -0.4135  0.0165
 3575TIP3    H132360   1.012   6.198   2.134 -0.4317  0.0459 -0.1383
 3575TIP3    H232361   1.148   6.145   2.174 -0.9309 -0.7308  0.5751
 3576TIP3   OH232362   4.647   2.092   8.296 -0.3525  0.1975  0.5984
 3576TIP3    H132363   4.725   2.041   8.273  0.3224  0.8206  1.4260
 3576TIP3    H232364   4.574   2.033   8.280  0.2811 -0.4006 -0.2185
 3577TIP3   OH232365   3.760   1.593   8.117  0.5033 -0.5675 -0.0441
 3577TIP3    H132366   3.667   1.580   8.133  0.2730  1.5468  0.6152
 3577TIP3    H232367   3.802   1.584   8.202  0.7637 -0.4000 -0.1519
 3578TIP3   OH232368   2.839   4.221   2.000  0.0415 -0.2475 -0.4481
 3578TIP3    H132369   2.913   4.189   1.948 -0.0475 -1.2198  0.0048
 3578TIP3    H232370   2.762   4.180   1.961 -0.0449 -0.8243  0.3198
 3579TIP3   OH232371   2.871   3.763   1.729 -0.7765 -0.0702  0.3844
 3579TIP3    H132372   2.899   3.720   1.648  1.2848  1.4998  0.2036
 3579TIP3    H232373   2.805   3.703   1.766  1.2570 -2.9483 -0.3030
 3580TIP3   OH232374   6.466   6.727   7.887 -0.0197  0.3059  0.0764
 3580TIP3    H132375   6.416   6.752   7.964  2.4527 -0.0165  1.8971
 3580TIP3    H232376   6.413   6.660   7.844 -0.5095 -1.1996  2.8003
 3581TIP3   OH232377   1.030   5.212   2.247 -0.4451 -0.4146 -0.0052
 3581TIP3    H132378   0.985   5.198   2.330  1.5370  2.3434  1.7113
 3581TIP3    H232379   0.959   5.222   2.183 -2.0943 -0.8144  1.6574
 3582TIP3   OH232380   4.999   0.876   7.672 -0.2053  0.2168  0.6600
 3582TIP3    H132381   4.983   0.830   7.755 -0.1594  1.7040  1.5379
 3582TIP3    H232382   4.953   0.959   7.682  1.4043  1.2485  0.0086
 3583TIP3   OH232383   1.223   3.161   0.165  0.5394  0.2635 -0.2253
 3583TIP3    H132384   1.209   3.071   0.195 -2.1565  0.9358  0.8006
 3583TIP3    H232385   1.210   3.158   0.071 -1.0946 -0.1883 -0.0063
 3584TIP3   OH232386   1.085   2.797   1.344  0.7851  0.0888  0.2916
 3584TIP3    H132387   1.082   2.772   1.251  0.9743 -0.5930  0.4633
 3584TIP3    H232388   1.127   2.723   1.387  0.8879  0.4963  0.8973
 3585TIP3   OH232389   4.751   4.516   0.735  0.7564  0.2642 -0.3833
 3585TIP3    H132390   4.794   4.431   0.729 -0.4349 -0.4048  0.1672
 3585TIP3    H232391   4.797   4.561   0.806  0.3191 -0.5962  0.4716
 3586TIP3   OH232392   0.090   0.089   1.676  0.0606 -0.3556  0.3172
 3586TIP3    H132393   0.161   0.067   1.615 -0.6937  0.4958 -0.8946
 3586TIP3    H232394   0.029   0.016   1.669  0.5242 -0.8164  0.9407
 3587TIP3   OH232395   6.295   5.253   8.381 -0.7190 -0.3661 -0.0692
 3587TIP3    H132396   6.299   5.344   8.349  2.0182 -0.7640 -1.1791
 3587TIP3    H232397   6.238   5.208   8.318  0.3408  0.0019 -1.3521
 3588TIP3   OH232398   6.357   5.950   1.839 -0.2092  0.0529 -0.0415
 3588TIP3    H132399   6.349   5.876   1.779  0.0086  1.1886 -1.5252
 3588TIP3    H232400   6.431   6.001   1.805  0.7425  0.0955  1.9266
 3589TIP3   OH232401   2.085   0.481   7.641 -0.4937  0.1480 -0.4305
 3589TIP3    H132402   2.126   0.560   7.676  2.0336 -1.5782  0.8053
 3589TIP3    H232403   2.155   0.415   7.642 -2.2688 -1.9141 -2.1761
 3590TIP3   OH232404   1.307   5.720   7.925  0.5902  0.7382  0.6531
 3590TIP3    H132405   1.388   5.763   7.953  0.1787  1.1629  1.2153
 3590TIP3    H232406   1.254   5.791   7.888  1.0019  0.2371 -0.9552
 3591TIP3   OH232407   5.577   2.203   8.659  0.0855  0.1182 -0.7759
 3591TIP3    H132408   5.659   2.205   8.610  0.8157 -1.0547  0.3307
 3591TIP3    H232409   5.594   2.142   8.732 -1.7948 -0.2398 -0.5883
 3592TIP3   OH232410   3.364   0.521   8.347  0.2984 -0.2204 -0.1236
 3592TIP3    H132411   3.442   0.574   8.329  0.0254 -0.2481 -1.4693
 3592TIP3    H232412   3.320   0.566   8.419  1.2255  0.1366  0.2375
 3593TIP3   OH232413   6.580   2.529   1.908 -0.2956  0.8306 -0.0785
 3593TIP3    H132414   6.526   2.606   1.893 -0.6282  0.4799 -0.7347
 3593TIP3    H232415   6.600   2.496   1.820  1.5605  1.3304  0.1056
 3594TIP3   OH232416   6.804   4.143   8.591 -0.8950  0.4411 -0.4251
 3594TIP3    H132417   6.834   4.073   8.649 -0.5868 -0.8386 -2.0527
 3594TIP3    H232418   6.709   4.141   8.598 -1.0087 -1.4471 -1.8361
 3595TIP3   OH232419   2.792   6.800   0.576  0.2971 -0.6857 -0.0358
 3595TIP3    H132420   2.704   6.819   0.610  0.4953 -0.8906  0.6069
 3595TIP3    H232421   2.802   6.861   0.503 -0.2919 -0.4997  0.0259
 3596TIP3   OH232422   3.596   6.713   8.766 -0.1089 -0.1737 -0.8015
 3596TIP3    H132423   3.673   6.699   8.821 -0.5917 -0.3252 -0.1508
 3596TIP3    H232424   3.574   6.626   8.733 -0.4616 -0.2604 -0.3514
 3597TIP3   OH232425   4.000   5.563   6.699  0.0981  0.0280 -0.2236
 3597TIP3    H132426   3.994   5.512   6.780 -0.5670  1.0706  0.4193
 3597TIP3    H232427   3.965   5.649   6.723  1.0208  0.7351 -1.3082
 3598TIP3   OH232428   5.583   2.769   0.273 -0.1190  0.0509  0.0036
 3598TIP3    H132429   5.501   2.764   0.224 -1.0735 -1.1037  1.6412
 3598TIP3    H232430   5.569   2.840   0.336 -0.5430 -1.1925  1.3785
 3599TIP3   OH232431   6.176   0.950   8.216  0.2011 -0.3866  0.1052
 3599TIP3    H132432   6.208   1.040   8.220  0.0240 -0.2531 -1.0358
 3599TIP3    H232433   6.115   0.949   8.142  0.1762 -1.4339  0.1132
 3600TIP3   OH232434   3.384   4.328   0.679 -0.5860 -0.1437 -0.4544
 3600TIP3    H132435   3.349   4.250   0.637  0.8110 -1.1150  0.1002
 3600TIP3    H232436   3.427   4.296   0.758 -1.2023  1.3782  0.5433
 3601TIP3   OH232437   1.695   2.067   7.887  0.9494 -0.1666  0.4099
 3601TIP3    H132438   1.785   2.042   7.865  0.7990  0.2206 -0.7111
 3601TIP3    H232439   1.699   2.162   7.898  0.4499  0.0373 -0.9459
 3602TIP3   OH232440   5.853   2.294   2.885 -0.1012 -0.8489  0.6947
 3602TIP3    H132441   5.827   2.381   2.917 -2.5261 -1.3417  0.2536
 3602TIP3    H232442   5.926   2.269   2.942 -0.6745  0.6203  2.1801
 3603TIP3   OH232443   4.321   1.323   2.042 -0.3291 -0.6596  0.0213
 3603TIP3    H132444   4.258   1.371   1.988 -0.3890  0.7863  1.3340
 3603TIP3    H232445   4.286   1.329   2.131  0.6596 -1.5420  0.4902
 3604TIP3   OH232446   3.954   0.672   0.268 -0.3872  0.0290  0.1922
 3604TIP3    H132447   3.938   0.676   0.362 -0.0132 -1.1354  0.3194
 3604TIP3    H232448   4.036   0.718   0.255 -1.6502  2.4161  0.0724
 3605TIP3   OH232449   6.194   0.044   0.796  0.2249 -0.1594  0.1410
 3605TIP3    H132450   6.199   0.133   0.832  0.2690 -0.5964  1.2774
 3605TIP3    H232451   6.189   0.056   0.701  1.0453  1.0218  0.2282
 3606TIP3   OH232452   6.245   2.272   0.161 -0.2485  0.5899 -0.1709
 3606TIP3    H132453   6.221   2.334   0.230  0.6851  0.0585  0.6382
 3606TIP3    H232454   6.161   2.245   0.123 -0.9543 -0.9217  2.3136
 3607TIP3   OH232455   0.099   6.434   0.869 -0.4921 -0.0885 -0.3757
 3607TIP3    H132456   0.077   6.397   0.783  2.1935 -0.3413 -1.0506
 3607TIP3    H232457   0.131   6.359   0.919 -0.6570  0.3190  0.3483
 3608TIP3   OH232458   0.859   6.378   0.782  0.5545 -0.4369 -0.3427
 3608TIP3    H132459   0.870   6.299   0.730 -0.6555 -0.9176  0.0830
 3608TIP3    H232460   0.901   6.447   0.731  0.5849 -1.1394 -1.2980
 3609TIP3   OH232461   2.714   3.037   8.415  0.6727  0.3286  0.0445
 3609TIP3    H132462   2.633   3.086   8.408  1.9504  2.3807 -1.4766
 3609TIP3    H232463   2.723   2.994   8.330  0.7202 -0.6899  0.5520
 3610TIP3   OH232464   6.540   3.031   1.836 -0.2290  0.1149  0.3926
 3610TIP3    H132465   6.474   3.070   1.778 -0.0469  0.7364  0.5954
 3610TIP3    H232466   6.618   3.084   1.823 -0.1520  0.1935  1.1199
 3611TIP3   OH232467   2.230   6.555   8.740 -0.7282 -0.0540 -0.3634
 3611TIP3    H132468   2.201   6.510   8.661 -1.4586 -1.0837  0.4534
 3611TIP3    H232469   2.257   6.642   8.710 -3.1126  0.3912 -1.4512
 3612TIP3   OH232470   2.435   3.371   1.719  0.1904 -0.2906 -0.0239
 3612TIP3    H132471   2.530   3.373   1.709  0.4094 -1.1090  1.5164
 3612TIP3    H232472   2.420   3.304   1.786 -1.3973  0.5446  0.4964
 3613TIP3   OH232473   0.738   1.524   0.224 -0.0667  0.3319  0.1600
 3613TIP3    H132474   0.675   1.572   0.277 -1.3096  0.3061 -1.2339
 3613TIP3    H232475   0.686   1.487   0.153  1.1412 -1.6861  0.2633
 3614TIP3   OH232476   1.190   4.549   0.350 -0.2552  0.7661 -0.4339
 3614TIP3    H132477   1.276   4.591   0.346  1.1036 -1.4547  2.2526
 3614TIP3    H232478   1.144   4.597   0.419 -0.1609  0.3347 -0.0652
 3615TIP3   OH232479   3.246   2.646   1.125 -0.5768  0.0508  0.3783
 3615TIP3    H132480   3.331   2.633   1.082 -0.3494 -0.0643  0.8572
 3615TIP3    H232481   3.186   2.589   1.078 -0.2677 -0.2897  0.3965
 3616TIP3   OH232482   5.345   5.956   8.370 -0.0930  0.1364  0.2975
 3616TIP3    H132483   5.316   5.966   8.280  0.7183  0.2627  0.0442
 3616TIP3    H232484   5.399   6.033   8.387  1.5321 -0.9328  0.1797
 3617TIP3   OH232485   2.145   0.489   1.817  0.5546 -0.2757  0.5487
 3617TIP3    H132486   2.234   0.456   1.824  1.1420  0.9564 -0.7754
 3617TIP3    H232487   2.105   0.436   1.747  0.4347 -0.4170  0.7228
 3618TIP3   OH232488   4.696   0.161   0.794  0.2343 -0.0315 -0.1820
 3618TIP3    H132489   4.656   0.226   0.852 -0.6478 -0.1426 -0.6510
 3618TIP3    H232490   4.697   0.080   0.845 -2.5754 -0.6917 -1.0214
 3619TIP3   OH232491   0.310   5.982   8.259  0.5889  0.2475 -0.0943
 3619TIP3    H132492   0.365   6.053   8.294  1.1426 -0.2237  0.0175
 3619TIP3    H232493   0.359   5.902   8.279 -0.7328 -0.3035  1.1536
 3620TIP3   OH232494   6.265   4.119   2.244 -0.1040 -0.1799  0.0004
 3620TIP3    H132495   6.178   4.138   2.209 -0.4425 -0.0579  0.9014
 3620TIP3    H232496   6.299   4.049   2.188 -0.9668 -0.5558 -0.0543
 3621TIP3   OH232497   6.645   6.577   1.962  0.4018 -0.1209  0.2427
 3621TIP3    H132498   6.571   6.635   1.978  0.4422  0.1843 -0.5827
 3621TIP3    H232499   6.704   6.591   2.036  0.4034  0.8986  0.0585
 3622TIP3   OH232500   3.930   2.737   2.187  0.1780 -0.0510 -0.3964
 3622TIP3    H132501   3.906   2.649   2.215 -0.5317  0.8719  2.1589
 3622TIP3    H232502   3.848   2.786   2.184  0.8925  1.9537  4.0162
 3623TIP3   OH232503   1.637   2.491   0.308  0.6080 -0.4301 -0.2054
 3623TIP3    H132504   1.691   2.549   0.253  1.1307 -1.6451 -1.0007
 3623TIP3    H232505   1.619   2.415   0.253  0.5688 -1.3787  1.0682
 3624TIP3   OH232506   0.753   3.373   1.428  0.1490  0.2069  0.1331
 3624TIP3    H132507   0.828   3.351   1.374 -0.1700 -0.7255  0.0508
 3624TIP3    H232508   0.735   3.465   1.408 -0.3908 -0.2855 -1.9031
 3625TIP3   OH232509   1.879   2.841   0.703  0.0776 -0.5697 -0.2517
 3625TIP3    H132510   1.854   2.818   0.614 -2.8372 -3.0341  0.9781
 3625TIP3    H232511   1.965   2.801   0.716  0.3091 -0.6033 -1.7952
 3626TIP3   OH232512   5.010   4.939   7.855  0.2927 -0.1157  0.1808
 3626TIP3    H132513   5.009   4.993   7.776  0.3714  1.0829  0.9876
 3626TIP3    H232514   4.920   4.907   7.864  0.7401 -2.1546 -1.6281
 3627TIP3   OH232515   3.408   3.160   0.496 -0.1954 -0.5723 -0.2459
 3627TIP3    H132516   3.378   3.202   0.576  2.1486  0.3778  0.2229
 3627TIP3    H232517   3.397   3.228   0.428 -0.0777 -0.5788 -0.2717
 3628TIP3   OH232518   0.761   1.541   7.639 -0.2242  0.8296 -0.1392
 3628TIP3    H132519   0.709   1.621   7.628  0.9189  1.6171  0.0120
 3628TIP3    H232520   0.794   1.546   7.728  0.3235  0.4826 -0.3202
 3629TIP3   OH232521   0.462   4.394   1.918 -0.6274 -0.1079 -0.0798
 3629TIP3    H132522   0.526   4.461   1.943 -0.0836 -0.8051  0.4518
 3629TIP3    H232523   0.379   4.426   1.953 -0.6791  1.0102 -1.1334
 3630TIP3   OH232524   4.687   0.276   7.656 -0.0117  0.2694 -0.0841
 3630TIP3    H132525   4.695   0.363   7.619 -0.3565 -0.0867 -1.0099
 3630TIP3    H232526   4.769   0.232   7.634  0.3085  0.4640  0.6865
 3631TIP3   OH232527   1.101   1.375   0.090  0.0588  0.2002 -0.3153
 3631TIP3    H132528   1.136   1.454   0.048 -1.4073  1.5505  0.8970
 3631TIP3    H232529   1.013   1.366   0.053 -0.1305 -0.3237  0.2607
 3632TIP3   OH232530   6.379   1.193   7.201  0.1620  0.4949  0.4994
 3632TIP3    H132531   6.383   1.258   7.130  0.6379  0.2744  0.3201
 3632TIP3    H232532   6.392   1.109   7.157 -2.4272  0.0409  0.4359
 3633TIP3   OH232533   3.861   1.303   0.256  0.1185 -0.7357 -0.2701
 3633TIP3    H132534   3.801   1.345   0.318 -0.2902 -1.4079 -0.2022
 3633TIP3    H232535   3.934   1.364   0.248  0.5420 -0.9772  1.4505
 3634TIP3   OH232536   0.901   4.857   0.471 -0.3946 -0.2163  0.1688
 3634TIP3    H132537   0.869   4.922   0.408 -1.3023 -0.1774  0.6585
 3634TIP3    H232538   0.866   4.774   0.440 -1.0431 -0.1660  0.7374
 3635TIP3   OH232539   4.275   2.115   1.184  0.5115 -0.2051  0.0350
 3635TIP3    H132540   4.313   2.027   1.178 -0.4002 -0.5318 -1.5455
 3635TIP3    H232541   4.260   2.129   1.278  0.5117 -1.7954  0.2944
 3636TIP3   OH232542   1.308   4.012   1.135 -0.5968  0.4163  0.5108
 3636TIP3    H132543   1.379   4.073   1.114 -0.7120  0.2784 -0.3053
 3636TIP3    H232544   1.291   3.966   1.053  0.0149 -1.2870  1.2818
 3637TIP3   OH232545   4.663   3.145   8.408 -0.3596  0.0204 -0.3378
 3637TIP3    H132546   4.686   3.172   8.319 -0.5340  2.6923  0.3448
 3637TIP3    H232547   4.603   3.213   8.439 -0.4352 -0.9299  1.7899
 3638TIP3   OH232548   3.901   1.094   0.089  0.4063  1.1089  0.0925
 3638TIP3    H132549   3.840   1.050   0.031  0.6068  2.0970 -0.9047
 3638TIP3    H232550   3.846   1.141   0.152  0.1562  1.1775 -0.1780
 3639TIP3   OH232551   1.130   1.145   1.183 -0.3731  0.2733 -0.2480
 3639TIP3    H132552   1.141   1.215   1.118  0.0963 -0.0006 -0.4695
 3639TIP3    H232553   1.218   1.129   1.216 -0.2389 -1.1953 -1.2392
 3640TIP3   OH232554   1.325   5.853   0.925 -0.2779 -0.4894 -0.0994
 3640TIP3    H132555   1.242   5.813   0.901 -2.0589  2.6569  0.1817
 3640TIP3    H232556   1.342   5.820   1.014 -2.7338  0.7691  0.9585
 3641TIP3   OH232557   0.318   1.021   0.662  0.0153 -0.1601  0.3482
 3641TIP3    H132558   0.328   1.046   0.570 -0.8575  0.7649  0.4954
 3641TIP3    H232559   0.229   0.986   0.668 -0.7485  1.7954  1.2592
 3642TIP3   OH232560   2.351   5.496   8.247  0.0354  0.4216  0.1871
 3642TIP3    H132561   2.297   5.492   8.167  1.4596 -2.7873 -0.7960
 3642TIP3    H232562   2.316   5.427   8.303  1.5278 -0.0367  0.5972
 3643TIP3   OH232563   1.266   4.188   2.167 -0.2865 -0.2344  0.1255
 3643TIP3    H132564   1.241   4.096   2.175 -0.2038 -0.3063 -0.3749
 3643TIP3    H232565   1.311   4.192   2.083 -1.7393  0.5917 -0.6430
 3644TIP3   OH232566   5.703   6.711   2.953 -0.1465 -0.4985  0.2534
 3644TIP3    H132567   5.672   6.657   2.881  1.2655 -3.1568  1.5240
 3644TIP3    H232568   5.624   6.756   2.984 -1.2171 -1.1346 -1.4105
 3645TIP3   OH232569   6.116   6.247   8.697 -0.3164 -0.6457  0.1233
 3645TIP3    H132570   6.189   6.203   8.740 -0.1440 -0.6860 -0.2010
 3645TIP3    H232571   6.158   6.306   8.634 -0.5669 -1.6480 -1.0269
 3646TIP3   OH232572   6.634   2.215   1.232  0.0716  0.3538  0.0647
 3646TIP3    H132573   6.600   2.265   1.158  0.5962  2.1307  0.9709
 3646TIP3    H232574   6.556   2.174   1.270 -0.1545 -0.9233 -1.6637
 3647TIP3   OH232575   1.663   1.460   0.251  0.4914  0.0255 -0.2877
 3647TIP3    H132576   1.732   1.487   0.312  0.3933  0.6829 -0.4591
 3647TIP3    H232577   1.584   1.455   0.304  0.7671 -1.2723  0.0249
 3648TIP3   OH232578   5.155   2.441   0.063 -0.0656  0.3293  0.0983
 3648TIP3    H132579   5.087   2.491   0.019 -0.6487 -0.9066 -0.4705
 3648TIP3    H232580   5.228   2.438   0.001 -0.7031 -0.9959 -0.6328
 3649TIP3   OH232581   2.073   0.810   1.288 -0.1340 -0.3105  0.7715
 3649TIP3    H132582   2.030   0.894   1.296  0.6562  0.0565  1.3271
 3649TIP3    H232583   2.063   0.769   1.374 -0.7169 -0.8911  0.4376
 3650TIP3   OH232584   1.446   5.069   1.097 -0.3168 -0.8953 -0.1364
 3650TIP3    H132585   1.352   5.080   1.082 -0.4969 -0.5733  1.1610
 3650TIP3    H232586   1.455   4.978   1.125 -0.3428 -0.7269  0.4310
 3651TIP3   OH232587   4.641   1.373   7.514 -0.1884  0.2968 -0.4424
 3651TIP3    H132588   4.703   1.342   7.449  0.0984 -0.8265  0.3323
 3651TIP3    H232589   4.560   1.324   7.496  0.7895 -2.5386  1.9237
 3652TIP3   OH232590   0.582   4.419   8.615  0.4378  0.2520  1.2121
 3652TIP3    H132591   0.506   4.442   8.562  0.9419 -0.8620 -0.0447
 3652TIP3    H232592   0.637   4.497   8.612 -0.3975  0.8725  1.6840
 3653TIP3   OH232593   6.356   3.053   1.165  0.3667 -0.1368 -0.3902
 3653TIP3    H132594   6.296   2.979   1.173 -0.6166  0.7280  0.4876
 3653TIP3    H232595   6.442   3.017   1.187 -0.0370 -1.0884 -0.3293
 3654TIP3   OH232596   2.614   4.714   8.479  0.1399 -0.0571 -0.0524
 3654TIP3    H132597   2.675   4.716   8.406  1.9522  0.7878  1.3861
 3654TIP3    H232598   2.637   4.791   8.531 -3.2979  1.2721 -0.2660
 3655TIP3   OH232599   3.175   5.719   0.446  0.2599 -0.9505  0.1224
 3655TIP3    H132600   3.192   5.658   0.517  1.3489  1.6965  2.3281
 3655TIP3    H232601   3.262   5.742   0.412  0.0849  0.9599  0.8493
 3656TIP3   OH232602   2.740   5.839   6.829 -0.5269  0.4417  0.5319
 3656TIP3    H132603   2.673   5.825   6.762 -1.7493 -0.7153  1.9249
 3656TIP3    H232604   2.779   5.753   6.843  1.4523  1.1321 -0.4015
 3657TIP3   OH232605   5.151   3.709   8.261 -0.4833  0.3984  0.0826
 3657TIP3    H132606   5.064   3.728   8.225 -0.5958 -0.2558 -0.0092
 3657TIP3    H232607   5.137   3.703   8.355 -0.4187  0.9134  0.1258
 3658TIP3   OH232608   3.229   4.435   7.635 -0.2128 -0.0800  0.1738
 3658TIP3    H132609   3.136   4.431   7.657 -0.6266  0.6763 -1.2674
 3658TIP3    H232610   3.273   4.454   7.718 -1.4663  0.7499  0.6804
 3659TIP3   OH232611   2.908   0.704   1.078 -0.1920  0.6632  0.1944
 3659TIP3    H132612   2.824   0.731   1.115 -0.1557  0.7896  0.1867
 3659TIP3    H232613   2.900   0.724   0.985  0.8721  3.3931  0.5899
 3660TIP3   OH232614   0.690   2.087   0.437  0.1371  0.1223  0.2175
 3660TIP3    H132615   0.736   2.076   0.354  1.2523  0.1278  0.8043
 3660TIP3    H232616   0.704   2.179   0.461  0.4965 -0.0670  0.7735
 3661TIP3   OH232617   0.421   0.640   2.071 -0.0575  0.1581 -0.0362
 3661TIP3    H132618   0.446   0.697   2.144 -0.0296  0.1410 -0.0325
 3661TIP3    H232619   0.504   0.612   2.033 -0.0398 -0.8093  0.6701
 3662TIP3   OH232620   4.893   1.350   8.003  0.0679  0.1359  0.5575
 3662TIP3    H132621   4.863   1.292   7.933 -1.8754  0.7768  0.7872
 3662TIP3    H232622   4.925   1.428   7.957 -2.7845  1.2861  0.2906
 3663TIP3   OH232623   2.136   6.210   7.108 -0.2723  0.1202 -0.2897
 3663TIP3    H132624   2.232   6.206   7.108 -0.2728 -0.5423 -1.6068
 3663TIP3    H232625   2.116   6.303   7.117  0.4616  0.2006  0.7662
 3664TIP3   OH232626   1.419   0.177   0.316  0.2023  0.1587 -0.2765
 3664TIP3    H132627   1.441   0.244   0.381 -0.7155  0.6585 -0.4631
 3664TIP3    H232628   1.489   0.183   0.251  0.5109  0.4515  0.0787
 3665TIP3   OH232629   6.373   5.437   0.827  0.2916 -0.1859  0.0165
 3665TIP3    H132630   6.306   5.413   0.891  0.1124 -0.1832 -0.1683
 3665TIP3    H232631   6.452   5.450   0.878 -0.2498  1.5640  0.4704
 3666TIP3   OH232632   4.983   4.428   2.442  0.1067  0.0575  0.3067
 3666TIP3    H132633   4.993   4.503   2.501 -0.0171 -0.8634  1.5258
 3666TIP3    H232634   5.019   4.354   2.490  0.3879 -0.6513 -0.9534
 3667TIP3   OH232635   0.008   5.612   3.159  0.3820 -0.2872 -0.0504
 3667TIP3    H132636  -0.009   5.703   3.134 -0.3304 -0.4263 -0.0841
 3667TIP3    H232637   0.055   5.618   3.242 -0.7013  0.0873  0.5535
 3668TIP3   OH232638   1.179   5.099   7.899 -0.3903 -0.6946  0.0782
 3668TIP3    H132639   1.199   5.104   7.806 -0.2678  0.5406  0.1471
 3668TIP3    H232640   1.240   5.161   7.940  0.1671 -1.8751  1.0853
 3669TIP3   OH232641   5.572   6.122   0.696 -0.1978 -0.2831  0.0788
 3669TIP3    H132642   5.576   6.217   0.711  1.3589 -0.1211 -1.0444
 3669TIP3    H232643   5.564   6.084   0.783  0.1567  0.8615  0.6337
 3670TIP3   OH232644   1.529   3.033   1.974 -0.2210  0.0105 -0.1640
 3670TIP3    H132645   1.551   2.957   1.921 -0.5614 -1.2473  1.4513
 3670TIP3    H232646   1.449   3.068   1.934 -0.5441 -0.9882 -0.4110
 3671TIP3   OH232647   5.289   5.350   0.220  0.0547 -0.6965 -0.2995
 3671TIP3    H132648   5.260   5.441   0.229 -0.4773 -1.0060  1.3316
 3671TIP3    H232649   5.211   5.302   0.194 -0.4926 -1.1845  2.0401
 3672TIP3   OH232650   4.552   3.126   2.366 -0.4951 -0.7471 -0.1895
 3672TIP3    H132651   4.531   3.059   2.430 -0.3467  0.4715  1.1801
 3672TIP3    H232652   4.467   3.156   2.333 -0.6130 -0.7728  0.0899
 3673TIP3   OH232653   1.191   0.581   1.113  0.6357 -0.2725 -0.2244
 3673TIP3    H132654   1.177   0.597   1.206  0.5031 -0.9016 -0.1321
 3673TIP3    H232655   1.137   0.645   1.069  0.7738  0.0948  0.1308
 3674TIP3   OH232656   6.310   2.674   8.111  0.1611 -0.2201 -0.0176
 3674TIP3    H132657   6.233   2.622   8.130 -1.0866  0.8721 -1.8016
 3674TIP3    H232658   6.337   2.648   8.023 -0.0899  1.5955 -0.6819
 3675TIP3   OH232659   2.838   3.418   6.885 -0.3665  0.4108 -0.2071
 3675TIP3    H132660   2.843   3.451   6.975  0.8371 -0.3875  0.0347
 3675TIP3    H232661   2.746   3.430   6.860 -0.7329  0.5662  1.1512
 3676TIP3   OH232662   6.188   1.887   2.262  0.1353  0.3332  0.1675
 3676TIP3    H132663   6.161   1.906   2.352  1.3972  2.0514  0.2534
 3676TIP3    H232664   6.278   1.855   2.270  0.7064  1.6566 -0.5088
 3677TIP3   OH232665   1.043   2.248   7.282  0.5379  0.0715  0.1770
 3677TIP3    H132666   1.055   2.305   7.359  1.8308 -0.1226  0.1466
 3677TIP3    H232667   0.991   2.301   7.221 -0.5524  0.2159  1.1829
 3678TIP3   OH232668   2.513   4.210   8.150 -0.0927  0.3019  0.2382
 3678TIP3    H132669   2.498   4.242   8.239 -0.2224  1.0362 -0.0424
 3678TIP3    H232670   2.528   4.116   8.161 -0.9936  0.2241  0.9352
 3679TIP3   OH232671   6.431   1.592   7.230  0.5828  0.1102  0.2444
 3679TIP3    H132672   6.520   1.627   7.233  1.4893 -1.8438 -1.2356
 3679TIP3    H232673   6.423   1.556   7.141 -2.1592  1.3362 -0.0911
 3680TIP3   OH232674   5.228   3.983   8.261  0.1609  0.5186 -0.2869
 3680TIP3    H132675   5.219   3.888   8.254 -1.8178  0.5719  0.8193
 3680TIP3    H232676   5.320   4.000   8.243  0.9499 -1.7822  1.1730
 3681TIP3   OH232677   0.274   2.160   0.448  0.5095 -0.0174 -0.0867
 3681TIP3    H132678   0.286   2.085   0.506  2.9672 -0.5210 -1.0898
 3681TIP3    H232679   0.221   2.222   0.498 -0.1624 -1.7243  1.4052
 3682TIP3   OH232680   3.744   5.095   7.453 -0.5754  0.1858  0.6276
 3682TIP3    H132681   3.671   5.068   7.509 -0.2948 -0.0104  0.9028
 3682TIP3    H232682   3.781   5.013   7.420 -1.8289  0.3254 -1.2855
 3683TIP3   OH232683   5.272   4.795   1.727 -0.0851  0.0120 -0.2724
 3683TIP3    H132684   5.314   4.808   1.812  1.2692 -0.8016 -0.7909
 3683TIP3    H232685   5.345   4.789   1.665 -0.9241 -1.9785 -1.1353
 3684TIP3   OH232686   1.313   5.569   8.377  0.2484 -0.1664 -0.3571
 3684TIP3    H132687   1.356   5.485   8.360 -0.9512 -0.8638 -0.0821
 3684TIP3    H232688   1.224   5.557   8.345  1.0342  2.4006 -4.1790
 3685TIP3   OH232689   5.869   6.636   1.142  0.0523 -0.5398  0.0628
 3685TIP3    H132690   5.799   6.572   1.155 -0.4965  0.2142  0.9660
 3685TIP3    H232691   5.880   6.641   1.047 -2.1581  0.4121 -0.2104
 3686TIP3   OH232692   4.104   6.567   1.790  0.2655  0.5115  0.1533
 3686TIP3    H132693   4.018   6.550   1.828 -0.4347  1.1051 -1.1200
 3686TIP3    H232694   4.089   6.635   1.725  1.3239 -0.7779 -1.5294
 3687TIP3   OH232695   3.446   2.207   0.364  0.3750  0.1055  0.1790
 3687TIP3    H132696   3.482   2.271   0.302 -2.3175  1.0244 -0.5700
 3687TIP3    H232697   3.454   2.249   0.449  0.3448  0.6265 -0.0713
 3688TIP3   OH232698   6.010   5.883   2.901  0.6490  0.2611  0.2882
 3688TIP3    H132699   6.045   5.821   2.838  0.3628 -0.6254  0.9741
 3688TIP3    H232700   5.916   5.863   2.904  0.1630  2.0692 -0.9485
 3689TIP3   OH232701   5.384   5.813   1.035 -0.1381  0.0079 -0.1685
 3689TIP3    H132702   5.337   5.869   1.096  0.0921  0.1514 -0.1216
 3689TIP3    H232703   5.438   5.756   1.090 -2.0805 -1.8701 -0.0748
 3690TIP3   OH232704   4.146   1.536   8.722 -0.4930  0.1020  0.0780
 3690TIP3    H132705   4.217   1.507   8.664 -1.1894 -1.5235 -0.0074
 3690TIP3    H232706   4.155   1.631   8.725 -1.1620  0.4241 -3.6789
 3691TIP3   OH232707   2.469   3.736   7.782 -0.0795 -0.5801 -0.1022
 3691TIP3    H132708   2.494   3.654   7.738  0.8428 -1.5587  2.0820
 3691TIP3    H232709   2.417   3.707   7.857 -0.5202  0.9158  0.1878
 3692TIP3   OH232710   0.228   2.841   7.988  0.5572  0.2996  0.5671
 3692TIP3    H132711   0.194   2.832   7.899 -0.1516  1.3340  0.7202
 3692TIP3    H232712   0.280   2.762   8.002 -1.0925 -0.9279  0.0127
 3693TIP3   OH232713   3.677   6.189   0.486 -0.2698  0.1866 -0.1168
 3693TIP3    H132714   3.748   6.251   0.470 -0.2830 -0.6156 -4.5379
 3693TIP3    H232715   3.597   6.241   0.481 -0.1593  0.4384  0.6355
 3694TIP3   OH232716   5.862   4.148   7.492  0.8451  0.7715  0.9434
 3694TIP3    H132717   5.810   4.179   7.566 -0.4947 -0.0507  0.3775
 3694TIP3    H232718   5.917   4.079   7.529 -0.7179 -0.5134  0.9683
 3695TIP3   OH232719   6.694   0.971   1.855 -0.3813  0.1616 -0.0954
 3695TIP3    H132720   6.671   0.993   1.945 -2.0940 -1.5108 -0.0674
 3695TIP3    H232721   6.624   0.914   1.825  1.0924 -0.8371 -1.8814
 3696TIP3   OH232722   5.033   0.861   7.234  0.3845  0.2086 -0.4169
 3696TIP3    H132723   5.062   0.771   7.252 -0.0208 -0.0840 -1.2076
 3696TIP3    H232724   4.959   0.851   7.175  0.5900  1.0883 -0.8311
 3697TIP3   OH232725   5.541   1.252   2.468  0.1724 -0.9026  0.2779
 3697TIP3    H132726   5.558   1.225   2.378  1.1691  0.1419  0.1318
 3697TIP3    H232727   5.456   1.297   2.463  0.0843 -1.0981 -0.0781
 3698TIP3   OH232728   3.589   5.220   1.289  0.6166 -0.4873  0.3955
 3698TIP3    H132729   3.557   5.226   1.379 -1.0982  1.2797 -0.2548
 3698TIP3    H232730   3.657   5.288   1.284  1.3860 -1.2238  0.5751
 3699TIP3   OH232731   5.453   4.775   2.217  0.1539 -0.4135  0.4618
 3699TIP3    H132732   5.390   4.732   2.274  1.1945 -2.4063  0.2094
 3699TIP3    H232733   5.538   4.755   2.256  0.7131  1.5163  0.3440
 3700TIP3   OH232734   1.872   4.319   2.760  0.2098  0.6892  0.0355
 3700TIP3    H132735   1.816   4.263   2.814  0.7976 -0.6400 -0.7015
 3700TIP3    H232736   1.847   4.299   2.670  0.9449  1.0711 -0.2631
 3701TIP3   OH232737   5.954   6.705   0.056 -0.1427 -0.2468 -0.3530
 3701TIP3    H132738   5.906   6.623   0.063  0.3636 -0.5317 -0.1079
 3701TIP3    H232739   6.046   6.678   0.048  0.1434  0.3059  0.8229
 3702TIP3   OH232740   4.533   2.346   0.497 -0.3956  0.4009 -0.0092
 3702TIP3    H132741   4.559   2.301   0.578  1.3033  0.6294 -0.3809
 3702TIP3    H232742   4.581   2.428   0.499  0.3429  0.0580 -1.6238
 3703TIP3   OH232743   1.022   0.890   8.004 -0.2790 -0.5864 -0.0049
 3703TIP3    H132744   0.957   0.918   8.068  0.5925 -1.6168  1.3999
 3703TIP3    H232745   0.985   0.811   7.966 -1.2447  0.5631 -1.5508
 3704TIP3   OH232746   3.683   5.943   7.401 -0.0504  0.1649  0.4006
 3704TIP3    H132747   3.674   5.849   7.384  2.0355  0.1726 -1.3009
 3704TIP3    H232748   3.776   5.960   7.386 -0.6805  2.7936 -1.0470
 3705TIP3   OH232749   0.997   6.024   0.918  0.3728 -0.5021 -0.0233
 3705TIP3    H132750   0.945   6.086   0.968  1.5909  1.0761 -0.6128
 3705TIP3    H232751   0.980   6.047   0.827  3.3392  1.2817 -0.2510
 3706TIP3   OH232752   1.064   1.024   0.644 -0.8082  0.5208  0.0378
 3706TIP3    H132753   1.008   1.026   0.566 -0.5135  0.2133 -0.1837
 3706TIP3    H232754   1.008   1.058   0.714 -0.4553  2.7532 -0.6806
 3707TIP3   OH232755   4.679   5.845   8.202 -0.4056  0.5803  0.4045
 3707TIP3    H132756   4.715   5.760   8.226 -1.0245  0.3573  0.5574
 3707TIP3    H232757   4.589   5.843   8.234 -1.2618  0.2891 -1.8455
 3708TIP3   OH232758   5.573   5.460   0.537  0.3904 -0.6230 -0.1420
 3708TIP3    H132759   5.484   5.491   0.518  0.4699 -0.1859  0.1746
 3708TIP3    H232760   5.624   5.540   0.549  1.0274 -0.8571 -1.1693
 3709TIP3   OH232761   6.519   5.106   2.866 -0.4760 -0.9674  0.3739
 3709TIP3    H132762   6.425   5.115   2.847  0.0036  2.1789 -1.0762
 3709TIP3    H232763   6.524   5.107   2.961 -1.9135 -0.8745  0.4721
 3710TIP3   OH232764   4.412   3.747   1.487  0.3879 -0.1629 -0.0342
 3710TIP3    H132765   4.425   3.656   1.513 -2.5367 -0.1366  1.9208
 3710TIP3    H232766   4.467   3.798   1.547 -2.0952 -0.4439  2.6804
 3711TIP3   OH232767   4.037   2.746   0.112  0.8279 -0.5199 -0.2839
 3711TIP3    H132768   4.013   2.770   0.202  0.5253  0.5229 -0.6258
 3711TIP3    H232769   4.119   2.698   0.120  0.4970 -0.9594  0.5973
 3712TIP3   OH232770   1.714   4.902   0.278  0.0557 -0.3133  0.0061
 3712TIP3    H132771   1.708   4.871   0.369  1.3357 -0.9475 -0.1088
 3712TIP3    H232772   1.806   4.893   0.255  0.0833  1.5857 -0.7757
 3713TIP3   OH232773   6.433   2.991   8.033  0.3278  0.5184  0.0816
 3713TIP3    H132774   6.401   2.938   8.105  2.5782 -0.8887  0.1130
 3713TIP3    H232775   6.384   2.960   7.956  0.2038 -0.1846  0.4459
 3714TIP3   OH232776   4.598   0.989   1.349  0.2032  0.6962  0.3133
 3714TIP3    H132777   4.636   0.932   1.417  2.6327  2.5752  0.6906
 3714TIP3    H232778   4.662   0.988   1.278 -0.8014  1.1976 -0.6305
 3715TIP3   OH232779   6.033   1.257   1.977  0.0925 -0.0378  0.6842
 3715TIP3    H132780   6.086   1.210   1.912 -2.1506 -0.3237 -1.0664
 3715TIP3    H232781   5.956   1.201   1.990 -1.3085  1.8045  0.7127
 3716TIP3   OH232782   6.116   0.980   0.318  0.1396 -0.6818 -0.0033
 3716TIP3    H132783   6.138   0.996   0.226  1.8505 -0.4112  0.4118
 3716TIP3    H232784   6.059   1.053   0.342  1.0043  0.1583 -0.4269
 3717TIP3   OH232785   1.732   4.059   1.784 -0.1569  0.2907  0.1020
 3717TIP3    H132786   1.742   4.091   1.874  1.2259 -0.2011  0.1466
 3717TIP3    H232787   1.797   3.989   1.776 -0.0960  0.4824 -1.3620
 3718TIP3   OH232788   3.854   4.959   6.862 -0.1651 -0.1215  0.0914
 3718TIP3    H132789   3.860   4.992   6.773  1.8920  2.3278  1.0065
 3718TIP3    H232790   3.760   4.953   6.880 -0.6118 -0.6089 -2.1725
 3719TIP3   OH232791   2.361   2.450   8.265  0.3842  0.0460  0.2425
 3719TIP3    H132792   2.376   2.364   8.306 -0.3571 -0.0177  0.3974
 3719TIP3    H232793   2.444   2.471   8.223  0.3288 -1.1288 -0.5020
 3720TIP3   OH232794   0.179   6.215   8.545  0.3601  0.0318  0.2900
 3720TIP3    H132795   0.222   6.300   8.535  1.1641 -0.0516  2.5188
 3720TIP3    H232796   0.097   6.235   8.590 -0.5797 -0.1637 -1.2479
 3721TIP3   OH232797   3.565   1.116   7.540  0.0203 -0.1103 -0.4309
 3721TIP3    H132798   3.578   1.103   7.446  0.1341 -1.7557 -0.2136
 3721TIP3    H232799   3.641   1.075   7.580  0.3528  1.2385  0.3743
 3722TIP3   OH232800   3.763   3.511   2.251  0.1357  0.1050 -0.0630
 3722TIP3    H132801   3.800   3.465   2.326 -0.3620 -0.7934 -0.3552
 3722TIP3    H232802   3.715   3.584   2.290  0.8620  0.3499  0.4093
 3723TIP3   OH232803   5.465   3.899   0.331 -0.1437  0.2243 -0.3347
 3723TIP3    H132804   5.469   3.989   0.297 -2.1942  0.1523 -0.8834
 3723TIP3    H232805   5.556   3.877   0.350  0.5323  2.0227 -1.2228
 3724TIP3   OH232806   4.420   5.851   7.626  0.2937  0.1565 -0.4368
 3724TIP3    H132807   4.328   5.838   7.648  1.0378 -0.5607  2.6775
 3724TIP3    H232808   4.421   5.933   7.576 -1.9700  0.3412 -0.2801
 3725TIP3   OH232809   4.013   2.143   7.782  0.3305  0.4490  0.0861
 3725TIP3    H132810   3.966   2.225   7.767 -0.6072 -0.0255  0.3192
 3725TIP3    H232811   4.086   2.145   7.720  2.4143  2.9909  2.3624
 3726TIP3   OH232812   1.542   5.808   7.599 -0.5867 -0.2046 -0.3401
 3726TIP3    H132813   1.496   5.777   7.521 -2.7912 -0.8749  1.1272
 3726TIP3    H232814   1.615   5.748   7.610 -1.3875 -1.3021 -0.8316
 3727TIP3   OH232815   1.613   2.994   8.537 -0.2844 -0.4651  0.0579
 3727TIP3    H132816   1.544   2.928   8.541 -1.2527  0.5306  0.2599
 3727TIP3    H232817   1.591   3.048   8.461 -0.3610  0.5188  0.7512
 3728TIP3   OH232818   6.110   1.872   0.411 -0.5978  0.2710  0.2069
 3728TIP3    H132819   6.052   1.919   0.351 -0.5770  0.3692  0.2640
 3728TIP3    H232820   6.195   1.873   0.367 -0.5856  0.3314  0.2303
 3729TIP3   OH232821   1.370   0.829   2.180 -0.2885 -0.0315  0.0963
 3729TIP3    H132822   1.405   0.741   2.165  0.0444  0.2268 -0.6690
 3729TIP3    H232823   1.441   0.888   2.155 -0.6988  0.4692  0.0931
 3730TIP3   OH232824   2.197   2.902   0.521  0.2237 -0.0423  0.4864
 3730TIP3    H132825   2.282   2.937   0.493  0.7507 -0.1713  1.8635
 3730TIP3    H232826   2.142   2.979   0.534 -0.2377 -0.0007 -1.4433
 3731TIP3   OH232827   2.908   0.456   0.711 -0.4511  0.6571  0.6156
 3731TIP3    H132828   2.956   0.433   0.632  1.8043  3.8408  0.8721
 3731TIP3    H232829   2.930   0.387   0.774  3.1310  1.3848  0.3694
 3732TIP3   OH232830   3.810   3.959   1.157  0.0354  0.4602  0.2823
 3732TIP3    H132831   3.809   3.864   1.154  0.0269  0.3919  1.8931
 3732TIP3    H232832   3.892   3.982   1.199  1.5590  1.3330 -2.8584
 3733TIP3   OH232833   4.876   5.067   2.175  0.7405 -0.2147  0.1230
 3733TIP3    H132834   4.909   5.061   2.265  0.2501 -0.8531  0.2665
 3733TIP3    H232835   4.782   5.050   2.183  0.9700 -2.0814 -0.7191
 3734TIP3   OH232836   2.630   0.411   1.983  0.1869  0.2273  0.0078
 3734TIP3    H132837   2.620   0.428   2.077  2.8659 -1.1031  0.6253
 3734TIP3    H232838   2.685   0.333   1.978 -0.4071 -0.1110 -2.6911
 3735TIP3   OH232839   4.854   2.612   7.573 -0.0103  0.1457 -0.0851
 3735TIP3    H132840   4.922   2.582   7.513  1.2770  0.7272  1.0470
 3735TIP3    H232841   4.878   2.702   7.595 -2.1238  1.0132 -1.0252
 3736TIP3   OH232842   6.212   6.666   0.409  0.3715  0.1761  0.1084
 3736TIP3    H132843   6.301   6.631   0.399  0.2958 -0.0890  0.3564
 3736TIP3    H232844   6.158   6.590   0.431 -0.0326  0.2232 -0.6786
 3737TIP3   OH232845   6.075   5.011   1.259 -0.1660 -0.4871 -0.4476
 3737TIP3    H132846   6.134   5.033   1.186 -0.3649  0.1274 -0.4270
 3737TIP3    H232847   6.073   5.090   1.313 -0.1318 -0.8905  0.1575
 3738TIP3   OH232848   6.392   3.441   8.514  0.4881  0.7837 -0.0810
 3738TIP3    H132849   6.311   3.445   8.565  1.4918 -1.4418  1.8890
 3738TIP3    H232850   6.364   3.452   8.423 -2.3415 -1.7379  0.3196
 3739TIP3   OH232851   3.154   3.831   1.445  0.2063 -0.1871 -0.3412
 3739TIP3    H132852   3.241   3.849   1.411  0.7219  0.7496  1.3703
 3739TIP3    H232853   3.168   3.811   1.537 -1.4282  0.4107  0.0700
 3740TIP3   OH232854   2.075   0.295   2.354 -0.3008  0.2441  0.1448
 3740TIP3    H132855   2.042   0.224   2.299 -1.0368  0.7954 -0.1363
 3740TIP3    H232856   2.001   0.355   2.362  0.6326  1.5032 -0.4704
 3741TIP3   OH232857   4.681   4.552   6.256 -0.2512  0.2292  0.2352
 3741TIP3    H132858   4.660   4.629   6.202  3.4127  0.5033 -1.0830
 3741TIP3    H232859   4.691   4.481   6.192 -2.3893 -1.1522  1.3267
 3742TIP3   OH232860   1.215   5.179   7.264  0.0485 -0.4669  0.1867
 3742TIP3    H132861   1.180   5.160   7.177  1.8374  0.0528 -0.6986
 3742TIP3    H232862   1.150   5.237   7.304  0.3793  1.4858 -1.8540
 3743TIP3   OH232863   5.462   3.077   2.078  0.0831 -0.1160  0.2586
 3743TIP3    H132864   5.439   3.040   2.163 -0.5779 -1.2084 -0.3546
 3743TIP3    H232865   5.377   3.097   2.037  0.3394 -0.6993 -0.5837
 3744TIP3   OH232866   5.471   6.207   1.983  0.3921  0.1073  0.3389
 3744TIP3    H132867   5.496   6.137   2.044  1.8272  0.4003  0.1021
 3744TIP3    H232868   5.530   6.279   2.004  0.2608  0.5449 -0.7668
 3745TIP3   OH232869   2.472   1.298   8.104 -0.6054 -0.0662  0.0257
 3745TIP3    H132870   2.436   1.372   8.055 -2.0291 -1.4899 -1.1832
 3745TIP3    H232871   2.489   1.231   8.038 -0.0083 -1.0811  1.1691
 3746TIP3   OH232872   2.983   0.633   8.507 -0.2678 -0.4495  0.1441
 3746TIP3    H132873   2.990   0.586   8.424 -0.4113 -1.9844  0.9751
 3746TIP3    H232874   3.070   0.669   8.522  0.1097 -1.2787 -0.0356
 3747TIP3   OH232875   1.143   0.400   8.149 -0.1625 -0.7070  0.3014
 3747TIP3    H132876   1.067   0.402   8.208  0.3262 -1.1646  0.9658
 3747TIP3    H232877   1.175   0.310   8.156  0.4365 -0.5162  0.0144
 3748TIP3   OH232878   2.029   1.353   0.781  0.4918 -0.1498  0.2932
 3748TIP3    H132879   1.999   1.303   0.705  1.2131 -2.1736  1.2697
 3748TIP3    H232880   2.080   1.290   0.832  2.1445  1.8180  1.2051
 3749TIP3   OH232881   1.828   2.382   1.745  0.0454 -0.0599 -0.1797
 3749TIP3    H132882   1.751   2.438   1.734 -2.0187 -2.3104  1.7330
 3749TIP3    H232883   1.852   2.392   1.837 -0.8360 -2.6950  0.4198
 3750TIP3   OH232884   3.841   4.332   2.142 -0.0689 -0.2841 -0.1829
 3750TIP3    H132885   3.770   4.282   2.102  0.3047  0.4201 -1.7650
 3750TIP3    H232886   3.850   4.294   2.230 -0.9904 -1.7738 -0.7006
 3751TIP3   OH232887   3.870   3.871   0.752 -0.0176 -0.3248  0.1336
 3751TIP3    H132888   3.936   3.888   0.819  0.1418 -0.3022 -0.0294
 3751TIP3    H232889   3.877   3.945   0.692  0.5011 -0.8305 -0.4420
 3752TIP3   OH232890   0.560   3.983   6.897  0.4112 -0.3643  0.2908
 3752TIP3    H132891   0.613   4.028   6.832 -1.3762  0.5708 -0.5775
 3752TIP3    H232892   0.479   4.033   6.902 -0.7269 -2.1469  1.0261
 3753TIP3   OH232893   5.224   4.882   0.224 -0.1947  0.1747 -0.0281
 3753TIP3    H132894   5.285   4.835   0.280  0.2632  0.6513 -0.1188
 3753TIP3    H232895   5.189   4.952   0.280 -0.5620 -0.0163 -0.0145
 3754TIP3   OH232896   0.130   0.218   1.123 -0.1913 -0.1654  0.7210
 3754TIP3    H132897   0.161   0.137   1.083 -0.7519 -0.2350  0.4285
 3754TIP3    H232898   0.186   0.229   1.201 -0.9312 -1.4909  1.4601
 3755TIP3   OH232899   3.672   4.999   1.104 -0.4944  0.1244 -0.0346
 3755TIP3    H132900   3.667   5.091   1.131  2.6805  0.0070  1.4186
 3755TIP3    H232901   3.755   4.992   1.056 -1.4144 -1.7143 -1.4754
 3756TIP3   OH232902   0.883   5.639   0.673 -0.5955  0.1084  0.0435
 3756TIP3    H132903   0.835   5.633   0.755 -0.0362  2.2335  0.5798
 3756TIP3    H232904   0.845   5.571   0.617 -0.7628 -1.6084  2.1499
 3757TIP3   OH232905   2.243   1.724   2.233 -0.0558 -0.2583  0.0628
 3757TIP3    H132906   2.204   1.699   2.316 -0.4694 -0.7324 -0.2721
 3757TIP3    H232907   2.305   1.793   2.256  0.0982 -0.6345  0.8124
 3758TIP3   OH232908   1.613   3.924   2.275  0.5096  0.2549  0.1223
 3758TIP3    H132909   1.519   3.907   2.276  0.4550  0.5528  0.4143
 3758TIP3    H232910   1.633   3.946   2.184 -0.1509  2.5121  0.4532
 3759TIP3   OH232911   4.811   5.193   1.240  0.2267  0.1949  0.5566
 3759TIP3    H132912   4.843   5.273   1.282  1.5352  0.3906 -0.7479
 3759TIP3    H232913   4.748   5.157   1.303 -0.2212  2.1004  1.2832
 3760TIP3   OH232914   3.387   6.526   0.114  0.2808 -0.1921 -0.6386
 3760TIP3    H132915   3.465   6.579   0.131  0.6795 -0.9360 -0.0844
 3760TIP3    H232916   3.383   6.466   0.189  0.2173 -1.3863 -1.5791
 3761TIP3   OH232917   2.950   4.510   1.726 -0.0058  0.0178  0.1658
 3761TIP3    H132918   2.866   4.465   1.739  0.4983 -1.1045 -0.3534
 3761TIP3    H232919   2.939   4.556   1.642  0.5184 -1.6531 -0.8549
 3762TIP3   OH232920   5.045   6.151   7.262  0.1184  0.1294 -0.0962
 3762TIP3    H132921   5.135   6.121   7.273  0.1051  0.0346 -0.2517
 3762TIP3    H232922   5.021   6.125   7.174  0.2737  1.0471 -0.4167
 3763TIP3   OH232923   3.833   4.642   8.760  0.0910  0.1013  0.1292
 3763TIP3    H132924   3.914   4.691   8.776 -1.6570  2.2589  3.6683
 3763TIP3    H232925   3.828   4.581   8.834 -0.9826 -0.8665 -0.6988
 3764TIP3   OH232926   4.834   5.093   1.721 -0.4585 -0.1349  0.2654
 3764TIP3    H132927   4.860   5.037   1.794 -0.6059 -0.2323  0.2422
 3764TIP3    H232928   4.909   5.089   1.661 -0.2729  0.0725  0.4851
 3765TIP3   OH232929   2.486   5.515   1.716 -0.0409  0.2177  0.0943
 3765TIP3    H132930   2.527   5.460   1.783 -0.7652 -1.0835 -0.5027
 3765TIP3    H232931   2.523   5.602   1.731  0.7332 -0.3081  1.3993
 3766TIP3   OH232932   5.362   4.444   8.552  0.0160 -0.1395  0.3688
 3766TIP3    H132933   5.380   4.502   8.478 -1.2548  0.2518  0.3346
 3766TIP3    H232934   5.335   4.503   8.623  1.4140 -0.4947  1.2335
 3767TIP3   OH232935   0.314   5.975   0.880 -0.2544  0.2840  0.1958
 3767TIP3    H132936   0.319   5.947   0.971  0.7256  0.5659  0.2387
 3767TIP3    H232937   0.376   5.919   0.834 -1.6836 -0.7567 -0.5582
 3768TIP3   OH232938   1.814   5.331   7.183  0.1936 -0.0957  0.0689
 3768TIP3    H132939   1.848   5.263   7.125  0.9399  0.5500 -0.2741
 3768TIP3    H232940   1.849   5.413   7.147 -1.3216  0.5610  0.0160
 3769TIP3   OH232941   5.218   3.110   1.939  0.1891  0.2693  0.2932
 3769TIP3    H132942   5.169   3.029   1.920  1.1238 -0.6324  1.5241
 3769TIP3    H232943   5.234   3.149   1.853  1.3577 -1.8638 -0.5385
 3770TIP3   OH232944   5.608   3.873   2.012  0.6887  0.0903 -0.5445
 3770TIP3    H132945   5.578   3.867   1.921  0.8778 -0.0117 -0.6020
 3770TIP3    H232946   5.607   3.783   2.044 -2.1214  0.3908  0.4776
 3771TIP3   OH232947   0.779   1.375   1.733  0.2549  0.0594  0.6050
 3771TIP3    H132948   0.697   1.387   1.686  0.5722 -0.3190 -0.0645
 3771TIP3    H232949   0.838   1.335   1.669  1.2408  1.1317  0.8128
 3772TIP3   OH232950   3.624   0.332   8.413 -0.1878  0.4553  0.2019
 3772TIP3    H132951   3.580   0.390   8.351 -2.1230 -0.2608  0.8586
 3772TIP3    H232952   3.580   0.346   8.496 -0.3246 -1.5135  0.5159
 3773TIP3   OH232953   1.542   6.677   0.252  0.1336  0.1286  0.1778
 3773TIP3    H132954   1.622   6.683   0.304 -0.6126 -2.7644  1.8465
 3773TIP3    H232955   1.477   6.727   0.301  0.1449 -0.2102  0.5437
 3774TIP3   OH232956   4.885   6.672   7.051  0.2010  0.1657  0.1165
 3774TIP3    H132957   4.807   6.655   6.998  0.8388 -1.2492 -0.4162
 3774TIP3    H232958   4.884   6.767   7.065 -1.9221  0.1110  0.6437
 3775TIP3   OH232959   5.949   3.043   2.378 -0.1076 -0.0479 -0.5416
 3775TIP3    H132960   6.010   3.031   2.306  0.7395  1.4121 -0.1222
 3775TIP3    H232961   6.004   3.047   2.456 -0.9964 -1.4755  0.1994
 3776TIP3   OH232962   3.609   2.147   1.680 -0.2510  0.1818 -0.0952
 3776TIP3    H132963   3.515   2.136   1.690 -0.4150  1.5331 -0.0201
 3776TIP3    H232964   3.625   2.240   1.694  1.0738  0.0175 -0.3059
 3777TIP3   OH232965   0.412   2.646   8.054  0.2579  0.0047 -0.2501
 3777TIP3    H132966   0.496   2.643   8.100 -0.0161  0.5973  0.3105
 3777TIP3    H232967   0.371   2.562   8.075  0.8773 -0.4676 -0.8737
 3778TIP3   OH232968   5.213   2.159   2.419  0.1357  0.2069 -0.3580
 3778TIP3    H132969   5.145   2.093   2.406 -0.3322  0.4970  0.5412
 3778TIP3    H232970   5.232   2.156   2.513 -1.2169  2.6055  0.0684
 3779TIP3   OH232971   0.694   5.378   8.234  0.1449  0.1273  0.1309
 3779TIP3    H132972   0.777   5.341   8.204 -0.5579 -0.4476 -1.2176
 3779TIP3    H232973   0.708   5.472   8.232  0.3664  0.1001 -1.4701
 3780TIP3   OH232974   2.946   4.237   1.497  0.2038 -0.2597  0.2419
 3780TIP3    H132975   2.928   4.143   1.489  0.8855 -0.4141  0.4689
 3780TIP3    H232976   3.035   4.241   1.530  0.3059  0.4768 -0.1197
 3781TIP3   OH232977   3.831   0.616   7.523  0.1295 -0.1809  0.4091
 3781TIP3    H132978   3.825   0.669   7.443  2.5229  1.2416  1.0602
 3781TIP3    H232979   3.810   0.527   7.495 -0.5145  0.5120 -1.4886
 3782TIP3   OH232980   5.315   2.601   7.131 -0.5545  0.4317 -0.4245
 3782TIP3    H132981   5.301   2.521   7.182 -2.5344  1.4229  0.6816
 3782TIP3    H232982   5.315   2.572   7.040 -1.0268 -0.8457 -0.0351
 3783TIP3   OH232983   2.157   0.916   0.458 -0.7302 -0.0362 -0.0872
 3783TIP3    H132984   2.078   0.923   0.405 -1.6614 -1.3216  1.0561
 3783TIP3    H232985   2.177   0.822   0.459  2.2223  0.4277 -2.2778
 3784TIP3   OH232986   5.128   0.696   2.202 -0.3359  0.1865 -0.2320
 3784TIP3    H132987   5.097   0.643   2.275  0.5203  0.2959  0.2176
 3784TIP3    H232988   5.094   0.652   2.124 -0.8907 -0.1722  0.2012
 3785TIP3   OH232989   4.981   6.267   7.923  0.5545 -0.3461  0.1346
 3785TIP3    H132990   5.025   6.234   8.002  2.8587 -0.2216 -1.0397
 3785TIP3    H232991   4.989   6.196   7.860  0.7161  0.3961 -0.6905
 3786TIP3   OH232992   1.484   0.487   0.737 -0.3123  0.1181 -0.6783
 3786TIP3    H132993   1.447   0.455   0.819  1.2557 -0.5333 -0.1897
 3786TIP3    H232994   1.415   0.470   0.672 -1.5666  0.6101  0.4591
 3787TIP3   OH232995   0.092   4.930   8.263  0.3845  0.1060 -0.6853
 3787TIP3    H132996   0.172   4.982   8.262 -0.0528  0.8050 -0.2385
 3787TIP3    H232997   0.022   4.993   8.241 -0.4843  0.3311  2.2839
 3788TIP3   OH232998   5.429   0.443   1.627  0.7303 -0.0210  0.1379
 3788TIP3    H132999   5.420   0.414   1.536  0.2344  1.3460 -0.2711
 3788TIP3    H233000   5.384   0.375   1.678  0.5677 -0.5408 -0.6855
 3789TIP3   OH233001   4.307   3.797   7.450 -0.2468 -0.7082 -0.2909
 3789TIP3    H133002   4.219   3.781   7.485 -0.3667  0.0209 -0.2387
 3789TIP3    H233003   4.348   3.855   7.514 -0.2284  0.0905 -1.0073
 3790TIP3   OH233004   4.218   3.298   8.582 -0.2148 -0.4718  0.1469
 3790TIP3    H133005   4.139   3.352   8.580  0.5856  0.7104 -0.7843
 3790TIP3    H233006   4.261   3.315   8.498  1.9420  0.2991  1.3237
 3791TIP3   OH233007   2.146   3.422   0.112  0.0830  0.3005  0.6488
 3791TIP3    H133008   2.214   3.416   0.044 -0.1597  0.2630  0.4055
 3791TIP3    H233009   2.065   3.432   0.063  0.0124  1.3390  0.9565
 3792TIP3   OH233010   3.553   3.295   0.898  0.6110  0.9389  0.0449
 3792TIP3    H133011   3.594   3.350   0.831  1.6962  1.4825  1.1204
 3792TIP3    H233012   3.519   3.357   0.962 -0.7096  0.4333 -0.1430
 3793TIP3   OH233013   0.419   6.658   8.059  0.0467 -0.2500  0.0050
 3793TIP3    H133014   0.403   6.607   7.979 -0.4175  0.4067 -0.3284
 3793TIP3    H233015   0.397   6.598   8.130 -0.9859 -0.3599 -0.3943
 3794TIP3   OH233016   3.091   0.644   0.808 -0.2204  0.3177 -0.0315
 3794TIP3    H133017   3.168   0.625   0.754  0.4501 -1.0699  1.3453
 3794TIP3    H233018   3.025   0.582   0.779 -0.1994  0.2503  0.0658
 3795TIP3   OH233019   3.018   2.284   8.735 -0.1140  0.2285  0.1618
 3795TIP3    H133020   2.970   2.366   8.723  0.2664  1.0884  3.4569
 3795TIP3    H233021   3.103   2.311   8.770  1.0307 -1.5009 -1.1181
 3796TIP3   OH233022   6.032   2.105   7.900  0.4671 -0.5822 -0.2734
 3796TIP3    H133023   5.941   2.114   7.874 -0.0231 -1.4550  1.0350
 3796TIP3    H233024   6.070   2.046   7.835  0.6117  1.1724 -1.8746
 3797TIP3   OH233025   6.521   1.077   1.350 -0.0787  0.1773  0.5102
 3797TIP3    H133026   6.493   1.017   1.281 -1.6425  1.3188  0.1110
 3797TIP3    H233027   6.547   1.019   1.422  0.2818 -1.0054 -0.5231
 3798TIP3   OH233028   6.227   3.279   1.074 -0.1217 -0.3644  0.1981
 3798TIP3    H133029   6.231   3.289   0.979  0.4916  0.8551  0.3297
 3798TIP3    H233030   6.279   3.200   1.092 -0.9980 -1.1296 -0.5318
 3799TIP3   OH233031   1.441   4.567   0.871  0.6105 -0.2458 -0.0896
 3799TIP3    H133032   1.483   4.613   0.798  0.5525 -2.7027 -1.8106
 3799TIP3    H233033   1.503   4.498   0.895 -1.2195 -2.3356 -0.9581
 3800TIP3   OH233034   3.126   5.214   1.667 -0.4238 -0.0865 -0.4664
 3800TIP3    H133035   3.138   5.119   1.672 -1.9158 -0.2894 -0.0984
 3800TIP3    H233036   3.203   5.251   1.711  0.0502 -1.1364 -0.3954
 3801TIP3   OH233037   5.196   2.275   0.526 -0.0581  0.3498  0.7320
 3801TIP3    H133038   5.257   2.292   0.598  0.1626 -0.5043  0.7544
 3801TIP3    H233039   5.116   2.247   0.569 -0.2752  0.8706  0.6771
 3802TIP3   OH233040   1.369   4.756   8.154  0.0546  0.5616 -0.2769
 3802TIP3    H133041   1.435   4.691   8.179 -1.3180 -0.0749  1.8827
 3802TIP3    H233042   1.289   4.726   8.196 -0.9744  2.8386 -0.5091
 3803TIP3   OH233043   3.339   2.208   2.472  0.1547 -0.1264  0.0604
 3803TIP3    H133044   3.345   2.139   2.406  1.8567 -0.2117  0.2647
 3803TIP3    H233045   3.399   2.276   2.441 -0.5611  0.7306  0.4956
 3804TIP3   OH233046   4.505   4.877   7.370  0.1663 -0.6688 -0.3421
 3804TIP3    H133047   4.542   4.801   7.324  0.7264  0.0919 -1.1765
 3804TIP3    H233048   4.527   4.952   7.315 -1.3635 -0.0129 -0.1186
 3805TIP3   OH233049   4.317   4.847   6.939  0.3058  0.3951  0.1140
 3805TIP3    H133050   4.361   4.931   6.930 -2.6110  1.9058 -1.3752
 3805TIP3    H233051   4.296   4.840   7.032 -0.9422  2.2146  0.0148
 3806TIP3   OH233052   6.282   3.431   1.277  0.1368  0.0194 -0.2718
 3806TIP3    H133053   6.306   3.512   1.233  2.4303 -1.5084 -2.1024
 3806TIP3    H233054   6.234   3.381   1.211 -0.8653 -0.3170  0.6798
 3807TIP3   OH233055   6.727   5.649   0.418 -0.1561  0.1214 -0.3743
 3807TIP3    H133056   6.687   5.710   0.480 -1.1286  0.6725 -1.5094
 3807TIP3    H233057   6.656   5.588   0.395  0.7917 -1.4944  0.7359
 3808TIP3   OH233058   0.884   2.861   8.383  0.1854  0.2394  0.2177
 3808TIP3    H133059   0.889   2.787   8.443 -0.3176  0.5748  0.6803
 3808TIP3    H233060   0.790   2.876   8.369  0.2628  1.1103  0.5396
 3809TIP3   OH233061   2.814   0.959   1.224  0.3785  0.4452 -0.2233
 3809TIP3    H133062   2.804   0.880   1.276  1.6188  0.7073  0.4463
 3809TIP3    H233063   2.749   0.950   1.154 -1.2678  0.0438  1.2867
 3810TIP3   OH233064   4.420   2.388   2.323  0.0691  0.3028 -0.0725
 3810TIP3    H133065   4.427   2.302   2.364 -0.1243  0.6394  0.6758
 3810TIP3    H233066   4.433   2.451   2.394 -1.3069  0.9026 -0.3095
 3811TIP3   OH233067   1.722   1.603   2.080 -0.0426 -0.5115 -0.7605
 3811TIP3    H133068   1.774   1.673   2.041  0.2900  0.5129  1.4391
 3811TIP3    H233069   1.784   1.554   2.133 -1.1240  0.3222  1.3748
 3812TIP3   OH233070   5.120   3.013   7.141  0.0156  0.1748 -0.6788
 3812TIP3    H133071   5.139   3.086   7.082 -0.8803  0.9489 -0.0411
 3812TIP3    H233072   5.180   3.026   7.215 -0.7225  0.7768 -0.1671
 3813TIP3   OH233073   5.055   1.670   8.144 -0.0027  0.5085  0.1941
 3813TIP3    H133074   5.080   1.760   8.124  1.0220  0.4054  0.9142
 3813TIP3    H233075   5.110   1.646   8.219 -1.3536 -0.1991  1.0002
 3814TIP3   OH233076   5.805   5.139   1.261  0.5433  0.8966  0.6547
 3814TIP3    H133077   5.870   5.209   1.272  0.7013  1.0233 -0.8471
 3814TIP3    H233078   5.857   5.059   1.255  0.3024  0.4182  3.6368
 3815TIP3   OH233079   0.936   6.711   2.504  0.2807 -0.5824  0.5472
 3815TIP3    H133080   0.852   6.752   2.526  0.2533  0.0660 -0.6426
 3815TIP3    H233081   0.960   6.661   2.582 -1.1000 -0.6032  0.9887
 3816TIP3   OH233082   2.381   6.187   8.085 -0.0459  0.1584 -0.9200
 3816TIP3    H133083   2.420   6.237   8.157  1.0297  0.0300 -1.3979
 3816TIP3    H233084   2.417   6.099   8.094  0.6389  0.3102 -2.0014
 3817TIP3   OH233085   2.111   6.280   7.537  0.4380  0.3889 -0.0860
 3817TIP3    H133086   2.196   6.308   7.502  0.0753  1.0708 -0.4460
 3817TIP3    H233087   2.133   6.225   7.612  1.2021  0.2949 -0.3629
 3818TIP3   OH233088   2.284   4.287   8.026  0.0851 -0.4790 -0.3191
 3818TIP3    H133089   2.291   4.371   7.981 -0.6522 -0.2338  0.0109
 3818TIP3    H233090   2.373   4.269   8.057  0.1453  0.4606  0.1042
 3819TIP3   OH233091   2.689   3.573   1.822  0.3829 -0.0457  0.1734
 3819TIP3    H133092   2.692   3.514   1.747 -0.6034 -0.6275  0.5639
 3819TIP3    H233093   2.690   3.515   1.898  0.7010  0.5055  0.6001
 3820TIP3   OH233094   4.001   3.027   7.897  0.2926 -0.1361 -0.3517
 3820TIP3    H133095   3.948   3.068   7.829 -0.1720 -0.4583 -0.1846
 3820TIP3    H233096   3.994   2.933   7.880 -0.8688 -0.2943  0.9046
 3821TIP3   OH233097   4.144   3.959   0.914  0.4387 -0.1146  0.2546
 3821TIP3    H133098   4.223   3.976   0.863  0.9867 -1.7141  0.5164
 3821TIP3    H233099   4.140   4.032   0.976  1.6479  0.0491  0.1658
 3822TIP3   OH233100   4.942   1.520   2.641 -0.2254 -0.7934  0.3694
 3822TIP3    H133101   4.977   1.431   2.637  1.2303 -0.2610  0.8469
 3822TIP3    H233102   4.905   1.528   2.728  0.4570 -0.6495  0.6520
 3823TIP3   OH233103   2.289   2.256   7.559 -0.8203  0.4542 -0.3769
 3823TIP3    H133104   2.316   2.331   7.506 -1.5704  0.7942 -0.2797
 3823TIP3    H233105   2.212   2.286   7.607 -1.0181 -0.3223 -0.1953
 3824TIP3   OH233106   6.097   0.411   8.138  0.6242  0.0534  0.1978
 3824TIP3    H133107   6.080   0.505   8.139  0.8963  0.1533 -1.4416
 3824TIP3    H233108   6.037   0.375   8.203 -1.1271  1.1269 -0.7351
 3825TIP3   OH233109   6.580   6.432   7.594  0.0889 -0.0959 -0.0176
 3825TIP3    H133110   6.673   6.422   7.616  0.4069  0.6851 -0.9423
 3825TIP3    H233111   6.535   6.427   7.679  0.9615 -0.4902  0.4436
 3826TIP3   OH233112   3.384   3.144   8.680 -0.1911  0.1610  0.2756
 3826TIP3    H133113   3.336   3.191   8.612  1.4190 -0.2125 -1.2073
 3826TIP3    H233114   3.449   3.093   8.632 -0.0561 -1.4133  2.0203
 3827TIP3   OH233115   3.299   5.276   0.394 -0.3627 -0.4892 -0.4513
 3827TIP3    H133116   3.367   5.332   0.358  0.0728 -0.1699  0.7896
 3827TIP3    H233117   3.334   5.188   0.387  0.4897 -0.2730  0.7563
 3828TIP3   OH233118   2.896   6.163   6.999 -0.4544  0.7043  0.0649
 3828TIP3    H133119   2.920   6.107   6.926  3.3297 -1.1256  2.3768
 3828TIP3    H233120   2.822   6.118   7.041 -3.6239  2.4730 -3.0420
 3829TIP3   OH233121   5.904   0.597   7.643 -0.4994  0.0063 -0.4327
 3829TIP3    H133122   5.899   0.523   7.583 -1.0574  0.4197 -0.9092
 3829TIP3    H233123   5.832   0.654   7.617 -0.0079  0.7785 -0.1588
 3830TIP3   OH233124   0.468   3.341   2.886 -0.5268 -0.4590 -0.2430
 3830TIP3    H133125   0.491   3.248   2.888  3.2766  0.3411  0.8488
 3830TIP3    H233126   0.465   3.367   2.978 -2.7358  0.3497 -0.4808
 3831TIP3   OH233127   4.895   4.366   7.411  0.5916  0.4586 -0.4801
 3831TIP3    H133128   4.952   4.389   7.484  1.3855  0.5435 -1.1091
 3831TIP3    H233129   4.955   4.334   7.343 -0.2011 -0.3933 -0.8005
 3832TIP3   OH233130   1.252   2.346   0.101  0.6773 -0.0029 -0.4690
 3832TIP3    H133131   1.231   2.385   0.185  1.0522  1.1034 -0.8560
 3832TIP3    H233132   1.347   2.359   0.092  0.9535 -1.6951 -0.2979
 3833TIP3   OH233133   0.967   0.422   0.723 -0.1199 -0.1682  0.2360
 3833TIP3    H133134   0.952   0.471   0.804  0.3591  0.9722 -0.3480
 3833TIP3    H233135   0.879   0.397   0.694 -0.2275 -1.9039  1.8604
 3834TIP3   OH233136   3.890   2.980   1.923  0.3496 -0.0350 -0.3117
 3834TIP3    H133137   3.844   3.030   1.855  0.9774  1.0377  0.0355
 3834TIP3    H233138   3.844   3.003   2.004 -0.4617 -1.3884 -0.3455
 3835TIP3   OH233139   5.662   0.887   1.795 -0.0466 -0.2951  0.3772
 3835TIP3    H133140   5.679   0.798   1.824  2.3515 -0.4663 -1.2543
 3835TIP3    H233141   5.737   0.938   1.827 -0.5002  0.7563 -0.1669
 3836TIP3   OH233142   0.347   5.385   1.873  0.0913  0.1480 -0.1505
 3836TIP3    H133143   0.412   5.429   1.928  1.0685 -0.6905 -0.6065
 3836TIP3    H233144   0.398   5.324   1.819 -1.1693 -1.2571  0.1823
 3837TIP3   OH233145   3.843   2.636   7.469  0.0484 -0.2754 -0.2940
 3837TIP3    H133146   3.927   2.625   7.424  0.5543 -1.1709  0.8188
 3837TIP3    H233147   3.814   2.547   7.489 -0.4248  0.0704  0.6543
 3838TIP3   OH233148   0.950   5.255   8.161 -0.4571  0.2386 -0.2559
 3838TIP3    H133149   0.932   5.207   8.081  1.0200  1.0881 -1.1293
 3838TIP3    H233150   0.970   5.187   8.226  0.4059 -0.3859 -1.1554
 3839TIP3   OH233151   1.695   4.276   6.505  0.3831  0.1670  0.1591
 3839TIP3    H133152   1.735   4.201   6.550 -0.3447  0.0398  0.5963
 3839TIP3    H233153   1.704   4.348   6.567  0.5381  0.3039 -0.0195
 3840TIP3   OH233154   3.239   2.052   8.818 -0.1267  0.5622 -0.2723
 3840TIP3    H133155   3.183   2.047   8.896  2.0503 -1.7918  1.3207
 3840TIP3    H233156   3.267   2.143   8.815  0.3492  0.5822  2.2729
 3841TIP3   OH233157   6.366   0.507   8.234 -0.0779 -0.2745 -0.0847
 3841TIP3    H133158   6.411   0.498   8.150  0.7687  1.1087  0.1866
 3841TIP3    H233159   6.277   0.534   8.211  0.4265  1.0870 -0.5379
 3842TIP3   OH233160   2.320   0.248   0.898 -0.0706  0.8111 -0.6268
 3842TIP3    H133161   2.396   0.275   0.848 -0.6469  0.5006 -1.6972
 3842TIP3    H233162   2.293   0.165   0.859 -0.3369  0.3929  0.4192
 3843TIP3   OH233163   5.718   1.170   7.938  0.3451  0.2469 -0.3615
 3843TIP3    H133164   5.649   1.154   7.874 -0.4476 -1.4053  0.8206
 3843TIP3    H233165   5.754   1.255   7.914 -2.7525  1.6632 -0.4468
 3844TIP3   OH233166   2.954   5.551   7.561  0.3862  0.4309  0.6811
 3844TIP3    H133167   2.949   5.460   7.534 -1.6256  0.1766  1.7598
 3844TIP3    H233168   2.895   5.598   7.501  0.0084  0.7255  1.2787
 3845TIP3   OH233169   5.378   4.759   7.681  0.5760 -0.0334 -0.3526
 3845TIP3    H133170   5.399   4.837   7.630 -0.5444  1.3081  1.1522
 3845TIP3    H233171   5.461   4.733   7.720  1.1044 -0.0759 -1.4454
 3846TIP3   OH233172   6.722   6.231   0.428  0.3379 -0.2512 -0.5037
 3846TIP3    H133173   6.651   6.219   0.365 -0.1830 -3.0880  0.4678
 3846TIP3    H233174   6.798   6.190   0.387  0.0165 -2.0411  0.6033
 3847TIP3   OH233175   5.965   2.751   0.250  0.2645 -0.0465  0.8280
 3847TIP3    H133176   6.033   2.685   0.237  0.8029 -0.2469  3.9312
 3847TIP3    H233177   5.883   2.702   0.246  0.4407 -0.2807 -0.2099
 3848TIP3   OH233178   3.391   2.009   7.155 -0.3957 -0.2338  0.2466
 3848TIP3    H133179   3.347   2.058   7.086 -0.2002 -0.4421 -0.0295
 3848TIP3    H233180   3.321   1.986   7.217 -0.5890 -0.1359  0.0632
 3849TIP3   OH233181   5.812   4.741   7.997 -0.1794 -0.0744 -0.3944
 3849TIP3    H133182   5.847   4.668   8.047  1.3178  1.5026  0.9946
 3849TIP3    H233183   5.739   4.774   8.049 -0.2411  0.0079 -0.5315
 3850TIP3   OH233184   5.013   3.583   0.462  0.3032  0.2653 -0.0992
 3850TIP3    H133185   5.035   3.541   0.545 -0.6151 -1.5026 -0.6899
 3850TIP3    H233186   5.067   3.537   0.397 -1.1987 -0.4769 -0.8568
 3851TIP3   OH233187   5.734   2.258   0.283 -0.2138 -0.4752  0.0839
 3851TIP3    H133188   5.723   2.234   0.375  0.6203  0.6265  0.4865
 3851TIP3    H233189   5.723   2.353   0.281  3.3921  0.0762 -0.2971
 3852TIP3   OH233190   0.448   2.349   2.101  0.2037 -0.6102 -0.3390
 3852TIP3    H133191   0.525   2.406   2.108 -0.0973 -0.2351 -0.0781
 3852TIP3    H233192   0.374   2.409   2.099 -0.1890 -1.0081  1.0744
 3853TIP3   OH233193   1.767   3.869   1.546  0.9718 -0.1113  0.0839
 3853TIP3    H133194   1.791   3.930   1.476  1.1758  1.1035  1.1833
 3853TIP3    H233195   1.850   3.844   1.587  0.8575 -0.8419 -0.1036
 3854TIP3   OH233196   0.910   1.091   0.434  0.9690 -0.5304  0.1724
 3854TIP3    H133197   0.941   1.181   0.430 -1.5450  0.3873 -0.6051
 3854TIP3    H233198   0.927   1.056   0.346 -0.1451 -0.0047 -0.2759
 3855TIP3   OH233199   0.384   0.028   2.255  0.2457  0.3494  0.1194
 3855TIP3    H133200   0.409  -0.036   2.321 -0.5287  0.0066  0.0942
 3855TIP3    H233201   0.290   0.041   2.269  0.1322  0.5013 -0.7137
 3856TIP3   OH233202   0.182   4.165   1.609 -0.2251  0.3840 -0.2446
 3856TIP3    H133203   0.206   4.149   1.701  1.6235  0.4848 -0.6571
 3856TIP3    H233204   0.203   4.082   1.565 -0.1395  0.6607 -0.7299
 3857TIP3   OH233205   4.700   4.179   7.464  0.0691  0.3600  0.3308
 3857TIP3    H133206   4.774   4.238   7.463  0.8770 -0.6355 -0.3634
 3857TIP3    H233207   4.712   4.126   7.543 -0.2547  0.6022  0.5508
 3858TIP3   OH233208   2.298   1.144   0.560 -0.8938 -0.2719 -0.9257
 3858TIP3    H133209   2.211   1.162   0.596 -0.6727 -1.2459  0.1516
 3858TIP3    H233210   2.283   1.071   0.499 -0.7686 -0.7665 -0.3737
 3859TIP3   OH233211   0.406   0.446   1.684 -0.0351 -0.2531 -0.5823
 3859TIP3    H133212   0.414   0.541   1.682 -1.0938 -0.1596 -0.9148
 3859TIP3    H233213   0.455   0.416   1.607  0.4355  0.0106 -0.3859
 3860TIP3   OH233214   0.944   3.460   1.783  0.0365  0.6918 -0.3693
 3860TIP3    H133215   1.006   3.459   1.711 -0.1617  0.5190 -0.5382
 3860TIP3    H233216   0.858   3.454   1.742 -0.1328  1.5799 -0.1745
 3861TIP3   OH233217   2.925   2.484   8.510  0.3932 -0.3055  0.0185
 3861TIP3    H133218   2.920   2.534   8.428 -0.2385 -0.8161 -0.2673
 3861TIP3    H233219   2.853   2.421   8.503  1.2637 -1.3468  0.3068
 3862TIP3   OH233220   5.471   4.800   1.518 -0.2828 -0.0285 -0.2395
 3862TIP3    H133221   5.528   4.861   1.471  0.8180 -1.7346 -1.2422
 3862TIP3    H233222   5.531   4.733   1.552 -1.3792 -0.2785  1.3200
 3863TIP3   OH233223   2.773   6.385   0.863 -0.4623 -0.3393  0.0746
 3863TIP3    H133224   2.798   6.447   0.794 -0.1348 -2.2311 -1.6040
 3863TIP3    H233225   2.693   6.344   0.830 -0.9035 -0.5259  1.3380
 3864TIP3   OH233226   0.036   5.012   8.752 -0.4708  0.2785 -0.2532
 3864TIP3    H133227   0.014   4.968   8.670 -1.7375 -1.6488  1.0360
 3864TIP3    H233228   0.117   4.970   8.781 -0.2648  0.6435 -0.2960
 3865TIP3   OH233229   3.432   3.940   6.790 -0.1972  0.3339 -0.4823
 3865TIP3    H133230   3.444   3.976   6.878  1.1815  0.8296 -0.8380
 3865TIP3    H233231   3.408   4.016   6.737 -2.1427 -0.1527 -0.3542
 3866TIP3   OH233232   5.197   0.175   2.378 -0.0035  0.1024 -0.3708
 3866TIP3    H133233   5.257   0.132   2.439 -0.7070  1.0216  1.0249
 3866TIP3    H233234   5.110   0.149   2.408 -0.4094  1.6647 -0.0934
 3867TIP3   OH233235   4.482   3.552   0.033 -0.5859 -0.1403  0.2693
 3867TIP3    H133236   4.420   3.479   0.044  1.0256 -1.7922 -0.8832
 3867TIP3    H233237   4.467   3.582  -0.057 -0.2872  0.0188  0.2732
 3868TIP3   OH233238   0.580   6.463   8.381 -0.1006 -0.5025 -0.3935
 3868TIP3    H133239   0.663   6.498   8.411 -0.8547  2.1812 -1.1141
 3868TIP3    H233240   0.590   6.455   8.286 -0.6016 -0.2177 -0.4797
 3869TIP3   OH233241   3.847   1.244   7.585  0.3786 -0.4806  0.1793
 3869TIP3    H133242   3.887   1.162   7.557 -0.7350 -1.2429  0.7946
 3869TIP3    H233243   3.897   1.270   7.662  1.1160 -0.2486 -0.3592
 3870TIP3   OH233244   3.310   6.802   8.077 -0.0668 -1.0006  0.8100
 3870TIP3    H133245   3.369   6.737   8.039  1.3033  0.0777  1.0229
 3870TIP3    H233246   3.367   6.857   8.131 -1.5366 -0.9060  2.3450
 3871TIP3   OH233247   2.158   1.977   1.743 -0.3351  0.1969 -0.1864
 3871TIP3    H133248   2.094   2.006   1.678 -0.1555  1.4041  0.1616
 3871TIP3    H233249   2.126   1.891   1.771 -0.3462 -0.4252 -1.9549
 3872TIP3   OH233250   3.239   0.632   0.336 -0.1291 -0.4508  0.1132
 3872TIP3    H133251   3.219   0.706   0.278  0.5757  0.2839  0.7772
 3872TIP3    H233252   3.261   0.561   0.276  0.6324  0.3057 -0.5493
 3873TIP3   OH233253   1.222   1.514   7.902  0.0850  0.3582 -0.4296
 3873TIP3    H133254   1.305   1.557   7.923 -0.2113  0.7011  0.0493
 3873TIP3    H233255   1.208   1.453   7.974  0.5748 -0.6554 -1.1783
 3874TIP3   OH233256   5.928   5.001   7.966  0.0822 -0.8488  0.3200
 3874TIP3    H133257   6.015   4.976   7.934 -0.1636 -0.4570 -0.7015
 3874TIP3    H233258   5.876   4.921   7.959 -0.0047 -0.7358 -0.4214
 3875TIP3   OH233259   2.027   1.899   8.184 -0.0784 -0.4290 -0.5319
 3875TIP3    H133260   2.099   1.959   8.204 -0.0385 -0.6327 -0.0623
 3875TIP3    H233261   2.061   1.813   8.207 -0.3383 -0.5706 -0.6770
 3876TIP3   OH233262   0.850   2.949   0.120 -0.0389 -0.1925 -0.7799
 3876TIP3    H133263   0.844   3.024   0.178 -1.7531 -0.4083 -0.6105
 3876TIP3    H233264   0.776   2.894   0.145  1.3438 -2.1199 -0.6745
 3877TIP3   OH233265   1.363   4.663   2.810  0.4488 -0.5667 -0.1756
 3877TIP3    H133266   1.289   4.688   2.755  0.7263  0.3205 -0.1667
 3877TIP3    H233267   1.343   4.574   2.839 -0.1548 -0.6852 -0.9378
 3878TIP3   OH233268   0.957   0.969   0.159  0.3688  0.1793  0.1145
 3878TIP3    H133269   0.959   0.970   0.063 -0.4760 -0.3575  0.0820
 3878TIP3    H233270   0.923   0.882   0.181  1.4452 -0.0635  0.9285
 3879TIP3   OH233271   5.714   0.087   1.929 -0.2396 -0.3034 -0.6409
 3879TIP3    H133272   5.789   0.146   1.928  0.9400 -1.7688 -1.1568
 3879TIP3    H233273   5.700   0.065   1.837 -0.7822 -0.6823 -0.4710
 3880TIP3   OH233274   4.292   3.982   2.675 -0.0733  0.0887 -1.0108
 3880TIP3    H133275   4.270   4.024   2.758 -2.3629 -0.2741 -1.3787
 3880TIP3    H233276   4.363   3.921   2.697  2.9549  3.5092 -0.3632
 3881TIP3   OH233277   0.732   3.016   0.680  0.3135  0.2564 -0.4873
 3881TIP3    H133278   0.693   2.938   0.639 -0.1919 -0.0846  0.6035
 3881TIP3    H233279   0.826   2.998   0.680  0.1913 -0.4125 -0.1538
 3882TIP3   OH233280   2.423   1.592   8.246 -0.2319 -0.2463  0.1440
 3882TIP3    H133281   2.330   1.579   8.228 -0.5028  1.8105 -0.2615
 3882TIP3    H233282   2.429   1.590   8.342 -0.3930 -1.8957  0.1499
 3883TIP3   OH233283   5.909   6.608   0.823 -0.5335  0.0449 -0.2237
 3883TIP3    H133284   5.997   6.604   0.860 -0.7011  0.2944  0.2182
 3883TIP3    H233285   5.916   6.564   0.738 -0.3194 -1.2541  0.4460
 3884TIP3   OH233286   2.740   4.036   7.092 -0.1747  0.7510 -0.1321
 3884TIP3    H133287   2.787   3.992   7.021 -0.6667 -0.5304  0.2988
 3884TIP3    H233288   2.805   4.048   7.161 -0.4689 -1.3319  0.6020
 3885TIP3   OH233289   2.998   4.239   8.233 -0.0227  0.1825 -0.4524
 3885TIP3    H133290   2.914   4.266   8.196 -0.5135  0.1019  0.5632
 3885TIP3    H233291   3.038   4.321   8.264 -0.9416 -0.0449  1.4725
 3886TIP3   OH233292   3.553   0.593   0.446  0.0090 -0.1161  0.3240
 3886TIP3    H133293   3.595   0.525   0.499  0.1273  0.5429  1.0834
 3886TIP3    H233294   3.480   0.548   0.404  1.0299 -1.1157 -0.4673
 3887TIP3   OH233295   0.791   4.211   7.077 -0.2446 -0.4644  0.0266
 3887TIP3    H133296   0.794   4.280   7.144  0.0485  0.1542 -0.6165
 3887TIP3    H233297   0.797   4.258   6.994  0.5268 -1.3120 -0.4049
 3888TIP3   OH233298   5.148   2.999   7.765 -0.2161 -0.0630 -0.3198
 3888TIP3    H133299   5.092   3.025   7.837  0.8802  0.5414  0.3502
 3888TIP3    H233300   5.109   2.919   7.730 -1.6173  0.4881 -0.0544
 3889TIP3   OH233301   5.672   5.697   8.123  0.4934 -0.0618 -0.4756
 3889TIP3    H133302   5.713   5.737   8.199  0.0476  0.6155 -0.5772
 3889TIP3    H233303   5.732   5.627   8.096  0.6168 -0.3597  0.5367
 3890TIP3   OH233304   1.166   4.448   8.008 -0.3842  0.0678 -0.3644
 3890TIP3    H133305   1.074   4.426   8.023 -1.0095  1.9522 -1.1055
 3890TIP3    H233306   1.210   4.429   8.091 -1.8848  1.1907  0.7336
 3891TIP3   OH233307   6.194   1.560   0.178  0.6358  0.0416 -0.1788
 3891TIP3    H133308   6.206   1.543   0.272 -0.4083 -1.3858 -0.2756
 3891TIP3    H233309   6.267   1.618   0.155  0.7737  0.6231  1.5617
 3892TIP3   OH233310   3.385   1.359   8.552  0.2245 -0.9580 -0.2922
 3892TIP3    H133311   3.430   1.331   8.632 -1.3481 -1.3544  0.4988
 3892TIP3    H233312   3.451   1.353   8.484  1.2699 -1.8516  0.7542
 3893TIP3   OH233313   0.288   3.494   1.369 -0.3692 -0.3374  0.2439
 3893TIP3    H133314   0.274   3.407   1.331  0.4551 -0.4755  0.2341
 3893TIP3    H233315   0.260   3.485   1.460 -2.4077  0.0105 -0.2959
 3894TIP3   OH233316   2.202   5.927   8.497 -0.0174  0.3596  0.1861
 3894TIP3    H133317   2.213   5.877   8.417  1.7071  0.9288  0.0303
 3894TIP3    H233318   2.139   5.995   8.475  1.3768  1.2936 -1.1143
 3895TIP3   OH233319   6.078   2.167   1.013  0.1248  0.2616  0.1832
 3895TIP3    H133320   6.116   2.204   0.933  0.8570  2.5986  1.5166
 3895TIP3    H233321   6.121   2.082   1.023  2.1300  1.1311 -0.4658
 3896TIP3   OH233322   4.885   2.248   7.548 -0.0900 -0.1602 -0.4748
 3896TIP3    H133323   4.908   2.156   7.560 -0.0099 -0.4787 -2.6432
 3896TIP3    H233324   4.966   2.296   7.565  0.1480 -0.5983 -0.3604
 3897TIP3   OH233325   5.544   0.701   8.341 -0.2894  0.0426 -0.0945
 3897TIP3    H133326   5.622   0.649   8.357  0.8170  1.6600  0.0170
 3897TIP3    H233327   5.500   0.657   8.268 -0.8993 -2.5680  1.7035
 3898TIP3   OH233328   6.121   2.967   2.983 -0.4804 -0.0433  0.0582
 3898TIP3    H133329   6.065   3.043   3.001 -1.6641 -1.4186  2.8583
 3898TIP3    H233330   6.194   2.977   3.043  0.9312  0.3161 -1.6465
 3899TIP3   OH233331   4.340   1.874   0.498  0.3805 -0.4194 -0.3961
 3899TIP3    H133332   4.343   1.950   0.439  0.2963 -1.9687 -2.5247
 3899TIP3    H233333   4.255   1.833   0.480  0.2743 -0.8483  0.9823
 3900TIP3   OH233334   6.678   6.716   1.222 -0.0016  0.4834 -0.1871
 3900TIP3    H133335   6.680   6.690   1.130  0.2742  1.4712 -0.4717
 3900TIP3    H233336   6.752   6.670   1.262 -1.6916 -2.1369  0.1897
 3901TIP3   OH233337   4.338   4.303   3.113 -0.1045  0.5258 -0.1130
 3901TIP3    H133338   4.267   4.320   3.176  0.1888 -1.2664  0.7608
 3901TIP3    H233339   4.418   4.330   3.159 -0.0611  1.0899 -0.5066
 3902TIP3   OH233340   1.985   1.042   7.136 -0.1663  0.6902 -0.8678
 3902TIP3    H133341   2.003   0.953   7.105 -0.1624 -0.9348  3.1159
 3902TIP3    H233342   2.068   1.070   7.175 -1.3370  0.3336  2.1520
 3903TIP3   OH233343   2.962   5.150   1.359  0.4919  0.0257  0.0924
 3903TIP3    H133344   2.956   5.056   1.373  0.5079 -0.0768 -0.5986
 3903TIP3    H233345   3.056   5.168   1.356  0.6055  0.5093  3.1443
 3904TIP3   OH233346   1.982   6.085   8.000  0.1011 -0.0468  0.8042
 3904TIP3    H133347   1.927   6.061   8.074 -1.0473  1.1367  0.3840
 3904TIP3    H233348   1.988   6.181   8.004  1.6399 -0.1016  0.4792
 3905TIP3   OH233349   2.073   6.358   0.339 -0.9496  0.1693 -0.4617
 3905TIP3    H133350   2.063   6.309   0.257 -1.1550 -0.3373 -0.1372
 3905TIP3    H233351   2.117   6.439   0.313 -0.3531 -0.3049 -0.9718
 3906TIP3   OH233352   2.064   4.022   8.117 -0.0555 -0.3331 -0.4277
 3906TIP3    H133353   2.082   4.047   8.026  0.4596  2.1468  0.2695
 3906TIP3    H233354   2.076   3.927   8.119  0.5361 -0.3692 -2.7985
 3907TIP3   OH233355   0.800   4.286   1.575 -0.1764  0.0306  0.6759
 3907TIP3    H133356   0.748   4.335   1.511  1.9946 -0.2062 -1.4000
 3907TIP3    H233357   0.815   4.348   1.646 -1.1595  0.9187  0.1336
 3908TIP3   OH233358   2.654   4.975   0.490 -0.6897  0.3339  0.5250
 3908TIP3    H133359   2.634   5.016   0.574 -0.1127  0.4486  0.6134
 3908TIP3    H233360   2.712   5.037   0.446 -0.7568  0.1445  0.1652
 3909TIP3   OH233361   1.597   0.617   1.474  0.5315  0.0783 -0.0089
 3909TIP3    H133362   1.639   0.652   1.552 -0.0833 -1.0457  0.8539
 3909TIP3    H233363   1.523   0.567   1.507  0.0910 -0.1849 -1.3388
 3910TIP3   OH233364   2.020   4.111   8.369  0.6313  0.0107 -0.1554
 3910TIP3    H133365   2.027   4.066   8.285 -1.5534 -1.1269  0.2154
 3910TIP3    H233366   1.930   4.096   8.397  0.8186  1.8075  1.6040
 3911TIP3   OH233367   3.350   3.178   1.309 -0.2913  0.0496  0.1644
 3911TIP3    H133368   3.423   3.168   1.247  1.8670  1.0256  2.3932
 3911TIP3    H233369   3.281   3.121   1.274  2.7448 -3.7882 -0.2045
 3912TIP3   OH233370   0.607   1.620   2.251  0.1683 -0.3745  0.7878
 3912TIP3    H133371   0.570   1.707   2.267  0.4056 -0.3860  1.4334
 3912TIP3    H233372   0.536   1.571   2.209  0.4265  0.4806 -0.6900
 3913TIP3   OH233373   4.497   1.314   1.612  0.1106  0.6091  0.3134
 3913TIP3    H133374   4.584   1.314   1.652  0.3572 -1.7094 -0.1014
 3913TIP3    H233375   4.446   1.252   1.664 -0.5925  0.1692 -0.8511
 3914TIP3   OH233376   1.850   4.813   2.246  0.3401  0.0490 -0.1104
 3914TIP3    H133377   1.774   4.794   2.302  1.0498  1.6539  1.4859
 3914TIP3    H233378   1.819   4.795   2.158 -1.6019 -0.2374  0.5707
 3915TIP3   OH233379   5.232   3.528   0.212 -0.1698 -0.3854 -0.3117
 3915TIP3    H133380   5.227   3.618   0.244  0.1332 -0.0539 -1.1694
 3915TIP3    H233381   5.283   3.481   0.278 -0.6706 -0.0272  0.3384
 3916TIP3   OH233382   3.258   0.423   6.490 -0.2481 -0.1326  0.0534
 3916TIP3    H133383   3.326   0.431   6.424 -0.5033  0.2860 -0.1648
 3916TIP3    H233384   3.198   0.495   6.471 -1.7190 -1.5366 -0.8938
 3917TIP3   OH233385   4.658   2.954   2.113  0.2099 -0.1252  0.0764
 3917TIP3    H133386   4.649   2.862   2.089  0.2319 -0.0912 -0.0614
 3917TIP3    H233387   4.581   2.996   2.075 -0.2153 -0.2188  0.8007
 3918TIP3   OH233388   3.947   5.439   7.779  1.1906 -0.2895 -0.0070
 3918TIP3    H133389   3.968   5.349   7.806 -0.7956 -1.1714 -1.1713
 3918TIP3    H233390   3.877   5.428   7.714 -0.3145  2.1812  1.0759
 3919TIP3   OH233391   6.453   5.329   7.660 -0.2832  0.3587  0.5799
 3919TIP3    H133392   6.445   5.381   7.741  1.1885  0.7784  0.4949
 3919TIP3    H233393   6.546   5.334   7.639 -0.2784 -1.5687  0.0465
 3920TIP3   OH233394   1.784   3.156   1.705 -0.2204  0.0182 -0.0396
 3920TIP3    H133395   1.831   3.073   1.701 -0.5335 -0.1482 -0.4281
 3920TIP3    H233396   1.795   3.186   1.795 -1.7472 -1.4328  0.6921
 3921TIP3   OH233397   0.994   5.974   0.351 -0.1895 -0.5255  0.0702
 3921TIP3    H133398   1.047   6.010   0.422  1.1651 -2.1900 -0.0480
 3921TIP3    H233399   0.910   5.953   0.392  0.4796 -1.1954  1.1112
 3922TIP3   OH233400   2.887   4.309   8.660 -0.4346  0.5633 -0.0541
 3922TIP3    H133401   2.940   4.284   8.736  0.1143  1.6571 -0.0616
 3922TIP3    H233402   2.830   4.233   8.644  2.1492 -1.3116 -0.9898
 3923TIP3   OH233403   5.267   1.564   7.534 -0.2215 -0.6586  0.1348
 3923TIP3    H133404   5.292   1.531   7.447 -0.8491 -1.3236  0.2028
 3923TIP3    H233405   5.238   1.654   7.517  0.8799 -0.3357 -0.1461
 3924TIP3   OH233406   6.443   6.762   2.027 -0.0223 -0.7220  1.0282
 3924TIP3    H133407   6.506   6.828   1.997 -0.4541 -1.2681 -1.2577
 3924TIP3    H233408   6.389   6.808   2.092  0.2531  0.9016  0.1552
 3925TIP3   OH233409   2.935   4.459   0.969  0.2834  0.3609  0.2137
 3925TIP3    H133410   2.932   4.368   0.940  1.1399 -0.1543  1.6605
 3925TIP3    H233411   2.977   4.506   0.897 -1.3221 -0.1292 -1.0993
 3926TIP3   OH233412   1.781   6.379   0.391  0.2116  0.2490  0.0169
 3926TIP3    H133413   1.829   6.364   0.473 -1.5837 -1.9867  0.7603
 3926TIP3    H233414   1.811   6.311   0.332  1.3669  1.7492 -1.2008
 3927TIP3   OH233415   4.526   1.859   6.856  0.3722  0.0117 -0.1062
 3927TIP3    H133416   4.526   1.799   6.930  1.0754 -0.8522 -0.7870
 3927TIP3    H233417   4.615   1.853   6.820  0.4726  1.4890 -0.1684
 3928TIP3   OH233418   5.241   2.027   1.382 -0.1101  0.1851 -0.2010
 3928TIP3    H133419   5.239   2.078   1.302 -2.0123  0.3200 -0.0964
 3928TIP3    H233420   5.277   2.087   1.448 -0.8856  0.8867 -0.4079
 3929TIP3   OH233421   0.157   3.192   0.958  0.2917  0.0315 -0.4751
 3929TIP3    H133422   0.178   3.143   1.037  0.1747 -0.0158 -0.4727
 3929TIP3    H233423   0.192   3.138   0.887  0.7136  0.2481 -0.4358
 3930TIP3   OH233424   5.078   6.819   1.918  0.2120 -0.3288  0.2815
 3930TIP3    H133425   5.068   6.852   2.007  0.5039  0.9517 -0.1411
 3930TIP3    H233426   5.065   6.896   1.862 -1.0149 -1.2893 -0.8389
 3931TIP3   OH233427   5.196   5.037   0.447  0.3910 -0.3110 -0.1287
 3931TIP3    H133428   5.159   5.125   0.442 -0.3936 -0.6226  0.0127
 3931TIP3    H233429   5.126   4.984   0.486  0.9922 -0.9183  0.1360
 3932TIP3   OH233430   6.466   4.289   0.319  0.1013 -0.5829 -0.0728
 3932TIP3    H133431   6.525   4.331   0.381  0.0474  0.6751 -0.8430
 3932TIP3    H233432   6.490   4.326   0.234 -1.1530 -0.7779 -0.5318
 3933TIP3   OH233433   2.264   5.781   0.468  0.0064 -0.2640 -0.0516
 3933TIP3    H133434   2.213   5.778   0.387 -0.4129 -0.3026  0.2112
 3933TIP3    H233435   2.317   5.701   0.466 -0.0422 -0.2909 -0.2634
 3934TIP3   OH233436   0.365   6.085   8.688 -0.2040  0.4985  0.2522
 3934TIP3    H133437   0.430   6.147   8.720 -0.6641  0.3647  1.4789
 3934TIP3    H233438   0.294   6.141   8.654  1.1313  0.6820 -2.5045
 3935TIP3   OH233439   5.755   2.705   1.163 -0.3415  0.2874  0.6829
 3935TIP3    H133440   5.740   2.766   1.091 -1.4816 -0.1226  0.5494
 3935TIP3    H233441   5.717   2.623   1.133  3.1711 -1.2030 -0.0873
 3936TIP3   OH233442   2.660   3.171   0.795 -0.1554 -0.4884 -0.1869
 3936TIP3    H133443   2.637   3.209   0.711 -1.1601 -0.8116 -0.0638
 3936TIP3    H233444   2.662   3.077   0.780  1.9924 -0.4738 -0.4052
 3937TIP3   OH233445   2.604   4.554   7.966 -0.2606 -0.3877  0.8105
 3937TIP3    H133446   2.576   4.607   7.891 -1.9566 -1.6943  0.4556
 3937TIP3    H233447   2.536   4.567   8.032  1.2531  0.8011  2.2130
 3938TIP3   OH233448   2.015   5.022   1.434  0.1041 -0.5043  0.3263
 3938TIP3    H133449   1.933   5.007   1.481 -0.1265  2.2354  0.9422
 3938TIP3    H233450   2.069   5.072   1.496  0.7750  1.0030 -1.3815
 3939TIP3   OH233451   0.178   5.258   8.766 -0.3219  0.2007  0.2424
 3939TIP3    H133452   0.134   5.342   8.776  0.0493  0.4807 -0.3668
 3939TIP3    H233453   0.108   5.192   8.770 -0.6680  0.5698  0.2728
 3940TIP3   OH233454   5.101   5.372   8.677 -0.6525 -0.6960  0.7316
 3940TIP3    H133455   5.073   5.381   8.586 -0.1857 -0.4125  0.6141
 3940TIP3    H233456   5.122   5.461   8.705  1.3500 -1.0278  0.4114
 3941TIP3   OH233457   2.069   1.292   1.824 -0.0782  0.0093 -0.0478
 3941TIP3    H133458   2.047   1.276   1.732 -1.1022 -1.7422  0.4452
 3941TIP3    H233459   2.156   1.331   1.822 -0.6151  1.2206 -1.8077
 3942TIP3   OH233460   3.024   1.950   7.183  0.3124 -0.0320 -0.3827
 3942TIP3    H133461   2.945   1.995   7.152 -0.3788  0.3607  1.8018
 3942TIP3    H233462   3.022   1.865   7.139 -0.7465  0.3783 -1.1676
 3943TIP3   OH233463   0.031   3.136   0.222 -0.3942  0.5333  0.2512
 3943TIP3    H133464  -0.013   3.067   0.271 -0.7764  0.4330 -0.2282
 3943TIP3    H233465   0.060   3.093   0.141  1.0287  0.4650  0.7613
 3944TIP3   OH233466   4.010   1.380   7.756 -0.1467  0.2456 -0.2845
 3944TIP3    H133467   3.947   1.453   7.760  0.8806  1.0843  2.2148
 3944TIP3    H233468   4.088   1.413   7.800  1.9462 -0.9389 -2.8439
 3945TIP3   OH233469   3.572   5.097   6.733  0.4376 -0.0121  0.0094
 3945TIP3    H133470   3.569   5.040   6.657  0.6348  0.1543 -0.1249
 3945TIP3    H233471   3.549   5.040   6.807 -1.6314  0.2401 -0.3862
 3946TIP3   OH233472   0.974   5.827   0.070 -0.6073 -0.2249  0.4261
 3946TIP3    H133473   0.883   5.803   0.057 -0.3633 -1.1637  0.3546
 3946TIP3    H233474   0.975   5.878   0.152 -1.4884  1.7236 -0.7139
 3947TIP3   OH233475   1.711   2.343   7.956 -0.2853 -0.2326 -0.0506
 3947TIP3    H133476   1.643   2.371   7.894  0.1401  0.3205 -0.2755
 3947TIP3    H233477   1.667   2.345   8.041 -0.5633  0.1008 -0.1960
 3948TIP3   OH233478   4.925   3.473   7.686 -0.4959 -0.1565  0.3744
 3948TIP3    H133479   4.981   3.474   7.763 -2.8277  0.2741  2.1539
 3948TIP3    H233480   4.923   3.381   7.659  1.6719 -0.0721 -0.2816
 3949TIP3   OH233481   6.105   3.047   8.539 -0.2078  0.1805  0.6890
 3949TIP3    H133482   6.089   3.099   8.617 -0.1686 -0.0237  0.8352
 3949TIP3    H233483   6.161   3.102   8.485  0.9454 -0.2160  1.4251
 3950TIP3   OH233484   1.327   4.223   7.645  0.7846 -0.2922 -0.2057
 3950TIP3    H133485   1.312   4.294   7.706  0.7979 -0.2220 -0.2845
 3950TIP3    H233486   1.422   4.211   7.644  0.8473  0.1763 -0.7423
 3951TIP3   OH233487   5.846   5.694   0.085 -0.4160 -0.4406 -0.2591
 3951TIP3    H133488   5.913   5.756   0.113  0.3695 -1.6275  0.5807
 3951TIP3    H233489   5.838   5.632   0.157 -2.5113 -0.2941 -0.2943
 3952TIP3   OH233490   2.872   5.214   0.569 -0.6056  0.2922  0.5319
 3952TIP3    H133491   2.823   5.166   0.635 -0.6755  0.3774  0.5418
 3952TIP3    H233492   2.881   5.302   0.604 -1.3210  0.5525  0.0835
 3953TIP3   OH233493   1.105   6.669   0.316 -0.1095  0.2132  0.1039
 3953TIP3    H133494   1.200   6.658   0.312 -0.2485 -0.8763 -0.5313
 3953TIP3    H233495   1.092   6.743   0.376  1.1479  0.7125 -0.2067
 3954TIP3   OH233496   6.505   3.286   7.312  0.1246  0.4470  0.3164
 3954TIP3    H133497   6.479   3.296   7.220  1.7646 -1.3408 -0.4301
 3954TIP3    H233498   6.601   3.289   7.310  0.1688  1.5922  2.1771
 3955TIP3   OH233499   0.879   4.398   0.772 -0.6429  0.1044 -0.7469
 3955TIP3    H133500   0.940   4.471   0.759  0.1781 -0.7182 -1.6165
 3955TIP3    H233501   0.903   4.363   0.858  0.9881 -0.9880 -1.5974
 3956TIP3   OH233502   2.166   4.605   8.800 -0.3645  0.0547 -0.3821
 3956TIP3    H133503   2.160   4.699   8.816  1.4332  0.3140 -0.9511
 3956TIP3    H233504   2.088   4.584   8.750 -2.3441  0.6132  2.2579
 3957TIP3   OH233505   3.376   0.512   1.089  0.0517 -0.2619 -0.5791
 3957TIP3    H133506   3.297   0.465   1.062 -0.0164 -1.0876  0.8974
 3957TIP3    H233507   3.352   0.604   1.087 -1.2628 -0.5438  0.6491
 3958TIP3   OH233508   1.787   4.083   8.014 -0.2403 -0.5575 -0.1660
 3958TIP3    H133509   1.858   4.035   8.057  0.5958  0.8839  0.1176
 3958TIP3    H233510   1.803   4.070   7.920  1.2271  0.8714 -0.1415
 3959TIP3   OH233511   1.209   3.230   6.839  0.4330 -0.4344 -0.4429
 3959TIP3    H133512   1.249   3.316   6.849 -2.3508  0.9094  0.4269
 3959TIP3    H233513   1.117   3.249   6.820 -0.3145 -3.2327 -0.0495
 3960TIP3   OH233514   1.858   5.246   2.618 -0.5040 -0.3785 -0.2446
 3960TIP3    H133515   1.859   5.328   2.570 -0.6175 -0.4612 -0.3896
 3960TIP3    H233516   1.772   5.243   2.660 -1.6383 -1.6817 -2.4458
 3961TIP3   OH233517   1.086   3.489   8.763 -0.6130 -0.3372  0.3497
 3961TIP3    H133518   1.118   3.433   8.691 -1.4068  0.4053 -0.6170
 3961TIP3    H233519   1.128   3.573   8.747 -0.2020 -0.3707  1.2231
 3962TIP3   OH233520   3.308   0.985   7.994 -0.3594  0.5645 -0.2467
 3962TIP3    H133521   3.393   0.978   8.038 -0.9833  0.1557  0.9305
 3962TIP3    H233522   3.245   0.995   8.065 -1.4470 -0.5438 -1.0120
 3963TIP3   OH233523   5.488   5.945   8.721 -0.1373  0.0880  1.0945
 3963TIP3    H133524   5.512   6.012   8.658 -0.8185 -1.0985 -0.5050
 3963TIP3    H233525   5.528   5.973   8.803  2.1202  0.9170 -0.2031
 3964TIP3   OH233526   6.330   0.209   1.857 -0.3137  0.2640  0.3497
 3964TIP3    H133527   6.254   0.151   1.855  0.4111 -0.8301  2.1754
 3964TIP3    H233528   6.389   0.174   1.791  0.2138 -1.2857  1.5923
 3965TIP3   OH233529   3.710   3.674   1.843 -0.2069  0.2475 -0.4648
 3965TIP3    H133530   3.642   3.610   1.863 -0.2990  0.3342 -0.4975
 3965TIP3    H233531   3.792   3.631   1.867 -0.2647  0.0968 -0.5382
 3966TIP3   OH233532   3.595   6.824   0.605 -0.5242  0.3714 -0.0438
 3966TIP3    H133533   3.624   6.872   0.527 -2.0854  1.3385 -0.0814
 3966TIP3    H233534   3.608   6.886   0.677  0.2470 -0.2648  0.3814
 3967TIP3   OH233535   0.231   4.818   6.782 -0.4744 -0.4425 -0.1736
 3967TIP3    H133536   0.234   4.836   6.689  1.2155 -0.1850 -0.0915
 3967TIP3    H233537   0.150   4.769   6.794 -0.9768 -0.0324 -1.6797
 3968TIP3   OH233538   3.533   1.703   8.664  0.2990 -0.4174 -0.2764
 3968TIP3    H133539   3.493   1.759   8.597  0.2302 -1.1459 -0.8562
 3968TIP3    H233540   3.461   1.683   8.724  0.2527 -0.1480 -0.2375
 3969TIP3   OH233541   4.641   0.762   2.071 -0.2540 -0.0502 -0.3817
 3969TIP3    H133542   4.669   0.691   2.130 -1.3037  0.5049  0.8494
 3969TIP3    H233543   4.678   0.841   2.110 -1.0179  0.3302 -0.4122
 3970TIP3   OH233544   1.849   4.768   1.480 -0.1300 -0.3387 -0.5066
 3970TIP3    H133545   1.793   4.760   1.403  1.1828 -2.1147 -1.3559
 3970TIP3    H233546   1.831   4.855   1.515 -1.5347  0.0904 -2.1966
 3971TIP3   OH233547   6.356   2.655   7.373  0.2074  0.0882 -0.1138
 3971TIP3    H133548   6.404   2.623   7.297  0.4030 -0.3766  0.1960
 3971TIP3    H233549   6.282   2.704   7.337  1.2203  1.3087 -0.5996
 3972TIP3   OH233550   1.575   3.646   1.797  0.1739 -0.4941 -0.0679
 3972TIP3    H133551   1.620   3.573   1.755  1.5537  1.1045 -1.5568
 3972TIP3    H233552   1.515   3.680   1.730  0.6212  0.6052  0.0598
 3973TIP3   OH233553   5.998   5.126   7.147 -0.2132 -0.4288  0.2770
 3973TIP3    H133554   6.040   5.065   7.087 -2.8096  0.1220 -2.3096
 3973TIP3    H233555   5.990   5.207   7.096 -0.7297  0.7201  2.1039
 3974TIP3   OH233556   1.972   2.533   0.486  0.3791 -0.5193  0.2926
 3974TIP3    H133557   1.896   2.591   0.482  1.4457  0.9560  0.5355
 3974TIP3    H233558   1.960   2.472   0.413 -0.9934 -0.2857  0.3002
 3975TIP3   OH233559   0.369   1.545   0.148  0.2960 -0.4116  0.0507
 3975TIP3    H133560   0.308   1.585   0.210  1.6663  1.4258  0.2837
 3975TIP3    H233561   0.314   1.486   0.096 -1.4898  0.4699  0.8421
 3976TIP3   OH233562   3.039   2.532   8.065  0.1434 -1.0156 -0.7224
 3976TIP3    H133563   3.069   2.494   8.148  0.1679 -0.7284 -0.5973
 3976TIP3    H233564   3.035   2.458   8.005 -1.3148 -1.5212 -0.0638
 3977TIP3   OH233565   2.832   1.946   0.757 -0.1849  0.5045  0.2599
 3977TIP3    H133566   2.916   1.906   0.777  0.5131  1.1266 -1.2543
 3977TIP3    H233567   2.804   1.904   0.676 -1.2743  0.4245  0.6595
 3978TIP3   OH233568   4.200   3.777   7.764 -0.6447  0.5129 -0.8635
 3978TIP3    H133569   4.154   3.861   7.769 -3.1968 -0.8101  0.0075
 3978TIP3    H233570   4.130   3.712   7.773  0.9256 -1.7801 -3.6130
 3979TIP3   OH233571   5.110   5.823   1.643  0.4743  0.2176 -0.4848
 3979TIP3    H133572   5.150   5.771   1.573 -0.0535 -0.3846 -0.3503
 3979TIP3    H233573   5.035   5.771   1.671 -0.0100  1.0180 -0.2802
 3980TIP3   OH233574   5.806   0.766   1.200 -0.4429  1.3479 -0.2806
 3980TIP3    H133575   5.857   0.810   1.269 -1.3131  0.9710  0.6146
 3980TIP3    H233576   5.739   0.830   1.176 -0.2410  1.4147 -0.6726
 3981TIP3   OH233577   4.296   6.077   8.813  0.0491 -0.6084 -0.9703
 3981TIP3    H133578   4.274   6.165   8.843 -0.3908 -1.6387  2.1047
 3981TIP3    H233579   4.241   6.063   8.736 -1.4010  1.0633 -0.3109
 3982TIP3   OH233580   5.960   3.641   0.771 -0.1545  0.1093 -0.0058
 3982TIP3    H133581   6.020   3.701   0.727  0.8727 -0.7603  0.1698
 3982TIP3    H233582   6.007   3.557   0.773 -1.3197 -0.5596  0.2648
 3983TIP3   OH233583   6.337   5.026   0.825  0.2488 -0.4468  0.1168
 3983TIP3    H133584   6.290   5.006   0.744  0.9383  0.9783 -0.6848
 3983TIP3    H233585   6.427   5.042   0.797  0.9447 -1.8460  1.4482
 3984TIP3   OH233586   6.394   3.951   1.920  0.1689  0.4076  0.8066
 3984TIP3    H133587   6.469   3.900   1.887  0.9889  0.7624  2.0412
 3984TIP3    H233588   6.376   3.914   2.006 -1.9368 -0.5082  0.0145
 3985TIP3   OH233589   3.977   5.898   0.468 -0.1500 -0.0641  0.1946
 3985TIP3    H133590   4.007   5.978   0.426  0.5699  0.6689  2.0149
 3985TIP3    H233591   4.043   5.832   0.446 -0.0088  0.1951 -0.1564
 3986TIP3   OH233592   4.843   1.504   2.365  0.0851  0.3458 -0.6152
 3986TIP3    H133593   4.915   1.478   2.307  0.5798 -0.3603  0.2759
 3986TIP3    H233594   4.883   1.508   2.452 -0.5146  1.9231 -0.3899
 3987TIP3   OH233595   6.556   3.279   1.639  0.2894 -0.5966  0.0177
 3987TIP3    H133596   6.644   3.243   1.638  0.2955 -0.5622 -1.2470
 3987TIP3    H233597   6.532   3.290   1.547 -1.2029 -1.0002  0.3268
 3988TIP3   OH233598   2.736   1.655   0.324 -0.2999 -0.1535 -0.2195
 3988TIP3    H133599   2.705   1.733   0.371  1.0256 -0.2208  0.8369
 3988TIP3    H233600   2.830   1.654   0.339 -0.1030 -1.2065 -1.3935
 3989TIP3   OH233601   2.297   6.040   1.387  0.4319 -0.1828 -0.2367
 3989TIP3    H133602   2.314   5.993   1.305  2.2434 -0.4160  0.2320
 3989TIP3    H233603   2.215   6.003   1.419  0.8474 -1.6901 -0.8214
 3990TIP3   OH233604   2.672   0.593   0.959  0.2150 -0.3479 -0.0559
 3990TIP3    H133605   2.687   0.500   0.973  1.8815  0.0002  0.7772
 3990TIP3    H233606   2.606   0.597   0.890 -0.6832 -2.1313  0.6540
 3991TIP3   OH233607   1.477   4.766   8.519  0.2261 -0.1523  0.2372
 3991TIP3    H133608   1.469   4.861   8.521  1.9931  0.0242  1.1339
 3991TIP3    H233609   1.512   4.747   8.432 -1.0421 -0.0893 -0.2973
 3992TIP3   OH233610   2.632   2.340   2.063  0.0391 -0.6015 -0.0145
 3992TIP3    H133611   2.590   2.425   2.047  1.2686  0.1334  0.5237
 3992TIP3    H233612   2.684   2.324   1.985 -1.5197 -1.7183 -0.8669
 3993TIP3   OH233613   1.217   0.192   1.706  0.4349 -0.2513 -0.0176
 3993TIP3    H133614   1.201   0.257   1.775  0.1258 -1.3324  0.9562
 3993TIP3    H233615   1.144   0.131   1.712  0.3292 -0.2909 -1.4199
 3994TIP3   OH233616   2.537   3.836   7.014  0.5629  0.4954 -0.9455
 3994TIP3    H133617   2.458   3.871   6.972 -0.1521  0.3855  0.2733
 3994TIP3    H233618   2.576   3.912   7.057  0.5987  0.3601 -0.7401
 3995TIP3   OH233619   4.054   5.299   1.365  0.7382 -0.2248 -0.8064
 3995TIP3    H133620   4.012   5.339   1.442  2.8098 -0.9297  0.7862
 3995TIP3    H233621   4.131   5.354   1.349  0.3789 -0.1391 -2.3798
 3996TIP3   OH233622   4.134   3.748   2.635 -0.0624  0.5160  0.2623
 3996TIP3    H133623   4.189   3.827   2.628 -1.6903  1.5349 -2.2538
 3996TIP3    H233624   4.093   3.756   2.721  0.3859  2.0228  0.3720
 3997TIP3   OH233625   0.159   0.831   1.965  0.1419 -0.1868  0.2653
 3997TIP3    H133626   0.187   0.826   1.873 -0.6383  0.0527  0.0028
 3997TIP3    H233627   0.086   0.892   1.964  0.0356 -0.2944  1.0311
 3998TIP3   OH233628   3.754   6.294   6.637  0.2875 -0.1821  0.5526
 3998TIP3    H133629   3.786   6.382   6.655  0.8599 -0.1996 -0.3136
 3998TIP3    H233630   3.813   6.237   6.686  0.3393 -0.1133  0.5711
 3999TIP3   OH233631   0.157   3.894   1.764 -0.1631 -0.1033 -0.3146
 3999TIP3    H133632   0.120   3.848   1.688  0.2879  3.7487 -3.2010
 3999TIP3    H233633   0.252   3.885   1.753 -0.0154 -2.2567  1.8479
 4000TIP3   OH233634   4.254   4.468   0.471 -0.1315 -0.0308 -0.6410
 4000TIP3    H133635   4.298   4.389   0.504 -1.6525 -0.1754  1.2267
 4000TIP3    H233636   4.169   4.436   0.440 -0.8992  0.9025  0.4588
 4001TIP3   OH233637   1.841   5.857   1.569 -0.0476  0.2672 -0.4599
 4001TIP3    H133638   1.845   5.861   1.474 -2.3547  0.6635 -0.6054
 4001TIP3    H233639   1.847   5.764   1.590 -0.3185  0.1156 -1.0525
 4002TIP3   OH233640   0.052   5.186   7.485  0.1476  0.0262  1.0840
 4002TIP3    H133641   0.138   5.144   7.484  1.4249  2.2521 -2.4263
 4002TIP3    H233642   0.001   5.136   7.420  0.1267  0.9770  0.3475
 4003TIP3   OH233643   6.638   3.210   8.330 -0.1604  0.2021 -0.1990
 4003TIP3    H133644   6.706   3.155   8.291 -0.7813 -0.7399 -0.0024
 4003TIP3    H233645   6.583   3.235   8.257  0.8796  1.7187 -0.4988
 4004TIP3   OH233646   2.373   1.140   1.744  0.0940 -0.3813  0.0182
 4004TIP3    H133647   2.463   1.168   1.762 -0.2344  0.0613  1.0670
 4004TIP3    H233648   2.377   1.045   1.744  1.1752 -0.4607 -3.2636
 4005TIP3   OH233649   4.945   2.917   0.627 -0.2251 -0.2396 -0.4048
 4005TIP3    H133650   4.859   2.958   0.618 -0.8676 -1.1493  1.2146
 4005TIP3    H233651   4.985   2.961   0.702 -0.7133 -2.1200  1.0313
 4006TIP3   OH233652   4.268   0.297   0.598 -0.0170  0.0923 -0.2030
 4006TIP3    H133653   4.206   0.369   0.606 -0.8595 -0.3495 -2.2958
 4006TIP3    H233654   4.227   0.224   0.645 -0.8859 -0.0515 -1.1533
 4007TIP3   OH233655   0.746   0.200   0.447  0.1115  0.3659  0.3372
 4007TIP3    H133656   0.660   0.218   0.410 -0.3475  0.3750  1.3583
 4007TIP3    H233657   0.807   0.247   0.390 -0.4781 -0.2565 -0.8389
 4008TIP3   OH233658   0.974   1.883   0.303  0.1945  0.0098  0.3354
 4008TIP3    H133659   1.060   1.922   0.287 -0.2223  0.2180 -1.6809
 4008TIP3    H233660   0.924   1.900   0.223 -1.0107 -1.9980  0.5746
 4009TIP3   OH233661   4.587   0.401   0.032 -0.5467  0.7986 -0.7463
 4009TIP3    H133662   4.591   0.353  -0.051  1.9645  0.1741 -0.3249
 4009TIP3    H233663   4.597   0.493   0.006 -0.8453  0.7086 -1.2018
 4010TIP3   OH233664   3.298   3.589   2.020  0.5402 -0.2348  0.4198
 4010TIP3    H133665   3.349   3.609   1.942  1.0973  1.8440  1.2614
 4010TIP3    H233666   3.308   3.494   2.032 -0.1603 -0.7610 -2.3967
 4011TIP3   OH233667   1.213   5.442   1.025  0.4083 -0.0900 -0.3899
 4011TIP3    H133668   1.160   5.363   1.030 -1.2823  1.0441  0.3011
 4011TIP3    H233669   1.274   5.434   1.099 -1.3572  0.3362  1.1706
 4012TIP3   OH233670   4.019   4.366   8.055  0.0153  0.3545 -0.1695
 4012TIP3    H133671   3.969   4.309   7.997 -1.9518  1.8738 -0.0786
 4012TIP3    H233672   4.093   4.313   8.083 -1.6677 -2.1401 -0.1378
 4013TIP3   OH233673   4.768   6.661   2.270 -0.3637 -0.3300 -0.2588
 4013TIP3    H133674   4.744   6.582   2.318  3.8221 -2.0852 -0.6627
 4013TIP3    H233675   4.793   6.724   2.338 -3.1236  0.5863  0.0336
 4014TIP3   OH233676   5.642   3.278   1.733 -0.0695 -0.5374  0.0443
 4014TIP3    H133677   5.733   3.298   1.756 -0.1338 -0.0548 -0.1213
 4014TIP3    H233678   5.623   3.335   1.659 -0.6839 -0.2376  0.4268
 4015TIP3   OH233679   3.974   0.277   6.983  0.8256 -0.6641 -0.1807
 4015TIP3    H133680   4.012   0.327   6.910  0.7950 -1.1546 -0.5341
 4015TIP3    H233681   3.882   0.266   6.959  0.7628 -0.6339  0.0414
 4016TIP3   OH233682   0.395   0.113   0.913  1.2067 -0.9893 -0.2209
 4016TIP3    H133683   0.374   0.200   0.946 -0.0636 -1.7149  1.0127
 4016TIP3    H233684   0.324   0.094   0.851  0.9273 -1.5065  0.2453
 4017TIP3   OH233685   3.843   0.059   2.693  0.1748  0.3526  0.1277
 4017TIP3    H133686   3.902   0.062   2.618 -0.9463 -1.7153 -0.9011
 4017TIP3    H233687   3.785   0.134   2.680  0.2028  0.2138 -0.9041
 4018TIP3   OH233688   4.937   2.680   2.016 -0.3197  0.0140 -0.3255
 4018TIP3    H133689   4.843   2.673   2.027 -0.1224 -1.0262  0.9954
 4018TIP3    H233690   4.963   2.598   1.974 -0.0117  0.3527 -0.8140
 4019TIP3   OH233691   5.579   2.859   8.004  0.0210  0.2969  0.3322
 4019TIP3    H133692   5.584   2.883   8.097  0.7417  0.4554  0.2567
 4019TIP3    H233693   5.649   2.909   7.963  1.0473 -1.3051  0.0400
 4020TIP3   OH233694   4.321   6.558   1.024 -0.0255  0.1161  0.8773
 4020TIP3    H133695   4.392   6.496   1.003  1.1556  1.0300  2.0283
 4020TIP3    H233696   4.350   6.641   0.986 -1.2946  0.1399 -0.0920
 4021TIP3   OH233697   2.153   6.415   0.670 -0.0865  0.4909  1.0834
 4021TIP3    H133698   2.197   6.444   0.590 -0.8268 -0.4852  0.2948
 4021TIP3    H233699   2.216   6.355   0.710 -0.1348  0.1523  0.6664
 4022TIP3   OH233700   3.643   4.632   0.558  0.0578  0.7622  0.3800
 4022TIP3    H133701   3.547   4.634   0.559 -0.1624 -1.0654 -2.9982
 4022TIP3    H233702   3.667   4.584   0.637 -2.0011 -0.9576  0.0496
 4023TIP3   OH233703   2.497   5.386   0.988  0.0716  0.0069  0.5347
 4023TIP3    H133704   2.575   5.338   1.016 -0.9863 -1.0041  1.9193
 4023TIP3    H233705   2.452   5.408   1.070 -0.6418  1.3968 -0.1900
 4024TIP3   OH233706   4.870   6.490   8.080 -0.2459  0.1967  0.1052
 4024TIP3    H133707   4.886   6.436   8.158  0.4907 -0.5830 -0.5721
 4024TIP3    H233708   4.780   6.520   8.090 -0.5928 -0.9558  0.6181
 4025TIP3   OH233709   1.121   5.120   7.018  0.2520  0.2269 -0.4378
 4025TIP3    H133710   1.034   5.146   6.989  0.9580 -0.3074 -3.3960
 4025TIP3    H233711   1.176   5.129   6.940  3.0932  1.4535  1.5341
 4026TIP3   OH233712   4.686   2.353   2.633 -0.2470  0.3639  0.0599
 4026TIP3    H133713   4.706   2.261   2.616 -1.1009 -0.0348  1.1087
 4026TIP3    H233714   4.597   2.365   2.599  0.3405  1.1753 -1.2883
 4027TIP3   OH233715   3.548   1.332   2.252 -0.0323  0.3457  0.5247
 4027TIP3    H133716   3.573   1.242   2.273  0.2644  0.1774 -0.4980
 4027TIP3    H233717   3.467   1.324   2.202 -1.6781  0.8381  2.9362
 4028TIP3   OH233718   0.065   4.466   7.524  0.3768 -0.4802 -0.3533
 4028TIP3    H133719   0.032   4.546   7.485  0.7816 -0.3138 -0.3558
 4028TIP3    H233720   0.041   4.397   7.462  1.3556 -0.1749 -1.0976
 4029TIP3   OH233721   0.045   1.719   1.579 -0.6146  0.0663 -0.3565
 4029TIP3    H133722   0.036   1.672   1.661 -1.0802  1.5465  0.4749
 4029TIP3    H233723   0.029   1.810   1.602  3.5550  1.2395 -1.1793
 4030TIP3   OH233724   0.049   1.347   0.962  0.1411 -0.5127 -0.8181
 4030TIP3    H133725   0.069   1.259   0.993 -0.6192 -0.1954  0.6678
 4030TIP3    H233726   0.013   1.335   0.874  0.7066 -1.6074 -0.9124
 4031TIP3   OH233727   1.466   2.097   0.498  0.0586  0.2170 -0.4503
 4031TIP3    H133728   1.502   2.112   0.585  0.2350  1.9801 -0.7716
 4031TIP3    H233729   1.372   2.092   0.511  0.1871 -1.5637  0.0506
 4032TIP3   OH233730   1.844   5.829   2.290 -0.3599  0.3789 -0.3596
 4032TIP3    H133731   1.896   5.765   2.340 -0.5214  0.0052 -0.6667
 4032TIP3    H233732   1.871   5.914   2.325 -0.1239  0.1452  0.0368
 4033TIP3   OH233733   3.421   1.891   1.212 -0.1662 -0.2467  0.8777
 4033TIP3    H133734   3.439   1.893   1.306 -0.2894 -1.2604  0.9292
 4033TIP3    H233735   3.456   1.974   1.179  2.2158 -0.9769  1.4102
 4034TIP3   OH233736   2.519   1.961   8.043  0.0815 -0.2751  0.1800
 4034TIP3    H133737   2.570   1.901   7.989 -0.2099  0.0373 -0.4489
 4034TIP3    H233738   2.508   1.915   8.126  0.6460 -0.7043  0.0195
 4035TIP3   OH233739   5.978   2.128   0.571 -0.2014  0.0846 -0.0785
 4035TIP3    H133740   5.981   2.033   0.566  0.2718  0.0278  1.0148
 4035TIP3    H233741   5.887   2.150   0.553 -0.9383 -0.7752  2.1692
 4036TIP3   OH233742   2.480   1.936   2.043  0.0404  0.1726 -0.0569
 4036TIP3    H133743   2.566   1.918   2.083  0.0336  2.7093  1.3106
 4036TIP3    H233744   2.426   1.965   2.116 -1.0376  1.6055 -1.3610
 4037TIP3   OH233745   3.778   6.517   1.801  0.3638 -0.1369 -0.3396
 4037TIP3    H133746   3.744   6.458   1.868 -0.9279  0.7289 -0.1950
 4037TIP3    H233747   3.716   6.510   1.728 -1.3887  2.9033  0.6553
 4038TIP3   OH233748   0.748   4.028   8.022 -0.0292  0.2866 -0.3768
 4038TIP3    H133749   0.805   3.958   8.053  1.3481  0.8091 -1.5656
 4038TIP3    H233750   0.804   4.080   7.964 -0.5752  3.1707  1.4918
 4039TIP3   OH233751   4.983   1.846   7.181  0.2641 -0.0229  0.2172
 4039TIP3    H133752   4.947   1.898   7.110 -1.4614 -1.6025 -0.1342
 4039TIP3    H233753   4.986   1.757   7.147  2.2104 -0.3740  1.1358
 4040TIP3   OH233754   5.114   3.640   8.549  0.0571 -1.0438  0.7284
 4040TIP3    H133755   5.116   3.668   8.640 -0.8703 -0.2359  0.5239
 4040TIP3    H233756   5.074   3.553   8.550  1.5766 -1.7664  1.2317
 4041TIP3   OH233757   3.575   3.694   2.320 -0.5615 -0.1122  0.2659
 4041TIP3    H133758   3.619   3.741   2.391 -0.0112  1.3322 -0.9713
 4041TIP3    H233759   3.532   3.763   2.269 -2.2112 -1.2522  0.0317
 4042TIP3   OH233760   2.426   0.451   8.680  0.2456  0.0574 -0.3025
 4042TIP3    H133761   2.366   0.491   8.618  0.7150  0.2078 -0.6636
 4042TIP3    H233762   2.501   0.510   8.684 -0.7531  1.3143  2.2004
 4043TIP3   OH233763   4.170   3.003   7.602  0.1108  0.2266  0.1269
 4043TIP3    H133764   4.237   2.934   7.604  0.1647  0.2031 -1.5607
 4043TIP3    H233765   4.112   2.982   7.675  0.1078 -1.6473 -0.3598
 4044TIP3   OH233766   2.738   1.741   8.613 -0.0741 -0.0402 -0.1315
 4044TIP3    H133767   2.733   1.837   8.620 -1.2860 -0.0551 -0.4818
 4044TIP3    H233768   2.658   1.710   8.656 -1.6258 -0.6915 -3.2314
 4045TIP3   OH233769   2.593   3.328   2.649  0.4003  0.0387 -0.6515
 4045TIP3    H133770   2.604   3.241   2.687  0.7698 -0.0153 -0.8765
 4045TIP3    H233771   2.571   3.311   2.557 -0.6439  0.1659 -0.4324
 4046TIP3   OH233772   6.514   0.790   2.282 -0.0150 -0.1303  0.3452
 4046TIP3    H133773   6.471   0.855   2.337 -2.4740  0.5523 -2.1446
 4046TIP3    H233774   6.458   0.713   2.288  1.2826 -1.0771  0.9620
 4047TIP3   OH233775   3.389   5.631   0.930  0.2610 -0.2225 -0.0215
 4047TIP3    H133776   3.473   5.647   0.975  1.4502 -2.0276 -1.4535
 4047TIP3    H233777   3.379   5.536   0.932  0.4828 -0.4558 -3.6355
 4048TIP3   OH233778   6.393   0.721   1.401  0.6946 -0.4593  0.7063
 4048TIP3    H133779   6.392   0.713   1.306  0.9409 -0.0366  0.6626
 4048TIP3    H233780   6.371   0.634   1.434  1.2459 -0.7646  0.2707
 4049TIP3   OH233781   4.270   0.288   8.221 -0.7138 -0.6768  0.2888
 4049TIP3    H133782   4.326   0.218   8.188  0.8153  0.7170 -0.2081
 4049TIP3    H233783   4.329   0.343   8.274 -1.2924  1.4817 -1.1928
 4050TIP3   OH233784   6.721   4.469   1.507  0.0914  0.1047 -0.1336
 4050TIP3    H133785   6.660   4.431   1.570  0.1976 -0.4135 -0.3407
 4050TIP3    H233786   6.745   4.396   1.449  0.7575  0.3436 -0.1720
 4051TIP3   OH233787   2.662   5.244   1.179 -0.4051 -0.3590  0.3429
 4051TIP3    H133788   2.635   5.166   1.227  2.7574 -0.6629  1.8452
 4051TIP3    H233789   2.716   5.293   1.240  0.5801  1.2638 -1.6883
 4052TIP3   OH233790   6.794   0.170   7.543  0.1300 -0.2303 -0.0419
 4052TIP3    H133791   6.757   0.180   7.455  0.7769  0.9044 -0.1930
 4052TIP3    H233792   6.728   0.119   7.590  0.2457 -1.7969 -1.4674
 4053TIP3   OH233793   4.505   5.059   0.707 -0.3488  0.1113 -0.6414
 4053TIP3    H133794   4.540   4.975   0.675  0.8652  0.8726 -1.4223
 4053TIP3    H233795   4.454   5.036   0.784 -0.6794 -1.4375 -1.2716
 4054TIP3   OH233796   0.270   3.172   2.734  0.1395  0.0592  0.6082
 4054TIP3    H133797   0.356   3.160   2.776  0.3792  1.1138  0.4457
 4054TIP3    H233798   0.211   3.116   2.784  1.2741 -2.3293 -0.5368
 4055TIP3   OH233799   5.775   6.534   1.726 -0.1275 -0.3276  0.2548
 4055TIP3    H133800   5.866   6.556   1.704 -0.1522  0.6923  1.1157
 4055TIP3    H233801   5.783   6.476   1.803 -0.2228  0.6548  1.0262
 4056TIP3   OH233802   0.068   4.685   2.123  0.5149 -0.2557 -0.1957
 4056TIP3    H133803   0.071   4.597   2.087  1.5590  0.1439 -1.1528
 4056TIP3    H233804   0.139   4.732   2.079  1.5561  0.4067  1.9949
 4057TIP3   OH233805   0.326   3.066   0.315 -0.0062  0.1848 -0.1530
 4057TIP3    H133806   0.339   2.975   0.288  1.1865  0.3661 -0.2298
 4057TIP3    H233807   0.264   3.101   0.251  0.5177 -0.2144 -0.8874
 4058TIP3   OH233808   4.460   1.212   0.622  0.2695  0.0040  0.2664
 4058TIP3    H133809   4.418   1.127   0.616  1.9072 -0.7459 -1.4326
 4058TIP3    H233810   4.490   1.217   0.713  2.4402 -2.4551 -0.1990
 4059TIP3   OH233811   1.433   0.468   0.049  0.4891 -0.5613  0.0127
 4059TIP3    H133812   1.460   0.545  -0.001  0.9831 -1.2694 -0.8316
 4059TIP3    H233813   1.381   0.504   0.121  0.4555  0.5382 -0.5348
 4060TIP3   OH233814   1.144   2.031   1.110  0.0062 -0.4083 -0.5677
 4060TIP3    H133815   1.054   2.051   1.135  0.4277 -0.8067  1.4847
 4060TIP3    H233816   1.193   2.111   1.132  0.3597 -0.6782 -0.3553
 4061TIP3   OH233817   2.699   5.591   1.384  0.1391 -0.3935  0.3424
 4061TIP3    H133818   2.771   5.650   1.359  0.8840 -0.3672  2.3872
 4061TIP3    H233819   2.723   5.507   1.345  0.6195 -0.0865 -0.0437
 4062TIP3   OH233820   2.039   1.998   2.871  0.2431  0.2124 -0.0793
 4062TIP3    H133821   2.047   1.917   2.922 -0.5214 -0.4139 -0.9228
 4062TIP3    H233822   1.979   2.053   2.921  1.3096  0.5752  0.8570
 4063TIP3   OH233823   1.283   3.099   1.827  0.1998  0.3703 -0.1329
 4063TIP3    H133824   1.192   3.126   1.842 -0.1229  0.2374 -1.7238
 4063TIP3    H233825   1.298   3.114   1.734  0.9050 -2.2535 -0.5315
 4064TIP3   OH233826   4.988   5.876   7.290 -0.1641  0.2128 -0.5695
 4064TIP3    H133827   4.972   5.969   7.306  0.9425  0.2479  0.4771
 4064TIP3    H233828   5.074   5.873   7.249 -0.4723 -0.3198 -1.2038
 4065TIP3   OH233829   6.495   0.448   2.308 -0.1207  0.2602 -0.4211
 4065TIP3    H133830   6.479   0.356   2.287  0.7283  0.7059 -3.5621
 4065TIP3    H233831   6.566   0.446   2.371 -0.1181 -1.2385 -0.4240
 4066TIP3   OH233832   6.063   6.534   1.692  0.3349  0.0505 -0.3367
 4066TIP3    H133833   6.087   6.445   1.668  1.3377  0.6076 -1.4876
 4066TIP3    H233834   6.146   6.579   1.706  0.0038  1.5787 -2.7239
 4067TIP3   OH233835   0.435   6.291   0.761  0.6819 -0.6374  0.7880
 4067TIP3    H133836   0.371   6.243   0.709  1.2732 -3.3433  2.3667
 4067TIP3    H233837   0.519   6.267   0.723  0.9962 -0.9644  1.6615
 4068TIP3   OH233838   6.054   6.342   0.784  0.2380 -0.6146 -0.2525
 4068TIP3    H133839   6.145   6.311   0.782 -0.0669 -1.5349 -0.2097
 4068TIP3    H233840   6.029   6.337   0.877  0.1431 -0.3506 -0.2623
 4069TIP3   OH233841   3.291   2.705   2.947  0.9417  0.2503 -0.3340
 4069TIP3    H133842   3.219   2.663   2.994 -0.2362  1.9185 -0.5387
 4069TIP3    H233843   3.370   2.678   2.993  0.1232 -1.0789  0.3246
 4070TIP3   OH233844   2.227   5.498   8.008  0.2332  0.6669  0.2382
 4070TIP3    H133845   2.279   5.518   7.930 -0.0236 -0.9597 -0.3871
 4070TIP3    H233846   2.160   5.437   7.977  0.1453 -0.0313  1.7291
 4071TIP3   OH233847   4.632   2.060   7.191  0.2955 -0.5277 -0.1998
 4071TIP3    H133848   4.615   2.003   7.116  1.2240 -1.4070  0.2452
 4071TIP3    H233849   4.558   2.047   7.250 -0.6180  0.4268 -1.0912
 4072TIP3   OH233850   4.871   2.858   7.815  0.6088  0.5859  0.0209
 4072TIP3    H133851   4.895   2.930   7.874 -0.0850  0.6816  0.1874
 4072TIP3    H233852   4.819   2.900   7.747 -0.3595  0.1390  0.4749
 4073TIP3   OH233853   0.452   3.400   8.823  0.0684  0.1644  0.0528
 4073TIP3    H133854   0.405   3.317   8.825 -1.6347  1.0748  0.6629
 4073TIP3    H233855   0.436   3.434   8.735 -1.1334  0.8298  0.5071
 4074TIP3   OH233856   4.437   1.512   0.896 -0.3635 -0.1371 -0.2456
 4074TIP3    H133857   4.484   1.593   0.877 -1.4077  0.6146  0.2823
 4074TIP3    H233858   4.393   1.490   0.814  0.9209 -0.8771 -0.7598
 4075TIP3   OH233859   6.232   2.763   1.807  0.1961 -0.2964  0.6204
 4075TIP3    H133860   6.218   2.676   1.842  0.4052  0.4038  2.5951
 4075TIP3    H233861   6.191   2.762   1.720  0.8802 -2.5508  0.2621
 4076TIP3   OH233862   3.082   6.049   1.736 -0.3007  0.4029 -0.2582
 4076TIP3    H133863   3.041   5.990   1.673  1.0372  0.4631 -1.2250
 4076TIP3    H233864   3.134   5.992   1.792 -1.3772  0.3652  0.7576
 4077TIP3   OH233865   6.003   4.124   2.159  0.1318 -0.2879 -0.6438
 4077TIP3    H133866   5.970   4.066   2.091 -0.6962 -1.9693  1.1136
 4077TIP3    H233867   5.925   4.163   2.198  0.6426  1.4807 -1.2790
 4078TIP3   OH233868   3.949   0.735   7.729  0.2753  0.1000 -0.6385
 4078TIP3    H133869   3.872   0.787   7.752 -1.0292 -1.5801 -1.0003
 4078TIP3    H233870   3.923   0.687   7.650  1.9431  0.0069 -1.1588
 4079TIP3   OH233871   0.007   2.246   1.784 -0.0228  0.0579  0.3387
 4079TIP3    H133872   0.016   2.167   1.836 -2.0965 -2.3558 -2.5847
 4079TIP3    H233873  -0.079   2.281   1.808 -1.3665 -1.5327 -1.7965
 4080TIP3   OH233874   5.693   1.241   1.740  0.3920 -0.7904 -0.3767
 4080TIP3    H133875   5.772   1.296   1.738  0.5334 -1.0019 -2.4057
 4080TIP3    H233876   5.699   1.187   1.661 -1.9798 -0.5051 -0.8335
 4081TIP3   OH233877   5.285   4.661   2.377 -0.4022  0.1421  0.2694
 4081TIP3    H133878   5.197   4.699   2.373  0.8475  3.3564  0.1833
 4081TIP3    H233879   5.289   4.619   2.463 -2.1812 -0.6289  0.0238
 4082TIP3   OH233880   4.714   2.343   2.193 -0.2458 -0.4376 -0.4648
 4082TIP3    H133881   4.638   2.299   2.157 -1.2381  0.4668  0.4561
 4082TIP3    H233882   4.762   2.275   2.239 -0.4338 -1.0325 -1.1319
 4083TIP3   OH233883   3.416   5.276   1.541  0.3583 -0.0369  0.2785
 4083TIP3    H133884   3.433   5.225   1.620 -0.4190  0.1623  0.5885
 4083TIP3    H233885   3.424   5.367   1.568 -0.5693  0.0480  0.2986
 4084TIP3   OH233886   6.511   5.468   2.196 -0.6565 -0.1272 -0.0753
 4084TIP3    H133887   6.530   5.510   2.280 -2.1414  0.7632 -0.1337
 4084TIP3    H233888   6.462   5.389   2.219 -0.8912  0.0141 -0.0804
 4085TIP3   OH233889   6.029   6.068   7.275  0.0362 -0.0060  0.1984
 4085TIP3    H133890   5.977   6.010   7.220  3.0514 -1.4474 -1.3959
 4085TIP3    H233891   6.032   6.151   7.226 -1.7177  0.5671  0.9661
 4086TIP3   OH233892   3.671   5.516   1.292 -0.7341 -0.3241 -0.0167
 4086TIP3    H133893   3.679   5.611   1.301  1.9428 -0.5317  0.8785
 4086TIP3    H233894   3.579   5.501   1.270 -1.2575  2.4434 -0.0701
 4087TIP3   OH233895   2.410   1.730   7.789 -0.3646 -0.2878 -0.8744
 4087TIP3    H133896   2.452   1.699   7.709  3.1487 -0.2281  0.7450
 4087TIP3    H233897   2.455   1.812   7.810 -0.9719 -0.4474  1.2770
 4088TIP3   OH233898   5.675   5.494   1.535  0.0171  0.1227 -0.5872
 4088TIP3    H133899   5.651   5.572   1.584 -0.3034 -1.8278  2.6314
 4088TIP3    H233900   5.620   5.497   1.457 -0.6617  2.5814 -0.1059
 4089TIP3   OH233901   1.231   0.777   1.821 -0.3641  0.3506  0.3844
 4089TIP3    H133902   1.196   0.820   1.899 -0.0874 -1.7419  1.7376
 4089TIP3    H233903   1.326   0.785   1.830 -0.2629 -1.4676  1.2583
 4090TIP3   OH233904   0.144   0.663   0.396  0.1170  0.6281 -0.1603
 4090TIP3    H133905   0.190   0.617   0.466  0.0155 -0.8119 -1.0003
 4090TIP3    H233906   0.061   0.689   0.436 -0.2699 -0.8488  0.0738
 4091TIP3   OH233907   4.925   3.033   8.406  0.2223  0.0768  0.4139
 4091TIP3    H133908   4.832   3.053   8.400  0.2529  0.3148  0.6894
 4091TIP3    H233909   4.934   2.947   8.365 -0.0020  0.3756 -0.2718
 4092TIP3   OH233910   3.826   0.174   8.490  0.1347  0.0405 -0.2740
 4092TIP3    H133911   3.834   0.216   8.576 -0.0495 -0.4678 -0.0027
 4092TIP3    H233912   3.760   0.226   8.444 -0.3336 -0.1505  0.1787
 4093TIP3   OH233913   1.138   2.431   8.346 -0.0935 -0.2053 -0.8220
 4093TIP3    H133914   1.114   2.354   8.399 -0.6402 -0.6276 -1.6600
 4093TIP3    H233915   1.058   2.453   8.299  0.3774  0.1708 -1.4554
 4094TIP3   OH233916   5.162   1.954   8.466 -0.3396  0.0721 -0.2067
 4094TIP3    H133917   5.243   1.912   8.437  0.3454  0.9385  0.4170
 4094TIP3    H233918   5.114   1.883   8.510  0.5436 -0.2108  0.3297
 4095TIP3   OH233919   1.121   3.204   1.485  0.0358  0.1888 -0.1794
 4095TIP3    H133920   1.122   3.284   1.537 -0.8898 -0.8126  1.4743
 4095TIP3    H233921   1.050   3.218   1.422 -0.4201  0.5067  0.3910
 4096TIP3   OH233922   3.459   2.802   0.611  0.1894  0.1623  0.3923
 4096TIP3    H133923   3.367   2.828   0.604  0.6489  1.7287 -0.2693
 4096TIP3    H233924   3.500   2.872   0.660  0.8727 -1.0045  1.5486
 4097TIP3   OH233925   5.081   2.765   7.367 -0.4894 -0.3706  0.7519
 4097TIP3    H133926   5.113   2.684   7.406  0.6782 -0.8867 -1.1219
 4097TIP3    H233927   5.146   2.830   7.391  0.6106 -0.8374 -0.8070
 4098TIP3   OH233928   3.940   6.774   1.284 -0.0596  0.3486 -0.1277
 4098TIP3    H133929   3.916   6.842   1.222  0.0359 -0.2430 -0.8275
 4098TIP3    H233930   3.997   6.715   1.234 -0.8751 -0.7428  0.1895
 4099TIP3   OH233931   4.781   4.283   8.145  0.3680 -1.0017  0.0545
 4099TIP3    H133932   4.868   4.285   8.105  0.7542 -0.0908  0.9134
 4099TIP3    H233933   4.722   4.304   8.072  1.1229  1.3949  0.0206
 4100TIP3   OH233934   0.878   4.649   8.376 -0.3227 -0.1217 -0.0880
 4100TIP3    H133935   0.823   4.679   8.449 -0.4018 -0.6633  0.0790
 4100TIP3    H233936   0.890   4.556   8.392  0.7792  0.0169 -0.0405
 4101TIP3   OH233937   0.315   0.315   2.442  0.4049 -0.1563 -0.0711
 4101TIP3    H133938   0.270   0.341   2.362 -1.0416 -0.9443  0.4589
 4101TIP3    H233939   0.381   0.384   2.456 -0.0942  0.5912 -1.2986
 4102TIP3   OH233940   5.679   4.194   1.549  0.4147 -0.5166 -0.4959
 4102TIP3    H133941   5.736   4.160   1.618  1.0031 -1.8319 -1.5874
 4102TIP3    H233942   5.647   4.116   1.502  1.9638  0.3421 -3.2189
 4103TIP3   OH233943   3.679   5.132   7.780 -0.8034 -0.1667 -0.0816
 4103TIP3    H133944   3.645   5.078   7.708 -2.1881  0.4084  0.0975
 4103TIP3    H233945   3.628   5.213   7.775 -0.4733  0.1419  1.1501
 4104TIP3   OH233946   0.608   6.427   0.927 -0.6194 -0.1092  0.7472
 4104TIP3    H133947   0.673   6.421   0.857  0.8117 -0.9428  2.0875
 4104TIP3    H233948   0.525   6.406   0.884 -0.1138  1.3809 -1.0883
 4105TIP3   OH233949   6.473   0.112   0.449  0.0701  0.5457 -0.1072
 4105TIP3    H133950   6.476   0.100   0.354 -1.2423 -0.7694 -0.0153
 4105TIP3    H233951   6.414   0.186   0.462 -0.3128  0.2804 -0.3028
 4106TIP3   OH233952   2.614   2.947   7.213 -0.2606  0.1313  0.3819
 4106TIP3    H133953   2.690   2.963   7.157  0.0306 -1.8374  0.1289
 4106TIP3    H233954   2.540   2.940   7.151 -0.6314  1.7458  0.6025
 4107TIP3   OH233955   6.289   1.306   0.910 -0.1677  0.0518  0.0557
 4107TIP3    H133956   6.217   1.347   0.958  0.0913 -0.3009  0.7637
 4107TIP3    H233957   6.252   1.226   0.874 -0.2917  0.1799 -0.1002
 4108TIP3   OH233958   3.345   1.054   0.401 -0.4663 -0.2918 -0.4202
 4108TIP3    H133959   3.421   1.074   0.346 -1.7030 -0.5235 -2.3172
 4108TIP3    H233960   3.296   1.136   0.405 -0.4797 -0.3265  0.2057
 4109TIP3   OH233961   5.258   5.671   2.098  0.3299  0.2117  0.3750
 4109TIP3    H133962   5.341   5.701   2.061 -0.3227  1.1883 -0.3558
 4109TIP3    H233963   5.276   5.583   2.131  0.7693 -1.1902 -3.1217
 4110TIP3   OH233964   3.408   0.793   8.770  0.3317  0.7768 -0.0059
 4110TIP3    H133965   3.386   0.715   8.821  0.0800 -0.2272 -1.5932
 4110TIP3    H233966   3.396   0.866   8.832 -0.1884 -0.3592  1.2837
 4111TIP3   OH233967   5.495   3.813   8.024 -0.0168  0.0877  0.8311
 4111TIP3    H133968   5.533   3.855   8.101  2.3633 -0.0672 -0.1930
 4111TIP3    H233969   5.516   3.721   8.034  4.3826  0.5146 -1.9933
 4112TIP3   OH233970   5.955   3.391   7.777  0.1050  0.3885 -0.1312
 4112TIP3    H133971   6.017   3.319   7.788 -0.5193 -0.0004  1.0914
 4112TIP3    H233972   5.937   3.394   7.683  1.9797  0.5456 -0.5167
 4113TIP3   OH233973   2.852   5.369   1.286  0.1196 -0.2124  0.2890
 4113TIP3    H133974   2.891   5.291   1.327 -0.4196  0.4408  2.1570
 4113TIP3    H233975   2.925   5.431   1.282  0.3232 -0.4861 -0.3317
 4114TIP3   OH233976   1.648   3.153   7.393  0.0411 -0.1488 -0.3876
 4114TIP3    H133977   1.717   3.101   7.353  0.9810 -0.8071  1.9697
 4114TIP3    H233978   1.689   3.237   7.412 -0.0450 -0.2572  0.2828
 4115TIP3   OH233979   1.999   1.781   0.998  0.4409  0.1816  0.1536
 4115TIP3    H133980   1.962   1.735   1.073 -1.9810  1.8001  0.0398
 4115TIP3    H233981   1.951   1.747   0.923  1.0259  0.4447 -0.3458
 4116TIP3   OH233982   6.731   3.654   0.975 -0.0567 -0.4586  0.1802
 4116TIP3    H133983   6.776   3.571   0.959 -1.1164 -0.9160 -0.5549
 4116TIP3    H233984   6.689   3.674   0.892  0.9324  1.3064  0.0675
 4117TIP3   OH233985   0.811   1.445   1.233  0.0285 -0.3064 -0.3055
 4117TIP3    H133986   0.800   1.352   1.255 -1.5081 -0.2055 -0.5274
 4117TIP3    H233987   0.722   1.480   1.230  0.5200  0.9705 -1.1541
 4118TIP3   OH233988   1.619   1.805   1.774 -0.0723  0.0296  0.1978
 4118TIP3    H133989   1.655   1.866   1.839 -0.0279  0.8888 -0.6129
 4118TIP3    H233990   1.694   1.751   1.748  0.3213  0.8627 -0.4324
 4119TIP3   OH233991   1.792   4.909   0.784  0.1708 -0.3801  0.3313
 4119TIP3    H133992   1.884   4.886   0.794  0.0623 -0.2508  1.8043
 4119TIP3    H233993   1.773   4.968   0.857 -1.4147 -1.4965  0.8808
 4120TIP3   OH233994   3.088   4.391   2.402  0.5549 -0.1648  0.0035
 4120TIP3    H133995   3.065   4.477   2.366 -2.0526  0.3534  2.4903
 4120TIP3    H233996   3.004   4.351   2.423  1.7842 -2.3655  1.0553
 4121TIP3   OH233997   4.586   3.915   7.476 -0.2864 -0.6491 -0.1255
 4121TIP3    H133998   4.548   3.920   7.564  2.1533 -0.5748  1.0080
 4121TIP3    H233999   4.593   4.006   7.447 -0.7299 -0.6479 -0.2292
 4122TIP3   OH234000   2.093   5.863   7.842 -0.0623 -0.0450 -0.1228
 4122TIP3    H134001   2.038   5.928   7.887  0.1066 -0.6171  0.9527
 4122TIP3    H234002   2.043   5.781   7.850  0.3941 -0.3319 -0.1879
 4123TIP3   OH234003   3.569   0.716   8.567  0.2679  0.0488 -0.1322
 4123TIP3    H134004   3.654   0.696   8.607  0.1242  1.7391  1.1214
 4123TIP3    H234005   3.516   0.751   8.639 -1.1725 -0.0638 -1.0993
 4124TIP3   OH234006   6.668   1.703   7.314  0.0652  1.0815 -0.2192
 4124TIP3    H134007   6.664   1.697   7.410  1.1291  0.0693 -0.2190
 4124TIP3    H234008   6.743   1.760   7.297  0.2416  0.7834 -0.4486
 4125TIP3   OH234009   5.701   4.694   0.280 -0.0736 -0.3377 -0.3521
 4125TIP3    H134010   5.752   4.768   0.246 -0.5824 -0.4443 -1.3794
 4125TIP3    H234011   5.736   4.680   0.368 -0.9184  2.0144  0.4292
 4126TIP3   OH234012   6.538   5.130   1.172  0.6906  0.1808  0.0253
 4126TIP3    H134013   6.585   5.047   1.180  2.1236  0.6727 -2.3074
 4126TIP3    H234014   6.446   5.105   1.171  0.9058 -1.0190  2.6176
 4127TIP3   OH234015   4.733   3.543   0.644  0.6430  0.4517  0.4295
 4127TIP3    H134016   4.680   3.609   0.600  3.0151  1.2553 -1.4717
 4127TIP3    H234017   4.738   3.572   0.735  0.0621  1.8260  0.0477
 4128TIP3   OH234018   6.138   5.014   2.000 -0.0951  0.0446  0.0729
 4128TIP3    H134019   6.192   4.993   1.923  0.8684  2.6447 -0.0387
 4128TIP3    H234020   6.058   5.051   1.965  0.4675  1.5121  0.2904
 4129TIP3   OH234021   1.598   3.183   2.738 -0.7724 -0.1521  0.5541
 4129TIP3    H134022   1.535   3.230   2.794 -0.5280  1.0612 -0.1636
 4129TIP3    H234023   1.637   3.250   2.683  0.6579 -0.9946  0.4864
 4130TIP3   OH234024   6.473   3.762   0.507  0.4008  0.1868  0.7082
 4130TIP3    H134025   6.543   3.722   0.455  1.1373  0.5245  1.4200
 4130TIP3    H234026   6.404   3.695   0.511  0.4712  0.0346 -0.4070
 4131TIP3   OH234027   6.682   1.179   1.146  0.6550  1.0671  0.3488
 4131TIP3    H134028   6.670   1.274   1.137 -2.0086  0.7719 -0.1367
 4131TIP3    H234029   6.615   1.153   1.209  1.0155 -0.5819  0.0854
 4132TIP3   OH234030   6.092   0.103   8.180  0.8771  0.1831  0.4562
 4132TIP3    H134031   6.124   0.013   8.175 -0.6713 -0.3486 -0.8632
 4132TIP3    H234032   5.998   0.094   8.198  1.0438  1.6185  2.3350
 4133TIP3   OH234033   4.895   3.310   0.740  0.5097 -0.0868 -0.1368
 4133TIP3    H134034   4.882   3.228   0.787  1.1875  0.6361  1.3841
 4133TIP3    H234035   4.808   3.348   0.733  0.4843  0.1372  1.2239
 4134TIP3   OH234036   3.707   0.191   1.954  0.0575 -0.1095  0.3284
 4134TIP3    H134037   3.683   0.110   2.000  0.7917  0.1634  1.2180
 4134TIP3    H234038   3.623   0.234   1.936 -0.4771 -1.7780 -1.5760
 4135TIP3   OH234039   2.267   4.485   0.788 -0.6293 -0.1363  0.3744
 4135TIP3    H134040   2.287   4.565   0.836 -0.6635 -0.3777  0.7969
 4135TIP3    H234041   2.338   4.478   0.724 -0.6557  0.2594  0.2991
 4136TIP3   OH234042   3.851   6.136   7.636 -0.3999  0.2629 -0.7522
 4136TIP3    H134043   3.812   6.166   7.718 -0.0653 -1.0670 -0.0694
 4136TIP3    H234044   3.833   6.042   7.634  0.9281 -0.0079 -1.4479
 4137TIP3   OH234045   3.178   3.578   0.774  0.0555 -0.0392  0.1170
 4137TIP3    H134046   3.266   3.596   0.807 -0.7906  2.1770  1.4264
 4137TIP3    H234047   3.121   3.637   0.825 -2.4102 -2.5111  0.4990
 4138TIP3   OH234048   1.091   1.904   1.916 -0.3103  0.3673 -0.5824
 4138TIP3    H134049   1.049   1.848   1.981 -0.6039  0.1371 -0.9740
 4138TIP3    H234050   1.023   1.966   1.890 -0.7372 -0.6760 -2.0087
 4139TIP3   OH234051   3.255   1.181   1.047  0.3584  0.3027  0.3495
 4139TIP3    H134052   3.287   1.219   1.129 -0.4351  1.7224  0.0380
 4139TIP3    H234053   3.188   1.119   1.074 -0.4036  1.2788  0.7745
 4140TIP3   OH234054   3.794   3.090   0.033  0.1310  0.8843  0.2198
 4140TIP3    H134055   3.861   3.108   0.099  1.2151 -0.9683 -0.2941
 4140TIP3    H234056   3.718   3.140   0.062  0.4998  0.0103  2.9983
 4141TIP3   OH234057   5.932   3.996   1.215 -0.6655  0.3350  0.1373
 4141TIP3    H134058   5.984   3.917   1.213 -1.9647 -0.5678  0.5240
 4141TIP3    H234059   5.953   4.041   1.134  1.2242  0.3792  0.5995
 4142TIP3   OH234060   6.361   1.541   7.485  0.0013  0.4822 -0.2990
 4142TIP3    H134061   6.277   1.495   7.486  0.3430 -0.1557 -0.4718
 4142TIP3    H234062   6.371   1.569   7.394  0.0394  0.4368 -0.3089
 4143TIP3   OH234063   4.785   6.074   0.768 -0.4240 -0.2231  0.1144
 4143TIP3    H134064   4.871   6.040   0.795  0.0744  0.6067 -0.3698
 4143TIP3    H234065   4.728   6.058   0.844 -0.2284 -2.0924 -0.0800
 4144TIP3   OH234066   6.230   0.492   0.268  0.2406 -0.1988 -0.5312
 4144TIP3    H134067   6.310   0.540   0.289 -0.4920  0.6697  0.4058
 4144TIP3    H234068   6.260   0.404   0.246  1.5538  0.4857 -1.5785
 4145TIP3   OH234069   6.456   3.675   1.175 -0.1967 -0.1943 -0.0532
 4145TIP3    H134070   6.465   3.764   1.211 -1.3242 -0.2213  0.3625
 4145TIP3    H234071   6.540   3.633   1.191 -0.0232  0.4496  0.7674
 4146TIP3   OH234072   5.270   2.887   2.636 -0.2310 -0.0279  0.5509
 4146TIP3    H134073   5.246   2.902   2.727 -1.1433  0.8325  0.1825
 4146TIP3    H234074   5.270   2.974   2.596  2.5856 -0.0468  0.2604
 4147TIP3   OH234075   0.470   5.663   0.029  0.7711  0.0577 -0.2097
 4147TIP3    H134076   0.425   5.599   0.083  1.1281 -0.0365 -0.0242
 4147TIP3    H234077   0.515   5.611  -0.038 -0.7212  0.2316 -1.4170
 4148TIP3   OH234078   1.527   4.801   1.183  0.1793 -0.2159  0.3657
 4148TIP3    H134079   1.523   4.706   1.192  1.3445 -0.2855  0.3775
 4148TIP3    H234080   1.618   4.818   1.157  0.1620  0.9379  1.0016
 4149TIP3   OH234081   0.988   4.746   2.892  0.0108  0.3181 -0.1021
 4149TIP3    H134082   1.004   4.825   2.841  1.1565 -0.4184 -0.9100
 4149TIP3    H234083   0.907   4.710   2.855  1.0199 -0.4103 -1.7172
 4150TIP3   OH234084   1.080   3.447   7.565  0.3240  0.2922 -0.3189
 4150TIP3    H134085   1.019   3.432   7.637  1.5287 -0.7948  0.5015
 4150TIP3    H234086   1.024   3.461   7.489 -0.9521 -0.3786  0.4675
 4151TIP3   OH234087   6.056   3.723   8.188 -0.2139  0.6728 -0.2981
 4151TIP3    H134088   6.091   3.799   8.235 -0.9847  0.6612  0.3306
 4151TIP3    H234089   6.062   3.747   8.096 -0.1214  1.3597 -0.1196
 4152TIP3   OH234090   2.106   5.246   1.274  0.0158 -0.4248 -0.2309
 4152TIP3    H134091   2.079   5.184   1.341 -0.9284  2.3229  2.1018
 4152TIP3    H234092   2.188   5.210   1.240 -0.5108 -2.9235  0.9527
 4153TIP3   OH234093   3.823   1.240   1.608  0.0717  0.4965  0.0159
 4153TIP3    H134094   3.863   1.155   1.626  0.4257  0.6604  0.0124
 4153TIP3    H234095   3.818   1.245   1.512 -0.2436  0.3455  0.0235
 4154TIP3   OH234096   0.654   5.976   1.160  0.1319  0.1345  0.1456
 4154TIP3    H134097   0.708   5.898   1.174  0.8523  0.6832  0.5029
 4154TIP3    H234098   0.701   6.046   1.205  1.9833  1.7954 -3.8644
 4155TIP3   OH234099   2.698   0.642   8.354  0.3393  0.4991 -0.3347
 4155TIP3    H134100   2.666   0.589   8.281  3.3952 -2.3858  0.1758
 4155TIP3    H234101   2.658   0.603   8.432  1.5961 -0.2966 -0.0596
 4156TIP3   OH234102   6.329   1.994   8.745  0.1371  0.3976 -0.5800
 4156TIP3    H134103   6.286   1.990   8.830  1.8289  0.8051  0.3504
 4156TIP3    H234104   6.409   1.942   8.757  0.3307  0.3445 -1.9693
 4157TIP3   OH234105   0.047   0.831   8.130 -0.0941 -0.0911  0.0706
 4157TIP3    H134106   0.110   0.901   8.149  0.2840 -0.4212  0.0471
 4157TIP3    H234107  -0.017   0.837   8.200  0.8043 -0.7328  0.9722
 4158TIP3   OH234108   1.718   5.573   1.931 -0.1791 -0.5287  0.0495
 4158TIP3    H134109   1.698   5.617   2.014  0.5567 -0.2914  0.1014
 4158TIP3    H234110   1.772   5.635   1.883  0.5505 -1.2138 -0.0371
 4159TIP3   OH234111   0.482   4.266   8.809  0.4150  0.8697 -0.0196
 4159TIP3    H134112   0.548   4.308   8.864 -0.8162 -0.4017  2.6005
 4159TIP3    H234113   0.503   4.295   8.720  4.4090  0.6001  0.6494
 4160TIP3   OH234114   1.685   3.995   7.391 -0.1962 -0.2676 -0.1511
 4160TIP3    H134115   1.745   4.060   7.353  2.0577 -0.8904  2.0192
 4160TIP3    H234116   1.659   3.940   7.317  2.1751 -0.0971 -1.2199
 4161TIP3   OH234117   6.459   2.861   7.505  0.4216  0.1417 -0.3002
 4161TIP3    H134118   6.439   2.781   7.456 -0.3794  0.5514 -0.6678
 4161TIP3    H234119   6.543   2.843   7.548  0.5107 -0.6935 -0.8046
 4162TIP3   OH234120   5.127   1.697   8.608 -0.0547 -0.0266  0.2397
 4162TIP3    H134121   5.063   1.713   8.676 -1.1451 -0.6802 -0.5966
 4162TIP3    H234122   5.211   1.719   8.648 -0.6494 -0.5066  1.8174
 4163TIP3   OH234123   3.510   5.652   7.511  0.0655  0.3127  0.2552
 4163TIP3    H134124   3.443   5.714   7.483  0.2874  0.9260  1.0478
 4163TIP3    H234125   3.535   5.606   7.431 -0.7662  0.5963 -0.1786
 4164TIP3   OH234126   0.693   6.642   8.630  0.4565  0.0706 -0.3045
 4164TIP3    H134127   0.698   6.648   8.726  1.6757 -4.7541  0.1895
 4164TIP3    H234128   0.747   6.715   8.599  0.9538  1.1501  2.7206
 4165TIP3   OH234129   2.028   1.777   6.868  0.0499  0.1759 -0.5916
 4165TIP3    H134130   2.030   1.869   6.894  0.4430  0.3272 -1.1275
 4165TIP3    H234131   2.113   1.743   6.897 -0.4177 -0.2364  0.3410
 4166TIP3   OH234132   4.579   6.008   7.944 -0.1114  0.6752  0.0797
 4166TIP3    H134133   4.608   6.068   8.013  0.5953 -2.3578  2.6602
 4166TIP3    H234134   4.656   5.955   7.925 -0.8052  0.2830 -1.8335
 4167TIP3   OH234135   1.996   5.578   7.143 -0.8071 -0.0604 -0.9281
 4167TIP3    H134136   1.917   5.603   7.094  0.3469 -0.0612 -2.8756
 4167TIP3    H234137   2.068   5.589   7.080  0.5791 -1.5203  0.3247
 4168TIP3   OH234138   3.540   3.109   8.433 -0.3038 -0.4181  0.1630
 4168TIP3    H134139   3.552   3.196   8.396  0.1815 -0.0709  1.1029
 4168TIP3    H234140   3.473   3.068   8.378  0.2782  0.1354 -0.9730
 4169TIP3   OH234141   3.220   3.724   1.073  0.0454 -0.6765 -0.3662
 4169TIP3    H134142   3.256   3.811   1.061  0.2165 -0.8316 -1.0237
 4169TIP3    H234143   3.134   3.727   1.031 -0.0180 -0.7775 -0.2464
 4170TIP3   OH234144   1.739   5.476   6.963  0.4812  0.4725  0.5377
 4170TIP3    H134145   1.722   5.555   6.912 -2.8720  0.1189  0.8943
 4170TIP3    H234146   1.779   5.415   6.900  0.8729  1.6254 -0.3640
 4171TIP3   OH234147   3.088   1.086   6.914 -0.2278 -0.7183  0.1320
 4171TIP3    H134148   3.002   1.127   6.925  0.1845 -0.1919  1.5336
 4171TIP3    H234149   3.071   1.011   6.856 -1.1231  0.9517 -1.9235
 4172TIP3   OH234150   2.181   6.714   1.378 -0.1611 -0.2366  0.1110
 4172TIP3    H134151   2.136   6.770   1.441  2.9848  0.2755  2.1243
 4172TIP3    H234152   2.212   6.640   1.430 -1.1145 -2.0901 -1.7997
 4173TIP3   OH234153   0.121   1.492   7.167  0.2706 -0.8028  0.1189
 4173TIP3    H134154   0.184   1.534   7.109 -1.8879  2.8182  0.0527
 4173TIP3    H234155   0.078   1.426   7.112 -1.2131  2.0000 -2.4371
 4174TIP3   OH234156   1.330   2.228   8.665  0.1875 -0.5046  0.5827
 4174TIP3    H134157   1.271   2.161   8.632  0.1522  0.0385 -0.4825
 4174TIP3    H234158   1.291   2.256   8.748 -0.1694 -1.2925  0.6868
 4175TIP3   OH234159   0.958   2.286   3.035  0.2707 -0.1557 -0.3175
 4175TIP3    H134160   0.904   2.208   3.022 -0.1460 -0.1913  1.3787
 4175TIP3    H234161   1.024   2.258   3.099  1.4445  0.3003 -1.2832
 4176TIP3   OH234162   0.198   2.518   8.436 -0.4237  0.1598  0.1065
 4176TIP3    H134163   0.256   2.443   8.431 -0.0276  0.4933 -0.4618
 4176TIP3    H234164   0.121   2.492   8.385 -0.5270 -0.0680  0.3789
 4177TIP3   OH234165   4.233   6.473   1.527  0.0140  0.4795 -0.2287
 4177TIP3    H134166   4.259   6.565   1.521  0.1379  0.5874  1.5117
 4177TIP3    H234167   4.293   6.428   1.467  1.3777  1.2807  0.4857
 4178TIP3   OH234168   1.483   2.712   3.109 -0.2725 -0.1914 -0.4763
 4178TIP3    H134169   1.542   2.638   3.091  0.3406  0.4292 -1.0618
 4178TIP3    H234170   1.539   2.789   3.103 -1.4486  0.5578 -2.7078
 4179TIP3   OH234171   5.444   6.538   2.840  0.1467  0.2143 -0.0369
 4179TIP3    H134172   5.397   6.606   2.791 -0.7749  0.4570  1.1555
 4179TIP3    H234173   5.404   6.538   2.926  1.7359 -0.2292  0.7372
 4180TIP3   OH234174   5.191   3.529   1.388  0.1434  0.5008 -0.1167
 4180TIP3    H134175   5.188   3.434   1.387  1.7876  0.4098 -1.9279
 4180TIP3    H234176   5.204   3.551   1.480 -0.2469 -0.9977  0.3308
 4181TIP3   OH234177   6.392   5.627   1.532  0.4272  0.3415 -0.1469
 4181TIP3    H134178   6.464   5.602   1.474 -0.1531  0.6292 -1.0010
 4181TIP3    H234179   6.344   5.693   1.484 -1.8060 -1.5062 -0.6123
 4182TIP3   OH234180   0.240   6.004   3.031  0.2617  0.3263 -0.4136
 4182TIP3    H134181   0.164   5.969   3.077  1.3300 -0.9354  0.4956
 4182TIP3    H234182   0.212   6.090   3.001 -1.1907  0.3271  0.7789
 4183TIP3   OH234183   4.018   2.379   1.713 -0.1097 -0.0745  0.1266
 4183TIP3    H134184   3.943   2.437   1.723 -0.1581 -0.3124  1.2649
 4183TIP3    H234185   3.981   2.291   1.715  0.3548 -0.2902  2.9282
 4184TIP3   OH234186   4.884   0.999   8.498  0.2518  0.3372 -0.1104
 4184TIP3    H134187   4.893   0.919   8.549 -0.6864  0.3751  0.1214
 4184TIP3    H234188   4.963   1.050   8.519 -0.1316  0.3687  1.3154
 4185TIP3   OH234189   3.703   4.390   1.069 -0.5518  0.1805 -0.5905
 4185TIP3    H134190   3.758   4.434   1.134 -0.9896 -0.3287  0.1254
 4185TIP3    H234191   3.659   4.462   1.022  0.3127  0.5747 -0.8244
 4186TIP3   OH234192   0.853   4.496   7.172 -0.7371 -0.1891  0.1283
 4186TIP3    H134193   0.781   4.559   7.171 -1.6660 -1.2259 -0.9317
 4186TIP3    H234194   0.924   4.541   7.125 -1.1079  0.3686  0.0836
 4187TIP3   OH234195   4.865   4.273   6.973  0.0062 -0.1253  0.1195
 4187TIP3    H134196   4.807   4.304   6.902  0.0353  1.5237  0.7659
 4187TIP3    H234197   4.941   4.331   6.967  0.1403 -0.1743  1.3021
 4188TIP3   OH234198   6.681   5.697   1.045  0.0595 -0.3878  0.0311
 4188TIP3    H134199   6.661   5.747   1.125 -0.0458  0.8261 -0.7253
 4188TIP3    H234200   6.776   5.703   1.037 -0.0665  0.8202 -0.7493
 4189TIP3   OH234201   5.342   2.216   1.543 -0.0856 -0.1855  0.0584
 4189TIP3    H134202   5.296   2.298   1.561 -0.3361 -0.3607  0.2248
 4189TIP3    H234203   5.435   2.237   1.555 -0.2020 -0.1202  0.8675
 4190TIP3   OH234204   0.999   5.026   2.753  0.4862 -0.7517  0.3278
 4190TIP3    H134205   0.996   5.051   2.845 -0.2489  1.7858 -0.3008
 4190TIP3    H234206   0.910   5.041   2.721  0.1572 -3.6194 -0.3860
 4191TIP3   OH234207   3.797   5.802   1.314  0.4066 -0.6950 -0.2040
 4191TIP3    H134208   3.892   5.807   1.311  0.3586  0.6915  0.1541
 4191TIP3    H234209   3.767   5.853   1.238 -0.0756  1.2913  1.2636
 4192TIP3   OH234210   4.416   5.623   6.457  0.4831  0.2231 -0.1369
 4192TIP3    H134211   4.400   5.709   6.495  1.4147  0.8029 -1.0233
 4192TIP3    H234212   4.510   5.619   6.445  0.9678 -2.2535  2.9495
 4193TIP3   OH234213   1.112   5.174   0.984  0.2132 -0.1732  0.1032
 4193TIP3    H134214   1.098   5.167   0.890 -1.4030 -0.3457  0.3290
 4193TIP3    H234215   1.025   5.165   1.022  0.6901  0.9828  1.5703
 4194TIP3   OH234216   1.712   1.051   2.844  0.1192 -0.1852  0.2975
 4194TIP3    H134217   1.768   1.021   2.916  1.0801 -1.9483 -1.1164
 4194TIP3    H234218   1.730   1.145   2.838  2.9086 -0.6452 -0.0103
 4195TIP3   OH234219   3.407   3.085   1.585 -0.1367 -0.5490  1.0197
 4195TIP3    H134220   3.398   3.106   1.491 -1.7161  2.2641  1.6754
 4195TIP3    H234221   3.482   3.138   1.613 -0.8165  0.0803  1.6781
 4196TIP3   OH234222   2.144   3.530   6.931 -0.1521  0.2065  0.4747
 4196TIP3    H134223   2.058   3.572   6.931 -0.5711 -0.6363  0.6379
 4196TIP3    H234224   2.194   3.578   6.997 -1.0335 -0.3665  1.5880
 4197TIP3   OH234225   5.957   1.756   2.123 -1.0986 -0.1803 -0.2255
 4197TIP3    H134226   6.012   1.684   2.092 -1.6146 -1.4700  1.6842
 4197TIP3    H234227   6.019   1.818   2.162 -0.6340  0.5820 -2.0595
 4198TIP3   OH234228   6.644   2.295   2.101  0.5937  0.1241 -0.5240
 4198TIP3    H134229   6.617   2.371   2.050 -1.5402 -0.0014  0.3439
 4198TIP3    H234230   6.572   2.233   2.093  0.9515 -0.5901  1.2256
 4199TIP3   OH234231   6.812   2.367   2.870  0.1043  0.4183 -0.1902
 4199TIP3    H134232   6.746   2.436   2.875 -0.9389 -0.5680  0.1959
 4199TIP3    H234233   6.880   2.395   2.933  0.2498  1.6122 -0.8446
 4200TIP3   OH234234   3.109   3.778   8.786 -0.2787  0.0167  0.1201
 4200TIP3    H134235   3.200   3.805   8.793 -0.2355  0.5817 -1.8329
 4200TIP3    H234236   3.113   3.682   8.786  0.3632  0.0341 -0.2893
 4201TIP3   OH234237   0.318   2.253   2.989  0.1460  0.1895 -0.1692
 4201TIP3    H134238   0.262   2.329   3.001  0.1850  0.4661 -1.5398
 4201TIP3    H234239   0.296   2.221   2.901  2.5376  0.6891 -1.0236
 4202TIP3   OH234240   2.394   6.324   7.482  0.2438 -0.2272  0.5599
 4202TIP3    H134241   2.352   6.365   7.407  0.2334 -2.7387 -0.9107
 4202TIP3    H234242   2.432   6.243   7.447  2.0978 -0.4411  2.8342
 4203TIP3   OH234243   5.240   4.391   1.101  0.7584  0.2162  0.1826
 4203TIP3    H134244   5.249   4.429   1.188  0.9653  2.5698 -0.7813
 4203TIP3    H234245   5.322   4.344   1.087  0.7643 -0.1012  1.2016
 4204TIP3   OH234246   0.573   1.190   8.225  0.3965 -0.0832 -0.2293
 4204TIP3    H134247   0.603   1.269   8.179 -2.8059 -0.1804 -2.8532
 4204TIP3    H234248   0.600   1.118   8.168  0.6706 -0.6625  0.6165
 4205TIP3   OH234249   1.877   1.016   8.730  0.0307 -0.2831  0.2590
 4205TIP3    H134250   1.926   1.068   8.794  0.1572 -0.5934  0.4147
 4205TIP3    H234251   1.832   1.081   8.676 -0.2497 -0.0274  0.7973
 4206TIP3   OH234252   1.984   2.643   8.027 -0.4390 -0.0949  0.1646
 4206TIP3    H134253   1.933   2.638   8.108  0.9887 -0.7749  1.0663
 4206TIP3    H234254   2.054   2.706   8.048 -0.6145  0.4689 -0.8847
 4207TIP3   OH234255   0.627   5.221   2.457  0.1848  0.1336  0.4449
 4207TIP3    H134256   0.580   5.236   2.539  1.6502 -1.7003  1.6968
 4207TIP3    H234257   0.615   5.128   2.439  0.7627  0.2952 -0.8774
 4208TIP3   OH234258   6.433   1.928   0.987 -0.3558 -0.1427  0.3884
 4208TIP3    H134259   6.342   1.898   0.980 -0.0675 -0.7109 -1.4336
 4208TIP3    H234260   6.450   1.974   0.905  0.0072  3.0158  2.0548
 4209TIP3   OH234261   4.163   4.173   7.552 -0.1469  0.0524 -0.3837
 4209TIP3    H134262   4.221   4.173   7.476 -0.4137  1.0952 -0.6159
 4209TIP3    H234263   4.075   4.187   7.514 -0.5395 -1.3331 -0.0289
 4210TIP3   OH234264   0.008   0.370   0.622 -0.0133  0.4327 -0.8132
 4210TIP3    H134265   0.039   0.386   0.711  0.5561  0.5710 -1.0327
 4210TIP3    H234266   0.087   0.371   0.568 -0.5985  3.9509 -1.8512
 4211TIP3   OH234267   5.070   5.322   1.024  0.4310 -0.0028  0.3699
 4211TIP3    H134268   5.119   5.403   1.037 -1.4520  1.1444  0.6844
 4211TIP3    H234269   5.084   5.273   1.104  0.1231  0.8280  0.9440
 4212TIP3   OH234270   5.453   0.323   1.376  0.0187 -0.6018 -0.0467
 4212TIP3    H134271   5.506   0.377   1.319  0.9313 -1.2990  0.1184
 4212TIP3    H234272   5.492   0.236   1.370 -2.7883 -1.8821 -2.1383
 4213TIP3   OH234273   2.233   1.027   1.150 -0.0886 -0.2682 -0.2280
 4213TIP3    H134274   2.172   0.960   1.181 -0.5346  0.1802 -0.1200
 4213TIP3    H234275   2.309   0.978   1.121 -0.7373 -0.8940 -0.9303
 4214TIP3   OH234276   2.135   3.981   0.609 -0.4316  0.1010 -0.2134
 4214TIP3    H134277   2.073   3.933   0.554 -1.0539 -0.7831  1.2023
 4214TIP3    H234278   2.168   3.915   0.671  1.3410  0.7303 -0.4147
 4215TIP3   OH234279   5.651   2.060   8.042  0.0696  0.7321  0.3966
 4215TIP3    H134280   5.672   2.114   7.966 -1.8488  1.5346  0.3711
 4215TIP3    H234281   5.603   2.119   8.101 -0.5123 -0.4841  1.1824
 4216TIP3   OH234282   3.297   5.378   1.798 -0.1800  0.5131 -0.1034
 4216TIP3    H134283   3.356   5.426   1.739  0.5243  0.1835  0.3217
 4216TIP3    H234284   3.309   5.420   1.883 -2.2023  1.8821 -0.4319
 4217TIP3   OH234285   1.489   4.291   8.296 -0.7232  0.3965  0.2461
 4217TIP3    H134286   1.495   4.270   8.389  0.9924  1.0429  0.3138
 4217TIP3    H234287   1.403   4.259   8.270 -0.6572 -1.1143  1.7161
 4218TIP3   OH234288   3.437   3.642   0.820  0.2115 -0.5432  0.1729
 4218TIP3    H134289   3.468   3.725   0.785  1.5165 -1.7846 -1.8930
 4218TIP3    H234290   3.486   3.630   0.901  0.3145  0.4802  0.2753
 4219TIP3   OH234291   6.629   3.787   2.741  0.0069  0.3423  0.2023
 4219TIP3    H134292   6.612   3.789   2.647 -1.4893 -0.6877  0.4202
 4219TIP3    H234293   6.725   3.790   2.748  0.1705 -0.2618 -1.3681
 4220TIP3   OH234294   1.971   3.105   7.877  0.0311  0.3865 -0.1258
 4220TIP3    H134295   2.039   3.088   7.811  0.1583  0.3700  0.0091
 4220TIP3    H234296   1.928   3.185   7.847 -0.6532 -0.2271 -0.8404
 4221TIP3   OH234297   1.994   5.646   8.183 -0.1497  0.2716  0.4774
 4221TIP3    H134298   2.049   5.611   8.113  1.6379  2.3234  0.7426
 4221TIP3    H234299   2.036   5.615   8.264 -0.1194  0.7877  0.6642
 4222TIP3   OH234300   6.334   5.186   7.400 -1.2019 -0.0149  0.0772
 4222TIP3    H134301   6.292   5.117   7.451 -0.3082 -0.6364 -0.0085
 4222TIP3    H234302   6.404   5.142   7.352  0.6839  1.2093  1.5001
 4223TIP3   OH234303   3.981   0.247   8.719 -0.4195  0.0744 -0.1634
 4223TIP3    H134304   3.963   0.306   8.793  0.1437 -1.1785  1.0259
 4223TIP3    H234305   4.012   0.166   8.761  0.5844 -0.4301 -1.8148
 4224TIP3   OH234306   1.627   3.616   1.469 -0.3669 -0.4158 -0.0983
 4224TIP3    H134307   1.684   3.547   1.503 -0.0343 -0.6998 -1.1860
 4224TIP3    H234308   1.678   3.697   1.479 -0.9893 -0.2057  1.7287
 4225TIP3   OH234309   2.109   4.297   0.023  0.1544  0.0405  0.4127
 4225TIP3    H134310   2.153   4.283   0.106 -1.0703 -0.1454  1.0536
 4225TIP3    H234311   2.096   4.392   0.018 -0.3720 -0.0104  0.7595
 4226TIP3   OH234312   6.674   1.971   1.961  0.1480  0.0709 -0.2835
 4226TIP3    H134313   6.614   1.926   1.901 -0.4813  3.5855 -2.6677
 4226TIP3    H234314   6.617   2.005   2.030  0.2838 -0.8866  0.3172
 4227TIP3   OH234315   5.278   0.905   8.403  0.3082 -0.0911 -0.2202
 4227TIP3    H134316   5.355   0.962   8.399  0.6248 -0.5088 -0.1809
 4227TIP3    H234317   5.295   0.848   8.478  0.3513 -0.7451 -0.7289
 4228TIP3   OH234318   3.615   0.643   2.005 -0.4438  0.0271  0.2926
 4228TIP3    H134319   3.607   0.640   2.100  1.8708 -1.2453  0.5351
 4228TIP3    H234320   3.637   0.734   1.986  0.2915  0.0395  1.1228
 4229TIP3   OH234321   5.427   2.012   2.203 -0.3772 -0.3983 -0.1784
 4229TIP3    H134322   5.494   1.996   2.269  0.0695 -1.7281 -0.9232
 4229TIP3    H234323   5.416   1.928   2.158 -0.3262  0.5666 -2.1124
 4230TIP3   OH234324   2.272   1.705   0.708 -0.0892  0.3039 -0.2211
 4230TIP3    H134325   2.365   1.720   0.691 -0.4477  0.4886 -2.3986
 4230TIP3    H234326   2.240   1.789   0.743  0.7241 -0.0804  1.5206
 4231TIP3   OH234327   2.769   0.795   0.036  1.0332 -0.0123 -0.3924
 4231TIP3    H134328   2.747   0.887   0.026  2.0217  0.6161  2.3291
 4231TIP3    H234329   2.861   0.789   0.012  0.8710 -0.3865 -0.9445
 4232TIP3   OH234330   3.985   2.750   1.489  0.3820 -0.4355 -0.1949
 4232TIP3    H134331   3.997   2.743   1.583 -0.9290 -2.1671 -0.1080
 4232TIP3    H234332   4.032   2.676   1.452  1.2118  0.4449 -0.9601
 4233TIP3   OH234333   2.758   2.087   2.364 -0.4082 -0.6030 -0.2573
 4233TIP3    H134334   2.826   2.020   2.372  0.1095 -0.0517 -0.0358
 4233TIP3    H234335   2.686   2.041   2.321 -0.5472 -1.6656  1.0254
 4234TIP3   OH234336   5.825   3.760   2.644  0.2938 -0.0172 -0.0300
 4234TIP3    H134337   5.887   3.833   2.639  0.8375 -0.5517 -2.1558
 4234TIP3    H234338   5.880   3.682   2.654  0.0882 -0.5328 -2.3179
 4235TIP3   OH234339   0.075   5.009   7.948  0.0534 -0.1241 -0.4530
 4235TIP3    H134340   0.014   5.039   8.015  1.2177 -1.4457  1.3011
 4235TIP3    H234341   0.121   5.089   7.920 -1.9929  0.7998 -1.4167
 4236TIP3   OH234342   3.987   0.623   8.817  0.2846 -0.3375  0.3431
 4236TIP3    H134343   3.904   0.668   8.831 -0.2322 -1.3097  0.5369
 4236TIP3    H234344   4.031   0.627   8.902 -0.7100 -2.0045  1.0118
 4237TIP3   OH234345   1.954   4.562   8.263 -1.0357  0.2967 -0.5175
 4237TIP3    H134346   2.013   4.488   8.244 -0.3660  0.8544 -0.6494
 4237TIP3    H234347   1.869   4.521   8.278 -0.5593 -0.5604 -0.0373
 4238TIP3   OH234348   3.320   4.960   0.590  0.1729 -0.3616 -0.3464
 4238TIP3    H134349   3.226   4.978   0.598  0.1740  0.1090 -1.2580
 4238TIP3    H234350   3.362   5.036   0.630  0.1604  0.0323 -1.0612
 4239TIP3   OH234351   6.159   4.334   8.015 -0.3675 -0.9217 -0.1963
 4239TIP3    H134352   6.253   4.347   8.005 -0.4558  0.0403  0.0963
 4239TIP3    H234353   6.120   4.416   7.984 -1.1364 -1.4774 -0.7346
 4240TIP3   OH234354   6.320   2.892   7.802 -0.5452 -0.6001 -0.0425
 4240TIP3    H134355   6.229   2.871   7.779 -0.5692  0.8185 -1.3942
 4240TIP3    H234356   6.372   2.832   7.749 -0.6656 -0.8010  0.0618
 4241TIP3   OH234357   3.401   2.535   7.809 -0.0539 -0.0163  0.2723
 4241TIP3    H134358   3.446   2.454   7.836  0.9020  0.0634 -0.9747
 4241TIP3    H234359   3.360   2.567   7.889  1.8610 -0.2667  1.4256
 4242TIP3   OH234360   4.457   6.743   0.171  0.1413 -0.2302 -0.2656
 4242TIP3    H134361   4.452   6.656   0.210 -0.1528  0.1495  0.5846
 4242TIP3    H234362   4.411   6.799   0.233 -2.6773  0.0120 -2.3881
 4243TIP3   OH234363   6.194   1.596   7.914  0.1510 -0.3930 -0.3132
 4243TIP3    H134364   6.132   1.569   7.846 -0.4619  0.8137 -0.2651
 4243TIP3    H234365   6.273   1.621   7.866  0.5594 -1.7490 -0.3906
 4244TIP3   OH234366   2.508   2.008   2.937 -0.1687  0.0297  0.4338
 4244TIP3    H134367   2.592   1.999   2.892 -0.8477 -0.2996 -0.8070
 4244TIP3    H234368   2.450   2.049   2.873 -0.9803  0.2262  1.2594
 4245TIP3   OH234369   6.282   5.408   1.115 -0.3131 -0.6963  0.3597
 4245TIP3    H134370   6.265   5.430   1.207  1.7948 -1.2506  0.9248
 4245TIP3    H234371   6.375   5.424   1.103 -0.4934 -0.8860 -1.6378
 4246TIP3   OH234372   3.348   4.503   2.367  0.7627 -0.3919  0.1413
 4246TIP3    H134373   3.389   4.590   2.368 -0.2500  0.1337 -0.7134
 4246TIP3    H234374   3.266   4.515   2.415 -0.1464 -0.4347 -1.3325
 4247TIP3   OH234375   0.723   0.790   8.682 -0.1326 -0.2305 -0.5737
 4247TIP3    H134376   0.772   0.729   8.737 -1.2297  1.5702  2.6681
 4247TIP3    H234377   0.789   0.847   8.643  0.6308 -1.1752 -0.6898
 4248TIP3   OH234378   0.203   6.160   1.315  0.1945  0.3386  0.2162
 4248TIP3    H134379   0.125   6.103   1.313 -1.3009  2.2862 -1.5982
 4248TIP3    H234380   0.277   6.099   1.317 -1.3078 -1.7574 -2.0622
 4249TIP3   OH234381   2.842   3.964   8.059  0.1587 -0.0296 -0.0332
 4249TIP3    H134382   2.910   4.001   8.002  1.2645 -0.6584  0.8254
 4249TIP3    H234383   2.862   3.870   8.061 -1.7258 -0.5082 -1.0406
 4250TIP3   OH234384   5.489   2.681   7.341  0.1345  0.0449 -0.1253
 4250TIP3    H134385   5.529   2.767   7.349 -0.5572  0.2206  2.3435
 4250TIP3    H234386   5.420   2.692   7.277 -0.5014  1.5795  0.7809
 4251TIP3   OH234387   6.473   0.523   0.043 -0.0916  0.0314  0.1646
 4251TIP3    H134388   6.496   0.562   0.127  2.1900  0.9797 -0.8079
 4251TIP3    H234389   6.517   0.438   0.042 -0.1255  0.0142 -0.0397
 4252TIP3   OH234390   2.422   0.684   8.430  0.1541  0.2217  0.0800
 4252TIP3    H134391   2.382   0.765   8.397 -0.7219 -0.5488 -0.7845
 4252TIP3    H234392   2.384   0.615   8.377  0.1617 -0.8720  1.4488
 4253TIP3   OH234393   1.827   3.727   8.289 -0.4731  0.4451 -0.2709
 4253TIP3    H134394   1.879   3.719   8.209 -0.7232 -2.9757 -0.2326
 4253TIP3    H234395   1.799   3.819   8.290  1.4725  1.1887 -2.8293
 4254TIP3   OH234396   6.524   3.732   8.098 -0.2462 -0.1545 -0.0264
 4254TIP3    H134397   6.503   3.678   8.021  0.8704 -0.3157 -0.2400
 4254TIP3    H234398   6.614   3.760   8.084  0.3274 -0.9846  1.6774
 4255TIP3   OH234399   2.057   3.175   0.581 -0.4097  0.3182 -0.1024
 4255TIP3    H134400   2.020   3.148   0.665 -0.0262 -0.0915 -0.0630
 4255TIP3    H234401   1.982   3.209   0.532 -0.8552 -0.5883 -0.0570
 4256TIP3   OH234402   4.444   1.108   7.961 -0.8953  0.3213  0.4150
 4256TIP3    H134403   4.462   1.014   7.955 -1.8731  0.1420 -0.0475
 4256TIP3    H234404   4.383   1.125   7.889 -1.2987  1.1661  0.9361
 4257TIP3   OH234405   6.042   0.895   2.444 -0.0023  0.6143  0.0217
 4257TIP3    H134406   6.070   0.965   2.503 -0.0557  0.2157  0.5245
 4257TIP3    H234407   6.079   0.816   2.481 -1.0660  0.1886  0.2272
 4258TIP3   OH234408   3.220   5.099   2.141 -0.3773 -0.5673 -0.0720
 4258TIP3    H134409   3.209   5.006   2.161 -0.2741 -0.4715  0.4598
 4258TIP3    H234410   3.313   5.109   2.123 -0.1998 -0.3894  0.8862
 4259TIP3   OH234411   4.973   0.404   2.117  0.1628 -0.1870 -0.3645
 4259TIP3    H134412   4.940   0.317   2.094  1.5279 -0.5622 -1.0027
 4259TIP3    H234413   5.046   0.387   2.176 -0.9486  0.6426  1.3255
 4260TIP3   OH234414   5.251   2.558   8.059  0.0196 -0.0128 -0.3528
 4260TIP3    H134415   5.258   2.652   8.044 -1.0897  0.5383  2.0523
 4260TIP3    H234416   5.342   2.529   8.071  0.3658  0.7428 -1.0395
 4261TIP3   OH234417   2.218   2.185   8.236 -0.2186  0.0354 -0.3572
 4261TIP3    H134418   2.211   2.221   8.148 -1.4752  1.9968  0.4826
 4261TIP3    H234419   2.133   2.202   8.276  0.0554 -1.5117  1.0143
 4262TIP3   OH234420   3.439   4.306   6.782 -0.4254  0.1408 -0.0423
 4262TIP3    H134421   3.437   4.254   6.701 -0.3795 -1.0803  0.7237
 4262TIP3    H234422   3.357   4.355   6.781 -1.1693 -1.0617 -0.0803
 4263TIP3   OH234423   1.681   3.725   1.131 -0.2626  0.1150  0.2269
 4263TIP3    H134424   1.622   3.691   1.198 -1.2551  2.3063  0.5465
 4263TIP3    H234425   1.735   3.650   1.106 -3.4921 -2.1914 -0.4708
 4264TIP3   OH234426   2.995   2.573   0.854 -0.9983 -0.1295  0.5364
 4264TIP3    H134427   2.983   2.622   0.936 -1.0553  1.2811 -0.2885
 4264TIP3    H234428   3.031   2.489   0.882 -2.2993 -0.2011  2.1234
 4265TIP3   OH234429   6.006   2.379   7.533  0.2652 -0.0384 -0.2947
 4265TIP3    H134430   6.023   2.328   7.455 -1.9634  0.4940 -1.2206
 4265TIP3    H234431   6.087   2.427   7.549  1.3075 -1.3947 -1.2814
 4266TIP3   OH234432   5.232   6.344   8.760 -0.3003  0.3052  0.1991
 4266TIP3    H134433   5.136   6.348   8.769 -0.2425 -0.9157  1.9550
 4266TIP3    H234434   5.247   6.340   8.666 -2.0142 -0.0838 -0.1010
 4267TIP3   OH234435   4.794   3.015   2.508 -0.2599 -0.3076 -0.2108
 4267TIP3    H134436   4.707   3.025   2.547 -0.7948 -0.3298 -1.3337
 4267TIP3    H234437   4.854   3.012   2.582 -1.0586  1.1782  0.5565
 4268TIP3   OH234438   4.282   6.336   2.292  0.0142  0.4073  0.2041
 4268TIP3    H134439   4.191   6.315   2.271 -0.2141  2.3047 -0.9697
 4268TIP3    H234440   4.285   6.338   2.387 -0.9084 -0.6308  0.2801
 4269TIP3   OH234441   0.434   2.655   0.482  0.1667  0.4368  0.0057
 4269TIP3    H134442   0.527   2.665   0.466  0.3603 -0.6279  0.3803
 4269TIP3    H234443   0.392   2.684   0.400  0.7941  1.1921 -0.0552
 4270TIP3   OH234444   5.441   3.428   1.142  0.3429 -0.0480 -0.2176
 4270TIP3    H134445   5.371   3.481   1.105  2.1018  1.5940 -1.3710
 4270TIP3    H234446   5.451   3.458   1.232 -0.7721 -0.6979  0.1403
 4271TIP3   OH234447   0.012   1.585   7.624  0.0674  0.2536  0.1541
 4271TIP3    H134448   0.067   1.649   7.580  0.2882  0.9935  1.4460
 4271TIP3    H234449  -0.036   1.636   7.690  0.1290 -0.8652  1.0991
 4272TIP3   OH234450   2.865   1.005   2.205 -0.4293  0.1329 -0.0493
 4272TIP3    H134451   2.872   1.100   2.215 -0.3837  0.0855  0.4027
 4272TIP3    H234452   2.949   0.972   2.238  0.6532  0.0934 -2.6291
 4273TIP3   OH234453   6.335   1.995   0.721  0.5170  0.3564 -0.2696
 4273TIP3    H134454   6.277   2.059   0.763  1.9946  1.8633 -0.4357
 4273TIP3    H234455   6.276   1.940   0.670 -0.8201  1.5233 -0.0486
 4274TIP3   OH234456   5.223   2.065   2.702  0.0503 -1.0746  0.5969
 4274TIP3    H134457   5.146   2.040   2.754 -1.3079 -0.3746 -0.9803
 4274TIP3    H234458   5.286   2.098   2.766 -1.3977 -0.6293  1.8325
 4275TIP3   OH234459   0.710   4.860   8.180 -0.0446  0.0190 -0.2995
 4275TIP3    H134460   0.735   4.798   8.112 -0.4856  1.1669 -1.5642
 4275TIP3    H234461   0.651   4.811   8.237 -0.6949 -0.6280 -1.4840
 4276TIP3   OH234462   2.439   4.557   0.273  0.1619 -0.1560  0.0913
 4276TIP3    H134463   2.461   4.541   0.181  1.4077 -2.2204  0.6761
 4276TIP3    H234464   2.475   4.644   0.292 -0.1736  0.3226 -1.3798
 4277TIP3   OH234465   3.554   4.635   0.874  0.0019 -0.0939  0.4667
 4277TIP3    H134466   3.467   4.613   0.840 -0.8121  1.3582  1.4908
 4277TIP3    H234467   3.550   4.729   0.892  2.5987  0.5655 -1.6962
 4278TIP3   OH234468   5.403   0.511   8.131 -0.6832  0.3021 -0.0251
 4278TIP3    H134469   5.396   0.417   8.148 -0.6169  0.2712 -0.1732
 4278TIP3    H234470   5.324   0.533   8.082 -0.9785  0.4317  0.4957
 4279TIP3   OH234471   4.874   2.141   2.849 -0.5363  0.3104 -0.3684
 4279TIP3    H134472   4.831   2.160   2.766 -1.7934  0.9920  0.4173
 4279TIP3    H234473   4.898   2.048   2.843 -1.4275  0.1209 -1.1388
 4280TIP3   OH234474   1.215   5.349   1.503  0.0182 -0.0988  0.7399
 4280TIP3    H134475   1.267   5.322   1.579  1.1908  1.6543  0.6060
 4280TIP3    H234476   1.244   5.438   1.484 -1.5973  0.1929 -0.6246
 4281TIP3   OH234477   0.882   0.675   0.801 -0.3851 -0.5928 -0.2032
 4281TIP3    H134478   0.846   0.755   0.840 -1.1681 -0.4182 -1.2332
 4281TIP3    H234479   0.860   0.605   0.862  0.1989 -0.0455  0.6516
 4282TIP3   OH234480   3.884   3.394   8.090  0.1164  0.3166  0.3618
 4282TIP3    H134481   3.865   3.327   8.156  2.6044 -0.8625 -0.0100
 4282TIP3    H234482   3.798   3.420   8.057 -1.0012 -1.9565  1.2508
 4283TIP3   OH234483   0.449   0.232   0.353  0.7012 -0.0110 -0.6511
 4283TIP3    H134484   0.480   0.208   0.266  2.0244  1.4527 -0.6255
 4283TIP3    H234485   0.377   0.171   0.370  3.2652 -3.4023 -0.8490
 4284TIP3   OH234486   1.465   5.600   7.097 -0.1828  0.0733  0.2313
 4284TIP3    H134487   1.504   5.655   7.029 -2.2675 -0.4041 -1.4668
 4284TIP3    H234488   1.372   5.624   7.097 -0.5505 -1.2015  1.6844
 4285TIP3   OH234489   6.135   0.894   1.091  0.5711  0.2204 -0.0434
 4285TIP3    H134490   6.078   0.820   1.067 -0.4282  1.4014 -1.4901
 4285TIP3    H234491   6.084   0.943   1.156  0.3949  0.6963 -0.5402
 4286TIP3   OH234492   2.941   4.390   2.709  0.3046  0.0684 -0.3965
 4286TIP3    H134493   3.019   4.400   2.763  0.7999  0.3354 -1.1374
 4286TIP3    H234494   2.885   4.464   2.733  0.9406  0.7374 -0.9194
 4287TIP3   OH234495   2.571   4.698   1.644 -0.0213  0.2856 -0.7434
 4287TIP3    H134496   2.601   4.726   1.730  0.9416  2.5605 -1.7251
 4287TIP3    H234497   2.537   4.778   1.603  0.7513 -0.4262 -2.9398
 4288TIP3   OH234498   0.645   3.972   8.529  0.2759  0.7462  0.0166
 4288TIP3    H134499   0.733   3.965   8.490 -0.3767 -2.9837 -1.1703
 4288TIP3    H234500   0.660   3.968   8.623  1.3811 -0.3380 -0.1854
 4289TIP3   OH234501   5.135   2.010   7.544 -0.2173  0.4197 -0.4872
 4289TIP3    H134502   5.149   2.085   7.602 -0.1927  0.1004 -0.0829
 4289TIP3    H234503   5.206   2.016   7.480  1.9565 -1.2623  1.6174
 4290TIP3   OH234504   2.516   5.270   8.254 -0.3839  0.3635 -0.3607
 4290TIP3    H134505   2.431   5.248   8.216  0.5890 -1.0765 -1.8277
 4290TIP3    H234506   2.535   5.358   8.221 -0.9002  0.3346 -0.7425
 4291TIP3   OH234507   3.003   6.398   7.948 -0.4699  1.0267  0.2930
 4291TIP3    H134508   3.024   6.361   8.034 -0.5989 -0.2950 -0.2152
 4291TIP3    H234509   3.089   6.409   7.906 -0.5025 -0.5354 -0.2566
 4292TIP3   OH234510   0.925   2.075   1.251 -0.2536  0.6192  0.1190
 4292TIP3    H134511   0.933   1.985   1.282  0.7377  1.2911  1.9541
 4292TIP3    H234512   0.895   2.125   1.327 -3.1622  1.5264 -1.4562
 4293TIP3   OH234513   5.604   2.942   1.335  0.0019  0.4371  0.0048
 4293TIP3    H134514   5.658   2.965   1.410 -1.3956  1.5926  0.7235
 4293TIP3    H234515   5.666   2.918   1.267  1.3228 -0.2391  1.3927
 4294TIP3   OH234516   4.353   4.035   2.400  0.5390  0.0636 -0.5197
 4294TIP3    H134517   4.318   3.996   2.480 -0.8121  0.1332 -1.0384
 4294TIP3    H234518   4.399   4.113   2.429 -1.1394  0.8701  0.0992
 4295TIP3   OH234519   0.581   1.601   0.445 -0.5863 -0.2321  0.3266
 4295TIP3    H134520   0.565   1.695   0.451 -0.8447 -0.3122  0.8779
 4295TIP3    H234521   0.495   1.563   0.423  0.1266 -0.0158 -3.6531
 4296TIP3   OH234522   6.194   4.567   0.311  0.1375 -0.4920 -0.0630
 4296TIP3    H134523   6.163   4.647   0.270  0.9005 -0.1158  0.0804
 4296TIP3    H234524   6.289   4.572   0.306  0.1915 -2.2851 -1.7618
 4297TIP3   OH234525   0.167   2.460   7.247  0.4504  0.4074 -0.5954
 4297TIP3    H134526   0.080   2.498   7.259  0.6626  0.1825  2.2657
 4297TIP3    H234527   0.218   2.529   7.204 -0.8778  0.8211 -1.5889
 4298TIP3   OH234528   2.749   0.396   1.693  0.2852  0.0781  0.2252
 4298TIP3    H134529   2.808   0.324   1.670 -0.7055 -1.3100  1.8563
 4298TIP3    H234530   2.750   0.398   1.789 -1.5098  0.7208  0.2567
 4299TIP3   OH234531   0.544   3.010   8.602  0.0796  0.1805  0.1694
 4299TIP3    H134532   0.468   2.964   8.638  1.3144 -2.8092 -0.7106
 4299TIP3    H234533   0.531   3.007   8.507  1.2501 -0.3254  0.0125
 4300TIP3   OH234534   1.479   4.242   7.368 -0.7984 -0.2152 -0.1535
 4300TIP3    H134535   1.394   4.210   7.400 -0.2858  0.2271  1.8205
 4300TIP3    H234536   1.543   4.193   7.420  0.0343  2.6700  1.7889
 4301TIP3   OH234537   6.654   1.830   7.587  0.1694  0.5058 -0.6579
 4301TIP3    H134538   6.688   1.812   7.675 -0.5273  1.0870 -0.2610
 4301TIP3    H234539   6.673   1.923   7.572  2.4282 -0.1140 -2.1054
 4302TIP3   OH234540   1.209   6.739   1.908  0.2916  0.1166 -0.4323
 4302TIP3    H134541   1.157   6.696   1.841  0.9787 -0.5992 -0.5226
 4302TIP3    H234542   1.299   6.715   1.888  0.6882  1.4377 -0.3568
 4303TIP3   OH234543   6.704   6.566   8.710 -0.3594  0.2082  0.1373
 4303TIP3    H134544   6.794   6.580   8.683  0.0514  1.2570  1.8612
 4303TIP3    H234545   6.658   6.538   8.631  1.5505 -0.7820 -0.6751
 4304TIP3   OH234546   2.045   2.355   7.560  0.2124  0.5867  0.6949
 4304TIP3    H134547   2.091   2.339   7.478 -0.2570  1.2307  0.3040
 4304TIP3    H234548   1.953   2.342   7.540 -0.0219  1.8938  0.8123
 4305TIP3   OH234549   6.490   3.048   2.135 -0.1039 -0.6057  0.0936
 4305TIP3    H134550   6.518   3.097   2.057  0.1729  0.0990  0.6247
 4305TIP3    H234551   6.463   2.962   2.101  0.5442 -0.5033 -0.7099
 4306TIP3   OH234552   0.675   1.853   8.272  0.5447 -0.1533 -0.1145
 4306TIP3    H134553   0.582   1.875   8.269  0.4285 -0.7135 -0.9978
 4306TIP3    H234554   0.720   1.934   8.249  0.3702  0.5748  1.9173
 4307TIP3   OH234555   1.357   6.385   2.501  0.0603 -0.1147  1.6867
 4307TIP3    H134556   1.328   6.411   2.588  0.3434  1.9433  1.2382
 4307TIP3    H234557   1.447   6.418   2.495  0.9584 -2.4148  1.4608
 4308TIP3   OH234558   5.314   1.511   1.718 -0.5699  0.4682 -0.0401
 4308TIP3    H134559   5.353   1.551   1.640 -0.5688  0.7795  0.1169
 4308TIP3    H234560   5.388   1.479   1.769 -0.3537  2.5961  1.1032
 4309TIP3   OH234561   3.991   5.548   8.518  0.0267  0.1113  0.1999
 4309TIP3    H134562   4.037   5.623   8.556  0.0364  0.5736 -0.7051
 4309TIP3    H234563   4.000   5.559   8.423  1.1968 -1.7870  0.0499
 4310TIP3   OH234564   0.136   1.082   0.961 -0.6469 -0.2255 -0.0401
 4310TIP3    H134565   0.196   1.152   0.935 -0.3073 -0.2611  0.6052
 4310TIP3    H234566   0.193   1.007   0.977 -1.2839 -1.9558 -4.5298
 4311TIP3   OH234567   3.982   2.860   0.853  1.2099 -0.1125  0.2047
 4311TIP3    H134568   3.954   2.863   0.761 -0.6379 -0.6553  0.7096
 4311TIP3    H234569   4.069   2.820   0.850  1.7407  1.0466 -1.4085
 4312TIP3   OH234570   4.183   0.861   1.698 -0.6714 -0.3681 -0.8710
 4312TIP3    H134571   4.123   0.790   1.722 -1.2561  0.5374  0.4675
 4312TIP3    H234572   4.235   0.875   1.777  0.6410 -0.4558 -1.6897
 4313TIP3   OH234573   2.779   5.551   8.541  0.0137 -0.0491  0.1815
 4313TIP3    H134574   2.707   5.511   8.492 -0.3093  0.3288  0.3470
 4313TIP3    H234575   2.856   5.500   8.515 -0.2715 -0.3092 -0.1727
 4314TIP3   OH234576   3.195   3.000   7.421 -0.8087  0.4186  0.3237
 4314TIP3    H134577   3.196   2.906   7.439  0.3013  0.4937  0.7370
 4314TIP3    H234578   3.174   3.007   7.328  2.1937 -0.4314 -0.5416
 4315TIP3   OH234579   4.936   3.072   7.338  0.3707 -0.0151  0.1589
 4315TIP3    H134580   4.891   2.988   7.353 -0.0048  0.3454  1.1081
 4315TIP3    H234581   5.013   3.048   7.287  0.5807 -1.0230  0.9118
 4316TIP3   OH234582   1.284   5.276   2.145  0.8705 -0.0999 -0.4780
 4316TIP3    H134583   1.259   5.327   2.069 -0.7494 -0.0960  0.0224
 4316TIP3    H234584   1.215   5.293   2.209  2.3417  0.1659  1.1352
 4317TIP3   OH234585   5.147   5.109   7.634 -0.0954 -0.0260 -0.5462
 4317TIP3    H134586   5.217   5.057   7.594  0.0078 -0.6234  0.3779
 4317TIP3    H234587   5.192   5.167   7.696 -0.3521  0.0983 -0.4733
 4318TIP3   OH234588   0.047   6.545   1.321 -0.0930  0.2878 -0.3143
 4318TIP3    H134589   0.079   6.608   1.385 -1.1854 -0.4381  0.9912
 4318TIP3    H234590   0.127   6.512   1.278  0.6286  1.0826  0.3757
 4319TIP3   OH234591   0.848   4.110   0.628 -0.3248  0.5293  0.3411
 4319TIP3    H134592   0.771   4.106   0.571 -0.8225 -1.7136  1.0654
 4319TIP3    H234593   0.836   4.191   0.678 -3.0620 -0.4710  1.5148
 4320TIP3   OH234594   6.202   1.077   2.573 -0.8322  0.0255  0.1947
 4320TIP3    H134595   6.291   1.052   2.547 -1.4052  0.1210 -2.1160
 4320TIP3    H234596   6.214   1.156   2.625  0.3906  0.9665 -1.4034
 4321TIP3   OH234597   5.602   5.932   0.485 -0.1944  0.6012  0.2592
 4321TIP3    H134598   5.566   5.994   0.421  1.0629  1.0888 -0.0154
 4321TIP3    H234599   5.618   5.986   0.563  0.0707  0.4314  0.3233
 4322TIP3   OH234600   2.328   4.121   7.455 -0.0096 -0.2242  0.9042
 4322TIP3    H134601   2.342   4.200   7.506 -1.2346 -0.0887  1.0477
 4322TIP3    H234602   2.353   4.050   7.515  1.2957  0.0336  0.7016
 4323TIP3   OH234603   1.450   1.741   7.733 -0.2932  0.2530  0.2928
 4323TIP3    H134604   1.419   1.656   7.702 -0.8181  0.0245  1.3939
 4323TIP3    H234605   1.372   1.797   7.735 -0.0511  0.6051  0.0922
 4324TIP3   OH234606   4.770   2.509   2.396 -0.3587  0.1126  0.3187
 4324TIP3    H134607   4.785   2.446   2.467  2.3555  1.3322  0.9437
 4324TIP3    H234608   4.723   2.458   2.329  0.3970 -2.1586  1.4014
 4325TIP3   OH234609   6.691   6.435   0.128  0.1155 -0.5323  0.6535
 4325TIP3    H134610   6.684   6.499   0.056  1.6688 -0.0758  0.8749
 4325TIP3    H234611   6.740   6.481   0.196 -2.0768 -0.6549  2.4074
 4326TIP3   OH234612   5.365   0.956   0.962 -0.5578 -0.3870 -0.0169
 4326TIP3    H134613   5.365   1.014   0.886 -2.0915 -1.4333 -0.8732
 4326TIP3    H234614   5.330   0.873   0.929  1.0943 -1.6777  1.2806
 4327TIP3   OH234615   5.829   5.454   7.213 -0.4302 -0.1583  0.1383
 4327TIP3    H134616   5.841   5.545   7.186  0.3391  0.0480  1.1369
 4327TIP3    H234617   5.854   5.403   7.136  3.7544  0.3364  0.9264
 4328TIP3   OH234618   4.053   0.114   0.445 -0.5249 -0.2959 -0.4990
 4328TIP3    H134619   4.038   0.108   0.539 -0.2849 -0.4416 -0.4672
 4328TIP3    H234620   3.968   0.095   0.406 -1.5453  3.1905 -0.2766
 4329TIP3   OH234621   6.663   5.828   1.935  0.0305  0.5230 -0.0394
 4329TIP3    H134622   6.752   5.792   1.939 -1.0351 -2.3991 -0.3915
 4329TIP3    H234623   6.612   5.772   1.994 -2.2914 -0.3170 -2.6375
 4330TIP3   OH234624   6.576   6.294   1.477 -0.1537  0.0693  0.2229
 4330TIP3    H134625   6.594   6.315   1.385 -1.5455 -0.5080 -0.1994
 4330TIP3    H234626   6.662   6.298   1.519  0.1984  3.0049 -0.5235
 4331TIP3   OH234627   0.463   1.145   1.233  0.2278  0.3861  0.0078
 4331TIP3    H134628   0.491   1.096   1.155 -0.7728  1.9553 -1.3977
 4331TIP3    H234629   0.533   1.209   1.246  0.0070  0.6573 -0.1201
 4332TIP3   OH234630   4.652   4.288   1.042 -0.4776 -0.2199  0.2087
 4332TIP3    H134631   4.737   4.245   1.050  0.7271  1.6571 -1.7891
 4332TIP3    H234632   4.590   4.225   1.081  1.9923 -0.6838  3.8881
 4333TIP3   OH234633   4.717   5.302   1.588 -0.2617  0.0234 -0.2901
 4333TIP3    H134634   4.752   5.219   1.619  0.0599  0.1410 -0.3359
 4333TIP3    H234635   4.748   5.366   1.652  2.4746  0.6612 -2.1187
 4334TIP3   OH234636   3.487   2.590   1.013  0.2353 -0.4836  0.5469
 4334TIP3    H134637   3.487   2.675   0.969  1.6335 -0.6894  0.1118
 4334TIP3    H234638   3.508   2.527   0.944  0.2099 -1.0696  1.0635
 4335TIP3   OH234639   4.821   5.428   1.803  0.3107  0.0782 -0.0974
 4335TIP3    H134640   4.839   5.496   1.868 -3.6318  0.9588  0.3485
 4335TIP3    H234641   4.787   5.354   1.854 -0.2359 -0.2592 -0.9256
 4336TIP3   OH234642   4.151   5.254   0.763 -0.1322 -0.7228  0.3988
 4336TIP3    H134643   4.207   5.225   0.691 -1.0765 -1.0186 -0.2230
 4336TIP3    H234644   4.197   5.331   0.799  0.5347 -0.7946 -0.2680
 4337TIP3   OH234645   3.191   6.048   6.789  0.0012 -0.8624 -0.1312
 4337TIP3    H134646   3.221   5.962   6.759 -0.4127 -1.4649  1.1537
 4337TIP3    H234647   3.101   6.055   6.758 -0.2104 -1.2088  0.4035
 4338TIP3   OH234648   5.967   0.049   8.497 -0.5729 -0.7970  0.0504
 4338TIP3    H134649   5.909   0.095   8.436  0.0749  0.7972  0.5775
 4338TIP3    H234650   5.935   0.074   8.584 -0.0093 -1.1065  0.3522
 4339TIP3   OH234651   4.133   5.441   1.015  0.0611  0.2030 -0.0869
 4339TIP3    H134652   4.158   5.512   0.956 -0.4876 -0.0313 -0.6095
 4339TIP3    H234653   4.060   5.476   1.066 -0.7301 -0.2456 -0.8949
 4340TIP3   OH234654   5.565   6.327   2.274 -0.7146 -0.2520  0.5027
 4340TIP3    H134655   5.566   6.381   2.353  0.1980 -0.3111  0.5444
 4340TIP3    H234656   5.545   6.388   2.203  0.4795  0.1838  0.5247
 4341TIP3   OH234657   1.344   5.018   8.299  0.2466  0.4750 -0.2335
 4341TIP3    H134658   1.384   4.976   8.223  0.4189  0.0602  0.0817
 4341TIP3    H234659   1.250   5.004   8.288  0.3531 -0.7437  0.3000
 4342TIP3   OH234660   5.827   0.306   7.475  0.1631  0.9595 -0.3079
 4342TIP3    H134661   5.768   0.364   7.427  0.4967  1.6741  0.1264
 4342TIP3    H234662   5.911   0.315   7.429  0.0273  0.1893 -0.7317
 4343TIP3   OH234663   4.342   0.923   8.423 -0.1166  0.3119  0.2946
 4343TIP3    H134664   4.386   0.997   8.382 -2.5441  1.5973 -0.1768
 4343TIP3    H234665   4.407   0.886   8.482  2.2503  0.7762 -1.8192
 4344TIP3   OH234666   1.877   4.113   7.761 -0.0902 -0.2239  0.0045
 4344TIP3    H134667   1.921   4.095   7.678  2.3549 -1.3278  1.4429
 4344TIP3    H234668   1.920   4.192   7.794  1.5561 -1.7617  1.8055
 4345TIP3   OH234669   2.869   5.912   8.339 -0.2560 -0.2712 -0.5070
 4345TIP3    H134670   2.893   5.915   8.247  1.5188 -0.5282 -0.1050
 4345TIP3    H234671   2.931   5.850   8.378 -0.1072  0.7872  1.0720
 4346TIP3   OH234672   5.486   0.554   7.617 -0.0695 -0.5568  0.0255
 4346TIP3    H134673   5.395   0.581   7.605 -1.3283 -3.7001  1.3366
 4346TIP3    H234674   5.504   0.573   7.709  1.7246  2.6282 -0.8186
 4347TIP3   OH234675   2.125   2.684   0.697 -0.2724 -0.1663  0.1260
 4347TIP3    H134676   2.089   2.653   0.614 -1.1838 -0.1727  0.5159
 4347TIP3    H234677   2.195   2.744   0.671  1.2216 -2.1403 -0.6370
 4348TIP3   OH234678   2.088   3.167   1.537  0.4305 -0.2334  0.2086
 4348TIP3    H134679   2.123   3.145   1.451  2.1347 -3.4582  1.5472
 4348TIP3    H234680   2.050   3.085   1.570 -0.7124  1.0369  2.3048
 4349TIP3   OH234681   0.604   5.276   7.923  0.1053  1.0732  0.0614
 4349TIP3    H134682   0.586   5.350   7.865 -1.5971  0.6697 -0.0034
 4349TIP3    H234683   0.523   5.267   7.974  0.0805 -1.0478 -0.2806
 4350TIP3   OH234684   1.805   6.103   0.251 -0.2097 -0.2165  0.5823
 4350TIP3    H134685   1.858   6.072   0.325 -0.1677 -0.7523  0.3294
 4350TIP3    H234686   1.868   6.146   0.193 -0.3401  0.7903  1.1627
 4351TIP3   OH234687   6.141   6.070   0.917 -0.7830  0.3301 -0.3997
 4351TIP3    H134688   6.082   6.003   0.882 -0.4620  0.8515 -2.0066
 4351TIP3    H234689   6.186   6.105   0.840  1.0484  0.5096  0.7048
 4352TIP3   OH234690   5.324   2.969   1.299 -0.3303 -0.0563 -0.2364
 4352TIP3    H134691   5.414   2.947   1.275 -0.0674 -1.3302  1.6397
 4352TIP3    H234692   5.272   2.895   1.266 -0.2729 -0.6884  1.0281
 4353TIP3   OH234693   2.120   0.644   0.474  0.5144  0.2017 -0.2587
 4353TIP3    H134694   2.030   0.659   0.505  0.8470  0.4503  0.6013
 4353TIP3    H234695   2.124   0.550   0.456 -0.2261  0.3529 -1.3103
 4354TIP3   OH234696   6.583   5.298   8.337  0.3350  0.3034 -0.0769
 4354TIP3    H134697   6.501   5.264   8.372  0.0554  1.7029  0.7188
 4354TIP3    H234698   6.557   5.349   8.260  0.7449 -1.2022 -1.2528
 4355TIP3   OH234699   2.721   3.688   1.417 -0.4949 -0.2215 -0.5881
 4355TIP3    H134700   2.789   3.745   1.453 -1.2890 -0.0261  0.7178
 4355TIP3    H234701   2.711   3.619   1.483 -1.6386 -0.1634 -0.6796
 4356TIP3   OH234702   3.797   4.513   0.167  0.3465  0.4353  0.3692
 4356TIP3    H134703   3.849   4.518   0.247  2.0842 -0.6498 -0.6253
 4356TIP3    H234704   3.720   4.463   0.192  0.8228  0.1803  1.4002
 4357TIP3   OH234705   3.982   1.675   7.987  0.7024  0.0654 -0.3020
 4357TIP3    H134706   3.962   1.754   7.937 -1.3173  0.0222  0.3544
 4357TIP3    H234707   3.902   1.657   8.037  1.1030 -2.3394 -0.3817
 4358TIP3   OH234708   5.360   0.986   6.835 -0.0184  0.5296  0.6944
 4358TIP3    H134709   5.439   1.008   6.885  0.1998 -0.4926  0.8235
 4358TIP3    H234710   5.371   0.894   6.814  0.4465  1.1480 -2.2292
 4359TIP3   OH234711   5.608   5.641   2.823 -0.7450 -0.0025  0.1805
 4359TIP3    H134712   5.672   5.573   2.804 -1.2237 -0.1149 -1.1345
 4359TIP3    H234713   5.548   5.639   2.748 -2.1098  0.2967  1.2252
 4360TIP3   OH234714   0.723   1.668   0.938  0.9214 -0.4917 -0.0603
 4360TIP3    H134715   0.669   1.649   1.015 -0.3192 -2.3019 -1.2889
 4360TIP3    H234716   0.720   1.763   0.929 -2.1294 -0.5032 -0.0648
 4361TIP3   OH234717   2.628   6.290   0.097 -0.2985 -0.6567 -0.0617
 4361TIP3    H134718   2.677   6.211   0.074  0.1960 -0.3222 -0.1646
 4361TIP3    H234719   2.565   6.300   0.026  0.0999 -0.5719 -0.4076
 4362TIP3   OH234720   0.124   6.091   0.744 -0.2152 -0.1205  0.2991
 4362TIP3    H134721   0.066   6.015   0.731 -0.6723  0.1714  0.5908
 4362TIP3    H234722   0.194   6.058   0.800 -0.3236 -0.3666  0.2931
 4363TIP3   OH234723   1.454   2.361   2.613  0.0390  0.2554  0.3447
 4363TIP3    H134724   1.506   2.403   2.682 -0.8336 -0.9965  1.8527
 4363TIP3    H234725   1.477   2.268   2.619  0.0071  0.1279 -1.1426
 4364TIP3   OH234726   3.993   1.984   7.496 -0.4051 -0.0493  0.5344
 4364TIP3    H134727   3.962   1.908   7.547  0.5622 -0.7672  0.0864
 4364TIP3    H234728   4.053   1.946   7.432 -0.4152  1.0364 -0.1278
 4365TIP3   OH234729   0.624   2.270   1.626  0.1560  0.6308  0.4212
 4365TIP3    H134730   0.710   2.289   1.663  0.2247  0.2044  0.4959
 4365TIP3    H234731   0.594   2.192   1.674  0.9016 -0.8541 -1.3926
 4366TIP3   OH234732   4.118   0.105   8.437 -0.3372 -0.3706  0.0420
 4366TIP3    H134733   4.029   0.109   8.472  0.4425  0.8567  2.0915
 4366TIP3    H234734   4.131   0.189   8.394  0.5008  0.4150  1.7095
 4367TIP3   OH234735   4.379   2.129   0.359 -0.5947  0.5450 -0.1894
 4367TIP3    H134736   4.406   2.196   0.421  2.2876 -1.7037  1.2655
 4367TIP3    H234737   4.437   2.141   0.284 -1.7315  1.1252 -1.0034
 4368TIP3   OH234738   1.875   3.897   7.045 -0.1333  0.4729  0.0093
 4368TIP3    H134739   1.888   3.991   7.031 -2.0046  0.7362 -0.2695
 4368TIP3    H234740   1.786   3.890   7.080 -0.7059 -1.3056 -1.6219
 4369TIP3   OH234741   4.904   6.362   8.312 -0.0384  0.0361 -0.9112
 4369TIP3    H134742   4.879   6.271   8.323  3.0085 -0.6843  1.2292
 4369TIP3    H234743   4.859   6.408   8.383  1.8998 -0.6532  0.8244
 4370TIP3   OH234744   4.039   0.986   0.607  0.5214 -0.3402  0.1515
 4370TIP3    H134745   4.112   1.033   0.566  0.8078 -1.5119 -0.7559
 4370TIP3    H234746   3.961   1.036   0.582  0.8996  0.2404  0.1074
 4371TIP3   OH234747   5.120   0.459   8.541  0.1863 -0.2382 -0.0086
 4371TIP3    H134748   5.040   0.452   8.489  0.8919  2.2447 -1.6084
 4371TIP3    H234749   5.097   0.419   8.625 -2.6468  0.1900 -0.4640
 4372TIP3   OH234750   6.767   5.278   0.805  0.5858  0.1839 -0.3045
 4372TIP3    H134751   6.736   5.330   0.731  2.4934 -0.4897 -1.6710
 4372TIP3    H234752   6.783   5.191   0.767  3.5401  0.3473  0.3330
 4373TIP3   OH234753   5.884   1.764   1.774 -0.6470 -0.0035 -0.3984
 4373TIP3    H134754   5.915   1.691   1.720 -1.8115 -1.2398  0.5174
 4373TIP3    H234755   5.801   1.733   1.810 -0.8619  1.5467  0.5344
 4374TIP3   OH234756   1.682   4.444   2.078  0.4396  0.1022  0.3861
 4374TIP3    H134757   1.675   4.519   2.137  0.3706  0.0974  0.3839
 4374TIP3    H234758   1.664   4.480   1.991  1.0021  0.1999  0.3076
 4375TIP3   OH234759   1.520   5.595   0.405 -0.1515  0.1058 -0.3012
 4375TIP3    H134760   1.433   5.560   0.422 -0.4567  1.0191  0.0629
 4375TIP3    H234761   1.546   5.556   0.322 -1.2820  0.5321 -0.8621
 4376TIP3   OH234762   6.103   1.544   2.037 -0.0713 -0.2486  0.2873
 4376TIP3    H134763   6.094   1.451   2.014 -1.7072 -0.0809  0.1635
 4376TIP3    H234764   6.179   1.573   1.987  0.8953 -1.6719  0.8553
 4377TIP3   OH234765   1.547   1.844   2.046  0.2525  0.2552 -0.2321
 4377TIP3    H134766   1.535   1.802   2.131  0.3832  0.1980 -0.2416
 4377TIP3    H234767   1.604   1.785   1.998  0.2385  0.3241 -0.3331
 4378TIP3   OH234768   6.383   0.396   7.074  0.5361 -0.2809 -0.7755
 4378TIP3    H134769   6.455   0.368   7.131 -0.5620 -0.1579  0.7412
 4378TIP3    H234770   6.404   0.486   7.051  0.6937 -0.1173 -0.0248
 4379TIP3   OH234771   4.873   6.580   7.403  0.5213  0.0159 -0.1343
 4379TIP3    H134772   4.875   6.508   7.465  0.3334  0.8465  0.8767
 4379TIP3    H234773   4.905   6.655   7.453 -0.9329  1.0115 -0.6300
 4380TIP3   OH234774   0.109   2.025   1.928  0.3275  0.7679  0.2865
 4380TIP3    H134775   0.172   2.016   2.000 -1.3396 -3.6094  1.4955
 4380TIP3    H234776   0.024   2.016   1.969 -0.9284  1.9079 -1.8861
 4381TIP3   OH234777   5.917   2.013   0.302 -0.2434 -0.5757 -0.1093
 4381TIP3    H134778   5.889   2.104   0.301  1.2232 -0.1035  0.4887
 4381TIP3    H234779   5.842   1.965   0.265 -1.6539  0.6842  0.9712
 4382TIP3   OH234780   1.687   1.945   0.448 -0.3349  0.6758  0.0856
 4382TIP3    H134781   1.605   1.992   0.463  0.8339  2.7389  0.3082
 4382TIP3    H234782   1.668   1.856   0.478 -2.2896  1.2401  0.7263
 4383TIP3   OH234783   5.729   6.669   2.025  0.5759 -0.2496 -0.7513
 4383TIP3    H134784   5.699   6.743   1.972 -0.7066 -0.4054 -0.2886
 4383TIP3    H234785   5.814   6.697   2.059 -0.5390  1.6804  0.6652
 4384TIP3   OH234786   0.199   0.382   6.700 -0.3910 -0.0716  0.0434
 4384TIP3    H134787   0.211   0.409   6.791  0.4890 -0.3515  0.0208
 4384TIP3    H234788   0.119   0.330   6.701 -1.1589  1.0793  0.3951
 4385TIP3   OH234789   6.725   3.089   0.542 -0.0615 -0.2976 -0.0166
 4385TIP3    H134790   6.818   3.094   0.517 -0.0387 -1.6179 -0.2567
 4385TIP3    H234791   6.726   3.096   0.638  0.0620  2.0377 -0.1164
 4386TIP3   OH234792   6.277   3.950   2.954  0.3779 -0.2616 -0.3307
 4386TIP3    H134793   6.280   3.871   2.900  0.6506 -1.9419  1.9895
 4386TIP3    H234794   6.350   3.940   3.016  0.1052  1.5629  0.3534
 4387TIP3   OH234795   4.685   0.001   1.228  0.2850 -0.7274 -0.5099
 4387TIP3    H134796   4.738  -0.029   1.302  2.1908  1.4675 -0.8499
 4387TIP3    H234797   4.664   0.092   1.249  1.7032  0.2830 -3.0180
 4388TIP3   OH234798   2.151   1.625   3.285 -0.1840  0.0765  1.2351
 4388TIP3    H134799   2.090   1.578   3.229  0.9739  1.0974 -0.9930
 4388TIP3    H234800   2.095   1.678   3.342 -1.4089 -0.0067  0.1566
 4389TIP3   OH234801   3.258   6.453   7.319  0.2800 -0.0190  0.7808
 4389TIP3    H134802   3.343   6.484   7.290  0.5941 -0.1958  1.4901
 4389TIP3    H234803   3.276   6.406   7.400 -0.1924 -1.9255 -0.1518
 4390TIP3   OH234804   1.714   6.225   2.539 -0.0773  0.3561  0.0017
 4390TIP3    H134805   1.676   6.310   2.515 -2.3670 -0.2350  1.2811
 4390TIP3    H234806   1.690   6.212   2.631  0.9756 -1.3106  0.0921
 4391TIP3   OH234807   3.182   4.256   1.013 -0.3954 -0.1528 -0.9511
 4391TIP3    H134808   3.143   4.294   0.935 -2.3162 -0.6167 -0.2946
 4391TIP3    H234809   3.107   4.239   1.071  1.0503  1.5090  1.6044
 4392TIP3   OH234810   3.411   4.765   2.323 -0.0419  0.0458 -0.6651
 4392TIP3    H134811   3.335   4.792   2.271 -0.4549 -1.0651 -0.6488
 4392TIP3    H234812   3.450   4.848   2.351 -2.3056  0.6776  0.8878
 4393TIP3   OH234813   4.337   2.817   0.572 -0.9697 -0.1753  0.1148
 4393TIP3    H134814   4.254   2.782   0.605 -0.7905  0.5159  1.3646
 4393TIP3    H234815   4.402   2.790   0.637 -0.1330 -1.0440 -1.0559
 4394TIP3   OH234816   1.165   4.027   8.530  0.5539 -0.7222  0.1975
 4394TIP3    H134817   1.108   4.094   8.492  4.4255  2.4153 -0.7704
 4394TIP3    H234818   1.178   3.964   8.460  0.3947 -0.0257 -0.4675
 4395TIP3   OH234819   2.821   1.115   2.584  0.0996 -0.2495 -0.5200
 4395TIP3    H134820   2.736   1.086   2.618  1.3264 -0.8358  2.2792
 4395TIP3    H234821   2.805   1.204   2.554 -2.0132 -1.1369 -2.3187
 4396TIP3   OH234822   5.764   4.632   2.223 -0.0675  0.2544 -0.0592
 4396TIP3    H134823   5.725   4.678   2.149 -0.8622  0.7532  0.6599
 4396TIP3    H234824   5.841   4.685   2.246 -0.6482  0.9240  0.3921
 4397TIP3   OH234825   5.880   5.510   8.097 -0.1418 -0.3131  0.2251
 4397TIP3    H134826   5.972   5.515   8.121 -0.2938 -0.9758  0.9683
 4397TIP3    H234827   5.833   5.506   8.180 -0.8896  0.6040 -0.1332
 4398TIP3   OH234828   5.005   3.615   7.078  0.0534 -0.4414 -0.1114
 4398TIP3    H134829   4.989   3.521   7.085 -1.1212 -0.2387  0.1805
 4398TIP3    H234830   5.082   3.630   7.132 -0.1251 -1.1534  0.3591
 4399TIP3   OH234831   1.273   0.182   7.476  0.0224  0.1641  0.2300
 4399TIP3    H134832   1.301   0.104   7.428  0.5040  0.2386  0.3807
 4399TIP3    H234833   1.225   0.148   7.552 -1.8508  0.0705 -0.9540
 4400TIP3   OH234834   2.598   4.890   0.978  0.2428 -0.1391 -0.2072
 4400TIP3    H134835   2.683   4.913   1.016  1.4699 -1.8798 -1.7158
 4400TIP3    H234836   2.573   4.809   1.023  0.2066 -0.5218 -0.8986
 4401TIP3   OH234837   1.024   1.127   1.843 -0.5263  0.0357 -0.3358
 4401TIP3    H134838   1.008   1.131   1.938  1.0157  0.0097 -0.0524
 4401TIP3    H234839   0.937   1.117   1.805 -1.1477 -0.3095  1.0984
 4402TIP3   OH234840   0.582   0.104   1.324  0.0657  0.1636 -0.5304
 4402TIP3    H134841   0.618   0.079   1.409  1.4616 -3.5439 -1.9867
 4402TIP3    H234842   0.640   0.173   1.293  1.6963 -0.8566  0.1223
 4403TIP3   OH234843   0.799   1.644   8.109 -0.2884  0.2703 -0.0878
 4403TIP3    H134844   0.770   1.730   8.140  3.3261  1.4619  0.5430
 4403TIP3    H234845   0.846   1.663   8.027  0.5568 -1.0517  0.0602
 4404TIP3   OH234846   1.976   0.996   1.505 -0.1970 -0.2358 -0.2048
 4404TIP3    H134847   1.946   1.000   1.596  2.1423  1.8549  0.6143
 4404TIP3    H234848   2.065   1.031   1.508  0.3679 -1.1121 -3.1804
 4405TIP3   OH234849   6.286   2.780   0.916  0.2524  0.2177  0.0720
 4405TIP3    H134850   6.272   2.843   0.846 -0.5135  0.7676  0.6954
 4405TIP3    H234851   6.372   2.742   0.898  2.1414  3.5353  1.2454
 4406TIP3   OH234852   5.012   1.269   2.574 -0.5047  0.0290  0.1724
 4406TIP3    H134853   5.007   1.210   2.649  0.3954  0.2454  0.4236
 4406TIP3    H234854   4.967   1.222   2.504 -1.0769 -0.3168  0.7538
 4407TIP3   OH234855   2.982   5.248   2.621  0.1285 -0.0687  0.7406
 4407TIP3    H134856   2.949   5.245   2.711 -1.4409  1.8777  0.3086
 4407TIP3    H234857   2.967   5.339   2.594 -0.5835 -0.9116 -1.9104
 4408TIP3   OH234858   6.500   5.612   0.167  0.4173  0.1256  0.2276
 4408TIP3    H134859   6.501   5.600   0.262  0.8202  1.1987  0.3687
 4408TIP3    H234860   6.515   5.524   0.133 -1.8331 -0.6579  1.0854
 4409TIP3   OH234861   1.801   0.394   1.956  0.5011  0.6564  0.1813
 4409TIP3    H134862   1.743   0.396   1.880 -0.3985 -0.6502  0.8030
 4409TIP3    H234863   1.856   0.317   1.942 -0.5562 -0.3777  1.4499
 4410TIP3   OH234864   1.897   6.687   1.537 -0.1229  0.5036  0.0731
 4410TIP3    H134865   1.940   6.612   1.495 -2.1326 -0.2429 -0.7811
 4410TIP3    H234866   1.867   6.741   1.464 -0.6123  1.0039  0.6389
 4411TIP3   OH234867   5.239   1.215   0.224 -0.1597  0.5117  0.1905
 4411TIP3    H134868   5.202   1.209   0.312  3.2052  0.2431  1.7183
 4411TIP3    H234869   5.318   1.268   0.235 -0.7706  2.3753 -3.1394
 4412TIP3   OH234870   1.189   6.805   8.216 -0.3733  0.6162 -0.6207
 4412TIP3    H134871   1.128   6.761   8.276  1.2681 -0.7760  0.0912
 4412TIP3    H234872   1.227   6.875   8.269  0.3991 -0.0288 -0.3219
 4413TIP3   OH234873   3.079   1.434   1.333 -0.3472 -0.1211  0.3099
 4413TIP3    H134874   3.061   1.350   1.291  1.9620 -0.6624  0.2803
 4413TIP3    H234875   2.993   1.476   1.340 -1.3725 -1.8706 -0.9424
 4414TIP3   OH234876   1.145   2.905   0.162 -0.1550 -0.1065 -0.2225
 4414TIP3    H134877   1.185   2.847   0.098 -0.4680 -0.1201 -0.4096
 4414TIP3    H234878   1.051   2.899   0.144 -0.1715  0.6745 -0.4395
 4415TIP3   OH234879   6.294   3.118   1.690  0.2185  0.1080 -0.1538
 4415TIP3    H134880   6.269   3.208   1.670  0.1678 -0.0032 -0.6020
 4415TIP3    H234881   6.232   3.064   1.639  0.6238 -0.1745 -0.3555
 4416TIP3   OH234882   1.954   4.422   2.210  0.1052  0.0813  0.0350
 4416TIP3    H134883   1.960   4.471   2.128 -0.6177  0.8714  0.4342
 4416TIP3    H234884   1.879   4.460   2.255 -0.3403 -1.2471  0.4746
 4417TIP3   OH234885   3.233   5.963   8.680  0.4261  0.4534  0.5795
 4417TIP3    H134886   3.302   5.923   8.732 -1.0417 -0.8465  1.6023
 4417TIP3    H234887   3.219   6.049   8.721 -0.5993 -0.4836  2.2937
 4418TIP3   OH234888   1.068   2.491   2.208 -0.3332  0.1712 -0.0191
 4418TIP3    H134889   1.081   2.538   2.126 -0.0110  1.0096  0.5006
 4418TIP3    H234890   1.156   2.471   2.239 -0.4070 -2.8479 -1.3388
 4419TIP3   OH234891   1.036   3.748   7.964 -0.1998 -0.3828  0.2526
 4419TIP3    H134892   1.008   3.760   8.055 -1.2800  1.9787 -0.3224
 4419TIP3    H234893   1.101   3.817   7.949 -0.3626 -0.4562 -0.9094
 4420TIP3   OH234894   3.816   4.677   7.157  0.0751  0.0603  0.7878
 4420TIP3    H134895   3.749   4.712   7.098  0.7356 -0.3324 -0.2196
 4420TIP3    H234896   3.888   4.652   7.099  0.0814 -1.9218  1.5568
 4421TIP3   OH234897   4.831   3.638   1.408  0.4312  0.3770  0.2471
 4421TIP3    H134898   4.836   3.557   1.458  2.0571  1.0701  1.2966
 4421TIP3    H234899   4.807   3.705   1.473  0.0423  0.8999 -0.4165
 4422TIP3   OH234900   6.654   5.869   2.862 -0.0016  0.1803 -0.3891
 4422TIP3    H134901   6.652   5.905   2.774 -0.3942  0.2567 -0.3510
 4422TIP3    H234902   6.673   5.776   2.849 -0.3335  0.1365 -0.5730
 4423TIP3   OH234903   0.292   3.148   2.222  0.0403 -0.3095 -0.8575
 4423TIP3    H134904   0.337   3.226   2.255  2.3715 -0.2407 -3.8103
 4423TIP3    H234905   0.310   3.081   2.288 -0.2318  1.0688  0.7051
 4424TIP3   OH234906   3.575   2.097   6.622  0.1210 -0.3085  0.1038
 4424TIP3    H134907   3.570   2.030   6.554  0.6797 -3.1401  2.6114
 4424TIP3    H234908   3.505   2.074   6.683  0.3041  1.4525  1.0365
 4425TIP3   OH234909   1.472   2.952   7.599  0.0108  0.0568  0.1277
 4425TIP3    H134910   1.471   2.877   7.540  1.0715  1.0844 -1.2622
 4425TIP3    H234911   1.395   3.004   7.574 -0.7049 -0.5122  1.0668
 4426TIP3   OH234912   6.807   4.912   8.519  0.4956  0.6142 -0.5511
 4426TIP3    H134913   6.837   4.906   8.428  0.1047  0.3651 -0.6635
 4426TIP3    H234914   6.728   4.859   8.522  0.4795  0.6610 -0.0740
 4427TIP3   OH234915   3.552   0.204   8.037  0.0420  0.1412  0.1696
 4427TIP3    H134916   3.642   0.223   8.065  0.3386  1.7607 -1.6699
 4427TIP3    H234917   3.497   0.260   8.091  0.4101  1.3477 -0.6628
 4428TIP3   OH234918   0.575   5.581   0.600 -0.2665  0.4319 -0.4157
 4428TIP3    H134919   0.606   5.610   0.514 -1.1122  0.9151 -0.5761
 4428TIP3    H234920   0.563   5.487   0.592 -0.0162  0.4277 -0.7225
 4429TIP3   OH234921   2.757   1.108   8.782 -0.3259 -0.1295 -0.0527
 4429TIP3    H134922   2.724   1.094   8.693 -0.9090  0.9863 -0.0203
 4429TIP3    H234923   2.848   1.136   8.769 -0.2881 -0.3473 -0.2754
 4430TIP3   OH234924   2.902   5.503   1.906  0.3065 -0.1405 -0.0776
 4430TIP3    H134925   2.891   5.553   1.825  1.1758  1.6994  0.8778
 4430TIP3    H234926   2.839   5.541   1.967 -0.8561 -1.9967 -0.0653
 4431TIP3   OH234927   5.893   4.532   8.167  0.5582 -0.1857 -0.1664
 4431TIP3    H134928   5.809   4.504   8.205  1.4912 -0.6775  1.6500
 4431TIP3    H234929   5.934   4.451   8.138 -0.1865  0.1892 -2.5055
 4432TIP3   OH234930   1.412   2.559   8.271  0.0640  0.3977 -0.3471
 4432TIP3    H134931   1.496   2.575   8.228  0.1611 -0.6759 -0.6070
 4432TIP3    H234932   1.408   2.463   8.281  0.3203  0.6045  2.6188
 4433TIP3   OH234933   2.345   4.460   8.647  0.3874 -0.4177  0.5393
 4433TIP3    H134934   2.286   4.523   8.688  0.0427 -0.3241 -0.0869
 4433TIP3    H234935   2.420   4.455   8.706  1.2832  1.9685 -0.2981
 4434TIP3   OH234936   6.766   3.111   1.654  0.4221  0.5242 -0.2366
 4434TIP3    H134937   6.768   3.065   1.570  0.5627  1.7007 -0.8937
 4434TIP3    H234938   6.856   3.104   1.687  0.2384 -0.4067  0.0856
 4435TIP3   OH234939   1.545   5.838   1.370  0.4140  0.6065  0.0770
 4435TIP3    H134940   1.640   5.834   1.375  0.3986  1.5108  2.1078
 4435TIP3    H234941   1.526   5.922   1.329  0.4644  0.1018 -1.0194
 4436TIP3   OH234942   1.400   4.968   6.973  1.0492  0.4980  0.4647
 4436TIP3    H134943   1.357   5.046   6.938  0.9741 -0.0867 -0.7971
 4436TIP3    H234944   1.329   4.918   7.012  0.7485  0.1070 -0.5466
 4437TIP3   OH234945   6.009   4.945   8.305  0.1931  0.0669  0.0842
 4437TIP3    H134946   5.994   4.871   8.363  0.6015  0.3594  0.5749
 4437TIP3    H234947   5.973   5.020   8.352 -3.2543 -0.2238 -1.8135
 4438TIP3   OH234948   2.823   2.228   8.213  0.1008  0.2821  0.5932
 4438TIP3    H134949   2.769   2.299   8.247 -0.2642 -0.2767  1.1850
 4438TIP3    H234950   2.905   2.271   8.188 -1.7091  1.8447 -3.6382
 4439TIP3   OH234951   5.034   1.101   8.028 -0.3717 -0.0344 -0.1763
 4439TIP3    H134952   5.117   1.108   8.075 -0.7330  0.2679  0.4321
 4439TIP3    H234953   4.986   1.180   8.052 -0.2085  0.5971 -1.8063
 4440TIP3   OH234954   6.669   4.409   0.448 -0.8039  0.5923  0.0178
 4440TIP3    H134955   6.737   4.346   0.423 -2.0200 -0.4915 -0.7084
 4440TIP3    H234956   6.715   4.475   0.499  0.7636 -0.1821 -0.3290
 4441TIP3   OH234957   5.370   1.766   8.380 -0.3021 -0.1610 -0.0969
 4441TIP3    H134958   5.382   1.763   8.475 -0.1090 -2.5650 -0.1198
 4441TIP3    H234959   5.416   1.688   8.348  0.3341  1.0181 -2.2763
 4442TIP3   OH234960   2.660   2.502   8.234  0.4612 -0.1599  0.0916
 4442TIP3    H134961   2.675   2.497   8.140 -0.5427  0.4457 -0.1139
 4442TIP3    H234962   2.723   2.567   8.266 -1.3236  2.0762 -0.6944
 4443TIP3   OH234963   3.001   0.997   7.922  0.3857 -0.2138  0.3635
 4443TIP3    H134964   2.913   1.022   7.949 -0.5638 -2.1818 -0.7302
 4443TIP3    H234965   3.052   1.001   8.003 -0.7160  0.8326  1.0389
 4444TIP3   OH234966   0.355   4.449   8.389 -0.2289  0.0779  0.1702
 4444TIP3    H134967   0.361   4.453   8.294 -0.6751  1.2894  0.1708
 4444TIP3    H234968   0.320   4.362   8.408  0.6140 -0.4733 -0.7172
 4445TIP3   OH234969   5.151   3.680   7.661  0.3165  0.2775  0.0830
 4445TIP3    H134970   5.227   3.628   7.635 -0.0822 -1.0194  1.4287
 4445TIP3    H234971   5.150   3.675   7.756 -2.6590 -1.5291  0.0480
 4446TIP3   OH234972   3.660   4.392   8.563  0.1685  0.1303  0.6933
 4446TIP3    H134973   3.687   4.310   8.603 -1.1081  0.0518  1.4419
 4446TIP3    H234974   3.688   4.460   8.624 -1.5804  0.0247  1.6646
 4447TIP3   OH234975   0.187   1.442   2.040  0.4926 -0.2351 -0.6597
 4447TIP3    H134976   0.181   1.452   1.945 -1.2129  0.8286 -0.4830
 4447TIP3    H234977   0.176   1.530   2.075  2.0876 -0.4595  0.5265
 4448TIP3   OH234978   5.201   2.490   1.950 -0.2230 -0.0710  0.8213
 4448TIP3    H134979   5.140   2.488   1.876  0.4927  0.2158  0.2172
 4448TIP3    H234980   5.169   2.421   2.009  0.2306 -1.5291 -0.5785
 4449TIP3   OH234981   2.373   0.764   7.980 -0.6859 -0.2097  0.4927
 4449TIP3    H134982   2.375   0.857   8.000  0.9981 -0.1251  0.0548
 4449TIP3    H234983   2.357   0.722   8.065  0.5023  0.4028  1.0384
 4450TIP3   OH234984   1.028   5.650   8.051 -0.1585  0.2313  0.1968
 4450TIP3    H134985   0.995   5.689   7.970 -1.3562 -0.6845  0.2216
 4450TIP3    H234986   1.052   5.726   8.106  0.7902  0.8565 -1.0295
 4451TIP3   OH234987   6.148   3.322   8.377 -0.6012  0.4502 -0.4492
 4451TIP3    H134988   6.137   3.342   8.470 -2.2857 -0.0160 -0.5031
 4451TIP3    H234989   6.218   3.257   8.373 -0.0751  0.9592  0.4273
 4452TIP3   OH234990   0.317   6.363   0.032 -0.2623 -0.0317 -0.4769
 4452TIP3    H134991   0.367   6.390   0.109  0.0663  0.2526 -0.7914
 4452TIP3    H234992   0.382   6.337  -0.032 -0.3916  2.2496 -1.6190
 4453TIP3   OH234993   5.916   5.740   7.717  0.1347 -0.5719 -0.0116
 4453TIP3    H134994   5.990   5.693   7.757  0.0940 -0.8300 -0.2385
 4453TIP3    H234995   5.957   5.793   7.648  0.1197 -0.6435 -0.0756
 4454TIP3   OH234996   6.215   1.230   0.509 -0.1861 -0.7164  0.6814
 4454TIP3    H134997   6.259   1.201   0.428 -0.8900 -0.4342  0.1912
 4454TIP3    H234998   6.124   1.244   0.483 -0.1585  0.5915  1.2299
 4455TIP3   OH234999   0.979   3.350   7.849 -0.5897 -0.2572 -0.2770
 4455TIP3    H135000   0.896   3.386   7.882  0.2547 -0.1434  1.8881
 4455TIP3    H235001   0.952   3.277   7.793 -2.2050  1.3624 -1.7785
 4456TIP3   OH235002   1.634   5.437   1.605 -0.4195 -0.7669  0.2564
 4456TIP3    H135003   1.577   5.435   1.682 -0.8236  3.0110  0.2318
 4456TIP3    H235004   1.574   5.426   1.531 -0.8419  0.6440  0.3470
 4457TIP3   OH235005   3.410   3.629   7.784 -0.0421 -0.1091  0.1335
 4457TIP3    H135006   3.321   3.642   7.752 -1.4751 -0.4201  3.5961
 4457TIP3    H235007   3.464   3.634   7.705 -3.1042 -0.3154 -2.1890
 4458TIP3   OH235008   6.308   5.962   7.533 -0.5087  0.1010 -0.8510
 4458TIP3    H135009   6.395   5.942   7.567 -1.7979 -1.7867  1.7315
 4458TIP3    H235010   6.307   6.057   7.521  1.9500  0.1371 -1.2295
 4459TIP3   OH235011   4.727   4.311   8.630  0.3440 -0.2710 -0.0208
 4459TIP3    H135012   4.687   4.245   8.687  2.6978  0.4689  2.7118
 4459TIP3    H235013   4.801   4.266   8.590 -0.5059 -0.3994 -1.4990
 4460TIP3   OH235014   1.922   3.888   2.250 -0.2726  0.2726  0.5395
 4460TIP3    H135015   1.890   3.838   2.175  0.6636 -1.4986  1.2633
 4460TIP3    H235016   1.930   3.824   2.320  2.5187  1.0636  1.0705
 4461TIP3   OH235017   4.488   6.108   1.366 -0.2168  0.0828  0.3749
 4461TIP3    H135018   4.400   6.113   1.403  0.0843 -0.4026  1.1936
 4461TIP3    H235019   4.538   6.174   1.414  0.3028 -0.8993  1.2466
 4462TIP3   OH235020   2.185   6.683   1.703 -0.3612 -0.4491 -0.4181
 4462TIP3    H135021   2.205   6.775   1.720  0.1336 -0.3080 -1.7377
 4462TIP3    H235022   2.092   6.675   1.725 -0.9280  0.8533 -2.1439
 4463TIP3   OH235023   1.479   5.026   7.518 -0.2647  0.0363  0.4194
 4463TIP3    H135024   1.420   5.090   7.557 -0.1018  0.2576  0.3060
 4463TIP3    H235025   1.423   4.969   7.465 -0.1998  1.1440 -0.8872
 4464TIP3   OH235026   3.540   3.957   0.311 -0.3912 -1.0237  0.3277
 4464TIP3    H135027   3.506   3.986   0.227 -1.6489  0.3155  1.2553
 4464TIP3    H235028   3.629   3.991   0.315 -0.4245 -0.8537 -0.3269
 4465TIP3   OH235029   5.618   1.189   2.206  0.7695  0.1467 -0.0637
 4465TIP3    H135030   5.687   1.126   2.227 -0.4543 -1.1555  0.1726
 4465TIP3    H235031   5.585   1.160   2.121  0.2849  0.5536 -0.0142
 4466TIP3   OH235032   4.853   1.079   7.471 -0.0791  0.2059  0.3710
 4466TIP3    H135033   4.907   1.014   7.427 -1.2263  0.1344 -0.9806
 4466TIP3    H235034   4.868   1.160   7.423  1.0378  0.8996  1.8016
 4467TIP3   OH235035   4.878   0.207   7.881 -0.2446 -0.4386  0.5615
 4467TIP3    H135036   4.958   0.185   7.833 -0.3241 -1.3740  0.8408
 4467TIP3    H235037   4.885   0.158   7.963 -0.8349 -0.0637  0.8396
 4468TIP3   OH235038   6.006   4.251   8.218  0.3513 -0.3780 -0.0185
 4468TIP3    H135039   6.071   4.243   8.288  0.0687  0.5415  0.3630
 4468TIP3    H235040   6.058   4.258   8.138  0.9790  3.9408  0.5599
 4469TIP3   OH235041   0.757   0.658   7.711 -0.4401  0.2656 -0.6160
 4469TIP3    H135042   0.841   0.659   7.757 -0.5109  1.9632 -0.4727
 4469TIP3    H235043   0.727   0.567   7.718  0.7451 -0.0683  0.4947
 4470TIP3   OH235044   1.302   3.855   7.747  0.0506  0.0422  0.2344
 4470TIP3    H135045   1.372   3.799   7.714  0.5181 -0.3499  1.7861
 4470TIP3    H235046   1.232   3.847   7.682  1.3940  0.3895 -1.3048
 4471TIP3   OH235047   3.896   5.039   6.599  0.1894  0.2415  0.8607
 4471TIP3    H135048   3.936   5.119   6.563 -1.2846  1.1057  1.0671
 4471TIP3    H235049   3.915   4.972   6.533  1.4991  0.7297  0.7057
 4472TIP3   OH235050   3.263   2.332   0.026 -0.1648 -1.1487  0.3990
 4472TIP3    H135051   3.223   2.393   0.088 -0.2378  0.1135 -0.8382
 4472TIP3    H235052   3.352   2.319   0.059  0.9201  2.0878 -0.8814
 4473TIP3   OH235053   0.001   5.786   7.341 -0.6067 -0.4204  0.0511
 4473TIP3    H135054   0.029   5.698   7.315 -0.9101  0.1840 -2.5690
 4473TIP3    H235055  -0.091   5.775   7.366 -0.1501 -1.1142  1.5777
 4474TIP3   OH235056   0.363   2.151   8.030 -0.1988  1.1453  0.0805
 4474TIP3    H135057   0.350   2.075   8.087 -1.1179  1.0935 -0.1916
 4474TIP3    H235058   0.458   2.163   8.028 -0.1102  0.6878  1.0152
 4475TIP3   OH235059   4.379   1.543   7.296  0.1695  0.2611  0.5439
 4475TIP3    H135060   4.298   1.520   7.339 -0.0416 -0.7478 -0.3553
 4475TIP3    H235061   4.366   1.517   7.205  0.9860  1.3660  0.0875
 4476TIP3   OH235062   2.487   4.093   1.197 -0.2409 -0.6058 -0.2510
 4476TIP3    H135063   2.566   4.133   1.161 -0.4449  1.1922  1.1556
 4476TIP3    H235064   2.427   4.166   1.212 -0.1454 -1.0976  3.6570
 4477TIP3   OH235065   1.370   0.293   1.300 -0.0993 -0.4615  0.5494
 4477TIP3    H135066   1.382   0.283   1.394 -1.8860 -4.5978  0.5382
 4477TIP3    H235067   1.285   0.334   1.291  1.0093  2.0119  0.6230
 4478TIP3   OH235068   5.398   1.564   0.917 -0.2214 -0.0066 -0.0426
 4478TIP3    H135069   5.471   1.625   0.908 -0.1200  0.1538  1.5521
 4478TIP3    H235070   5.439   1.478   0.920 -0.2640 -0.0698 -1.0421
 4479TIP3   OH235071   1.297   5.027   2.764  0.1719  0.0229  0.3942
 4479TIP3    H135072   1.303   5.092   2.693  2.1482 -0.2127  0.2979
 4479TIP3    H235073   1.203   5.011   2.773 -0.2511  1.5021 -0.8507
 4480TIP3   OH235074   6.191   5.727   1.715  0.1344 -0.1594  0.1867
 4480TIP3    H135075   6.107   5.707   1.674  0.4077 -0.7200 -0.1138
 4480TIP3    H235076   6.254   5.674   1.666  1.0257  2.0350 -1.2123
 4481TIP3   OH235077   3.611   1.505   8.424  0.7369 -0.3546  0.6855
 4481TIP3    H135078   3.699   1.530   8.399 -0.4666  2.7771 -0.9773
 4481TIP3    H235079   3.591   1.561   8.500  0.0430 -0.7027  0.7704
 4482TIP3   OH235080   2.773   4.952   8.556  0.0039 -0.7021  0.2671
 4482TIP3    H135081   2.748   5.041   8.581 -0.4155 -0.6873 -0.1902
 4482TIP3    H235082   2.837   4.926   8.622  1.8108  0.7548 -0.8176
 4483TIP3   OH235083   0.405   3.035   1.426 -0.1129 -0.5790  0.2235
 4483TIP3    H135084   0.469   3.013   1.359  1.2390 -1.1764  1.6352
 4483TIP3    H235085   0.340   2.965   1.420  0.5449 -1.2022  0.1986
 4484TIP3   OH235086   3.272   4.081   8.480 -0.5079  0.2080  0.6641
 4484TIP3    H135087   3.314   4.165   8.461  0.5059 -0.9258 -2.7722
 4484TIP3    H235088   3.285   4.069   8.575 -0.0608  3.5278  1.1279
 4485TIP3   OH235089   5.981   4.106   0.319  0.3429  0.1991 -0.8321
 4485TIP3    H135090   6.073   4.132   0.330  0.1437  0.4400  0.4104
 4485TIP3    H235091   5.982   4.048   0.243  1.3395  1.1080 -1.5514
 4486TIP3   OH235092   3.367   2.331   1.982  0.1795 -0.0765 -0.8034
 4486TIP3    H135093   3.449   2.360   1.941  1.1083 -1.5998 -0.0910
 4486TIP3    H235094   3.379   2.350   2.075  0.4286 -1.8076 -0.4587
 4487TIP3   OH235095   1.676   2.758   8.741  0.0606 -0.3479  0.0071
 4487TIP3    H135096   1.671   2.842   8.787  0.4404 -1.7873  2.8506
 4487TIP3    H235097   1.690   2.782   8.649  0.9863  2.6745  0.8306
 4488TIP3   OH235098   2.083   0.979   1.872 -0.4786  0.2928 -0.0010
 4488TIP3    H135099   2.133   1.050   1.911 -0.2491  0.9121 -1.3573
 4488TIP3    H235100   2.148   0.924   1.829 -0.8360  0.4077 -0.7044
 4489TIP3   OH235101   6.763   0.919   7.156 -0.1833 -0.0336 -0.7581
 4489TIP3    H135102   6.688   0.882   7.109 -0.6531 -0.2600  0.1415
 4489TIP3    H235103   6.815   0.961   7.089 -2.4881  2.5207 -1.1339
 4490TIP3   OH235104   5.268   1.813   1.050 -0.0303 -0.2659 -0.1106
 4490TIP3    H135105   5.330   1.743   1.034  2.1233  1.1504  1.4471
 4490TIP3    H235106   5.310   1.891   1.014 -1.5104  0.5394 -0.1688
 4491TIP3   OH235107   0.310   1.169   2.114  1.0365  0.2033  0.3272
 4491TIP3    H135108   0.246   1.230   2.075  0.5547  0.2494  1.1752
 4491TIP3    H235109   0.312   1.095   2.053 -0.7081 -0.3275  0.8664
 4492TIP3   OH235110   2.779   3.860   8.639  0.3187  0.3912 -0.2363
 4492TIP3    H135111   2.832   3.883   8.715 -0.2660 -0.7621  0.5416
 4492TIP3    H235112   2.715   3.932   8.631  1.7906  1.6778 -1.0485
 4493TIP3   OH235113   4.978   4.652   0.552  0.0405  0.7503  0.0607
 4493TIP3    H135114   5.069   4.661   0.580 -0.1651 -0.8885  1.4349
 4493TIP3    H235115   4.928   4.648   0.634 -0.9719 -0.8710 -0.5926
 4494TIP3   OH235116   5.730   1.056   8.206  0.2165 -0.5157 -0.0714
 4494TIP3    H135117   5.638   1.057   8.232 -0.0131 -1.1796 -0.8171
 4494TIP3    H235118   5.728   1.079   8.113  1.0257  2.0832  0.4561
 4495TIP3   OH235119   2.137   1.108   8.025  0.3323 -0.0434 -0.5581
 4495TIP3    H135120   2.110   1.047   7.956 -0.1495  1.0674 -1.3829
 4495TIP3    H235121   2.091   1.079   8.103 -1.5434  0.4659 -1.4190
 4496TIP3   OH235122   0.148   2.799   0.476 -0.1223  0.4043  0.2159
 4496TIP3    H135123   0.181   2.794   0.386 -1.2972 -1.0847 -0.1751
 4496TIP3    H235124   0.162   2.890   0.502  1.1203  0.6290 -1.1214
 4497TIP3   OH235125   5.149   4.476   0.149  0.0143  0.4383  0.0840
 4497TIP3    H135126   5.059   4.454   0.125 -0.3333  0.6689  1.1390
 4497TIP3    H235127   5.159   4.445   0.239  1.2383 -0.2657 -0.2751
 4498TIP3   OH235128   1.045   0.391   6.911  0.0014 -0.4576  0.9397
 4498TIP3    H135129   1.080   0.478   6.929  0.5468 -0.3333 -0.5846
 4498TIP3    H235130   0.950   0.403   6.910 -0.0064 -0.2435  2.3984
 4499TIP3   OH235131   3.932   3.348   8.802 -0.0415 -0.7268 -0.1997
 4499TIP3    H135132   3.904   3.268   8.847 -2.1705  0.0464 -0.0587
 4499TIP3    H235133   3.996   3.387   8.860 -0.2430 -1.4756  0.5409
 4500TIP3   OH235134   3.056   0.449   0.388  0.0290 -0.4839 -0.0696
 4500TIP3    H135135   2.993   0.489   0.329  0.0469 -2.8111 -1.8180
 4500TIP3    H235136   3.124   0.515   0.400 -1.0373  0.8147 -0.9353
 4501TIP3   OH235137   6.264   5.038   7.630  0.0773  0.3641  0.2446
 4501TIP3    H135138   6.187   4.981   7.633  0.3788 -0.0512  0.1700
 4501TIP3    H235139   6.278   5.065   7.721  0.6534 -0.6541  0.4626
 4502TIP3   OH235140   4.184   5.169   7.444  0.2001  0.3546 -0.2894
 4502TIP3    H135141   4.151   5.084   7.413  1.4592 -0.0324 -0.6524
 4502TIP3    H235142   4.230   5.148   7.526 -0.3669  0.8649  0.1666
 4503TIP3   OH235143   3.070   4.149   1.874  0.1692 -0.2170 -0.5099
 4503TIP3    H135144   3.150   4.150   1.926 -0.6859  1.0724  0.8422
 4503TIP3    H235145   3.085   4.213   1.805  1.7448 -2.7166 -2.6999
 4504TIP3   OH235146   2.905   6.779   1.566 -0.3508 -1.0612 -0.1806
 4504TIP3    H135147   2.876   6.711   1.627 -0.2415 -1.8065 -0.9458
 4504TIP3    H235148   2.975   6.738   1.515 -1.1294 -0.8123 -1.5159
 4505TIP3   OH235149   6.195   1.806   1.054  0.0742 -0.2286 -0.0557
 4505TIP3    H135150   6.106   1.772   1.063  0.4802 -1.2978  0.1285
 4505TIP3    H235151   6.243   1.734   1.014  0.6974  0.6082 -0.8390
 4506TIP3   OH235152   4.943   3.863   6.675  0.2801 -0.1001 -0.0580
 4506TIP3    H135153   4.880   3.797   6.703 -0.5022  1.0286  0.9892
 4506TIP3    H235154   4.922   3.880   6.583 -0.7761  0.0656  0.2075
 4507TIP3   OH235155   3.136   1.818   1.889  0.1386 -0.0175  0.2031
 4507TIP3    H135156   3.094   1.732   1.890 -0.3294  0.1943 -0.3476
 4507TIP3    H235157   3.215   1.806   1.837 -0.6489  0.1915 -1.0930
 4508TIP3   OH235158   3.962   3.062   7.422  0.2046  0.0781  0.4854
 4508TIP3    H135159   4.054   3.055   7.447  0.4562  0.0475 -0.4103
 4508TIP3    H235160   3.915   3.012   7.489  0.8733 -0.2451  0.7271
 4509TIP3   OH235161   1.187   4.704   1.582  0.0552  0.1845 -0.3983
 4509TIP3    H135162   1.225   4.745   1.660 -2.1279 -0.1913  0.9351
 4509TIP3    H235163   1.212   4.763   1.511  1.9067  0.6712  0.5707
 4510TIP3   OH235164   3.722   2.058   7.983 -0.2348 -0.0502 -0.0174
 4510TIP3    H135165   3.742   2.139   8.030 -1.8947  0.2591  0.2038
 4510TIP3    H235166   3.677   2.004   8.047  0.7295 -1.1203 -0.2125
 4511TIP3   OH235167   4.371   2.730   1.692  0.0167 -0.2607 -0.2585
 4511TIP3    H135168   4.322   2.656   1.725 -0.1511  0.0244  0.1348
 4511TIP3    H235169   4.373   2.717   1.597  0.9121 -1.3365 -0.1234
 4512TIP3   OH235170   1.500   6.440   0.410  0.2280  0.4524  0.0554
 4512TIP3    H135171   1.586   6.402   0.397  0.8183  1.1005  1.8287
 4512TIP3    H235172   1.513   6.534   0.400  0.2871  0.7975  2.6441
 4513TIP3   OH235173   3.961   0.320   1.766 -0.1609  0.4812 -0.2951
 4513TIP3    H135174   4.011   0.395   1.735  0.2612  0.4594  0.3135
 4513TIP3    H235175   3.872   0.352   1.775 -0.0990  0.7438 -0.6157
 4514TIP3   OH235176   3.821   6.578   7.125 -0.5048  0.4114  0.1735
 4514TIP3    H135177   3.899   6.589   7.179 -0.8786  0.7556  0.6449
 4514TIP3    H235178   3.843   6.505   7.067 -0.2412 -0.2118  1.0372
 4515TIP3   OH235179   0.647   6.111   1.490 -0.2650 -0.0330 -0.3757
 4515TIP3    H135180   0.641   6.183   1.553 -0.9624 -0.4186  0.0137
 4515TIP3    H235181   0.710   6.141   1.425 -2.2508  1.9516 -1.5390
 4516TIP3   OH235182   0.996   0.810   1.283  0.8621 -0.0844 -0.1392
 4516TIP3    H135183   1.019   0.836   1.194  0.0372 -1.0913 -0.6687
 4516TIP3    H235184   1.072   0.836   1.336  1.1353  1.0220 -1.0329
 4517TIP3   OH235185   5.062   1.581   0.473 -0.2752 -0.7581  0.1941
 4517TIP3    H135186   5.145   1.562   0.515 -0.2172 -2.5388 -0.6515
 4517TIP3    H235187   5.083   1.588   0.380 -0.5859  2.0103  0.2290
 4518TIP3   OH235188   0.088   3.775   8.475 -0.4141  0.2064  0.0533
 4518TIP3    H135189   0.160   3.760   8.414 -0.4611  0.5909 -0.0973
 4518TIP3    H235190   0.013   3.731   8.435  0.0547 -1.4571  0.9116
 4519TIP3   OH235191   6.488   0.300   7.747  0.0651  0.3166 -0.2370
 4519TIP3    H135192   6.508   0.207   7.738 -0.1070  0.3466 -0.9415
 4519TIP3    H235193   6.439   0.322   7.668 -2.9255  0.1950  1.4034
 4520TIP3   OH235194   3.308   1.719   0.275  0.0173  0.3128 -0.1826
 4520TIP3    H135195   3.310   1.807   0.312 -1.1018 -0.1360  1.0255
 4520TIP3    H235196   3.231   1.678   0.314  0.8750 -1.4200 -0.1749
 4521TIP3   OH235197   4.078   6.592   1.125  0.0520  0.6117 -0.0690
 4521TIP3    H135198   4.060   6.498   1.127 -1.2228  0.8381 -0.4239
 4521TIP3    H235199   4.162   6.600   1.080  0.1919 -0.3572  0.0099
 4522TIP3   OH235200   0.335   6.734   1.321 -0.3171 -0.5186 -0.0657
 4522TIP3    H135201   0.356   6.691   1.404  1.6608 -1.5207 -1.0180
 4522TIP3    H235202   0.369   6.823   1.331 -1.7281 -0.0415  0.8146
 4523TIP3   OH235203   1.076   2.917   8.663  0.3289  0.5124 -0.4984
 4523TIP3    H135204   1.062   2.823   8.647  0.2957  0.5674 -0.7899
 4523TIP3    H235205   0.990   2.957   8.650 -0.0899  0.3423  1.4534
 4524TIP3   OH235206   3.031   1.569   1.883 -0.1896 -0.5482  0.1869
 4524TIP3    H135207   2.940   1.543   1.864  0.6846 -2.7538 -1.3731
 4524TIP3    H235208   3.080   1.542   1.805  1.9005  0.1966  1.1831
 4525TIP3   OH235209   3.693   3.320   7.173 -0.2188  0.2951  0.0430
 4525TIP3    H135210   3.613   3.269   7.165 -0.0426  0.1078 -0.5895
 4525TIP3    H235211   3.677   3.399   7.122  0.3187 -0.1485 -0.8284
 4526TIP3   OH235212   5.756   6.351   0.413  0.5815 -0.1608  0.0630
 4526TIP3    H135213   5.759   6.297   0.492 -2.1228  0.0196  0.3727
 4526TIP3    H235214   5.675   6.401   0.421  1.3009  1.4647 -1.8440
 4527TIP3   OH235215   3.713   0.835   8.163 -0.2738  0.2577  0.4046
 4527TIP3    H135216   3.806   0.853   8.150  0.2906 -2.6059 -0.2921
 4527TIP3    H235217   3.670   0.871   8.085 -0.2045  3.7779  1.8396
 4528TIP3   OH235218   1.913   1.662   7.073  0.3552  0.3448 -0.4231
 4528TIP3    H135219   1.820   1.684   7.079  0.9011  3.1161 -1.0222
 4528TIP3    H235220   1.945   1.711   6.998  2.7037  0.9561  0.8766
 4529TIP3   OH235221   5.208   0.514   0.087  0.2628  0.5308  0.6640
 4529TIP3    H135222   5.243   0.600   0.111  2.5271 -0.4564  1.1378
 4529TIP3    H235223   5.116   0.518   0.114  0.0591  3.0633 -0.0952
 4530TIP3   OH235224   6.079   2.253   3.074  0.0773  0.3857  0.1899
 4530TIP3    H135225   6.065   2.300   3.156  0.9429 -0.5594  0.9122
 4530TIP3    H235226   6.173   2.232   3.074  0.6311  2.3425 -2.1450
 4531TIP3   OH235227   3.090   2.055   2.425 -0.3883  0.1834  0.1100
 4531TIP3    H135228   3.154   1.999   2.381 -0.4730  0.9083 -0.9606
 4531TIP3    H235229   3.142   2.114   2.479 -0.2670 -0.4509  0.7119
 4532TIP3   OH235230   2.621   3.075   2.768 -0.4310  0.1633  0.1962
 4532TIP3    H135231   2.693   3.018   2.740 -0.2353  0.3271  0.3577
 4532TIP3    H235232   2.546   3.017   2.775 -0.1238 -0.1739  0.8191
 4533TIP3   OH235233   3.152   6.219   2.447 -0.1993  0.0136  0.0739
 4533TIP3    H135234   3.199   6.273   2.510 -0.9396 -0.5449  1.1263
 4533TIP3    H235235   3.103   6.282   2.394  1.7557  0.6199 -1.1248
 4534TIP3   OH235236   3.351   3.640   0.134 -0.1544  0.4723 -0.1254
 4534TIP3    H135237   3.300   3.582   0.190  0.4944  0.0566  0.0421
 4534TIP3    H235238   3.395   3.581   0.072  0.4502  0.7832 -0.0001
 4535TIP3   OH235239   4.261   4.113   2.918 -0.0247 -0.0475 -0.2904
 4535TIP3    H135240   4.170   4.116   2.948 -0.0582  2.7836 -0.4064
 4535TIP3    H235241   4.309   4.169   2.979  0.9971  1.0352 -1.9697
 4536TIP3   OH235242   0.458   2.634   8.651 -0.1891 -0.0742 -0.0619
 4536TIP3    H135243   0.541   2.636   8.699  0.1323 -2.0275 -0.4381
 4536TIP3    H235244   0.483   2.645   8.559 -0.4964  0.6337 -0.0684
 4537TIP3   OH235245   0.103   4.285   0.061  0.1973  0.1446  0.1950
 4537TIP3    H135246   0.135   4.211   0.009  0.8273  0.8050 -0.3815
 4537TIP3    H235247   0.099   4.358  -0.001 -0.7863  0.5060  0.6626
 4538TIP3   OH235248   2.396   2.039   2.272  0.0156  0.1873  0.0764
 4538TIP3    H135249   2.356   2.126   2.274 -0.6335 -0.0807  2.9875
 4538TIP3    H235250   2.447   2.034   2.353  0.3632 -2.0111 -0.2236
 4539TIP3   OH235251   2.054   5.036   1.730 -0.5151 -0.5653  0.3003
 4539TIP3    H135252   1.965   5.021   1.761 -0.8871 -1.8628 -1.2800
 4539TIP3    H235253   2.109   4.984   1.788 -1.0460 -1.7219 -0.2033
 4540TIP3   OH235254   4.666   2.261   1.193  0.1742 -0.1811  0.3188
 4540TIP3    H135255   4.698   2.231   1.108 -2.5994 -0.9135 -0.5483
 4540TIP3    H235256   4.639   2.182   1.239 -0.7091  0.4095  0.8519
 4541TIP3   OH235257   1.140   2.441   0.950  0.0697  0.0620 -0.2865
 4541TIP3    H135258   1.126   2.377   1.019  1.6415 -0.2203 -0.2145
 4541TIP3    H235259   1.067   2.427   0.889 -0.1671 -1.0891  0.2571
 4542TIP3   OH235260   2.588   5.055   2.273 -0.0261 -0.4190  0.0912
 4542TIP3    H135261   2.669   5.085   2.314 -0.8333 -0.7650  2.0221
 4542TIP3    H235262   2.570   4.971   2.315 -1.5836 -0.1759 -0.0401
 4543TIP3   OH235263   5.145   6.365   7.566 -0.1468 -0.0916  0.2283
 4543TIP3    H135264   5.162   6.374   7.660  0.1395 -1.1330  0.2937
 4543TIP3    H235265   5.218   6.311   7.534 -1.0218 -0.9949 -0.3003
 4544TIP3   OH235266   0.598   6.359   0.563  0.6154 -0.0419  0.7197
 4544TIP3    H135267   0.594   6.451   0.538 -0.0698  0.3054  2.0630
 4544TIP3    H235268   0.522   6.319   0.519  0.6505  0.1188  0.5111
 4545TIP3   OH235269   3.147   0.447   7.226 -0.2281  0.0072 -0.0349
 4545TIP3    H135270   3.059   0.464   7.257 -0.2919  0.2774 -0.3541
 4545TIP3    H235271   3.170   0.525   7.175 -0.0881 -0.3713 -0.5598
 4546TIP3   OH235272   4.814   4.770   2.504 -0.2895  0.6577  0.2274
 4546TIP3    H135273   4.792   4.677   2.496  0.7940  0.3519  0.6164
 4546TIP3    H235274   4.910   4.771   2.509 -0.1952  1.8962 -1.1178
 4547TIP3   OH235275   1.411   0.430   1.603  0.6902 -0.5372 -0.0547
 4547TIP3    H135276   1.316   0.421   1.600  0.6619 -0.0176 -1.7461
 4547TIP3    H235277   1.429   0.463   1.691 -0.5560 -1.8768  0.7356
 4548TIP3   OH235278   6.151   3.377   8.653 -0.3069  0.5821 -0.0188
 4548TIP3    H135279   6.170   3.307   8.715 -3.5185 -2.5239 -2.1631
 4548TIP3    H235280   6.090   3.434   8.699 -0.5449 -0.1403  0.5823
 4549TIP3   OH235281   0.893   6.088   0.679 -0.4061  0.3512 -0.1359
 4549TIP3    H135282   0.879   6.131   0.595 -0.3787  1.3801  0.3733
 4549TIP3    H235283   0.816   6.032   0.690  0.0356 -0.5175 -1.2640
 4550TIP3   OH235284   6.580   1.940   7.984  0.9306  0.4152 -0.3843
 4550TIP3    H135285   6.598   2.023   8.027 -1.1510 -0.6353  2.9106
 4550TIP3    H235286   6.485   1.938   7.974  0.5508 -2.4390  2.0576
 4551TIP3   OH235287   4.467   2.717   2.329 -0.1261 -0.0173 -0.3567
 4551TIP3    H135288   4.524   2.681   2.396  0.4942  1.0207 -0.3150
 4551TIP3    H235289   4.514   2.703   2.247  0.1274  0.7061 -0.3384
 4552TIP3   OH235290   4.568   4.410   3.222 -0.1100 -0.8180  0.7156
 4552TIP3    H135291   4.609   4.496   3.225 -0.3401 -0.6569 -0.4329
 4552TIP3    H235292   4.640   4.350   3.200 -0.3228 -0.6311 -0.5655
 4553TIP3   OH235293   0.596   0.415   7.950  0.4019 -0.2353  0.4416
 4553TIP3    H135294   0.571   0.379   7.866 -1.0876 -1.1976  1.2523
 4553TIP3    H235295   0.672   0.363   7.977  0.7177 -0.1007 -0.1720
 4554TIP3   OH235296   4.159   4.369   1.400  0.1873  0.4384  0.6149
 4554TIP3    H135297   4.168   4.284   1.358  2.4573  0.4798  0.9256
 4554TIP3    H235298   4.065   4.376   1.418 -0.0762 -1.9965  0.5882
 4555TIP3   OH235299   3.241   6.719   2.129  0.3393  0.4559  0.1290
 4555TIP3    H135300   3.270   6.728   2.220  0.3820 -1.4929  0.3617
 4555TIP3    H235301   3.276   6.796   2.084  0.0546  1.6205  1.8143
 4556TIP3   OH235302   0.579   5.933   1.810  0.0975  0.9419  0.3960
 4556TIP3    H135303   0.484   5.940   1.803  0.0660  1.6922  1.4512
 4556TIP3    H235304   0.602   5.861   1.751 -0.9020  2.0294 -1.4116
 4557TIP3   OH235305   5.651   4.736   7.778 -0.2580  0.2982 -0.6821
 4557TIP3    H135306   5.669   4.816   7.729  2.9441  0.7294  0.9189
 4557TIP3    H235307   5.697   4.747   7.861 -1.9833 -2.1161  0.7580
 4558TIP3   OH235308   4.483   2.166   2.519  0.3452  0.4405 -0.3146
 4558TIP3    H135309   4.401   2.125   2.490  0.0119 -0.0590  1.2140
 4558TIP3    H235310   4.503   2.122   2.602  2.4256  0.2451 -0.8812
 4559TIP3   OH235311   4.299   4.512   7.003 -0.3088  0.2715 -0.5862
 4559TIP3    H135312   4.266   4.447   7.066 -1.9793  0.8407 -0.8177
 4559TIP3    H235313   4.355   4.462   6.944  0.2353 -0.5192  0.5587
 4560TIP3   OH235314   4.094   1.150   1.368 -0.0485 -0.1691 -0.5718
 4560TIP3    H135315   4.016   1.204   1.353  0.8375  1.5448  0.7116
 4560TIP3    H235316   4.096   1.089   1.294 -1.0630  1.5967 -2.1120
 4561TIP3   OH235317   4.082   6.157   2.755 -0.0042  0.3056  0.1567
 4561TIP3    H135318   4.030   6.228   2.791 -1.1775 -0.2877 -0.2960
 4561TIP3    H235319   4.042   6.078   2.792  1.4028 -0.1363  0.8211
 4562TIP3   OH235320   2.467   3.088   8.066  0.5011  0.6315  0.3574
 4562TIP3    H135321   2.373   3.072   8.074  0.2596  1.5458 -0.5152
 4562TIP3    H235322   2.507   3.004   8.088 -0.5896 -0.2582 -0.9359
 4563TIP3   OH235323   2.570   6.615   0.671  0.2876  0.0055  0.5454
 4563TIP3    H135324   2.537   6.607   0.582  0.2621 -1.2320  0.6379
 4563TIP3    H235325   2.577   6.709   0.687 -0.8308  0.2503 -0.3423
 4564TIP3   OH235326   2.390   6.697   1.170 -0.1589 -0.0657 -0.0884
 4564TIP3    H135327   2.382   6.791   1.153 -2.9145 -0.7334 -3.8606
 4564TIP3    H235328   2.331   6.682   1.244 -1.5990  0.9594 -0.9533
 4565TIP3   OH235329   2.321   3.367   8.033 -0.1677  0.3036  0.1009
 4565TIP3    H135330   2.314   3.368   8.129  2.5028  0.0888  0.3740
 4565TIP3    H235331   2.398   3.313   8.015  1.3224  2.8811 -1.9686
 4566TIP3   OH235332   4.918   6.073   0.204  0.1001  0.0148  0.5524
 4566TIP3    H135333   4.998   6.077   0.151  0.2128  0.0422  0.7204
 4566TIP3    H235334   4.936   6.134   0.276 -0.7006  1.2673 -0.2564
 4567TIP3   OH235335   0.814   4.925   2.536  0.2822 -0.2567  0.0228
 4567TIP3    H135336   0.830   4.865   2.609  0.1746 -2.5257 -1.7143
 4567TIP3    H235337   0.721   4.944   2.539  0.3682  0.0702  0.7484
 4568TIP3   OH235338   5.047   5.679   1.233  0.4190  0.0820 -0.3250
 4568TIP3    H135339   5.041   5.766   1.193 -2.6673  0.7341  1.3151
 4568TIP3    H235340   5.081   5.696   1.321  0.4808 -0.4857 -0.2381
 4569TIP3   OH235341   6.521   3.945   7.803  0.1136 -0.4087 -0.6360
 4569TIP3    H135342   6.451   3.902   7.851  0.2544  0.5766  0.5051
 4569TIP3    H235343   6.570   3.993   7.870  1.3138 -0.3242 -1.5415
 4570TIP3   OH235344   4.394   5.061   0.993  0.1464 -0.0247  0.0565
 4570TIP3    H135345   4.456   5.044   1.064 -1.2348 -1.4011  1.0175
 4570TIP3    H235346   4.407   5.153   0.970  0.7223  0.4360  2.0370
 4571TIP3   OH235347   2.839   0.729   7.415 -0.2799  0.3015  0.5465
 4571TIP3    H135348   2.790   0.810   7.405  0.2751  0.8982  2.3421
 4571TIP3    H235349   2.814   0.696   7.501  0.4007 -0.8073  0.3407
 4572TIP3   OH235350   2.993   1.568   7.498 -0.1208  0.4736  0.4350
 4572TIP3    H135351   2.942   1.528   7.569  0.7017  0.0658  0.8082
 4572TIP3    H235352   2.951   1.536   7.418  0.4806 -1.1479  0.7160
 4573TIP3   OH235353   2.025   3.931   2.544  0.0662 -0.0885  0.1313
 4573TIP3    H135354   2.082   3.926   2.467  1.6481 -2.3983  1.3559
 4573TIP3    H235355   1.937   3.921   2.509  0.8377 -2.7042 -1.3175
 4574TIP3   OH235356   5.785   2.228   8.273  0.4305 -0.1030  0.3098
 4574TIP3    H135357   5.823   2.141   8.258 -0.2036 -0.4082  0.4321
 4574TIP3    H235358   5.856   2.277   8.316  0.5396 -0.8166  0.9920
 4575TIP3   OH235359   2.109   3.741   1.997  0.5106  0.0877  0.0955
 4575TIP3    H135360   2.133   3.716   2.086  1.4322  0.3809 -0.0659
 4575TIP3    H235361   2.029   3.691   1.979  0.1968  0.1759  1.1497
 4576TIP3   OH235362   6.381   0.995   2.045  0.0241 -0.5964 -0.1995
 4576TIP3    H135363   6.304   1.006   1.989 -0.3643 -1.3027  0.1863
 4576TIP3    H235364   6.349   1.016   2.133 -0.6412 -4.0691  0.5243
 4577TIP3   OH235365   1.151   3.485   2.788 -0.0336  0.4967 -0.2749
 4577TIP3    H135366   1.171   3.438   2.708 -0.3030  0.6541 -0.4375
 4577TIP3    H235367   1.171   3.424   2.858 -1.4618 -0.2875 -0.5113
 4578TIP3   OH235368   3.872   4.173   0.987 -0.0904 -0.7853  0.0111
 4578TIP3    H135369   3.813   4.119   1.039 -0.7206  0.3899  0.5543
 4578TIP3    H235370   3.829   4.258   0.982  0.5433 -0.5180 -1.4224
 4579TIP3   OH235371   3.062   0.169   0.392 -0.2195 -0.2918 -0.4042
 4579TIP3    H135372   3.153   0.159   0.420 -0.2305 -0.9259 -0.5686
 4579TIP3    H235373   3.036   0.255   0.424  0.3184 -0.2658 -0.0210
 4580TIP3   OH235374   5.811   0.610   2.674  0.4289  0.3304 -0.2960
 4580TIP3    H135375   5.883   0.547   2.677  1.1456  1.0072 -1.9253
 4580TIP3    H235376   5.816   0.648   2.586 -3.7523 -1.6705 -1.6574
 4581TIP3   OH235377   6.554   0.173   8.556  0.1499 -0.3781 -0.5060
 4581TIP3    H135378   6.503   0.093   8.543  0.3850 -0.4302 -1.1787
 4581TIP3    H235379   6.615   0.152   8.626  0.5200 -0.9413 -0.9913
 4582TIP3   OH235380   6.555   1.392   0.897 -0.2972 -0.1047  0.2517
 4582TIP3    H135381   6.462   1.370   0.900 -0.1553 -0.6441  0.7538
 4582TIP3    H235382   6.580   1.403   0.988  0.4370 -1.2867  0.2146
 4583TIP3   OH235383   3.686   6.622   1.348 -0.1643 -0.5208  1.0367
 4583TIP3    H135384   3.698   6.540   1.301 -0.6854  0.0531 -0.1475
 4583TIP3    H235385   3.750   6.682   1.310 -0.9893  0.1212  0.6390
 4584TIP3   OH235386   5.159   4.614   7.496  0.1502  0.2290  0.4903
 4584TIP3    H135387   5.199   4.545   7.443 -0.0078  0.1402  0.4870
 4584TIP3    H235388   5.233   4.658   7.537  0.2560  0.1070  0.4316
 4585TIP3   OH235389   2.790   2.871   2.711  0.0968 -0.2754  0.4248
 4585TIP3    H135390   2.799   2.783   2.747  1.8450 -0.0043  0.7276
 4585TIP3    H235391   2.880   2.905   2.707 -0.3863  0.9202 -1.1394
 4586TIP3   OH235392   2.170   4.928   7.980 -0.8450  0.4238  0.3139
 4586TIP3    H135393   2.174   4.877   7.899  0.4314  2.4663 -1.0140
 4586TIP3    H235394   2.144   4.865   8.047  1.4882 -2.1733 -1.0165
 4587TIP3   OH235395   3.390   6.331   0.310  0.0184  0.0882 -0.0949
 4587TIP3    H135396   3.312   6.277   0.297  0.3365 -0.4241  0.0955
 4587TIP3    H235397   3.403   6.332   0.405  0.3228  0.0583 -0.1363
 4588TIP3   OH235398   5.417   4.470   0.245  0.5763 -0.2863  0.8295
 4588TIP3    H135399   5.502   4.451   0.207  0.7163  1.6088  0.0839
 4588TIP3    H235400   5.359   4.484   0.170  0.4685  1.8892  1.2452
 4589TIP3   OH235401   4.453   5.366   6.780  0.0216  0.1222  0.0273
 4589TIP3    H135402   4.521   5.431   6.770 -2.0787  2.7590  1.3850
 4589TIP3    H235403   4.482   5.291   6.728  3.2323  1.5734 -0.4862
 4590TIP3   OH235404   4.800   0.966   0.850 -0.2830 -0.3880 -0.1841
 4590TIP3    H135405   4.868   0.900   0.860  0.6434  0.5055 -0.4709
 4590TIP3    H235406   4.720   0.924   0.883  1.1689 -0.0107  4.4674
 4591TIP3   OH235407   6.283   0.789   8.772  0.2338  0.2124 -0.2027
 4591TIP3    H135408   6.376   0.777   8.794  0.4688  0.0451 -1.2348
 4591TIP3    H235409   6.281   0.787   8.676 -1.0210 -1.2508 -0.1845
 4592TIP3   OH235410   4.646   5.557   2.216  0.5355  0.2834  0.3512
 4592TIP3    H135411   4.668   5.575   2.307 -0.5330 -1.0757  0.9018
 4592TIP3    H235412   4.653   5.462   2.206  1.6583  0.4849 -1.2826
 4593TIP3   OH235413   3.597   1.668   2.023  0.4466  0.5599  0.2669
 4593TIP3    H135414   3.665   1.662   2.090  0.9788  0.8749 -0.2437
 4593TIP3    H235415   3.529   1.608   2.053  2.3151 -2.2982 -0.8268
 4594TIP3   OH235416   0.617   3.828   7.847  0.3260  0.3854  0.1997
 4594TIP3    H135417   0.559   3.806   7.920  1.2019 -1.3354  0.4052
 4594TIP3    H235418   0.687   3.879   7.888 -0.1989  1.1220  0.2082
 4595TIP3   OH235419   0.219   4.871   0.968 -0.1530  0.8709 -0.0355
 4595TIP3    H135420   0.178   4.950   1.003 -1.5069  0.2747 -0.2224
 4595TIP3    H235421   0.146   4.815   0.942  0.7951  0.7483 -2.6623
 4596TIP3   OH235422   1.126   1.671   7.397 -0.4128 -0.1939  0.1120
 4596TIP3    H135423   1.126   1.669   7.492  0.7476 -2.5672  0.1406
 4596TIP3    H235424   1.035   1.685   7.372 -0.5892  1.4566  1.5269
 4597TIP3   OH235425   5.438   6.544   8.616 -0.1879  0.5377  0.1549
 4597TIP3    H135426   5.528   6.566   8.591  0.1425 -1.0059 -0.1116
 4597TIP3    H235427   5.391   6.539   8.533 -0.4238  0.8904  0.2648
 4598TIP3   OH235428   2.711   6.671   0.202  0.8893 -0.5059 -0.1784
 4598TIP3    H135429   2.657   6.593   0.216 -1.3162  0.6608 -1.5806
 4598TIP3    H235430   2.754   6.685   0.286 -2.8510 -0.2166  1.9094
 4599TIP3   OH235431   5.535   2.460   8.404  0.1877  0.6303 -0.1129
 4599TIP3    H135432   5.449   2.436   8.369 -0.8411  0.1323  2.5087
 4599TIP3    H235433   5.516   2.524   8.472  2.0426  1.4187 -0.2733
 4600TIP3   OH235434   5.313   0.315   1.064  0.3782  0.0322 -0.4829
 4600TIP3    H135435   5.230   0.358   1.043  0.1242  0.2919  0.9848
 4600TIP3    H235436   5.380   0.373   1.027 -0.0619  0.1200 -1.1639
 4601TIP3   OH235437   5.258   4.302   1.781 -0.1272  0.3592  0.1804
 4601TIP3    H135438   5.237   4.303   1.688 -0.3639 -0.3703  0.2247
 4601TIP3    H235439   5.298   4.217   1.796  0.9345  0.8998  0.5282
 4602TIP3   OH235440   2.792   4.680   7.297  0.3145 -0.1975  0.5678
 4602TIP3    H135441   2.733   4.705   7.226 -0.1041 -1.3853  0.4755
 4602TIP3    H235442   2.737   4.632   7.359  0.9058 -0.1660  1.1285
 4603TIP3   OH235443   4.290   2.661   8.758 -0.4455  0.2402  0.1532
 4603TIP3    H135444   4.315   2.745   8.721 -1.2251  0.3633 -0.1091
 4603TIP3    H235445   4.325   2.596   8.697  0.3864  0.3613  0.4974
 4604TIP3   OH235446   2.712   6.340   1.179 -0.4979 -0.0570 -0.0362
 4604TIP3    H135447   2.686   6.274   1.115 -1.9231 -0.2386  0.6948
 4604TIP3    H235448   2.776   6.394   1.133 -0.2855 -1.1485 -1.0757
 4605TIP3   OH235449   1.358   1.508   7.354 -0.2680  0.5436 -0.2965
 4605TIP3    H135450   1.279   1.562   7.344 -0.4371  0.4395  0.4491
 4605TIP3    H235451   1.342   1.431   7.298 -1.1567  0.0111  0.6650
 4606TIP3   OH235452   6.029   4.041   0.953 -0.3569 -0.0790 -0.0137
 4606TIP3    H135453   6.040   4.133   0.928 -0.1018  1.0022  3.4490
 4606TIP3    H235454   6.116   4.003   0.946 -0.6291 -0.4046 -2.3577
 4607TIP3   OH235455   4.147   2.383   7.011 -0.3751 -0.1733  0.2815
 4607TIP3    H135456   4.213   2.348   7.071 -0.0990 -1.4035 -0.6910
 4607TIP3    H235457   4.188   2.375   6.924 -1.2366  0.4273 -0.1916
 4608TIP3   OH235458   0.886   1.167   0.827 -0.6570 -0.2386  0.0655
 4608TIP3    H135459   0.821   1.237   0.834  0.2869  0.8486 -1.5109
 4608TIP3    H235460   0.964   1.203   0.870 -0.7340 -1.1274  1.0043
 4609TIP3   OH235461   3.614   5.603   6.739 -0.0701  0.0070 -0.1924
 4609TIP3    H135462   3.690   5.647   6.776  1.0559 -3.0451  1.4018
 4609TIP3    H235463   3.648   5.524   6.698 -2.2052 -0.6198 -0.9162
 4610TIP3   OH235464   6.657   1.220   7.809 -0.0398 -0.1993 -0.0430
 4610TIP3    H135465   6.587   1.283   7.792 -0.3048 -0.5431 -0.2386
 4610TIP3    H235466   6.732   1.253   7.758 -0.0901  0.1093  0.0807
 4611TIP3   OH235467   3.563   3.993   1.257  0.0172 -0.0991 -0.9094
 4611TIP3    H135468   3.500   4.059   1.227 -0.7158 -0.1274  0.4841
 4611TIP3    H235469   3.644   4.014   1.210 -0.3857  1.3881 -0.9807
 4612TIP3   OH235470   5.842   3.605   1.077  0.6566 -0.2743  0.5583
 4612TIP3    H135471   5.781   3.597   1.150  1.3211  2.9297  1.6369
 4612TIP3    H235472   5.826   3.693   1.042  2.0355 -0.7973 -1.6092
 4613TIP3   OH235473   2.136   3.408   7.825  0.0808  0.3662 -0.0580
 4613TIP3    H135474   2.207   3.382   7.884  1.0855 -1.8363 -2.0805
 4613TIP3    H235475   2.161   3.496   7.796  0.1599  1.0135  1.8452
 4614TIP3   OH235476   5.887   4.380   1.612 -0.5090  0.0185 -0.1850
 4614TIP3    H135477   5.810   4.332   1.581  0.4108 -0.4053 -1.9617
 4614TIP3    H235478   5.881   4.376   1.707 -1.0516 -2.6970 -0.2509
 4615TIP3   OH235479   0.273   2.835   2.549  0.3139  0.0188  0.2538
 4615TIP3    H135480   0.368   2.831   2.542  0.4666 -0.3007  2.0780
 4615TIP3    H235481   0.248   2.912   2.498  1.8683  1.8941  2.1721
 4616TIP3   OH235482   4.076   4.495   8.393 -0.7182  0.0032 -0.5859
 4616TIP3    H135483   4.010   4.433   8.361  0.0725 -2.3223  1.9105
 4616TIP3    H235484   4.049   4.579   8.357 -3.2460 -1.3616 -2.1980
 4617TIP3   OH235485   6.774   0.715   0.596  0.2453 -0.5850 -0.3544
 4617TIP3    H135486   6.686   0.747   0.574  0.4408 -0.1667 -0.5490
 4617TIP3    H235487   6.759   0.640   0.653 -0.2098  0.8724  1.5519
 4618TIP3   OH235488   5.102   1.658   0.796  0.3680 -0.3286  0.4478
 4618TIP3    H135489   5.086   1.642   0.889 -2.3518  2.6088  0.6359
 4618TIP3    H235490   5.015   1.663   0.757  1.4095 -2.6124 -2.6052
 4619TIP3   OH235491   1.577   1.390   2.947 -0.2991  0.0304 -0.3740
 4619TIP3    H135492   1.651   1.380   2.887  0.2376  0.0237  0.2798
 4619TIP3    H235493   1.501   1.401   2.890  0.5605  3.0201 -1.1164
 4620TIP3   OH235494   5.664   5.714   8.717 -0.2324 -0.3103  0.2952
 4620TIP3    H135495   5.733   5.715   8.784  0.2843 -3.3282 -0.0410
 4620TIP3    H235496   5.626   5.802   8.721  2.1702  0.7844  2.0011
 4621TIP3   OH235497   6.301   0.321   2.493 -0.4337  0.1310 -0.0245
 4621TIP3    H135498   6.340   0.384   2.433 -2.1435  0.9262 -0.3477
 4621TIP3    H235499   6.280   0.371   2.572  0.2130 -0.5311  0.5901
 4622TIP3   OH235500   0.177   6.675   2.051 -0.1337  0.0055  0.0165
 4622TIP3    H135501   0.160   6.767   2.072  0.7288 -0.0301  1.0049
 4622TIP3    H235502   0.179   6.672   1.956 -1.2188  0.8039 -0.0530
 4623TIP3   OH235503   1.590   5.151   0.862 -0.3530  0.3141  0.4182
 4623TIP3    H135504   1.541   5.164   0.780 -1.3810 -1.1966  0.7461
 4623TIP3    H235505   1.529   5.104   0.919  0.8629  0.0112  1.5172
 4624TIP3   OH235506   2.049   4.984   0.581  0.2222  0.1431 -0.4703
 4624TIP3    H135507   2.068   4.899   0.542 -2.2475 -0.5182 -0.3916
 4624TIP3    H235508   2.035   4.966   0.674  1.4512  0.9575 -0.1006
 4625TIP3   OH235509   3.969   5.910   2.760 -0.2935  0.3090  0.0470
 4625TIP3    H135510   3.958   5.863   2.843  0.0906  1.4546  0.7695
 4625TIP3    H235511   3.894   5.882   2.707 -1.8507  1.2960  1.6264
 4626TIP3   OH235512   1.081   0.361   1.320  0.9230 -0.1282 -0.1530
 4626TIP3    H135513   1.052   0.339   1.232  2.0093  0.4384 -0.6663
 4626TIP3    H235514   1.047   0.450   1.334  0.0668 -0.5134  0.3291
 4627TIP3   OH235515   6.355   4.707   3.083 -0.4987  0.3265  0.2726
 4627TIP3    H135516   6.352   4.735   3.175 -4.3894 -1.1196  0.7701
 4627TIP3    H235517   6.307   4.776   3.037 -2.1317 -0.9109  0.0546
 4628TIP3   OH235518   1.933   5.320   8.802 -0.0039  0.7493  0.0719
 4628TIP3    H135519   2.024   5.349   8.811  0.2083  0.3445 -0.7934
 4628TIP3    H235520   1.882   5.402   8.801  0.4198  1.0078 -0.3161
 4629TIP3   OH235521   6.215   4.796   1.338 -0.2030 -0.4913  0.3732
 4629TIP3    H135522   6.206   4.749   1.255  0.7567 -1.2323  0.6566
 4629TIP3    H235523   6.196   4.887   1.317 -0.7597 -0.7975 -0.4897
 4630TIP3   OH235524   1.501   0.120   1.669  0.0654 -0.6340  0.0447
 4630TIP3    H135525   1.415   0.160   1.659  0.0229 -0.3988  1.2065
 4630TIP3    H235526   1.517   0.075   1.586 -1.7496 -1.7826  0.2682
 4631TIP3   OH235527   2.922   2.803   6.972 -0.8356 -0.2453 -0.0370
 4631TIP3    H135528   2.843   2.855   6.986 -0.0418  0.6150  1.4796
 4631TIP3    H235529   2.984   2.864   6.932  0.7851  0.7099  3.5753
 4632TIP3   OH235530   4.325   3.486   8.219 -0.1761  0.4688  0.2322
 4632TIP3    H135531   4.297   3.395   8.216  0.9745  0.1250 -0.6923
 4632TIP3    H235532   4.245   3.535   8.236 -1.2089 -0.5354 -1.4723
 4633TIP3   OH235533   3.852   6.681   0.510  0.0997  0.3232  0.2474
 4633TIP3    H135534   3.781   6.732   0.549  0.7091  2.0934 -0.8601
 4633TIP3    H235535   3.890   6.738   0.443  2.9980 -0.2685  1.2194
 4634TIP3   OH235536   1.863   0.780   7.685  0.5831 -0.1160  0.6683
 4634TIP3    H135537   1.891   0.711   7.626  1.6105 -0.0746  1.0749
 4634TIP3    H235538   1.794   0.741   7.738 -0.1014 -0.2543 -0.3162
 4635TIP3   OH235539   4.794   4.030   7.681 -0.6006  0.2620  0.7370
 4635TIP3    H135540   4.880   4.062   7.708  0.1565 -1.3159  0.3281
 4635TIP3    H235541   4.741   4.033   7.760  0.2167  0.0434  1.3045
 4636TIP3   OH235542   3.806   4.661   1.476  0.1304  0.1189  0.4597
 4636TIP3    H135543   3.863   4.694   1.546  0.2239  0.6687  0.1305
 4636TIP3    H235544   3.760   4.739   1.444 -0.4793 -0.2496  0.4205
 4637TIP3   OH235545   6.130   5.662   2.017 -0.1448  0.4893 -0.7668
 4637TIP3    H135546   6.223   5.643   2.026 -0.1229 -0.1593 -2.1432
 4637TIP3    H235547   6.113   5.656   1.923 -1.6679  0.0910 -0.4968
 4638TIP3   OH235548   3.762   4.133   7.758 -0.5983  0.2339  0.2901
 4638TIP3    H135549   3.700   4.061   7.747 -0.9453  0.3738  1.2621
 4638TIP3    H235550   3.715   4.210   7.726  0.3217 -0.1725 -2.2209
 4639TIP3   OH235551   6.520   4.340   7.466  0.2546  0.7227 -0.2081
 4639TIP3    H135552   6.592   4.403   7.461  1.9930 -0.8828  2.2944
 4639TIP3    H235553   6.548   4.266   7.413 -0.3270  0.7356 -0.5459
 4640TIP3   OH235554   3.906   1.439   1.816 -0.2318 -0.0557 -0.0619
 4640TIP3    H135555   3.933   1.351   1.788 -0.3098  0.0925 -0.6194
 4640TIP3    H235556   3.816   1.427   1.846 -0.1227 -0.2337  0.1941
 4641TIP3   OH235557   4.852   2.758   6.924  0.6031  0.4823 -0.1698
 4641TIP3    H135558   4.935   2.806   6.920  2.0629 -1.9500 -0.9005
 4641TIP3    H235559   4.847   2.724   7.013 -0.9232  2.6275  0.6671
 4642TIP3   OH235560   3.863   4.957   7.963  0.0849 -0.4354 -0.1593
 4642TIP3    H135561   3.797   5.024   7.946  1.2478  0.4972 -1.1303
 4642TIP3    H235562   3.824   4.876   7.929  0.8685  0.7127 -4.3614
 4643TIP3   OH235563   4.955   4.913   1.913 -0.2416 -0.2042 -0.2167
 4643TIP3    H135564   4.877   4.888   1.964  0.1439 -0.7223  0.1391
 4643TIP3    H235565   5.005   4.832   1.906  1.1969  0.5143  1.2072
 4644TIP3   OH235566   0.904   5.072   6.741  0.3194  0.2354 -0.0900
 4644TIP3    H135567   0.972   5.118   6.692  0.0420 -0.5434 -1.2515
 4644TIP3    H235568   0.891   5.125   6.820  1.2266  1.1807 -0.5514
 4645TIP3   OH235569   4.660   6.465   2.771 -0.0912 -0.6059 -0.6832
 4645TIP3    H135570   4.611   6.389   2.737 -0.5571 -1.1475  1.1130
 4645TIP3    H235571   4.597   6.512   2.826  0.5306  0.4642 -0.8542
 4646TIP3   OH235572   4.471   1.554   6.823 -0.6614 -0.1573 -0.2777
 4646TIP3    H135573   4.548   1.593   6.864  0.0425 -1.1265 -0.6453
 4646TIP3    H235574   4.484   1.459   6.833 -2.4388 -0.3239  0.8088
 4647TIP3   OH235575   5.438   6.317   0.110 -0.8416  0.2018  0.0429
 4647TIP3    H135576   5.519   6.343   0.064 -0.0571 -0.2335  1.1446
 4647TIP3    H235577   5.374   6.306   0.040  0.7679 -2.1903 -1.1903
 4648TIP3   OH235578   4.886   4.824   1.402  0.0536  0.4601 -0.1623
 4648TIP3    H135579   4.949   4.812   1.331 -0.6237  0.8057 -0.8183
 4648TIP3    H235580   4.871   4.918   1.407 -0.8684  0.3349 -0.4063
 4649TIP3   OH235581   4.948   4.252   1.699 -0.4850  0.0023 -0.5744
 4649TIP3    H135582   4.979   4.303   1.625 -0.8715  0.8545 -0.1672
 4649TIP3    H235583   4.977   4.163   1.681 -0.1830  0.2810 -1.5197
 4650TIP3   OH235584   4.781   6.094   8.247 -0.0529  0.3745  0.6065
 4650TIP3    H135585   4.729   6.157   8.197 -0.2503 -1.1959 -1.2597
 4650TIP3    H235586   4.736   6.011   8.235  0.9018 -0.3753  1.9644
 4651TIP3   OH235587   5.158   5.986   0.515  0.0693 -0.0548 -0.6316
 4651TIP3    H135588   5.170   5.948   0.428 -0.0982  1.1701 -1.2067
 4651TIP3    H235589   5.246   5.986   0.553  0.2136 -0.2407 -0.9602
 4652TIP3   OH235590   1.741   2.401   8.562 -0.0954 -0.4777 -0.0243
 4652TIP3    H135591   1.668   2.449   8.524  0.3097 -0.4959 -0.8472
 4652TIP3    H235592   1.761   2.332   8.498  1.5076  0.3578 -0.4744
 4653TIP3   OH235593   1.402   0.957   8.426 -0.3139 -0.2554 -0.3011
 4653TIP3    H135594   1.408   0.869   8.464  2.4495 -0.3649 -0.7766
 4653TIP3    H235595   1.470   1.007   8.471  0.8168  0.5023 -2.6877
 4654TIP3   OH235596   6.552   1.738   0.787 -0.7058 -0.4632 -0.2857
 4654TIP3    H135597   6.588   1.729   0.875 -2.5196  1.3392  0.7055
 4654TIP3    H235598   6.624   1.713   0.729  0.9817 -0.3264  1.6617
 4655TIP3   OH235599   5.148   6.084   0.024  0.6022 -0.2063 -0.1100
 4655TIP3    H135600   5.130   6.021  -0.045  1.3577  0.2973 -0.7886
 4655TIP3    H235601   5.201   6.151  -0.019 -1.6714  1.8787  0.0858
 4656TIP3   OH235602   0.504   5.264   2.686  0.0001 -0.0707  0.6341
 4656TIP3    H135603   0.532   5.322   2.757 -2.5813  1.2689  0.7005
 4656TIP3    H235604   0.453   5.196   2.730 -0.1808 -0.2003  0.2326
 4657TIP3   OH235605   4.486   2.935   2.533  0.2109  0.4396 -0.0527
 4657TIP3    H135606   4.516   2.846   2.514 -1.7887 -0.1621 -0.6531
 4657TIP3    H235607   4.477   2.936   2.628 -0.1344 -0.1398 -0.0727
 4658TIP3   OH235608   2.941   4.279   6.572 -0.7794  0.7616  0.1885
 4658TIP3    H135609   2.962   4.186   6.568 -1.5537  0.6272 -2.2245
 4658TIP3    H235610   2.845   4.283   6.569 -0.7524  1.6403  0.1488
 4659TIP3   OH235611   4.294   0.380   0.962  0.2353 -0.5907  0.7668
 4659TIP3    H135612   4.291   0.470   0.929 -0.1730 -0.6140  0.7346
 4659TIP3    H235613   4.223   0.376   1.026 -0.9157 -1.3730 -0.4945
 4660TIP3   OH235614   2.492   0.865   2.473  0.5368 -0.2427 -0.3072
 4660TIP3    H135615   2.548   0.878   2.396  1.6314 -0.1759  0.4709
 4660TIP3    H235616   2.492   0.950   2.518 -2.2307  0.5258 -1.5469
 4661TIP3   OH235617   6.749   5.723   7.026 -0.0228  0.2716  0.2022
 4661TIP3    H135618   6.743   5.631   7.052  3.6241 -0.1422  0.0579
 4661TIP3    H235619   6.723   5.723   6.934 -0.1981 -0.5926  0.2391
 4662TIP3   OH235620   0.928   2.646   8.677 -0.3237  0.3066  0.1877
 4662TIP3    H135621   0.851   2.670   8.727  0.3486  3.4394 -0.1091
 4662TIP3    H235622   0.953   2.560   8.712 -3.2851 -0.3510  0.9762
 4663TIP3   OH235623   2.377   2.065   2.707  0.6360 -0.2608  0.1179
 4663TIP3    H135624   2.432   2.091   2.633  0.5793  1.1916  0.5411
 4663TIP3    H235625   2.302   2.125   2.701  0.4917 -0.3318  1.1732
 4664TIP3   OH235626   0.732   0.931   1.330  0.3255  0.3456 -0.2076
 4664TIP3    H135627   0.693   0.910   1.245 -1.4066 -1.3457  0.9063
 4664TIP3    H235628   0.794   0.859   1.346 -0.0762  0.1237  0.3725
 4665TIP3   OH235629   1.826   1.715   8.787  0.4521 -0.5674 -0.5729
 4665TIP3    H135630   1.765   1.642   8.800 -0.9033  0.7585  0.9100
 4665TIP3    H235631   1.793   1.759   8.709 -0.1519 -0.2166 -0.1326
 4666TIP3   OH235632   2.109   4.464   7.348  0.0078  0.7264  0.6826
 4666TIP3    H135633   2.084   4.398   7.283 -1.8604  0.2071  1.8373
 4666TIP3    H235634   2.095   4.548   7.303 -0.4947  0.3679  0.1412
 4667TIP3   OH235635   0.353   3.399   2.334  0.0698  0.1689 -0.5061
 4667TIP3    H135636   0.364   3.389   2.429  0.0857  0.8132 -0.4382
 4667TIP3    H235637   0.264   3.431   2.324 -0.0448 -0.2127 -0.7369
 4668TIP3   OH235638   5.647   2.522   0.408  0.2462  0.7859  0.6109
 4668TIP3    H135639   5.743   2.521   0.410  0.2418 -0.5351  1.0799
 4668TIP3    H235640   5.625   2.602   0.361  1.6323 -0.3544 -2.1895
 4669TIP3   OH235641   2.857   2.107   1.092  0.0689  0.9321  0.3731
 4669TIP3    H135642   2.852   2.013   1.077  0.2734  1.0878 -0.7702
 4669TIP3    H235643   2.944   2.132   1.060  0.1542  1.4584  0.9886
 4670TIP3   OH235644   1.573   6.496   1.248  0.3599  0.1160  0.3156
 4670TIP3    H135645   1.480   6.511   1.230  0.6190  1.2162 -0.2420
 4670TIP3    H235646   1.575   6.427   1.313 -0.8867  0.5953  0.8838
 4671TIP3   OH235647   3.876   3.315   7.386 -0.2897  0.0407 -0.0502
 4671TIP3    H135648   3.873   3.219   7.394 -0.6000  0.1151  0.8356
 4671TIP3    H235649   3.799   3.337   7.334 -2.0140  0.0193  2.3245
 4672TIP3   OH235650   4.835   6.763   0.289 -0.3592 -0.7037 -0.0022
 4672TIP3    H135651   4.897   6.795   0.222 -1.4578 -0.2933 -0.8482
 4672TIP3    H235652   4.891   6.738   0.362  0.7866  0.1339 -0.5501
 4673TIP3   OH235653   5.581   5.691   8.449  0.5303 -0.0189  0.3853
 4673TIP3    H135654   5.585   5.709   8.543 -2.5257  3.0234  0.1289
 4673TIP3    H235655   5.493   5.657   8.435  0.9658 -0.5248 -1.4116
 4674TIP3   OH235656   2.763   0.141   7.844 -0.0472  0.3327 -0.2197
 4674TIP3    H135657   2.684   0.151   7.897 -0.1294 -0.5956 -0.1546
 4674TIP3    H235658   2.734   0.096   7.765  0.3587  0.2794 -0.3385
 4675TIP3   OH235659   5.702   6.236   8.792 -0.1392 -0.6414 -0.3539
 4675TIP3    H135660   5.650   6.224   8.712 -0.5393 -0.7893 -0.0698
 4675TIP3    H235661   5.775   6.174   8.782  0.6293  0.3689 -1.2820
 4676TIP3   OH235662   5.800   2.871   0.674  0.0473  0.8370  0.4014
 4676TIP3    H135663   5.740   2.945   0.682 -0.4091  0.3992  1.2603
 4676TIP3    H235664   5.743   2.794   0.678  0.5523  0.4301 -0.0967
 4677TIP3   OH235665   6.342   2.341   1.866 -0.1762 -0.8256 -0.8758
 4677TIP3    H135666   6.323   2.428   1.900  0.7347 -1.5492  1.7564
 4677TIP3    H235667   6.422   2.351   1.815  1.2494 -0.4361  1.3285
 4678TIP3   OH235668   4.185   1.831   8.115 -0.2012  0.3127  0.0767
 4678TIP3    H135669   4.111   1.791   8.070  0.5325  0.2479 -1.0994
 4678TIP3    H235670   4.173   1.925   8.101  0.6347  0.2386 -1.2628
 4679TIP3   OH235671   2.852   3.145   1.435  0.1632  0.1717  0.0662
 4679TIP3    H135672   2.802   3.143   1.517  0.0725 -0.2189  0.0030
 4679TIP3    H235673   2.921   3.079   1.448  2.6963  2.8536  1.4371
 4680TIP3   OH235674   2.151   4.574   0.299 -0.0105 -0.0310  0.3762
 4680TIP3    H135675   2.096   4.515   0.247 -1.1204  1.1918  0.0991
 4680TIP3    H235676   2.238   4.568   0.260 -0.7516  0.6328 -1.4539
 4681TIP3   OH235677   3.324   6.203   1.680  0.9216  0.4487  0.2225
 4681TIP3    H135678   3.252   6.165   1.731  0.3531  1.0946 -0.0892
 4681TIP3    H235679   3.390   6.224   1.746  0.4481  0.6925  0.6358
 4682TIP3   OH235680   6.321   6.153   0.710 -0.2728  0.3352  0.2732
 4682TIP3    H135681   6.295   6.186   0.623 -0.3627 -0.2510  0.0768
 4682TIP3    H235682   6.416   6.158   0.710 -0.1608 -1.2180 -0.4962
 4683TIP3   OH235683   2.402   1.545   8.529 -0.5295 -0.6174  0.3187
 4683TIP3    H135684   2.367   1.606   8.595  0.5200 -0.9235  1.1880
 4683TIP3    H235685   2.358   1.462   8.547  0.4181 -0.9368  1.2464
 4684TIP3   OH235686   4.042   5.018   1.391  0.0923  0.3179  0.4303
 4684TIP3    H135687   3.956   4.996   1.426 -0.1650  0.7915  0.1038
 4684TIP3    H235688   4.039   5.113   1.377 -0.5001 -0.0457 -2.6024
 4685TIP3   OH235689   2.214   1.375   0.049 -0.1001 -0.7616  0.6013
 4685TIP3    H135690   2.248   1.444   0.106 -0.8123  0.2567 -0.1677
 4685TIP3    H235691   2.289   1.318   0.033  0.2443 -0.7707  2.1042
 4686TIP3   OH235692   0.338   5.846   1.138  0.4053 -0.3068 -0.3760
 4686TIP3    H135693   0.335   5.781   1.208  1.4180 -2.1773 -1.9871
 4686TIP3    H235694   0.368   5.926   1.182 -4.1533  0.2759  2.3890
 4687TIP3   OH235695   5.616   0.101   0.712  0.5000  0.7536  0.4413
 4687TIP3    H135696   5.575   0.093   0.798 -0.3599  0.1556 -0.0054
 4687TIP3    H235697   5.552   0.147   0.658  0.1963 -0.5726 -0.3874
 4688TIP3   OH235698   0.573   2.465   2.479  0.2460  0.1751  0.1009
 4688TIP3    H135699   0.536   2.423   2.402  1.9328  0.2466 -0.8009
 4688TIP3    H235700   0.656   2.419   2.494  0.7159  1.2213  0.8999
 4689TIP3   OH235701   2.852   2.332   2.282 -1.1223  0.0866 -0.1226
 4689TIP3    H135702   2.824   2.300   2.367 -1.5666  0.8262  0.0192
 4689TIP3    H235703   2.771   2.343   2.233 -0.9012  0.0993 -0.4875
 4690TIP3   OH235704   0.246   6.432   2.149  0.0027  0.3970  0.0790
 4690TIP3    H135705   0.193   6.509   2.127 -1.7931 -1.1903 -1.5027
 4690TIP3    H235706   0.326   6.469   2.188 -0.7134  3.0491 -0.7115
 4691TIP3   OH235707   1.126   2.820   0.426  0.4836  0.5179 -0.2221
 4691TIP3    H135708   1.139   2.908   0.464 -0.1071  0.4190  0.2311
 4691TIP3    H235709   1.151   2.830   0.334  2.4419  0.6398  0.2905
 4692TIP3   OH235710   3.644   5.736   8.115 -0.2448  0.0305 -0.1548
 4692TIP3    H135711   3.639   5.757   8.022  0.8133  1.2123  0.0195
 4692TIP3    H235712   3.587   5.801   8.157 -0.3402 -0.1856  0.0483
 4693TIP3   OH235713   1.564   2.225   0.268 -0.0635  0.4991  0.3578
 4693TIP3    H135714   1.507   2.148   0.264 -0.5167  0.8090  0.8079
 4693TIP3    H235715   1.635   2.200   0.327  0.5474 -0.0647 -0.5932
 4694TIP3   OH235716   5.067   2.525   8.260  0.3328 -0.5032 -0.1394
 4694TIP3    H135717   5.065   2.430   8.262 -1.6614 -0.5582 -1.3808
 4694TIP3    H235718   5.131   2.547   8.192  0.1299 -0.9891 -0.4903
 4695TIP3   OH235719   4.563   3.071   7.016  0.8514 -0.4305 -0.1296
 4695TIP3    H135720   4.506   3.137   6.977  2.5447  0.5278 -1.1119
 4695TIP3    H235721   4.547   3.078   7.110  0.1387  0.5587 -0.3119
 4696TIP3   OH235722   4.524   4.351   0.273  0.2609  0.4823 -0.2638
 4696TIP3    H135723   4.557   4.349   0.362  0.0287  2.9779 -0.0668
 4696TIP3    H235724   4.436   4.314   0.279 -0.3645  2.0460  0.8835
 4697TIP3   OH235725   0.762   3.657   1.417 -0.1910 -0.0972 -0.3487
 4697TIP3    H135726   0.805   3.734   1.380  0.8008  0.0399  1.0248
 4697TIP3    H235727   0.676   3.657   1.376  0.1626  1.1348 -1.1772
 4698TIP3   OH235728   4.131   4.914   7.375  0.2569 -0.1097 -0.4283
 4698TIP3    H135729   4.116   4.820   7.387 -0.4113 -0.1677 -1.6157
 4698TIP3    H235730   4.142   4.925   7.280  0.7936  0.9532 -0.2596
 4699TIP3   OH235731   4.778   6.794   0.983  0.7471 -0.2404  0.1065
 4699TIP3    H135732   4.869   6.806   0.955  0.8025  2.3961  1.1435
 4699TIP3    H235733   4.780   6.808   1.077 -0.7478 -0.1897  0.1509
 4700TIP3   OH235734   4.108   4.246   8.746 -0.8872  0.4287 -0.7691
 4700TIP3    H135735   4.123   4.322   8.689 -0.2979  0.5441 -0.4679
 4700TIP3    H235736   4.192   4.199   8.746 -0.6813  0.7669  0.4985
 4701TIP3   OH235737   1.133   0.745   7.251 -0.5364 -0.1105 -0.2430
 4701TIP3    H135738   1.119   0.833   7.215  0.1730 -0.3433 -1.1238
 4701TIP3    H235739   1.063   0.734   7.316 -0.1939  1.3930  0.4277
 4702TIP3   OH235740   0.948   3.281   1.269  0.4514  0.0776  0.3339
 4702TIP3    H135741   0.969   3.225   1.195  1.1306 -0.2074  0.7329
 4702TIP3    H235742   0.916   3.363   1.230 -1.0433 -0.7428 -0.2615
 4703TIP3   OH235743   1.490   0.055   7.758 -0.3066  0.5636 -0.5369
 4703TIP3    H135744   1.457   0.131   7.806 -3.0026  0.4425 -2.0086
 4703TIP3    H235745   1.551   0.091   7.693  0.6190  1.0888  0.5794
 4704TIP3   OH235746   5.586   0.934   1.134 -0.1645  0.5800 -0.3253
 4704TIP3    H135747   5.600   1.027   1.150  0.0826  0.8101 -1.7963
 4704TIP3    H235748   5.537   0.930   1.052  2.8867 -0.6731 -2.2385
 4705TIP3   OH235749   4.726   2.542   8.247  0.3285  0.0169  0.1917
 4705TIP3    H135750   4.701   2.451   8.261  0.0033  0.3015  1.5644
 4705TIP3    H235751   4.814   2.536   8.208  0.9062 -0.8704  1.5653
 4706TIP3   OH235752   2.751   6.397   0.312  0.2253 -0.5860 -0.1439
 4706TIP3    H135753   2.692   6.378   0.239 -0.0496  0.6349 -0.2559
 4706TIP3    H235754   2.837   6.366   0.282 -0.3562 -2.5898  0.1125
 4707TIP3   OH235755   1.925   2.092   0.552 -0.2123  0.6107  0.1259
 4707TIP3    H135756   1.954   2.114   0.640 -0.2039  3.2023 -0.4226
 4707TIP3    H235757   1.834   2.064   0.562  0.3776 -1.1121  1.1232
 4708TIP3   OH235758   1.791   2.703   1.165 -0.4748 -0.8324 -0.2432
 4708TIP3    H135759   1.728   2.774   1.168  0.3323  0.1696 -3.4178
 4708TIP3    H235760   1.876   2.747   1.171  0.0062 -1.6274 -1.0274
 4709TIP3   OH235761   2.627   1.395   0.463 -0.0918 -0.5591 -0.0405
 4709TIP3    H135762   2.559   1.403   0.530  1.2043 -0.3136  1.3012
 4709TIP3    H235763   2.640   1.484   0.430  1.0339 -0.2265  1.2328
 4710TIP3   OH235764   5.255   5.067   7.975 -0.3141  0.0725  0.4771
 4710TIP3    H135765   5.214   5.026   8.051  0.7857  0.1071  1.1051
 4710TIP3    H235766   5.190   5.057   7.905  0.0915 -3.3179  0.3905
 4711TIP3   OH235767   4.258   2.102   2.392 -0.0813  0.3778  0.3175
 4711TIP3    H135768   4.245   2.008   2.404 -0.1923  0.2643 -0.6045
 4711TIP3    H235769   4.190   2.128   2.330  1.0483  0.7040 -0.8465
 4712TIP3   OH235770   5.331   4.137   6.762 -0.1587  0.7255  0.3899
 4712TIP3    H135771   5.382   4.218   6.757  1.4422 -0.2905 -0.6463
 4712TIP3    H235772   5.317   4.124   6.855 -0.5057  2.2180  0.5762
 4713TIP3   OH235773   4.797   2.444   1.831  1.0201  0.2133 -0.2875
 4713TIP3    H135774   4.711   2.406   1.850  0.4579  1.0998 -1.0112
 4713TIP3    H235775   4.852   2.416   1.905 -0.2583  0.8677  0.9542
 4714TIP3   OH235776   3.340   1.673   2.531  0.2014  0.0255  0.6800
 4714TIP3    H135777   3.343   1.709   2.442 -0.8170 -0.2190  0.5334
 4714TIP3    H235778   3.366   1.582   2.521 -2.9636 -0.9502  0.0603
 4715TIP3   OH235779   4.763   4.413   6.779 -0.0430  0.0663 -0.0566
 4715TIP3    H135780   4.726   4.501   6.775 -0.0029  0.0791 -0.1563
 4715TIP3    H235781   4.717   4.364   6.711 -0.3707 -0.1081  0.2877
 4716TIP3   OH235782   5.855   1.771   6.766  0.4234  0.4127 -0.1966
 4716TIP3    H135783   5.948   1.751   6.773  0.1957 -0.9335 -0.6216
 4716TIP3    H235784   5.843   1.796   6.674  0.1565 -0.7575 -0.5006
 4717TIP3   OH235785   4.972   3.012   2.211  0.2133  0.9661 -0.1186
 4717TIP3    H135786   5.018   2.939   2.252  0.3597  1.6900  1.0666
 4717TIP3    H235787   5.041   3.069   2.178  0.2147  1.9099  1.4074
 4718TIP3   OH235788   1.932   0.340   7.443  0.5286  0.4299  0.0370
 4718TIP3    H135789   1.962   0.408   7.503 -0.5526  0.2444  0.8153
 4718TIP3    H235790   1.980   0.262   7.470 -0.8307  0.0545  1.4906
 4719TIP3   OH235791   2.663   5.698   7.769  0.0561  0.3932  0.2465
 4719TIP3    H135792   2.706   5.765   7.821  0.6608 -0.7832  1.3039
 4719TIP3    H235793   2.711   5.618   7.787 -0.1750 -0.2182 -1.5687
 4720TIP3   OH235794   0.533   2.170   1.931 -0.2843  0.2594 -0.1387
 4720TIP3    H135795   0.480   2.229   1.986 -0.5968 -0.1258 -0.0228
 4720TIP3    H235796   0.591   2.126   1.993 -0.2117  0.2743 -0.1961
 4721TIP3   OH235797   5.765   2.389   0.759 -0.3028  0.3785  0.2483
 4721TIP3    H135798   5.768   2.329   0.834  0.1519  1.6790  1.3021
 4721TIP3    H235799   5.842   2.445   0.769 -0.0363  0.3630 -1.4016
 4722TIP3   OH235800   6.149   1.898   7.742  0.1972  0.1049  0.0637
 4722TIP3    H135801   6.085   1.838   7.703 -1.0258  2.0668 -1.0649
 4722TIP3    H235802   6.216   1.909   7.675  1.4202 -1.3915  0.9789
 4723TIP3   OH235803   0.473   0.556   0.650  0.3341 -0.5089 -0.5323
 4723TIP3    H135804   0.471   0.645   0.686  4.6815 -1.3697  2.6777
 4723TIP3    H235805   0.517   0.566   0.565  0.2404  0.4179 -0.4879
 4724TIP3   OH235806   5.284   2.980   7.376 -0.1462 -0.5355 -0.3025
 4724TIP3    H135807   5.332   2.991   7.458 -0.5361 -0.0669 -0.1278
 4724TIP3    H235808   5.351   2.952   7.313  0.4265  0.3951 -0.1379
 4725TIP3   OH235809   0.243   4.115   8.748  0.3166  0.1337 -0.3435
 4725TIP3    H135810   0.330   4.155   8.757  0.6199 -0.8380  1.5999
 4725TIP3    H235811   0.260   4.032   8.702  0.1571  0.7024 -1.4512
 4726TIP3   OH235812   4.372   5.984   8.491  0.6741  0.4061  0.5396
 4726TIP3    H135813   4.431   6.058   8.476  1.3088 -0.0196  0.8891
 4726TIP3    H235814   4.294   6.022   8.532 -0.0526  1.2319 -1.4885
 4727TIP3   OH235815   0.982   4.856   1.079 -0.0002 -0.5221 -0.1383
 4727TIP3    H135816   0.905   4.910   1.100 -0.6482  0.2180 -3.7272
 4727TIP3    H235817   0.946   4.768   1.066  0.4233 -1.0147  1.7115
 4728TIP3   OH235818   0.983   2.369   1.368 -0.2005  0.0976  0.4619
 4728TIP3    H135819   0.978   2.359   1.463  0.6119 -0.1070  0.4915
 4728TIP3    H235820   0.892   2.375   1.339 -0.5562 -1.7832  1.0487
 4729TIP3   OH235821   6.563   6.232   8.167 -1.1437 -0.2145 -0.0889
 4729TIP3    H135822   6.595   6.312   8.127 -0.7787  0.7907  2.0399
 4729TIP3    H235823   6.638   6.172   8.164 -1.3282 -0.3968 -1.4290
 4730TIP3   OH235824   5.661   1.088   0.380 -0.4766 -0.0569 -0.1049
 4730TIP3    H135825   5.586   1.032   0.399 -0.5218 -0.2380 -0.7952
 4730TIP3    H235826   5.698   1.108   0.466 -2.8191  2.1553  0.5001
 4731TIP3   OH235827   3.559   4.727   1.246  0.3987 -0.6836  0.2681
 4731TIP3    H135828   3.607   4.800   1.284  0.4233 -0.2359 -0.6087
 4731TIP3    H235829   3.591   4.720   1.156 -1.8925  0.3103 -0.7197
 4732TIP3   OH235830   5.988   2.854   2.690  0.5371  0.0126  0.1703
 4732TIP3    H135831   5.912   2.859   2.632  1.6517 -0.1279 -1.3516
 4732TIP3    H235832   5.975   2.772   2.739 -0.0427 -0.2539 -0.4186
 4733TIP3   OH235833   4.346   2.944   2.229 -0.2175  0.6943 -0.4095
 4733TIP3    H135834   4.371   2.936   2.137  0.0411  1.1763 -0.3880
 4733TIP3    H235835   4.393   2.873   2.273  0.5292  1.1255 -0.4872
 4734TIP3   OH235836   3.459   5.082   0.278  0.4291  0.1023 -1.0025
 4734TIP3    H135837   3.531   5.053   0.333 -1.0966 -0.3417  0.8812
 4734TIP3    H235838   3.495   5.153   0.226  2.1707 -0.0144 -0.0108
 4735TIP3   OH235839   0.765   0.577   2.662 -0.6593  0.1830  0.0574
 4735TIP3    H135840   0.843   0.524   2.648  0.1732  1.3159  0.2239
 4735TIP3    H235841   0.744   0.565   2.754 -0.7046 -0.1476  0.0055
 4736TIP3   OH235842   3.476   4.156   1.536  0.2299 -0.6053 -0.2658
 4736TIP3    H135843   3.554   4.184   1.488  0.0240 -1.9762 -1.4609
 4736TIP3    H235844   3.424   4.108   1.472 -1.6412  0.2927  0.4863
 4737TIP3   OH235845   1.299   1.324   0.653 -0.5734 -0.1029 -0.3790
 4737TIP3    H135846   1.217   1.372   0.662 -1.1935 -1.3376  0.7771
 4737TIP3    H235847   1.282   1.257   0.588  0.2474  1.0656 -1.8691
 4738TIP3   OH235848   2.719   5.093   0.743  0.1694 -0.0147 -0.9380
 4738TIP3    H135849   2.729   5.027   0.812  0.9141  0.8870 -0.1510
 4738TIP3    H235850   2.725   5.176   0.789  0.4363  0.6088 -2.0704
 4739TIP3   OH235851   3.523   4.979   7.580 -0.1616 -0.1021 -0.4196
 4739TIP3    H135852   3.497   4.913   7.644  0.0203  0.5941  0.3792
 4739TIP3    H235853   3.440   5.012   7.545 -0.3084  0.4057  0.3813
 4740TIP3   OH235854   5.277   6.034   7.835 -0.0248  0.2917 -0.8120
 4740TIP3    H135855   5.222   6.033   7.757 -0.1288  0.5047 -0.7419
 4740TIP3    H235856   5.366   6.037   7.802 -0.0555  3.5955 -0.9787
 4741TIP3   OH235857   4.654   5.253   1.934 -0.0715  0.8205 -0.3299
 4741TIP3    H135858   4.643   5.227   2.025 -2.0035  2.4644 -0.0141
 4741TIP3    H235859   4.605   5.187   1.884  0.9345 -0.0439 -0.2050
 4742TIP3   OH235860   6.580   5.986   1.037  0.0532 -0.4090 -0.4380
 4742TIP3    H135861   6.619   6.067   1.068  0.3722 -0.3781 -0.9042
 4742TIP3    H235862   6.524   5.957   1.108 -0.5789  0.5635 -0.5236
 4743TIP3   OH235863   0.839   2.657   8.065  0.0404 -0.0415  0.2191
 4743TIP3    H135864   0.796   2.643   7.981  0.2368  0.6272  0.0015
 4743TIP3    H235865   0.906   2.724   8.047  0.5449 -0.3987  0.7535
 4744TIP3   OH235866   5.731   2.078   1.896 -0.4494  0.7489  0.5424
 4744TIP3    H135867   5.730   2.075   1.992 -0.8379  0.0424  0.5171
 4744TIP3    H235868   5.812   2.034   1.871 -0.8279  0.0561  0.5193
 4745TIP3   OH235869   0.132   0.815   8.736 -0.0021 -0.3491  0.5156
 4745TIP3    H135870   0.185   0.764   8.796  1.2365 -0.1244 -0.3413
 4745TIP3    H235871   0.189   0.830   8.660 -0.0584  2.7796  0.9453
 4746TIP3   OH235872   5.806   3.219   1.431  0.2391  0.2016  0.2223
 4746TIP3    H135873   5.711   3.228   1.419 -0.2343 -1.0268  2.3704
 4746TIP3    H235874   5.833   3.158   1.364 -0.6881 -0.2011  0.1975
 4747TIP3   OH235875   4.914   3.950   0.232 -0.0706 -0.0833  0.3559
 4747TIP3    H135876   4.875   3.877   0.280 -0.5525  0.4323  0.7632
 4747TIP3    H235877   4.878   3.942   0.143 -0.3209 -0.1987  0.4652
 4748TIP3   OH235878   6.671   0.622   1.040  0.6703  0.0219  0.5605
 4748TIP3    H135879   6.755   0.632   0.995  0.0117  1.6358 -0.4433
 4748TIP3    H235880   6.667   0.530   1.066  1.2811 -0.9552 -2.4061
 4749TIP3   OH235881   3.958   6.669   2.817 -0.5790 -0.1498  0.5058
 4749TIP3    H135882   3.962   6.764   2.824  0.5964 -0.2846  2.3010
 4749TIP3    H235883   3.900   6.642   2.888 -1.4360 -0.7713 -0.3976
 4750TIP3   OH235884   0.542   2.879   2.011  0.5146 -0.2661 -0.0878
 4750TIP3    H135885   0.558   2.808   2.073  2.8318 -0.8335 -1.2210
 4750TIP3    H235886   0.544   2.837   1.925 -0.2073  0.8775 -0.6969
 4751TIP3   OH235887   5.029   0.289   8.760 -0.1412  0.7994  0.0983
 4751TIP3    H135888   5.086   0.270   8.834  0.4627 -1.1360 -0.7887
 4751TIP3    H235889   4.960   0.223   8.765 -2.0793  2.7422  0.8213
 4752TIP3   OH235890   1.778   2.001   0.182 -0.3959  0.4574 -0.4402
 4752TIP3    H135891   1.705   1.950   0.147 -1.0260  1.0156  0.0255
 4752TIP3    H235892   1.796   1.961   0.268 -0.5242  0.6715 -0.3135
 4753TIP3   OH235893   0.268   1.752   2.486 -0.4571 -0.3004  0.1200
 4753TIP3    H135894   0.300   1.842   2.495 -0.8841 -0.0968 -0.3590
 4753TIP3    H235895   0.234   1.748   2.397  0.2569 -1.1612 -0.1280
 4754TIP3   OH235896   5.336   2.927   1.648  0.1514 -0.3393 -0.3052
 4754TIP3    H135897   5.401   2.859   1.665  0.5643 -0.2340 -1.4075
 4754TIP3    H235898   5.259   2.880   1.616 -1.2912 -0.7378  3.1974
 4755TIP3   OH235899   6.689   5.348   2.540  0.1791  0.1016 -0.1968
 4755TIP3    H135900   6.648   5.264   2.561 -0.9595  0.4159 -1.0463
 4755TIP3    H235901   6.616   5.403   2.511  1.1078  0.9464 -0.9817
 4756TIP3   OH235902   5.188   5.995   1.863 -0.1077  0.1537 -0.2525
 4756TIP3    H135903   5.112   6.050   1.884 -0.3005 -0.2398  0.1015
 4756TIP3    H235904   5.156   5.936   1.795  0.0510  0.3636 -0.5124
 4757TIP3   OH235905   5.494   1.108   7.767 -0.4043  0.2826 -0.2963
 4757TIP3    H135906   5.403   1.079   7.771 -0.4235  0.4495  0.6291
 4757TIP3    H235907   5.491   1.191   7.719 -0.6258 -0.1466 -1.0241
 4758TIP3   OH235908   0.461   2.216   7.742  0.2117  0.0931 -0.1122
 4758TIP3    H135909   0.534   2.217   7.680  1.0185  1.9280  0.7915
 4758TIP3    H235910   0.500   2.190   7.825 -0.7150 -1.5504 -0.1524
 4759TIP3   OH235911   0.138   2.172   2.780 -0.4777 -0.6361 -0.0055
 4759TIP3    H135912   0.131   2.185   2.685  0.4880 -0.5737 -0.0822
 4759TIP3    H235913   0.092   2.247   2.818  0.9079  0.4998 -0.4448
 4760TIP3   OH235914   2.523   6.671   8.729 -0.3119 -0.2342 -0.3518
 4760TIP3    H135915   2.604   6.721   8.739 -0.5709 -0.0492  1.0254
 4760TIP3    H235916   2.484   6.672   8.816 -1.8271 -0.2737 -1.0075
 4761TIP3   OH235917   4.395   4.546   0.800  0.0690  0.0235  0.1886
 4761TIP3    H135918   4.369   4.624   0.751  1.8183  0.6990  0.2605
 4761TIP3    H235919   4.331   4.538   0.870 -0.1362  1.4030  0.1716
 4762TIP3   OH235920   3.604   5.371   6.999 -0.0307  0.9837 -0.3137
 4762TIP3    H135921   3.598   5.322   6.917  0.4131 -1.4266  1.0007
 4762TIP3    H235922   3.527   5.428   6.998  0.2979  1.4717 -2.6522
 4763TIP3   OH235923   6.134   2.337   0.461  0.2823 -0.5205 -0.0227
 4763TIP3    H135924   6.225   2.312   0.473  0.4945  0.1429 -0.2005
 4763TIP3    H235925   6.085   2.255   0.469  1.0204 -1.1463 -1.4265
 4764TIP3   OH235926   0.801   3.021   8.685  0.2780  0.7595  0.3308
 4764TIP3    H135927   0.710   3.001   8.661 -0.6254  2.7373  1.7890
 4764TIP3    H235928   0.802   3.016   8.781  1.7143  0.7497  0.3358
 4765TIP3   OH235929   3.532   2.831   8.172  0.3161 -0.3354  0.1292
 4765TIP3    H135930   3.605   2.875   8.128  0.3632 -2.0437 -1.6361
 4765TIP3    H235931   3.570   2.751   8.207 -0.7320 -1.4187 -1.1147
 4766TIP3   OH235932   5.989   0.019   7.535  0.0046  0.1409 -0.1627
 4766TIP3    H135933   5.951   0.101   7.505 -0.3284 -0.7681 -2.4586
 4766TIP3    H235934   6.070   0.009   7.484  0.1328 -0.8598  0.1986
 4767TIP3   OH235935   0.273   5.815   8.048  0.1108  0.2078 -0.3008
 4767TIP3    H135936   0.243   5.741   8.100 -4.3777  0.9511 -1.3833
 4767TIP3    H235937   0.277   5.888   8.109 -1.6667  0.3205 -0.2634
 4768TIP3   OH235938   6.187   0.662   0.691  0.3012  0.0520 -0.4388
 4768TIP3    H135939   6.141   0.608   0.627 -0.4071 -0.0662  0.1603
 4768TIP3    H235940   6.197   0.747   0.649  0.7891 -0.3314 -1.1113
 4769TIP3   OH235941   3.383   3.881   7.907  0.2283 -0.2262  0.0713
 4769TIP3    H135942   3.304   3.849   7.951  0.7076  0.8321  1.7886
 4769TIP3    H235943   3.419   3.804   7.864 -1.8581 -0.6779 -0.9694
 4770TIP3   OH235944   5.029   4.828   1.179  0.2169 -0.0608  0.1203
 4770TIP3    H135945   5.041   4.757   1.116 -2.5788 -0.0112 -0.5962
 4770TIP3    H235946   5.033   4.908   1.126  2.7960  0.3619  0.8368
 4771TIP3   OH235947   1.185   3.081   7.789  0.2900 -0.0373  0.3466
 4771TIP3    H135948   1.254   3.132   7.746 -0.0109  0.3585  0.3358
 4771TIP3    H235949   1.179   3.118   7.877  0.2083 -0.1861  0.4032
 4772TIP3   OH235950   4.150   6.447   8.059  0.5579 -0.0294 -0.2012
 4772TIP3    H135951   4.093   6.521   8.037  0.9584  0.0098 -1.1433
 4772TIP3    H235952   4.139   6.386   7.986  1.3400 -0.2430 -0.1485
 4773TIP3   OH235953   3.522   6.148   7.584  0.2664 -0.4073  0.2436
 4773TIP3    H135954   3.494   6.129   7.495  0.0398 -1.2132  0.4814
 4773TIP3    H235955   3.618   6.148   7.580  0.2614 -0.8461  0.0819
 4774TIP3   OH235956   5.201   1.553   2.034  0.6409  0.0339 -0.0374
 4774TIP3    H135957   5.139   1.583   1.968 -0.5836 -0.1291  0.9961
 4774TIP3    H235958   5.278   1.609   2.022  0.4012  0.0875 -1.4922
 4775TIP3   OH235959   2.017   3.837   0.398  0.4827  0.0920 -0.0017
 4775TIP3    H135960   2.089   3.882   0.355  0.5577 -1.4009 -1.5992
 4775TIP3    H235961   1.938   3.878   0.362  0.5435  0.3912  0.2088
 4776TIP3   OH235962   3.199   3.717   2.610  0.5749 -0.2628  0.1331
 4776TIP3    H135963   3.287   3.712   2.648  0.4873  0.9189  0.5376
 4776TIP3    H235964   3.146   3.758   2.679  0.2735  1.3698 -1.0177
 4777TIP3   OH235965   2.146   2.168   8.562 -0.0717  0.4713 -0.2829
 4777TIP3    H135966   2.169   2.079   8.536 -0.4267  0.0290  0.8844
 4777TIP3    H235967   2.229   2.209   8.584  0.1246  0.5369 -1.0990
 4778TIP3   OH235968   0.935   5.622   8.508 -0.0640  0.3802  0.5065
 4778TIP3    H135969   0.974   5.707   8.529 -0.6852  0.7960  0.0459
 4778TIP3    H235970   0.990   5.586   8.440 -1.0660  1.4669 -0.9439
 4779TIP3   OH235971   2.486   6.601   1.926  0.1702 -0.3838  0.1749
 4779TIP3    H135972   2.470   6.598   2.020  1.1951 -0.6013  0.3433
 4779TIP3    H235973   2.528   6.518   1.905 -0.6999 -0.6512 -0.6139
 4780TIP3   OH235974   2.863   4.000   7.578  0.6125  0.0918  0.3415
 4780TIP3    H135975   2.837   4.031   7.491 -0.3813  1.7670  1.1965
 4780TIP3    H235976   2.958   4.010   7.579  0.7050 -0.4673 -0.7267
 4781TIP3   OH235977   5.001   6.040   8.080 -0.1889 -0.7572 -0.1767
 4781TIP3    H135978   4.990   5.961   8.027 -0.0796 -0.6656 -0.3347
 4781TIP3    H235979   4.921   6.044   8.133 -0.1155 -1.0691 -0.0430
 4782TIP3   OH235980   0.936   3.104   7.625 -0.6068  0.5823 -0.5423
 4782TIP3    H135981   0.957   3.093   7.532 -3.7764  0.2132 -1.3433
 4782TIP3    H235982   1.018   3.089   7.670  0.7030 -0.9560 -3.1803
 4783TIP3   OH235983   2.639   1.861   0.540 -0.0702  0.1501 -0.0433
 4783TIP3    H135984   2.563   1.858   0.481 -1.4691  0.9384  1.6438
 4783TIP3    H235985   2.623   1.792   0.603  1.5549 -0.8596 -0.6888
 4784TIP3   OH235986   4.363   0.722   2.114  0.2241  0.0125  0.6692
 4784TIP3    H135987   4.458   0.714   2.123  0.6564  2.1895 -1.1656
 4784TIP3    H235988   4.336   0.645   2.064  1.2939  0.2327 -0.2690
 4785TIP3   OH235989   2.515   4.506   2.953  0.6229  0.6554  0.2978
 4785TIP3    H135990   2.587   4.496   3.015  0.9882  1.2791 -0.0174
 4785TIP3    H235991   2.461   4.576   2.990  1.2231  1.5275 -0.4239
 4786TIP3   OH235992   3.940   2.767   7.084 -0.0391  0.0039  0.0711
 4786TIP3    H135993   3.927   2.689   7.031 -1.7513 -1.0050  1.8693
 4786TIP3    H235994   3.857   2.815   7.077  0.1049  0.4053  0.9497
 4787TIP3   OH235995   4.428   2.106   2.815 -0.0212  0.2005 -0.0278
 4787TIP3    H135996   4.483   2.111   2.893 -0.5716 -0.7529  0.4349
 4787TIP3    H235997   4.343   2.141   2.843  0.2650  1.4919 -0.6881
 4788TIP3   OH235998   6.171   6.627   0.927  0.6303 -0.3498  0.1739
 4788TIP3    H135999   6.230   6.624   1.003  0.3597  0.6019  0.4409
 4788TIP3    H236000   6.182   6.716   0.893 -0.0231 -0.4434 -0.2883
 4789TIP3   OH236001   0.359   1.482   1.034 -0.6012  0.6592 -0.0131
 4789TIP3    H136002   0.309   1.402   1.050 -0.1652  0.0678 -1.4469
 4789TIP3    H236003   0.316   1.522   0.958  1.0475  0.1322 -1.2925
 4790TIP3   OH236004   3.882   5.859   8.067  0.5968  0.0085  0.8683
 4790TIP3    H136005   3.799   5.811   8.078 -0.4680  1.2926 -1.0123
 4790TIP3    H236006   3.931   5.807   8.003  0.5023  0.1408  0.6872
 4791TIP3   OH236007   5.132   2.332   7.919 -0.6790 -0.2920 -0.1588
 4791TIP3    H136008   5.148   2.424   7.940 -1.5772 -0.0104 -0.6416
 4791TIP3    H236009   5.090   2.296   7.996 -1.5998  0.0677 -0.4864
 4792TIP3   OH236010   0.864   5.095   1.447  0.4797 -0.1660  0.4327
 4792TIP3    H136011   0.924   5.020   1.443 -0.4905 -0.9982  1.0662
 4792TIP3    H236012   0.781   5.058   1.477 -0.0746  1.1358  0.5691
 4793TIP3   OH236013   5.478   0.546   0.950  0.3296  0.2565 -0.1577
 4793TIP3    H136014   5.547   0.579   0.892 -1.6275 -0.1941 -2.9333
 4793TIP3    H236015   5.398   0.589   0.920 -0.8810 -0.3245  1.9934
 4794TIP3   OH236016   1.404   5.921   7.227 -0.2345 -0.3784 -0.2706
 4794TIP3    H136017   1.387   5.945   7.136  0.4672 -1.3121 -0.6683
 4794TIP3    H236018   1.461   5.844   7.221  0.1191 -0.2336  0.9608
 4795TIP3   OH236019   5.713   4.725   1.970  0.4060  0.2616 -0.1304
 4795TIP3    H136020   5.620   4.702   1.970  0.5449 -0.7919  2.8101
 4795TIP3    H236021   5.740   4.719   1.879 -2.7008  2.0996 -1.3377
 4796TIP3   OH236022   3.946   6.225   8.599  0.4082 -0.8174  0.1897
 4796TIP3    H136023   4.003   6.302   8.597 -0.8426  0.2711  2.3841
 4796TIP3    H236024   3.877   6.244   8.535  0.9233 -0.8250 -0.3740
 4797TIP3   OH236025   3.312   5.565   0.087  0.3600  0.3587 -0.2502
 4797TIP3    H136026   3.291   5.472   0.092  0.0538  0.4244 -0.3033
 4797TIP3    H236027   3.227   5.610   0.085  0.4347  0.8524  2.9679
 4798TIP3   OH236028   3.823   2.494   0.166 -0.5844 -0.5827 -0.8726
 4798TIP3    H136029   3.859   2.498   0.077  0.7303 -0.3226 -0.3596
 4798TIP3    H236030   3.823   2.585   0.195 -1.4224 -0.6207 -0.7579
 4799TIP3   OH236031   4.629   5.266   2.243 -0.5689 -0.3036 -0.3512
 4799TIP3    H136032   4.585   5.197   2.293 -0.7860  1.1172  1.5653
 4799TIP3    H236033   4.722   5.256   2.265 -0.4257 -0.8169 -1.1687
 4800TIP3   OH236034   5.210   2.250   1.221 -0.4479 -0.6755 -0.1870
 4800TIP3    H136035   5.219   2.257   1.126  2.2858  1.6721  0.1260
 4800TIP3    H236036   5.153   2.322   1.246  0.2229 -0.2413  0.0991
 4801TIP3   OH236037   3.032   6.374   7.202 -0.4109 -0.2842 -0.6837
 4801TIP3    H136038   3.104   6.425   7.240 -0.1818 -0.1602 -1.2720
 4801TIP3    H236039   3.032   6.399   7.109 -1.7789  0.3976 -0.5284
 4802TIP3   OH236040   3.634   4.329   1.394  0.4648 -0.1870 -0.3907
 4802TIP3    H136041   3.696   4.335   1.322  1.2525 -0.0743  0.2811
 4802TIP3    H236042   3.618   4.420   1.420  2.3604 -0.2812  1.3637
 4803TIP3   OH236043   6.461   3.741   2.458  0.3301  0.2605 -0.4710
 4803TIP3    H136044   6.545   3.784   2.444  0.4892 -0.2207 -1.0100
 4803TIP3    H236045   6.483   3.658   2.500  0.1388  0.0508 -0.7825
 4804TIP3   OH236046   3.736   0.982   0.854 -0.3130 -0.0469 -0.8057
 4804TIP3    H136047   3.681   0.912   0.818 -1.2072  0.9353 -1.3762
 4804TIP3    H236048   3.727   0.973   0.949  0.5850 -1.4854 -0.8271
 4805TIP3   OH236049   3.732   6.691   8.222 -0.3158 -0.1924  0.3901
 4805TIP3    H136050   3.773   6.616   8.264 -3.2174 -1.6018  0.9401
 4805TIP3    H236051   3.716   6.753   8.293 -0.5355 -0.3130  0.4454
 4806TIP3   OH236052   4.679   2.513   0.883  0.4941 -0.5164  0.1954
 4806TIP3    H136053   4.610   2.570   0.848  1.3087 -0.2335 -1.0118
 4806TIP3    H236054   4.671   2.432   0.833  1.3883 -0.2631 -0.4079
 4807TIP3   OH236055   0.504   3.164   1.150  0.4361 -0.2012  0.2478
 4807TIP3    H136056   0.560   3.098   1.192 -1.7271 -1.7385  0.9019
 4807TIP3    H236057   0.493   3.133   1.060 -0.1781 -0.4769  0.4134
 4808TIP3   OH236058   3.715   6.547   6.818 -0.2070  0.1086  0.4575
 4808TIP3    H136059   3.715   6.632   6.862  1.8624  0.1243  0.5639
 4808TIP3    H236060   3.627   6.539   6.781 -0.1928  2.7636 -0.4056
 4809TIP3   OH236061   1.220   1.214   1.515  0.0786  0.0494  0.0467
 4809TIP3    H136062   1.293   1.182   1.463  0.5586 -1.0054  1.3003
 4809TIP3    H236063   1.243   1.191   1.605 -1.0130  1.2255  0.6623
 4810TIP3   OH236064   1.212   3.128   8.723 -0.3875  0.1566 -0.3735
 4810TIP3    H136065   1.185   3.037   8.712 -2.9445  0.9008 -0.9128
 4810TIP3    H236066   1.177   3.173   8.646  1.3472  1.5193 -0.4207
 4811TIP3   OH236067   4.320   3.989   1.377  0.0404 -0.1331  0.9114
 4811TIP3    H136068   4.353   3.901   1.394 -2.8036 -1.5518 -0.2737
 4811TIP3    H236069   4.326   4.033   1.462 -0.7374 -2.2948  2.1829
 4812TIP3   OH236070   4.646   2.711   1.521 -0.1170 -0.4771 -0.1934
 4812TIP3    H136071   4.573   2.757   1.481 -1.0410 -1.3073  0.4833
 4812TIP3    H236072   4.624   2.618   1.511  0.9207 -0.7472 -0.1085
 4813TIP3   OH236073   2.714   6.480   2.362 -0.2364 -0.2386  0.4841
 4813TIP3    H136074   2.663   6.404   2.390 -1.7818  0.9998  1.1776
 4813TIP3    H236075   2.791   6.480   2.418 -1.0421 -0.3865  1.6104
 4814TIP3   OH236076   3.106   1.259   1.971 -0.6975  0.5255  0.3284
 4814TIP3    H136077   3.133   1.201   1.901  0.3899  1.5042 -0.1048
 4814TIP3    H236078   3.013   1.275   1.956 -0.2832  1.4806 -1.4886
 4815TIP3   OH236079   5.490   2.682   2.207 -0.0166 -0.2434 -0.0664
 4815TIP3    H136080   5.449   2.691   2.293  0.4836 -2.2959  0.4545
 4815TIP3    H236081   5.430   2.724   2.146 -3.1332 -3.3256  0.5950
 4816TIP3   OH236082   2.079   5.899   8.227 -0.1671 -0.2894  0.2585
 4816TIP3    H136083   2.173   5.890   8.207 -0.2891  1.4578 -1.4484
 4816TIP3    H236084   2.043   5.812   8.211  0.7550 -0.3702 -1.8194
 4817TIP3   OH236085   3.356   2.785   7.728  0.3833 -0.2687  0.3533
 4817TIP3    H136086   3.271   2.761   7.694 -0.4242  1.6412  0.8576
 4817TIP3    H236087   3.378   2.716   7.790 -0.8017 -0.7914  0.2160
 4818TIP3   OH236088   3.200   2.075   7.980  0.1241  0.2584  0.3314
 4818TIP3    H136089   3.253   2.127   8.041  1.8300 -1.8916  0.8145
 4818TIP3    H236090   3.264   2.035   7.921 -1.4492  2.1825 -2.9636
 4819TIP3   OH236091   0.146   6.566   0.009  0.7934 -0.0416 -0.2856
 4819TIP3    H136092   0.137   6.596  -0.081  0.8362  0.7274 -0.0402
 4819TIP3    H236093   0.203   6.489   0.003 -0.2348 -0.7806 -1.0515
 4820TIP3   OH236094   0.541   0.914   7.805 -0.1072  0.0778  1.0377
 4820TIP3    H136095   0.456   0.885   7.772  0.1933  0.8820 -0.5258
 4820TIP3    H236096   0.604   0.855   7.765  0.1165 -0.2979  1.9196
 4821TIP3   OH236097   4.876   3.462   2.029  0.0479 -0.5246  0.1028
 4821TIP3    H136098   4.971   3.472   2.033 -0.1312  1.1674  1.2241
 4821TIP3    H236099   4.862   3.370   2.007  1.9035 -1.5784  2.8144
 4822TIP3   OH236100   1.809   6.061   7.748  0.0640  0.2002  1.1492
 4822TIP3    H136101   1.856   6.070   7.831  2.1082  3.0802 -0.1391
 4822TIP3    H236102   1.733   6.119   7.756 -1.2210 -1.4926  1.8378
 4823TIP3   OH236103   3.443   6.758   0.305  0.1135 -0.0412 -0.2263
 4823TIP3    H136104   3.403   6.827   0.253  1.1640  0.9244  0.1902
 4823TIP3    H236105   3.520   6.800   0.345 -2.0386  0.1911  4.4065
 4824TIP3   OH236106   1.758   6.716   1.266  0.5010 -0.1848  0.0843
 4824TIP3    H136107   1.787   6.753   1.182  2.8992 -0.5976  0.6615
 4824TIP3    H236108   1.718   6.632   1.243  0.5315  0.0010 -0.6856
 4825TIP3   OH236109   0.589   1.420   0.023  0.3420  0.4668  0.1700
 4825TIP3    H136110   0.494   1.409   0.035  0.3058  1.3119  0.7569
 4825TIP3    H236111   0.597   1.477  -0.054  0.4613 -1.4843 -1.3384
 4826TIP3   OH236112   0.612   5.460   8.736 -0.0299 -0.1367  0.2002
 4826TIP3    H136113   0.594   5.380   8.785  1.2044 -1.3049 -1.1931
 4826TIP3    H236114   0.589   5.439   8.645  1.0166  0.8342 -0.3093
 4827TIP3   OH236115   5.831   5.473   2.796 -0.0617  0.6645  0.4829
 4827TIP3    H136116   5.917   5.485   2.756  0.1356  0.3129  0.7968
 4827TIP3    H236117   5.810   5.381   2.779 -0.6278  0.8866 -0.0815
 4828TIP3   OH236118   3.400   0.108   8.414 -0.6740 -0.6185  0.0116
 4828TIP3    H136119   3.466   0.101   8.483 -0.2897 -0.3198 -0.3244
 4828TIP3    H236120   3.417   0.192   8.372 -1.2331 -0.5640 -0.1190
 4829TIP3   OH236121   6.160   4.881   0.245  0.1652  0.1625 -0.5859
 4829TIP3    H136122   6.089   4.887   0.308  1.1984  0.0209  0.6210
 4829TIP3    H236123   6.212   4.960   0.260 -0.1003  0.6187 -1.9341
 4830TIP3   OH236124   4.447   6.796   8.723  0.4192 -0.3008  0.2801
 4830TIP3    H136125   4.457   6.800   8.818  1.5401  1.7656  0.1300
 4830TIP3    H236126   4.400   6.714   8.707 -1.4962  0.2059  2.7474
 4831TIP3   OH236127   4.294   0.918   1.934 -0.2180 -0.2562 -0.4193
 4831TIP3    H136128   4.239   0.958   2.001 -0.1074  2.2614 -1.6925
 4831TIP3    H236129   4.343   0.850   1.979 -2.2928 -0.6472  1.3632
 4832TIP3   OH236130   1.245   5.332   8.788  0.3551  0.2747  0.9972
 4832TIP3    H136131   1.194   5.309   8.710  0.2825  0.8468  0.8702
 4832TIP3    H236132   1.270   5.424   8.774  0.9289  0.1757  1.3248
 4833TIP3   OH236133   3.136   1.250   7.948  0.3016  0.5916  0.2220
 4833TIP3    H136134   3.160   1.158   7.935  1.7440  0.8433  0.8518
 4833TIP3    H236135   3.041   1.253   7.936  0.2775 -0.9276 -0.0762
 4834TIP3   OH236136   4.470   0.350   2.189  0.0095  0.5896  0.1854
 4834TIP3    H136137   4.551   0.390   2.221  1.6335 -1.2459 -1.4072
 4834TIP3    H236138   4.445   0.289   2.258  0.0891  1.0039  0.5872
 4835TIP3   OH236139   2.521   4.358   7.580  1.1404  0.6353  0.2619
 4835TIP3    H136140   2.556   4.274   7.610 -0.8074 -0.2022  0.3530
 4835TIP3    H236141   2.486   4.399   7.659 -1.2479 -0.2020 -0.2569
 4836TIP3   OH236142   5.668   2.446   1.143  0.0611  0.0785  0.5331
 4836TIP3    H136143   5.621   2.366   1.163 -0.5293  0.0938 -0.7107
 4836TIP3    H236144   5.729   2.421   1.073 -1.8413  1.1859 -1.6659
 4837TIP3   OH236145   0.354   5.363   6.968 -0.7690 -0.2665  0.0054
 4837TIP3    H136146   0.438   5.318   6.959 -0.6044 -0.0528  0.4550
 4837TIP3    H236147   0.296   5.318   6.906 -0.9596 -1.9434  1.3603
 4838TIP3   OH236148   2.200   0.215   1.435  0.2707 -0.1565  0.4406
 4838TIP3    H136149   2.179   0.261   1.353  1.1900 -1.0588 -0.3302
 4838TIP3    H236150   2.283   0.253   1.463  0.4386 -0.5191  0.4370
 4839TIP3   OH236151   3.996   3.143   8.510 -0.4351 -0.1524 -0.4277
 4839TIP3    H136152   3.989   3.135   8.605  1.4466 -2.8547 -0.4274
 4839TIP3    H236153   4.036   3.230   8.497 -1.5964  0.6708  1.1416
 4840TIP3   OH236154   6.012   3.457   8.177  0.3751 -0.4537 -0.3448
 4840TIP3    H136155   6.074   3.427   8.244  0.8079 -1.8043 -1.3016
 4840TIP3    H236156   6.044   3.544   8.152 -0.5667  0.6715  2.0966
 4841TIP3   OH236157   5.176   2.660   0.566  0.5559  0.4872  0.1033
 4841TIP3    H136158   5.209   2.715   0.637  1.1507  0.7247 -0.3539
 4841TIP3    H236159   5.234   2.584   0.565 -0.7249 -0.5601  1.2400
 4842TIP3   OH236160   6.648   4.126   7.999  0.1777 -0.4960 -0.2884
 4842TIP3    H136161   6.591   4.147   8.072  0.5711  0.4593 -0.2395
 4842TIP3    H236162   6.688   4.210   7.975  1.0562 -1.0309 -0.7369
 4843TIP3   OH236163   1.181   3.523   0.579  0.3822  0.1105  0.0622
 4843TIP3    H136164   1.129   3.467   0.521  0.2912  0.0643  0.1877
 4843TIP3    H236165   1.190   3.605   0.532  0.6089 -0.0464 -0.1715
 4844TIP3   OH236166   0.360   1.304   8.457  0.2348  0.1379 -1.0646
 4844TIP3    H136167   0.357   1.379   8.517 -0.5178 -1.0712  0.5052
 4844TIP3    H236168   0.287   1.319   8.397 -0.4931  0.2487 -0.1855
 4845TIP3   OH236169   1.050   0.369   0.452  0.0595  0.2831  0.1090
 4845TIP3    H136170   1.037   0.403   0.541 -2.1696 -1.3259  0.4774
 4845TIP3    H236171   1.065   0.448   0.399 -0.3364  1.4312  1.6226
 4846TIP3   OH236172   1.393   2.743   0.074 -0.2388 -0.1232  0.1326
 4846TIP3    H136173   1.353   2.729  -0.013  1.0315 -3.7500 -0.0453
 4846TIP3    H236174   1.485   2.762   0.055 -0.0023 -0.7206  0.6585
 4847TIP3   OH236175   1.714   2.530   2.254  0.2538  0.6623  0.2221
 4847TIP3    H136176   1.772   2.457   2.276  1.0818  1.0262 -0.6782
 4847TIP3    H236177   1.749   2.604   2.304  1.9589  1.4192 -1.9527
 4848TIP3   OH236178   4.682   4.848   7.619 -0.0778  0.2751  0.0011
 4848TIP3    H136179   4.590   4.841   7.595  0.1785  1.1545 -1.3424
 4848TIP3    H236180   4.726   4.781   7.566 -0.0415 -0.8848  1.4232
 4849TIP3   OH236181   3.778   2.746   1.875  0.0341 -0.4741 -0.0861
 4849TIP3    H136182   3.725   2.767   1.798  0.7082 -1.6841 -0.9092
 4849TIP3    H236183   3.811   2.831   1.905  0.8169 -0.0754 -1.9219
 4850TIP3   OH236184   1.742   2.302   0.505  0.2765  0.4955  0.2715
 4850TIP3    H136185   1.732   2.367   0.436 -0.2954 -0.5600 -0.6876
 4850TIP3    H236186   1.826   2.260   0.487  0.4946  0.7464  0.6925
 4851TIP3   OH236187   5.227   0.674   7.606 -0.4815  0.4338 -0.3783
 4851TIP3    H136188   5.167   0.736   7.649 -0.4748 -0.4385  0.9457
 4851TIP3    H236189   5.191   0.664   7.518 -0.7177  1.9846 -0.4984
 4852TIP3   OH236190   0.647   3.281   7.186 -0.1335 -0.3311 -0.0703
 4852TIP3    H136191   0.697   3.296   7.106 -0.7503  0.1917 -0.3618
 4852TIP3    H236192   0.633   3.186   7.188 -1.2889 -0.2158 -1.3055
 4853TIP3   OH236193   0.909   2.279   1.041 -0.3802 -0.5141 -0.2775
 4853TIP3    H136194   0.902   2.255   1.133  1.1008 -0.0258 -0.0026
 4853TIP3    H236195   0.976   2.220   1.006  1.2403  1.2071 -0.2742
 4854TIP3   OH236196   4.110   5.805   1.341  0.1901 -0.2900 -0.5382
 4854TIP3    H136197   4.142   5.881   1.389 -0.8563 -0.9134  1.2231
 4854TIP3    H236198   4.187   5.750   1.329  0.3737 -0.3996  0.9989
 4855TIP3   OH236199   3.930   3.873   0.421  0.4694 -0.2689 -0.2945
 4855TIP3    H136200   3.975   3.795   0.389  0.0203  0.3530 -2.5748
 4855TIP3    H236201   4.001   3.931   0.450  0.9611 -0.5088 -0.9826
 4856TIP3   OH236202   3.653   2.928   2.641  0.3959  0.4646  0.0170
 4856TIP3    H136203   3.566   2.937   2.679  0.4972  0.6360  0.2145
 4856TIP3    H236204   3.701   3.005   2.673  0.6329  0.3467 -0.0499
 4857TIP3   OH236205   1.713   3.414   1.659  0.4006 -1.1651 -0.0476
 4857TIP3    H136206   1.792   3.387   1.706  0.2681 -0.5543  0.5494
 4857TIP3    H236207   1.671   3.333   1.633  1.3631 -1.5028 -0.6155
 4858TIP3   OH236208   2.931   3.573   6.579  0.3523  0.6393  0.4434
 4858TIP3    H136209   2.979   3.653   6.555  1.8867  0.0893  1.5660
 4858TIP3    H236210   2.976   3.503   6.530 -1.4751  0.5020 -1.1628
 4859TIP3   OH236211   1.261   3.821   1.946 -0.3457 -0.0763  0.1220
 4859TIP3    H136212   1.193   3.758   1.970 -1.4031  0.7650 -0.5810
 4859TIP3    H236213   1.255   3.890   2.012 -0.6542  0.3427 -0.3379
 4860TIP3   OH236214   5.540   4.435   1.453 -0.0458 -0.1681  0.1901
 4860TIP3    H136215   5.567   4.352   1.494  2.1211 -0.0128 -0.7507
 4860TIP3    H236216   5.529   4.495   1.527  2.3157 -0.2829  0.7379
 4861TIP3   OH236217   2.784   6.327   7.281  0.3907 -0.1326  0.4207
 4861TIP3    H136218   2.789   6.251   7.339  0.4694 -1.3306 -1.1069
 4861TIP3    H236219   2.873   6.341   7.250  0.5720  1.2418  1.4439
 4862TIP3   OH236220   5.904   6.549   0.518  0.0527  0.2235  0.3497
 4862TIP3    H136221   5.909   6.612   0.445  0.0253  0.9907  1.0014
 4862TIP3    H236222   5.849   6.478   0.484  0.6984  0.1833 -0.6588
 4863TIP3   OH236223   4.976   1.242   0.928 -0.3541  0.0422  0.0884
 4863TIP3    H136224   4.900   1.281   0.970  0.2477 -0.3647  1.6423
 4863TIP3    H236225   4.972   1.150   0.954  0.0210 -0.2258 -0.7973
 4864TIP3   OH236226   5.731   3.833   6.780 -0.2086  0.0285  0.3888
 4864TIP3    H136227   5.766   3.920   6.798 -0.9273  0.1401  1.3136
 4864TIP3    H236228   5.662   3.848   6.715  2.0283 -0.3117 -2.2390
 4865TIP3   OH236229   6.798   2.596   1.423  0.3909 -0.0334 -0.4301
 4865TIP3    H136230   6.823   2.537   1.351  0.7715 -0.1501 -0.2042
 4865TIP3    H236231   6.832   2.553   1.502  2.1692  1.3063 -0.4163
 4866TIP3   OH236232   1.798   3.916   0.275  0.3548  0.0307 -0.2420
 4866TIP3    H136233   1.720   3.869   0.307 -0.8858  0.9217 -1.8530
 4866TIP3    H236234   1.781   3.931   0.183  2.7355 -0.2539 -0.7890
 4867TIP3   OH236235   1.489   3.633   0.215  0.2069 -0.0028 -0.1201
 4867TIP3    H136236   1.534   3.676   0.287 -0.8596  1.6091 -0.3707
 4867TIP3    H236237   1.467   3.546   0.248  1.9273 -0.1846  0.5990
 4868TIP3   OH236238   5.361   6.532   1.119  0.2290  0.8763 -0.6111
 4868TIP3    H136239   5.351   6.603   1.183  1.3639 -1.1110  1.9847
 4868TIP3    H236240   5.304   6.462   1.152 -0.3291  0.2666 -2.6962
 4869TIP3   OH236241   5.211   4.372   2.068 -0.1739  0.2405  0.3007
 4869TIP3    H136242   5.151   4.306   2.102 -0.6638 -0.4038 -1.6814
 4869TIP3    H236243   5.220   4.351   1.975 -0.5178  3.0942 -0.4689
 4870TIP3   OH236244   2.990   3.730   0.917  0.2838 -0.1937 -0.4345
 4870TIP3    H136245   2.966   3.744   0.826  1.0763 -0.6277 -0.7221
 4870TIP3    H236246   2.929   3.784   0.967  1.5879  2.2586 -1.3355
 4871TIP3   OH236247   2.779   2.132   0.176  0.8179  1.0103 -0.2804
 4871TIP3    H136248   2.872   2.152   0.166  0.9719  1.0155  0.9554
 4871TIP3    H236249   2.772   2.094   0.264 -0.2589  0.4702 -0.5830
 4872TIP3   OH236250   3.601   1.091   2.431  0.2365 -0.1997  0.4603
 4872TIP3    H136251   3.606   1.119   2.522  1.0831 -2.4412  1.1740
 4872TIP3    H236252   3.516   1.049   2.422  0.8113 -1.5002  0.7541
 4873TIP3   OH236253   5.587   2.287   1.583  0.3351  0.1745  0.4491
 4873TIP3    H136254   5.648   2.216   1.601 -0.4932 -1.2602 -1.9573
 4873TIP3    H236255   5.640   2.353   1.537  0.6143  0.1879  0.7757
 4874TIP3   OH236256   3.858   6.383   0.479 -0.5411  0.4851 -0.0095
 4874TIP3    H136257   3.927   6.428   0.530 -0.0179  0.8764 -1.0361
 4874TIP3    H236258   3.792   6.451   0.464 -0.1320  0.7108 -0.8604
 4875TIP3   OH236259   3.069   2.036   0.206  0.3398 -0.0221  0.1606
 4875TIP3    H136260   3.126   2.007   0.277  1.4572 -1.8556 -1.3830
 4875TIP3    H236261   3.052   2.128   0.224  2.3064  0.0934  1.6523
 4876TIP3   OH236262   4.864   5.569   2.039  0.3627  0.9051  0.1797
 4876TIP3    H136263   4.797   5.594   2.102 -1.1299  0.2099 -1.0876
 4876TIP3    H236264   4.933   5.529   2.093 -0.9230  0.2230  1.3875
 4877TIP3   OH236265   0.903   5.482   1.164 -0.0987  0.4771 -0.4168
 4877TIP3    H136266   0.925   5.389   1.159  1.7348  0.8006  0.5861
 4877TIP3    H236267   0.911   5.503   1.257  0.0740  1.7548 -0.7029
 4878TIP3   OH236268   3.719   6.279   1.614 -0.6622  0.0521  0.1130
 4878TIP3    H136269   3.808   6.244   1.614 -0.4654  0.5294  0.6918
 4878TIP3    H236270   3.690   6.270   1.705  0.3754  3.7386  0.9910
 4879TIP3   OH236271   4.428   3.082   3.235 -0.0192  0.0305 -0.6909
 4879TIP3    H136272   4.427   3.040   3.149 -0.7439  0.6406 -0.9928
 4879TIP3    H236273   4.518   3.071   3.266 -0.4801 -3.1235 -0.0663
 4880TIP3   OH236274   0.988   5.433   0.411 -0.6736 -0.4072  0.2523
 4880TIP3    H136275   1.074   5.457   0.443 -1.2706  1.3781  0.6667
 4880TIP3    H236276   0.992   5.448   0.316 -1.0198  1.4832  0.4960
 4881TIP3   OH236277   5.233   3.240   0.872  0.2785  0.0958 -0.3948
 4881TIP3    H136278   5.205   3.276   0.956  0.4158  0.3637 -0.4622
 4881TIP3    H236279   5.297   3.304   0.839  2.2532 -1.2790  0.5195
 4882TIP3   OH236280   5.780   2.390   8.564 -0.4763 -0.4680 -0.5437
 4882TIP3    H136281   5.721   2.370   8.491 -1.8208 -1.4957  0.7530
 4882TIP3    H236282   5.865   2.355   8.538 -0.7587 -0.1790 -1.8897
 4883TIP3   OH236283   6.213   1.048   0.865 -0.2880  0.1025  0.3660
 4883TIP3    H136284   6.257   0.965   0.848  1.3318  0.6521  1.5796
 4883TIP3    H236285   6.164   1.032   0.946 -1.1248 -0.0621 -0.1626
 4884TIP3   OH236286   4.009   2.803   0.578  0.3031 -0.6229  0.1300
 4884TIP3    H136287   3.916   2.801   0.559  0.2231  0.4644  0.3518
 4884TIP3    H236288   4.043   2.720   0.542 -0.8050 -1.2344  0.4469
 4885TIP3   OH236289   0.116   3.766   0.330  0.1820  0.5222 -0.4749
 4885TIP3    H136290   0.194   3.710   0.337 -0.9316 -1.0881 -0.4683
 4885TIP3    H236291   0.125   3.809   0.246 -0.0145 -1.4310 -1.5562
 4886TIP3   OH236292   0.292   3.682   8.317 -0.4846 -0.4126  0.2569
 4886TIP3    H136293   0.285   3.590   8.291  1.0367 -0.4123 -0.2503
 4886TIP3    H236294   0.274   3.731   8.237  1.2636 -0.3501 -0.1354
 4887TIP3   OH236295   0.144   1.962   8.551  0.2767  0.6063  0.5082
 4887TIP3    H136296   0.117   1.892   8.611  0.7940 -0.6964 -0.7379
 4887TIP3    H236297   0.203   1.919   8.489  0.6054  2.1589 -0.2934
 4888TIP3   OH236298   0.301   5.448   0.107  0.1410  0.2507  0.3953
 4888TIP3    H136299   0.211   5.419   0.095 -0.2298 -0.0033  3.1862
 4888TIP3    H236300   0.354   5.373   0.080 -0.6520 -1.0115  2.1259
 4889TIP3   OH236301   6.503   4.422   0.945 -0.7208 -0.1307  0.3648
 4889TIP3    H136302   6.514   4.354   0.879 -1.6169 -0.8818  0.9616
 4889TIP3    H236303   6.416   4.458   0.928 -1.0498 -0.4776  1.2543
 4890TIP3   OH236304   3.643   2.608   8.761 -0.1583 -0.0186  0.2901
 4890TIP3    H136305   3.597   2.671   8.817 -2.3022 -0.5021 -0.7936
 4890TIP3    H236306   3.630   2.642   8.672 -0.7368 -1.5816 -0.2586
 4891TIP3   OH236307   0.462   6.386   7.678  0.6058 -0.2646  0.7295
 4891TIP3    H136308   0.385   6.351   7.633  1.1213 -2.0104  1.1445
 4891TIP3    H236309   0.528   6.394   7.609  0.0828  1.2578  0.3683
 4892TIP3   OH236310   1.001   4.301   0.988 -0.0761 -0.0514 -0.3595
 4892TIP3    H136311   1.072   4.365   0.985 -0.2170  0.0878 -2.9489
 4892TIP3    H236312   1.029   4.238   1.054  2.3178  0.1814 -1.0421
 4893TIP3   OH236313   2.384   2.881   2.763  0.1610 -0.1207 -0.4761
 4893TIP3    H136314   2.300   2.881   2.810  1.0526  0.8573  1.2282
 4893TIP3    H236315   2.431   2.805   2.798  0.1836 -0.3954 -1.0861
 4894TIP3   OH236316   0.448   6.142   1.152 -0.1528  0.6955 -0.4009
 4894TIP3    H136317   0.494   6.224   1.130  1.8011 -0.8470 -2.5205
 4894TIP3    H236318   0.513   6.074   1.139 -1.7147 -1.2499  1.3559
 4895TIP3   OH236319   0.152   2.233   8.318 -0.8467 -0.2450  0.4639
 4895TIP3    H136320   0.191   2.153   8.284 -1.1779 -0.6110  0.9232
 4895TIP3    H236321   0.191   2.245   8.405 -1.8682 -0.7295  1.0148
 4896TIP3   OH236322   6.605   0.264   0.025  0.2850 -0.2305  0.2214
 4896TIP3    H136323   6.679   0.280   0.083  0.8233 -1.5582 -0.0606
 4896TIP3    H236324   6.603   0.169   0.014 -1.2707 -0.1938 -0.0439
 4897TIP3   OH236325   5.804   5.670   1.926 -0.6452  0.1841 -0.3780
 4897TIP3    H136326   5.834   5.586   1.892 -0.9193 -0.1371  0.1518
 4897TIP3    H236327   5.774   5.650   2.015 -1.3515  0.7127 -0.4941
 4898TIP3   OH236328   0.624   2.217   7.987 -0.1252  0.1922  0.6668
 4898TIP3    H136329   0.669   2.279   7.930 -1.5595  1.7452  1.1375
 4898TIP3    H236330   0.686   2.199   8.058  1.7838 -1.9581 -1.3783
 4899TIP3   OH236331   6.380   0.032   1.161 -0.0551 -0.1583 -0.1145
 4899TIP3    H136332   6.287   0.051   1.150 -0.1072 -0.9179 -1.1436
 4899TIP3    H236333   6.424   0.089   1.098  0.3714  1.6718  1.7488
 4900TIP3   OH236334   2.047   5.488   8.382 -0.3950 -0.2599  0.2612
 4900TIP3    H136335   2.025   5.518   8.470  2.0791 -1.0490  1.2419
 4900TIP3    H236336   2.051   5.392   8.389 -0.4503 -0.3513 -0.7803
 4901TIP3   OH236337   0.805   0.706   8.424 -0.1918 -0.6307 -0.0288
 4901TIP3    H136338   0.888   0.662   8.441  1.2606  2.2480  1.0215
 4901TIP3    H236339   0.749   0.681   8.498  0.7780 -0.3199  0.8280
 4902TIP3   OH236340   0.036   5.316   8.411 -0.4978 -0.3141  0.1544
 4902TIP3    H136341  -0.053   5.330   8.378 -0.2208  0.3228 -0.3416
 4902TIP3    H236342   0.026   5.250   8.479 -1.2449 -0.8376 -0.4449
 4903TIP3   OH236343   2.390   3.983   7.792  0.4404 -0.0163  0.1143
 4903TIP3    H136344   2.468   4.019   7.836 -0.2784 -0.2076  1.5998
 4903TIP3    H236345   2.413   3.891   7.775  1.0992  0.3136 -0.8405
 4904TIP3   OH236346   4.655   1.836   8.791 -0.0782  0.5762 -0.3969
 4904TIP3    H136347   4.596   1.889   8.738 -0.3694  0.0025 -0.6518
 4904TIP3    H236348   4.663   1.753   8.744  0.0946  0.2580  0.1721
 4905TIP3   OH236349   0.065   1.160   2.393  0.1271  0.5991  0.1953
 4905TIP3    H136350  -0.016   1.113   2.413 -1.2091  1.9746 -1.5573
 4905TIP3    H236351   0.078   1.219   2.467 -0.1061 -0.0810  0.7895
 4906TIP3   OH236352   0.865   0.349   8.238  0.2820  0.2026 -0.2767
 4906TIP3    H136353   0.784   0.307   8.209 -0.9433  0.3574  2.5490
 4906TIP3    H236354   0.916   0.278   8.278  0.8414  0.4102 -0.6025
 4907TIP3   OH236355   4.102   6.119   0.690 -0.6005  0.0980  0.2642
 4907TIP3    H136356   4.045   6.104   0.614 -1.4443  1.0844  0.6773
 4907TIP3    H236357   4.190   6.104   0.657 -0.7720  2.3488 -1.4440
 4908TIP3   OH236358   6.212   2.837   1.218  0.7149 -0.3486 -0.3966
 4908TIP3    H136359   6.143   2.772   1.236  1.2201 -0.9213 -0.5008
 4908TIP3    H236360   6.284   2.786   1.182  1.8891 -0.0287  1.3912
 4909TIP3   OH236361   1.644   6.165   6.597 -0.0415  0.7844 -0.2254
 4909TIP3    H136362   1.561   6.210   6.578 -0.5765 -0.0914 -0.0453
 4909TIP3    H236363   1.709   6.235   6.600 -0.3269  1.2760 -2.7923
 4910TIP3   OH236364   0.050   1.213   1.957 -0.8045  0.3978  0.9263
 4910TIP3    H136365  -0.014   1.154   1.998  0.4109 -1.2216  0.6067
 4910TIP3    H236366   0.046   1.191   1.864 -1.6734  2.2101  0.4918
 4911TIP3   OH236367   0.966   4.176   6.712  0.1575 -0.1880  0.3107
 4911TIP3    H136368   1.044   4.199   6.662 -1.1317 -0.1626 -1.8216
 4911TIP3    H236369   0.986   4.091   6.751  1.7121  0.4187  0.8861
 4912TIP3   OH236370   3.592   5.622   8.468  0.5356  1.1473  0.0143
 4912TIP3    H136371   3.577   5.710   8.434  0.7300  1.9597  1.9308
 4912TIP3    H236372   3.655   5.633   8.539 -0.2772 -0.3573  1.0450
 4913TIP3   OH236373   3.256   0.707   8.534  0.5264  0.3493 -0.1278
 4913TIP3    H136374   3.252   0.786   8.481 -0.8443  0.8908  0.7080
 4913TIP3    H236375   3.291   0.737   8.618 -0.8740  0.3007  0.5076
 4914TIP3   OH236376   5.674   3.008   1.647  0.0487 -0.3270 -0.7553
 4914TIP3    H136377   5.591   2.990   1.691 -0.0229 -1.1487 -1.2206
 4914TIP3    H236378   5.678   3.104   1.643 -0.2206 -0.2393  0.4998
 4915TIP3   OH236379   0.301   5.485   0.849  0.2837 -0.0301 -0.5186
 4915TIP3    H136380   0.240   5.509   0.779  1.1800  1.5051 -0.8243
 4915TIP3    H236381   0.364   5.426   0.807 -0.5939 -1.1029 -0.3601
 4916TIP3   OH236382   3.677   6.608   2.732  0.2431 -0.0599 -0.1595
 4916TIP3    H136383   3.756   6.661   2.744 -1.7047  2.7956  1.3864
 4916TIP3    H236384   3.647   6.631   2.644 -0.5547  1.5328  0.4762
 4917TIP3   OH236385   2.882   3.367   1.993 -0.2714 -0.4441  0.4787
 4917TIP3    H136386   2.947   3.367   2.063 -1.4661 -1.1356  1.6247
 4917TIP3    H236387   2.933   3.355   1.913  1.1352  0.4532  1.1980
 4918TIP3   OH236388   2.948   0.879   8.372 -0.3425  0.5421  0.1390
 4918TIP3    H136389   2.858   0.897   8.346 -0.3376  1.1341  0.5085
 4918TIP3    H236390   2.940   0.819   8.446 -0.3462 -1.4638 -1.4073
 4919TIP3   OH236391   5.729   4.782   1.263 -0.5932  0.4519  0.0959
 4919TIP3    H136392   5.681   4.848   1.313  2.2893  1.7927  1.3204
 4919TIP3    H236393   5.768   4.725   1.329 -1.3495 -1.2949 -0.8941
 4920TIP3   OH236394   5.187   3.610   1.662 -0.0123 -0.0180  0.4677
 4920TIP3    H136395   5.110   3.608   1.719 -0.4241  0.7903 -0.0381
 4920TIP3    H236396   5.214   3.702   1.661  0.8019 -0.2511  0.4297
 4921TIP3   OH236397   5.228   5.397   1.381  0.5665  0.1019  0.6580
 4921TIP3    H136398   5.187   5.355   1.305  0.4683 -0.0009  0.7654
 4921TIP3    H236399   5.178   5.363   1.455  1.2918 -0.5765  0.8513
 4922TIP3   OH236400   1.068   5.966   8.497 -0.2869  0.2431  0.5243
 4922TIP3    H136401   1.085   5.903   8.568 -2.1136  0.6450  1.3794
 4922TIP3    H236402   1.000   6.024   8.532 -0.3678  1.2058 -1.1299
 4923TIP3   OH236403   0.161   0.521   7.694  0.0322 -0.0707  0.1269
 4923TIP3    H136404   0.169   0.505   7.600  0.3616 -1.4862  0.3721
 4923TIP3    H236405   0.241   0.568   7.717  0.7181 -1.0968 -0.0537
 4924TIP3   OH236406   6.413   0.981   1.113  0.0184  0.2363  0.0220
 4924TIP3    H136407   6.456   0.910   1.064 -1.3169  0.4332 -1.5207
 4924TIP3    H236408   6.322   0.953   1.121  0.0607  0.5294  1.8967
 4925TIP3   OH236409   0.055   2.986   8.790  0.2231 -0.1742  0.2140
 4925TIP3    H136410   0.026   2.896   8.778  0.3884 -0.2312  0.2401
 4925TIP3    H236411   0.086   3.013   8.703  0.9860 -0.4319  0.3986
 4926TIP3   OH236412   1.674   3.504   7.706  0.3983 -0.3370  0.3979
 4926TIP3    H136413   1.622   3.445   7.761  0.0420  0.0055  0.4355
 4926TIP3    H236414   1.734   3.446   7.659  0.6688 -0.6410  1.1046
 4927TIP3   OH236415   5.614   2.326   2.686 -0.6405  0.2319  0.4346
 4927TIP3    H136416   5.623   2.248   2.632 -2.8908  0.1358  0.1111
 4927TIP3    H236417   5.687   2.321   2.748  0.8908 -0.6273 -1.3495
 4928TIP3   OH236418   6.781   1.966   6.925  0.7470 -0.1560 -0.6840
 4928TIP3    H136419   6.800   1.938   6.836  0.1382 -2.4774 -0.1619
 4928TIP3    H236420   6.814   1.895   6.980  0.7553  1.0423  0.9293
 4929TIP3   OH236421   2.074   0.466   7.954  0.0109 -0.7410 -0.1348
 4929TIP3    H136422   2.063   0.486   7.862 -1.5311 -1.2713 -0.0941
 4929TIP3    H236423   2.018   0.390   7.969  0.0383 -0.5142  1.2893
 4930TIP3   OH236424   3.645   6.677   2.388  0.0858 -0.2699 -0.0216
 4930TIP3    H136425   3.597   6.744   2.339  1.4450  0.5661 -0.2592
 4930TIP3    H236426   3.580   6.608   2.404 -0.9466  0.4082 -1.1041
 4931TIP3   OH236427   3.526   2.610   7.219  0.6542 -0.2266  0.9624
 4931TIP3    H136428   3.451   2.557   7.248  0.6505 -1.0711 -0.4891
 4931TIP3    H236429   3.594   2.545   7.201  1.2002  0.4135  0.7269
 4932TIP3   OH236430   4.405   2.707   1.039 -0.2651 -0.1652  0.1925
 4932TIP3    H136431   4.354   2.660   1.105 -0.8256  1.0042  0.6267
 4932TIP3    H236432   4.487   2.729   1.083 -0.6668  0.6751  0.5425
 4933TIP3   OH236433   1.084   6.583   1.697 -0.5989  0.6305  0.7245
 4933TIP3    H136434   1.140   6.593   1.620 -3.2883  1.6906 -1.2745
 4933TIP3    H236435   1.061   6.490   1.698  0.0079  0.4789  0.6621
 4934TIP3   OH236436   0.360   5.534   7.962 -0.1485  0.3702 -0.6877
 4934TIP3    H136437   0.348   5.582   8.043  0.5152 -0.8260  0.1528
 4934TIP3    H236438   0.272   5.501   7.940 -0.2640  0.3833 -0.2491
 4935TIP3   OH236439   4.795   6.795   2.498 -0.0408  0.5853  0.1108
 4935TIP3    H136440   4.796   6.733   2.572  0.9109 -1.7119 -1.6906
 4935TIP3    H236441   4.702   6.812   2.483 -0.5622 -2.3891 -0.7741
 4936TIP3   OH236442   5.136   5.352   0.488  0.2329 -0.4306  0.0738
 4936TIP3    H136443   5.065   5.320   0.433  0.1757  0.9329 -0.6911
 4936TIP3    H236444   5.108   5.335   0.578 -2.5564  2.8436  0.0027
 4937TIP3   OH236445   6.493   6.531   8.349  0.2488 -0.6666 -0.1863
 4937TIP3    H136446   6.543   6.529   8.268  0.0160 -1.0856 -0.3199
 4937TIP3    H236447   6.474   6.439   8.369 -0.7385 -0.4988 -0.3032
 4938TIP3   OH236448   4.284   5.561   7.988 -0.3569  1.1294 -0.0935
 4938TIP3    H136449   4.319   5.474   8.005  0.8820  1.9280  1.7634
 4938TIP3    H236450   4.361   5.616   7.971 -1.0825  1.9666 -0.8366
 4939TIP3   OH236451   4.604   3.291   1.547 -0.3872  0.0455  0.2256
 4939TIP3    H136452   4.593   3.199   1.571 -0.2391  0.1474  0.7000
 4939TIP3    H236453   4.699   3.302   1.538 -0.4817 -0.7160 -3.3568
 4940TIP3   OH236454   2.706   0.775   7.975 -0.4789  0.2537  0.8259
 4940TIP3    H136455   2.636   0.725   8.018 -0.7808 -1.4681 -1.4819
 4940TIP3    H236456   2.787   0.730   8.001 -0.3450  1.1639  2.0687
 4941TIP3   OH236457   0.431   0.785   8.778 -0.2917  0.5766 -0.3000
 4941TIP3    H136458   0.522   0.800   8.750  0.2857 -1.0234  0.5384
 4941TIP3    H236459   0.418   0.847   8.850 -0.4659  1.9840 -1.4998
 4942TIP3   OH236460   5.473   5.737   1.303 -0.1494 -0.2426 -1.1074
 4942TIP3    H136461   5.553   5.782   1.278 -0.6516  1.1746 -0.2954
 4942TIP3    H236462   5.495   5.644   1.299  1.8023  0.1256  0.0105
 4943TIP3   OH236463   6.751   0.755   7.898 -0.2115  0.2118  0.1849
 4943TIP3    H136464   6.786   0.668   7.877 -0.5836  0.1180 -0.0483
 4943TIP3    H236465   6.811   0.789   7.965  0.0822 -0.1200  0.0959
 4944TIP3   OH236466   6.073   0.621   0.004  0.4792 -0.3302  0.1304
 4944TIP3    H136467   6.083   0.604   0.097  2.6118  0.7550  0.1590
 4944TIP3    H236468   6.142   0.684  -0.017 -1.3455  1.2230 -1.7307
 4945TIP3   OH236469   2.773   4.525   2.039 -0.1266 -0.4247  0.3489
 4945TIP3    H136470   2.703   4.524   2.104 -1.4673 -2.5230 -1.0105
 4945TIP3    H236471   2.797   4.433   2.028  0.2228 -0.1243 -1.8955
 4946TIP3   OH236472   5.527   2.861   8.271 -0.0886  0.1487 -0.0447
 4946TIP3    H136473   5.462   2.902   8.327 -0.2707 -0.3286  0.0977
 4946TIP3    H236474   5.576   2.803   8.329 -0.5984 -0.7186 -0.4541
 4947TIP3   OH236475   4.430   1.509   0.271 -0.5222  0.5062  0.3730
 4947TIP3    H136476   4.501   1.449   0.293 -0.6586 -0.1958 -1.0196
 4947TIP3    H236477   4.350   1.461   0.295 -0.5754  1.0528  1.3626
 4948TIP3   OH236478   5.544   6.062   1.155  0.4987 -0.7413  0.2030
 4948TIP3    H136479   5.549   6.029   1.065  2.3478 -2.3001  0.8302
 4948TIP3    H236480   5.633   6.091   1.175 -0.2365  1.1019  1.0240
 4949TIP3   OH236481   6.701   0.331   1.140  0.1311  0.1401  0.2840
 4949TIP3    H136482   6.674   0.312   1.230 -0.6345 -0.0004  0.0343
 4949TIP3    H236483   6.782   0.282   1.128 -0.6459 -1.2217  0.3629
 4950TIP3   OH236484   4.736   5.565   2.481  0.1422 -0.3388  0.3839
 4950TIP3    H136485   4.695   5.565   2.567 -1.4263 -1.8047 -0.2888
 4950TIP3    H236486   4.769   5.654   2.469  0.5318 -0.1491  2.5318
 4951TIP3   OH236487   6.005   4.665   7.620 -1.2695 -0.3433 -0.1727
 4951TIP3    H136488   5.936   4.599   7.628 -0.5480 -1.0825  0.1136
 4951TIP3    H236489   6.075   4.620   7.573 -0.2748 -0.2011  1.1236
 4952TIP3   OH236490   3.228   1.701   7.500  0.5655 -0.0915  0.1116
 4952TIP3    H136491   3.295   1.644   7.461 -0.0485 -0.3405 -0.6004
 4952TIP3    H236492   3.152   1.644   7.513  0.1599  0.4140 -0.0072
 4953TIP3   OH236493   1.684   2.732   8.457  0.0541 -0.1629  0.6887
 4953TIP3    H136494   1.641   2.673   8.395  1.6584 -1.5608  0.8286
 4953TIP3    H236495   1.759   2.767   8.408 -0.0611  0.6281  1.0717
 4954TIP3   OH236496   0.624   4.960   8.808 -0.8928  0.6416  0.5672
 4954TIP3    H136497   0.633   4.878   8.759  2.4245  1.9160 -1.2602
 4954TIP3    H236498   0.555   5.008   8.761  0.8191  0.9879 -1.8043
 4955TIP3   OH236499   3.742   2.807   0.474  0.5617  0.1853  0.2442
 4955TIP3    H136500   3.708   2.894   0.493 -0.5320 -0.1874  0.0385
 4955TIP3    H236501   3.666   2.757   0.443  1.1264 -0.8991  0.5530
 4956TIP3   OH236502   4.947   6.352   2.258 -0.2472 -0.6460  0.2036
 4956TIP3    H136503   4.862   6.315   2.235  0.1496 -2.0069  0.8346
 4956TIP3    H236504   4.978   6.299   2.332  0.8858  0.1980  0.3709
 4957TIP3   OH236505   1.404   2.690   7.517 -0.3250 -0.0413 -0.4366
 4957TIP3    H136506   1.470   2.620   7.522  1.1140  1.3552  1.6662
 4957TIP3    H236507   1.324   2.648   7.547 -0.4169 -1.6967 -2.7353
 4958TIP3   OH236508   2.675   3.134   7.911  0.0477  0.0883  0.6227
 4958TIP3    H136509   2.650   3.115   7.821 -0.3870 -0.9432  0.9481
 4958TIP3    H236510   2.600   3.108   7.964  0.2207  0.8592  1.2822
 4959TIP3   OH236511   1.704   6.184   1.078 -0.0064 -0.4722 -0.5473
 4959TIP3    H136512   1.676   6.269   1.045  0.0410  0.0973  0.8249
 4959TIP3    H236513   1.779   6.203   1.134 -1.5895 -1.0334  1.9377
 4960TIP3   OH236514   3.943   0.912   2.080  0.2177  0.7243  0.1288
 4960TIP3    H136515   4.032   0.892   2.110  0.2631 -0.2754 -0.6406
 4960TIP3    H236516   3.926   0.999   2.115  1.3143  0.7303  0.7061
 4961TIP3   OH236517   2.384   0.313   1.800 -0.0014  0.2586 -0.5358
 4961TIP3    H136518   2.422   0.356   1.724  1.3681  0.2011  0.0932
 4961TIP3    H236519   2.445   0.242   1.820 -1.2947 -0.8759 -0.4756
 4962TIP3   OH236520   3.123   2.294   8.209 -0.1210 -0.0300  0.1112
 4962TIP3    H136521   3.205   2.248   8.190  0.0081  0.1068  0.3303
 4962TIP3    H236522   3.098   2.264   8.296 -2.3594 -3.0865 -1.3876
 4963TIP3   OH236523   1.313   4.543   8.536  0.2308  0.0649 -0.2092
 4963TIP3    H136524   1.361   4.624   8.519  0.6310  0.3472  1.9047
 4963TIP3    H236525   1.380   4.479   8.559 -0.2558  0.2355  1.9378
 4964TIP3   OH236526   4.554   1.948   1.896  0.1045  0.4518 -0.3958
 4964TIP3    H136527   4.592   1.938   1.983 -2.4395  1.7869  0.9892
 4964TIP3    H236528   4.566   1.863   1.854 -0.6943 -1.0195  2.1635
 4965TIP3   OH236529   4.886   1.302   7.304  0.7673 -0.5681  0.0708
 4965TIP3    H136530   4.974   1.339   7.305  0.6192 -0.1457  2.0938
 4965TIP3    H236531   4.840   1.351   7.236  1.0821  1.8340  1.4577
 4966TIP3   OH236532   4.684   4.671   6.506  0.4045 -0.4144 -0.2918
 4966TIP3    H136533   4.671   4.629   6.420 -1.9727 -1.1502  0.3607
 4966TIP3    H236534   4.645   4.758   6.496  0.1676 -0.4845  0.0282
 4967TIP3   OH236535   2.549   1.015   0.654 -0.1763 -0.5131  0.0157
 4967TIP3    H136536   2.486   0.943   0.662  0.5979 -1.6703 -2.8548
 4967TIP3    H236537   2.495   1.094   0.655 -1.4711 -1.3511 -0.4580
 4968TIP3   OH236538   1.558   5.290   8.728 -0.1596  0.0399 -0.0306
 4968TIP3    H136539   1.497   5.254   8.664  1.0420 -0.3818 -0.9647
 4968TIP3    H236540   1.641   5.300   8.681  0.9958 -1.0374  1.6267
 4969TIP3   OH236541   0.118   6.111   2.022 -0.1950 -0.4166  0.6275
 4969TIP3    H136542   0.165   6.078   1.946 -1.1417 -1.6906  0.5628
 4969TIP3    H236543   0.176   6.092   2.096  0.3261  0.0026  0.3359
 4970TIP3   OH236544   0.403   2.822   1.016 -0.3071 -0.0531 -0.0588
 4970TIP3    H136545   0.337   2.770   0.969  0.2855 -0.6002 -0.3026
 4970TIP3    H236546   0.438   2.882   0.950  1.2814 -1.5409 -0.6437
 4971TIP3   OH236547   5.252   0.502   0.532 -0.4461 -0.4790  0.0979
 4971TIP3    H136548   5.189   0.485   0.463 -0.6906  0.2299  0.1469
 4971TIP3    H236549   5.200   0.504   0.613 -0.3020 -0.3120  0.1875
 4972TIP3   OH236550   5.378   6.807   3.064  0.3322  0.0001  0.5074
 4972TIP3    H136551   5.376   6.812   2.969 -0.4791 -2.1584  0.3603
 4972TIP3    H236552   5.333   6.886   3.093 -0.5651  0.0612 -0.9486
 4973TIP3   OH236553   0.291   5.646   1.911 -0.1513 -0.1472  0.7816
 4973TIP3    H136554   0.213   5.635   1.966 -0.0930  0.5031  1.0024
 4973TIP3    H236555   0.316   5.557   1.886 -1.7304 -0.3055 -0.3772
 4974TIP3   OH236556   6.118   3.982   8.632 -0.1375 -0.7480 -0.0468
 4974TIP3    H136557   6.154   4.025   8.710 -0.0794 -1.1612  0.1576
 4974TIP3    H236558   6.028   4.015   8.625 -0.1362 -0.6969  0.1810
 4975TIP3   OH236559   0.955   6.236   7.060 -0.4767  0.0272  0.0038
 4975TIP3    H136560   0.979   6.153   7.101  0.3303 -0.0159 -0.5360
 4975TIP3    H236561   0.894   6.276   7.122  1.6849  0.5499  1.9281
 4976TIP3   OH236562   2.455   0.417   7.912 -0.1741 -0.0612  0.4127
 4976TIP3    H136563   2.378   0.474   7.911 -0.7515 -0.8052  1.2621
 4976TIP3    H236564   2.441   0.358   7.838  1.0095  1.6004 -1.2247
 4977TIP3   OH236565   5.807   2.330   1.828 -0.1164 -0.4395  0.2926
 4977TIP3    H136566   5.891   2.326   1.782  0.2589  1.7595  0.7020
 4977TIP3    H236567   5.788   2.238   1.849  2.5869 -0.9447  0.9244
 4978TIP3   OH236568   1.099   4.180   8.326 -0.5900  0.0827 -0.1052
 4978TIP3    H136569   1.103   4.274   8.307 -0.8616 -0.2656 -1.9827
 4978TIP3    H236570   1.167   4.141   8.271 -2.1585 -1.1056 -1.2627
 4979TIP3   OH236571   5.277   2.756   2.070 -0.3592 -0.6466 -0.5724
 4979TIP3    H136572   5.269   2.808   1.990  1.3759 -1.3142 -1.2181
 4979TIP3    H236573   5.243   2.669   2.045  0.5316 -0.9608 -0.7019
 4980TIP3   OH236574   2.977   5.058   8.075  0.1638 -0.2596 -0.7300
 4980TIP3    H136575   2.952   5.143   8.039  3.2640  2.0084  1.8263
 4980TIP3    H236576   2.946   5.061   8.166  2.5412 -0.5816  0.1787
 4981TIP3   OH236577   2.122   3.820   7.147 -0.2045  0.2073 -0.0148
 4981TIP3    H136578   2.031   3.844   7.132 -0.2679 -0.9401 -1.6606
 4981TIP3    H236579   2.169   3.903   7.146 -1.0410  0.6839 -0.6519
 4982TIP3   OH236580   3.729   6.444   0.120  0.6843 -0.1797  0.0622
 4982TIP3    H136581   3.681   6.425   0.201 -1.8840 -1.0760 -1.5611
 4982TIP3    H236582   3.769   6.530   0.136 -0.0205 -0.1787  2.1382
 4983TIP3   OH236583   0.394   6.663   8.721  0.3821  0.0734  0.3987
 4983TIP3    H136584   0.390   6.687   8.813 -1.4837  1.5341 -0.0006
 4983TIP3    H236585   0.465   6.716   8.685 -1.1431  2.2063  0.3458
 4984TIP3   OH236586   0.597   3.053   2.380  0.0720 -0.4946  0.1706
 4984TIP3    H136587   0.533   2.983   2.370  0.5064 -0.8101 -0.4618
 4984TIP3    H236588   0.674   3.023   2.333  0.2110  0.4843 -0.2624
 4985TIP3   OH236589   6.593   5.373   0.083 -0.1635 -0.2123 -0.0178
 4985TIP3    H136590   6.550   5.341   0.004  1.7936  1.3798 -1.8851
 4985TIP3    H236591   6.661   5.308   0.102  0.7442  0.4156 -0.9834
 4986TIP3   OH236592   0.090   4.530   7.822  0.0250  0.3425 -0.0798
 4986TIP3    H136593   0.111   4.623   7.831  0.7960  0.4357 -2.2260
 4986TIP3    H236594   0.067   4.520   7.730 -0.8094 -1.4642  0.2848
 4987TIP3   OH236595   3.020   2.907   1.435 -0.5021 -0.2635  0.2570
 4987TIP3    H136596   3.078   2.831   1.426  0.1918  0.3686 -0.8449
 4987TIP3    H236597   2.938   2.881   1.395  0.1597 -0.0184 -1.3316
 4988TIP3   OH236598   1.815   5.373   0.678  0.3131  0.3789  0.6014
 4988TIP3    H136599   1.869   5.387   0.755 -0.2543  0.7937  0.9365
 4988TIP3    H236600   1.856   5.301   0.632 -1.1236 -2.1387  2.9652
 4989TIP3   OH236601   2.013   5.946   1.067  0.0683  0.4049  0.0205
 4989TIP3    H136602   1.953   5.889   1.019 -1.1752  0.4427  1.4423
 4989TIP3    H236603   2.085   5.889   1.092 -0.8952 -0.4482  0.9559
 4990TIP3   OH236604   1.665   3.741   0.440  0.1458 -0.4947 -0.2189
 4990TIP3    H136605   1.675   3.811   0.505  0.3925 -1.6615  1.0450
 4990TIP3    H236606   1.714   3.668   0.477 -0.3993 -1.4501 -1.3515
 4991TIP3   OH236607   1.766   0.316   1.055  0.4400 -0.3023 -1.0316
 4991TIP3    H136608   1.729   0.397   1.089  0.6513 -0.5174 -0.2880
 4991TIP3    H236609   1.840   0.298   1.112  0.2471 -1.1494 -1.0454
 4992TIP3   OH236610   4.454   0.719   2.843  0.4441 -0.6070  0.5679
 4992TIP3    H136611   4.466   0.667   2.764  0.0497  1.3737 -0.8758
 4992TIP3    H236612   4.490   0.665   2.913  2.3656 -1.7530 -1.1834
 4993TIP3   OH236613   3.464   4.421   1.748  0.2853 -0.0740 -0.2802
 4993TIP3    H136614   3.381   4.438   1.794  0.0877 -2.0875  0.2010
 4993TIP3    H236615   3.448   4.453   1.659 -1.1204 -0.6697 -0.2711
 4994TIP3   OH236616   3.951   6.113   8.196  0.5116 -0.2111 -0.1651
 4994TIP3    H136617   3.952   6.026   8.155 -0.3007  0.1565 -1.0024
 4994TIP3    H236618   4.038   6.123   8.233  0.8738 -1.0660 -0.7494
 4995TIP3   OH236619   5.083   6.372   0.634 -0.3863 -0.2856  0.2010
 4995TIP3    H136620   5.104   6.317   0.710  1.1839  1.2346  0.9556
 4995TIP3    H236621   5.075   6.460   0.671  0.8173  0.5573 -1.4291
 4996TIP3   OH236622   6.701   1.790   1.030 -1.0965 -0.2495 -0.0397
 4996TIP3    H136623   6.653   1.756   1.106  1.0379  0.7161  1.8675
 4996TIP3    H236624   6.719   1.881   1.052 -0.4471  0.0713 -1.7416
 4997TIP3   OH236625   2.392   2.133   1.821  0.4146 -0.2135  0.0102
 4997TIP3    H136626   2.329   2.063   1.806  1.5281 -1.0591 -0.8531
 4997TIP3    H236627   2.430   2.114   1.907  0.5155 -0.5187 -0.1020
 4998TIP3   OH236628   4.751   6.504   0.881 -0.2660  0.2483 -0.0684
 4998TIP3    H136629   4.734   6.593   0.912 -0.8422 -0.1022  0.6444
 4998TIP3    H236630   4.841   6.486   0.906 -0.7798 -0.1090  1.6528
 4999TIP3   OH236631   1.064   5.003   1.803  0.3169  0.4644  0.2287
 4999TIP3    H136632   1.158   4.995   1.787  0.4195  0.5762  0.7707
 4999TIP3    H236633   1.043   5.094   1.784  0.7021  0.9582  2.0511
 5000TIP3   OH236634   0.585   6.728   7.392  0.1259 -0.0263 -0.4334
 5000TIP3    H136635   0.506   6.737   7.445  0.1251  1.8287 -0.6887
 5000TIP3    H236636   0.554   6.724   7.302  0.3197  0.6291 -0.5301
 5001TIP3   OH236637   3.720   2.434   1.641  0.0049 -0.6134 -0.3648
 5001TIP3    H136638   3.681   2.502   1.587 -1.2366 -0.9932  0.0303
 5001TIP3    H236639   3.673   2.439   1.725  0.3327 -1.5291 -0.1070
 5002TIP3   OH236640   4.231   6.157   1.696 -0.7981  0.7474  0.1741
 5002TIP3    H136641   4.300   6.222   1.705 -1.1659  1.1447  0.1119
 5002TIP3    H236642   4.153   6.199   1.731 -1.1753  0.5641 -0.4392
 5003TIP3   OH236643   5.585   3.255   1.013  0.3787  0.0995  0.2556
 5003TIP3    H136644   5.524   3.317   1.053 -0.5324 -2.1419  2.6597
 5003TIP3    H236645   5.661   3.308   0.989 -0.6662  2.2488  1.4074
 5004TIP3   OH236646   3.727   1.337   0.005  0.4645 -0.0223 -0.3686
 5004TIP3    H136647   3.639   1.318  -0.028  0.1230  2.4584 -1.0461
 5004TIP3    H236648   3.726   1.305   0.096 -0.6534 -1.2201 -0.7622
 5005TIP3   OH236649   0.471   3.587   0.721  0.1652 -0.2851  1.3691
 5005TIP3    H136650   0.432   3.553   0.640  2.2776 -0.7931  0.4964
 5005TIP3    H236651   0.414   3.660   0.745 -0.5313 -0.0909 -0.6140
 5006TIP3   OH236652   0.136   2.920   2.864 -0.3611 -0.1283  0.2170
 5006TIP3    H136653   0.200   2.923   2.935 -0.3781  0.8939  0.2051
 5006TIP3    H236654   0.140   2.830   2.832  0.4459 -0.3056  0.7811
 5007TIP3   OH236655   0.560   6.338   8.734  0.0940  0.4983 -0.0064
 5007TIP3    H136656   0.634   6.320   8.792 -0.1270 -0.6195 -0.0491
 5007TIP3    H236657   0.593   6.403   8.673  1.0187  0.0926  0.0397
 5008TIP3   OH236658   1.685   4.117   0.960 -0.0275 -0.0380 -1.0672
 5008TIP3    H136659   1.652   4.034   0.996 -1.2714  0.2880 -1.4139
 5008TIP3    H236660   1.778   4.101   0.945  0.0635 -0.9020  0.2159
 5009TIP3   OH236661   6.607   2.056   0.534  0.1451  0.0211 -0.0220
 5009TIP3    H136662   6.528   2.107   0.550  0.8369  1.0053  0.3729
 5009TIP3    H236663   6.640   2.089   0.451  0.4651  0.0517  0.1150
 5010TIP3   OH236664   6.113   0.211   0.147  0.3958  0.7419  0.1197
 5010TIP3    H136665   6.114   0.167   0.232  1.0971  0.2028 -0.1504
 5010TIP3    H236666   6.021   0.221   0.126  0.2201 -0.4327  0.2864
 5011TIP3   OH236667   2.329   3.729   8.039  0.0271  0.8734 -0.0852
 5011TIP3    H136668   2.241   3.693   8.034  0.4120 -0.0483 -0.3430
 5011TIP3    H236669   2.349   3.733   8.133 -0.4774  1.5783  0.0013
 5012TIP3   OH236670   0.627   2.820   0.213  0.0261  0.5565 -0.1158
 5012TIP3    H136671   0.533   2.804   0.212 -0.1045  1.2963 -0.1459
 5012TIP3    H236672   0.649   2.827   0.306  0.0827  0.1976 -0.1030
 5013TIP3   OH236673   6.322   2.709   8.815  0.3715 -0.3416 -0.6762
 5013TIP3    H136674   6.332   2.718   8.721 -2.1506  1.3905 -0.8907
 5013TIP3    H236675   6.240   2.755   8.835  0.8497 -0.5760  2.3720
 5014TIP3   OH236676   0.765   5.603   0.383 -0.0375 -0.4801  0.4454
 5014TIP3    H136677   0.811   5.519   0.372 -0.9573 -0.9982  0.4751
 5014TIP3    H236678   0.779   5.648   0.300  0.3803 -0.7048  0.3898
 5015TIP3   OH236679   0.483   4.829   1.698 -0.4658 -0.3348  0.3127
 5015TIP3    H136680   0.504   4.736   1.698 -2.2469 -0.7968 -0.8636
 5015TIP3    H236681   0.489   4.856   1.790  0.9642 -1.3635  0.5453
 5016TIP3   OH236682   6.154   1.985   1.249 -0.6336 -0.6101  0.4069
 5016TIP3    H136683   6.062   1.965   1.234 -0.2848 -0.8883 -1.6254
 5016TIP3    H236684   6.201   1.934   1.184  0.7686  1.5584 -0.4012
 5017TIP3   OH236685   0.747   1.806   1.220  0.3274  0.1200 -0.0283
 5017TIP3    H136686   0.709   1.882   1.175  0.6183  0.3288  0.0745
 5017TIP3    H236687   0.717   1.731   1.170 -0.0123  0.2999 -0.0995
 5018TIP3   OH236688   4.645   5.861   1.332 -0.2363 -0.0693 -0.1109
 5018TIP3    H136689   4.568   5.917   1.339 -0.0800  0.2502 -0.8699
 5018TIP3    H236690   4.639   5.803   1.408 -0.2739  1.1333  0.8502
 5019TIP3   OH236691   5.258   3.144   2.889  0.5430  0.4649  0.3217
 5019TIP3    H136692   5.335   3.106   2.932  0.8942  2.9638  2.0918
 5019TIP3    H236693   5.193   3.073   2.889  0.8444  0.0070  4.2473
 5020TIP3   OH236694   0.213   6.256   0.567 -0.0787 -0.1440 -0.0415
 5020TIP3    H136695   0.164   6.209   0.635 -0.7002  0.1634 -0.2586
 5020TIP3    H236696   0.165   6.339   0.558  1.1408  0.6583  0.5277
 5021TIP3   OH236697   4.318   4.845   0.058  0.0439  0.0938 -0.3584
 5021TIP3    H136698   4.284   4.933   0.070  1.6666  0.8637 -1.0106
 5021TIP3    H236699   4.291   4.797   0.136 -0.1138  1.4190  0.4231
 5022TIP3   OH236700   5.017   6.778   7.567  0.3230  0.3752 -0.1443
 5022TIP3    H136701   4.980   6.861   7.537  1.4769  0.0600 -2.7214
 5022TIP3    H236702   5.110   6.796   7.580  0.6802 -0.5846 -1.2017
 5023TIP3   OH236703   1.767   6.117   2.157  0.3743 -0.0710 -0.1570
 5023TIP3    H136704   1.803   6.059   2.224  1.7031  0.8261 -0.0571
 5023TIP3    H236705   1.787   6.205   2.188 -1.5146  0.4673 -0.3588
 5024TIP3   OH236706   6.730   5.553   1.693  0.1418  0.0789  0.0861
 5024TIP3    H136707   6.801   5.491   1.709  1.1231  1.0222 -0.4685
 5024TIP3    H236708   6.770   5.622   1.639 -1.7522 -0.5081 -2.2416
 5025TIP3   OH236709   6.235   0.876   0.525  0.3821 -0.4667  0.0629
 5025TIP3    H136710   6.326   0.846   0.518  0.3148 -0.7243  0.2855
 5025TIP3    H236711   6.220   0.923   0.443  0.2849 -1.6102 -0.6092
 5026TIP3   OH236712   1.002   3.829   1.426 -0.5222 -0.2053 -0.0207
 5026TIP3    H136713   1.084   3.800   1.385 -0.2333 -0.1147  0.4846
 5026TIP3    H236714   1.017   3.922   1.446 -1.3229  0.2355 -1.3375
 5027TIP3   OH236715   4.235   0.152   1.176  0.0235 -0.1390 -0.1308
 5027TIP3    H136716   4.167   0.200   1.223 -0.1448 -0.8466  0.3617
 5027TIP3    H236717   4.316   0.175   1.221  0.3333  1.7257 -1.5050
 5028TIP3   OH236718   0.341   5.056   7.472 -0.2451 -0.3963  0.3152
 5028TIP3    H136719   0.309   5.012   7.393  0.6059 -1.8618  0.7529
 5028TIP3    H236720   0.384   5.135   7.440  0.1642 -1.0129 -0.7129
 5029TIP3   OH236721   3.176   4.005   0.838 -0.3025 -0.3554 -0.1325
 5029TIP3    H136722   3.232   4.078   0.867 -1.4991  0.9434 -0.9456
 5029TIP3    H236723   3.206   3.987   0.749  0.1020 -0.9802  0.1287
 5030TIP3   OH236724   0.450   0.166   1.665  0.1551  0.2347  0.4015
 5030TIP3    H136725   0.539   0.147   1.634  0.2800  0.7229  0.4489
 5030TIP3    H236726   0.457   0.252   1.707 -0.6934  1.1400 -1.1998
 5031TIP3   OH236727   5.508   1.558   8.194 -0.1221  0.6610  0.1574
 5031TIP3    H136728   5.459   1.489   8.150  1.4066 -0.0658 -0.4921
 5031TIP3    H236729   5.543   1.611   8.122  0.8158  0.5947  0.5508
 5032TIP3   OH236730   1.802   5.766   1.270 -0.0540 -0.2473 -0.0989
 5032TIP3    H136731   1.839   5.780   1.183  1.4962 -0.7540  0.4462
 5032TIP3    H236732   1.833   5.679   1.295  1.8022  0.9443  2.0375
 5033TIP3   OH236733   4.985   0.241   1.789 -0.2254  0.5531 -0.2604
 5033TIP3    H136734   5.074   0.238   1.825 -0.9279  0.3332  1.5078
 5033TIP3    H236735   4.992   0.302   1.715  1.7552 -0.7707 -1.2540
 5034TIP3   OH236736   2.033   4.667   1.663 -0.3163  0.2645  0.1658
 5034TIP3    H136737   2.033   4.755   1.700  1.4482 -0.2866  1.6379
 5034TIP3    H236738   1.953   4.663   1.611 -0.1513  2.9002 -0.4137
 5035TIP3   OH236739   2.472   3.149   1.952 -0.1735  0.8029 -0.2417
 5035TIP3    H136740   2.431   3.129   2.036  1.1422 -0.0825  0.2196
 5035TIP3    H236741   2.565   3.134   1.967  0.0004 -0.2747 -2.1168
 5036TIP3   OH236742   2.236   3.214   7.367  0.2778 -0.3615  0.3736
 5036TIP3    H136743   2.319   3.172   7.391 -0.4339 -1.7798  0.5072
 5036TIP3    H236744   2.169   3.153   7.399 -0.7870 -0.1476 -1.3336
 5037TIP3   OH236745   4.518   1.678   1.827 -0.2365  0.3633  0.0677
 5037TIP3    H136746   4.552   1.604   1.878  1.7539  1.1074 -0.0999
 5037TIP3    H236747   4.508   1.643   1.738 -0.3701 -0.0006  0.2240
 5038TIP3   OH236748   4.668   4.300   1.720  0.8984  0.3568  0.2224
 5038TIP3    H136749   4.655   4.380   1.668  0.8812 -0.9848 -1.9810
 5038TIP3    H236750   4.744   4.257   1.679  0.9070 -0.7588  1.3496
 5039TIP3   OH236751   6.048   6.145   0.426  0.0416  0.5247  0.2812
 5039TIP3    H136752   6.016   6.185   0.345  0.3123  0.5893  0.2038
 5039TIP3    H236753   5.987   6.175   0.493  0.0910  0.8576  0.1790
 5040TIP3   OH236754   4.176   1.580   8.353 -0.5633 -0.2512  0.4314
 5040TIP3    H136755   4.268   1.601   8.337 -1.1100  1.6942 -0.4377
 5040TIP3    H236756   4.148   1.533   8.274 -0.8211  1.0335 -0.2767
 5041TIP3   OH236757   0.587   0.600   7.484  0.4985 -0.0489  0.1635
 5041TIP3    H136758   0.609   0.516   7.445 -0.6706  0.3471 -1.4739
 5041TIP3    H236759   0.662   0.621   7.540  0.3879 -2.6029  1.4223
 5042TIP3   OH236760   1.512   1.106   0.132  0.1890 -0.0421  0.0287
 5042TIP3    H136761   1.538   1.016   0.113  0.6049  0.3583 -1.4097
 5042TIP3    H236762   1.592   1.157   0.123 -0.2055  0.5849 -0.0273
 5043TIP3   OH236763   6.742   3.081   0.827  0.2510 -0.0431  0.3732
 5043TIP3    H136764   6.672   3.053   0.887  0.3388 -0.0787  0.4586
 5043TIP3    H236765   6.811   3.115   0.885  0.0284  0.6223  0.2622
 5044TIP3   OH236766   4.303   1.158   1.756  0.4487 -0.2496 -0.2815
 5044TIP3    H136767   4.216   1.171   1.792  0.2056 -1.5036 -0.3433
 5044TIP3    H236768   4.320   1.064   1.769  1.2276 -0.2944 -1.4626
 5045TIP3   OH236769   3.477   6.263   8.374 -0.2562 -0.5418  0.0019
 5045TIP3    H136770   3.445   6.336   8.320 -1.0270 -0.7770  0.1184
 5045TIP3    H236771   3.562   6.240   8.336  1.3053  2.1435  1.5945
 5046TIP3   OH236772   6.091   2.952   1.565  0.1249  0.2416 -0.7373
 5046TIP3    H136773   6.013   2.914   1.605  0.0654  1.0195 -0.0934
 5046TIP3    H236774   6.061   2.985   1.480 -0.5619  1.6382  0.0096
 5047TIP3   OH236775   4.078   2.635   8.582  0.1410  0.1068  0.9595
 5047TIP3    H136776   4.067   2.717   8.533 -0.7061 -0.8801 -0.5825
 5047TIP3    H236777   4.169   2.638   8.612  0.9914  0.4537 -1.3888
 5048TIP3   OH236778   6.275   2.262   6.944 -0.9796  0.3794 -0.1841
 5048TIP3    H136779   6.299   2.353   6.962  0.6398  0.5867 -2.7547
 5048TIP3    H236780   6.216   2.268   6.868 -1.3133 -0.7075 -0.0290
 5049TIP3   OH236781   5.788   2.466   0.033 -0.3303  0.1048 -0.6321
 5049TIP3    H136782   5.761   2.449  -0.057 -1.4971 -0.0611 -0.2743
 5049TIP3    H236783   5.760   2.556   0.050 -0.7909 -0.1112 -0.2108
 5050TIP3   OH236784   0.063   5.232   0.409 -0.2790  0.5182 -0.6245
 5050TIP3    H136785   0.027   5.200   0.492 -0.8092  2.7134  0.0656
 5050TIP3    H236786   0.122   5.303   0.434  1.5664 -0.4627 -2.0146
 5051TIP3   OH236787   0.464   5.740   2.135  0.3932 -0.3010 -0.0946
 5051TIP3    H136788   0.402   5.708   2.069 -0.3458  1.5944 -0.3687
 5051TIP3    H236789   0.528   5.791   2.085  0.3740  0.3659  0.5465
 5052TIP3   OH236790   5.026   6.058   7.019 -0.9805 -0.1919  0.9431
 5052TIP3    H136791   5.089   5.988   7.002 -0.7700 -0.7821  3.7532
 5052TIP3    H236792   4.941   6.017   7.010 -0.8642 -0.6963  2.1018
 5053TIP3   OH236793   2.912   0.809   1.457 -0.4568  0.8868 -0.1997
 5053TIP3    H136794   2.943   0.879   1.514  0.1471  0.5951 -0.1535
 5053TIP3    H236795   2.942   0.729   1.500  0.4405  0.6788 -1.1584
 5054TIP3   OH236796   3.938   4.611   8.105  0.3253 -0.1618  0.4426
 5054TIP3    H136797   3.874   4.585   8.172  1.6087 -1.6478  1.1638
 5054TIP3    H236798   3.995   4.534   8.096  0.6362  0.2907 -1.8412
 5055TIP3   OH236799   1.213   6.278   1.761 -0.3008 -0.2124  0.4145
 5055TIP3    H136800   1.185   6.268   1.670  0.3964 -2.8629  0.4162
 5055TIP3    H236801   1.224   6.189   1.793 -1.0718  0.6379  3.3179
 5056TIP3   OH236802   4.452   1.596   1.273  0.6399  0.3571 -0.4153
 5056TIP3    H136803   4.400   1.526   1.235  0.4521  0.6478 -0.7072
 5056TIP3    H236804   4.536   1.592   1.227  0.3668  0.7925 -0.9742
 5057TIP3   OH236805   4.949   1.143   2.343  0.2064  0.0275  0.0091
 5057TIP3    H136806   4.867   1.120   2.299  0.6002  2.3400 -2.0918
 5057TIP3    H236807   5.016   1.094   2.296  0.3874  0.8303 -0.5864
 5058TIP3   OH236808   5.486   2.396   2.066 -0.2784 -0.6494 -0.2580
 5058TIP3    H136809   5.487   2.483   2.106 -0.2327  0.7385 -3.0486
 5058TIP3    H236810   5.554   2.401   1.999 -0.5557 -2.7463 -0.7358
 5059TIP3   OH236811   2.260   3.460   1.114 -0.3742  0.3386 -0.2135
 5059TIP3    H136812   2.220   3.530   1.063 -2.0295 -1.1205 -1.0042
 5059TIP3    H236813   2.312   3.411   1.051  0.4835  0.5876  0.2672
 5060TIP3   OH236814   0.603   0.085   7.121 -0.6965  0.1781  0.4027
 5060TIP3    H136815   0.527   0.100   7.065  0.1840 -3.2911 -2.0737
 5060TIP3    H236816   0.600   0.156   7.184 -3.5882  2.6102 -2.1147
 5061TIP3   OH236817   3.549   6.224   0.114 -0.2802 -0.3722  0.2477
 5061TIP3    H136818   3.500   6.262   0.187 -0.3394  0.6298 -0.2959
 5061TIP3    H236819   3.606   6.295   0.084  0.0475 -0.9022 -0.4184
 5062TIP3   OH236820   1.480   4.763   1.534 -0.1103  0.1334 -0.1404
 5062TIP3    H136821   1.450   4.822   1.465 -0.8236  0.8197  0.7375
 5062TIP3    H236822   1.404   4.708   1.553  0.4668 -0.9299 -0.7703
 5063TIP3   OH236823   4.392   5.141   6.999  0.4763  0.0306 -0.0710
 5063TIP3    H136824   4.314   5.176   7.043 -0.5258 -0.7726 -1.1278
 5063TIP3    H236825   4.397   5.189   6.917  0.5696 -0.5198 -0.3931
 5064TIP3   OH236826   3.536   4.707   8.420 -0.2971  0.2615  0.3050
 5064TIP3    H136827   3.455   4.664   8.393  0.1416  0.0258 -0.7232
 5064TIP3    H236828   3.546   4.780   8.358  2.3140 -2.0868 -2.4008
 5065TIP3   OH236829   5.743   0.647   1.941 -0.2147 -0.2118  0.0728
 5065TIP3    H136830   5.769   0.640   2.033  2.2103  1.9253 -0.3494
 5065TIP3    H236831   5.758   0.559   1.905  0.9007 -0.5206  1.2257
 5066TIP3   OH236832   0.259   2.724   2.168 -0.3238 -0.1692  0.9321
 5066TIP3    H136833   0.252   2.694   2.077 -1.8124 -0.3544  1.0761
 5066TIP3    H236834   0.350   2.753   2.177 -0.2611  0.2835 -0.7534
 5067TIP3   OH236835   5.711   4.427   0.244  0.5634 -0.0359  0.0741
 5067TIP3    H136836   5.805   4.415   0.242  0.8344  1.1597  2.2486
 5067TIP3    H236837   5.698   4.522   0.247 -0.4145 -0.1100  3.8121
 5068TIP3   OH236838   5.817   3.072   2.822  0.5274 -0.0791 -0.2067
 5068TIP3    H136839   5.885   3.112   2.769  0.1348  0.3782 -0.3722
 5068TIP3    H236840   5.855   3.069   2.910  0.5788  0.6254 -0.1986
 5069TIP3   OH236841   5.521   2.891   0.668 -0.3114  0.2333  0.0656
 5069TIP3    H136842   5.549   2.977   0.698  0.5136 -0.1278  0.3559
 5069TIP3    H236843   5.502   2.903   0.575  1.2971  0.4096 -0.2721
 5070TIP3   OH236844   6.236   2.523   7.593 -0.1265 -0.3149 -0.6580
 5070TIP3    H136845   6.177   2.599   7.596  0.4145  0.0981 -0.1759
 5070TIP3    H236846   6.304   2.548   7.530 -0.1723 -0.5679 -0.8085
 5071TIP3   OH236847   4.335   1.194   0.168 -0.4731  0.2473  0.4633
 5071TIP3    H136848   4.276   1.229   0.234 -1.5858 -2.2890  0.9398
 5071TIP3    H236849   4.277   1.157   0.101  0.6036 -0.2441 -0.2341
 5072TIP3   OH236850   1.817   1.630   1.738 -0.1416  0.0331 -0.2596
 5072TIP3    H136851   1.778   1.545   1.756  2.3746 -1.3838 -1.0432
 5072TIP3    H236852   1.911   1.617   1.750  0.3408  2.6808 -0.5364
 5073TIP3   OH236853   5.364   5.339   8.193 -0.2801  0.3768 -0.2848
 5073TIP3    H136854   5.311   5.363   8.117 -0.9408  0.3674  0.1646
 5073TIP3    H236855   5.365   5.417   8.248 -0.9612 -0.0376  0.3423
 5074TIP3   OH236856   0.299   0.654   2.396  0.0527 -0.3706 -0.2079
 5074TIP3    H136857   0.249   0.609   2.327  1.1035 -0.8389 -0.6852
 5074TIP3    H236858   0.370   0.698   2.349  0.2996 -0.0140  0.4994
 5075TIP3   OH236859   0.104   5.005   2.724 -0.2767  0.3453  0.1968
 5075TIP3    H136860   0.130   5.059   2.799 -0.2343  0.7688 -0.1231
 5075TIP3    H236861   0.182   4.999   2.670 -0.0536 -0.6811  0.6010
 5076TIP3   OH236862   0.180   0.444   7.408  0.2232 -0.0144 -0.3105
 5076TIP3    H136863   0.219   0.485   7.331 -0.4614  0.5824 -0.3422
 5076TIP3    H236864   0.104   0.397   7.375 -0.0881  0.2624  0.0090
 5077TIP3   OH236865   5.082   5.310   0.752 -0.1814  0.0138  0.0433
 5077TIP3    H136866   5.078   5.305   0.848  0.4345 -1.5248  0.0235
 5077TIP3    H236867   4.992   5.292   0.724 -0.0083 -1.4713  0.3242
 5078TIP3   OH236868   4.992   1.916   0.334  0.5809  0.5920  0.1701
 5078TIP3    H136869   5.026   1.925   0.245  0.3115  0.3568  0.0424
 5078TIP3    H236870   4.990   1.822   0.350 -1.6738  0.4892 -0.4853
 5079TIP3   OH236871   4.377   0.975   2.882  0.8557 -0.0060 -0.9468
 5079TIP3    H136872   4.402   0.884   2.864  0.2182 -0.4927  0.4865
 5079TIP3    H236873   4.308   0.994   2.818 -1.0974 -1.5604  0.5615
 5080TIP3   OH236874   4.971   2.111   1.144 -0.2641 -0.3833  0.3367
 5080TIP3    H136875   5.003   2.090   1.232  1.4607 -3.0014 -0.7929
 5080TIP3    H236876   5.042   2.164   1.106  0.8074 -2.4338 -0.6679
 5081TIP3   OH236877   1.138   1.139   0.232 -0.0126  0.5500  0.3328
 5081TIP3    H136878   1.074   1.073   0.206  0.5101 -0.2672  1.0682
 5081TIP3    H236879   1.111   1.218   0.185 -0.2042 -0.3644 -1.1827
 5082TIP3   OH236880   2.400   6.163   7.044 -0.0719 -0.5540  0.0949
 5082TIP3    H136881   2.443   6.249   7.049 -1.2189 -0.0020  1.4458
 5082TIP3    H236882   2.463   6.102   7.082  1.3992 -0.6550 -2.2756
 5083TIP3   OH236883   4.693   5.041   8.084  0.3212 -0.2371  0.5056
 5083TIP3    H136884   4.707   5.012   8.174 -2.2204 -2.2499  0.3496
 5083TIP3    H236885   4.714   4.964   8.031 -0.8866  0.0344 -0.4029
 5084TIP3   OH236886   1.563   6.815   8.453 -0.0268  0.4006  0.1942
 5084TIP3    H136887   1.530   6.795   8.366 -0.6022  0.3926  0.4099
 5084TIP3    H236888   1.498   6.875   8.490 -0.2139 -0.2242  0.9122
 5085TIP3   OH236889   6.587   0.998   0.637  0.0114 -0.3418 -0.9146
 5085TIP3    H136890   6.552   1.086   0.622  0.0016 -0.3856 -1.1542
 5085TIP3    H236891   6.622   1.000   0.726  1.3614  0.3503 -1.4371
 5086TIP3   OH236892   2.757   6.044   1.353 -0.3351  0.1150 -0.1095
 5086TIP3    H136893   2.670   6.023   1.389 -0.7498  1.3769 -0.3517
 5086TIP3    H236894   2.747   6.031   1.258 -0.5846  1.3187 -0.2587
 5087TIP3   OH236895   0.603   3.159   8.373  0.1433  0.0207  0.0610
 5087TIP3    H136896   0.645   3.165   8.459  0.7330  0.5240 -0.2500
 5087TIP3    H236897   0.603   3.065   8.353 -1.7171 -0.3026  1.4217
 5088TIP3   OH236898   6.468   1.476   8.218  0.0048 -0.0531 -0.1545
 5088TIP3    H136899   6.483   1.486   8.124 -1.4311 -0.8583 -0.4996
 5088TIP3    H236900   6.453   1.565   8.249 -0.7901  0.0975 -0.9408
 5089TIP3   OH236901   0.802   1.276   8.432 -0.5197 -0.1805 -0.2399
 5089TIP3    H136902   0.759   1.190   8.434 -1.3339  0.0520 -3.0907
 5089TIP3    H236903   0.747   1.332   8.486 -1.4447 -0.8757 -0.4298
 5090TIP3   OH236904   4.508   2.184   2.107  0.0068 -0.1920 -0.2495
 5090TIP3    H136905   4.528   2.094   2.133  0.0850  0.0058  0.3925
 5090TIP3    H236906   4.436   2.210   2.165 -2.0244 -0.7976 -2.3242
 5091TIP3   OH236907   4.446   0.299   0.252 -0.2367  0.3412 -0.6704
 5091TIP3    H136908   4.460   0.343   0.168  2.1381 -0.3024 -0.6782
 5091TIP3    H236909   4.497   0.350   0.314 -1.6163  0.5504  0.3443
 5092TIP3   OH236910   4.050   6.536   7.797  0.4531  0.5631  0.2312
 5092TIP3    H136911   4.125   6.580   7.756  0.4550  0.1945 -0.1699
 5092TIP3    H236912   3.983   6.534   7.728  1.0737 -1.6614 -0.3755
 5093TIP3   OH236913   6.402   0.506   2.987 -0.3267  0.3544 -0.3920
 5093TIP3    H136914   6.346   0.503   3.065  0.4668 -0.0179  0.1751
 5093TIP3    H236915   6.485   0.468   3.016  0.3103  1.1351 -1.1436
 5094TIP3   OH236916   0.162   0.037   7.645  0.2861 -0.4911  0.2817
 5094TIP3    H136917   0.102   0.087   7.590  0.1830  1.2653  1.9060
 5094TIP3    H236918   0.117  -0.047   7.659 -0.7994 -0.0140 -0.2416
 5095TIP3   OH236919   1.491   6.797   0.665  0.1272  0.0746  0.1855
 5095TIP3    H136920   1.479   6.769   0.756  4.5729 -1.7889  0.4205
 5095TIP3    H236921   1.531   6.884   0.672 -0.9785  0.6284 -0.1139
 5096TIP3   OH236922   1.891   4.844   8.537 -0.3655 -0.1879  0.3259
 5096TIP3    H136923   1.870   4.808   8.451  0.2868 -1.2457  0.5831
 5096TIP3    H236924   1.848   4.785   8.599  2.7391 -2.1532  0.8516
 5097TIP3   OH236925   5.368   5.802   0.175  0.1955 -0.0832  0.2869
 5097TIP3    H136926   5.426   5.730   0.200  0.5178  0.1600  0.2455
 5097TIP3    H236927   5.428   5.872   0.149 -0.1305 -0.2943 -1.0950
 5098TIP3   OH236928   5.280   5.399   6.720 -0.4281 -0.2551 -0.9054
 5098TIP3    H136929   5.230   5.398   6.639  0.1018  2.0251 -1.3263
 5098TIP3    H236930   5.371   5.387   6.693 -0.0917  1.8087 -0.8600
 5099TIP3   OH236931   0.483   1.393   1.806 -0.3072  0.1685  0.4596
 5099TIP3    H136932   0.432   1.473   1.794  1.3559  1.5653  2.0693
 5099TIP3    H236933   0.449   1.333   1.740 -2.3577  1.8170 -0.0923
 5100TIP3   OH236934   2.029   1.510   1.314 -0.4241 -0.3128 -0.0542
 5100TIP3    H136935   2.031   1.445   1.243  1.0998  0.9564 -1.2292
 5100TIP3    H236936   1.982   1.584   1.277 -0.1243  0.1457  0.4738
 5101TIP3   OH236937   1.276   4.448   7.448  0.5859 -0.0390  0.2888
 5101TIP3    H136938   1.325   4.370   7.419 -2.7937 -2.8766  1.4301
 5101TIP3    H236939   1.306   4.462   7.538  2.4287  1.1847 -0.4505
 5102TIP3   OH236940   5.628   5.943   0.117  0.3184  0.4808 -0.6301
 5102TIP3    H136941   5.713   5.902   0.098  0.3134  0.1608  0.0167
 5102TIP3    H236942   5.640   5.987   0.201 -0.3373 -0.1172 -0.2056
 5103TIP3   OH236943   2.927   6.819   2.694  0.5896 -0.0225  0.0680
 5103TIP3    H136944   2.985   6.879   2.739  1.1257 -0.3877 -0.1309
 5103TIP3    H236945   2.846   6.869   2.681  0.4339  0.1014  1.3796
 5104TIP3   OH236946   2.594   5.373   2.505 -0.1141  0.3371  0.7719
 5104TIP3    H136947   2.609   5.311   2.576 -1.3472  0.4581  1.1608
 5104TIP3    H236948   2.532   5.437   2.541 -0.6095  0.5137 -0.3444
 5105TIP3   OH236949   5.361   6.522   8.322 -0.1187  0.2735  0.1539
 5105TIP3    H136950   5.278   6.569   8.334 -0.4682 -0.1426 -0.6060
 5105TIP3    H236951   5.403   6.565   8.248  0.7766  1.0654  1.0941
 5106TIP3   OH236952   5.995   4.448   0.157 -0.0066 -0.1416  0.2183
 5106TIP3    H136953   6.054   4.519   0.132  0.3979 -0.5215  0.0739
 5106TIP3    H236954   6.042   4.401   0.225 -0.4574 -0.0197  0.6208
 5107TIP3   OH236955   4.137   3.021   0.454 -0.3590  0.2911  0.2227
 5107TIP3    H136956   4.209   2.961   0.437  0.7528  1.8242 -0.7589
 5107TIP3    H236957   4.066   2.965   0.486 -0.2000 -1.9401 -2.8495
 5108TIP3   OH236958   6.298   5.838   1.392 -0.2000 -0.2098  0.4803
 5108TIP3    H136959   6.282   5.871   1.303  0.0873 -0.3984  0.3581
 5108TIP3    H236960   6.346   5.909   1.435  0.1391 -0.3435  0.3169
 5109TIP3   OH236961   3.081   6.679   0.875  0.1288  0.0388  0.0816
 5109TIP3    H136962   3.169   6.650   0.850 -0.3852 -1.9604  0.3931
 5109TIP3    H236963   3.090   6.710   0.965  0.9323  2.1427 -0.6592
 5110TIP3   OH236964   3.048   3.475   8.464 -0.1832  0.0041  0.0632
 5110TIP3    H136965   3.066   3.553   8.412 -0.6154  0.3688  0.4444
 5110TIP3    H236966   3.003   3.508   8.541  0.9718 -0.4622  0.9641
 5111TIP3   OH236967   2.829   1.076   0.723 -0.8148 -0.3500  0.9614
 5111TIP3    H136968   2.861   0.986   0.716 -1.5846 -0.7878  2.4975
 5111TIP3    H236969   2.737   1.070   0.698 -0.5633  0.2748 -0.1823
 5112TIP3   OH236970   5.570   0.405   7.394 -0.2363  0.3884  0.3569
 5112TIP3    H136971   5.531   0.471   7.336  0.6071  0.6740  0.1006
 5112TIP3    H236972   5.547   0.434   7.482  0.2295  1.0879  0.2517
 5113TIP3   OH236973   0.819   6.516   7.206  0.2867 -0.0074  0.4499
 5113TIP3    H136974   0.828   6.602   7.165 -0.2624 -0.2764 -0.2422
 5113TIP3    H236975   0.900   6.505   7.257  0.8290  0.4741 -0.2967
 5114TIP3   OH236976   3.873   1.491   8.677 -0.6950  0.0692 -0.0238
 5114TIP3    H136977   3.853   1.406   8.717 -0.0716 -0.0168  0.1224
 5114TIP3    H236978   3.969   1.493   8.673 -0.7234  0.5305 -0.5444
 5115TIP3   OH236979   4.402   6.748   1.283  0.6096  0.1026  0.6388
 5115TIP3    H136980   4.338   6.715   1.220  0.5569 -1.3813  1.4153
 5115TIP3    H236981   4.462   6.802   1.232 -1.0752  1.2981 -0.1645
 5116TIP3   OH236982   0.182   0.339   7.048 -0.0072 -0.1061  0.0210
 5116TIP3    H136983   0.101   0.339   7.099  0.2385  1.4041  0.4557
 5116TIP3    H236984   0.226   0.421   7.072  0.8966 -0.1449 -1.3862
 5117TIP3   OH236985   0.434   3.298   1.549  0.1906  0.3180 -1.0160
 5117TIP3    H136986   0.414   3.205   1.536 -2.6693  0.6031  0.5389
 5117TIP3    H236987   0.478   3.325   1.468 -1.8859 -1.6237 -2.9273
 5118TIP3   OH236988   4.883   5.078   2.467 -0.1379 -0.3312 -0.1585
 5118TIP3    H136989   4.880   5.163   2.423 -1.3440 -0.3862 -0.2119
 5118TIP3    H236990   4.965   5.079   2.516 -0.0739  0.8031 -0.2739
 5119TIP3   OH236991   3.877   5.358   0.880 -0.0150 -0.2982 -0.1622
 5119TIP3    H136992   3.957   5.308   0.862  0.6895  1.0653 -0.9572
 5119TIP3    H236993   3.901   5.415   0.954  0.5210  1.6861 -1.7677
 5120TIP3   OH236994   4.659   4.468   7.758  0.1777  0.4145 -0.1388
 5120TIP3    H136995   4.749   4.439   7.755  1.0159  2.6693  0.7425
 5120TIP3    H236996   4.621   4.439   7.675  1.1903 -1.9921  0.1843
 5121TIP3   OH236997   0.897   6.282   1.054  0.0259  0.1698 -0.7490
 5121TIP3    H136998   0.973   6.331   1.025 -0.2212  2.5188  2.1259
 5121TIP3    H236999   0.825   6.315   1.000  0.1558  1.8962  0.0756
 5122TIP3   OH237000   6.004   5.809   1.057  0.2158  0.7280 -0.1187
 5122TIP3    H137001   6.075   5.859   1.096 -0.1785  0.5196  0.9020
 5122TIP3    H237002   5.960   5.871   0.999  1.8223  0.5842 -1.5689
 5123TIP3   OH237003   1.930   4.808   3.034  0.0340 -0.3777 -0.1511
 5123TIP3    H137004   1.851   4.860   3.048  0.9364  0.9377  0.2400
 5123TIP3    H237005   1.942   4.805   2.939  0.3824  0.7873 -0.1508
 5124TIP3   OH237006   4.469   6.295   2.722 -0.0055  0.3269 -0.7848
 5124TIP3    H137007   4.442   6.244   2.798  0.7106 -1.3009 -1.5773
 5124TIP3    H237008   4.389   6.305   2.670 -0.2802  0.5727 -0.3233
 5125TIP3   OH237009   0.904   4.200   0.226 -0.7579 -0.2674 -0.1034
 5125TIP3    H137010   0.908   4.137   0.154 -1.1278 -0.6636  0.2107
 5125TIP3    H237011   0.812   4.201   0.251 -1.3177  2.4059 -1.8239
 5126TIP3   OH237012   6.314   3.976   0.543 -0.0093  0.4360  0.0085
 5126TIP3    H137013   6.349   3.981   0.632  1.2630 -0.1325 -0.4289
 5126TIP3    H237014   6.382   3.930   0.494 -0.1614  1.7537 -1.5237
 5127TIP3   OH237015   0.265   2.723   1.857 -0.1345 -0.1725  0.5387
 5127TIP3    H137016   0.183   2.687   1.892 -1.3403  0.3934 -1.5223
 5127TIP3    H237017   0.258   2.711   1.763  2.0733  0.1348  0.2865
 5128TIP3   OH237018   4.984   1.763   8.815 -0.3208 -0.0467 -0.4675
 5128TIP3    H137019   4.966   1.854   8.841  0.8995  0.0242  0.2196
 5128TIP3    H237020   4.897   1.725   8.800 -1.1261  0.2349  2.6930
 5129TIP3   OH237021   1.384   3.753   1.559  0.3509  0.6444 -0.2639
 5129TIP3    H137022   1.329   3.776   1.484 -0.0250  0.0252 -0.1907
 5129TIP3    H237023   1.450   3.694   1.522 -0.2046 -0.1603 -0.0136
 5130TIP3   OH237024   2.300   4.069   1.400 -0.3074 -0.6950 -0.0914
 5130TIP3    H137025   2.247   4.070   1.321  1.2953 -0.8554 -1.2192
 5130TIP3    H237026   2.384   4.030   1.373  0.5207 -0.1635  1.5294
 5131TIP3   OH237027   6.547   6.185   8.670 -0.3044  0.0194 -0.2392
 5131TIP3    H137028   6.536   6.096   8.635 -0.5280  0.0507 -0.2442
 5131TIP3    H237029   6.474   6.196   8.731 -2.4508  1.5330 -2.8649
 5132TIP3   OH237030   2.129   0.278   2.619  0.6415  0.1695 -0.4665
 5132TIP3    H137031   2.102   0.281   2.527 -1.7243  2.0688  0.1828
 5132TIP3    H237032   2.078   0.206   2.656  1.1999 -0.2547 -0.5080
 5133TIP3   OH237033   6.711   5.058   8.224  0.1048  0.4812  0.0167
 5133TIP3    H137034   6.676   5.139   8.261  0.1135  0.4814  0.0247
 5133TIP3    H237035   6.633   5.011   8.192  0.3001  1.8718 -2.8249
 5134TIP3   OH237036   0.749   6.617   1.731  0.3323  0.5135 -0.0923
 5134TIP3    H137037   0.735   6.577   1.645  0.9259  0.1770 -0.0422
 5134TIP3    H237038   0.842   6.637   1.733  0.2697  0.7692  0.3692
 5135TIP3   OH237039   3.840   6.487   2.514 -0.3478 -0.3526  0.0527
 5135TIP3    H137040   3.792   6.560   2.474 -0.6294 -1.0606 -0.9551
 5135TIP3    H237041   3.773   6.420   2.527  0.0162 -0.6388  0.4397
 5136TIP3   OH237042   5.840   4.676   1.742  0.5301 -0.0977  0.6528
 5136TIP3    H137043   5.887   4.720   1.671 -0.4429 -0.8158 -0.4804
 5136TIP3    H237044   5.908   4.631   1.792  1.1275 -0.5843 -0.5628
 5137TIP3   OH237045   0.831   5.065   7.876 -0.2641  0.2795 -0.0971
 5137TIP3    H137046   0.793   5.149   7.899 -2.1241 -0.5023 -0.1374
 5137TIP3    H237047   0.755   5.008   7.859  0.9320 -1.4429  0.0809
 5138TIP3   OH237048   0.147   6.649   0.556 -0.1937 -0.2124  0.2795
 5138TIP3    H137049   0.154   6.657   0.461 -0.9693 -1.2561  0.1159
 5138TIP3    H237050   0.073   6.589   0.570 -0.7795  0.7626  1.5693
 5139TIP3   OH237051   1.076   5.903   2.038  0.3475  0.2891  0.3068
 5139TIP3    H137052   1.166   5.874   2.049  0.0027 -1.1946 -0.5368
 5139TIP3    H237053   1.023   5.828   2.066 -0.6179  0.8397  0.0076
 5140TIP3   OH237054   5.751   0.503   8.411 -0.8852  0.2297 -0.1016
 5140TIP3    H137055   5.815   0.560   8.453  1.0655 -1.6767 -0.3262
 5140TIP3    H237056   5.752   0.423   8.464 -1.2714 -0.7604 -1.5315
 5141TIP3   OH237057   2.040   0.291   8.535  0.0778 -0.0893  0.1147
 5141TIP3    H137058   1.956   0.254   8.561  0.6984  0.1338  2.8100
 5141TIP3    H237059   2.045   0.375   8.582  2.1982 -0.5880  0.9125
 5142TIP3   OH237060   3.519   4.282   7.648  0.1168 -0.1553 -0.2218
 5142TIP3    H137061   3.492   4.242   7.730 -0.8413  0.1708 -0.3701
 5142TIP3    H237062   3.446   4.267   7.588  0.9361 -0.6875 -1.1276
 5143TIP3   OH237063   6.273   2.103   1.952 -0.0469 -0.1415 -0.0280
 5143TIP3    H137064   6.296   2.191   1.923 -0.1128  0.2416  1.0337
 5143TIP3    H237065   6.266   2.052   1.871 -2.4949  1.3911 -0.8850
 5144TIP3   OH237066   0.201   1.204   1.346  0.2268 -0.0026 -0.1216
 5144TIP3    H137067   0.293   1.225   1.330 -0.0853  0.1306 -1.9292
 5144TIP3    H237068   0.161   1.289   1.365  0.1300  0.2202 -1.2645
 5145TIP3   OH237069   4.301   1.364   8.095 -0.4568  0.6519 -0.3272
 5145TIP3    H137070   4.363   1.420   8.143  1.9722 -1.1267 -1.1909
 5145TIP3    H237071   4.357   1.306   8.043 -2.8796 -1.5852 -0.6192
 5146TIP3   OH237072   6.258   0.342   1.559 -0.1458  0.2234 -0.0001
 5146TIP3    H137073   6.237   0.393   1.481  0.4224  0.2975 -0.1065
 5146TIP3    H237074   6.303   0.264   1.525  1.1165  0.7932  0.3247
 5147TIP3   OH237075   6.641   6.621   0.589 -0.2618 -0.2902 -0.0855
 5147TIP3    H137076   6.587   6.612   0.511 -0.4269  0.3723 -0.0528
 5147TIP3    H237077   6.585   6.667   0.652  0.3751  0.5283 -0.0993
 5148TIP3   OH237078   4.880   4.263   0.686 -0.1395 -0.3346  0.2838
 5148TIP3    H137079   4.941   4.189   0.688  1.9355  1.2796  1.1720
 5148TIP3    H237080   4.798   4.226   0.653  0.5822 -3.1549  1.3269
 5149TIP3   OH237081   6.501   3.416   1.024 -0.1723  0.1214  0.7518
 5149TIP3    H137082   6.536   3.417   0.935 -0.3799 -2.3163  0.5587
 5149TIP3    H237083   6.467   3.504   1.038 -1.6480  0.1510 -2.2322
 5150TIP3   OH237084   0.009   2.741   2.361 -0.0540  0.1594  0.1733
 5150TIP3    H137085   0.021   2.830   2.394  1.9047 -0.0952  0.2612
 5150TIP3    H237086   0.082   2.727   2.301 -1.2882 -0.8115 -1.1732
 5151TIP3   OH237087   6.423   5.044   8.698  0.1776  0.2270 -0.4081
 5151TIP3    H137088   6.360   5.068   8.767  1.6377  0.7974  0.7702
 5151TIP3    H237089   6.481   4.981   8.740  0.7825  0.1822 -1.2937
 5152TIP3   OH237090   1.022   4.181   1.255  0.0190  0.3552 -0.4518
 5152TIP3    H137091   1.042   4.161   1.346  1.2661  1.7773 -0.3825
 5152TIP3    H237092   0.930   4.208   1.256 -0.1173 -0.1171  0.3005
 5153TIP3   OH237093   5.691   6.060   7.290  0.0472  0.4027 -0.4339
 5153TIP3    H137094   5.765   6.024   7.240 -0.0780 -1.8614  0.8800
 5153TIP3    H237095   5.628   5.988   7.295  1.2353 -0.7512  5.3314
 5154TIP3   OH237096   1.672   5.484   1.296  0.2971 -0.8914  0.6376
 5154TIP3    H137097   1.756   5.443   1.274  0.4267  0.2489 -1.2019
 5154TIP3    H237098   1.696   5.566   1.339  0.0871 -1.1273  1.2185
 5155TIP3   OH237099   6.218   1.045   2.268 -0.2374 -0.0797 -0.2490
 5155TIP3    H137100   6.134   1.008   2.240 -0.3596  0.5835 -0.7868
 5155TIP3    H237101   6.227   1.019   2.359  0.0362 -2.0840 -0.8061
 5156TIP3   OH237102   4.300   4.753   8.439 -0.5009  0.2329  0.1107
 5156TIP3    H137103   4.298   4.686   8.371  1.0852  0.7597 -0.5027
 5156TIP3    H237104   4.385   4.742   8.481 -1.3351  0.1011  1.8659
 5157TIP3   OH237105   3.349   2.278   6.945 -0.4874 -0.0400  0.0225
 5157TIP3    H137106   3.372   2.216   6.875 -0.5847  0.1623 -0.1882
 5157TIP3    H237107   3.277   2.236   6.992 -1.3716  0.4590 -0.8702
 5158TIP3   OH237108   4.503   0.517   8.382 -0.2084 -0.1734 -0.0322
 5158TIP3    H137109   4.496   0.611   8.368 -1.8876 -0.3250 -0.5147
 5158TIP3    H237110   4.564   0.487   8.315  0.6622  0.6095  0.3952
 5159TIP3   OH237111   5.074   1.311   1.589  0.3954 -0.6965  0.2708
 5159TIP3    H137112   5.049   1.400   1.564  0.2661 -0.9305 -0.4421
 5159TIP3    H237113   5.106   1.320   1.679  2.4704  0.4329 -0.5221
 5160TIP3   OH237114   0.300   5.231   2.495  0.0036  0.0520  0.4548
 5160TIP3    H137115   0.286   5.144   2.532 -0.1080  0.5851  1.6881
 5160TIP3    H237116   0.369   5.270   2.548  0.5994  0.4491 -0.5699
 5161TIP3   OH237117   2.747   4.592   2.754  0.1210  0.2105 -0.1790
 5161TIP3    H137118   2.663   4.634   2.733  0.5510  2.1397  1.5501
 5161TIP3    H237119   2.738   4.567   2.846  1.2440 -0.0944 -0.1422
 5162TIP3   OH237120   0.436   5.622   7.492 -0.2747  0.1348  0.6233
 5162TIP3    H137121   0.487   5.683   7.438 -1.6629  0.8599  0.0916
 5162TIP3    H237122   0.405   5.556   7.430 -2.4917  1.3721  0.3318
 5163TIP3   OH237123   3.878   0.279   1.458 -0.3666  0.5604 -0.1899
 5163TIP3    H137124   3.891   0.279   1.363  1.3216  0.6823  0.0106
 5163TIP3    H237125   3.883   0.371   1.483  0.9227  0.4043  0.2001
 5164TIP3   OH237126   6.318   4.166   2.758 -0.3446 -0.2099 -0.3889
 5164TIP3    H137127   6.346   4.249   2.796  3.7647 -1.8691  0.7367
 5164TIP3    H237128   6.294   4.112   2.834 -1.5763 -0.5436 -0.9950
 5165TIP3   OH237129   2.580   5.109   0.127 -0.0643 -0.3967  0.3194
 5165TIP3    H137130   2.651   5.125   0.065 -0.5665  0.8959  0.0561
 5165TIP3    H237131   2.595   5.172   0.198 -0.5640 -0.5780  0.5934
 5166TIP3   OH237132   0.853   0.201   7.931  0.0111  0.1865  0.2828
 5166TIP3    H137133   0.805   0.193   8.014 -2.1518  1.2486 -0.7868
 5166TIP3    H237134   0.840   0.117   7.888  0.8541 -0.2482  0.8577
 5167TIP3   OH237135   1.572   4.531   7.616 -0.8952 -0.6602 -0.0319
 5167TIP3    H137136   1.618   4.497   7.539 -0.8045 -0.4658 -0.0648
 5167TIP3    H237137   1.527   4.455   7.652 -1.5143 -0.6163 -0.6786
 5168TIP3   OH237138   5.864   5.230   2.454 -0.2526 -0.3118 -0.7476
 5168TIP3    H137139   5.927   5.236   2.526 -0.4432 -0.5604 -0.5565
 5168TIP3    H237140   5.779   5.222   2.498 -0.1899 -2.8629 -0.9373
 5169TIP3   OH237141   0.994   2.398   8.794 -0.4049  0.0894  0.2955
 5169TIP3    H137142   0.934   2.370   8.863 -1.8854 -3.4935 -2.1024
 5169TIP3    H237143   1.081   2.379   8.830 -1.1453 -2.2314  1.1001
 5170TIP3   OH237144   4.816   5.277   7.248  0.0129  0.2031  0.1315
 5170TIP3    H137145   4.873   5.281   7.326 -0.1802 -0.6043  0.3289
 5170TIP3    H237146   4.799   5.368   7.226  0.6644  0.4503  0.6037
 5171TIP3   OH237147   6.273   3.757   0.772  0.0398  0.0404  0.1878
 5171TIP3    H137148   6.260   3.776   0.865 -1.2254  1.7938 -0.2976
 5171TIP3    H237149   6.318   3.834   0.737 -0.0345 -0.3323 -0.7742
 5172TIP3   OH237150   6.049   5.949   7.562  0.4118 -0.1298  0.2319
 5172TIP3    H137151   6.018   6.010   7.494 -0.4049 -0.6909  0.0829
 5172TIP3    H237152   6.142   5.938   7.543  0.5565  0.9983  0.2085
 5173TIP3   OH237153   1.626   4.210   2.788 -0.2366  0.2686 -0.2628
 5173TIP3    H137154   1.564   4.201   2.860 -1.2772  0.7738 -1.0670
 5173TIP3    H237155   1.604   4.139   2.727  0.5717 -0.0998 -0.1381
 5174TIP3   OH237156   6.635   4.776   7.873 -0.0841 -0.0096  0.5931
 5174TIP3    H137157   6.635   4.721   7.952  1.7329 -1.1939 -0.1574
 5174TIP3    H237158   6.727   4.780   7.847 -0.5525  0.9512 -1.0803
 5175TIP3   OH237159   6.199   0.342   7.797  0.2696 -0.5866 -0.0098
 5175TIP3    H137160   6.253   0.286   7.741  0.0035 -0.7103 -0.1474
 5175TIP3    H237161   6.126   0.369   7.741  0.5181  0.0946 -0.0103
 5176TIP3   OH237162   0.092   0.091   2.300 -0.1415 -0.2350 -0.2235
 5176TIP3    H137163   0.119   0.048   2.381 -1.2006  0.3866  0.4781
 5176TIP3    H237164   0.019   0.147   2.326  1.0881  1.8786 -1.1273
 5177TIP3   OH237165   4.451   6.475   7.833 -0.1637 -0.8141 -0.2334
 5177TIP3    H137166   4.425   6.454   7.743  0.0595  0.0837 -0.5164
 5177TIP3    H237167   4.369   6.496   7.877 -0.0996  0.6170 -0.7469
 5178TIP3   OH237168   4.011   0.348   2.387  0.4199  0.2605  0.3022
 5178TIP3    H137169   3.936   0.406   2.378 -0.7625 -1.0117  1.5208
 5178TIP3    H237170   4.039   0.358   2.478  2.5068  1.5507 -0.3911
 5179TIP3   OH237171   1.464   5.407   2.326  0.5964 -0.2069 -0.5985
 5179TIP3    H137172   1.429   5.352   2.255 -1.1130 -0.4017  0.3354
 5179TIP3    H237173   1.480   5.345   2.398 -0.0974  0.3220  0.0238
 5180TIP3   OH237174   2.176   6.145   7.756 -0.5134 -0.0446  0.0647
 5180TIP3    H137175   2.124   6.159   7.835  0.5811 -0.0337  0.8044
 5180TIP3    H237176   2.223   6.063   7.772 -0.4550 -0.1700 -0.6789
 5181TIP3   OH237177   2.042   5.903   1.385 -0.5598 -1.1046  0.5957
 5181TIP3    H137178   1.990   5.976   1.418  0.7756 -0.4056  1.1833
 5181TIP3    H237179   2.058   5.925   1.293 -1.4214 -1.4101  0.3602
 5182TIP3   OH237180   6.491   4.928   0.266 -0.6728  0.3262  0.5431
 5182TIP3    H137181   6.414   4.982   0.283 -0.8288  0.0086  0.8419
 5182TIP3    H237182   6.554   4.953   0.333 -0.3488  0.8946  0.0418
 5183TIP3   OH237183   6.412   4.332   2.211  0.1528 -0.0195  0.2042
 5183TIP3    H137184   6.375   4.244   2.217  0.3014 -0.1234 -0.3124
 5183TIP3    H237185   6.426   4.359   2.302 -1.7857  0.2957  0.4571
 5184TIP3   OH237186   1.521   0.187   1.006  0.2673  0.0541  0.5510
 5184TIP3    H137187   1.597   0.244   1.018  0.8520 -0.5379 -0.2065
 5184TIP3    H237188   1.523   0.166   0.912 -0.0875 -1.0002  0.7762
 5185TIP3   OH237189   3.658   5.360   7.278  0.2749  0.5874 -0.2146
 5185TIP3    H137190   3.641   5.266   7.274  0.6859  0.4644  0.6634
 5185TIP3    H237191   3.622   5.395   7.197 -0.2858 -0.2663 -0.3423
 5186TIP3   OH237192   0.161   5.428   2.596 -0.1231 -0.0416 -0.4486
 5186TIP3    H137193   0.217   5.501   2.570  1.0950 -0.1300  1.6646
 5186TIP3    H237194   0.207   5.350   2.567  1.0040 -0.1185  1.3701
 5187TIP3   OH237195   5.097   5.545   7.759 -0.3272 -0.4031  0.0660
 5187TIP3    H137196   5.030   5.483   7.786 -0.7292  0.0177  0.0493
 5187TIP3    H237197   5.059   5.631   7.777  0.7193 -0.1646  1.2912
 5188TIP3   OH237198   5.477   1.214   8.177  0.2005 -0.4423 -0.0105
 5188TIP3    H137199   5.465   1.279   8.108  0.4984  1.0913  1.3259
 5188TIP3    H237200   5.409   1.149   8.161 -0.6973  0.6629 -0.8530
 5189TIP3   OH237201   4.362   4.488   8.325  0.0696  0.0704 -0.1079
 5189TIP3    H137202   4.285   4.430   8.324  1.2690 -1.6284  1.0421
 5189TIP3    H237203   4.385   4.494   8.418  0.8415  1.2653 -0.3603
 5190TIP3   OH237204   2.390   0.785   2.102 -0.1435 -0.1228 -0.3678
 5190TIP3    H137205   2.429   0.758   2.019 -0.7057  1.0388 -1.0265
 5190TIP3    H237206   2.465   0.793   2.162  0.1217 -2.5382 -0.2557
 5191TIP3   OH237207   6.409   1.755   2.299  0.4055  0.2091  0.3932
 5191TIP3    H137208   6.474   1.697   2.260  3.0380  2.4449  1.1670
 5191TIP3    H237209   6.455   1.800   2.370 -2.9209 -0.3883  3.2312
 5192TIP3   OH237210   4.679   4.958   2.629  0.6065  0.1466 -0.7156
 5192TIP3    H137211   4.739   5.028   2.605  2.0181 -0.2450  1.4134
 5192TIP3    H237212   4.705   4.885   2.572  1.9530  0.0872 -0.0672
 5193TIP3   OH237213   3.032   6.240   0.766 -0.7166 -0.4713 -0.9291
 5193TIP3    H137214   2.940   6.259   0.782 -0.6311 -1.5760  1.2616
 5193TIP3    H237215   3.035   6.145   0.752  0.0208 -0.3766 -1.4623
 5194TIP3   OH237216   5.388   3.428   0.781 -0.4381  0.4714 -0.1731
 5194TIP3    H137217   5.402   3.421   0.687 -1.0083  1.6891 -0.3650
 5194TIP3    H237218   5.449   3.497   0.809 -0.4863  0.3292  0.2918
 5195TIP3   OH237219   0.380   6.628   7.772  0.0164 -0.2569  0.2036
 5195TIP3    H137220   0.287   6.606   7.768  0.1110 -0.6237  0.0174
 5195TIP3    H237221   0.425   6.545   7.758  0.3722  0.1507 -1.1465
 5196TIP3   OH237222   3.708   1.330   2.692  0.1567  0.7700  0.4857
 5196TIP3    H137223   3.764   1.356   2.765  1.7840  0.7016 -0.6869
 5196TIP3    H237224   3.665   1.411   2.664 -0.8704  0.7141  1.7835
 5197TIP3   OH237225   0.363   0.779   0.802 -0.0244  0.2954 -0.0578
 5197TIP3    H137226   0.420   0.809   0.873 -0.5124  0.7191  0.1629
 5197TIP3    H237227   0.355   0.855   0.744  1.1132 -0.3216 -1.0707
 5198TIP3   OH237228   1.512   3.209   1.473  0.3071 -0.1493 -0.0507
 5198TIP3    H137229   1.602   3.202   1.443  0.2414 -1.3648  0.0058
 5198TIP3    H237230   1.494   3.125   1.515 -0.3743  0.6315  1.2709
 5199TIP3   OH237231   0.411   0.667   1.339 -0.2344 -0.4064 -0.4244
 5199TIP3    H137232   0.399   0.754   1.378 -1.0555  0.6060 -2.7376
 5199TIP3    H237233   0.343   0.613   1.378 -1.7710  0.8760 -1.2196
 5200TIP3   OH237234   0.765   4.593   6.588 -0.5268  0.3404  0.1332
 5200TIP3    H137235   0.860   4.593   6.574 -0.3428 -0.1609  1.2400
 5200TIP3    H237236   0.731   4.659   6.527  0.6191  1.1278  0.3215
 5201TIP3   OH237237   1.307   2.825   8.264 -0.0071 -0.0845 -0.0537
 5201TIP3    H137238   1.324   2.732   8.277 -1.8270 -0.2277  1.9371
 5201TIP3    H237239   1.393   2.863   8.249  0.8988 -1.9460  0.0844
 5202TIP3   OH237240   4.064   3.985   1.278  0.5605 -0.0728 -0.9035
 5202TIP3    H137241   4.047   3.946   1.364 -0.8999 -0.8216 -1.4902
 5202TIP3    H237242   4.159   3.987   1.272  0.6953 -0.5269  0.4991
 5203TIP3   OH237243   0.082   3.172   8.194  0.9083 -0.1252  0.3024
 5203TIP3    H137244   0.158   3.144   8.143 -0.1008  0.9022 -1.9143
 5203TIP3    H237245   0.007   3.145   8.141 -0.1720  2.2895  0.4849
 5204TIP3   OH237246   1.974   4.087   7.510  0.1367  0.3646 -1.0408
 5204TIP3    H137247   2.018   4.008   7.479 -0.9184 -1.0217  0.7766
 5204TIP3    H237248   1.928   4.120   7.433  0.5367 -0.8328 -1.8250
 5205TIP3   OH237249   2.867   2.540   7.751  0.0069  0.0425  0.2020
 5205TIP3    H137250   2.934   2.474   7.769 -0.8868 -0.7014  0.9258
 5205TIP3    H237251   2.826   2.512   7.670  0.9473  0.8343 -0.5736
 5206TIP3   OH237252   5.961   3.570   0.491 -0.1725  0.1134 -0.4591
 5206TIP3    H137253   6.006   3.654   0.496  0.7125 -0.3744  0.0937
 5206TIP3    H237254   6.029   3.505   0.510 -0.8094 -0.7373 -1.0040
 5207TIP3   OH237255   1.834   5.405   8.176  0.1546  1.1125  0.3454
 5207TIP3    H137256   1.864   5.480   8.227 -3.4002  3.8238 -1.1087
 5207TIP3    H237257   1.824   5.440   8.087 -0.3110 -1.5343 -0.7290
 5208TIP3   OH237258   6.103   5.907   0.530 -0.7050 -0.3490  0.5778
 5208TIP3    H137259   6.077   5.996   0.506 -3.1412 -0.6942  1.5882
 5208TIP3    H237260   6.114   5.861   0.447 -1.3958  0.4101  0.0606
 5209TIP3   OH237261   5.137   1.761   7.401  0.4232  0.5977 -0.2441
 5209TIP3    H137262   5.084   1.828   7.357 -1.0231  0.7870  1.6756
 5209TIP3    H237263   5.227   1.791   7.390 -0.0174  1.5467 -1.5262
 5210TIP3   OH237264   5.991   0.520   2.285  0.3370 -0.1528 -0.1797
 5210TIP3    H137265   6.030   0.477   2.209  3.0095 -0.0893  1.0736
 5210TIP3    H237266   5.945   0.449   2.330 -0.3665 -0.4047 -1.2385
 5211TIP3   OH237267   1.099   3.057   7.386  0.1795  0.6523  0.1937
 5211TIP3    H137268   1.163   3.103   7.440  0.1134  2.3239 -1.0712
 5211TIP3    H237269   1.057   3.126   7.334 -0.2536 -0.7915 -1.4714
 5212TIP3   OH237270   0.228   1.471   3.023 -0.5507 -0.0856  0.3299
 5212TIP3    H137271   0.255   1.563   3.017  0.0259 -0.2720  0.0465
 5212TIP3    H237272   0.306   1.421   2.999 -0.7770 -0.6575  0.7602
 5213TIP3   OH237273   3.133   3.763   6.558  0.4500 -0.0466 -0.3716
 5213TIP3    H137274   3.117   3.854   6.583  0.9046  0.4660 -1.8507
 5213TIP3    H237275   3.212   3.738   6.606  0.3247  0.3427  0.0347
 5214TIP3   OH237276   2.236   2.629   0.344  0.1640  0.6531 -0.1761
 5214TIP3    H137277   2.173   2.604   0.277  0.3871 -2.0362  0.5124
 5214TIP3    H237278   2.216   2.721   0.364 -3.7290 -0.1346  0.1874
 5215TIP3   OH237279   5.776   3.017   7.144  0.1998  0.2848  0.4571
 5215TIP3    H137280   5.814   3.102   7.124 -1.5975  1.2384  0.8510
 5215TIP3    H237281   5.846   2.968   7.188  1.7257  0.9825 -1.0845
 5216TIP3   OH237282   2.641   5.492   6.782 -0.2765 -0.0732  0.3736
 5216TIP3    H137283   2.636   5.560   6.715  0.1278 -0.2559  0.1563
 5216TIP3    H237284   2.731   5.499   6.816 -0.3928 -0.1625  0.7073
 5217TIP3   OH237285   2.553   3.158   6.993 -0.0202 -0.3903  0.2501
 5217TIP3    H137286   2.486   3.102   7.033 -0.6694 -0.5075 -0.9582
 5217TIP3    H237287   2.505   3.235   6.962  0.1146 -1.1212 -1.9238
 5218TIP3   OH237288   6.476   1.657   3.390  0.2193 -0.5362  0.0741
 5218TIP3    H137289   6.392   1.704   3.381  0.8467  0.5764 -0.2432
 5218TIP3    H237290   6.537   1.724   3.422  1.4123 -0.8457 -1.4239
 5219TIP3   OH237291   6.436   0.850   8.248 -0.2359  0.8857 -0.3013
 5219TIP3    H137292   6.439   0.805   8.163 -0.9824 -1.5289  0.8557
 5219TIP3    H237293   6.351   0.894   8.249 -1.2959 -1.0631  0.0688
 5220TIP3   OH237294   0.832   1.604   0.665 -0.5059 -0.1274 -0.8525
 5220TIP3    H137295   0.801   1.676   0.611  1.4582  0.5588 -1.1628
 5220TIP3    H237296   0.831   1.528   0.606  0.0895  0.2752 -1.4069
 5221TIP3   OH237297   5.560   0.696   1.452  0.2137  0.9114  0.2639
 5221TIP3    H137298   5.533   0.765   1.391 -1.1918 -0.0960 -0.3067
 5221TIP3    H237299   5.500   0.704   1.526  1.7481  1.9609  1.4694
 5222TIP3   OH237300   1.068   5.461   0.168  0.0125  0.3705  0.2538
 5222TIP3    H137301   1.032   5.480   0.081  2.1196  2.7893 -0.2208
 5222TIP3    H237302   1.160   5.440   0.150  0.2815  0.0948  1.8652
 5223TIP3   OH237303   3.569   1.667   1.196 -0.2528 -0.1696 -0.1684
 5223TIP3    H137304   3.537   1.756   1.205 -1.5771 -0.4939 -1.3045
 5223TIP3    H237305   3.495   1.612   1.222  0.9906 -0.9847  1.9383
 5224TIP3   OH237306   3.015   5.083   7.040  0.2489 -0.5189  0.3140
 5224TIP3    H137307   2.969   5.001   7.026 -1.7301  0.3698  1.2160
 5224TIP3    H237308   3.070   5.067   7.117  0.1144 -1.0971  0.2896
 5225TIP3   OH237309   3.869   2.191   2.602  0.0616  0.5687  0.3584
 5225TIP3    H137310   3.953   2.238   2.602  0.1388  0.4403 -0.6945
 5225TIP3    H237311   3.832   2.207   2.516 -0.2635 -0.6894  0.2462
 5226TIP3   OH237312   6.185   3.664   7.669 -0.2482 -0.5153 -0.1157
 5226TIP3    H137313   6.182   3.685   7.762 -0.9454  1.1585 -0.4909
 5226TIP3    H237314   6.190   3.568   7.666  0.6844 -0.5535  1.6414
 5227TIP3   OH237315   2.619   0.046   0.786  0.7785  0.1934 -0.2495
 5227TIP3    H137316   2.672   0.125   0.775  2.0056 -0.5182  0.3197
 5227TIP3    H237317   2.600   0.041   0.880  0.6455 -0.1501 -0.2902
 5228TIP3   OH237318   5.948   4.828   2.254 -0.2404 -0.5066 -0.1581
 5228TIP3    H137319   6.024   4.809   2.308 -0.0669  0.2711 -0.1259
 5228TIP3    H237320   5.975   4.901   2.199 -1.5567  1.0225  1.1351
 5229TIP3   OH237321   5.476   5.583   1.794  0.2426 -0.0865  0.7443
 5229TIP3    H137322   5.512   5.646   1.856 -0.7202  1.1604  0.0756
 5229TIP3    H237323   5.496   5.620   1.708 -1.3392 -0.0961  0.3530
 5230TIP3   OH237324   5.634   2.830   0.959 -0.3678  0.3613  0.4994
 5230TIP3    H137325   5.579   2.907   0.975  0.5153  1.2591 -0.6191
 5230TIP3    H237326   5.586   2.781   0.892  0.2831  1.3035 -0.7073
 5231TIP3   OH237327   3.589   5.068   7.163 -0.4231 -0.3317  0.3911
 5231TIP3    H137328   3.649   5.137   7.134  2.3816 -3.3069 -1.6126
 5231TIP3    H237329   3.567   5.020   7.083 -1.6118 -2.2540  1.7770
 5232TIP3   OH237330   1.173   6.690   7.578  0.3549 -0.1767  0.1399
 5232TIP3    H137331   1.138   6.697   7.489  0.6713 -0.9686 -0.0591
 5232TIP3    H237332   1.197   6.780   7.601 -0.3549  0.1391 -0.3130
 5233TIP3   OH237333   5.622   3.068   2.620 -0.3266 -0.2993  0.0419
 5233TIP3    H137334   5.696   3.060   2.681  0.0952  0.5964 -0.3347
 5233TIP3    H237335   5.601   3.161   2.620  0.8797  0.0758 -2.5205
 5234TIP3   OH237336   4.450   0.097   8.129 -0.0789 -0.1746 -0.4075
 5234TIP3    H137337   4.457   0.005   8.103  0.7234 -1.2088  2.9344
 5234TIP3    H237338   4.533   0.136   8.103 -0.0248 -0.6511 -0.9646
 5235TIP3   OH237339   4.650   3.755   0.140  0.3588  0.4264 -0.2316
 5235TIP3    H137340   4.703   3.728   0.215 -0.4463 -0.1334  0.1463
 5235TIP3    H237341   4.614   3.673   0.106  1.4988  0.5529 -1.8538
 5236TIP3   OH237342   4.118   6.685   0.307  0.0169  0.1736 -0.0423
 5236TIP3    H137343   4.167   6.757   0.346 -0.6181  0.2139  0.6955
 5236TIP3    H237344   4.160   6.606   0.340 -0.9833  0.2000  1.3652
 5237TIP3   OH237345   3.210   4.221   1.570  0.2779 -0.5655 -0.3984
 5237TIP3    H137346   3.304   4.207   1.559  0.6547  0.0595  1.5722
 5237TIP3    H237347   3.191   4.299   1.517  1.7813  1.8173  2.2824
 5238TIP3   OH237348   3.456   3.611   8.176 -0.2505 -0.1492  0.2741
 5238TIP3    H137349   3.397   3.537   8.195 -0.9577  0.4933  0.6606
 5238TIP3    H237350   3.434   3.676   8.243  0.1997  0.5003 -0.2019
 5239TIP3   OH237351   5.242   3.724   7.159  0.3190 -0.0280 -0.0864
 5239TIP3    H137352   5.296   3.786   7.111  1.1506  2.1131  3.2548
 5239TIP3    H237353   5.289   3.641   7.153  3.2865  1.4064  1.3736
 5240TIP3   OH237354   5.253   2.454   2.294 -0.1190  0.2570 -0.2115
 5240TIP3    H137355   5.297   2.534   2.325  0.0672  0.1431 -0.1762
 5240TIP3    H237356   5.160   2.472   2.306 -0.3734  1.8477 -3.3929
 5241TIP3   OH237357   2.155   6.011   1.750  0.0612  0.0385  0.2175
 5241TIP3    H137358   2.136   5.929   1.706  1.7263 -0.2837  0.0090
 5241TIP3    H237359   2.077   6.064   1.738 -0.6137 -1.1076 -0.6147
 5242TIP3   OH237360   2.036   4.987   7.584 -0.2514 -0.5051 -0.1033
 5242TIP3    H137361   2.034   4.977   7.489  0.7582  0.5033 -0.2528
 5242TIP3    H237362   2.116   5.037   7.601 -0.0803 -1.2303  1.3328
 5243TIP3   OH237363   1.614   2.737   8.141  0.0737 -0.5831  0.1378
 5243TIP3    H137364   1.569   2.818   8.166  1.1646  0.4365 -1.0526
 5243TIP3    H237365   1.707   2.761   8.139  0.2642 -1.2967 -2.1645
 5244TIP3   OH237366   0.308   3.011   7.105  0.0139  0.6916 -0.4228
 5244TIP3    H137367   0.325   3.087   7.049  0.5087  0.8182 -0.1098
 5244TIP3    H237368   0.387   3.004   7.159 -0.8633  1.1919  0.9667
 5245TIP3   OH237369   1.114   4.161   0.449  0.9364  0.2225  0.7781
 5245TIP3    H137370   1.178   4.091   0.460  1.1235  0.5184  1.6241
 5245TIP3    H237371   1.030   4.118   0.462  0.9371 -0.2012 -0.4945
 5246TIP3   OH237372   6.384   3.604   1.997  0.2700  0.3431  0.4183
 5246TIP3    H137373   6.421   3.541   1.935 -0.5562  0.2396  0.0258
 5246TIP3    H237374   6.295   3.620   1.965  0.3519  1.4549  0.6952
 5247TIP3   OH237375   4.869   0.404   8.402 -0.2180 -0.3780  0.1619
 5247TIP3    H137376   4.812   0.421   8.327  1.0815  0.6283 -0.6574
 5247TIP3    H237377   4.859   0.310   8.419  1.7682 -1.4288 -3.3626
 5248TIP3   OH237378   3.386   0.229   7.117  0.0987 -0.3230 -0.0354
 5248TIP3    H137379   3.437   0.180   7.053  0.2822  0.5769 -0.5897
 5248TIP3    H237380   3.302   0.182   7.122 -0.4530  0.3691 -1.9837
 5249TIP3   OH237381   4.782   0.767   0.265 -0.6222 -0.8430  0.1690
 5249TIP3    H137382   4.788   0.862   0.278 -3.0533 -0.8486  1.9109
 5249TIP3    H237383   4.815   0.753   0.176 -0.6933  1.6794 -0.3233
 5250TIP3   OH237384   1.488   4.837   0.669 -0.0539  0.0768  0.2124
 5250TIP3    H137385   1.579   4.806   0.664 -0.7944 -2.2798 -0.0165
 5250TIP3    H237386   1.475   4.887   0.589  0.4555 -1.4230 -0.8492
 5251TIP3   OH237387   1.961   3.386   2.293  0.1788  0.3378  0.2186
 5251TIP3    H137388   1.868   3.362   2.294  0.3509 -0.4122 -0.3874
 5251TIP3    H237389   1.993   3.363   2.380  0.1617 -1.0123 -0.1042
 5252TIP3   OH237390   0.761   5.169   2.770  0.6582 -0.2501  0.3361
 5252TIP3    H137391   0.763   5.213   2.855  1.6645  1.6218 -0.5871
 5252TIP3    H237392   0.668   5.164   2.748  0.3361 -1.2920  1.7610
 5253TIP3   OH237393   0.112   0.014   7.332  0.3793  0.0828 -0.2041
 5253TIP3    H137394   0.062   0.092   7.310  1.5090  0.8369 -0.1491
 5253TIP3    H237395   0.062  -0.027   7.403 -0.7828  0.1647 -0.9400
 5254TIP3   OH237396   3.686   6.793   7.199  0.5241 -0.7227 -0.3122
 5254TIP3    H137397   3.746   6.722   7.176  2.1567  0.6949 -0.6535
 5254TIP3    H237398   3.614   6.784   7.137  1.8872 -0.6592 -2.0069
 5255TIP3   OH237399   2.624   5.982   7.115 -0.3932 -0.6312  0.5595
 5255TIP3    H137400   2.638   6.019   7.202  0.0822 -0.6459  0.4937
 5255TIP3    H237401   2.632   5.888   7.127  0.9555 -0.5706  0.2861
 5256TIP3   OH237402   1.536   1.103   0.422 -0.0084  0.2216 -0.4864
 5256TIP3    H137403   1.446   1.120   0.448  0.6622  2.0242  0.8959
 5256TIP3    H237404   1.540   1.129   0.330 -0.8544  0.2500 -0.5256
 5257TIP3   OH237405   6.544   3.829   0.161 -0.2363 -0.4478 -0.5856
 5257TIP3    H137406   6.555   3.868   0.249 -0.4795  1.4572 -1.3503
 5257TIP3    H237407   6.595   3.748   0.165 -1.1013 -0.9586  1.6363
 5258TIP3   OH237408   3.970   4.896   7.653 -0.3385 -0.1579  0.4801
 5258TIP3    H137409   4.001   4.875   7.565  1.5670  0.4771  0.9589
 5258TIP3    H237410   3.924   4.817   7.682 -0.0791 -0.7516 -0.6882
 5259TIP3   OH237411   1.359   6.675   7.893 -0.2319  0.0379 -0.1818
 5259TIP3    H137412   1.351   6.748   7.832  0.0775 -0.8858 -1.3621
 5259TIP3    H237413   1.453   6.671   7.913 -0.6497  2.3136  2.9180
 5260TIP3   OH237414   3.504   5.081   2.085 -0.2080  0.1359  0.0450
 5260TIP3    H137415   3.579   5.080   2.144 -0.4017  1.7302  0.3425
 5260TIP3    H237416   3.536   5.127   2.007 -1.0118  1.3137  0.3921
 5261TIP3   OH237417   5.227   4.532   1.354  0.0439 -0.1045  0.0915
 5261TIP3    H137418   5.183   4.543   1.438  0.4112  0.8477  0.1779
 5261TIP3    H237419   5.279   4.612   1.344 -0.4441  0.0615 -1.3019
 5262TIP3   OH237420   0.000   5.210   3.105  0.0340  0.0056  0.7373
 5262TIP3    H137421   0.047   5.181   3.027 -0.4673  3.1202 -0.9145
 5262TIP3    H237422   0.061   5.270   3.149 -1.3102  1.9881  0.0442
 5263TIP3   OH237423   5.985   6.365   2.556  0.6310 -0.3255 -0.0929
 5263TIP3    H137424   5.894   6.393   2.560  0.9787  0.8120  0.5601
 5263TIP3    H237425   6.014   6.364   2.647  1.7866  1.2721 -0.3793
 5264TIP3   OH237426   3.930   4.246   8.317 -0.7495  0.2633  0.5322
 5264TIP3    H137427   3.961   4.279   8.232  0.7479  2.2653  1.7462
 5264TIP3    H237428   3.994   4.180   8.342 -1.9334 -1.3131 -0.4333
 5265TIP3   OH237429   0.085   3.103   2.050  0.6357  0.9035  0.5701
 5265TIP3    H137430   0.167   3.105   2.099  1.4383  0.0093 -0.6490
 5265TIP3    H237431   0.054   3.013   2.058  0.9276  0.6554 -0.7237
 5266TIP3   OH237432   0.655   6.012   0.818 -0.2107  0.5811 -0.1829
 5266TIP3    H137433   0.636   6.077   0.886 -0.3066  0.6904 -0.3137
 5266TIP3    H237434   0.616   5.931   0.852  0.2940  0.4889  0.1818
 5267TIP3   OH237435   2.438   0.161   7.357 -0.7893  0.1266  0.1317
 5267TIP3    H137436   2.394   0.184   7.439  1.1200 -1.6675  1.7746
 5267TIP3    H237437   2.522   0.207   7.361  0.3427 -1.8325  0.4188
 5268TIP3   OH237438   5.608   1.469   8.437  0.3969 -0.2949  0.1147
 5268TIP3    H137439   5.616   1.496   8.346  0.4702 -0.9724 -0.0845
 5268TIP3    H237440   5.681   1.513   8.482  0.5922 -0.2718 -0.2228
 5269TIP3   OH237441   4.105   4.797   7.987  0.4110 -0.7147  0.0529
 5269TIP3    H137442   4.182   4.744   7.966 -0.2473 -2.1337  1.0156
 5269TIP3    H237443   4.037   4.732   8.007 -1.1198  0.4946 -1.0574
 5270TIP3   OH237444   1.091   2.701   1.080 -0.2239 -0.2241 -0.1253
 5270TIP3    H137445   1.142   2.760   1.023 -1.3447 -0.4401 -1.4155
 5270TIP3    H237446   1.103   2.615   1.040 -0.7512 -0.4364  0.1771
 5271TIP3   OH237447   3.235   6.232   6.978  0.7813  0.0548 -0.7963
 5271TIP3    H137448   3.211   6.164   6.915  0.6392 -1.3024  0.6869
 5271TIP3    H237449   3.163   6.295   6.974 -1.0351 -1.8093  0.5210
 5272TIP3   OH237450   3.598   4.243   8.207  0.5581  0.0493 -0.2455
 5272TIP3    H137451   3.556   4.164   8.174 -1.5700  0.2603  1.6642
 5272TIP3    H237452   3.664   4.212   8.269  0.2772 -0.2748 -0.1036
 5273TIP3   OH237453   4.511   1.102   1.989  0.0189 -0.5449  0.0530
 5273TIP3    H137454   4.451   1.048   1.937  0.7344 -1.7079  0.3971
 5273TIP3    H237455   4.456   1.173   2.023 -0.4091  0.5215 -2.5882
 5274TIP3   OH237456   2.107   4.880   0.006  0.2514 -0.0401  0.5473
 5274TIP3    H137457   2.038   4.890  -0.059 -0.7167 -0.6374  1.4375
 5274TIP3    H237458   2.160   4.959  -0.003  0.4067 -0.3108 -1.2372
 5275TIP3   OH237459   3.056   6.440   2.319 -0.4281  0.0371  0.1704
 5275TIP3    H137460   2.996   6.434   2.244 -1.0594 -0.5852  0.6994
 5275TIP3    H237461   3.015   6.504   2.377 -1.0740 -1.0449  0.9428
 5276TIP3   OH237462   1.149   6.028   0.594 -0.0498  0.4610 -0.7592
 5276TIP3    H137463   1.060   6.043   0.628  0.1864  1.4105 -0.5179
 5276TIP3    H237464   1.148   5.937   0.565 -1.3951  0.7178 -1.6372
 5277TIP3   OH237465   6.148   1.464   0.697 -0.2754 -0.3496 -0.1445
 5277TIP3    H137466   6.076   1.497   0.750 -0.5291 -1.8056  0.4746
 5277TIP3    H237467   6.126   1.372   0.682  1.6824 -0.9769  0.4849
 5278TIP3   OH237468   2.215   0.160   8.396  0.1762  0.3206 -0.1621
 5278TIP3    H137469   2.153   0.214   8.445 -1.1415 -1.9845  0.9005
 5278TIP3    H237470   2.172   0.145   8.312 -0.0702 -0.1188  0.0387
 5279TIP3   OH237471   1.399   1.441   0.434 -0.0877 -0.0703 -0.1201
 5279TIP3    H137472   1.367   1.419   0.521 -0.1690  0.8204  0.0816
 5279TIP3    H237473   1.347   1.385   0.375  1.3534 -2.1630  0.4890
 5280TIP3   OH237474   5.566   3.979   1.739 -0.5002  0.3859  0.0119
 5280TIP3    H137475   5.534   4.001   1.651  1.1736  0.6134 -0.5614
 5280TIP3    H237476   5.652   4.020   1.744 -0.5360  0.3085  1.7459
 5281TIP3   OH237477   0.137   3.437   7.829  0.0322  0.0839  0.3442
 5281TIP3    H137478   0.126   3.454   7.736 -1.5473 -1.4247  0.2142
 5281TIP3    H237479   0.105   3.517   7.872  1.7488  1.2039 -0.3830
 5282TIP3   OH237480   0.412   6.795   0.177  0.2601  0.1790 -0.0044
 5282TIP3    H137481   0.501   6.769   0.201  0.1989 -0.7227 -0.7072
 5282TIP3    H237482   0.361   6.784   0.258  0.5995 -0.1888  0.1629
 5283TIP3   OH237483   0.363   0.275   7.592 -0.8283  0.4167 -0.0850
 5283TIP3    H137484   0.332   0.341   7.530 -0.1481 -2.1609 -3.4959
 5283TIP3    H237485   0.296   0.206   7.589 -0.9298  0.3118  2.4119
 5284TIP3   OH237486   3.920   1.905   7.858  0.2711 -0.1541  0.2049
 5284TIP3    H137487   3.978   1.974   7.825  2.5924 -1.0085  2.1546
 5284TIP3    H237488   3.846   1.952   7.896  1.0911  1.1950  0.2032
 5285TIP3   OH237489   5.448   0.542   2.265 -0.4766  0.3659  0.4134
 5285TIP3    H137490   5.455   0.620   2.209  0.2847  0.1675  0.2293
 5285TIP3    H237491   5.493   0.567   2.346  0.5992 -0.2006  0.0023
 5286TIP3   OH237492   5.756   0.127   1.665 -0.0883 -0.3777 -0.2201
 5286TIP3    H137493   5.843   0.119   1.625  0.0758  0.3005 -0.0167
 5286TIP3    H237494   5.696   0.131   1.591  0.2724  1.5757 -0.4618
 5287TIP3   OH237495   1.681   5.125   1.267  0.3652  0.3944  0.3906
 5287TIP3    H137496   1.612   5.106   1.203  0.0258  1.6360  0.3814
 5287TIP3    H237497   1.757   5.147   1.213  0.4394  0.2045  0.4150
 5288TIP3   OH237498   6.490   3.560   7.870 -0.3604 -0.5736 -0.1667
 5288TIP3    H137499   6.396   3.541   7.867 -0.4404 -0.1481 -1.9476
 5288TIP3    H237500   6.501   3.631   7.806  1.1716 -0.5998  0.0452
 5289TIP3   OH237501   5.530   3.962   6.632  0.2852  0.3447  0.0789
 5289TIP3    H137502   5.435   3.953   6.642  0.3448 -0.4366 -0.0085
 5289TIP3    H237503   5.542   4.051   6.598 -0.5025 -0.0015 -1.1495
 5290TIP3   OH237504   6.797   4.708   6.792 -0.3934 -0.0508  0.7265
 5290TIP3    H137505   6.773   4.631   6.741 -2.2375  0.5555  0.5836
 5290TIP3    H237506   6.720   4.725   6.847 -0.0569  1.6879  0.7190
 5291TIP3   OH237507   5.543   6.159   7.822 -0.9775  0.4283  0.4154
 5291TIP3    H137508   5.506   6.201   7.899  0.0927 -0.6741  1.5731
 5291TIP3    H237509   5.610   6.100   7.856  0.1334  0.5510 -1.4263
 5292TIP3   OH237510   2.851   3.148   7.584 -0.1406  0.5306  0.6429
 5292TIP3    H137511   2.768   3.105   7.603  0.1333 -0.0396  0.5900
 5292TIP3    H237512   2.901   3.141   7.666  0.3195 -0.2437  0.3179
 5293TIP3   OH237513   2.954   4.854   8.773  0.6543 -0.7184  0.3046
 5293TIP3    H137514   2.943   4.760   8.759  1.0298 -1.2101  2.8760
 5293TIP3    H237515   3.040   4.875   8.735  0.3855 -1.3037 -0.6450
 5294TIP3   OH237516   6.393   6.597   1.095 -0.4626 -0.3071  0.4866
 5294TIP3    H137517   6.391   6.692   1.110 -0.4665 -0.2019 -0.1347
 5294TIP3    H237518   6.467   6.584   1.035 -1.1948 -0.5463 -0.3885
 5295TIP3   OH237519   6.068   0.317   0.632 -0.0522 -0.0995  0.1246
 5295TIP3    H137520   6.028   0.398   0.601 -1.2291 -0.6678  0.1082
 5295TIP3    H237521   6.010   0.248   0.600  2.0488 -1.1316 -1.6654
 5296TIP3   OH237522   0.663   3.897   8.805  0.4533  0.4002 -0.1916
 5296TIP3    H137523   0.724   3.829   8.777  0.8668  0.5714  0.2814
 5296TIP3    H237524   0.585   3.848   8.833  0.6863  0.1293 -0.0055
 5297TIP3   OH237525   2.104   2.550   0.082 -0.1966 -0.3331  0.5037
 5297TIP3    H137526   2.152   2.475   0.046  1.2590  0.8507 -0.1084
 5297TIP3    H237527   2.058   2.587   0.007 -1.3622 -0.8974  0.9109
 5298TIP3   OH237528   5.927   4.407   2.523  0.1855  0.0165  0.2935
 5298TIP3    H137529   5.844   4.452   2.536  0.8819  0.9078  2.0262
 5298TIP3    H237530   5.993   4.477   2.521  0.9417 -0.6831 -0.8238
 5299TIP3   OH237531   6.179   4.381   8.574 -0.2033 -0.6115 -0.0856
 5299TIP3    H137532   6.249   4.337   8.622 -0.9897 -1.0835  0.6664
 5299TIP3    H237533   6.155   4.319   8.504 -1.9737 -1.8941  1.5620
 5300TIP3   OH237534   0.087   6.603   8.541  0.1638  0.0619  0.0619
 5300TIP3    H137535   0.084   6.648   8.456 -0.0764  2.0070  1.0419
 5300TIP3    H237536   0.171   6.556   8.539  0.2617  0.2352 -1.1542
 5301TIP3   OH237537   3.646   6.550   0.750  0.0256 -0.7695 -0.1422
 5301TIP3    H137538   3.621   6.630   0.704  3.5349  0.5401 -0.0527
 5301TIP3    H237539   3.708   6.579   0.817  2.3736 -3.6161 -0.8771
 5302TIP3   OH237540   2.457   1.384   1.574 -0.4257 -0.0783 -0.1502
 5302TIP3    H137541   2.382   1.427   1.533 -0.5181 -1.8300 -1.9892
 5302TIP3    H237542   2.503   1.341   1.501 -0.3409 -3.0272  1.4723
 5303TIP3   OH237543   5.148   3.506   2.044  0.4257 -0.2297 -0.1528
 5303TIP3    H137544   5.229   3.460   2.024  0.5544 -0.3353  0.6080
 5303TIP3    H237545   5.171   3.599   2.038  1.3230 -0.1957  2.7390
 5304TIP3   OH237546   2.053   0.028   1.185 -0.6605  0.1973  0.3632
 5304TIP3    H137547   2.130  -0.027   1.197 -0.8202 -0.0981  0.0603
 5304TIP3    H237548   2.015   0.036   1.273  0.9243  2.1857  0.9432
 5305TIP3   OH237549   2.186   2.252   2.655  0.1346 -0.1459  0.0911
 5305TIP3    H137550   2.241   2.308   2.601 -1.1838  0.4215 -0.7106
 5305TIP3    H237551   2.139   2.312   2.713 -0.0877 -0.5560  0.3434
 5306TIP3   OH237552   0.435   5.648   1.676  0.3734 -0.0533 -0.7472
 5306TIP3    H137553   0.404   5.676   1.762  0.6874 -0.4711 -0.4943
 5306TIP3    H237554   0.530   5.649   1.683  0.3997 -1.1618 -0.7268
 5307TIP3   OH237555   6.412   2.436   1.449  1.1974  0.1270 -0.4785
 5307TIP3    H137556   6.352   2.499   1.488  2.2962 -0.7144  2.8856
 5307TIP3    H237557   6.463   2.487   1.386 -0.2270  1.7580 -0.3655
 5308TIP3   OH237558   6.478   6.651   2.782  0.2512  0.2155 -0.1880
 5308TIP3    H137559   6.474   6.576   2.723  1.8506  0.2328 -0.3732
 5308TIP3    H237560   6.500   6.613   2.867  1.5193  0.4759 -0.3750
 5309TIP3   OH237561   5.582   4.991   7.315 -0.3196  0.0968  0.1331
 5309TIP3    H137562   5.575   4.975   7.221 -2.5999  3.5067 -0.4810
 5309TIP3    H237563   5.654   5.053   7.323  0.4849 -0.9029  0.8029
 5310TIP3   OH237564   5.317   2.780   0.162 -0.4954  0.3792 -0.3864
 5310TIP3    H137565   5.295   2.710   0.100  0.0814 -0.7748  0.6803
 5310TIP3    H237566   5.236   2.794   0.211  0.0083 -1.2214  0.9833
 5311TIP3   OH237567   6.829   1.527   0.052 -0.2020  0.3408  0.7474
 5311TIP3    H137568   6.775   1.454   0.082 -2.0548  0.6585 -1.5942
 5311TIP3    H237569   6.778   1.605   0.073  0.0367  0.7439 -0.1388
 5312TIP3   OH237570   4.667   1.823   0.303  0.1588 -0.4718  0.0922
 5312TIP3    H137571   4.617   1.841   0.224 -0.3294  0.0961  0.5238
 5312TIP3    H237572   4.625   1.746   0.341 -2.6399  1.9505  2.2615
 5313TIP3   OH237573   3.156   2.963   1.198  0.3560  0.0321 -0.4352
 5313TIP3    H137574   3.132   2.969   1.290  0.8618 -0.8741 -0.2408
 5313TIP3    H237575   3.083   3.006   1.152 -0.2363 -0.1252  0.3318
 5314TIP3   OH237576   0.521   5.002   0.872  0.2543 -0.0698 -0.2977
 5314TIP3    H137577   0.479   5.064   0.931  0.0687 -0.8648  0.4222
 5314TIP3    H237578   0.448   4.962   0.824  0.2059 -1.0995  0.6051
 5315TIP3   OH237579   1.137   5.742   0.614 -0.7208  0.0312  0.2015
 5315TIP3    H137580   1.161   5.772   0.701  0.8696 -1.1747  0.2334
 5315TIP3    H237581   1.058   5.689   0.628 -1.7509  1.6117  0.5600
 5316TIP3   OH237582   1.854   4.906   7.351  0.5757 -0.0104  0.1819
 5316TIP3    H137583   1.775   4.941   7.311  0.5658 -0.9171 -0.6438
 5316TIP3    H237584   1.917   4.902   7.279  0.8562 -0.8099  0.4596
 5317TIP3   OH237585   5.712   5.959   7.639  0.0881 -0.0765 -0.0341
 5317TIP3    H137586   5.709   6.005   7.723 -1.2656 -0.2766  0.0539
 5317TIP3    H237587   5.781   5.894   7.649  0.0445  0.0081  0.8729
 5318TIP3   OH237588   5.710   1.661   1.317 -0.2365  0.7999  0.7420
 5318TIP3    H137589   5.656   1.728   1.275 -1.1622 -0.7337 -0.6552
 5318TIP3    H237590   5.777   1.640   1.252 -1.1286 -0.9454  0.3063
 5319TIP3   OH237591   3.493   4.903   0.836 -0.3456  0.7585 -0.6353
 5319TIP3    H137592   3.441   4.841   0.784 -0.0048  0.3298 -0.4763
 5319TIP3    H237593   3.548   4.948   0.771 -0.1572  0.4568 -0.6918
 5320TIP3   OH237594   0.544   0.339   6.790  0.0767  0.6614  0.3146
 5320TIP3    H137595   0.475   0.286   6.829 -0.1696  0.5288 -0.2879
 5320TIP3    H237596   0.512   0.360   6.702 -0.1219  2.3652  0.7679
 5321TIP3   OH237597   2.627   6.831   8.217  0.0151 -0.1387  0.5874
 5321TIP3    H137598   2.595   6.863   8.132  3.5830 -0.9564 -1.2826
 5321TIP3    H237599   2.560   6.770   8.247 -3.2421  3.0339  0.4236
 5322TIP3   OH237600   1.859   1.188   8.118  0.4129 -0.2515 -0.1409
 5322TIP3    H137601   1.913   1.115   8.150 -0.1845  0.5270  2.9688
 5322TIP3    H237602   1.769   1.156   8.122  0.2099  0.3637  0.4540
 5323TIP3   OH237603   5.469   1.033   1.648  0.2731 -0.0101 -0.1606
 5323TIP3    H137604   5.437   1.103   1.705 -0.2156 -1.2932  1.2009
 5323TIP3    H237605   5.493   0.962   1.708 -1.0019 -1.7157 -1.5885
 5324TIP3   OH237606   6.183   3.331   1.519  0.4162 -0.1280  0.5102
 5324TIP3    H137607   6.148   3.254   1.475 -0.1480 -0.5540  1.6584
 5324TIP3    H237608   6.234   3.376   1.452 -0.5902 -0.6320 -0.6350
 5325TIP3   OH237609   2.714   6.261   7.716  0.3658  0.4739 -0.5151
 5325TIP3    H137610   2.698   6.222   7.802 -1.3701  0.4921 -0.8099
 5325TIP3    H237611   2.772   6.336   7.734 -2.0505  2.0923  1.0458
 5326TIP3   OH237612   0.099   5.701   1.547  0.1746  0.5948 -0.2038
 5326TIP3    H137613   0.176   5.721   1.601  1.2012 -0.7348 -1.0945
 5326TIP3    H237614   0.135   5.677   1.462 -1.2769  0.5234 -0.8272
 5327TIP3   OH237615   0.188   3.164   1.798 -0.6798 -0.1870 -0.0809
 5327TIP3    H137616   0.137   3.119   1.865  0.1546 -0.5566  0.3090
 5327TIP3    H237617   0.261   3.106   1.779  0.1367  0.7686  0.0623
 5328TIP3   OH237618   1.650   5.149   0.176 -0.3449 -0.1214  0.1953
 5328TIP3    H137619   1.679   5.118   0.090 -0.8618  0.6829 -0.2836
 5328TIP3    H237620   1.666   5.075   0.235 -1.6227 -1.3590 -0.9284
 5329TIP3   OH237621   5.230   4.863   2.656 -0.4565 -0.2973 -0.3066
 5329TIP3    H137622   5.307   4.833   2.608  0.1086  2.1158 -1.0245
 5329TIP3    H237623   5.212   4.950   2.621 -0.2186  1.4970  3.5423
 5330TIP3   OH237624   3.853   3.981   1.683  0.4381  0.4694  0.0118
 5330TIP3    H137625   3.932   3.960   1.634 -0.1254 -3.4069  0.4468
 5330TIP3    H237626   3.883   3.988   1.774  0.5037  0.3904 -0.0029
 5331TIP3   OH237627   3.241   3.716   2.945  0.7556  0.1385 -0.0041
 5331TIP3    H137628   3.335   3.730   2.935  0.8199  0.9621  1.6232
 5331TIP3    H237629   3.203   3.755   2.866  1.6162  1.8245  0.3731
 5332TIP3   OH237630   2.134   6.135   2.214 -0.2964 -0.8746  0.4187
 5332TIP3    H137631   2.223   6.112   2.186  0.2072 -0.2295  1.4596
 5332TIP3    H237632   2.141   6.150   2.308 -1.4071 -0.2962  0.4213
 5333TIP3   OH237633   6.005   5.920   2.047 -0.2865  0.6910 -0.1781
 5333TIP3    H137634   6.023   5.944   1.956 -2.2776 -0.8092 -1.0421
 5333TIP3    H237635   6.054   5.839   2.060 -0.1623  0.7984  0.0275
 5334TIP3   OH237636   1.843   2.102   3.034 -0.3152 -0.3228  0.3504
 5334TIP3    H137637   1.843   2.181   2.980 -1.5341  0.0311  0.8096
 5334TIP3    H237638   1.753   2.096   3.066  0.0240 -1.3234  1.1665
 5335TIP3   OH237639   6.734   4.117   2.371 -0.6295  0.3900 -0.3289
 5335TIP3    H137640   6.790   4.083   2.440 -1.0601 -0.4819 -0.3936
 5335TIP3    H237641   6.735   4.049   2.304 -1.4176  0.5593 -0.5198
 5336TIP3   OH237642   4.513   5.753   7.391  0.0763  0.7551  0.1138
 5336TIP3    H137643   4.438   5.705   7.356  0.0761  0.3990  0.5902
 5336TIP3    H237644   4.497   5.756   7.486  0.2008  1.4835  0.1155
 5337TIP3   OH237645   2.250   3.366   0.578 -0.5790  0.2675  0.4520
 5337TIP3    H137646   2.178   3.302   0.577 -0.2132 -0.2191  2.2654
 5337TIP3    H237647   2.327   3.315   0.554 -0.7568  0.7534 -1.3137
 5338TIP3   OH237648   3.127   2.186   8.465  0.5133 -0.1939  0.3758
 5338TIP3    H137649   3.070   2.216   8.536  0.2672  0.0597  0.0768
 5338TIP3    H237650   3.145   2.094   8.485  0.2331 -0.1943  0.6258
 5339TIP3   OH237651   5.691   0.383   8.140  0.2580  0.2205  0.9352
 5339TIP3    H137652   5.684   0.461   8.195 -0.9972  1.8076 -1.2887
 5339TIP3    H237653   5.609   0.336   8.155  0.9075 -0.5764  2.0907
 5340TIP3   OH237654   3.806   3.764   7.960 -0.1761  0.1541  0.1104
 5340TIP3    H137655   3.858   3.737   7.885 -0.3755 -0.7049  0.2768
 5340TIP3    H237656   3.870   3.794   8.025 -0.0423  1.8601 -0.7499
 5341TIP3   OH237657   4.138   6.670   8.415  0.3044 -0.4353 -0.1285
 5341TIP3    H137658   4.142   6.694   8.322 -0.4663  0.0329 -0.0451
 5341TIP3    H237659   4.150   6.752   8.461 -0.4582 -0.4916  0.1767
 5342TIP3   OH237660   4.078   2.385   7.461 -0.4017 -0.0786  0.7627
 5342TIP3    H137661   4.085   2.293   7.435 -0.5015 -0.1696  1.0576
 5342TIP3    H237662   4.168   2.412   7.478 -0.0555  0.6169 -1.8215
 5343TIP3   OH237663   0.630   0.513   1.902 -0.1257 -0.0771  0.8572
 5343TIP3    H137664   0.552   0.497   1.849  0.1673  1.4423 -0.0968
 5343TIP3    H237665   0.695   0.452   1.867 -0.3838 -0.1559  0.5036
 5344TIP3   OH237666   6.556   2.219   2.865 -0.5232  0.2742  0.1556
 5344TIP3    H137667   6.472   2.219   2.911  0.3568  2.3973  1.9812
 5344TIP3    H237668   6.614   2.272   2.921  1.6865 -0.0737 -1.6417
 5345TIP3   OH237669   1.159   2.362   0.538  0.1926  0.0658  0.4037
 5345TIP3    H137670   1.122   2.431   0.483 -0.6441  1.7128  2.8484
 5345TIP3    H237671   1.252   2.383   0.545  0.0790  0.5172  0.5430
 5346TIP3   OH237672   0.052   1.679   0.581 -0.0719  0.2414 -0.2688
 5346TIP3    H137673   0.029   1.642   0.666 -1.2207  0.0251 -0.6692
 5346TIP3    H237674  -0.003   1.634   0.518  1.6545 -0.5214 -1.3257
 5347TIP3   OH237675   4.151   4.822   6.672  0.1526  0.0926 -0.0691
 5347TIP3    H137676   4.091   4.812   6.598 -0.3158 -0.6881  0.4006
 5347TIP3    H237677   4.188   4.910   6.661  0.7191 -0.3146 -1.6747
 5348TIP3   OH237678   4.355   0.407   6.939  0.2676 -0.5878  0.1275
 5348TIP3    H137679   4.301   0.468   6.889 -1.7494 -0.6333  2.0937
 5348TIP3    H237680   4.358   0.328   6.885  0.6438  0.3143 -1.2235
 5349TIP3   OH237681   3.016   2.067   1.850 -0.0880  0.7853 -0.0081
 5349TIP3    H137682   3.046   1.979   1.871  1.1144  1.1451 -0.1139
 5349TIP3    H237683   2.921   2.064   1.862 -0.2850 -0.9728 -1.6697
 5350TIP3   OH237684   4.931   0.457   0.145 -0.5735 -0.1920 -0.7700
 5350TIP3    H137685   4.897   0.540   0.111  1.2836  0.8047 -0.3316
 5350TIP3    H237686   4.917   0.394   0.075 -1.9778  0.4836 -1.1272
 5351TIP3   OH237687   6.257   4.898   2.884  0.2106 -0.7160  0.2714
 5351TIP3    H137688   6.194   4.867   2.819  1.2915  0.6242 -1.5009
 5351TIP3    H237689   6.254   4.993   2.877 -0.7550 -0.4134  3.3451
 5352TIP3   OH237690   4.057   3.665   7.278 -0.1088  0.5889  0.9904
 5352TIP3    H137691   4.053   3.705   7.191  0.6540 -0.8156  0.2808
 5352TIP3    H237692   4.027   3.734   7.337  0.3896  1.9217 -0.2588
 5353TIP3   OH237693   1.176   5.337   8.511 -0.1026 -0.9504  0.5807
 5353TIP3    H137694   1.254   5.340   8.455 -1.1181 -0.8730 -0.9134
 5353TIP3    H237695   1.103   5.355   8.450 -1.1980  0.0155  2.1014
 5354TIP3   OH237696   6.444   4.618   8.731  0.1003  0.0887  0.1912
 5354TIP3    H137697   6.488   4.693   8.693  1.5534 -0.0409  1.5225
 5354TIP3    H237698   6.382   4.655   8.794  0.5919  0.1757  0.6210
 5355TIP3   OH237699   5.600   4.587   1.661  0.2041  0.3630 -0.2567
 5355TIP3    H137700   5.547   4.532   1.718 -1.5432  0.3735 -1.7852
 5355TIP3    H237701   5.687   4.589   1.703 -0.5628 -0.9172  1.4944
 5356TIP3   OH237702   4.369   4.155   8.706  0.6210  0.3654 -0.3160
 5356TIP3    H137703   4.417   4.150   8.789 -0.7414 -0.9522  0.4561
 5356TIP3    H237704   4.379   4.067   8.668  2.4567  1.3659 -2.3188
 5357TIP3   OH237705   0.840   2.052   1.921 -0.3218 -0.3865  0.1348
 5357TIP3    H137706   0.894   2.063   2.000 -1.7431 -1.3823  1.2927
 5357TIP3    H237707   0.771   1.992   1.948 -1.1432 -0.3327 -1.7497
 5358TIP3   OH237708   6.262   5.251   1.788 -0.2102  0.4720  0.1107
 5358TIP3    H137709   6.336   5.294   1.744 -1.1254  1.7751 -0.2341
 5358TIP3    H237710   6.248   5.303   1.867 -0.4247 -0.0981  0.4530
 5359TIP3   OH237711   1.541   0.211   8.701  0.0444  0.2842 -0.3747
 5359TIP3    H137712   1.572   0.265   8.629  2.3665  1.1769  1.1972
 5359TIP3    H237713   1.521   0.274   8.771 -0.3095 -0.6890  0.4228
 5360TIP3   OH237714   0.062   0.939   0.705 -0.1534 -0.1008  0.2242
 5360TIP3    H137715   0.026   0.857   0.669  0.8779 -1.2846  1.7301
 5360TIP3    H237716  -0.005   0.969   0.766  0.4534 -1.1949  1.4928
 5361TIP3   OH237717   2.162   4.105   7.850 -0.4975  0.3669 -0.0798
 5361TIP3    H137718   2.193   4.160   7.922  2.7074  0.8839 -1.6933
 5361TIP3    H237719   2.238   4.053   7.825 -1.4215  0.2907 -3.1784
 5362TIP3   OH237720   1.846   5.583   1.518  0.1140  0.3968  0.0544
 5362TIP3    H137721   1.903   5.505   1.513  0.2693  0.5775 -1.2795
 5362TIP3    H237722   1.766   5.551   1.560  0.8020 -0.0976  1.0332
 5363TIP3   OH237723   2.577   6.267   2.491 -0.0715  0.3154 -0.6792
 5363TIP3    H137724   2.602   6.210   2.563 -0.2640  0.8020 -0.2168
 5363TIP3    H237725   2.482   6.275   2.499  0.0153  1.1587 -0.3799
 5364TIP3   OH237726   1.015   3.698   8.476  0.5128 -0.0393 -0.2427
 5364TIP3    H137727   0.959   3.724   8.549  0.3876  0.6978 -0.5925
 5364TIP3    H237728   0.991   3.607   8.458 -1.3009  0.5533 -1.0340
 5365TIP3   OH237729   5.816   6.154   0.221  0.4142 -0.3822  0.2911
 5365TIP3    H137730   5.780   6.177   0.135 -0.2916 -1.4275  0.2955
 5365TIP3    H237731   5.781   6.222   0.279  0.9777  0.3924 -0.2432
 5366TIP3   OH237732   2.848   0.022   7.299 -0.2673 -0.0169 -0.6970
 5366TIP3    H137733   2.886   0.000   7.384  0.3469  0.2874 -0.8826
 5366TIP3    H237734   2.855  -0.059   7.249  0.9619  0.2613 -1.0129
 5367TIP3   OH237735   1.366   5.316   7.999  0.4892 -0.2760  0.6654
 5367TIP3    H137736   1.355   5.379   8.070  2.0931 -0.3482  1.0293
 5367TIP3    H237737   1.453   5.278   8.015 -0.0191 -1.8622 -0.1053
 5368TIP3   OH237738   4.061   2.616   0.399  0.7828  0.2878 -0.2765
 5368TIP3    H137739   4.046   2.524   0.378 -0.3410  0.1611  0.9655
 5368TIP3    H237740   4.140   2.639   0.349  1.8094 -1.6783  0.3272
 5369TIP3   OH237741   1.183   1.509   0.841 -0.7638  0.3297  0.3277
 5369TIP3    H137742   1.118   1.539   0.905 -0.5280  2.3264 -0.2926
 5369TIP3    H237743   1.238   1.586   0.825  2.2098 -1.4091  1.2741
 5370TIP3   OH237744   1.985   0.014   2.497  1.0983 -0.1354  0.2979
 5370TIP3    H137745   1.935  -0.067   2.511 -0.0161  0.5987  0.6525
 5370TIP3    H237746   2.035   0.025   2.578  1.7955 -0.8334 -0.0280
 5371TIP3   OH237747   5.372   6.213   7.472  0.4187 -0.3693 -0.2660
 5371TIP3    H137748   5.365   6.184   7.381  1.1824 -1.3068 -0.0396
 5371TIP3    H237749   5.445   6.274   7.473 -0.4727  0.7288 -0.5296
 5372TIP3   OH237750   1.907   6.623   7.532  0.9407 -0.2403  0.1098
 5372TIP3    H137751   1.869   6.628   7.444 -1.0673  1.2415  0.9583
 5372TIP3    H237752   1.831   6.625   7.590  2.2367 -0.6872  1.9045
 5373TIP3   OH237753   2.957   0.641   2.065  0.4534  0.5339 -0.8280
 5373TIP3    H137754   2.914   0.583   2.128  1.0766  0.8863 -0.0652
 5373TIP3    H237755   3.037   0.669   2.109  0.9324  0.7343 -1.8098
 5374TIP3   OH237756   2.233   6.295   1.316  0.1868 -0.0852 -0.6091
 5374TIP3    H137757   2.282   6.218   1.346  1.1396 -0.7974 -3.6583
 5374TIP3    H237758   2.300   6.357   1.288 -0.6246  1.0485 -0.1177
 5375TIP3   OH237759   3.155   2.948   6.861  0.2375 -0.2242  0.4731
 5375TIP3    H137760   3.226   2.953   6.797  0.6513  2.5524  0.9957
 5375TIP3    H237761   3.091   3.012   6.830 -1.5530 -1.8606  0.6294
 5376TIP3   OH237762   0.258   4.666   0.187 -0.6514 -0.1382 -0.0105
 5376TIP3    H137763   0.229   4.717   0.112 -0.5598  1.9536  1.3032
 5376TIP3    H237764   0.341   4.706   0.213  0.5595 -2.3652 -0.2080
 5377TIP3   OH237765   1.927   1.970   7.069 -0.0477 -0.2573 -0.8532
 5377TIP3    H137766   1.903   2.062   7.083  0.9541  0.0029 -0.7691
 5377TIP3    H237767   1.857   1.921   7.111  0.5169  0.4850  1.0792
 5378TIP3   OH237768   1.578   5.805   8.000  0.5786  0.0690  0.3614
 5378TIP3    H137769   1.563   5.897   7.977 -0.2414 -0.4100 -1.1994
 5378TIP3    H237770   1.644   5.808   8.069  1.2305  1.7875 -0.2723
 5379TIP3   OH237771   5.017   0.759   1.047  0.5839 -0.0414  0.7459
 5379TIP3    H137772   5.076   0.801   1.109 -0.5819 -1.6025  3.0562
 5379TIP3    H237773   4.937   0.741   1.097 -1.0140 -0.0724 -1.6222
 5380TIP3   OH237774   6.260   5.147   7.874 -0.0280  0.1766  0.9592
 5380TIP3    H137775   6.321   5.219   7.887 -1.1453  1.2785  0.3054
 5380TIP3    H237776   6.198   5.154   7.947 -0.7261  0.5178  0.3502
 5381TIP3   OH237777   3.694   3.844   8.308  0.0895  0.1260 -0.0884
 5381TIP3    H137778   3.651   3.878   8.229  0.7922  0.6811 -0.2354
 5381TIP3    H237779   3.653   3.758   8.322 -0.5940  0.3552 -0.6052
 5382TIP3   OH237780   5.429   6.254   8.332 -0.1365  0.4207  0.4087
 5382TIP3    H137781   5.469   6.240   8.246 -0.8329  0.2408  0.1134
 5382TIP3    H237782   5.426   6.349   8.341  1.0536  0.4469  0.7684
 5383TIP3   OH237783   1.258   1.026   0.870 -0.1936 -0.6901  0.5559
 5383TIP3    H137784   1.218   1.005   0.786 -0.4254 -1.2280  0.7955
 5383TIP3    H237785   1.348   0.993   0.863 -0.2566 -0.8654  0.5700
 5384TIP3   OH237786   4.830   1.420   0.602 -0.1451 -0.2734  0.3322
 5384TIP3    H137787   4.826   1.515   0.589 -1.2934 -0.3001  0.3477
 5384TIP3    H237788   4.923   1.399   0.601  0.1456  0.9219  0.8243
 5385TIP3   OH237789   1.707   4.638   8.616  0.4697  0.0178 -0.0178
 5385TIP3    H137790   1.636   4.666   8.558  0.9351  0.1516 -0.5376
 5385TIP3    H237791   1.685   4.548   8.638 -0.0481  0.1747  0.1148
 5386TIP3   OH237792   2.422   0.870   1.064 -0.4316 -0.1057  0.4742
 5386TIP3    H137793   2.424   0.774   1.068 -1.3609 -0.1996 -0.7692
 5386TIP3    H237794   2.512   0.894   1.044 -0.1666 -0.7153  0.8915
 5387TIP3   OH237795   3.066   3.228   8.818 -0.2576  0.0796  0.7246
 5387TIP3    H137796   3.146   3.212   8.768 -1.6533  0.6934 -1.8733
 5387TIP3    H237797   2.996   3.197   8.762 -1.9345  0.4429  2.5182
 5388TIP3   OH237798   2.645   4.098   8.651  0.3390  0.8998 -0.4406
 5388TIP3    H137799   2.568   4.063   8.606  1.0710 -0.1110 -0.9538
 5388TIP3    H237800   2.611   4.167   8.708 -0.9846  0.2332 -0.3930
 5389TIP3   OH237801   4.257   5.012   2.521 -0.0295  0.2812 -0.0491
 5389TIP3    H137802   4.189   5.041   2.459 -0.5781  0.9658  0.8483
 5389TIP3    H237803   4.215   5.018   2.606  1.0365  0.3015  0.4868
 5390TIP3   OH237804   6.220   4.121   7.801 -0.0136 -0.3377 -0.1013
 5390TIP3    H137805   6.170   4.173   7.863 -1.2389 -1.3558 -0.2039
 5390TIP3    H237806   6.303   4.103   7.846 -0.5078 -0.2590  0.8599
 5391TIP3   OH237807   1.277   6.701   2.199 -0.4059 -0.2947 -0.2596
 5391TIP3    H137808   1.343   6.646   2.241 -0.1261  1.7370  2.2233
 5391TIP3    H237809   1.275   6.671   2.108  0.8570 -3.2269  0.5674
 5392TIP3   OH237810   4.407   0.958   0.729 -0.2210  0.1753  0.8059
 5392TIP3    H137811   4.483   0.935   0.783 -3.0129 -1.8100  4.3452
 5392TIP3    H237812   4.405   0.891   0.661  0.2430 -0.8299  1.7486
 5393TIP3   OH237813   5.693   1.098   1.453  0.0011  0.3477 -0.5857
 5393TIP3    H137814   5.650   1.156   1.390  0.1988  0.0161 -1.0317
 5393TIP3    H237815   5.621   1.054   1.497 -0.1332  0.2294 -0.9176
 5394TIP3   OH237816   4.143   4.097   2.253  0.3196 -0.4728  0.8189
 5394TIP3    H137817   4.186   4.177   2.222  0.4475  0.0786  2.3651
 5394TIP3    H237818   4.209   4.054   2.307 -1.0363  0.4521  3.3320
 5395TIP3   OH237819   3.106   0.294   8.109 -0.2777  0.3789 -0.0381
 5395TIP3    H137820   3.022   0.249   8.121 -0.3290  0.7321  1.1574
 5395TIP3    H237821   3.131   0.276   8.019 -0.7324 -1.2832  0.1317
 5396TIP3   OH237822   6.311   5.159   7.017 -0.2208 -0.0302  0.4499
 5396TIP3    H137823   6.359   5.205   6.948  0.2206 -0.3755  0.5200
 5396TIP3    H237824   6.314   5.219   7.091  1.2650 -0.5735  0.8791
 5397TIP3   OH237825   3.831   6.487   7.610 -0.0801  0.0558  0.2429
 5397TIP3    H137826   3.807   6.414   7.554 -1.1784 -0.0487  0.8237
 5397TIP3    H237827   3.821   6.564   7.555 -0.4219 -0.1027  0.0824
 5398TIP3   OH237828   5.904   6.079   8.714 -0.1885  0.0803  0.0485
 5398TIP3    H137829   5.978   6.137   8.699 -0.7790  0.9501  0.4115
 5398TIP3    H237830   5.937   5.992   8.692  1.5120  0.1557  1.9584
 5399TIP3   OH237831   3.398   3.163   7.684  0.1249 -0.1066  0.1249
 5399TIP3    H137832   3.433   3.134   7.600  0.2965  1.9923 -0.5932
 5399TIP3    H237833   3.433   3.101   7.748  1.8988 -0.4119 -1.0674
 5400TIP3   OH237834   6.004   5.793   8.689  0.0588  0.4982 -0.1866
 5400TIP3    H137835   6.022   5.728   8.620 -0.2528  1.7785 -1.5150
 5400TIP3    H237836   5.944   5.748   8.748 -0.1849 -0.4265 -1.0977
 5401TIP3   OH237837   3.293   3.017   1.948 -0.4387  0.2676 -0.3460
 5401TIP3    H137838   3.201   3.002   1.969 -0.7395 -0.9518 -2.2682
 5401TIP3    H237839   3.307   2.969   1.866  1.7984  0.7987 -0.3390
 5402TIP3   OH237840   4.322   4.762   0.677  0.6546 -0.2535 -0.1848
 5402TIP3    H137841   4.274   4.758   0.595  2.3861 -0.4355 -1.2216
 5402TIP3    H237842   4.272   4.825   0.730 -0.2513  0.2054 -1.5245
 5403TIP3   OH237843   6.285   1.539   0.467  0.2855  0.4425 -0.1314
 5403TIP3    H137844   6.298   1.632   0.488  0.8499  0.0884  1.1981
 5403TIP3    H237845   6.229   1.506   0.537  0.0241 -0.2065 -0.6392
 5404TIP3   OH237846   1.977   5.912   2.052  0.0003 -0.1066  0.0261
 5404TIP3    H137847   2.008   5.996   2.086 -2.2555  0.1919  1.5041
 5404TIP3    H237848   1.995   5.850   2.123 -0.6692 -0.3609 -0.0256
 5405TIP3   OH237849   6.763   4.149   1.704  0.2675 -0.2382  0.1377
 5405TIP3    H137850   6.853   4.174   1.680  0.8504  0.3642  2.5587
 5405TIP3    H237851   6.764   4.054   1.701  1.2438 -0.2730  0.8140
 5406TIP3   OH237852   2.498   3.967   0.378 -0.3952 -0.2800  0.4186
 5406TIP3    H137853   2.452   4.042   0.414 -0.3506  0.8484 -1.7352
 5406TIP3    H237854   2.455   3.950   0.294  1.1987 -1.0897 -0.2766
 5407TIP3   OH237855   1.584   4.046   6.941  0.0173  0.1296 -0.1553
 5407TIP3    H137856   1.664   4.061   6.991  0.9337 -0.4531 -1.3569
 5407TIP3    H237857   1.546   3.966   6.979 -0.8042  1.2081  1.3556
 5408TIP3   OH237858   4.378   0.527   1.778 -0.2618  0.3822  0.8187
 5408TIP3    H137859   4.400   0.498   1.689 -0.9898 -1.0855  1.0964
 5408TIP3    H237860   4.446   0.591   1.799 -0.8608  1.8295 -1.3180
 5409TIP3   OH237861   4.497   4.611   8.092 -0.3496  0.0712 -0.2216
 5409TIP3    H137862   4.485   4.705   8.104 -0.8597  0.0003 -0.1567
 5409TIP3    H237863   4.453   4.571   8.168 -1.3587 -0.2755 -0.9635
 5410TIP3   OH237864   5.825   4.016   7.823  0.1204  0.3027  0.1369
 5410TIP3    H137865   5.789   4.104   7.835 -2.1814 -0.3090 -1.5334
 5410TIP3    H237866   5.879   4.024   7.744  1.7751  0.6652  1.2590
 5411TIP3   OH237867   0.150   0.575   1.483 -0.0213 -0.2447 -0.6198
 5411TIP3    H137868   0.090   0.501   1.493 -1.6734  1.2065  1.4405
 5411TIP3    H237869   0.098   0.642   1.437  0.9024  0.1824 -1.0726
 5412TIP3   OH237870   0.541   2.397   8.223 -0.6743 -0.6450 -0.6276
 5412TIP3    H137871   0.461   2.362   8.185 -0.0372 -0.4784 -2.2033
 5412TIP3    H237872   0.581   2.323   8.269 -0.9309 -1.1556 -1.2118
 5413TIP3   OH237873   2.695   4.752   1.894  0.1279 -0.8200 -0.1227
 5413TIP3    H137874   2.742   4.683   1.940 -1.3413 -0.5873  1.8123
 5413TIP3    H237875   2.608   4.754   1.934 -0.3104  1.2567 -1.0380
 5414TIP3   OH237876   4.479   0.077   7.665  0.6498 -0.0050 -0.1760
 5414TIP3    H137877   4.528  -0.002   7.643  0.8219 -0.0662  0.4116
 5414TIP3    H237878   4.546   0.141   7.689  0.4461 -0.2231  1.0707
 5415TIP3   OH237879   5.595   1.064   6.946  0.2943  0.5323 -0.3146
 5415TIP3    H137880   5.641   1.116   7.012  0.4085 -2.2288  1.9772
 5415TIP3    H237881   5.665   1.029   6.890  0.3442  1.5355 -0.9029
 5416TIP3   OH237882   6.123   0.764   7.694 -0.0661 -0.5509 -0.4365
 5416TIP3    H137883   6.083   0.847   7.719 -1.0167 -1.4427  1.1346
 5416TIP3    H237884   6.050   0.710   7.663  0.2738 -1.3556  0.1186
 5417TIP3   OH237885   5.263   0.305   1.879  0.1277 -0.5492 -0.2999
 5417TIP3    H137886   5.220   0.384   1.911 -0.5425 -0.2231 -1.9554
 5417TIP3    H237887   5.328   0.284   1.947  0.0755  1.2074  0.3291
 5418TIP3   OH237888   3.670   2.631   0.711 -0.5243 -0.2052 -0.1512
 5418TIP3    H137889   3.579   2.658   0.701 -0.4484 -0.2823 -1.2825
 5418TIP3    H237890   3.712   2.657   0.629  0.5577  0.1325  0.4896
 5419TIP3   OH237891   3.070   5.725   0.192  0.3042  0.7112 -0.1742
 5419TIP3    H137892   3.100   5.725   0.283 -1.4874  2.9308  0.5153
 5419TIP3    H237893   3.077   5.816   0.165 -0.1561  0.2601 -1.9354
 5420TIP3   OH237894   0.460   6.559   2.926  0.1677  0.2529 -0.5827
 5420TIP3    H137895   0.448   6.481   2.872 -2.3932 -0.2357  0.5603
 5420TIP3    H237896   0.482   6.628   2.863  2.0249 -1.2263 -1.6573
 5421TIP3   OH237897   2.931   0.581   1.609 -0.4981 -0.9784 -0.7019
 5421TIP3    H137898   2.863   0.520   1.583 -2.7509  0.3061  1.7529
 5421TIP3    H237899   2.956   0.555   1.698  0.6215 -0.0794 -0.7160
 5422TIP3   OH237900   3.846   3.075   1.021  0.0698 -0.5294 -0.3027
 5422TIP3    H137901   3.906   3.018   0.974 -1.6569 -1.4043 -1.5889
 5422TIP3    H237902   3.902   3.128   1.078  2.2978  0.5747 -3.2892
 5423TIP3   OH237903   2.028   2.044   2.597  0.3673  0.0503 -0.1849
 5423TIP3    H137904   2.071   2.130   2.600 -2.4650  1.6142 -1.1890
 5423TIP3    H237905   2.031   2.013   2.688  1.2991  1.2522  0.2244
 5424TIP3   OH237906   3.205   0.183   1.911 -0.0822  0.0565  0.0065
 5424TIP3    H137907   3.143   0.125   1.954 -1.0109 -0.1382 -1.5102
 5424TIP3    H237908   3.288   0.169   1.957 -0.8940 -0.5115  1.3424
 5425TIP3   OH237909   5.536   1.126   1.954 -0.3784  0.1197  0.1788
 5425TIP3    H137910   5.535   1.031   1.945 -2.2458  0.3045 -3.2446
 5425TIP3    H237911   5.609   1.155   1.898 -1.6375  0.7639 -1.1853
 5426TIP3   OH237912   4.357   0.199   8.598 -0.0907 -0.1446  0.2498
 5426TIP3    H137913   4.390   0.115   8.629 -1.0714 -0.8662 -0.5924
 5426TIP3    H237914   4.266   0.182   8.572  0.0029  0.9269 -0.8969
 5427TIP3   OH237915   6.253   3.508   0.291  0.1891 -0.1495  0.2802
 5427TIP3    H137916   6.209   3.503   0.207 -1.5732 -0.6820  1.1701
 5427TIP3    H237917   6.230   3.426   0.335  1.1085  0.0884  1.2616
 5428TIP3   OH237918   1.144   4.697   2.363 -1.0025 -0.1438  0.5538
 5428TIP3    H137919   1.154   4.731   2.452  0.0494  1.5765 -0.1790
 5428TIP3    H237920   1.188   4.612   2.365 -1.2628 -0.2668  1.7391
 5429TIP3   OH237921   3.084   2.342   7.848 -0.1981  0.0266  0.2440
 5429TIP3    H137922   3.089   2.340   7.752  0.7349  0.0686  0.2899
 5429TIP3    H237923   3.110   2.254   7.875  0.5348  0.3180  0.4997
 5430TIP3   OH237924   1.690   3.625   8.641  0.4365 -0.1302 -0.1610
 5430TIP3    H137925   1.621   3.596   8.701  0.7321 -0.9900 -0.2261
 5430TIP3    H237926   1.645   3.680   8.577 -0.1326 -0.4332 -0.0262
 5431TIP3   OH237927   0.255   6.470   1.163  0.9320  0.1628 -0.1084
 5431TIP3    H137928   0.267   6.552   1.115 -1.0496 -0.7853 -2.4269
 5431TIP3    H237929   0.239   6.405   1.095 -3.0217 -1.1351  1.8065
 5432TIP3   OH237930   1.071   0.152   7.069 -0.2497  0.7449  0.0429
 5432TIP3    H137931   1.162   0.123   7.069 -0.4598  0.0802  0.2180
 5432TIP3    H237932   1.071   0.229   7.012  0.5668  1.2083  0.6473
 5433TIP3   OH237933   1.886   3.613   0.522 -0.2914  0.3830 -0.1720
 5433TIP3    H137934   1.929   3.691   0.486 -2.2816  0.9757 -1.4921
 5433TIP3    H237935   1.919   3.606   0.611  2.1463  1.0051 -0.9370
 5434TIP3   OH237936   2.629   4.560   0.078  0.1697 -0.3272 -0.0203
 5434TIP3    H137937   2.640   4.654   0.091  0.0702 -0.1394 -1.1724
 5434TIP3    H237938   2.661   4.544  -0.011 -2.0075 -0.9661 -0.7580
 5435TIP3   OH237939   1.901   2.124   1.664 -0.2163 -0.0279 -0.0346
 5435TIP3    H137940   1.914   2.123   1.569  1.0648  1.4100  0.0811
 5435TIP3    H237941   1.880   2.215   1.684 -0.0222 -0.2235  1.1112
 5436TIP3   OH237942   1.171   3.555   1.283 -0.0967 -0.5563 -0.3823
 5436TIP3    H137943   1.174   3.529   1.191  0.3205  0.9924 -0.8303
 5436TIP3    H237944   1.224   3.489   1.328 -1.4067 -2.1031 -1.0313
 5437TIP3   OH237945   6.070   0.617   2.522 -0.1862  0.2827  0.1906
 5437TIP3    H137946   6.085   0.528   2.552 -0.8622  0.4500  1.0681
 5437TIP3    H237947   6.043   0.607   2.430  0.0657 -0.3842  0.1851
 5438TIP3   OH237948   2.407   2.091   3.178 -0.0276 -0.0349 -0.6207
 5438TIP3    H137949   2.321   2.062   3.150  0.3244 -1.5624 -0.2347
 5438TIP3    H237950   2.466   2.062   3.108  0.4557 -1.1187  0.2075
 5439TIP3   OH237951   6.204   5.145   0.027 -0.3734  0.1286 -0.4526
 5439TIP3    H137952   6.155   5.213   0.073 -1.4976 -0.5235 -0.6640
 5439TIP3    H237953   6.140   5.076   0.010  0.7624 -1.0333 -0.1639
 5440TIP3   OH237954   5.386   4.026   1.512  0.3184  0.0046 -0.4923
 5440TIP3    H137955   5.321   4.096   1.504  1.2183  0.8240 -1.0440
 5440TIP3    H237956   5.381   3.979   1.429 -0.9691 -1.2406  0.2570
 5441TIP3   OH237957   3.360   1.489   1.242 -0.3313 -0.4718  0.2493
 5441TIP3    H137958   3.281   1.507   1.294  0.1158  1.0992  0.4193
 5441TIP3    H237959   3.329   1.491   1.151 -0.6941 -1.0088  0.3552
 5442TIP3   OH237960   4.052   6.278   1.178 -0.5905  0.3291 -0.1713
 5442TIP3    H137961   4.011   6.264   1.093 -1.5040 -1.4632  0.5105
 5442TIP3    H237962   4.042   6.194   1.223  2.4056  0.2909  0.6576
 5443TIP3   OH237963   3.148   6.689   1.486 -0.0307 -1.1144  0.0573
 5443TIP3    H137964   3.173   6.757   1.549 -1.4999  0.9715 -1.4904
 5443TIP3    H237965   3.185   6.609   1.523  0.7365  0.2815  2.6169
 5444TIP3   OH237966   2.301   3.728   1.811 -0.6936 -0.4895  0.3069
 5444TIP3    H137967   2.249   3.751   1.888  0.8169  0.6213  1.0496
 5444TIP3    H237968   2.298   3.806   1.756 -0.7914 -0.8589 -0.2219
 5445TIP3   OH237969   0.774   6.390   2.090  0.0009  0.3968  0.2436
 5445TIP3    H137970   0.712   6.427   2.027  1.1649 -0.3413 -1.4045
 5445TIP3    H237971   0.858   6.427   2.065  0.6311 -0.6071  0.8129
 5446TIP3   OH237972   5.518   6.351   7.995  0.3795  0.0567 -0.6494
 5446TIP3    H137973   5.518   6.441   8.026 -1.0396 -0.6055  1.5550
 5446TIP3    H237974   5.604   6.316   8.020 -0.2493 -0.0718  1.5820
 5447TIP3   OH237975   6.644   6.406   1.240 -0.1469 -0.7033 -0.4828
 5447TIP3    H137976   6.580   6.452   1.186 -0.7167 -0.8755  0.0352
 5447TIP3    H237977   6.699   6.475   1.276 -0.8133 -0.4346  0.0529
 5448TIP3   OH237978   4.686   6.176   8.602  0.0596 -0.5428 -0.0463
 5448TIP3    H137979   4.780   6.191   8.597 -0.2976  1.5694 -2.7042
 5448TIP3    H237980   4.650   6.261   8.630 -1.1614 -0.6794 -1.1197
 5449TIP3   OH237981   0.343   1.853   7.231  0.7765  0.0788  0.2210
 5449TIP3    H137982   0.380   1.913   7.295  1.8540  0.3436 -0.6189
 5449TIP3    H237983   0.414   1.838   7.168  0.1708 -1.2037 -0.1882
 5450TIP3   OH237984   5.908   6.292   8.432  0.1410 -0.4851 -0.5337
 5450TIP3    H137985   6.001   6.294   8.410  0.6396 -2.2720  1.1593
 5450TIP3    H237986   5.880   6.204   8.410 -0.9119 -0.2729 -0.1096
 5451TIP3   OH237987   3.746   2.388   7.521  0.2767 -0.0124  0.4771
 5451TIP3    H137988   3.655   2.397   7.491  0.3372  0.3139  0.3862
 5451TIP3    H237989   3.773   2.303   7.488  0.3682  0.3706 -0.4826
 5452TIP3   OH237990   6.830   0.237   0.237 -0.3654 -0.0881 -0.0112
 5452TIP3    H137991   6.864   0.185   0.310  0.5653 -3.1723 -2.4469
 5452TIP3    H237992   6.897   0.303   0.220  0.5667 -0.9239  0.3712
 5453TIP3   OH237993   4.074   3.337   0.716 -0.1734 -0.0560 -0.1678
 5453TIP3    H137994   3.991   3.290   0.707 -1.3084  2.1029 -2.3344
 5453TIP3    H237995   4.057   3.403   0.783 -0.9340  1.6062 -1.9083
 5454TIP3   OH237996   3.009   3.025   2.270 -0.2049 -0.0521  0.4464
 5454TIP3    H137997   2.960   3.106   2.285 -2.9199 -0.9084 -2.6731
 5454TIP3    H237998   2.982   2.968   2.342 -0.0198  1.0133  1.4055
 5455TIP3   OH237999   5.233   6.334   2.038 -0.1740 -0.3427 -0.3699
 5455TIP3    H138000   5.313   6.293   2.008  0.5013  1.0113 -0.5186
 5455TIP3    H238001   5.195   6.271   2.099  1.2742 -0.7891  0.1128
 5456TIP3   OH238002   4.540   6.519   1.365  1.0222  0.0558  0.3385
 5456TIP3    H138003   4.500   6.458   1.304 -0.5341  0.8987  0.4578
 5456TIP3    H238004   4.507   6.605   1.338 -0.8507  0.3355  3.1471
 5457TIP3   OH238005   4.188   5.462   7.465 -0.3302 -0.0909  0.1526
 5457TIP3    H138006   4.217   5.495   7.550 -2.4619 -1.0644  1.3447
 5457TIP3    H238007   4.179   5.368   7.478  1.1471 -0.5574 -1.7765
 5458TIP3   OH238008   6.282   2.530   7.891 -0.2810 -0.2514  0.2290
 5458TIP3    H138009   6.250   2.534   7.801 -0.1915  0.3906  0.2194
 5458TIP3    H238010   6.306   2.439   7.905  1.4595 -0.0213 -1.0143
 5459TIP3   OH238011   2.350   0.840   0.164 -0.3001 -0.2925  0.1186
 5459TIP3    H138012   2.402   0.849   0.085 -0.4328  0.6760  0.1194
 5459TIP3    H238013   2.412   0.849   0.236 -0.1198 -1.5833  0.1309
 5460TIP3   OH238014   4.308   5.631   6.975 -0.8584  0.0911 -0.2809
 5460TIP3    H138015   4.318   5.654   6.883  2.9134 -0.9179 -0.2735
 5460TIP3    H238016   4.256   5.550   6.974  3.4049 -2.9685 -2.1761
 5461TIP3   OH238017   6.278   1.039   6.801 -0.4563  0.5480 -0.2920
 5461TIP3    H138018   6.362   1.022   6.844 -0.0542  0.7873 -0.9590
 5461TIP3    H238019   6.295   1.022   6.708 -1.1919  0.4378 -0.4133
 5462TIP3   OH238020   3.653   2.639   1.422  0.1078 -0.8908  0.3125
 5462TIP3    H138021   3.694   2.687   1.349 -0.4445 -0.6010  0.1870
 5462TIP3    H238022   3.661   2.699   1.496 -1.8810  0.0393 -0.1767
 5463TIP3   OH238023   3.177   6.446   8.409  0.3381 -0.6389 -0.1049
 5463TIP3    H138024   3.117   6.511   8.371  0.5378 -0.7069 -0.5461
 5463TIP3    H238025   3.263   6.472   8.377  0.5748 -0.4251  0.6930
 5464TIP3   OH238026   6.076   2.146   2.159  0.4142  0.2982 -0.1434
 5464TIP3    H138027   6.086   2.067   2.212  0.2089 -0.3912 -1.1169
 5464TIP3    H238028   6.158   2.153   2.110  0.2445  0.4363 -0.4089
 5465TIP3   OH238029   5.985   2.015   1.834 -0.1814  0.1777 -0.1527
 5465TIP3    H138030   5.962   1.927   1.803 -0.3112  0.4414 -0.8349
 5465TIP3    H238031   6.061   2.002   1.890 -1.4596 -0.6228  1.4789
 5466TIP3   OH238032   4.043   2.136   2.222 -0.0399  0.2064 -0.1679
 5466TIP3    H138033   4.050   2.041   2.212  2.9147  0.3922 -0.7112
 5466TIP3    H238034   3.994   2.164   2.145 -0.1465 -0.8148 -0.4931
 5467TIP3   OH238035   2.876   3.336   8.263 -0.1605 -0.3409  0.9851
 5467TIP3    H138036   2.948   3.399   8.269  0.1636 -0.4208 -1.3283
 5467TIP3    H238037   2.894   3.286   8.184 -0.9529 -2.7060  2.1943
 5468TIP3   OH238038   6.493   5.909   6.955 -0.5947  0.2386 -0.0642
 5468TIP3    H138039   6.441   5.981   6.921 -0.0091  0.4273 -0.5772
 5468TIP3    H238040   6.441   5.831   6.938 -0.9453  0.4759 -0.0865
 5469TIP3   OH238041   6.394   0.731   7.712  0.1755 -0.3526 -0.7768
 5469TIP3    H138042   6.308   0.696   7.737 -0.2265  0.3620 -1.1135
 5469TIP3    H238043   6.437   0.749   7.796 -0.5842  0.6451 -0.5821
 5470TIP3   OH238044   4.428   2.074   0.720 -0.6525  0.3091  0.1766
 5470TIP3    H138045   4.349   2.115   0.754 -0.9833  0.6117 -0.9268
 5470TIP3    H238046   4.397   2.012   0.654 -0.3018 -2.8990  2.7272
 5471TIP3   OH238047   1.308   1.213   8.785 -0.0566  0.1194  0.0391
 5471TIP3    H138048   1.372   1.173   8.844 -0.6087  1.4687  1.6053
 5471TIP3    H238049   1.255   1.269   8.841 -1.5426  0.3360 -1.5132
 5472TIP3   OH238050   0.723   3.491   8.767  0.3954 -0.0034 -0.9043
 5472TIP3    H138051   0.774   3.462   8.843  0.1770 -1.0058 -1.1314
 5472TIP3    H238052   0.632   3.474   8.791  0.3723 -1.1321 -1.7018
 5473TIP3   OH238053   3.660   2.224   2.385  0.4188 -0.3003 -0.4758
 5473TIP3    H138054   3.618   2.143   2.413  1.2795 -0.4810  0.3421
 5473TIP3    H238055   3.613   2.293   2.432 -0.9655 -0.2121 -1.9266
 5474TIP3   OH238056   4.749   0.871   1.531  0.4494  0.0414  0.0733
 5474TIP3    H138057   4.831   0.917   1.513  1.6605 -2.0789 -0.0927
 5474TIP3    H238058   4.723   0.902   1.617  1.0017  1.3179 -0.1966
 5475TIP3   OH238059   3.732   4.058   2.991 -0.2442 -0.4614  0.4464
 5475TIP3    H138060   3.645   4.021   2.974  0.2681 -1.7578  0.5248
 5475TIP3    H238061   3.715   4.136   3.044 -1.3419 -0.8440  0.6924
 5476TIP3   OH238062   3.298   5.838   7.676 -0.7673  0.2062  0.6300
 5476TIP3    H138063   3.302   5.892   7.597  0.6432 -1.1711 -0.3038
 5476TIP3    H238064   3.241   5.765   7.652 -1.0670  0.2426  1.2136
 5477TIP3   OH238065   5.679   6.381   7.733 -0.1641  0.1101 -0.4860
 5477TIP3    H138066   5.625   6.303   7.748  1.5634 -1.5286 -2.2429
 5477TIP3    H238067   5.768   6.353   7.754  0.4114  1.9099 -0.3151
 5478TIP3   OH238068   4.837   6.434   1.696  0.4472  0.0718  0.1019
 5478TIP3    H138069   4.885   6.421   1.778  1.5723 -2.0525 -0.8133
 5478TIP3    H238070   4.904   6.436   1.628 -0.5028  1.2493 -0.8573
 5479TIP3   OH238071   0.956   2.628   2.733 -0.7063 -0.1825 -0.1887
 5479TIP3    H138072   0.965   2.540   2.769  1.5358 -0.2460 -0.7843
 5479TIP3    H238073   0.996   2.685   2.799  2.4052 -0.1897 -1.8850
 5480TIP3   OH238074   6.502   3.250   8.718 -0.7736  0.0059  0.8725
 5480TIP3    H138075   6.471   3.323   8.664 -0.3551  0.3065  1.0338
 5480TIP3    H238076   6.426   3.225   8.770 -0.8030  0.6180  1.1320
 5481TIP3   OH238077   2.471   0.866   8.737 -0.6376  0.2754 -0.0042
 5481TIP3    H138078   2.450   0.789   8.684 -1.8324  0.9825 -0.6076
 5481TIP3    H238079   2.488   0.935   8.673 -0.2891  0.6934  0.5322
 5482TIP3   OH238080   3.651   2.258   2.758 -0.0108  0.3401 -0.5514
 5482TIP3    H138081   3.739   2.232   2.734  0.2286  2.0377 -1.6494
 5482TIP3    H238082   3.617   2.305   2.681 -0.9811  1.7581  0.6711
 5483TIP3   OH238083   5.977   1.109   8.705  0.4395 -0.2519  0.4378
 5483TIP3    H138084   5.962   1.116   8.611  2.8272 -2.3834 -0.2184
 5483TIP3    H238085   5.985   1.199   8.735 -0.5717  0.4798 -1.3295
 5484TIP3   OH238086   0.742   6.636   0.125  0.2800  0.0791  0.0068
 5484TIP3    H138087   0.738   6.594   0.210  1.7083  0.2903  0.2069
 5484TIP3    H238088   0.794   6.576   0.071  1.4046  1.0113 -0.0076
 5485TIP3   OH238089   1.667   1.362   1.755 -0.0431 -0.2563 -0.4333
 5485TIP3    H138090   1.713   1.332   1.834  0.8745  0.4505 -0.6799
 5485TIP3    H238091   1.574   1.345   1.774 -0.0524  1.4884  1.5669
 5486TIP3   OH238092   0.474   1.425   2.105 -0.3220 -0.4516 -0.6135
 5486TIP3    H138093   0.426   1.354   2.148 -2.0456  1.6323  1.1221
 5486TIP3    H238094   0.407   1.474   2.058  0.3086  1.5070  0.4033
 5487TIP3   OH238095   1.922   6.669   2.803 -0.3578  0.4054  0.5412
 5487TIP3    H138096   1.945   6.649   2.894 -1.0929  1.9347  1.1123
 5487TIP3    H238097   1.843   6.618   2.786  0.9688 -1.5916 -0.0268
 5488TIP3   OH238098   1.270   6.101   0.842  0.2941 -0.1003  0.3730
 5488TIP3    H138099   1.229   6.024   0.880 -0.1902 -1.0540 -1.8765
 5488TIP3    H238100   1.312   6.068   0.762  0.9818  1.7931 -0.1016
 5489TIP3   OH238101   5.575   6.104   8.500  0.1507  0.7514 -0.0788
 5489TIP3    H138102   5.538   6.179   8.454 -2.0330 -0.7633 -0.9643
 5489TIP3    H238103   5.628   6.059   8.434  1.1961  1.3109  0.3611
 5490TIP3   OH238104   0.187   2.505   2.990  0.1916  0.0059  0.1749
 5490TIP3    H138105   0.181   2.544   2.903 -1.3422  0.4714  0.4621
 5490TIP3    H238106   0.207   2.578   3.048 -0.5452  0.0014  0.4373
 5491TIP3   OH238107   3.598   6.718   2.045  0.2918  0.0447 -0.6251
 5491TIP3    H138108   3.542   6.782   2.088 -0.1159 -0.6994 -0.0108
 5491TIP3    H238109   3.558   6.704   1.959  0.3695  0.5877 -0.7507
 5492TIP3   OH238110   6.618   4.450   8.608 -0.1651  0.5544 -0.3741
 5492TIP3    H138111   6.595   4.359   8.591  1.9551 -0.3545  1.1755
 5492TIP3    H238112   6.538   4.489   8.644 -0.6649 -1.1146  0.4075
 5493TIP3   OH238113   1.539   6.490   0.060 -0.2144 -0.3239 -0.4877
 5493TIP3    H138114   1.551   6.563   0.121 -0.3076  0.0532 -0.9170
 5493TIP3    H238115   1.619   6.439   0.069 -0.7124 -0.9220  0.8085
 5494TIP3   OH238116   0.749   5.621   6.981  0.1757 -0.0553  0.5535
 5494TIP3    H138117   0.738   5.547   7.040 -0.9950 -1.7130 -1.6199
 5494TIP3    H238118   0.699   5.692   7.022 -0.5128 -1.1094  1.5989
 5495TIP3   OH238119   1.592   6.179   2.809  0.1684  0.4541  0.6079
 5495TIP3    H138120   1.642   6.142   2.882  0.3183 -1.2022 -0.2804
 5495TIP3    H238121   1.500   6.170   2.836  0.2492  1.8429  1.4705
 5496TIP3   OH238122   2.681   2.291   0.679 -0.2350  0.0914 -0.4188
 5496TIP3    H138123   2.690   2.309   0.772 -0.0049  1.8055 -0.7389
 5496TIP3    H238124   2.587   2.283   0.665 -0.2922  0.2155 -0.1081
 5497TIP3   OH238125   4.812   3.190   7.007  0.3732 -0.2520  0.1579
 5497TIP3    H138126   4.775   3.267   7.049 -0.3039  0.0420 -0.9495
 5497TIP3    H238127   4.743   3.124   7.012  0.7485 -0.6206  0.6099
 5498TIP3   OH238128   6.506   0.103   1.685  0.2735  0.2962 -0.1304
 5498TIP3    H138129   6.457   0.099   1.603  0.8204  0.7907 -0.4837
 5498TIP3    H238130   6.581   0.046   1.672 -0.0265 -0.2107  0.2993
 5499TIP3   OH238131   1.031   3.533   2.490 -0.2392  0.5904 -0.5657
 5499TIP3    H138132   1.010   3.602   2.553 -0.0436  0.7789 -0.7078
 5499TIP3    H238133   1.082   3.577   2.422  0.4592  0.1746 -0.3182
 5500TIP3   OH238134   5.656   0.449   0.452  0.1474 -0.4165  0.5262
 5500TIP3    H138135   5.692   0.475   0.537  0.1609  1.4710 -0.0165
 5500TIP3    H238136   5.586   0.512   0.436  0.2409 -0.6616 -0.9299
 5501TIP3   OH238137   1.646   2.273   2.094 -0.8486 -0.1191  0.7796
 5501TIP3    H138138   1.575   2.236   2.145 -2.0566  0.9502 -0.0823
 5501TIP3    H238139   1.719   2.282   2.156 -1.5864 -0.8518  1.7633
 5502TIP3   OH238140   5.017   3.920   2.854 -0.3210  0.2933  0.2221
 5502TIP3    H138141   5.000   3.826   2.848  1.0963  0.0474 -0.2493
 5502TIP3    H238142   4.937   3.961   2.821 -0.2275 -0.7952 -1.4994
 5503TIP3   OH238143   5.991   2.865   0.974  0.1167  0.1486  0.4664
 5503TIP3    H138144   5.972   2.924   0.902  0.4488  1.0159  1.0750
 5503TIP3    H238145   6.085   2.847   0.965 -0.0641 -0.6392  0.0371
 5504TIP3   OH238146   3.092   0.546   8.255  0.5758 -0.1376 -0.2904
 5504TIP3    H138147   3.074   0.473   8.196  1.7806  0.1123 -1.0030
 5504TIP3    H238148   3.186   0.543   8.269  0.4111  0.2760  1.0302
 5505TIP3   OH238149   3.728   4.214   2.617  0.4083 -0.4214 -0.1539
 5505TIP3    H138150   3.732   4.301   2.656  1.1473 -0.5294  0.0304
 5505TIP3    H238151   3.806   4.169   2.650  1.7654 -0.1396 -2.6595
 5506TIP3   OH238152   0.010   6.829   0.796 -0.0271  0.0071 -0.6622
 5506TIP3    H138153  -0.077   6.867   0.808 -0.1764  0.0002 -1.6029
 5506TIP3    H238154   0.020   6.767   0.868 -0.9428 -0.2236 -0.7199
 5507TIP3   OH238155   3.709   4.010   6.862  0.2669 -0.9852  0.0695
 5507TIP3    H138156   3.701   3.934   6.920  0.3043 -1.8274 -0.9921
 5507TIP3    H238157   3.622   4.022   6.826 -0.0865  0.3686  1.2637
 5508TIP3   OH238158   6.067   2.077   1.524 -0.5781 -0.3838 -0.7321
 5508TIP3    H138159   6.088   2.049   1.435  2.7450  2.4444 -1.0525
 5508TIP3    H238160   6.101   2.006   1.579  0.1267 -0.7768 -1.6467
 5509TIP3   OH238161   5.124   2.495   7.446 -0.0662  0.2675  0.3105
 5509TIP3    H138162   5.140   2.439   7.522  1.0769 -0.0688 -0.1426
 5509TIP3    H238163   5.174   2.453   7.376 -2.1865 -0.2162 -1.0057
 5510TIP3   OH238164   3.828   0.325   0.588 -0.0328  0.0372  0.0010
 5510TIP3    H138165   3.807   0.288   0.502 -1.0119  1.2926 -0.3266
 5510TIP3    H238166   3.868   0.252   0.636  0.1885 -0.7948 -1.3788
 5511TIP3   OH238167   4.744   3.004   7.616 -0.2863 -0.5791  0.1203
 5511TIP3    H138168   4.732   2.948   7.539  1.4533  1.8942 -2.1513
 5511TIP3    H238169   4.715   3.091   7.587 -0.0645  0.3490  2.4634
 5512TIP3   OH238170   0.053   4.766   0.355  0.4546  0.0509  0.0920
 5512TIP3    H138171   0.081   4.844   0.308  2.2613 -1.9682 -2.4298
 5512TIP3    H238172   0.065   4.694   0.293 -3.2617 -2.0488  1.4656
 5513TIP3   OH238173   1.996   3.020   2.093 -0.1854  0.1940  0.2398
 5513TIP3    H138174   2.042   3.037   2.175 -0.6815  1.1491  0.3304
 5513TIP3    H238175   1.933   2.952   2.114  1.7574 -1.8491 -0.1009
 5514TIP3   OH238176   3.062   3.719   8.333  0.2779 -0.2393 -0.3631
 5514TIP3    H138177   3.046   3.808   8.366 -0.3885 -0.6418  0.4439
 5514TIP3    H238178   3.015   3.715   8.250 -0.5300 -0.1499  0.0830
 5515TIP3   OH238179   6.506   4.192   2.475 -0.3747 -0.0225  0.5208
 5515TIP3    H138180   6.567   4.142   2.421 -0.9835 -0.8202  0.5475
 5515TIP3    H238181   6.558   4.264   2.510  0.5745 -0.7426  0.6340
 5516TIP3   OH238182   5.735   0.529   8.802 -0.6003 -0.1522  0.8168
 5516TIP3    H138183   5.786   0.602   8.766  1.4468 -1.8247  0.0657
 5516TIP3    H238184   5.774   0.513   8.888  0.5855 -1.7236  0.0612
 5517TIP3   OH238185   0.103   5.793   1.017 -0.6900 -0.0383 -0.7254
 5517TIP3    H138186   0.180   5.807   1.072 -1.0210  2.1847 -0.7309
 5517TIP3    H238187   0.137   5.747   0.939  0.1708 -1.1941  0.2877
 5518TIP3   OH238188   0.588   4.223   7.935  0.4344  0.2617 -0.0148
 5518TIP3    H138189   0.621   4.142   7.973 -1.7104  0.2369  1.9695
 5518TIP3    H238190   0.577   4.282   8.009  2.1666  2.5466 -1.4244
 5519TIP3   OH238191   1.677   1.849   7.139  0.5237 -0.2211 -0.0565
 5519TIP3    H138192   1.607   1.872   7.077  0.3537  2.2727  0.9755
 5519TIP3    H238193   1.634   1.794   7.204  0.3232 -1.4755 -1.2036
 5520TIP3   OH238194   0.246   3.416   8.278  0.1601 -0.1223 -0.1851
 5520TIP3    H138195   0.181   3.360   8.237 -0.9663  0.9048  0.1340
 5520TIP3    H238196   0.330   3.385   8.244 -0.3743 -2.3379  0.4251
 5521TIP3   OH238197   4.402   0.860   2.485 -1.0036  0.4761  0.4204
 5521TIP3    H138198   4.405   0.907   2.569 -1.2571 -0.9922  1.2892
 5521TIP3    H238199   4.491   0.867   2.450 -0.0390 -1.3679  2.2802
 5522TIP3   OH238200   5.616   3.645   1.833 -0.1319  0.6405 -0.2159
 5522TIP3    H138201   5.541   3.586   1.826  0.9184 -0.7400 -0.2479
 5522TIP3    H238202   5.650   3.650   1.743 -0.2632  1.3671 -0.2256
 5523TIP3   OH238203   1.461   2.000   1.309 -0.3782 -0.3080  0.5910
 5523TIP3    H138204   1.430   1.912   1.329 -0.2849 -0.6560 -0.7219
 5523TIP3    H238205   1.512   1.990   1.229 -2.3994  1.3096 -0.9885
 5524TIP3   OH238206   1.832   1.707   1.277  0.3022 -0.4173  0.2371
 5524TIP3    H138207   1.812   1.768   1.348  0.2052  1.4605 -1.3153
 5524TIP3    H238208   1.747   1.673   1.250  0.3976 -1.7199  1.4406
 5525TIP3   OH238209   3.896   5.547   1.109  0.6134 -0.1353  0.1368
 5525TIP3    H138210   3.824   5.513   1.161 -0.6061 -3.7286 -3.3981
 5525TIP3    H238211   3.870   5.637   1.087 -2.0859 -0.8315  0.1815
 5526TIP3   OH238212   4.557   0.869   7.056 -0.5004 -0.4316 -0.2706
 5526TIP3    H138213   4.533   0.951   7.013  0.3578 -0.6910 -1.2770
 5526TIP3    H238214   4.506   0.802   7.011 -0.0622 -0.6317 -0.4701
 5527TIP3   OH238215   5.005   1.530   1.399  0.3632  0.5826  0.2646
 5527TIP3    H138216   5.023   1.461   1.335 -3.2194 -0.4138  0.1326
 5527TIP3    H238217   5.019   1.611   1.350  4.1816  0.1102  0.2913
 5528TIP3   OH238218   4.956   4.666   0.846  0.0008  0.7057  0.6577
 5528TIP3    H138219   5.024   4.632   0.903 -2.1531  0.3784  3.2009
 5528TIP3    H238220   4.953   4.760   0.864  0.3731  0.8914 -0.1703
 5529TIP3   OH238221   5.393   6.709   1.916 -0.6704  0.0986  0.5906
 5529TIP3    H138222   5.438   6.757   1.985  0.2429  1.0077 -0.5808
 5529TIP3    H238223   5.301   6.712   1.941 -0.6086  2.1883  0.7850
 5530TIP3   OH238224   6.404   2.874   8.292 -0.2737 -0.6015 -0.2918
 5530TIP3    H138225   6.493   2.847   8.313  0.3497  0.5506 -1.3715
 5530TIP3    H238226   6.368   2.800   8.242  0.1010 -1.0269  0.0571
 5531TIP3   OH238227   0.967   6.358   8.180 -0.0715 -0.2254  0.1216
 5531TIP3    H138228   0.958   6.388   8.270 -1.1256 -2.4609  0.8166
 5531TIP3    H238229   1.059   6.333   8.172  0.1025  0.2872  0.4521
 5532TIP3   OH238230   0.788   3.084   0.408  0.1499  1.0301 -0.3293
 5532TIP3    H138231   0.764   3.099   0.500 -0.4587  0.9160 -0.4641
 5532TIP3    H238232   0.721   3.131   0.358 -0.2538  0.0713 -0.7250
 5533TIP3   OH238233   2.403   3.723   2.154 -0.6852 -0.7412  0.4289
 5533TIP3    H138234   2.378   3.663   2.085  3.0796 -4.0891  1.5926
 5533TIP3    H238235   2.367   3.685   2.234  0.8715 -0.9565  1.0699
 5534TIP3   OH238236   2.081   1.549   8.735 -0.0800 -0.1512  0.3333
 5534TIP3    H138237   2.126   1.489   8.795  0.8738 -0.0111 -0.2346
 5534TIP3    H238238   2.031   1.607   8.793  1.2406  0.3214  1.0330
 5535TIP3   OH238239   6.451   3.922   1.274 -0.5292  0.2632 -0.5440
 5535TIP3    H138240   6.492   3.997   1.317 -0.4213 -0.9814  1.6767
 5535TIP3    H238241   6.376   3.901   1.328  0.1998 -2.0219 -0.3236
 5536TIP3   OH238242   2.931   4.890   1.445  0.7958  0.5067  0.1125
 5536TIP3    H138243   2.889   4.831   1.508  1.4597  2.8463  2.9672
 5536TIP3    H238244   2.977   4.832   1.385 -0.9451 -1.9146  0.9674
 5537TIP3   OH238245   4.246   4.911   0.421 -0.6438  0.6896 -0.0032
 5537TIP3    H138246   4.279   4.831   0.381  2.4277  2.2639 -0.9430
 5537TIP3    H238247   4.187   4.948   0.355  0.2162  0.6407 -0.8147
 5538TIP3   OH238248   3.111   2.907   7.954  0.3199 -0.5660  0.6737
 5538TIP3    H138249   3.041   2.842   7.940 -0.3878 -0.0396  1.6902
 5538TIP3    H238250   3.180   2.880   7.893 -0.3767 -1.6656  0.3302
 5539TIP3   OH238251   5.841   6.234   0.645  0.0217 -0.1692  0.2316
 5539TIP3    H138252   5.765   6.188   0.681 -0.0494  0.4663  0.9343
 5539TIP3    H238253   5.904   6.236   0.717  1.1368 -1.5897 -0.6642
 5540TIP3   OH238254   5.987   2.362   2.033 -0.3355  0.2357  0.2804
 5540TIP3    H138255   6.011   2.284   2.084 -0.1053  0.4898  0.5609
 5540TIP3    H238256   5.908   2.335   1.985 -1.0291  0.2404  1.3721
 5541TIP3   OH238257   2.528   6.687   1.672 -0.3695 -0.0974  0.0241
 5541TIP3    H138258   2.605   6.644   1.634 -0.3822  0.6592 -0.9233
 5541TIP3    H238259   2.528   6.661   1.763  1.7926  0.8890  0.3808
 5542TIP3   OH238260   3.144   3.102   1.650 -0.1121 -0.3776  0.8013
 5542TIP3    H138261   3.102   3.043   1.588  0.1843 -0.4567  0.6771
 5542TIP3    H238262   3.236   3.102   1.625 -0.2973  1.0852  0.0321
 5543TIP3   OH238263   1.987   1.631   0.164 -0.2817 -0.5993  0.3324
 5543TIP3    H138264   1.930   1.614   0.239  0.5497  0.6670  1.3014
 5543TIP3    H238265   1.933   1.683   0.105 -0.5634 -0.5802  0.5996
 5544TIP3   OH238266   2.061   1.168   7.559 -0.0153  0.2670  0.0313
 5544TIP3    H138267   2.061   1.261   7.536 -2.9370  0.4974  0.5673
 5544TIP3    H238268   2.033   1.165   7.650  1.3397 -1.1104  0.4506
 5545TIP3   OH238269   5.245   0.988   0.086  0.0100 -0.1243 -0.2374
 5545TIP3    H138270   5.280   1.006  -0.001 -2.2914  0.0523 -1.1918
 5545TIP3    H238271   5.219   1.074   0.119 -3.2907 -0.5873 -1.3301
 5546TIP3   OH238272   6.291   0.006   8.555 -0.1882 -0.0899  0.0148
 5546TIP3    H138273   6.203  -0.025   8.537 -1.1587  1.6404  1.4317
 5546TIP3    H238274   6.286   0.101   8.543  1.1501  0.1903  1.3393
 5547TIP3   OH238275   0.286   5.238   0.694  0.1012 -0.0528 -0.4360
 5547TIP3    H138276   0.345   5.167   0.670 -1.2137 -0.5582 -2.4958
 5547TIP3    H238277   0.238   5.205   0.770  1.8245  0.0445  0.7477
 5548TIP3   OH238278   4.563   4.733   8.447 -0.1664 -0.2064 -0.3691
 5548TIP3    H138279   4.645   4.686   8.463  0.6094  1.0166 -0.6837
 5548TIP3    H238280   4.537   4.765   8.534  0.0763  0.0375 -0.3875
 5549TIP3   OH238281   0.739   5.020   8.400 -0.0926 -0.1084 -0.0796
 5549TIP3    H138282   0.722   4.954   8.468 -1.2732  0.9556  0.7181
 5549TIP3    H238283   0.714   4.977   8.318 -0.9287 -0.6286  0.4305
 5550TIP3   OH238284   3.831   4.823   1.946 -0.0340 -0.3628 -0.0259
 5550TIP3    H138285   3.913   4.851   1.987 -0.9018  3.8154 -0.6866
 5550TIP3    H238286   3.855   4.804   1.856  0.3022  0.4559 -0.1174
 5551TIP3   OH238287   6.414   4.043   8.307 -0.6211  0.1229 -0.0187
 5551TIP3    H138288   6.396   3.954   8.338 -0.5679 -0.7797 -2.3213
 5551TIP3    H238289   6.508   4.044   8.290 -0.4166  1.0316  1.0632
 5552TIP3   OH238290   3.536   3.993   8.649 -0.4649  0.3372  0.0071
 5552TIP3    H138291   3.618   4.004   8.601 -0.0620  0.7286  0.7658
 5552TIP3    H238292   3.503   4.082   8.660 -0.7248  0.2232  0.1630
 5553TIP3   OH238293   4.185   1.546   7.887  0.1967  0.1130 -0.2577
 5553TIP3    H138294   4.108   1.583   7.930 -0.3309 -1.3474  0.1024
 5553TIP3    H238295   4.235   1.505   7.957  0.2791 -0.6875 -0.7787
 5554TIP3   OH238296   6.015   2.003   2.447  0.2377  0.0386  0.3079
 5554TIP3    H138297   5.944   1.957   2.492 -0.4525  0.7649 -0.0295
 5554TIP3    H238298   6.051   2.061   2.514 -0.7051  1.0227 -0.0099
 5555TIP3   OH238299   0.255   0.280   7.930  0.0249  0.5696 -0.3699
 5555TIP3    H138300   0.175   0.295   7.879  0.0081  1.0073 -0.2218
 5555TIP3    H238301   0.307   0.219   7.877  0.0392  1.0698 -0.9407
 5556TIP3   OH238302   2.414   0.469   0.319 -0.2267 -0.0312  0.1406
 5556TIP3    H138303   2.462   0.512   0.248 -1.5811  1.2774 -0.0447
 5556TIP3    H238304   2.389   0.384   0.282 -2.4415  1.2957 -1.7206
 5557TIP3   OH238305   2.072   4.841   0.811 -0.3384  0.2518 -0.3984
 5557TIP3    H138306   2.051   4.801   0.896  0.1259  2.7231  1.0001
 5557TIP3    H238307   2.163   4.818   0.795 -0.3715 -0.0903 -0.1022
 5558TIP3   OH238308   3.246   6.093   2.119 -0.3229  0.3124 -0.0924
 5558TIP3    H138309   3.222   6.027   2.184 -0.1459  1.2904  0.9976
 5558TIP3    H238310   3.172   6.153   2.116 -0.4266  0.1528 -0.9766
 5559TIP3   OH238311   2.083   0.882   0.116 -0.1117  0.2894 -0.3995
 5559TIP3    H138312   2.173   0.852   0.123 -0.4910 -0.5134  1.7221
 5559TIP3    H238313   2.031   0.802   0.111 -0.9087  0.5821  2.0019
 5560TIP3   OH238314   3.225   4.410   1.346 -0.2595 -0.2637  0.4584
 5560TIP3    H138315   3.263   4.495   1.324  1.6010 -1.6538 -2.3613
 5560TIP3    H238316   3.131   4.421   1.333 -0.2060  1.6217  1.3355
 5561TIP3   OH238317   0.252   6.704   8.341 -0.6572 -0.5689 -0.5938
 5561TIP3    H138318   0.345   6.720   8.354 -0.1900 -2.9971 -0.3236
 5561TIP3    H238319   0.213   6.790   8.329  1.2072  0.7421  1.9650
 5562TIP3   OH238320   0.054   2.502   1.680  0.1405  0.3112 -0.2682
 5562TIP3    H138321   0.028   2.410   1.684 -1.0618  0.6736  1.5965
 5562TIP3    H238322   0.149   2.501   1.688 -0.0293 -0.7208  2.8467
 5563TIP3   OH238323   3.685   5.454   1.755  0.2143  0.4108 -0.0323
 5563TIP3    H138324   3.713   5.544   1.744 -3.1426  1.9058  1.9860
 5563TIP3    H238325   3.689   5.438   1.849 -2.4181 -0.2442  0.0668
 5564TIP3   OH238326   5.457   5.153   0.434  0.2441  0.2181  0.6187
 5564TIP3    H138327   5.388   5.217   0.415  0.2093  0.1498  0.5112
 5564TIP3    H238328   5.410   5.070   0.445  0.2290  0.3084  1.3141
 5565TIP3   OH238329   4.978   5.088   1.476  0.0780 -0.3394  0.0671
 5565TIP3    H138330   4.974   5.151   1.404  0.1284 -0.1698  0.2137
 5565TIP3    H238331   5.064   5.046   1.467  0.4689  0.3492  0.5961
 5566TIP3   OH238332   5.623   5.965   2.486  0.3275 -0.2593 -0.1039
 5566TIP3    H138333   5.529   5.960   2.502  0.4552 -1.6127  0.3436
 5566TIP3    H238334   5.659   6.004   2.566  0.3013 -1.1680  0.3569
 5567TIP3   OH238335   6.084   1.699   8.632  0.3174  0.8779 -0.0191
 5567TIP3    H138336   6.096   1.743   8.548 -0.3618  1.2436  0.0686
 5567TIP3    H238337   6.161   1.643   8.641  0.4276  0.8863 -0.8489
 5568TIP3   OH238338   1.758   0.347   1.398 -0.0248 -0.2916  0.2980
 5568TIP3    H138339   1.717   0.368   1.482  2.7914  1.4575  1.3969
 5568TIP3    H238340   1.731   0.417   1.340  0.9768  0.6467  0.9107
 5569TIP3   OH238341   5.863   0.927   0.868 -0.0135  0.7070  0.4587
 5569TIP3    H138342   5.873   0.969   0.783 -1.3737  1.5362  0.6731
 5569TIP3    H238343   5.813   0.848   0.850  0.7279  0.2586  0.3385
 5570TIP3   OH238344   0.131   4.449   2.972  0.2388  0.4542  0.3238
 5570TIP3    H138345   0.059   4.403   2.929  1.7389 -0.7474 -1.0397
 5570TIP3    H238346   0.210   4.412   2.932  1.6045  2.1878  1.2881
 5571TIP3   OH238347   3.219   0.139   1.529 -0.2017  0.2064 -0.2425
 5571TIP3    H138348   3.309   0.120   1.557  0.7084  1.7248 -1.8978
 5571TIP3    H238349   3.207   0.231   1.549 -1.3561  0.0492 -0.1766
 5572TIP3   OH238350   4.877   5.348   2.359  0.0458  0.4770 -0.2306
 5572TIP3    H138351   4.846   5.431   2.396 -0.9880  0.3259 -0.7237
 5572TIP3    H238352   4.951   5.373   2.304 -1.0960  1.2873 -1.4719
 5573TIP3   OH238353   5.122   3.470   0.694  0.1356 -0.0357  0.2748
 5573TIP3    H138354   5.067   3.424   0.758  0.5503  0.1351  0.7537
 5573TIP3    H238355   5.210   3.468   0.731  0.1036  1.4926  0.5186
 5574TIP3   OH238356   4.539   6.068   0.916  0.0173  0.1336  0.1897
 5574TIP3    H138357   4.556   5.974   0.927 -0.2862  0.1001  0.3595
 5574TIP3    H238358   4.508   6.076   0.826 -0.0045  0.0651  0.1911
 5575TIP3   OH238359   5.861   3.454   8.757 -0.1232 -0.1817  0.1871
 5575TIP3    H138360   5.776   3.410   8.753  0.2921 -1.1158  1.1168
 5575TIP3    H238361   5.846   3.539   8.715 -1.2898 -0.6670 -0.4325
 5576TIP3   OH238362   0.283   1.841   1.531 -0.2278  1.0661  0.0291
 5576TIP3    H138363   0.255   1.921   1.488 -1.0736 -1.0315 -3.7840
 5576TIP3    H238364   0.203   1.789   1.539  0.1731  0.7194  3.0185
 5577TIP3   OH238365   2.422   0.334   6.730  0.3190 -0.3595  0.0936
 5577TIP3    H138366   2.337   0.320   6.772  0.2577 -1.1627 -0.2822
 5577TIP3    H238367   2.469   0.252   6.745  1.0513  0.0993  0.3391
 5578TIP3   OH238368   1.158   1.730   7.674  0.1943  0.0743 -0.6608
 5578TIP3    H138369   1.213   1.670   7.724  1.2413  0.3318 -1.4669
 5578TIP3    H238370   1.122   1.790   7.739  2.2335  0.9484 -0.2770
 5579TIP3   OH238371   2.600   2.938   6.793  0.8870 -0.2090  0.2360
 5579TIP3    H138372   2.552   3.009   6.836 -0.1004 -0.4561 -0.4063
 5579TIP3    H238373   2.631   2.977   6.711  0.9529 -0.3233  0.2062
 5580TIP3   OH238374   1.267   1.123   8.247 -0.1941 -0.1815 -0.0054
 5580TIP3    H138375   1.178   1.114   8.282 -0.3086  0.2740 -0.1677
 5580TIP3    H238376   1.322   1.075   8.309 -0.7062 -1.6195 -0.6206
 5581TIP3   OH238377   1.867   4.298   1.197  0.4495  0.3016 -0.5359
 5581TIP3    H138378   1.881   4.208   1.226 -1.0644 -0.4761 -1.9989
 5581TIP3    H238379   1.913   4.352   1.261  0.4368 -1.4504  1.0393
 5582TIP3   OH238380   2.628   2.049   0.917  0.1132 -0.0096 -0.0239
 5582TIP3    H138381   2.673   1.988   0.858 -0.9899 -0.0642 -0.8378
 5582TIP3    H238382   2.665   2.135   0.895 -1.1982  0.1726 -1.7787
 5583TIP3   OH238383   2.195   0.132   1.721  0.1802  0.2741  0.7900
 5583TIP3    H138384   2.167   0.152   1.632  0.3585 -0.6352  0.5247
 5583TIP3    H238385   2.271   0.189   1.734  1.0803 -0.6564 -0.1922
 5584TIP3   OH238386   3.354   0.104   8.814  0.6119  0.4270 -0.3205
 5584TIP3    H138387   3.382   0.157   8.888  0.2568  1.9740 -1.2407
 5584TIP3    H238388   3.432   0.053   8.789  0.7371 -0.0997  1.0546
 5585TIP3   OH238389   1.027   4.036   1.858  0.3371 -0.5588 -0.0716
 5585TIP3    H138390   1.012   3.961   1.800  1.4975 -1.1807  0.4101
 5585TIP3    H238391   0.999   4.005   1.944  2.9556 -1.2946  0.5897
 5586TIP3   OH238392   5.736   1.423   7.825  0.2066 -0.0093  0.0960
 5586TIP3    H138393   5.765   1.514   7.825  0.4844 -0.0907 -0.5547
 5586TIP3    H238394   5.716   1.404   7.733 -0.0644 -0.5382  0.2570
 5587TIP3   OH238395   1.980   1.783   7.894  0.0830  0.3968  0.5002
 5587TIP3    H138396   1.916   1.803   7.962  0.3619  1.1952  0.5467
 5587TIP3    H238397   2.058   1.832   7.920 -0.0124  1.2610 -0.7191
 5588TIP3   OH238398   4.090   3.596   0.024 -0.2883 -0.6607 -0.7252
 5588TIP3    H138399   4.160   3.530   0.015  1.9094  1.3763  0.2720
 5588TIP3    H238400   4.133   3.679   0.004 -2.5433  0.6804 -0.3260
 5589TIP3   OH238401   6.771   1.334   8.275  0.4798  0.0152 -0.8081
 5589TIP3    H138402   6.736   1.262   8.222 -0.4497 -0.4467  0.3869
 5589TIP3    H238403   6.739   1.413   8.232 -0.4010 -0.3569 -0.8637
 5590TIP3   OH238404   0.175   1.070   8.190  0.6204  0.5771  0.0663
 5590TIP3    H138405   0.198   1.160   8.215 -1.0664  0.5413  2.0375
 5590TIP3    H238406   0.194   1.066   8.096  1.1875  2.8445  0.0114
 5591TIP3   OH238407   3.438   6.347   2.763 -0.2477 -0.5127  0.4400
 5591TIP3    H138408   3.484   6.362   2.846  1.5794  0.9359 -0.7619
 5591TIP3    H238409   3.471   6.263   2.732 -0.9041 -1.0396  1.1323
 5592TIP3   OH238410   5.723   2.225   0.547  0.1980 -0.1167  0.1574
 5592TIP3    H138411   5.736   2.302   0.603 -1.9045  0.0650  0.4901
 5592TIP3    H238412   5.640   2.188   0.577  0.9977 -2.3485 -0.2272
 5593TIP3   OH238413   3.580   4.657   8.697 -0.1175  0.2425 -0.5337
 5593TIP3    H138414   3.671   4.659   8.726  0.0993 -0.3868 -1.1398
 5593TIP3    H238415   3.583   4.690   8.607 -0.6470  1.2704 -0.1899
 5594TIP3   OH238416   1.491   1.349   7.801 -0.3107  0.6855  0.0501
 5594TIP3    H138417   1.423   1.405   7.761 -0.8280  0.3801  0.4804
 5594TIP3    H238418   1.543   1.318   7.727 -2.6654 -1.7828 -0.7296
 5595TIP3   OH238419   3.750   4.293   6.875  0.0629  0.6817 -0.4076
 5595TIP3    H138420   3.657   4.318   6.883  0.4033  2.4996 -1.4993
 5595TIP3    H238421   3.749   4.198   6.867 -1.4900  0.3393  2.4062
 5596TIP3   OH238422   6.732   2.879   0.269 -0.5644  0.0292  0.8125
 5596TIP3    H138423   6.679   2.858   0.346 -0.8047  2.5205  1.4152
 5596TIP3    H238424   6.669   2.892   0.199 -0.4190 -1.1012  0.4489
 5597TIP3   OH238425   4.038   0.627   2.286 -0.2927 -0.1130 -0.0192
 5597TIP3    H138426   3.954   0.599   2.323 -0.4982  0.5725  0.0401
 5597TIP3    H238427   4.023   0.630   2.192 -0.9336  1.9170  0.1192
 5598TIP3   OH238428   1.029   6.013   7.212 -0.1881  0.2444 -0.6843
 5598TIP3    H138429   1.090   6.032   7.283 -0.4251  0.4110 -0.5222
 5598TIP3    H238430   0.965   5.954   7.250  0.4358 -0.7404 -1.1379
 5599TIP3   OH238431   0.365   4.687   8.562 -0.0809  0.2740  0.0174
 5599TIP3    H138432   0.369   4.611   8.505  0.5933 -1.0786  1.7874
 5599TIP3    H238433   0.453   4.723   8.562 -0.4111  1.1244 -0.8631
 5600TIP3   OH238434   5.400   0.452   8.437  0.2257 -0.0589  0.5661
 5600TIP3    H138435   5.431   0.540   8.461  1.0630  0.0309 -0.7177
 5600TIP3    H238436   5.315   0.444   8.479 -0.3921  1.8304 -0.2329
 5601TIP3   OH238437   4.839   2.106   0.869 -0.1548 -0.4678 -0.1828
 5601TIP3    H138438   4.808   2.018   0.847  0.7290 -0.5066 -1.3571
 5601TIP3    H238439   4.892   2.094   0.948 -0.5595 -0.8857  0.0267
 5602TIP3   OH238440   6.390   5.684   7.758 -0.1361 -0.4292  0.2961
 5602TIP3    H138441   6.462   5.649   7.707 -2.0405 -1.3164 -1.9778
 5602TIP3    H238442   6.385   5.627   7.835 -0.4777 -2.5193 -1.2088
 5603TIP3   OH238443   2.011   2.913   0.154  0.0983  0.3484  0.3365
 5603TIP3    H138444   2.071   2.930   0.082  0.9589 -2.7207  0.2104
 5603TIP3    H238445   2.008   2.996   0.203  1.7249  1.6150 -1.5494
 5604TIP3   OH238446   5.336   0.064   0.546 -0.4201 -0.0408 -0.2650
 5604TIP3    H138447   5.396  -0.007   0.522  2.0238  1.0623  2.0559
 5604TIP3    H238448   5.337   0.122   0.469  2.9902  0.7913  0.2359
 5605TIP3   OH238449   4.259   5.884   1.727  0.0797 -0.6314  0.7886
 5605TIP3    H138450   4.354   5.892   1.712 -0.0262 -1.8085 -0.8047
 5605TIP3    H238451   4.231   5.974   1.746  1.0025  0.4630 -2.3140
 5606TIP3   OH238452   2.769   4.465   3.060  0.5233 -0.0011 -0.0689
 5606TIP3    H138453   2.774   4.407   2.984  1.1782  0.0139 -0.0504
 5606TIP3    H238454   2.843   4.437   3.115 -2.2643 -2.8485  2.6404
 5607TIP3   OH238455   6.687   0.085   2.018 -0.2513  0.2305 -0.6050
 5607TIP3    H138456   6.776   0.053   2.006  0.3125  0.9907  1.2318
 5607TIP3    H238457   6.686   0.171   1.977 -0.4296 -0.1204 -1.3799
 5608TIP3   OH238458   0.941   2.768   2.490  0.7663  0.3036  0.0777
 5608TIP3    H138459   1.029   2.746   2.458  1.1454  1.1010  0.5185
 5608TIP3    H238460   0.944   2.745   2.583  0.5210  0.3644  0.0999
 5609TIP3   OH238461   4.834   1.939   8.148  0.1155  0.1239  0.0637
 5609TIP3    H138462   4.929   1.931   8.150  0.1968  0.2469 -1.6867
 5609TIP3    H238463   4.812   1.949   8.056 -1.6732 -0.7148  0.3374
 5610TIP3   OH238464   0.259   3.234   1.266 -0.4739 -0.1069 -0.1869
 5610TIP3    H138465   0.265   3.154   1.319  1.3461  0.8196  1.1464
 5610TIP3    H238466   0.348   3.247   1.234  0.0840  2.8944  2.0818
 5611TIP3   OH238467   2.735   2.491   1.421  0.0995  0.5655 -0.5715
 5611TIP3    H138468   2.685   2.413   1.398 -1.0008  1.0403  0.1432
 5611TIP3    H238469   2.712   2.508   1.512  1.1116  1.1482 -0.4097
 5612TIP3   OH238470   2.771   1.989   2.842  0.7064  0.6303  0.3010
 5612TIP3    H138471   2.819   1.908   2.822 -2.5393 -1.0753 -1.3540
 5612TIP3    H238472   2.809   2.054   2.784  0.9631 -0.6872 -1.0718
 5613TIP3   OH238473   3.077   1.758   8.160  0.4734 -0.0914 -0.1970
 5613TIP3    H138474   3.015   1.748   8.232 -0.1363  4.5801  0.2062
 5613TIP3    H238475   3.029   1.731   8.082  0.9714 -4.7140  0.8062
 5614TIP3   OH238476   5.682   4.102   0.395 -0.0292 -0.4180 -0.6107
 5614TIP3    H138477   5.608   4.146   0.353  0.0710  0.4598  0.1035
 5614TIP3    H238478   5.757   4.121   0.338 -0.2870 -1.0428 -1.1668
 5615TIP3   OH238479   5.370   4.274   7.361  0.1414 -0.2820  0.6851
 5615TIP3    H138480   5.282   4.310   7.368  0.3959  0.7701 -0.9853
 5615TIP3    H238481   5.377   4.213   7.434 -2.5292 -1.6383 -0.0864
 5616TIP3   OH238482   2.762   3.419   1.066 -0.4312  0.4200 -0.1517
 5616TIP3    H138483   2.706   3.459   1.000  0.0025  0.9795 -0.1921
 5616TIP3    H238484   2.841   3.393   1.019 -0.1846  0.6784  0.1146
 5617TIP3   OH238485   3.154   2.310   7.584 -0.2585  0.1959 -0.0226
 5617TIP3    H138486   3.212   2.385   7.568 -0.1943  0.1597  0.0385
 5617TIP3    H238487   3.126   2.283   7.496 -0.0826  0.1351 -0.0609
 5618TIP3   OH238488   5.730   3.937   0.112 -0.5944  0.9407  0.3849
 5618TIP3    H138489   5.682   3.999   0.057  0.5364  0.8943 -0.7012
 5618TIP3    H238490   5.690   3.852   0.092  1.5662  0.4696 -2.6025
 5619TIP3   OH238491   6.488   0.767   0.542 -0.0572 -0.6909  0.0564
 5619TIP3    H138492   6.502   0.696   0.604 -3.1503 -0.7169  0.8819
 5619TIP3    H238493   6.518   0.846   0.588  0.5071 -1.0573  0.3357
 5620TIP3   OH238494   6.144   6.486   7.519  0.0500  0.3047  0.1479
 5620TIP3    H138495   6.103   6.522   7.440  0.1052  0.5707  0.2398
 5620TIP3    H238496   6.107   6.399   7.528  0.5880 -0.0089 -0.5861
 5621TIP3   OH238497   4.200   5.091   8.033  0.1696  0.0942  0.6054
 5621TIP3    H138498   4.216   5.050   8.118  0.7973 -0.6067  0.1647
 5621TIP3    H238499   4.282   5.138   8.014  0.2887 -0.3037  0.0963
 5622TIP3   OH238500   1.211   2.477   2.564  0.3782 -0.0315  0.0310
 5622TIP3    H138501   1.155   2.470   2.640  0.6660  1.6191  0.4256
 5622TIP3    H238502   1.286   2.421   2.584  0.9422  1.1786  1.4366
 5623TIP3   OH238503   1.717   0.704   1.976 -0.0137 -0.1510  0.6570
 5623TIP3    H138504   1.788   0.640   1.973  0.1359 -0.0112  1.1612
 5623TIP3    H238505   1.663   0.678   2.051  0.6503  0.9333  1.5409
 5624TIP3   OH238506   4.643   3.193   7.431 -0.3439  0.3387 -0.0144
 5624TIP3    H138507   4.568   3.161   7.380  0.1194 -1.1666  0.1994
 5624TIP3    H238508   4.719   3.150   7.392  0.1076 -0.2190  1.4128
 5625TIP3   OH238509   3.929   6.469   8.244 -0.1369 -0.1904  0.3308
 5625TIP3    H138510   4.009   6.432   8.207 -1.4519 -2.0534 -0.8122
 5625TIP3    H238511   3.889   6.518   8.172  0.7772  2.2017  1.3822
 5626TIP3   OH238512   0.082   3.073   8.520  0.8163 -0.2053 -0.0290
 5626TIP3    H138513   0.096   3.042   8.430  1.1006 -0.6174  0.1549
 5626TIP3    H238514  -0.014   3.077   8.529  0.7605 -1.1319 -0.0337
 5627TIP3   OH238515   0.517   6.228   2.090 -0.3141  0.2373  0.3551
 5627TIP3    H138516   0.499   6.311   2.135  2.7025 -0.2638  2.8236
 5627TIP3    H238517   0.602   6.201   2.124 -0.1308 -2.7651 -2.1180
 5628TIP3   OH238518   5.809   1.636   8.532  0.1328  0.0817  0.4173
 5628TIP3    H138519   5.874   1.573   8.501  0.9139  1.2178 -0.3514
 5628TIP3    H238520   5.858   1.718   8.542 -1.4340  1.4219 -1.7472
 5629TIP3   OH238521   0.996   1.212   7.832 -0.2885  0.0296  0.3481
 5629TIP3    H138522   0.913   1.208   7.880 -0.2561 -1.5305  0.3168
 5629TIP3    H238523   1.032   1.124   7.840  0.9823  0.4738 -0.3316
 5630TIP3   OH238524   1.434   4.157   6.745  0.4434 -0.9269  0.0111
 5630TIP3    H138525   1.480   4.153   6.829 -0.1890  1.4131  0.5497
 5630TIP3    H238526   1.490   4.211   6.690 -0.5138  0.0339 -0.0621
 5631TIP3   OH238527   3.290   4.083   0.594 -0.3514 -0.1629  0.2991
 5631TIP3    H138528   3.381   4.064   0.620  0.2767 -0.2629 -1.7958
 5631TIP3    H238529   3.264   4.008   0.541 -1.1015  0.5901 -0.4323
 5632TIP3   OH238530   2.234   4.816   7.739 -0.1855  0.0029  0.0828
 5632TIP3    H138531   2.231   4.751   7.669  0.8229  0.9046 -0.8318
 5632TIP3    H238532   2.297   4.881   7.708 -1.0685  1.3430  1.0268
 5633TIP3   OH238533   2.995   6.600   2.570  0.1380 -0.3106  0.2610
 5633TIP3    H138534   3.015   6.520   2.619 -0.8732 -1.3555 -0.9661
 5633TIP3    H238535   2.967   6.662   2.637 -3.7987 -2.5069  0.9522
 5634TIP3   OH238536   0.446   4.355   0.945 -0.1936  0.5340  0.3352
 5634TIP3    H138537   0.448   4.382   1.037  0.1369  1.6910  0.0098
 5634TIP3    H238538   0.512   4.410   0.903  2.6867 -2.8038  0.0987
 5635TIP3   OH238539   1.627   2.804   0.838  0.4454  0.0918  0.1732
 5635TIP3    H138540   1.574   2.734   0.800  0.4520  0.4157 -0.4390
 5635TIP3    H238541   1.716   2.784   0.810  0.4748  0.2301  0.1687
 5636TIP3   OH238542   3.791   2.928   8.037 -0.0825 -0.4663 -0.0499
 5636TIP3    H138543   3.767   2.970   7.955 -1.0212 -0.3388  0.2758
 5636TIP3    H238544   3.828   2.999   8.090 -0.6587 -0.2621  0.0956
 5637TIP3   OH238545   1.539   5.978   2.472 -0.0751 -0.3687 -0.2502
 5637TIP3    H138546   1.574   5.927   2.545  1.2475  0.6544 -0.1284
 5637TIP3    H238547   1.605   6.047   2.457 -1.4887  0.9231 -0.7986
 5638TIP3   OH238548   3.241   1.169   0.054 -0.0341 -0.3973 -0.4254
 5638TIP3    H138549   3.231   1.260   0.084 -1.4086 -0.5610 -0.3300
 5638TIP3    H238550   3.170   1.157  -0.010  0.3659 -1.2994 -0.7140
 5639TIP3   OH238551   6.431   1.705   7.694 -0.2212 -0.1775  0.1430
 5639TIP3    H138552   6.391   1.690   7.609 -1.3675  1.2150  0.3856
 5639TIP3    H238553   6.505   1.762   7.675 -0.2699 -0.1494  0.0335
 5640TIP3   OH238554   1.424   5.125   1.928  0.0794 -0.2997 -0.0709
 5640TIP3    H138555   1.409   5.139   2.021 -0.0196 -1.4574  0.1054
 5640TIP3    H238556   1.372   5.193   1.884  2.8235  2.5178  0.7296
 5641TIP3   OH238557   0.624   4.487   0.786  0.1213  0.0637 -0.0360
 5641TIP3    H138558   0.626   4.581   0.768 -0.5460  0.0978  0.0302
 5641TIP3    H238559   0.706   4.454   0.751  0.2983  0.6512 -0.1871
 5642TIP3   OH238560   4.395   1.130   2.343  0.2723 -0.0749  0.6511
 5642TIP3    H138561   4.467   1.192   2.328 -0.6601  0.8236 -0.2502
 5642TIP3    H238562   4.435   1.060   2.395  0.9789  2.0992  3.3202
 5643TIP3   OH238563   4.525   3.168   0.456  0.6529  0.3761 -0.3217
 5643TIP3    H138564   4.442   3.183   0.501  0.0808 -0.3615 -1.0845
 5643TIP3    H238565   4.504   3.180   0.363  0.7659 -2.2251 -0.7508
 5644TIP3   OH238566   3.263   3.862   7.592 -0.0573 -0.6054 -0.5382
 5644TIP3    H138567   3.212   3.860   7.511  0.0473 -1.2631 -0.5942
 5644TIP3    H238568   3.231   3.786   7.642  0.5384 -0.7544 -0.3791
 5645TIP3   OH238569   6.762   5.189   0.170  0.8640  0.4368  0.4185
 5645TIP3    H138570   6.803   5.226   0.248 -0.3919  0.6094  1.0285
 5645TIP3    H238571   6.814   5.112   0.149  0.6177 -0.2197  2.0667
 5646TIP3   OH238572   1.538   5.357   7.767 -0.0169  0.5933 -0.1172
 5646TIP3    H138573   1.490   5.326   7.844  1.4152 -1.7273 -0.0555
 5646TIP3    H238574   1.472   5.397   7.711 -1.2790  1.3100  1.7902
 5647TIP3   OH238575   6.090   6.003   1.788 -0.3986  0.3822 -0.9855
 5647TIP3    H138576   6.183   5.980   1.788 -0.3210  0.6248 -0.1121
 5647TIP3    H238577   6.063   5.997   1.697  0.0838 -1.2435 -1.0539
 5648TIP3   OH238578   4.668   5.317   0.459 -0.3767 -0.0027 -0.2095
 5648TIP3    H138579   4.602   5.354   0.400 -1.8596 -1.8513  0.2089
 5648TIP3    H238580   4.639   5.344   0.547 -1.3798 -1.9075  0.0858
 5649TIP3   OH238581   3.677   4.158   2.006  0.4196  0.4803 -0.6487
 5649TIP3    H138582   3.727   4.077   1.994 -0.8221 -0.3120 -0.6630
 5649TIP3    H238583   3.643   4.179   1.919  0.3091  0.7356 -0.5450
 5650TIP3   OH238584   4.918   2.365   8.603 -0.1912 -0.4516  0.1364
 5650TIP3    H138585   4.825   2.384   8.593  0.1633  0.7536 -1.1576
 5650TIP3    H238586   4.954   2.442   8.647  0.1877 -0.9448  0.7060
 5651TIP3   OH238587   0.263   1.569   1.750  0.0035  0.3229  0.1616
 5651TIP3    H138588   0.175   1.541   1.725  0.8075 -1.1126 -1.2170
 5651TIP3    H238589   0.295   1.618   1.675  1.0689 -0.8216 -0.1677
 5652TIP3   OH238590   5.816   4.388   1.899 -0.6170  0.8639  0.2346
 5652TIP3    H138591   5.743   4.381   1.961  0.3478 -0.4690  1.2862
 5652TIP3    H238592   5.881   4.441   1.945 -0.3911  0.9214 -0.1476
 5653TIP3   OH238593   3.471   4.892   2.688 -0.0858 -0.0687 -0.1025
 5653TIP3    H138594   3.487   4.915   2.597 -1.6244  0.0470 -0.3732
 5653TIP3    H238595   3.463   4.976   2.733  1.0154 -0.1244  0.2196
 5654TIP3   OH238596   5.046   2.639   3.347 -0.1527  0.1494 -0.2648
 5654TIP3    H138597   5.117   2.687   3.303 -0.0925 -0.1711 -0.5194
 5654TIP3    H238598   4.991   2.707   3.384  1.6999  0.4504  2.2444
 5655TIP3   OH238599   4.697   0.245   1.495 -0.1202  0.1260  0.6034
 5655TIP3    H138600   4.710   0.327   1.543  1.3816  0.8135 -0.8731
 5655TIP3    H238601   4.623   0.203   1.539  1.8692  0.0535  4.3746
 5656TIP3   OH238602   5.002   0.769   1.825 -0.1469 -0.4023 -0.1336
 5656TIP3    H138603   4.954   0.834   1.877 -0.0180 -0.7789  0.4775
 5656TIP3    H238604   5.002   0.803   1.736 -2.2737 -0.7829 -0.3237
 5657TIP3   OH238605   1.215   1.367   8.149 -0.2183  0.7157 -0.3759
 5657TIP3    H138606   1.122   1.372   8.173 -0.4190  0.9391 -1.1620
 5657TIP3    H238607   1.243   1.281   8.181 -0.6646  0.6884 -0.0403
 5658TIP3   OH238608   5.922   5.182   2.779 -0.4188 -0.2841  0.0504
 5658TIP3    H138609   5.932   5.131   2.859 -0.3433  1.0421  0.9240
 5658TIP3    H238610   6.009   5.182   2.739 -0.2920 -0.3860  0.3217
 5659TIP3   OH238611   1.463   1.293   8.052  0.3280 -0.4191  0.1804
 5659TIP3    H138612   1.373   1.315   8.075  0.4212 -0.2798  0.4082
 5659TIP3    H238613   1.470   1.315   7.959  1.3364  3.5870  1.0211
 5660TIP3   OH238614   0.571   2.663   2.192  0.4665  0.2031 -0.0685
 5660TIP3    H138615   0.629   2.725   2.237  0.5441 -0.3874  0.6510
 5660TIP3    H238616   0.627   2.588   2.172  0.1584 -0.0024 -0.1666
 5661TIP3   OH238617   0.417   5.332   7.381  0.4218 -0.6963 -0.0744
 5661TIP3    H138618   0.507   5.361   7.364  0.1861 -0.6071 -1.1908
 5661TIP3    H238619   0.368   5.356   7.303 -0.5287 -0.9947  0.4103
 5662TIP3   OH238620   6.635   2.524   8.555 -0.3967  0.2729  0.5716
 5662TIP3    H138621   6.544   2.498   8.539 -0.0571 -0.7501  0.2171
 5662TIP3    H238622   6.687   2.462   8.503  0.4835  1.2863  0.2241
 5663TIP3   OH238623   1.334   4.038   8.184 -0.1861 -0.1109 -0.1683
 5663TIP3    H138624   1.402   4.016   8.121 -0.5912 -0.4280 -0.4970
 5663TIP3    H238625   1.330   3.962   8.242  1.6946  1.0100  1.6213
 5664TIP3   OH238626   4.610   3.559   2.337 -0.2537  0.0923 -0.0453
 5664TIP3    H138627   4.534   3.509   2.366 -0.0143 -1.3840 -1.7182
 5664TIP3    H238628   4.643   3.602   2.415 -1.1985 -1.4471  1.2574
 5665TIP3   OH238629   0.717   0.848   3.357  0.2196 -0.9387 -0.1494
 5665TIP3    H138630   0.732   0.921   3.417 -2.2837  0.2194 -0.7884
 5665TIP3    H238631   0.781   0.861   3.287  0.0490  0.4954 -0.0757
 5666TIP3   OH238632   0.579   1.584   1.196  0.5172 -0.4761 -0.1598
 5666TIP3    H138633   0.497   1.561   1.152  0.0887  0.3125  0.2001
 5666TIP3    H238634   0.551   1.630   1.275  1.3105 -0.0050 -0.1424
 5667TIP3   OH238635   1.936   5.471   1.230  0.2387 -0.4028  0.3666
 5667TIP3    H138636   1.986   5.530   1.287 -0.6780  1.2105 -0.4089
 5667TIP3    H238637   1.995   5.398   1.212  1.4457  0.2993  1.3352
 5668TIP3   OH238638   1.675   4.018   8.565  0.0190  1.0097 -0.5187
 5668TIP3    H138639   1.672   3.981   8.653 -0.2055 -0.0606 -0.9642
 5668TIP3    H238640   1.634   4.104   8.574 -1.5966  0.2130  0.0972
 5669TIP3   OH238641   3.337   5.418   7.088 -0.3514 -0.3028  0.1381
 5669TIP3    H138642   3.304   5.507   7.089  1.9185  0.6033  0.3957
 5669TIP3    H238643   3.295   5.376   7.164  0.5683  1.3728  1.6325
 5670TIP3   OH238644   2.146   2.230   2.239 -0.2523  0.2140 -0.5025
 5670TIP3    H138645   2.164   2.196   2.151  3.4983 -2.1823  0.9323
 5670TIP3    H238646   2.121   2.152   2.290  2.8228  0.4092  1.6061
 5671TIP3   OH238647   5.208   1.065   2.188  0.1257  0.3304  0.3084
 5671TIP3    H138648   5.278   1.113   2.143 -0.4590  0.7242 -0.1944
 5671TIP3    H238649   5.150   1.035   2.118  0.0610 -0.4436  0.6816
 5672TIP3   OH238650   2.484   1.253   8.790 -0.1124 -0.0425 -0.3657
 5672TIP3    H138651   2.508   1.194   8.718  1.5594  0.4038 -0.2123
 5672TIP3    H238652   2.567   1.284   8.824 -0.9188  0.7759  0.9340
 5673TIP3   OH238653   5.368   1.524   7.296 -0.6999 -0.6799 -0.2137
 5673TIP3    H138654   5.383   1.549   7.205  0.1014  0.6916  0.2534
 5673TIP3    H238655   5.443   1.562   7.343 -1.6954 -0.3647  1.1730
 5674TIP3   OH238656   5.003   0.434   1.586  0.1046 -0.6934  0.1610
 5674TIP3    H138657   5.070   0.423   1.519  1.0250  0.2914  0.8920
 5674TIP3    H238658   5.011   0.526   1.613 -1.0774 -0.7488  0.7453
 5675TIP3   OH238659   5.382   5.557   8.778 -0.3158 -0.2375  0.0389
 5675TIP3    H138660   5.451   5.612   8.741 -0.2987 -1.3551 -1.6993
 5675TIP3    H238661   5.306   5.614   8.785  0.2867  0.5527  0.3307
 5676TIP3   OH238662   3.746   4.440   7.923  0.6842 -0.1265  0.3384
 5676TIP3    H138663   3.746   4.368   7.986 -1.9179 -1.1002 -0.6353
 5676TIP3    H238664   3.789   4.512   7.969  1.4615 -1.6393  2.1243
 5677TIP3   OH238665   1.129   0.755   8.781 -0.4879  0.2005  0.2036
 5677TIP3    H138666   1.118   0.725   8.871 -0.6213 -1.2116 -0.2565
 5677TIP3    H238667   1.221   0.780   8.775 -0.3084 -0.3516  0.5661
 5678TIP3   OH238668   3.979   4.830   6.455 -0.3744  0.1688 -0.3605
 5678TIP3    H138669   3.918   4.768   6.415  0.7445 -2.4772  1.7060
 5678TIP3    H238670   4.045   4.846   6.388 -1.4048  0.2185 -1.3889
 5679TIP3   OH238671   1.114   1.589   8.736  0.1626  0.5548 -0.1361
 5679TIP3    H138672   1.179   1.655   8.717 -0.0246  0.6739 -0.3611
 5679TIP3    H238673   1.093   1.550   8.652  1.3545 -0.8224  0.1610
 5680TIP3   OH238674   1.046   0.869   1.008  0.6293 -0.2502 -0.0039
 5680TIP3    H138675   1.111   0.938   0.998  0.4015  0.1513  1.1383
 5680TIP3    H238676   0.972   0.898   0.953  1.0713 -0.2946 -0.6339
 5681TIP3   OH238677   5.488   6.443   0.703  0.2306 -0.2951  0.2555
 5681TIP3    H138678   5.450   6.473   0.786 -0.5811 -0.3785 -0.0731
 5681TIP3    H238679   5.562   6.501   0.688 -0.8635  1.1080  0.0008
 5682TIP3   OH238680   1.048   1.438   0.558 -0.2225 -0.3811 -0.4566
 5682TIP3    H138681   1.033   1.495   0.634  1.3407 -0.7556  0.1683
 5682TIP3    H238682   1.046   1.498   0.483  1.4660  0.5571  0.1928
 5683TIP3   OH238683   5.140   4.197   2.504 -0.0489  0.3654  0.0626
 5683TIP3    H138684   5.138   4.170   2.596 -0.1491  0.0393 -0.0338
 5683TIP3    H238685   5.232   4.195   2.480  0.1673  1.9912  0.5988
 5684TIP3   OH238686   2.386   0.295   2.778 -0.8579 -0.3956 -0.3711
 5684TIP3    H138687   2.455   0.259   2.724  0.4679  1.0871  0.2459
 5684TIP3    H238688   2.307   0.289   2.724  0.3803  0.9388 -2.4771
 5685TIP3   OH238689   2.345   4.753   8.419  0.3654 -0.1626  0.6502
 5685TIP3    H138690   2.439   4.741   8.436  0.6386  1.5141  0.5780
 5685TIP3    H238691   2.301   4.692   8.478  1.5041 -0.8443  0.8194
 5686TIP3   OH238692   5.709   5.696   0.557 -0.5205 -0.7532  0.4690
 5686TIP3    H138693   5.674   5.773   0.512 -0.0785 -2.3873 -2.9869
 5686TIP3    H238694   5.741   5.730   0.641 -0.1197  2.8736 -0.9460
 5687TIP3   OH238695   6.755   0.337   2.196  0.4154 -0.3043 -0.1030
 5687TIP3    H138696   6.737   0.324   2.103 -1.1346 -1.6861  0.3349
 5687TIP3    H238697   6.707   0.266   2.239 -0.7692  1.6070  1.9050
 5688TIP3   OH238698   1.492   0.844   1.832 -0.6210  0.4222  0.7691
 5688TIP3    H138699   1.540   0.844   1.915 -2.1041 -1.3423  1.7269
 5688TIP3    H238700   1.558   0.825   1.765  0.5604  1.5927  1.5629
 5689TIP3   OH238701   4.396   5.695   1.268  0.0540  0.0588 -0.1483
 5689TIP3    H138702   4.442   5.658   1.192  2.1650  1.0345  0.5805
 5689TIP3    H238703   4.384   5.787   1.247  0.6564  0.3391  0.6843
 5690TIP3   OH238704   4.681   5.094   8.740  0.1177 -0.2214 -0.2587
 5690TIP3    H138705   4.759   5.079   8.795 -0.0835  0.0542  0.1029
 5690TIP3    H238706   4.645   5.176   8.772 -1.0983 -1.0248  0.4894
 5691TIP3   OH238707   2.022   3.385   0.362  0.3526  0.2440 -0.3681
 5691TIP3    H138708   2.022   3.410   0.270  1.6171  1.7408 -0.0103
 5691TIP3    H238709   1.970   3.452   0.406 -2.5809 -1.9323 -0.2600
 5692TIP3   OH238710   3.609   4.358   0.296 -0.3262  0.2558  0.1740
 5692TIP3    H138711   3.545   4.301   0.253  2.4888 -0.8502 -2.9521
 5692TIP3    H238712   3.624   4.315   0.381 -1.4389 -1.2068 -0.3140
 5693TIP3   OH238713   5.865   6.751   0.338  0.4503 -0.2207 -0.0660
 5693TIP3    H138714   5.923   6.751   0.262 -0.3110  1.9261 -0.7197
 5693TIP3    H238715   5.777   6.745   0.300  0.0878  0.2714  0.6804
 5694TIP3   OH238716   2.499   3.857   2.440 -0.3221 -0.3254 -0.1331
 5694TIP3    H138717   2.545   3.941   2.440 -1.3756  0.2942  1.2565
 5694TIP3    H238718   2.569   3.792   2.446  0.4418  0.6099  2.5354
 5695TIP3   OH238719   6.219   4.539   2.238 -0.2302  0.2297 -0.1714
 5695TIP3    H138720   6.174   4.544   2.322  0.7402 -0.3165  0.3981
 5695TIP3    H238721   6.286   4.472   2.250 -1.1836 -1.1045 -1.9204
 5696TIP3   OH238722   2.120   4.674   7.128  0.5232  0.4281 -0.4203
 5696TIP3    H138723   2.060   4.749   7.125 -0.2344 -0.1958 -1.4998
 5696TIP3    H238724   2.206   4.712   7.116  0.0393  1.0396 -2.2738
 5697TIP3   OH238725   0.111   1.370   2.636  0.4227 -0.3551 -0.0758
 5697TIP3    H138726   0.052   1.367   2.712  0.9486 -0.9223  0.3232
 5697TIP3    H238727   0.079   1.443   2.583  1.0715  1.1933  1.5521
 5698TIP3   OH238728   4.573   4.346   7.995  0.2764  0.0293 -0.4095
 5698TIP3    H138729   4.537   4.425   8.035 -0.2623  0.4861 -1.7342
 5698TIP3    H238730   4.583   4.369   7.903  1.7663 -0.8762 -0.5131
 5699TIP3   OH238731   3.501   3.922   3.022 -0.1396 -0.1774  0.9442
 5699TIP3    H138732   3.449   3.954   3.095  0.2528  0.9043  0.7646
 5699TIP3    H238733   3.507   3.827   3.036 -1.4772 -0.2180  1.3885
 5700TIP3   OH238734   5.112   5.817   6.930  0.3902  0.6269 -0.0641
 5700TIP3    H138735   5.143   5.834   7.019 -1.7500 -1.6875  1.2437
 5700TIP3    H238736   5.148   5.731   6.908  2.7414  2.0563 -2.4620
 5701TIP3   OH238737   1.137   5.775   8.673  0.0559  0.2791 -0.1102
 5701TIP3    H138738   1.200   5.709   8.700 -0.1868  0.1470  0.1353
 5701TIP3    H238739   1.087   5.795   8.753  1.3009  2.0581  0.2828
 5702TIP3   OH238740   6.285   6.828   2.262 -0.3998 -0.6220  0.2042
 5702TIP3    H138741   6.221   6.869   2.320 -0.3298  0.8378 -0.6813
 5702TIP3    H238742   6.296   6.740   2.296 -2.6407 -0.8189  0.5945
 5703TIP3   OH238743   4.808   6.036   7.555  0.2136  0.3636 -0.4028
 5703TIP3    H138744   4.764   6.016   7.473  0.5469 -1.2841 -0.2237
 5703TIP3    H238745   4.803   6.131   7.564  1.8399  0.8270 -3.2621
 5704TIP3   OH238746   0.269   2.398   8.086 -0.5776  0.1705 -0.3394
 5704TIP3    H138747   0.287   2.323   8.029  0.2374 -0.8340  1.1635
 5704TIP3    H238748   0.218   2.361   8.158  1.4135  0.5983  1.3957
 5705TIP3   OH238749   6.179   6.294   8.378  0.1656  0.1068 -0.1305
 5705TIP3    H138750   6.167   6.266   8.287 -0.5814 -0.8726  0.2474
 5705TIP3    H238751   6.269   6.267   8.400 -0.3714 -1.6145  0.0663
 5706TIP3   OH238752   0.542   3.022   7.273 -0.3933  0.5277 -0.5030
 5706TIP3    H138753   0.545   3.017   7.368 -3.2464  1.5864 -0.2546
 5706TIP3    H238754   0.633   3.013   7.245  0.4276 -0.5806  2.2472
 5707TIP3   OH238755   5.481   5.148   0.132  0.5095  0.1377 -0.5663
 5707TIP3    H138756   5.564   5.162   0.177  0.1975  0.2575 -0.0223
 5707TIP3    H238757   5.416   5.193   0.186 -0.0633 -0.8371 -0.4165
 5708TIP3   OH238758   5.013   4.081   0.907 -0.3376  0.3491  0.3777
 5708TIP3    H138759   4.973   4.162   0.938 -2.0063 -0.0760 -0.5763
 5708TIP3    H238760   5.087   4.109   0.853 -1.9178  1.3506 -1.3722
 5709TIP3   OH238761   2.105   6.594   8.190 -0.0496 -0.1448  0.3352
 5709TIP3    H138762   2.041   6.552   8.247 -1.9968  1.6610 -0.3664
 5709TIP3    H238763   2.133   6.671   8.239  0.4045 -0.0970  0.0032
 5710TIP3   OH238764   2.206   1.825   1.312  0.2758  0.5603 -0.3758
 5710TIP3    H138765   2.248   1.906   1.342 -0.1667  1.1339 -1.2753
 5710TIP3    H238766   2.135   1.810   1.374  1.0580  0.2213  0.4685
 5711TIP3   OH238767   4.133   4.239   1.056  0.1024  0.5875 -0.6081
 5711TIP3    H138768   4.119   4.326   1.020 -1.0298  1.6186  2.0263
 5711TIP3    H238769   4.053   4.191   1.035 -0.7777  1.3492  0.8149
 5712TIP3   OH238770   0.603   4.972   0.452 -0.1494  0.2096 -0.0010
 5712TIP3    H138771   0.665   5.018   0.509  0.6677 -2.2918  1.2697
 5712TIP3    H238772   0.633   4.881   0.453 -1.8699 -0.4570 -2.1226
 5713TIP3   OH238773   1.124   2.948   1.586  0.1756 -0.4972 -0.1143
 5713TIP3    H138774   1.135   3.041   1.565  0.0909 -0.3268  0.5850
 5713TIP3    H238775   1.119   2.905   1.500  2.3706 -0.1219 -0.5086
 5714TIP3   OH238776   5.252   5.313   7.382  0.2378 -0.2114  0.9726
 5714TIP3    H138777   5.184   5.350   7.439 -0.3477  0.5873 -0.1881
 5714TIP3    H238778   5.216   5.230   7.352 -1.0699  0.9813 -1.0076
 5715TIP3   OH238779   2.152   6.543   2.022 -0.3207  0.0829  1.1864
 5715TIP3    H138780   2.191   6.572   1.940 -0.1608  0.5309  1.4150
 5715TIP3    H238781   2.098   6.468   1.998  0.1476 -0.1275  0.7545
 5716TIP3   OH238782   3.737   2.307   8.114 -0.3326 -0.0708 -0.0029
 5716TIP3    H138783   3.676   2.361   8.064  0.5808  0.4043 -0.6584
 5716TIP3    H238784   3.727   2.336   8.204 -1.7600 -0.6900  0.0609
 5717TIP3   OH238785   1.629   2.268   1.252 -0.0045  0.1698 -0.5948
 5717TIP3    H138786   1.563   2.225   1.197  0.1534  0.1970 -0.8071
 5717TIP3    H238787   1.710   2.264   1.200  0.4232 -0.8234  0.1220
 5718TIP3   OH238788   6.079   5.511   0.952 -0.3469  0.9501 -0.1235
 5718TIP3    H138789   6.152   5.487   1.009 -0.8505  1.7303  0.8833
 5718TIP3    H238790   6.072   5.606   0.960 -2.9764  0.6873  1.7224
 5719TIP3   OH238791   0.658   5.429   1.089  0.1047 -0.0973  0.2757
 5719TIP3    H138792   0.631   5.518   1.067  0.0783  1.5362  5.4887
 5719TIP3    H238793   0.748   5.439   1.120  0.9574 -2.4437 -1.1830
 5720TIP3   OH238794   6.774   2.830   2.077 -0.3763 -0.3523  0.0201
 5720TIP3    H138795   6.821   2.747   2.074 -0.7364 -0.6395  1.3582
 5720TIP3    H238796   6.701   2.814   2.138  0.1225  1.2173  1.1047
 5721TIP3   OH238797   0.592   2.709   1.170 -0.3810  0.3065 -0.1951
 5721TIP3    H138798   0.681   2.727   1.138 -0.0473 -3.5362 -2.0369
 5721TIP3    H238799   0.534   2.740   1.100 -0.1289 -1.0496 -1.0513
 5722TIP3   OH238800   3.382   0.192   1.258  0.2786 -0.3473 -0.1902
 5722TIP3    H138801   3.395   0.264   1.195 -0.0051 -0.1463 -0.0204
 5722TIP3    H238802   3.287   0.179   1.260  0.3800 -1.2444 -0.7888
 5723TIP3   OH238803   4.625   4.859   1.446 -0.4082 -0.4808 -0.3107
 5723TIP3    H138804   4.578   4.782   1.416  1.5135 -1.9296  0.1960
 5723TIP3    H238805   4.716   4.830   1.457 -0.0946  1.0917  2.5456
 5724TIP3   OH238806   0.989   5.876   6.595  0.0966 -0.4171 -0.0416
 5724TIP3    H138807   0.985   5.932   6.673  1.3609 -0.7572  0.2865
 5724TIP3    H238808   0.898   5.848   6.582 -0.5692  1.6387 -0.1862
 5725TIP3   OH238809   3.299   1.894   8.245 -0.1476  0.3592  0.5070
 5725TIP3    H138810   3.262   1.807   8.228 -1.9108  0.9103  1.2233
 5725TIP3    H238811   3.226   1.954   8.230  1.5515  1.9827 -2.0429
 5726TIP3   OH238812   4.966   5.935   8.693  0.0820 -0.2364  0.4466
 5726TIP3    H138813   4.954   5.948   8.599  1.6164  0.5712  0.3243
 5726TIP3    H238814   4.882   5.900   8.723 -0.0399 -1.7268 -1.4169
 5727TIP3   OH238815   1.306   1.619   2.001 -0.0903  0.4151  0.0653
 5727TIP3    H138816   1.384   1.566   2.015  0.8063  1.9272  1.1148
 5727TIP3    H238817   1.270   1.632   2.088 -1.2949  0.0662 -0.3695
 5728TIP3   OH238818   0.927   1.249   1.542 -0.1345 -0.1490  0.0175
 5728TIP3    H138819   1.022   1.241   1.551 -0.2319 -1.0930  0.3064
 5728TIP3    H238820   0.911   1.245   1.447  0.1953  1.1798 -0.1092
 5729TIP3   OH238821   4.502   3.222   0.981 -0.6938 -0.6642 -0.2905
 5729TIP3    H138822   4.434   3.286   0.961 -0.0435  0.2738  0.4096
 5729TIP3    H238823   4.553   3.215   0.900  0.6001  1.4460  0.2707
 5730TIP3   OH238824   4.572   3.315   0.705  0.2088  0.4396  0.1938
 5730TIP3    H138825   4.499   3.375   0.721  1.0242  1.3241  0.6832
 5730TIP3    H238826   4.563   3.292   0.612 -0.4064  0.9192  0.1253
 5731TIP3   OH238827   0.144   3.399   8.680 -0.0416 -0.5178 -0.2358
 5731TIP3    H138828   0.197   3.336   8.629 -0.5077 -1.0541 -0.0667
 5731TIP3    H238829   0.063   3.352   8.699 -0.0630 -0.1533  0.6111
 5732TIP3   OH238830   6.534   0.879   1.566  0.5732  0.5171 -0.3757
 5732TIP3    H138831   6.609   0.827   1.595  0.9535  0.7602 -0.8858
 5732TIP3    H238832   6.472   0.815   1.532 -0.3214  0.1385  1.8448
 5733TIP3   OH238833   1.489   2.003   8.463  1.0373 -0.0756  0.0532
 5733TIP3    H138834   1.426   1.947   8.509  1.4951 -1.7219 -1.2369
 5733TIP3    H238835   1.491   1.969   8.374  0.6923  2.5844 -1.0705
 5734TIP3   OH238836   2.724   6.087   1.038 -0.5222  0.3032  0.6712
 5734TIP3    H138837   2.758   6.012   0.989 -1.1821 -1.6328  3.0090
 5734TIP3    H238838   2.630   6.085   1.022 -0.4753  1.0410  0.2586
 5735TIP3   OH238839   3.102   4.795   6.902  0.1879 -0.3884  0.2019
 5735TIP3    H138840   3.158   4.737   6.850  0.5163 -0.2168  0.3636
 5735TIP3    H238841   3.151   4.809   6.983 -0.1836 -0.4032  0.4306
 5736TIP3   OH238842   3.626   5.360   1.999  0.1597 -0.1592  0.4995
 5736TIP3    H138843   3.584   5.415   2.065  1.4854 -0.6685  1.8314
 5736TIP3    H238844   3.712   5.341   2.035  1.0200 -0.2932 -1.5059
 5737TIP3   OH238845   2.651   0.313   7.466 -0.5932 -0.4807  0.0155
 5737TIP3    H138846   2.717   0.347   7.406  0.5675 -2.2608  0.1981
 5737TIP3    H238847   2.643   0.380   7.535 -1.9493  1.5945 -2.0055
 5738TIP3   OH238848   3.025   0.070   0.728 -0.1282  0.2875  0.6799
 5738TIP3    H138849   2.949   0.070   0.670 -1.6281  0.7308  2.5200
 5738TIP3    H238850   3.013  -0.008   0.782  0.4328  0.6344  1.3242
 5739TIP3   OH238851   2.406   3.504   7.150 -0.6525  0.4793  0.2873
 5739TIP3    H138852   2.472   3.450   7.193 -0.2273 -0.6346 -1.6301
 5739TIP3    H238853   2.452   3.544   7.076 -2.1957 -0.8166 -1.4749
 5740TIP3   OH238854   3.296   5.010   7.190 -0.1285  0.3502  1.1208
 5740TIP3    H138855   3.306   4.951   7.116 -2.7219  2.0111 -0.7311
 5740TIP3    H238856   3.378   5.060   7.193  0.4562 -0.5155  0.0883
 5741TIP3   OH238857   6.447   0.533   2.059  0.2051  0.0727 -0.5479
 5741TIP3    H138858   6.494   0.459   2.022  0.2779  0.3693 -1.0619
 5741TIP3    H238859   6.444   0.516   2.153 -0.1491 -0.7869 -0.7088
 5742TIP3   OH238860   5.197   0.400   1.359  0.3451  0.1542  0.0384
 5742TIP3    H138861   5.166   0.380   1.270  0.8376  1.9865 -0.5915
 5742TIP3    H238862   5.287   0.369   1.360 -0.0648 -1.0857  0.3730
 5743TIP3   OH238863   3.560   1.296   1.611 -0.3003  0.1033 -0.3007
 5743TIP3    H138864   3.641   1.270   1.567 -1.2099  0.4683 -2.3247
 5743TIP3    H238865   3.540   1.224   1.670  1.5498  0.0778  0.3682
 5744TIP3   OH238866   4.356   3.722   1.912 -0.0495 -0.3820  0.3120
 5744TIP3    H138867   4.353   3.816   1.896 -0.1808 -0.3349  0.6028
 5744TIP3    H238868   4.268   3.700   1.942 -0.2817 -0.7531 -0.5851
 5745TIP3   OH238869   6.565   3.232   7.673 -0.1579 -0.2905  0.0101
 5745TIP3    H138870   6.639   3.175   7.694  0.2377 -0.4259 -1.6224
 5745TIP3    H238871   6.601   3.321   7.679  0.5247 -0.3876 -1.9839
 5746TIP3   OH238872   1.140   0.912   2.051  0.5962  0.3830 -0.1309
 5746TIP3    H138873   1.115   0.987   2.105  0.1389 -0.4862  0.9042
 5746TIP3    H238874   1.218   0.877   2.095  1.5447  0.9495 -1.3017
 5747TIP3   OH238875   1.930   4.430   0.228  0.2919  0.0133  0.1286
 5747TIP3    H138876   1.878   4.354   0.253  1.7897 -1.6192 -1.4082
 5747TIP3    H238877   1.881   4.471   0.157  0.5798 -0.9168 -0.6230
 5748TIP3   OH238878   4.481   1.575   2.341  0.3452 -0.1121 -0.0169
 5748TIP3    H138879   4.426   1.614   2.273  1.4871  0.7714 -0.4640
 5748TIP3    H238880   4.522   1.650   2.385 -0.5632 -0.6430  1.8569
 5749TIP3   OH238881   6.330   6.246   7.071 -0.0846  0.3655  0.2102
 5749TIP3    H138882   6.331   6.340   7.052  0.6071  0.2023 -0.5933
 5749TIP3    H238883   6.308   6.205   6.988  0.4627 -0.2284  0.3581
 5750TIP3   OH238884   5.624   2.605   7.912  0.2856  0.6439  0.4266
 5750TIP3    H138885   5.594   2.622   7.823 -0.7509  1.3032  0.8845
 5750TIP3    H238886   5.596   2.682   7.962 -0.0828 -0.1792  1.5365
 5751TIP3   OH238887   6.618   2.806   7.709  0.8258  0.0348 -0.5398
 5751TIP3    H138888   6.681   2.874   7.730  2.1727 -1.0058 -1.0404
 5751TIP3    H238889   6.636   2.736   7.773 -0.7951  0.2738  0.2246
 5752TIP3   OH238890   3.961   5.258   6.811 -0.1791 -0.1603 -0.2052
 5752TIP3    H138891   3.961   5.163   6.822  2.9115 -0.3111 -0.8014
 5752TIP3    H238892   3.989   5.272   6.721  0.3118  1.3398  0.1580
 5753TIP3   OH238893   1.840   1.575   0.415 -0.1273  0.2139  0.1253
 5753TIP3    H138894   1.912   1.555   0.475  0.7349 -0.7865 -1.1777
 5753TIP3    H238895   1.788   1.640   0.461  0.7929 -0.1270  1.7245
 5754TIP3   OH238896   0.278   6.486   1.837  0.0203  0.0336  0.0568
 5754TIP3    H138897   0.361   6.532   1.846  1.2844 -0.9729 -4.1093
 5754TIP3    H238898   0.267   6.439   1.920  2.2742  2.1298  1.6872
 5755TIP3   OH238899   6.125   5.312   7.663 -0.3823  0.0882  0.0550
 5755TIP3    H138900   6.165   5.263   7.735  0.4600  0.0074 -0.4482
 5755TIP3    H238901   6.159   5.269   7.584 -0.3355  0.9279 -0.3885
 5756TIP3   OH238902   2.826   4.333   2.449 -0.4441  0.4498 -0.5359
 5756TIP3    H138903   2.800   4.419   2.416 -1.6920  0.7097  1.0261
 5756TIP3    H238904   2.845   4.347   2.542  0.7990 -0.6906 -0.5878
 5757TIP3   OH238905   1.733   2.033   1.872 -0.4752 -0.3249  0.3071
 5757TIP3    H138906   1.784   2.030   1.953  0.8609 -0.7677 -0.5307
 5757TIP3    H238907   1.793   2.070   1.807 -0.9939 -1.4521 -0.8593
 5758TIP3   OH238908   6.655   0.977   2.177 -0.4089 -0.0795  0.2576
 5758TIP3    H138909   6.584   0.921   2.209  1.7033 -1.8921  2.0499
 5758TIP3    H238910   6.673   1.037   2.249  0.8433 -0.6445  0.4392
 5759TIP3   OH238911   5.729   1.658   1.973 -0.2576 -0.5938  0.0848
 5759TIP3    H138912   5.780   1.578   1.957  0.4794 -0.3218  1.0182
 5759TIP3    H238913   5.785   1.711   2.029 -1.5949 -0.3160  1.1929
 5760TIP3   OH238914   3.402   6.049   7.791 -0.3766  0.7450  0.0210
 5760TIP3    H138915   3.440   6.093   7.714  0.3099 -1.2308 -0.8335
 5760TIP3    H238916   3.372   5.964   7.758  2.6973 -1.5257  2.3970
 5761TIP3   OH238917   4.500   0.583   7.918 -0.6872 -0.0938  0.2161
 5761TIP3    H138918   4.563   0.621   7.979 -2.6577  1.2584  1.5441
 5761TIP3    H238919   4.508   0.488   7.931  1.0821  0.0406  0.2921
 5762TIP3   OH238920   6.409   5.761   8.063 -0.2408  0.8828  0.1978
 5762TIP3    H138921   6.331   5.732   8.109  0.6264 -0.6208  0.8203
 5762TIP3    H238922   6.452   5.680   8.036  0.1728  1.7007 -1.7616
 5763TIP3   OH238923   3.950   3.368   7.098  0.2922 -0.3434  0.2043
 5763TIP3    H138924   3.973   3.319   7.020  0.7975  1.0391 -0.5560
 5763TIP3    H238925   3.861   3.339   7.119  0.6002 -1.6088 -0.1544
 5764TIP3   OH238926   1.492   1.442   2.085  0.4889 -0.6585 -0.1628
 5764TIP3    H138927   1.479   1.375   2.018 -0.1844 -2.1293  1.3792
 5764TIP3    H238928   1.575   1.484   2.060 -0.1940 -0.5075 -2.4048
 5765TIP3   OH238929   0.887   6.260   0.477  0.4400  0.0257  0.0257
 5765TIP3    H138930   0.922   6.347   0.497  0.2827  0.3518 -1.0767
 5765TIP3    H238931   0.799   6.276   0.443  0.5047 -0.5515 -0.4284
 5766TIP3   OH238932   3.179   0.351   1.713 -0.7542  0.3611  0.6685
 5766TIP3    H138933   3.172   0.440   1.749 -1.2765 -0.1515  1.8859
 5766TIP3    H238934   3.192   0.295   1.790 -2.0127 -0.8041  0.0660
 5767TIP3   OH238935   3.112   1.292   8.574  0.5950 -0.0102  0.0162
 5767TIP3    H138936   3.201   1.325   8.562  0.2643  0.9847  0.2561
 5767TIP3    H238937   3.121   1.197   8.561  1.0100  0.3865 -4.0162
 5768TIP3   OH238938   6.512   0.195   0.987  0.5754  0.3003 -0.0850
 5768TIP3    H138939   6.574   0.254   1.031  2.7217 -0.6436 -1.6265
 5768TIP3    H238940   6.522   0.215   0.894 -0.2219 -1.0371 -0.4793
 5769TIP3   OH238941   5.097   1.124   6.720 -0.2744  0.0794  0.0336
 5769TIP3    H138942   5.173   1.072   6.745 -0.2462 -0.2978 -0.8382
 5769TIP3    H238943   5.022   1.075   6.753 -0.2117 -0.1817 -0.2154
 5770TIP3   OH238944   4.547   0.256   0.991  0.2657 -1.1850  0.1967
 5770TIP3    H138945   4.561   0.243   1.084  0.1623 -2.8219  0.0123
 5770TIP3    H238946   4.457   0.287   0.984  0.2598 -1.1015  0.6305
 5771TIP3   OH238947   5.213   3.231   1.367 -0.5254 -0.2201  0.3569
 5771TIP3    H138948   5.181   3.270   1.285  0.9392  1.3225  0.4672
 5771TIP3    H238949   5.263   3.155   1.338  0.9360  0.9436 -0.3415
 5772TIP3   OH238950   1.332   4.343   1.282  0.2850 -0.5174  0.8414
 5772TIP3    H138951   1.274   4.270   1.259  0.9404 -1.0061  0.7147
 5772TIP3    H238952   1.305   4.367   1.371  0.2303 -1.0759  0.9817
 5773TIP3   OH238953   5.496   1.646   0.146  0.0166  0.1026 -0.8543
 5773TIP3    H138954   5.415   1.622   0.102 -0.6555  1.8663 -0.6299
 5773TIP3    H238955   5.565   1.615   0.087 -0.7807 -1.5951 -0.9502
 5774TIP3   OH238956   1.860   2.204   0.863  0.4524  0.1624 -0.3247
 5774TIP3    H138957   1.768   2.204   0.840  0.3585  3.0515 -0.2514
 5774TIP3    H238958   1.864   2.251   0.947  1.8114 -1.6551  0.6952
 5775TIP3   OH238959   1.760   5.785   8.207 -0.0032  0.3329  0.7098
 5775TIP3    H138960   1.845   5.742   8.194 -0.5288 -0.2557 -1.2226
 5775TIP3    H238961   1.772   5.840   8.284  2.2880  0.6511  0.2109
 5776TIP3   OH238962   5.400   6.559   7.674  0.1011 -0.3296  0.2002
 5776TIP3    H138963   5.336   6.606   7.621  0.4236  1.3886  1.2612
 5776TIP3    H238964   5.460   6.521   7.611 -0.5248  0.1766 -0.7213
 5777TIP3   OH238965   1.935   5.086   7.977 -0.4521 -0.4407 -0.5047
 5777TIP3    H138966   1.986   5.155   8.019  1.1327  0.2889 -3.3318
 5777TIP3    H238967   1.997   5.014   7.963  0.2236  0.6485 -4.4536
 5778TIP3   OH238968   4.621   5.756   0.375 -0.5665 -0.1071 -0.1276
 5778TIP3    H138969   4.574   5.716   0.302 -0.5941 -1.1130  0.4093
 5778TIP3    H238970   4.705   5.783   0.339 -0.8462  0.0354 -0.6824
 5779TIP3   OH238971   5.427   1.817   1.309  0.1755 -0.0420  0.1743
 5779TIP3    H138972   5.388   1.730   1.303  1.8058 -0.7069 -2.7507
 5779TIP3    H238973   5.354   1.877   1.295 -0.4973 -1.1008 -1.1099
 5780TIP3   OH238974   6.162   5.423   2.299 -1.1891  0.5388 -0.3432
 5780TIP3    H138975   6.245   5.395   2.339 -0.6893  1.1645 -0.9150
 5780TIP3    H238976   6.133   5.496   2.353  0.1595  2.2548 -1.8135
 5781TIP3   OH238977   2.675   6.484   7.511 -0.1632  0.2463 -0.1157
 5781TIP3    H138978   2.629   6.428   7.574  0.0045 -0.1138 -0.3095
 5781TIP3    H238979   2.718   6.423   7.452  0.5840  0.5796  0.0766
 5782TIP3   OH238980   2.078   4.980   2.214 -0.5058 -0.2601 -0.0303
 5782TIP3    H138981   1.985   4.958   2.217 -0.2174 -1.6072 -0.5764
 5782TIP3    H238982   2.099   5.007   2.304 -1.4956  0.4357  0.0078
 5783TIP3   OH238983   4.329   2.373   0.172  0.2258  0.4848  0.1346
 5783TIP3    H138984   4.276   2.320   0.113  0.4610 -0.1933  0.5216
 5783TIP3    H238985   4.417   2.368   0.136  0.1718  0.9983 -0.0841
 5784TIP3   OH238986   1.228   0.372   2.721 -0.5392 -0.0519  0.3921
 5784TIP3    H138987   1.270   0.440   2.669 -0.2924 -0.2614  0.3145
 5784TIP3    H238988   1.232   0.294   2.665 -0.7658 -0.1425  0.5042
 5785TIP3   OH238989   3.851   3.193   1.737  0.3955 -0.8621  0.2110
 5785TIP3    H138990   3.928   3.197   1.680 -0.3122 -0.3510 -0.7259
 5785TIP3    H238991   3.779   3.226   1.684 -0.1306  0.5028  1.6900
 5786TIP3   OH238992   2.187   1.820   7.646 -0.0055  0.2376  0.3254
 5786TIP3    H138993   2.237   1.797   7.724  0.3175 -0.2236 -0.0079
 5786TIP3    H238994   2.253   1.853   7.584 -0.3430  1.1880  0.4665
 5787TIP3   OH238995   4.703   4.200   1.983 -0.7830 -0.0140  0.1513
 5787TIP3    H138996   4.652   4.120   1.994 -0.8735 -0.2379 -1.5996
 5787TIP3    H238997   4.677   4.234   1.898  0.2782  1.1370  0.2509
 5788TIP3   OH238998   6.196   1.065   1.836 -0.6504 -0.2667  0.1009
 5788TIP3    H138999   6.231   1.070   1.748 -0.7627 -0.1909  0.0602
 5788TIP3    H239000   6.138   0.989   1.835  0.1254 -0.8772  0.3881
 5789TIP3   OH239001   4.726   0.527   2.170 -0.1177 -0.5383  0.0472
 5789TIP3    H139002   4.720   0.537   2.265 -0.4649 -4.5264  0.6343
 5789TIP3    H239003   4.818   0.506   2.154 -0.3942 -1.6888 -0.1623
 5790TIP3   OH239004   1.813   0.180   8.555 -0.7681  0.2289 -0.2302
 5790TIP3    H139005   1.773   0.096   8.579  0.3190  0.2923  2.0291
 5790TIP3    H239006   1.740   0.232   8.522 -1.9869 -0.7063  0.8819
 5791TIP3   OH239007   5.622   4.356   2.090  0.2845 -0.1550 -0.3939
 5791TIP3    H139008   5.564   4.400   2.153 -1.5763 -0.7820 -1.5727
 5791TIP3    H239009   5.696   4.326   2.142 -0.2709  0.9705  1.1362
 5792TIP3   OH239010   1.122   5.408   7.580 -0.2242 -0.4017 -0.1118
 5792TIP3    H139011   1.107   5.384   7.671 -0.4786  0.2132  0.0163
 5792TIP3    H239012   1.215   5.433   7.577 -0.4006  0.3152  0.1595
 5793TIP3   OH239013   4.288   2.117   1.525  0.0814 -0.0046  0.3104
 5793TIP3    H139014   4.209   2.096   1.575 -0.1989 -2.2505 -0.9820
 5793TIP3    H239015   4.331   2.033   1.511  1.6337  0.9263 -0.8275
 5794TIP3   OH239016   6.187   1.018   0.056  0.9230  0.3870  0.7316
 5794TIP3    H139017   6.107   1.049   0.015  0.0956 -1.2671  0.9910
 5794TIP3    H239018   6.234   0.972  -0.014  1.9865  1.8882  0.4199
 5795TIP3   OH239019   1.481   3.537   8.773  0.2738 -0.2408  0.1769
 5795TIP3    H139020   1.403   3.482   8.778  0.3642 -0.2685  1.5101
 5795TIP3    H239021   1.488   3.578   8.859  2.3428 -1.0847  0.4709
 5796TIP3   OH239022   5.149   1.472   8.427  0.0280  0.1762  0.6996
 5796TIP3    H139023   5.220   1.407   8.436 -1.2037 -1.1398  1.2817
 5796TIP3    H239024   5.156   1.527   8.505  0.8476  0.5218  0.3929
 5797TIP3   OH239025   4.270   5.888   7.011  0.3595 -0.3378 -0.1690
 5797TIP3    H139026   4.239   5.798   7.021 -0.0693 -0.3502 -1.3719
 5797TIP3    H239027   4.197   5.934   6.969  0.9389  0.3178 -0.4867
 5798TIP3   OH239028   5.006   3.074   0.844  0.4629 -0.2826  0.3641
 5798TIP3    H139029   5.087   3.123   0.859  1.4130 -1.2949 -1.1436
 5798TIP3    H239030   5.013   2.997   0.901  0.6501 -0.4693  0.0877
 5799TIP3   OH239031   4.712   0.478   1.648  0.0917  0.7114  0.6156
 5799TIP3    H139032   4.683   0.528   1.723  1.4343  0.0002  1.6563
 5799TIP3    H239033   4.807   0.472   1.658 -0.0221 -2.6208  0.9716
 5800TIP3   OH239034   6.706   3.080   7.992  0.1108  0.2364  0.3955
 5800TIP3    H139035   6.626   3.028   7.999  1.0127 -1.0988  0.9846
 5800TIP3    H239036   6.747   3.051   7.911  0.0651  0.8560  0.1415
 5801TIP3   OH239037   6.036   3.994   7.622 -0.2903  0.4152 -0.1072
 5801TIP3    H139038   6.094   3.950   7.560 -0.5484  0.8984 -0.7108
 5801TIP3    H239039   6.095   4.043   7.680 -0.0610  0.2061 -0.1643
 5802TIP3   OH239040   5.465   5.764   7.778 -0.1141  0.1937  0.2153
 5802TIP3    H139041   5.559   5.753   7.783  0.1716  2.6049  2.3743
 5802TIP3    H239042   5.451   5.825   7.705 -0.0504 -0.4503 -0.3390
 5803TIP3   OH239043   0.383   5.748   0.408 -0.0029  0.2059 -0.5325
 5803TIP3    H139044   0.444   5.675   0.394 -0.6013 -0.3270 -0.3819
 5803TIP3    H239045   0.321   5.716   0.473  0.0789  1.0677 -0.0193
 5804TIP3   OH239046   5.613   1.720   0.943 -0.7471 -0.0217 -0.1838
 5804TIP3    H139047   5.697   1.717   0.989 -1.0611  0.8080  0.4648
 5804TIP3    H239048   5.586   1.811   0.947 -1.2334 -0.1057 -1.2264
 5805TIP3   OH239049   2.977   3.027   8.650 -0.2683  0.1544  0.1807
 5805TIP3    H139050   3.014   2.944   8.680 -1.0912 -0.7530 -1.2244
 5805TIP3    H239051   3.019   3.042   8.565 -0.8681  0.6736 -0.0272
 5806TIP3   OH239052   2.171   5.827   0.727 -0.5319 -0.0511 -0.1316
 5806TIP3    H139053   2.201   5.753   0.780 -0.9620  0.6125  1.0612
 5806TIP3    H239054   2.179   5.796   0.637 -1.8916 -2.0225  0.3675
 5807TIP3   OH239055   2.967   1.029   7.619  0.3486 -0.0047 -0.5052
 5807TIP3    H139056   2.873   1.042   7.611  0.2136 -1.8042 -3.1063
 5807TIP3    H239057   2.987   1.053   7.710 -2.4907  0.8749 -0.0116
 5808TIP3   OH239058   1.248   0.543   7.929  0.0245  0.3582  0.1747
 5808TIP3    H139059   1.250   0.455   7.890  0.3511  0.9486 -1.2095
 5808TIP3    H239060   1.177   0.539   7.993  0.5544 -1.1364  0.7216
 5809TIP3   OH239061   4.748   4.679   0.416 -0.0261  1.0732  0.3262
 5809TIP3    H139062   4.827   4.653   0.464  0.4321  1.5914 -0.1241
 5809TIP3    H239063   4.679   4.622   0.449  0.1635  1.7556  1.9733
 5810TIP3   OH239064   3.446   3.096   7.428 -0.1207 -0.0902 -0.3809
 5810TIP3    H139065   3.353   3.079   7.414  0.0424 -0.4529 -1.0924
 5810TIP3    H239066   3.479   3.118   7.340  0.8291 -1.7780 -0.4840
 5811TIP3   OH239067   4.351   5.253   7.639  0.2894 -0.3829 -0.1902
 5811TIP3    H139068   4.421   5.267   7.575  1.7889  0.4531  1.5322
 5811TIP3    H239069   4.311   5.339   7.650 -0.6661 -0.7400 -0.7449
 5812TIP3   OH239070   2.677   1.038   7.995  0.5927 -0.4118 -0.3396
 5812TIP3    H139071   2.585   1.062   7.990  1.1326  2.0566  0.2538
 5812TIP3    H239072   2.677   0.942   7.988 -2.0783 -0.5922  0.7320
 5813TIP3   OH239073   5.361   1.411   8.012  0.4284 -0.5813 -0.3729
 5813TIP3    H139074   5.287   1.363   8.050  0.3066  1.1639  1.8046
 5813TIP3    H239075   5.325   1.451   7.933 -1.1021  0.4901  0.8062
 5814TIP3   OH239076   4.742   0.700   1.161 -0.4099  0.6929 -0.2365
 5814TIP3    H139077   4.702   0.683   1.246  0.3202 -0.7553 -0.1567
 5814TIP3    H239078   4.707   0.632   1.104 -0.6423  1.4547 -1.0384
 5815TIP3   OH239079   0.416   1.292   2.889  0.2411 -0.6519 -1.0725
 5815TIP3    H139080   0.421   1.207   2.845  1.3760 -0.6486 -0.9900
 5815TIP3    H239081   0.494   1.294   2.945  0.8450  0.8906 -1.9074
 5816TIP3   OH239082   0.052   2.528   2.595 -0.4327 -0.1538 -0.0420
 5816TIP3    H139083   0.001   2.454   2.561 -0.9048  0.3637 -0.5012
 5816TIP3    H239084   0.044   2.595   2.526  1.2664 -0.2162 -0.3300
 5817TIP3   OH239085   2.588   1.652   0.709 -0.2502 -0.4132  0.1115
 5817TIP3    H139086   2.527   1.580   0.724  0.0706 -1.0240 -1.3659
 5817TIP3    H239087   2.671   1.621   0.747  0.3091 -1.5493 -1.8785
 5818TIP3   OH239088   0.686   1.613   1.944 -0.1900 -0.2125 -0.1456
 5818TIP3    H139089   0.669   1.630   1.852 -0.0796  0.3073 -0.0711
 5818TIP3    H239090   0.600   1.603   1.983 -0.2510 -0.0134 -0.2276
 5819TIP3   OH239091   1.649   5.569   7.308 -0.2502  0.1041  0.1100
 5819TIP3    H139092   1.690   5.589   7.392 -0.0659  1.8592 -0.3455
 5819TIP3    H239093   1.621   5.654   7.274 -1.0125 -0.6481 -1.2545
 5820TIP3   OH239094   2.568   2.577   8.645 -0.2042 -0.1122 -0.2496
 5820TIP3    H139095   2.611   2.508   8.594 -0.9731  0.9644 -2.4954
 5820TIP3    H239096   2.501   2.532   8.696 -1.1611 -1.0017 -2.2024
 5821TIP3   OH239097   2.000   6.815   8.661  0.1603 -0.8166  0.1650
 5821TIP3    H139098   1.981   6.895   8.613 -1.1132 -1.0193  0.2821
 5821TIP3    H239099   2.050   6.761   8.599  0.5722 -0.1474 -0.0934
 5822TIP3   OH239100   5.554   5.318   1.858 -0.1146 -0.4291 -0.2285
 5822TIP3    H139101   5.513   5.347   1.939  1.1289  1.3055 -0.1370
 5822TIP3    H239102   5.561   5.398   1.805  1.7951 -0.9146 -0.7998
 5823TIP3   OH239103   3.738   6.341   7.400 -0.4709  0.5780 -0.2428
 5823TIP3    H139104   3.800   6.297   7.341 -0.5451  0.6555 -0.3774
 5823TIP3    H239105   3.661   6.284   7.400  0.3812 -0.6975  1.6168
 5824TIP3   OH239106   4.331   4.640   7.858 -0.0780 -0.3092 -0.2978
 5824TIP3    H139107   4.385   4.676   7.787 -0.3126  0.7531  0.0493
 5824TIP3    H239108   4.394   4.603   7.919  0.3455  1.4524  0.3992
 5825TIP3   OH239109   5.409   3.557   7.345  0.3852 -0.2492  0.7797
 5825TIP3    H139110   5.365   3.505   7.412  2.7215 -2.5503  0.6577
 5825TIP3    H239111   5.386   3.515   7.262  0.9450 -0.0600  0.5191
 5826TIP3   OH239112   5.424   1.737   2.061 -0.5223 -0.4433 -0.4271
 5826TIP3    H139113   5.507   1.689   2.061 -0.5157 -0.4312 -0.0814
 5826TIP3    H239114   5.433   1.799   1.989  0.1806  0.2648  0.2582
 5827TIP3   OH239115   5.509   3.388   2.639 -0.7865  0.2021  0.0449
 5827TIP3    H139116   5.520   3.396   2.733 -1.1385  1.1344  0.0153
 5827TIP3    H239117   5.598   3.386   2.604 -0.5063 -3.3651  0.5939
 5828TIP3   OH239118   5.068   1.592   1.064 -0.3116 -0.6446  0.7513
 5828TIP3    H139119   5.153   1.617   1.100  1.0699  0.0429 -2.5769
 5828TIP3    H239120   5.054   1.503   1.096  1.9273 -0.9614  1.0355
 5829TIP3   OH239121   5.928   4.966   0.948 -0.9759 -0.1043 -0.0794
 5829TIP3    H139122   5.884   5.050   0.935  0.2619  0.3324 -1.7124
 5829TIP3    H239123   5.983   4.980   1.025  0.1877  1.0360 -1.0815
 5830TIP3   OH239124   5.707   1.826   0.230  0.1109  0.3295 -0.0145
 5830TIP3    H139125   5.634   1.766   0.216  2.0815 -1.7038 -2.7243
 5830TIP3    H239126   5.771   1.774   0.280 -0.1679  2.0597  2.2917
 5831TIP3   OH239127   0.531   4.121   0.795 -0.0345 -0.0978 -0.4434
 5831TIP3    H139128   0.608   4.090   0.842  0.4138  3.5887  1.6800
 5831TIP3    H239129   0.511   4.205   0.836 -2.9253  0.8841 -3.4548
 5832TIP3   OH239130   0.640   1.089   1.541 -0.1302 -0.5046  0.1179
 5832TIP3    H139131   0.702   1.160   1.522  0.5718 -0.4566  2.3497
 5832TIP3    H239132   0.637   1.039   1.459 -0.8996  2.2009 -1.6521
 5833TIP3   OH239133   4.160   3.617   1.598 -0.5673  0.0961 -0.7821
 5833TIP3    H139134   4.244   3.586   1.631 -1.5557 -1.3080  0.5761
 5833TIP3    H239135   4.127   3.544   1.546 -1.3520  0.2361 -0.4934
 5834TIP3   OH239136   2.425   0.572   7.565 -0.6507  0.1702 -0.1719
 5834TIP3    H139137   2.351   0.611   7.610  0.2151  1.1807  0.4157
 5834TIP3    H239138   2.434   0.485   7.604 -0.3907  0.7384  1.0995
 5835TIP3   OH239139   5.551   3.948   7.785  0.4488  0.0010  0.1066
 5835TIP3    H139140   5.516   3.915   7.868  1.1775 -1.4480 -0.1267
 5835TIP3    H239141   5.646   3.948   7.797  0.5598 -0.1835 -0.6953
 5836TIP3   OH239142   1.290   6.696   2.497  0.2440 -0.5349 -0.5707
 5836TIP3    H139143   1.277   6.678   2.590 -1.1305 -1.8257 -0.9727
 5836TIP3    H239144   1.383   6.715   2.489  0.8241 -2.5080  0.7661
 5837TIP3   OH239145   0.119   5.117   1.775 -0.3369  0.2221  0.2900
 5837TIP3    H139146   0.159   5.126   1.862  1.2413 -1.7047 -0.1696
 5837TIP3    H239147   0.095   5.207   1.751 -0.4901  0.8577  2.5395
 5838TIP3   OH239148   0.932   6.668   2.185  0.7644  0.3248  0.1141
 5838TIP3    H139149   0.975   6.592   2.146  0.5160  0.7979 -1.1506
 5838TIP3    H239150   0.941   6.737   2.119 -0.1753  1.0018  0.6688
 5839TIP3   OH239151   6.716   1.283   1.448  0.5785 -0.1046 -0.7358
 5839TIP3    H139152   6.647   1.337   1.486 -0.7058 -0.8527 -1.9098
 5839TIP3    H239153   6.671   1.229   1.383  2.2800 -0.6240 -1.5386
 5840TIP3   OH239154   1.532   4.163   0.420  0.2729 -0.5310 -0.0712
 5840TIP3    H139155   1.525   4.251   0.383  0.4858 -0.2228  0.5915
 5840TIP3    H239156   1.618   4.161   0.462 -0.9424  0.0927  2.6920
 5841TIP3   OH239157   4.488   1.130   7.479  0.1236 -0.2789  0.1147
 5841TIP3    H139158   4.500   1.038   7.503  0.8222 -0.3489 -0.4632
 5841TIP3    H239159   4.394   1.146   7.491  0.3116 -0.5013  2.1260
 5842TIP3   OH239160   4.759   6.145   0.500 -0.1807 -0.1859 -0.5071
 5842TIP3    H139161   4.850   6.151   0.470 -0.2654  1.5334 -0.4930
 5842TIP3    H239162   4.766   6.130   0.594  0.1074  0.5472 -0.4026
 5843TIP3   OH239163   5.782   0.327   1.208 -0.4362 -0.0612  0.2392
 5843TIP3    H139164   5.716   0.379   1.162 -1.0248  0.1657  1.3018
 5843TIP3    H239165   5.820   0.387   1.271 -1.0062 -0.8517  1.3690
 5844TIP3   OH239166   3.922   3.077   6.926  0.4244  0.0909 -0.7293
 5844TIP3    H139167   3.840   3.086   6.975  1.3989  1.5959  0.7110
 5844TIP3    H239168   3.980   3.029   6.986  0.8203 -0.3652 -1.4646
 5845TIP3   OH239169   1.929   5.014   2.513  0.0619 -0.0442 -0.3067
 5845TIP3    H139170   2.023   5.012   2.531 -0.1921 -2.0905  1.1224
 5845TIP3    H239171   1.900   5.099   2.546  1.3326  0.4352 -0.3741
 5846TIP3   OH239172   4.419   3.958   7.682 -0.2021  0.4752 -0.1209
 5846TIP3    H139173   4.429   4.049   7.709  0.2090  0.4758 -0.2808
 5846TIP3    H239174   4.329   3.937   7.706 -0.5179  1.1274 -0.7027
 5847TIP3   OH239175   1.147   0.199   0.195 -0.6478 -0.3775  0.6131
 5847TIP3    H139176   1.232   0.193   0.238 -0.8795 -3.3561  0.8729
 5847TIP3    H239177   1.105   0.275   0.234  1.9878  1.4089  0.2042
 5848TIP3   OH239178   0.006   3.222   7.548 -0.1464 -0.3568 -0.5198
 5848TIP3    H139179   0.044   3.178   7.472  0.6443  0.5960 -0.6910
 5848TIP3    H239180   0.036   3.312   7.542  1.2432 -0.5753  1.7454
 5849TIP3   OH239181   1.002   6.272   8.689  0.4644 -0.3388  0.0289
 5849TIP3    H139182   0.964   6.284   8.776 -0.3904  2.4250 -0.5995
 5849TIP3    H239183   0.938   6.217   8.643 -0.8255  0.9695  0.1848
 5850TIP3   OH239184   5.388   3.595   8.347  0.3479  0.3713  0.1627
 5850TIP3    H139185   5.456   3.605   8.280 -0.4769  0.5565 -0.6736
 5850TIP3    H239186   5.308   3.624   8.304 -0.4235 -0.6933  0.8260
 5851TIP3   OH239187   5.173   4.211   0.730 -0.3700  0.2057  0.6894
 5851TIP3    H139188   5.143   4.291   0.687 -1.1407 -1.0417 -1.2624
 5851TIP3    H239189   5.266   4.205   0.705 -0.7760 -0.4338 -0.7617
 5852TIP3   OH239190   6.052   2.547   0.008 -0.0863  0.0396 -0.3235
 5852TIP3    H139191   5.965   2.508   0.010 -0.0144 -0.1140 -0.1038
 5852TIP3    H239192   6.097   2.508   0.083 -0.0273  0.5765 -0.0728
 5853TIP3   OH239193   5.711   1.344   0.320 -0.1035  0.1459  0.5620
 5853TIP3    H139194   5.710   1.252   0.346 -1.7397 -0.0309  0.0131
 5853TIP3    H239195   5.720   1.342   0.225  0.3486  0.5705  0.5946
 5854TIP3   OH239196   2.771   5.303   0.285 -0.0845  0.3003  0.3346
 5854TIP3    H139197   2.815   5.278   0.366  0.0477  0.0453  0.1859
 5854TIP3    H239198   2.812   5.248   0.218 -0.0369  0.6655  0.0602
 5855TIP3   OH239199   6.781   1.355   2.861  0.0488 -0.2070  0.2628
 5855TIP3    H139200   6.821   1.284   2.910 -1.8474 -1.5624 -0.0174
 5855TIP3    H239201   6.705   1.380   2.913  0.5947  1.5387  0.2705
 5856TIP3   OH239202   4.243   6.369   0.571  0.0079 -1.0649 -0.2627
 5856TIP3    H139203   4.313   6.303   0.575 -0.2474 -1.3346 -0.2136
 5856TIP3    H239204   4.170   6.329   0.618 -0.3131 -0.9400 -0.6524
 5857TIP3   OH239205   0.203   3.417   1.667 -0.3712  0.5237  0.0925
 5857TIP3    H139206   0.268   3.372   1.613  0.2152  0.0171  1.1705
 5857TIP3    H239207   0.166   3.349   1.722 -1.5555  0.8830 -0.2358
 5858TIP3   OH239208   1.338   3.240   0.658 -0.0771 -0.4745  0.5216
 5858TIP3    H139209   1.297   3.237   0.745 -0.2900  1.0499  0.5109
 5858TIP3    H239210   1.349   3.334   0.641  0.5988 -0.7805 -0.8068
 5859TIP3   OH239211   1.671   4.809   1.712  0.3735 -0.1457  0.7030
 5859TIP3    H139212   1.642   4.899   1.725  2.0157  0.8325 -1.7309
 5859TIP3    H239213   1.636   4.785   1.626  0.0916 -1.7966  1.2462
 5860TIP3   OH239214   2.135   6.573   0.179  0.3885  0.3915  0.6283
 5860TIP3    H139215   2.077   6.642   0.147 -0.9311 -1.1891 -0.6000
 5860TIP3    H239216   2.162   6.526   0.100  1.2827 -0.4803  1.4225
 5861TIP3   OH239217   2.517   0.390   1.566 -0.1023 -0.2003 -0.3025
 5861TIP3    H139218   2.512   0.302   1.530 -1.8740  0.0434 -0.8008
 5861TIP3    H239219   2.600   0.394   1.612 -0.0287 -2.1495 -0.2034
 5862TIP3   OH239220   6.024   0.991   0.651  0.4753  0.1080 -0.3783
 5862TIP3    H139221   6.072   1.013   0.731 -0.1354  2.2877 -0.5422
 5862TIP3    H239222   6.073   0.918   0.613 -0.0590 -2.0882  2.7017
 5863TIP3   OH239223   3.568   2.451   1.242  0.3608  0.1755  0.0888
 5863TIP3    H139224   3.610   2.531   1.274  0.7068  0.2289 -0.4860
 5863TIP3    H239225   3.521   2.479   1.164 -0.9396  0.1595  0.8308
 5864TIP3   OH239226   0.688   0.148   8.130 -0.0312 -0.6831 -0.4969
 5864TIP3    H139227   0.594   0.136   8.114 -0.1747  1.2537 -1.3032
 5864TIP3    H239228   0.706   0.093   8.206 -1.7025 -1.4849 -0.6327
 5865TIP3   OH239229   1.499   4.357   2.563 -0.0971 -0.1028 -0.2437
 5865TIP3    H139230   1.469   4.363   2.654 -2.4916  0.7849 -0.9959
 5865TIP3    H239231   1.591   4.380   2.566 -0.5579  1.7847  1.7377
 5866TIP3   OH239232   0.481   2.865   0.698 -0.6134 -0.6273 -0.4825
 5866TIP3    H139233   0.438   2.840   0.617 -1.3288 -0.8449 -0.0498
 5866TIP3    H239234   0.516   2.783   0.733  0.3791 -0.4150 -0.9500
 5867TIP3   OH239235   4.421   2.833   0.296 -0.1236  0.6207 -0.3915
 5867TIP3    H139236   4.401   2.817   0.388  2.1953  0.7348  0.1896
 5867TIP3    H239237   4.370   2.767   0.249 -1.0825  0.3402  0.9703
 5868TIP3   OH239238   4.062   1.874   1.338  0.2963 -0.4879 -0.7687
 5868TIP3    H139239   4.034   1.846   1.251 -0.1129  2.2132 -1.5776
 5868TIP3    H239240   4.158   1.868   1.335  0.2797 -0.5463 -1.3488
 5869TIP3   OH239241   4.311   6.360   1.289  0.2912  0.5722 -0.0457
 5869TIP3    H139242   4.353   6.348   1.204 -0.5231  2.0557 -0.6764
 5869TIP3    H239243   4.221   6.330   1.276 -0.0646  1.5760  0.0501
 5870TIP3   OH239244   1.051   0.194   1.006 -0.5607  0.2513 -0.5615
 5870TIP3    H139245   1.074   0.138   0.932  0.0481  1.6210 -1.4572
 5870TIP3    H239246   0.956   0.192   1.008 -0.6018  0.3731 -1.5410
 5871TIP3   OH239247   0.624   0.967   0.057  0.3155  0.2482 -0.5911
 5871TIP3    H139248   0.570   1.011  -0.009  1.6809  1.9778 -0.6328
 5871TIP3    H239249   0.706   0.947   0.012  0.7943  0.2931  0.2366
 5872TIP3   OH239250   2.948   3.756   0.612  0.0080 -0.2841 -0.7337
 5872TIP3    H139251   2.987   3.698   0.546 -1.1322 -0.4057 -1.3193
 5872TIP3    H239252   2.977   3.844   0.587  1.2938 -0.5126 -0.1602
 5873TIP3   OH239253   1.253   4.923   0.774  0.1120 -0.0751  0.1257
 5873TIP3    H139254   1.268   4.942   0.867 -0.0771 -0.4914  0.2472
 5873TIP3    H239255   1.334   4.880   0.745 -0.6208 -1.9507  0.6771
 5874TIP3   OH239256   5.705   1.994   0.775  0.8225 -0.2014  0.0304
 5874TIP3    H139257   5.676   1.966   0.688 -0.1695  0.6397  0.0771
 5874TIP3    H239258   5.800   1.992   0.770  0.7834  0.2862 -1.2266
 5875TIP3   OH239259   2.124   2.600   2.696  0.3068 -0.8114 -0.2384
 5875TIP3    H139260   2.103   2.561   2.781  0.4425 -1.4127 -0.4828
 5875TIP3    H239261   2.123   2.695   2.713 -0.1501 -0.9104  0.3190
 5876TIP3   OH239262   2.324   1.365   7.701  0.3034  0.9794  0.4122
 5876TIP3    H139263   2.288   1.374   7.790 -0.8962  0.5077  0.0005
 5876TIP3    H239264   2.256   1.402   7.644  1.7124  2.6971 -0.2399
 5877TIP3   OH239265   2.031   1.158   0.118 -0.2171  0.2989 -0.2236
 5877TIP3    H139266   2.075   1.077   0.096 -0.6996  0.0118 -0.1497
 5877TIP3    H239267   2.090   1.227   0.088  1.3173 -0.0360  1.8135
 5878TIP3   OH239268   0.493   4.874   1.990 -0.3897 -0.4225 -0.2011
 5878TIP3    H139269   0.400   4.893   2.004  0.0627  1.9271  0.0454
 5878TIP3    H239270   0.529   4.865   2.078  0.1203  1.7273 -0.1283
 5879TIP3   OH239271   3.298   2.807   1.731  0.1217 -0.4577 -0.1570
 5879TIP3    H139272   3.359   2.761   1.789 -0.3391 -1.0185 -0.1075
 5879TIP3    H239273   3.238   2.739   1.701 -1.0463  0.2564  0.5229
 5880TIP3   OH239274   6.649   2.525   7.828 -0.3524 -0.1341 -0.0249
 5880TIP3    H139275   6.732   2.527   7.876 -1.0571 -0.5295  1.2681
 5880TIP3    H239276   6.646   2.437   7.790 -0.5503 -0.4255  0.6455
 5881TIP3   OH239277   0.526   0.276   0.064  0.3461  0.2395 -0.3880
 5881TIP3    H139278   0.579   0.330   0.005 -1.4185  1.7041 -0.7341
 5881TIP3    H239279   0.495   0.338   0.130 -1.9107 -0.2696 -0.8989
 5882TIP3   OH239280   1.340   1.997   2.342 -0.2851 -0.0065  0.4005
 5882TIP3    H139281   1.363   2.086   2.317  1.3629 -0.7530 -0.8881
 5882TIP3    H239282   1.316   1.954   2.260 -0.2898 -0.9814  0.8935
 5883TIP3   OH239283   5.359   6.309   1.470  0.5242 -0.3906  0.6423
 5883TIP3    H139284   5.427   6.376   1.463  0.1060 -0.0311 -0.1497
 5883TIP3    H239285   5.348   6.296   1.564 -0.5591  1.9038  0.9092
 5884TIP3   OH239286   0.423   3.581   7.696 -0.4123  0.4379 -0.8670
 5884TIP3    H139287   0.391   3.609   7.610  0.3989 -0.0672 -1.3534
 5884TIP3    H239288   0.460   3.494   7.680 -2.5454 -0.8338  0.5063
 5885TIP3   OH239289   6.408   3.708   2.873 -0.2090 -0.3327  0.1811
 5885TIP3    H139290   6.495   3.730   2.839 -0.0633 -0.7475  0.2753
 5885TIP3    H239291   6.416   3.616   2.900 -0.3785 -0.0651  1.1735
 5886TIP3   OH239292   3.862   5.738   2.072  0.4153  0.3226  0.6351
 5886TIP3    H139293   3.785   5.700   2.115  0.0280 -1.2012 -1.3132
 5886TIP3    H239294   3.935   5.685   2.103  0.1126 -0.8980 -0.6741
 5887TIP3   OH239295   4.130   4.495   6.732  0.2420 -0.4487 -0.6268
 5887TIP3    H139296   4.076   4.461   6.804  0.8821 -0.4417 -0.1291
 5887TIP3    H239297   4.179   4.420   6.701  0.5978 -0.2733 -0.4886
 5888TIP3   OH239298   5.058   4.631   2.612  0.3439  0.0838 -0.6412
 5888TIP3    H139299   5.058   4.713   2.660 -1.7852  0.0579 -0.4772
 5888TIP3    H239300   5.140   4.588   2.636  0.9621  1.6409  0.1419
 5889TIP3   OH239301   2.735   5.697   7.436  0.2897 -0.1806 -0.5003
 5889TIP3    H139302   2.655   5.709   7.487  0.6680  0.2836 -0.0101
 5889TIP3    H239303   2.705   5.697   7.345 -0.2755 -0.0702 -0.3164
 5890TIP3   OH239304   0.949   3.971   0.020 -0.2652 -0.3603 -0.1081
 5890TIP3    H139305   0.857   3.951   0.003 -0.2422 -0.0407 -0.6331
 5890TIP3    H239306   0.973   3.913   0.092 -1.0616  0.0195  0.4886
 5891TIP3   OH239307   2.295   5.255   8.642  0.5940  0.3895  0.7900
 5891TIP3    H139308   2.279   5.205   8.722 -1.3689  0.2539  0.3581
 5891TIP3    H239309   2.298   5.346   8.671  0.6757  0.2862  1.1138
 5892TIP3   OH239310   2.967   0.518   1.290  0.0359 -0.2347 -0.9813
 5892TIP3    H139311   2.969   0.576   1.213  0.9379  1.3353  0.1740
 5892TIP3    H239312   2.874   0.496   1.301 -0.2967  0.7715 -1.6169
 5893TIP3   OH239313   5.837   5.118   7.365 -0.7936  0.1055  0.1700
 5893TIP3    H139314   5.894   5.161   7.429 -0.2506  1.1478 -0.9909
 5893TIP3    H239315   5.891   5.110   7.286 -2.0459  0.5134 -0.7451
 5894TIP3   OH239316   0.586   5.430   1.417 -0.4511  0.0163  0.7918
 5894TIP3    H139317   0.659   5.425   1.480  0.3474  0.5591 -0.0536
 5894TIP3    H239318   0.577   5.524   1.400 -1.2713 -0.0631  0.7805
 5895TIP3   OH239319   3.379   5.363   0.966 -0.3027  0.3570 -0.4920
 5895TIP3    H139320   3.459   5.338   0.920  0.2965  2.2263 -0.5086
 5895TIP3    H239321   3.386   5.321   1.052  1.0973  1.1604 -0.1875
 5896TIP3   OH239322   0.239   0.720   7.925  0.1834 -0.5038 -0.1887
 5896TIP3    H139323   0.185   0.789   7.965  0.0587 -0.7539  0.0796
 5896TIP3    H239324   0.263   0.756   7.840 -0.8507 -0.5972 -0.5362
 5897TIP3   OH239325   6.649   0.315   7.960  0.3457  0.1070 -0.3497
 5897TIP3    H139326   6.578   0.319   7.895  1.5912 -1.1653 -1.8648
 5897TIP3    H239327   6.728   0.299   7.908  2.0061  2.7175  1.1374
 5898TIP3   OH239328   5.583   1.674   0.621 -0.3543 -0.0479 -0.2717
 5898TIP3    H139329   5.614   1.753   0.577  1.5618  0.1821  1.3656
 5898TIP3    H239330   5.582   1.697   0.714  2.4389 -2.5443  0.5274
 5899TIP3   OH239331   2.531   5.842   7.563 -0.4618 -0.5700  0.8652
 5899TIP3    H139332   2.501   5.922   7.605  1.5667  0.7504 -0.0617
 5899TIP3    H239333   2.539   5.779   7.634 -0.3814  0.5872  1.9170
 5900TIP3   OH239334   4.421   2.856   7.593  0.3726  0.3602 -0.4156
 5900TIP3    H139335   4.451   2.902   7.515  0.4829 -0.1765 -0.6930
 5900TIP3    H239336   4.452   2.766   7.581  0.9222  0.4066  0.5238
 5901TIP3   OH239337   2.716   1.852   2.144 -0.1604  0.2376 -0.2928
 5901TIP3    H139338   2.671   1.832   2.226 -0.7902 -3.0255 -1.2756
 5901TIP3    H239339   2.807   1.870   2.170 -0.2441 -1.1821  1.1087
 5902TIP3   OH239340   1.327   4.487   2.114 -0.1172 -0.1644 -0.0094
 5902TIP3    H139341   1.292   4.420   2.173 -0.6028 -1.3391 -1.5704
 5902TIP3    H239342   1.408   4.516   2.156 -0.3859 -1.0413  1.1713
 5903TIP3   OH239343   1.931   3.312   7.644 -0.4076  0.3325  0.2227
 5903TIP3    H139344   1.998   3.344   7.704  0.2181 -0.3216 -0.1034
 5903TIP3    H239345   1.967   3.230   7.609 -1.6039 -0.3181  0.4419
 5904TIP3   OH239346   0.746   0.209   0.985  0.3964 -0.3150  0.3914
 5904TIP3    H139347   0.728   0.246   0.899 -2.5997  0.2273  1.1312
 5904TIP3    H239348   0.701   0.124   0.984  0.1757 -0.2247  1.4671
 5905TIP3   OH239349   5.752   1.331   7.527 -0.2783 -0.1972  0.5112
 5905TIP3    H139350   5.739   1.297   7.438 -0.9217 -3.1671  1.6352
 5905TIP3    H239351   5.826   1.392   7.518  0.7929 -1.6833 -1.7761
 5906TIP3   OH239352   6.012   1.495   1.651 -0.3370  0.2231 -0.0852
 5906TIP3    H139353   6.020   1.424   1.588  0.2505 -0.2487  0.5018
 5906TIP3    H239354   6.101   1.512   1.680 -0.6882 -0.3005  1.3970
 5907TIP3   OH239355   2.242   3.080   8.241  0.1603 -0.3088  0.0479
 5907TIP3    H139356   2.295   3.157   8.263 -0.7591 -0.1558  1.9534
 5907TIP3    H239357   2.276   3.011   8.298  1.6664 -1.6843 -2.3666
 5908TIP3   OH239358   5.550   2.305   8.130 -0.4138 -0.4273 -0.2932
 5908TIP3    H139359   5.631   2.303   8.181 -0.3042 -3.0853 -0.4019
 5908TIP3    H239360   5.483   2.333   8.192  0.3769  0.5809  0.1314
 5909TIP3   OH239361   6.388   3.515   0.727 -0.3000 -0.4159  0.0214
 5909TIP3    H139362   6.304   3.473   0.750 -0.8652  0.3421 -0.6236
 5909TIP3    H239363   6.377   3.606   0.755 -0.1548 -0.0194 -1.1663
 5910TIP3   OH239364   1.556   5.065   1.703 -0.3787 -0.0117  0.4229
 5910TIP3    H139365   1.522   5.103   1.784 -1.1533  0.4727 -0.1057
 5910TIP3    H239366   1.523   5.123   1.634  0.7513 -0.0816 -0.2014
 5911TIP3   OH239367   3.238   5.038   8.727 -0.0907 -0.3794 -0.5376
 5911TIP3    H139368   3.205   5.009   8.642 -0.7708 -0.6545 -0.1864
 5911TIP3    H239369   3.303   5.105   8.706  1.9385 -2.4889 -1.4111
 5912TIP3   OH239370   3.885   1.284   8.006  0.2208 -0.5614  0.4451
 5912TIP3    H139371   3.914   1.370   7.975 -0.4026  0.5031  2.5803
 5912TIP3    H239372   3.803   1.268   7.959 -0.9797  1.2394  1.7686
 5913TIP3   OH239373   5.865   3.965   2.016  0.2529  0.0725 -0.4520
 5913TIP3    H139374   5.882   3.902   1.946  0.3822 -0.1360 -0.2313
 5913TIP3    H239375   5.770   3.976   2.016  0.1985 -0.3998 -0.2433
 5914TIP3   OH239376   0.488   6.180   8.337 -0.0332  0.1078 -0.6332
 5914TIP3    H139377   0.504   6.270   8.366 -0.7743  0.0229  0.0668
 5914TIP3    H239378   0.574   6.138   8.341  0.2817  0.7193 -0.7683
 5915TIP3   OH239379   1.239   1.541   1.534 -0.0236  0.4693  0.0554
 5915TIP3    H139380   1.265   1.450   1.546 -0.5820  0.6028  2.6902
 5915TIP3    H239381   1.155   1.536   1.490 -0.3609 -0.3202  0.7676
 5916TIP3   OH239382   5.105   5.956   1.196  0.1947  0.1939  0.3048
 5916TIP3    H139383   5.046   6.005   1.253  0.0376  0.7141 -0.2882
 5916TIP3    H239384   5.187   6.006   1.197  0.4053 -0.1491  0.5779
 5917TIP3   OH239385   0.115   0.625   0.987  0.3828  0.2783  0.2496
 5917TIP3    H139386   0.192   0.659   0.942 -0.5712  0.9820 -0.9358
 5917TIP3    H239387   0.106   0.680   1.064  0.4757  0.8744 -0.1594
 5918TIP3   OH239388   0.856   4.895   0.729  0.2364  0.2817 -0.2749
 5918TIP3    H139389   0.886   4.815   0.773 -4.0098 -1.5238 -0.2000
 5918TIP3    H239390   0.863   4.875   0.636  0.4958  0.3937 -0.2799
 5919TIP3   OH239391   3.298   0.365   7.820  0.2872 -0.4752 -0.2747
 5919TIP3    H139392   3.207   0.356   7.848  0.0948 -1.3881 -1.1130
 5919TIP3    H239393   3.325   0.275   7.798  1.1728 -0.1236 -0.6836
 5920TIP3   OH239394   3.107   3.565   2.396  0.5079 -0.5817 -0.2235
 5920TIP3    H139395   3.139   3.581   2.484  1.6696  0.1188 -0.7401
 5920TIP3    H239396   3.026   3.615   2.390 -0.4117 -1.8668  0.9141
 5921TIP3   OH239397   6.503   4.747   7.619 -0.0831 -0.5125 -0.1952
 5921TIP3    H139398   6.465   4.832   7.598  0.3611 -0.0325  0.8710
 5921TIP3    H239399   6.557   4.763   7.696 -3.0465 -2.4618  2.5988
 5922TIP3   OH239400   6.665   4.999   3.092 -0.2528  0.0678  0.0653
 5922TIP3    H139401   6.736   4.956   3.044 -0.8184 -1.3460  0.4429
 5922TIP3    H239402   6.703   5.082   3.120  1.1855 -0.5435  0.0347
 5923TIP3   OH239403   5.353   1.245   7.043  0.2705 -0.4899  0.5689
 5923TIP3    H139404   5.410   1.216   6.972  0.8455  0.5053  0.6039
 5923TIP3    H239405   5.378   1.337   7.057 -0.9061 -0.2273  1.0112
 5924TIP3   OH239406   2.741   0.483   0.396 -0.1074 -0.2225 -0.2686
 5924TIP3    H139407   2.802   0.550   0.427  1.5758 -0.7280 -2.2245
 5924TIP3    H239408   2.707   0.518   0.314 -0.9275 -0.8096 -0.1867
 5925TIP3   OH239409   2.019   0.993   8.235  0.2488 -0.0918  0.1012
 5925TIP3    H139410   2.059   0.991   8.321  1.1857  1.1582 -0.2716
 5925TIP3    H239411   1.989   0.903   8.220 -0.4065 -0.2147  1.9161
 5926TIP3   OH239412   6.702   3.685   8.360 -0.2939  0.3166  0.6176
 5926TIP3    H139413   6.630   3.676   8.298  1.3342  1.5511 -1.5831
 5926TIP3    H239414   6.741   3.598   8.364 -0.5111  0.1882  0.0275
 5927TIP3   OH239415   4.940   0.166   2.476  0.2742  0.4473 -0.0140
 5927TIP3    H139416   4.921   0.073   2.491  0.3716  0.6103  1.1715
 5927TIP3    H239417   4.855   0.207   2.467  0.1969  0.4204  0.5825
 5928TIP3   OH239418   3.737   0.725   0.097 -0.1000 -0.1912  0.0597
 5928TIP3    H139419   3.656   0.680   0.121 -0.4651 -0.0727 -0.9055
 5928TIP3    H239420   3.799   0.699   0.164 -0.9150 -0.3406  0.7840
 5929TIP3   OH239421   0.155   1.086   7.914  0.3117 -0.2471 -0.4001
 5929TIP3    H139422   0.101   1.085   7.835  0.5640  0.6233 -0.5927
 5929TIP3    H239423   0.239   1.120   7.885  1.5499 -3.0208 -0.4440
 5930TIP3   OH239424   3.780   6.204   2.611 -0.1185  0.1910  0.6583
 5930TIP3    H139425   3.693   6.174   2.636 -1.2062  0.2239 -2.6375
 5930TIP3    H239426   3.807   6.145   2.541  1.3117  1.7941 -0.2271
 5931TIP3   OH239427   2.680   0.711   1.213  0.2765  0.6661 -0.4069
 5931TIP3    H139428   2.658   0.645   1.279  3.5523  0.8678  1.1114
 5931TIP3    H239429   2.655   0.670   1.130 -2.9280 -0.0740  0.7668
 5932TIP3   OH239430   4.396   4.268   1.903  0.4064  0.3163  0.0913
 5932TIP3    H139431   4.488   4.270   1.876  0.3297  0.0252 -0.1974
 5932TIP3    H239432   4.366   4.358   1.894  0.8754  0.5650  0.9271
 5933TIP3   OH239433   2.509   1.095   2.632  0.0429  0.1159  0.2287
 5933TIP3    H139434   2.526   1.187   2.610  0.1805  0.2276  0.7944
 5933TIP3    H239435   2.414   1.088   2.633  0.0240  0.4245  0.8782
 5934TIP3   OH239436   4.272   1.750   0.234  0.6140 -0.7021 -0.0274
 5934TIP3    H139437   4.260   1.820   0.170 -0.9267 -0.4995  0.4199
 5934TIP3    H239438   4.334   1.690   0.194 -2.0897 -1.8740 -2.8284
 5935TIP3   OH239439   1.227   0.161   2.555  0.3003 -0.6226  0.3518
 5935TIP3    H139440   1.242   0.103   2.630 -0.1427 -0.2249  0.7530
 5935TIP3    H239441   1.159   0.116   2.504 -0.1986 -0.3671  0.7747
 5936TIP3   OH239442   5.308   5.621   8.292 -0.4592 -0.1579  0.2007
 5936TIP3    H139443   5.363   5.658   8.222 -0.2398 -0.6904  0.0931
 5936TIP3    H239444   5.261   5.697   8.327  1.6093  0.6145  1.4710
 5937TIP3   OH239445   3.562   1.225   0.230 -0.2340  0.0703  0.2429
 5937TIP3    H139446   3.633   1.254   0.286  0.0113  1.0369 -0.5633
 5937TIP3    H239447   3.496   1.294   0.237 -0.6217 -0.2785  0.0935
 5938TIP3   OH239448   4.414   3.336   1.356  0.0789 -0.3795  0.0485
 5938TIP3    H139449   4.399   3.424   1.322  0.3500 -0.3831 -0.0834
 5938TIP3    H239450   4.496   3.342   1.405  0.2916 -0.6419 -0.2706
 5939TIP3   OH239451   3.919   4.881   0.597 -0.1135  0.8071  0.1964
 5939TIP3    H139452   3.913   4.786   0.589 -2.8917  1.0649 -3.0415
 5939TIP3    H239453   4.002   4.903   0.555 -1.2058 -0.0912 -2.7187
 5940TIP3   OH239454   2.652   0.546   6.658 -0.2802  0.9023 -0.2640
 5940TIP3    H139455   2.613   0.465   6.625 -0.2286  0.1852  1.3407
 5940TIP3    H239456   2.740   0.521   6.685 -0.1852  1.5466  0.0431
 5941TIP3   OH239457   6.603   5.612   7.578 -0.0105  0.0696 -0.1713
 5941TIP3    H139458   6.592   5.634   7.485 -0.3369  0.5201 -0.0295
 5941TIP3    H239459   6.684   5.561   7.581 -0.6491 -1.0056 -0.8657
 5942TIP3   OH239460   4.819   5.208   7.885 -0.4688 -0.1742  0.6817
 5942TIP3    H139461   4.779   5.161   7.958 -1.2739 -0.1072  0.2990
 5942TIP3    H239462   4.904   5.237   7.919  0.6490 -2.9539  0.5443
 5943TIP3   OH239463   0.063   5.413   0.995 -0.1351 -0.0134 -0.3275
 5943TIP3    H139464   0.115   5.467   0.935  0.1495 -0.6909 -0.7026
 5943TIP3    H239465   0.017   5.352   0.938 -0.7663  0.0820  0.0635
 5944TIP3   OH239466   5.326   5.019   6.796 -0.1123  0.5218  0.3562
 5944TIP3    H139467   5.358   4.930   6.780  0.5706  0.5768  1.3588
 5944TIP3    H239468   5.276   5.040   6.717 -0.3296 -0.7639  0.1218
 5945TIP3   OH239469   5.347   2.288   0.765 -0.2724  0.1502  0.2309
 5945TIP3    H139470   5.428   2.327   0.733  0.3491 -0.0965  1.4765
 5945TIP3    H239471   5.300   2.361   0.806 -0.0335 -0.0021  0.7714
 5946TIP3   OH239472   0.267   1.465   0.459 -0.5018 -0.0584 -0.5746
 5946TIP3    H139473   0.253   1.400   0.390 -2.0578 -0.3513 -0.0031
 5946TIP3    H239474   0.234   1.547   0.422  0.1956  0.1432 -0.7763
 5947TIP3   OH239475   3.471   6.727   7.638 -0.1684  0.5193  0.4313
 5947TIP3    H139476   3.378   6.704   7.631 -0.5016  0.2138  4.1157
 5947TIP3    H239477   3.517   6.643   7.633 -0.1471  0.5731 -0.3995
 5948TIP3   OH239478   5.646   6.346   2.771  0.1105  0.0154  0.3041
 5948TIP3    H139479   5.721   6.401   2.791  1.5307 -1.5533 -0.4140
 5948TIP3    H239480   5.578   6.373   2.832  1.5149  0.9750  1.4879
 5949TIP3   OH239481   2.838   4.657   1.536  0.2611  0.3500 -0.2185
 5949TIP3    H139482   2.808   4.654   1.445  0.6601 -0.2741 -0.3394
 5949TIP3    H239483   2.758   4.657   1.588  0.0313  0.2534 -0.5647
 5950TIP3   OH239484   2.454   6.049   7.346  0.0724  0.1876 -0.0296
 5950TIP3    H139485   2.403   5.984   7.297 -1.1908  2.2628 -1.6115
 5950TIP3    H239486   2.505   5.997   7.408 -0.1240 -2.3792 -1.8650
 5951TIP3   OH239487   0.103   3.965   1.124 -0.2461 -0.0024  0.5173
 5951TIP3    H139488   0.187   4.008   1.110 -0.6467  0.6197 -0.0365
 5951TIP3    H239489   0.076   3.934   1.038 -1.5421  1.6409  0.2633
 5952TIP3   OH239490   1.170   2.552   1.451  0.2164 -0.3672 -0.5506
 5952TIP3    H139491   1.124   2.485   1.401  1.0022 -0.5850 -0.9916
 5952TIP3    H239492   1.118   2.561   1.531 -0.2310 -1.0712 -0.7503
 5953TIP3   OH239493   6.779   4.463   1.042  0.3690 -0.3755  0.4653
 5953TIP3    H139494   6.690   4.430   1.031  0.8455 -1.7918  0.6385
 5953TIP3    H239495   6.768   4.549   1.081 -0.9544 -0.0655 -0.5259
 5954TIP3   OH239496   3.802   1.759   8.596  0.2213 -0.1729 -0.0803
 5954TIP3    H139497   3.722   1.774   8.646  0.8955  0.0711  0.9735
 5954TIP3    H239498   3.834   1.674   8.627  1.5924  0.7883  1.2880
 5955TIP3   OH239499   2.564   3.499   7.666 -0.3562  0.0002  0.1802
 5955TIP3    H139500   2.483   3.470   7.624 -1.1536  4.1290 -1.5698
 5955TIP3    H239501   2.632   3.480   7.601 -0.6028  0.4573 -0.2187
 5956TIP3   OH239502   2.865   4.579   8.394  0.1422 -0.7217  0.3537
 5956TIP3    H139503   2.790   4.520   8.385  1.6102 -2.5884 -0.4144
 5956TIP3    H239504   2.853   4.644   8.325 -1.0758 -0.6250  0.6420
 5957TIP3   OH239505   1.516   2.287   1.851 -0.1437  0.5787  0.3387
 5957TIP3    H139506   1.555   2.249   1.772 -0.5639 -1.3668  1.0179
 5957TIP3    H239507   1.574   2.259   1.922 -2.6909 -2.5224  1.4023
 5958TIP3   OH239508   6.797   6.274   8.688  0.3277 -0.5817 -0.2205
 5958TIP3    H139509   6.706   6.244   8.696 -0.4951  1.9886  1.1803
 5958TIP3    H239510   6.806   6.341   8.756  3.0366 -0.1495 -0.9033
 5959TIP3   OH239511   6.292   2.685   1.483 -0.0240  0.7344 -0.7310
 5959TIP3    H139512   6.352   2.758   1.493  0.7831 -0.0056 -0.0228
 5959TIP3    H239513   6.214   2.723   1.442  0.4865  1.9250 -0.6273
 5960TIP3   OH239514   0.510   1.872   0.444 -0.4998  0.0637 -0.1124
 5960TIP3    H139515   0.470   1.857   0.358 -0.0171  0.5821 -0.4326
 5960TIP3    H239516   0.571   1.944   0.430 -0.4324  0.1695  0.6758
 5961TIP3   OH239517   3.856   5.350   7.515 -0.4512 -0.4492 -0.2486
 5961TIP3    H139518   3.836   5.257   7.501 -1.0305 -0.1807 -1.2680
 5961TIP3    H239519   3.859   5.387   7.427 -1.3952  0.7346  0.1970
 5962TIP3   OH239520   0.944   3.439   0.480 -0.2698  0.2037  0.0353
 5962TIP3    H139521   0.871   3.452   0.540  0.2271  0.7544  0.5420
 5962TIP3    H239522   0.962   3.345   0.484  0.0334  0.2837  1.1134
 5963TIP3   OH239523   5.444   3.324   1.929 -0.3273 -0.0272 -0.1180
 5963TIP3    H139524   5.449   3.239   1.973 -0.8410 -1.0770 -1.9617
 5963TIP3    H239525   5.497   3.313   1.850  0.1012  1.5861 -0.0867
 5964TIP3   OH239526   4.730   3.791   7.289 -0.4294 -0.4112  0.7174
 5964TIP3    H139527   4.696   3.719   7.237 -0.6791  0.0303  0.2652
 5964TIP3    H239528   4.664   3.805   7.358 -1.1455  0.3802 -0.1006
 5965TIP3   OH239529   3.856   0.540   1.528  0.6710  0.6296  0.2413
 5965TIP3    H139530   3.813   0.612   1.482 -0.1239 -0.6381 -1.1100
 5965TIP3    H239531   3.806   0.530   1.609 -0.9387 -0.0738 -0.7727
 5966TIP3   OH239532   2.471   0.927   7.275  0.1733  0.6629  0.0858
 5966TIP3    H139533   2.422   0.858   7.319 -1.2937  0.1940 -2.1061
 5966TIP3    H239534   2.419   1.006   7.289 -0.0956  0.5853 -0.4315
 5967TIP3   OH239535   5.971   5.931   0.150  0.9190  0.2340  0.2991
 5967TIP3    H139536   6.046   5.956   0.097  2.2212  0.1747  2.0049
 5967TIP3    H239537   5.939   6.014   0.186 -0.4777  0.3723 -1.1624
 5968TIP3   OH239538   3.399   4.211   0.167 -0.0029  0.1661  0.1937
 5968TIP3    H139539   3.384   4.256   0.084  2.4182  2.0707  0.6576
 5968TIP3    H239540   3.322   4.156   0.180 -1.0518  0.8341 -2.6317
 5969TIP3   OH239541   1.587   3.630   8.222  0.2913  0.3064  0.2181
 5969TIP3    H139542   1.657   3.671   8.273  0.8044 -0.0968 -0.1532
 5969TIP3    H239543   1.604   3.536   8.230  2.0199  0.2305 -2.9112
 5970TIP3   OH239544   4.841   2.966   1.903  0.5272 -0.1481 -0.8058
 5970TIP3    H139545   4.829   2.933   1.992 -1.2169 -1.1655 -1.3753
 5970TIP3    H239546   4.841   2.888   1.848 -0.9283  0.5761 -1.9214
 5971TIP3   OH239547   0.995   5.886   6.936  0.3082  0.3871 -0.5273
 5971TIP3    H139548   0.911   5.904   6.893  0.1041 -0.5955 -0.5662
 5971TIP3    H239549   0.999   5.949   7.007 -1.2548 -0.5847  0.5114
 5972TIP3   OH239550   3.959   1.485   1.249  0.0391 -0.2184 -0.0532
 5972TIP3    H139551   4.021   1.557   1.239 -1.4614  1.1827  0.1988
 5972TIP3    H239552   3.888   1.506   1.188 -1.2743 -0.4853  1.3181
 5973TIP3   OH239553   1.467   3.250   8.676  0.5321 -0.2059 -0.3383
 5973TIP3    H139554   1.477   3.213   8.588  0.5059  0.9455 -0.8557
 5973TIP3    H239555   1.380   3.223   8.704 -0.0421  0.5793 -1.2785
 5974TIP3   OH239556   2.719   4.547   8.669  0.7829  0.3730  0.2497
 5974TIP3    H139557   2.703   4.589   8.584  0.7964  0.0498  0.0865
 5974TIP3    H239558   2.774   4.472   8.648 -0.4723 -0.5944  0.3458
 5975TIP3   OH239559   5.113   4.196   0.027 -0.0089 -0.2030  0.8293
 5975TIP3    H139560   5.105   4.174   0.119 -0.7697  0.7270  1.0000
 5975TIP3    H239561   5.199   4.238   0.019  0.5232 -1.2363  0.8919
 5976TIP3   OH239562   6.015   4.421   7.461 -0.0529  0.2864 -0.0294
 5976TIP3    H139563   5.974   4.335   7.472  1.4963 -0.4581  0.1102
 5976TIP3    H239564   6.108   4.403   7.453  0.2151  1.8918 -0.9631
 5977TIP3   OH239565   5.853   3.183   8.248 -0.1798 -0.2160  0.2618
 5977TIP3    H139566   5.838   3.131   8.328  2.0814 -1.3296  0.0528
 5977TIP3    H239567   5.941   3.219   8.259 -1.0462  2.2690 -0.3783
 5978TIP3   OH239568   4.044   5.780   0.117  0.1853 -0.3561  0.0174
 5978TIP3    H139569   3.952   5.806   0.122  0.1346 -0.4244 -0.5915
 5978TIP3    H239570   4.047   5.695   0.161 -0.2029 -0.7694 -0.7400
 5979TIP3   OH239571   4.576   1.078   8.671 -0.4416 -0.1395 -0.0901
 5979TIP3    H139572   4.660   1.096   8.714 -0.9682 -1.0368  1.3837
 5979TIP3    H239573   4.524   1.157   8.684  0.0574  0.3158 -0.7706
 5980TIP3   OH239574   6.249   3.188   0.256 -0.4898 -0.2860  0.3086
 5980TIP3    H139575   6.332   3.230   0.277 -0.8810  0.7718 -0.1671
 5980TIP3    H239576   6.187   3.224   0.319 -0.5658 -1.1737  0.7498
 5981TIP3   OH239577   5.950   1.601   0.793 -0.3986  0.1640  0.1815
 5981TIP3    H139578   5.928   1.604   0.886  0.1795 -0.8491  0.3699
 5981TIP3    H239579   5.936   1.691   0.762 -0.9138  0.4375  1.1648
 5982TIP3   OH239580   4.703   1.229   0.749  0.0636 -0.0650 -0.2834
 5982TIP3    H139581   4.713   1.307   0.694 -0.2109 -0.7039 -1.2557
 5982TIP3    H239582   4.780   1.176   0.730  0.5676  0.2265  0.8429
 5983TIP3   OH239583   4.726   6.385   6.894 -0.6423 -0.2891 -0.3547
 5983TIP3    H139584   4.815   6.359   6.871 -1.0361  0.0588 -2.4331
 5983TIP3    H239585   4.673   6.308   6.871 -1.1265  0.3039 -1.2732
 5984TIP3   OH239586   2.890   4.145   7.835  0.0272  0.1535  0.6086
 5984TIP3    H139587   2.803   4.173   7.863  0.8648  1.0049  2.6315
 5984TIP3    H239588   2.883   4.132   7.741 -1.2161  4.5204 -0.0936
 5985TIP3   OH239589   0.524   1.712   8.028 -0.0266 -0.3925 -0.1383
 5985TIP3    H139590   0.464   1.779   8.062 -0.2634  0.1605 -1.5663
 5985TIP3    H239591   0.470   1.658   7.970 -0.0210 -2.3567  1.5767
 5986TIP3   OH239592   0.503   4.815   1.082 -0.0214  0.3398  0.2803
 5986TIP3    H139593   0.415   4.837   1.051 -0.2062 -0.6273  0.0647
 5986TIP3    H239594   0.561   4.834   1.008  0.0797  1.7882  0.7090
 5987TIP3   OH239595   4.874   3.371   1.567  0.3735  0.0895 -0.3723
 5987TIP3    H139596   4.931   3.301   1.598 -1.1464 -1.5630 -1.1661
 5987TIP3    H239597   4.863   3.429   1.643  0.0313 -1.6389  0.9469
 5988TIP3   OH239598   4.217   4.969   8.296 -0.6383  0.1688  0.2187
 5988TIP3    H139599   4.223   4.903   8.365  1.8963 -0.0749 -0.1383
 5988TIP3    H239600   4.209   5.052   8.342  2.4889  0.1663  0.9985
 5989TIP3   OH239601   1.393   1.722   0.440 -0.1825  0.1765 -0.0920
 5989TIP3    H139602   1.312   1.762   0.471 -0.9757 -0.8235 -0.8297
 5989TIP3    H239603   1.372   1.630   0.427  1.0188 -0.0674 -0.5072
 5990TIP3   OH239604   3.036   3.986   8.347  0.2926  0.1964  0.7063
 5990TIP3    H139605   3.112   4.022   8.394 -0.3099 -0.4401  2.2312
 5990TIP3    H239606   3.003   4.060   8.295  0.0381  1.4496  2.5427
 5991TIP3   OH239607   3.862   3.437   2.534  0.3788 -0.1634  0.2343
 5991TIP3    H139608   3.774   3.443   2.569 -0.8551 -2.1970 -2.1835
 5991TIP3    H239609   3.902   3.363   2.579  0.1463 -0.4463 -0.0248
 5992TIP3   OH239610   4.942   5.861   0.656  0.8612 -0.5370  0.2638
 5992TIP3    H139611   4.980   5.928   0.599  0.1748  1.2110  1.7343
 5992TIP3    H239612   5.002   5.858   0.731 -0.4067  0.3235  1.3673
 5993TIP3   OH239613   1.388   5.316   8.348 -0.1408  0.4236  0.2448
 5993TIP3    H139614   1.456   5.282   8.406  0.7473  0.1503 -0.9119
 5993TIP3    H239615   1.395   5.263   8.268 -1.0115  1.0887 -0.3021
 5994TIP3   OH239616   6.678   1.928   8.404 -0.4519  0.2333 -0.8877
 5994TIP3    H139617   6.692   1.853   8.347  0.7474 -1.1652  1.1250
 5994TIP3    H239618   6.641   1.892   8.485 -2.9291  2.2440 -0.9865
 5995TIP3   OH239619   1.355   3.574   8.501  0.5506 -0.0889 -0.4274
 5995TIP3    H139620   1.340   3.644   8.564 -0.0922  0.4616 -1.1777
 5995TIP3    H239621   1.422   3.519   8.542  1.0529  0.9425  0.1787
 5996TIP3   OH239622   1.889   3.169   8.761 -0.3093 -0.3878  0.5024
 5996TIP3    H139623   1.870   3.260   8.785 -0.8982 -0.7277  1.3609
 5996TIP3    H239624   1.814   3.119   8.795 -0.0718 -1.1761 -0.1024
 5997TIP3   OH239625   2.405   1.185   8.347  0.2442  0.5879  0.2478
 5997TIP3    H139626   2.398   1.223   8.259  0.1277 -0.4430 -0.2070
 5997TIP3    H239627   2.463   1.244   8.394 -1.0071  2.0757  0.0037
 5998TIP3   OH239628   2.482   2.206   1.264  0.5094  0.0704  0.0270
 5998TIP3    H139629   2.466   2.298   1.283  0.6819  0.1405 -0.1650
 5998TIP3    H239630   2.468   2.198   1.169  2.2093  0.2612 -0.2548
 5999TIP3   OH239631   0.787   6.588   7.569 -0.1671 -0.8458 -0.2777
 5999TIP3    H139632   0.712   6.645   7.550  0.7291  1.3834  2.2336
 5999TIP3    H239633   0.760   6.536   7.644  1.2587  1.3599  1.9435
 6000TIP3   OH239634   1.853   0.736   0.504  0.2183 -0.3384  0.2759
 6000TIP3    H139635   1.856   0.821   0.461 -0.1992 -0.3499  0.2207
 6000TIP3    H239636   1.771   0.737   0.554 -0.4409 -1.1763 -0.7210
 6001TIP3   OH239637   3.291   4.877   1.344 -0.0711 -0.2928 -0.0838
 6001TIP3    H139638   3.309   4.909   1.255 -0.9200  0.3522 -0.0403
 6001TIP3    H239639   3.216   4.818   1.333 -0.8892  0.6351  0.3301
 6002TIP3   OH239640   6.528   6.414   7.305  0.1751  0.3836  0.1085
 6002TIP3    H139641   6.480   6.492   7.279 -0.0674  0.6769  1.3461
 6002TIP3    H239642   6.576   6.440   7.384 -2.1599 -1.4257  2.3247
 6003TIP3   OH239643   6.517   1.411   0.399 -0.7987 -0.1710  0.1811
 6003TIP3    H139644   6.431   1.451   0.410 -0.3011  0.1494  4.7950
 6003TIP3    H239645   6.514   1.331   0.452  1.6235 -0.3278  0.2076
 6004TIP3   OH239646   5.975   0.948   8.028 -0.2334  0.1532  0.0938
 6004TIP3    H139647   5.995   0.978   7.939 -2.2773  3.3580  0.5543
 6004TIP3    H239648   5.885   0.916   8.023 -0.7203  1.2964  1.1500
 6005TIP3   OH239649   6.418   0.373   7.465  0.1989  0.2529 -0.0784
 6005TIP3    H139650   6.473   0.379   7.387  0.9443  1.6567  0.5024
 6005TIP3    H239651   6.358   0.447   7.457  0.3018  0.4307  0.6666
 6006TIP3   OH239652   3.110   5.705   7.875  0.5700  0.1729  0.0107
 6006TIP3    H139653   3.054   5.780   7.857  1.1809  0.9209  1.0871
 6006TIP3    H239654   3.197   5.742   7.886  1.1965 -0.9069 -1.0959
 6007TIP3   OH239655   5.320   0.686   8.618 -0.5428  0.4233 -0.4128
 6007TIP3    H139656   5.250   0.621   8.626  0.1989 -0.3327  0.1232
 6007TIP3    H239657   5.364   0.684   8.702 -0.2404  1.3387 -0.5342
 6008TIP3   OH239658   3.610   0.632   8.312  0.3275  0.1444  0.2031
 6008TIP3    H139659   3.642   0.714   8.275 -1.4182  1.5821  1.7181
 6008TIP3    H239660   3.600   0.649   8.405 -0.0924 -1.8021  0.5589
 6009TIP3   OH239661   6.782   2.406   8.347 -0.2620 -0.0430  0.0694
 6009TIP3    H139662   6.838   2.333   8.319  0.5810  0.5896  0.0976
 6009TIP3    H239663   6.778   2.464   8.270  1.5820  1.4080  0.9948
 6010TIP3   OH239664   4.225   0.588   7.714 -0.3812  0.3557 -0.1795
 6010TIP3    H139665   4.319   0.595   7.697 -0.2960 -0.8550 -0.3233
 6010TIP3    H239666   4.192   0.535   7.641 -1.1614  0.7324 -0.0986
 6011TIP3   OH239667   1.447   5.358   1.159  0.2970  0.5743 -0.0952
 6011TIP3    H139668   1.476   5.273   1.126 -1.2701  0.6009 -1.6911
 6011TIP3    H239669   1.516   5.385   1.219  0.9238 -1.7330  0.3207
 6012TIP3   OH239670   5.589   0.786   7.478  0.8699 -0.3600  0.5543
 6012TIP3    H139671   5.549   0.733   7.547 -1.5729  1.6833  0.8296
 6012TIP3    H239672   5.528   0.779   7.404  2.0507 -0.3056 -0.4653
 6013TIP3   OH239673   1.594   6.595   6.977  0.1742  0.2336 -0.2543
 6013TIP3    H139674   1.689   6.598   6.991  0.1683  1.3904 -0.3684
 6013TIP3    H239675   1.558   6.620   7.062  0.0091  0.8838 -0.5064
 6014TIP3   OH239676   4.553   4.236   2.376 -0.4252 -0.0501 -0.1834
 6014TIP3    H139677   4.624   4.191   2.331 -0.0975 -1.4873  1.6537
 6014TIP3    H239678   4.491   4.260   2.307  1.1014 -0.1113 -1.6335
 6015TIP3   OH239679   5.746   3.037   0.148 -0.7273 -0.2102  0.5148
 6015TIP3    H139680   5.695   3.106   0.191 -0.9028 -0.3379  0.5151
 6015TIP3    H239681   5.710   3.034   0.059  0.9116  1.3648 -0.2621
 6016TIP3   OH239682   3.861   5.354   0.046  0.2893  0.2805  0.5069
 6016TIP3    H139683   3.818   5.325  -0.034  0.0270  0.1827  0.6850
 6016TIP3    H239684   3.862   5.278   0.103  1.1206  0.1452  0.3303
 6017TIP3   OH239685   5.281   3.425   8.798  0.0650 -0.0112  0.5651
 6017TIP3    H139686   5.199   3.457   8.760 -0.0514  0.2814  1.0632
 6017TIP3    H239687   5.282   3.459   8.887  0.0476 -1.2092  1.0388
 6018TIP3   OH239688   5.013   2.195   0.303  0.8627 -0.2070  0.1491
 6018TIP3    H139689   4.939   2.254   0.288  1.9858  1.1642 -0.2626
 6018TIP3    H239690   4.973   2.111   0.326 -0.8067  1.1533  2.6553
 6019TIP3   OH239691   4.256   1.672   1.025 -0.5756 -0.0683 -0.1023
 6019TIP3    H139692   4.321   1.742   1.027  0.3976 -0.9598  2.3481
 6019TIP3    H239693   4.300   1.598   0.983 -0.4201 -0.2792  0.4264
 6020TIP3   OH239694   2.461   4.866   2.456 -0.5054  0.3330  0.3422
 6020TIP3    H139695   2.515   4.818   2.393  0.5238  2.2089 -0.2955
 6020TIP3    H239696   2.485   4.830   2.541 -0.8518 -1.2507 -0.2137
 6021TIP3   OH239697   6.685   4.992   0.892  0.5118  0.2746  0.2316
 6021TIP3    H139698   6.662   4.914   0.943 -2.6732  1.8479  1.5332
 6021TIP3    H239699   6.730   5.050   0.953  0.4630  0.4985  0.0618
 6022TIP3   OH239700   6.347   0.326   0.559 -0.2303  0.0002  0.1904
 6022TIP3    H139701   6.254   0.321   0.584  0.0011  1.0757  1.3649
 6022TIP3    H239702   6.355   0.409   0.513 -0.3844 -1.3936 -2.5206
 6023TIP3   OH239703   4.197   4.528   8.646  0.0202  0.2803 -1.1208
 6023TIP3    H139704   4.126   4.510   8.584  0.1277 -1.3079 -0.8318
 6023TIP3    H239705   4.269   4.472   8.617 -0.1967 -1.1550  0.8755
 6024TIP3   OH239706   2.625   4.752   2.288  0.4506 -0.5495  0.5105
 6024TIP3    H139707   2.572   4.697   2.232 -1.4871  0.4492  1.2707
 6024TIP3    H239708   2.701   4.776   2.234 -0.6991 -0.6503 -1.2276
 6025TIP3   OH239709   3.799   3.899   1.997 -0.9143  0.7156 -0.6349
 6025TIP3    H139710   3.794   3.822   1.941  0.0971  0.0756  0.1285
 6025TIP3    H239711   3.807   3.864   2.086  1.2420  1.6577 -0.4054
 6026TIP3   OH239712   5.517   5.693   2.043 -0.6085 -0.4132  0.2190
 6026TIP3    H139713   5.526   5.630   2.115  0.4873 -1.7520 -1.0227
 6026TIP3    H239714   5.587   5.757   2.060 -0.5200 -0.5742  0.4833
 6027TIP3   OH239715   0.430   5.498   2.442  0.2845  0.7042  0.1933
 6027TIP3    H139716   0.517   5.520   2.408  0.5977 -0.2505  0.3645
 6027TIP3    H239717   0.393   5.583   2.469  0.8269  1.2170 -0.6485
 6028TIP3   OH239718   6.136   5.254   2.633 -0.3754 -0.3964 -0.3251
 6028TIP3    H139719   6.226   5.255   2.600  0.1740 -1.8795  1.0409
 6028TIP3    H239720   6.120   5.344   2.661  1.3719 -0.5015  1.1576
 6029TIP3   OH239721   1.492   6.088   0.503  0.1600  0.4532 -0.5933
 6029TIP3    H139722   1.469   6.025   0.571 -1.9695  0.4700 -1.2266
 6029TIP3    H239723   1.556   6.146   0.544  1.4885 -1.5336  0.2852
 6030TIP3   OH239724   4.646   2.755   1.175  0.0323  0.5658  0.1468
 6030TIP3    H139725   4.690   2.670   1.182 -2.7175 -0.8122  2.2897
 6030TIP3    H239726   4.658   2.795   1.261 -0.6730  1.3172 -0.0953
 6031TIP3   OH239727   4.202   2.508   6.725  0.2435  0.2067 -0.2305
 6031TIP3    H139728   4.153   2.436   6.686  0.0237 -0.0937  0.5946
 6031TIP3    H239729   4.235   2.557   6.649  0.0386 -0.5059 -0.7986
 6032TIP3   OH239730   2.698   2.005   1.842 -0.0572 -0.0923  0.4073
 6032TIP3    H139731   2.667   1.962   1.762  0.2746  0.4466 -0.0194
 6032TIP3    H239732   2.627   1.993   1.905 -2.4675  3.3951 -1.2965
 6033TIP3   OH239733   3.853   1.273   1.348  0.1783 -0.0734 -0.3625
 6033TIP3    H139734   3.784   1.266   1.282  0.3726 -1.7887 -0.4250
 6033TIP3    H239735   3.879   1.365   1.346 -1.1214  0.3028 -1.3325
 6034TIP3   OH239736   2.969   6.443   1.045  0.7326  0.0906 -0.7145
 6034TIP3    H139737   3.033   6.411   0.982 -0.3746 -1.4973 -1.1174
 6034TIP3    H239738   2.886   6.441   0.997  0.0941  0.2374  0.3593
 6035TIP3   OH239739   2.086   4.849   1.974 -0.3439  0.1279 -0.2272
 6035TIP3    H139740   2.124   4.889   2.052  1.7405  3.0722 -2.5044
 6035TIP3    H239741   1.996   4.827   1.999  0.8210 -1.1547  3.5461
 6036TIP3   OH239742   3.533   4.514   7.774 -0.4997  0.0979 -0.5360
 6036TIP3    H139743   3.506   4.441   7.719  0.5770 -1.2548  0.6354
 6036TIP3    H239744   3.614   4.484   7.815  1.7249  3.1133 -2.3014
 6037TIP3   OH239745   2.146   2.547   2.186 -0.0198  0.2874  0.0653
 6037TIP3    H139746   2.184   2.466   2.151 -1.0963 -0.2809  0.1605
 6037TIP3    H239747   2.154   2.538   2.281  1.2883  1.0220  0.0405
 6038TIP3   OH239748   1.438   6.088   1.320  0.5614  0.1215  0.1048
 6038TIP3    H139749   1.389   6.090   1.237  0.2641 -1.8902  0.1746
 6038TIP3    H239750   1.380   6.130   1.383 -0.3480 -0.6364 -0.1952
 6039TIP3   OH239751   2.710   2.838   8.710 -0.3523  0.4822 -0.2036
 6039TIP3    H139752   2.710   2.843   8.805  0.5712 -0.2132 -0.1548
 6039TIP3    H239753   2.664   2.757   8.689  1.1975 -0.4187 -0.2537
 6040TIP3   OH239754   0.966   1.539   1.472  0.9317 -0.2305  0.0562
 6040TIP3    H139755   0.934   1.524   1.383 -0.1251  0.4150  0.3003
 6040TIP3    H239756   0.895   1.509   1.528  2.2153 -2.1127  0.7617
 6041TIP3   OH239757   5.917   2.625   7.886 -0.5465  0.1784  0.7521
 6041TIP3    H139758   5.963   2.553   7.843  3.2593  1.4855  2.2554
 6041TIP3    H239759   5.855   2.583   7.944  1.4259 -1.9480  1.4477
 6042TIP3   OH239760   1.679   3.931   7.652 -0.2049 -0.2747 -0.0751
 6042TIP3    H139761   1.670   3.940   7.557  0.2852 -0.2601 -0.1215
 6042TIP3    H239762   1.747   3.993   7.676  1.4428 -1.9826 -0.0546
 6043TIP3   OH239763   5.353   4.306   8.799 -0.5649  0.0679 -0.0685
 6043TIP3    H139764   5.385   4.394   8.814 -2.5104  0.7993  0.0829
 6043TIP3    H239765   5.376   4.288   8.707  3.2155 -0.8545  0.8771
 6044TIP3   OH239766   4.931   2.204   0.599 -0.0242 -0.5128 -0.1532
 6044TIP3    H139767   4.862   2.182   0.536 -0.0247 -2.1603  0.3547
 6044TIP3    H239768   4.885   2.214   0.682  0.3163 -1.8713  0.2407
 6045TIP3   OH239769   6.478   5.331   1.638 -0.2968 -0.1176 -0.0965
 6045TIP3    H139770   6.545   5.398   1.652  1.2621 -1.7433  0.6238
 6045TIP3    H239771   6.524   5.259   1.595 -1.6900 -1.1010 -0.0092
 6046TIP3   OH239772   5.089   5.520   8.448 -0.7285 -0.4503  0.1364
 6046TIP3    H139773   5.165   5.528   8.391 -2.3021  1.1879 -1.8990
 6046TIP3    H239774   5.053   5.609   8.454 -2.9551 -1.2863  0.2846
 6047TIP3   OH239775   1.698   5.934   1.967 -0.5043 -0.1922 -0.0993
 6047TIP3    H139776   1.710   5.850   2.011  0.1679 -0.0384  0.0223
 6047TIP3    H239777   1.716   5.999   2.035 -0.1456  0.0459 -0.4193
 6048TIP3   OH239778   6.686   4.427   7.951 -0.1923 -0.0239 -0.3388
 6048TIP3    H139779   6.671   4.457   8.040 -0.4330 -2.8512  0.6689
 6048TIP3    H239780   6.782   4.424   7.942 -0.0027 -3.4712  1.3546
 6049TIP3   OH239781   5.551   5.416   6.651  0.1220  0.3320 -0.3115
 6049TIP3    H139782   5.621   5.481   6.650 -0.5984  1.1594  0.5742
 6049TIP3    H239783   5.582   5.349   6.713  0.3624  0.4275 -0.3259
 6050TIP3   OH239784   6.192   4.913   8.111 -0.4985  0.1056 -0.5529
 6050TIP3    H139785   6.208   4.819   8.110  1.2067  0.3309  0.9326
 6050TIP3    H239786   6.103   4.923   8.145  0.0670 -0.9207  1.3438
 6051TIP3   OH239787   2.744   3.997   1.624  0.2941  0.7444 -0.0971
 6051TIP3    H139788   2.816   3.946   1.659  0.6017  1.9211  1.0886
 6051TIP3    H239789   2.763   4.007   1.531  0.5521 -0.7197 -0.2130
 6052TIP3   OH239790   2.049   0.719   8.134 -0.0801  0.4203  0.4202
 6052TIP3    H139791   2.118   0.678   8.187  0.3416  0.2473 -0.2597
 6052TIP3    H239792   2.034   0.658   8.062 -0.0772  1.0417 -0.1138
 6053TIP3   OH239793   2.740   0.959   7.343  0.1769  0.6295 -0.7882
 6053TIP3    H139794   2.649   0.981   7.325  0.0293 -0.5808 -1.6336
 6053TIP3    H239795   2.788   1.040   7.323 -0.6280  1.0420 -1.0949
 6054TIP3   OH239796   6.172   1.612   2.367 -0.1870  0.2533 -0.4323
 6054TIP3    H139797   6.237   1.665   2.322  0.0111  0.5514  0.1935
 6054TIP3    H239798   6.138   1.553   2.300  1.5615 -0.7249 -0.5206
 6055TIP3   OH239799   5.090   4.015   1.228 -0.1573  0.2681  0.2957
 6055TIP3    H139800   5.059   3.926   1.241 -0.6046  0.5217  1.0144
 6055TIP3    H239801   5.101   4.023   1.133  0.1507 -0.6315  0.2451
 6056TIP3   OH239802   0.100   5.960   7.130  0.0268 -0.0803 -0.0858
 6056TIP3    H139803   0.151   5.899   7.077 -2.0218 -2.7928  0.8365
 6056TIP3    H239804   0.109   5.928   7.220 -2.1110  0.1492  0.2666
 6057TIP3   OH239805   2.088   4.979   1.134  0.3980  0.0059  0.5319
 6057TIP3    H139806   2.039   5.032   1.197  0.1362  1.2988 -0.6861
 6057TIP3    H239807   2.127   5.043   1.074  0.2887 -1.1527 -0.8501
 6058TIP3   OH239808   6.468   4.589   0.644 -0.6890 -0.4513 -0.0901
 6058TIP3    H139809   6.450   4.595   0.550 -0.4778 -0.2532 -0.1182
 6058TIP3    H239810   6.456   4.496   0.665  1.1326 -0.8503 -0.6903
 6059TIP3   OH239811   3.886   4.308   1.829  0.1881  0.0357 -0.1820
 6059TIP3    H139812   3.795   4.282   1.812  0.8402 -2.4200 -0.3899
 6059TIP3    H239813   3.895   4.301   1.924  0.2110  0.0086 -0.1859
 6060TIP3   OH239814   1.648   6.290   1.431 -0.2672  0.3081 -0.1380
 6060TIP3    H139815   1.605   6.211   1.398  1.4507 -0.8076  0.1758
 6060TIP3    H239816   1.607   6.305   1.517 -1.3978  0.4611 -0.6774
 6061TIP3   OH239817   4.756   1.413   1.406 -0.4182 -0.2714 -0.7289
 6061TIP3    H139818   4.753   1.401   1.501 -1.9967 -0.8329 -0.8297
 6061TIP3    H239819   4.844   1.447   1.390 -0.6973  1.5720  1.1264
 6062TIP3   OH239820   4.543   5.775   0.901  0.1931 -0.5223 -0.2144
 6062TIP3    H139821   4.596   5.784   0.821 -0.5555  2.6851 -0.4776
 6062TIP3    H239822   4.556   5.684   0.928  1.9752 -1.1945 -2.9239
 6063TIP3   OH239823   3.740   5.936   1.039  0.0473 -0.0331 -0.5027
 6063TIP3    H139824   3.835   5.938   1.044  0.0237 -0.9636  0.7673
 6063TIP3    H239825   3.716   6.020   0.999  1.2938  1.1009  1.0249
 6064TIP3   OH239826   1.077   3.962   0.699  0.2832  0.6090 -0.3382
 6064TIP3    H139827   0.986   3.983   0.677 -0.3581 -1.5215  0.0971
 6064TIP3    H239828   1.104   3.897   0.634  0.5929 -0.7389  1.0845
 6065TIP3   OH239829   1.888   4.385   1.676  0.2684  0.1343 -0.0846
 6065TIP3    H139830   1.951   4.419   1.613 -0.7624 -1.1027 -1.8682
 6065TIP3    H239831   1.805   4.427   1.653 -0.4114 -1.3679 -0.4824
 6066TIP3   OH239832   0.799   0.641   8.147 -0.8872  0.4256  0.0338
 6066TIP3    H139833   0.706   0.621   8.141 -1.3199  2.3101 -0.1698
 6066TIP3    H239834   0.812   0.672   8.237  0.3568 -3.2510  1.3093
 6067TIP3   OH239835   5.467   1.989   0.919  0.0510  0.7269 -0.4479
 6067TIP3    H139836   5.402   1.979   0.850  1.3806 -2.6921 -1.3998
 6067TIP3    H239837   5.541   2.033   0.877 -0.6768  2.4999  0.0259
 6068TIP3   OH239838   5.026   0.828   7.946  0.0395  0.2901 -0.1448
 6068TIP3    H139839   5.039   0.917   7.978  1.6928  0.3850 -0.9547
 6068TIP3    H239840   5.029   0.774   8.025 -0.1621  0.8814  0.2733
 6069TIP3   OH239841   4.125   5.724   7.403  0.1150 -0.0585  0.2344
 6069TIP3    H139842   4.173   5.798   7.366  0.4491 -0.7045 -0.6433
 6069TIP3    H239843   4.188   5.652   7.403 -0.3250 -0.4528  0.7131
 6070TIP3   OH239844   6.513   3.333   1.389 -0.2770 -0.1063 -0.8400
 6070TIP3    H139845   6.558   3.415   1.370  0.3390 -0.8572 -2.9190
 6070TIP3    H239846   6.429   3.340   1.343 -1.2182  0.2329  0.8561
 6071TIP3   OH239847   2.388   5.543   7.803  0.5447 -0.2706 -0.6943
 6071TIP3    H139848   2.473   5.581   7.825 -0.0908 -0.0980  1.7004
 6071TIP3    H239849   2.397   5.515   7.712  2.8202  0.6527 -0.8075
 6072TIP3   OH239850   3.560   1.992   0.503  0.0525  0.0962  0.2612
 6072TIP3    H139851   3.542   2.069   0.450  1.4476  0.9131  0.9248
 6072TIP3    H239852   3.653   1.998   0.524  0.0451 -1.4258  0.8798
 6073TIP3   OH239853   5.767   0.676   0.789  0.8416 -0.1097  0.5261
 6073TIP3    H139854   5.692   0.709   0.739  0.1519 -0.2111  1.4658
 6073TIP3    H239855   5.767   0.582   0.773  1.5791  0.0475 -0.5204
 6074TIP3   OH239856   3.503   6.330   7.101  0.7177 -0.0004 -0.2775
 6074TIP3    H139857   3.493   6.391   7.174 -0.7140 -0.8804  0.3105
 6074TIP3    H239858   3.421   6.336   7.053  0.6206 -1.3171 -0.3104
 6075TIP3   OH239859   4.003   5.444   7.261 -0.0779 -0.0384 -0.0513
 6075TIP3    H139860   4.013   5.535   7.232  1.4920 -0.6588 -1.6210
 6075TIP3    H239861   4.070   5.432   7.328  1.7032 -0.7582 -1.8504
 6076TIP3   OH239862   2.711   1.515   7.573  0.0838 -0.4414  0.1262
 6076TIP3    H139863   2.642   1.580   7.579  0.5063 -0.0415  0.8659
 6076TIP3    H239864   2.686   1.459   7.500  0.3859  1.3494 -1.4188
 6077TIP3   OH239865   2.928   0.091   8.213 -0.3900  0.1641  0.8459
 6077TIP3    H139866   2.966   0.063   8.296 -1.4074 -0.7692  1.0257
 6077TIP3    H239867   2.834   0.085   8.227 -0.5873 -0.9510 -0.6605
 6078TIP3   OH239868   0.429   0.515   8.439 -0.4640  0.1873 -0.1255
 6078TIP3    H139869   0.405   0.573   8.367  0.8077 -0.2227 -0.9110
 6078TIP3    H239870   0.392   0.430   8.414 -1.1687  0.3369  0.3712
 6079TIP3   OH239871   4.019   6.268   2.329  0.3457 -0.4669 -0.4564
 6079TIP3    H139872   3.956   6.202   2.358  1.3287 -1.7174 -1.0581
 6079TIP3    H239873   3.999   6.345   2.381 -2.0369 -0.6320 -1.0191
 6080TIP3   OH239874   6.639   6.519   2.481 -0.0198 -0.1570 -1.1264
 6080TIP3    H139875   6.725   6.514   2.524 -0.0766  0.3611 -0.9488
 6080TIP3    H239876   6.578   6.487   2.547 -0.1019  0.5970 -0.8364
 6081TIP3   OH239877   0.885   1.756   0.042  0.1436  0.1368 -0.8151
 6081TIP3    H139878   0.965   1.709   0.021  0.1180 -0.9683  1.3864
 6081TIP3    H239879   0.822   1.688   0.065 -0.1780  1.1223  1.4933
 6082TIP3   OH239880   5.834   4.026   8.605 -0.4249  0.6892 -0.2699
 6082TIP3    H139881   5.765   4.053   8.665 -0.3520  0.3561 -0.0353
 6082TIP3    H239882   5.804   4.056   8.519  0.1341  2.4636  0.1036
 6083TIP3   OH239883   0.194   1.339   8.245 -0.3722 -0.1593  0.0812
 6083TIP3    H139884   0.224   1.426   8.270 -2.0441  0.6352 -0.4880
 6083TIP3    H239885   0.099   1.343   8.257 -0.7751 -1.0909 -2.3070
 6084TIP3   OH239886   3.403   2.554   6.982  0.0467 -0.2382  0.0760
 6084TIP3    H139887   3.373   2.464   7.000 -1.9499  0.6042  1.2947
 6084TIP3    H239888   3.454   2.578   7.059 -1.1334  0.3266  0.7185
 6085TIP3   OH239889   6.116   3.529   6.718  0.1846 -0.3555 -0.1595
 6085TIP3    H139890   6.093   3.575   6.799  0.6619  0.9715 -0.7466
 6085TIP3    H239891   6.115   3.597   6.651  0.2746 -1.3423 -1.1869
 6086TIP3   OH239892   1.653   4.455   1.537 -0.5477  0.5840  0.2103
 6086TIP3    H139893   1.635   4.506   1.459  0.0973  0.2839 -0.1426
 6086TIP3    H239894   1.611   4.370   1.521  0.3626  0.1992 -0.2232
 6087TIP3   OH239895   6.001   1.319   1.397 -0.4453 -0.0349 -0.4908
 6087TIP3    H139896   6.092   1.325   1.368 -0.1042 -2.1799  0.0069
 6087TIP3    H239897   5.962   1.250   1.344 -1.4903  0.1138  0.0440
 6088TIP3   OH239898   6.664   6.604   8.107 -0.5825 -0.5174  0.2717
 6088TIP3    H139899   6.754   6.598   8.140 -0.8913  0.4954  1.3729
 6088TIP3    H239900   6.662   6.685   8.056 -0.8427 -0.6001  0.1477
 6089TIP3   OH239901   4.203   0.421   7.474 -0.4120  0.5486 -0.5639
 6089TIP3    H139902   4.267   0.462   7.415 -0.3384  0.0447 -0.8401
 6089TIP3    H239903   4.163   0.351   7.422  0.4301 -0.6264  0.2980
 6090TIP3   OH239904   3.929   1.017   8.467 -0.2727 -0.1611 -0.0418
 6090TIP3    H139905   3.962   0.946   8.522 -1.5836  0.7950  2.1337
 6090TIP3    H239906   3.990   1.089   8.481  0.3874 -0.4347 -1.3139
 6091TIP3   OH239907   3.962   3.641   7.778  0.1701  0.1195  0.0030
 6091TIP3    H139908   4.004   3.560   7.807  2.3621  0.3609 -2.1537
 6091TIP3    H239909   3.902   3.614   7.709  2.0291  0.3558 -1.8121
 6092TIP3   OH239910   3.930   6.112   1.730  0.4560 -0.0465  0.2276
 6092TIP3    H139911   3.953   6.041   1.669  0.7809 -0.3178  0.6654
 6092TIP3    H239912   3.929   6.070   1.816  1.0172  0.5650  0.5382
 6093TIP3   OH239913   1.445   2.932   0.316 -0.0748  0.3495 -0.2165
 6093TIP3    H139914   1.371   2.956   0.371 -0.0902  0.2250 -0.1840
 6093TIP3    H239915   1.409   2.875   0.249  0.3606 -1.5818  1.1072
 6094TIP3   OH239916   0.955   6.437   8.469 -0.3138  0.6138 -0.0323
 6094TIP3    H139917   0.993   6.522   8.488  2.5422 -0.3886 -0.8134
 6094TIP3    H239918   0.949   6.394   8.554  1.5031  0.3599 -0.0091
 6095TIP3   OH239919   5.204   5.058   2.365 -0.1843  0.7917 -0.3384
 6095TIP3    H139920   5.199   5.068   2.461 -0.8130  1.1516 -0.4014
 6095TIP3    H239921   5.180   4.967   2.350  0.9937  0.4273 -0.0821
 6096TIP3   OH239922   4.427   5.836   8.268 -0.0934  0.1130 -0.9444
 6096TIP3    H139923   4.431   5.876   8.355  0.5520 -0.3613 -0.7423
 6096TIP3    H239924   4.354   5.880   8.224 -0.8278 -0.0725  0.0513
 6097TIP3   OH239925   1.031   5.648   7.335 -0.5273 -0.2861 -0.4486
 6097TIP3    H139926   0.960   5.703   7.302 -2.6929 -3.1565 -1.0319
 6097TIP3    H239927   1.028   5.659   7.430 -0.9236  0.5967 -0.5565
 6098TIP3   OH239928   5.457   1.336   7.639  0.2968  0.1656 -0.3803
 6098TIP3    H139929   5.399   1.406   7.611  0.5087  0.8732  0.8785
 6098TIP3    H239930   5.545   1.367   7.614  0.3490  0.1492 -0.2160
 6099TIP3   OH239931   5.778   2.240   1.004  0.5659 -0.3241  0.4216
 6099TIP3    H139932   5.703   2.187   1.030  0.0756 -0.0854 -0.4423
 6099TIP3    H239933   5.853   2.199   1.048  0.0752 -1.1891  0.4815
 6100TIP3   OH239934   6.747   5.647   8.037  0.0872  0.2306  0.4504
 6100TIP3    H139935   6.660   5.614   8.012 -0.2379  1.4584 -0.1145
 6100TIP3    H239936   6.797   5.646   7.956  1.1809 -2.0844  1.0910
 6101TIP3   OH239937   1.017   5.924   7.919  0.2261 -0.6382  0.3974
 6101TIP3    H139938   1.073   5.909   7.843  0.6496  0.7307  0.4156
 6101TIP3    H239939   1.069   5.983   7.975 -0.6257 -0.5585  1.1175
 6102TIP3   OH239940   3.731   2.466   7.821 -0.0088 -0.4570 -0.3839
 6102TIP3    H139941   3.663   2.403   7.842  1.0450 -1.2908  0.6785
 6102TIP3    H239942   3.771   2.433   7.740 -0.0568 -0.6586 -0.3250
 6103TIP3   OH239943   4.476   5.880   6.782  0.3084 -0.6384  0.0798
 6103TIP3    H139944   4.399   5.836   6.746  0.2378  1.3122 -2.5082
 6103TIP3    H239945   4.518   5.815   6.838 -0.3251 -3.6171 -2.6391
 6104TIP3   OH239946   2.887   3.675   8.073 -0.0625  0.1125  0.0068
 6104TIP3    H139947   2.903   3.598   8.019 -0.0432  1.2289 -1.6534
 6104TIP3    H239948   2.801   3.661   8.112  0.0855 -0.8802 -0.0076
 6105TIP3   OH239949   2.050   0.069   2.765  0.4588  0.1005 -0.2621
 6105TIP3    H139950   2.004  -0.012   2.787  0.3621 -0.2400 -1.6260
 6105TIP3    H239951   2.142   0.050   2.781  0.5133 -0.5391 -1.2752
 6106TIP3   OH239952   0.003   6.192   1.721 -0.1482  0.1235  0.3165
 6106TIP3    H139953  -0.048   6.253   1.774 -2.7343 -2.0060  0.5071
 6106TIP3    H239954   0.086   6.236   1.706 -0.9472  2.6014  2.4894
 6107TIP3   OH239955   5.922   1.087   2.252  0.1885  0.0239  0.0428
 6107TIP3    H139956   5.962   1.028   2.316  0.7892 -1.1930 -1.4057
 6107TIP3    H239957   5.942   1.175   2.284  1.8249 -0.5571  0.6930
 6108TIP3   OH239958   0.874   1.387   8.775  0.1722 -0.1632  0.0413
 6108TIP3    H139959   0.802   1.327   8.794  1.3284 -1.7084 -0.1855
 6108TIP3    H239960   0.833   1.473   8.766 -1.8207 -1.1946 -1.4302
 6109TIP3   OH239961   1.175   2.090   0.569 -0.5395  0.7246 -0.4581
 6109TIP3    H139962   1.167   2.184   0.554  1.8117  0.8075 -1.7433
 6109TIP3    H239963   1.162   2.050   0.483  0.2486  0.0536 -0.2805
 6110TIP3   OH239964   0.023   5.609   7.789 -0.0324  0.0816  0.0430
 6110TIP3    H139965  -0.029   5.535   7.758 -3.2166  2.0947  0.1027
 6110TIP3    H239966   0.089   5.623   7.721  1.1333 -3.1311  0.3724
 6111TIP3   OH239967   4.925   3.537   2.565  0.1866 -0.1570 -0.2599
 6111TIP3    H139968   4.929   3.445   2.589  0.1425 -0.1925 -0.3910
 6111TIP3    H239969   4.831   3.557   2.562  0.0823 -0.7366 -2.6581
 6112TIP3   OH239970   5.996   3.956   1.503 -0.0998 -0.4189  0.1028
 6112TIP3    H139971   6.088   3.981   1.500 -0.3023  0.4075  0.4537
 6112TIP3    H239972   5.963   3.978   1.415  0.6186 -3.1881 -0.9609
 6113TIP3   OH239973   6.563   2.852   0.693 -0.4509  0.0110 -0.0200
 6113TIP3    H139974   6.584   2.915   0.762 -1.4792 -1.6119  1.8599
 6113TIP3    H239975   6.642   2.799   0.683 -0.8135 -0.7882  1.1309
 6114TIP3   OH239976   6.286   3.340   2.452 -0.9102  0.3406 -0.4874
 6114TIP3    H139977   6.328   3.371   2.372  2.4548  1.8623  1.6405
 6114TIP3    H239978   6.219   3.406   2.471 -2.5574 -0.6550 -2.5472
 6115TIP3   OH239979   3.933   1.726   7.271  0.1462 -0.1307 -0.4552
 6115TIP3    H139980   3.922   1.632   7.288 -3.1632  0.1078 -0.6259
 6115TIP3    H239981   3.877   1.742   7.195 -0.8241  2.2759  0.6821
 6116TIP3   OH239982   1.815   5.851   8.734  0.0513 -0.2533  0.4600
 6116TIP3    H139983   1.886   5.872   8.796  0.3151  0.2880 -0.0236
 6116TIP3    H239984   1.739   5.898   8.768  0.1692 -0.0431  0.4358
 6117TIP3   OH239985   5.732   3.164   7.514  0.4095  0.3521  0.4521
 6117TIP3    H139986   5.814   3.193   7.474  0.7584  2.9556  2.7696
 6117TIP3    H239987   5.672   3.153   7.440  1.7724  2.1465 -1.0194
 6118TIP3   OH239988   5.066   5.327   7.942  0.2973  0.6753 -0.6669
 6118TIP3    H139989   5.068   5.326   8.037  1.6154 -2.0691 -0.6292
 6118TIP3    H239990   5.152   5.361   7.916  0.3712  0.3604 -0.8442
 6119TIP3   OH239991   1.109   5.388   1.953  0.5123 -0.7524 -0.1124
 6119TIP3    H139992   1.054   5.458   1.919  0.5612 -1.0553 -0.8252
 6119TIP3    H239993   1.047   5.324   1.988  0.3941 -1.2441 -1.2086
 6120TIP3   OH239994   5.321   0.029   8.780 -0.1189 -0.3107 -0.1831
 6120TIP3    H139995   5.247   0.078   8.816  0.0798 -0.5407  0.5514
 6120TIP3    H239996   5.306  -0.061   8.808  0.5714 -0.3142  0.1848
 6121TIP3   OH239997   1.948   0.744   8.634 -0.1463 -0.1405  0.4085
 6121TIP3    H139998   1.907   0.735   8.720  1.5498 -0.0076  1.2678
 6121TIP3    H239999   1.956   0.839   8.621  0.1333 -0.1657  0.3852
 6122TIP3   OH240000   1.139   6.333   0.893  0.2845 -0.2425 -0.4563
 6122TIP3    H140001   1.206   6.265   0.885 -0.5262 -1.1223  0.0173
 6122TIP3    H240002   1.075   6.312   0.825 -0.8699 -1.0374  0.8224
 6123TIP3   OH240003   1.674   1.322   7.606  0.5152 -0.0648  0.9950
 6123TIP3    H140004   1.644   1.279   7.526  0.7773  0.1063  0.8020
 6123TIP3    H240005   1.718   1.254   7.656 -2.6071 -1.0734  2.6183
 6124TIP3   OH240006   2.258   0.157   7.952  0.3055  0.3850 -0.0734
 6124TIP3    H140007   2.242   0.236   8.004 -1.9042  1.0773 -1.6332
 6124TIP3    H240008   2.270   0.189   7.863  0.6499 -0.9642 -0.5335
 6125TIP3   OH240009   2.044   3.192   7.161 -0.4685 -0.2547  0.2410
 6125TIP3    H140010   2.082   3.106   7.148  0.2965  0.2712 -1.2104
 6125TIP3    H240011   2.102   3.235   7.224 -0.1798 -0.3900  0.0684
 6126TIP3   OH240012   3.569   2.479   1.848  0.3669  0.0626 -0.1848
 6126TIP3    H140013   3.624   2.457   1.923 -0.5031  0.4400  0.5946
 6126TIP3    H240014   3.527   2.561   1.873 -2.5059 -1.4523  0.4048
 6127TIP3   OH240015   2.821   4.104   0.254 -0.3148  0.0421  0.0846
 6127TIP3    H140016   2.810   4.066   0.167  0.2146  0.8637 -0.3497
 6127TIP3    H240017   2.778   4.189   0.248 -0.3111  0.0856  0.6428
 6128TIP3   OH240018   4.371   2.405   3.005  0.0431 -0.0086 -0.3826
 6128TIP3    H140019   4.452   2.361   2.981  0.3643  0.1263  0.4160
 6128TIP3    H240020   4.399   2.482   3.055 -0.5827 -0.5482  0.8696
 6129TIP3   OH240021   1.143   3.129   8.063 -0.5828  0.0437 -0.0304
 6129TIP3    H140022   1.189   3.205   8.097 -0.2844 -0.4267  0.6371
 6129TIP3    H240023   1.122   3.077   8.140 -2.8231  0.5524 -0.2269
 6130TIP3   OH240024   2.283   2.400   1.950 -0.1731 -0.1059  0.0052
 6130TIP3    H140025   2.199   2.378   1.909  0.3254  0.1767 -1.2166
 6130TIP3    H240026   2.325   2.315   1.967 -0.5660 -0.2374  0.3277
 6131TIP3   OH240027   1.033   3.200   1.888 -0.0101  0.0058  0.0312
 6131TIP3    H140028   0.989   3.261   1.828  1.9630  0.5286 -0.9801
 6131TIP3    H240029   0.963   3.142   1.917 -1.6736  1.7674 -0.1856
 6132TIP3   OH240030   3.094   2.151   0.949  0.5719  1.3092 -0.5012
 6132TIP3    H140031   3.185   2.132   0.928  0.8319  2.1205 -0.1285
 6132TIP3    H240032   3.050   2.156   0.864  0.7197  0.2261 -0.6574
 6133TIP3   OH240033   3.682   6.129   1.376 -0.1577 -0.4287  0.1192
 6133TIP3    H140034   3.604   6.083   1.346  0.0079  0.3423 -1.6621
 6133TIP3    H240035   3.661   6.158   1.465 -1.6538 -0.7656 -0.1057
 6134TIP3   OH240036   1.710   1.224   0.580 -0.1984 -0.4977  0.0803
 6134TIP3    H140037   1.652   1.159   0.541  0.6900 -1.3302  0.1051
 6134TIP3    H240038   1.658   1.264   0.650 -1.0263 -0.6130 -0.4560
 6135TIP3   OH240039   0.616   2.111   8.456 -0.6859  0.4109  0.4555
 6135TIP3    H140040   0.680   2.112   8.384 -0.5523  2.9740  0.5162
 6135TIP3    H240041   0.660   2.061   8.525  1.4098  2.2474  0.5616
 6136TIP3   OH240042   2.865   1.504   8.521  0.5773 -0.4529 -0.3860
 6136TIP3    H140043   2.911   1.512   8.437 -0.5164  1.0211 -0.8879
 6136TIP3    H240044   2.892   1.581   8.571 -1.4981  0.6175 -0.8069
 6137TIP3   OH240045   6.364   5.578   8.352 -0.6528 -0.7062  0.0923
 6137TIP3    H140046   6.447   5.535   8.372 -0.4153 -1.0063 -1.3736
 6137TIP3    H240047   6.358   5.650   8.414  0.8827 -0.4643 -0.0126
 6138TIP3   OH240048   5.348   4.578   7.199 -0.5701  0.2036  0.0910
 6138TIP3    H140049   5.426   4.527   7.219  0.2308  1.5858  0.6645
 6138TIP3    H240050   5.377   4.641   7.132 -1.5357 -0.0935 -0.6330
 6139TIP3   OH240051   0.840   2.997   1.559  0.4640  0.1637 -0.2492
 6139TIP3    H140052   0.827   3.084   1.595  0.8973  0.3350 -0.4954
 6139TIP3    H240053   0.927   2.971   1.591 -0.6821 -1.2458  1.9986
 6140TIP3   OH240054   6.765   5.392   7.649 -0.1735 -0.5064  0.7509
 6140TIP3    H140055   6.828   5.332   7.608 -0.3866 -0.3192  0.1445
 6140TIP3    H240056   6.748   5.354   7.735  0.9339 -0.4464  1.0114
 6141TIP3   OH240057   1.933   3.590   1.801  0.2795 -0.6083 -0.2144
 6141TIP3    H140058   1.845   3.566   1.832  0.5211 -1.1032  0.1117
 6141TIP3    H240059   1.981   3.507   1.803  0.2779 -0.6913 -2.0521
 6142TIP3   OH240060   0.971   5.879   1.148  0.2126 -0.3261 -0.2933
 6142TIP3    H140061   0.982   5.913   1.059  1.6774  3.1605  1.0244
 6142TIP3    H240062   1.059   5.851   1.174  1.0310  3.2461  1.5040
 6143TIP3   OH240063   5.017   3.267   0.040 -0.3937  0.1396 -0.3039
 6143TIP3    H140064   5.003   3.260   0.134 -1.2994  2.2614 -0.2238
 6143TIP3    H240065   5.109   3.292   0.031  0.7254 -3.3985 -0.2557
 6144TIP3   OH240066   3.130   6.736   7.377 -0.4866  0.1045 -0.1691
 6144TIP3    H140067   3.186   6.660   7.360 -1.0409 -0.1322 -1.0174
 6144TIP3    H240068   3.095   6.720   7.464  2.6323  1.4672  1.4780
 6145TIP3   OH240069   3.456   3.498   1.069  0.5508  0.3843 -0.1004
 6145TIP3    H140070   3.486   3.579   1.111  1.4187 -0.6691  1.4439
 6145TIP3    H240071   3.373   3.479   1.112  0.3202  0.4658 -0.5035
 6146TIP3   OH240072   3.903   0.785   1.847 -0.2804 -0.0911 -0.3855
 6146TIP3    H140073   3.936   0.703   1.886 -0.1379 -0.3945 -1.1376
 6146TIP3    H240074   3.900   0.846   1.921 -0.3492 -0.7591  0.1812
 6147TIP3   OH240075   0.137   0.106   1.974 -0.0213 -0.5504  1.1279
 6147TIP3    H140076   0.111   0.123   1.883 -0.4696 -0.7998  1.2058
 6147TIP3    H240077   0.147   0.193   2.012  2.8835 -0.3349  0.1170
 6148TIP3   OH240078   3.996   0.027   2.473  0.4808 -0.4501  0.0153
 6148TIP3    H140079   4.003   0.103   2.415  0.4539 -0.4870 -0.0364
 6148TIP3    H240080   4.086  -0.003   2.485  0.5485 -0.0870  0.4679
 6149TIP3   OH240081   0.482   5.755   8.292  0.7939  0.3295 -0.2677
 6149TIP3    H140082   0.413   5.700   8.256 -0.5657  0.6436  1.7133
 6149TIP3    H240083   0.518   5.703   8.365  1.1380  1.0845  0.1101
 6150TIP3   OH240084   5.582   0.516   1.222  0.2578  0.4417 -0.6240
 6150TIP3    H140085   5.557   0.548   1.136  0.9582  1.5342 -0.4409
 6150TIP3    H240086   5.598   0.596   1.273 -1.4583 -0.1385  0.9229
 6151TIP3   OH240087   6.152   0.109   0.400  0.0699 -0.0656 -0.6429
 6151TIP3    H140088   6.176   0.019   0.423 -0.8541 -0.4601 -1.1727
 6151TIP3    H240089   6.080   0.132   0.459  1.0387  0.7571  0.2658
 6152TIP3   OH240090   3.127   6.387   2.711 -0.4212 -0.0616  0.0501
 6152TIP3    H140091   3.205   6.335   2.730 -1.3171 -1.5668 -0.2237
 6152TIP3    H240092   3.152   6.476   2.733  1.3089 -0.5313  0.1658
 6153TIP3   OH240093   0.429   1.311   7.044 -0.1433  0.2641  0.4361
 6153TIP3    H140094   0.381   1.392   7.064 -0.3609  0.4550 -0.7894
 6153TIP3    H240095   0.361   1.249   7.019  0.1844  0.3619 -0.7432
 6154TIP3   OH240096   2.109   6.257   8.209 -0.0590 -0.0710 -0.0412
 6154TIP3    H140097   2.149   6.171   8.192  0.6533  0.3100 -0.3383
 6154TIP3    H240098   2.145   6.314   8.141  0.9093  0.8991  1.2382
 6155TIP3   OH240099   2.484   2.813   8.190  0.7110  0.1587 -0.2766
 6155TIP3    H140100   2.473   2.729   8.146  1.7103  0.2171 -0.6510
 6155TIP3    H240101   2.427   2.807   8.267  0.3940 -0.6641 -0.5649
 6156TIP3   OH240102   4.068   3.041   1.617 -0.0243  0.0876  0.1319
 6156TIP3    H140103   4.057   2.986   1.694 -1.6387  0.8464  0.4859
 6156TIP3    H240104   4.027   2.992   1.546 -0.1473  0.1769  0.1403
 6157TIP3   OH240105   6.361   2.243   3.077 -0.3539  0.0885 -0.3068
 6157TIP3    H140106   6.430   2.309   3.079  0.7629 -1.0362  1.7562
 6157TIP3    H240107   6.398   2.169   3.125 -2.3582 -1.2292 -0.6943
 6158TIP3   OH240108   1.661   5.708   6.792  0.2986  0.2268  0.0343
 6158TIP3    H140109   1.668   5.802   6.778  0.1817  0.5277  1.7491
 6158TIP3    H240110   1.606   5.676   6.721  0.6037  1.3961 -0.7448
 6159TIP3   OH240111   4.579   1.464   1.968 -0.0955 -0.1974 -0.2639
 6159TIP3    H140112   4.665   1.425   1.984 -0.1430 -0.3762 -0.4382
 6159TIP3    H240113   4.520   1.418   2.028  0.2261  1.1320  1.1379
 6160TIP3   OH240114   5.243   0.955   7.824 -0.4368 -0.5251 -0.3413
 6160TIP3    H140115   5.183   1.014   7.779 -0.9301  1.1530  2.2989
 6160TIP3    H240116   5.186   0.897   7.874  0.0946 -0.8605 -0.1183
 6161TIP3   OH240117   2.448   0.939   1.355  0.0440  0.2758 -0.4818
 6161TIP3    H140118   2.478   0.935   1.265  1.0708 -1.5009 -0.1187
 6161TIP3    H240119   2.527   0.925   1.407 -0.8596 -1.0353  0.6098
 6162TIP3   OH240120   2.654   3.466   0.038  0.5346 -0.2275 -0.1870
 6162TIP3    H140121   2.703   3.397   0.083 -0.2290 -0.9339 -0.4130
 6162TIP3    H240122   2.721   3.515  -0.011  0.8943 -1.9811 -1.5412
 6163TIP3   OH240123   0.915   0.693   0.528 -0.8531  0.6739 -0.0070
 6163TIP3    H140124   0.996   0.745   0.528  0.6093 -1.4591 -1.3202
 6163TIP3    H240125   0.901   0.670   0.620  0.3614  0.6207  0.1831
 6164TIP3   OH240126   3.949   6.124   1.419  0.0278 -0.5897 -0.0956
 6164TIP3    H140127   3.858   6.112   1.393 -0.1349  1.0881 -0.4104
 6164TIP3    H240128   3.959   6.219   1.430  1.8737 -0.6822 -0.5942
 6165TIP3   OH240129   6.426   0.218   2.173  0.4280 -0.2808 -0.6424
 6165TIP3    H140130   6.375   0.149   2.215  2.6799 -0.5961  1.8855
 6165TIP3    H240131   6.446   0.184   2.086  0.1040 -2.1309 -0.0360
 6166TIP3   OH240132   3.360   0.295   8.208  0.5494  0.4341 -0.1768
 6166TIP3    H140133   3.272   0.284   8.170  0.8483 -0.9227 -0.5296
 6166TIP3    H240134   3.358   0.382   8.248 -0.4712  1.0504 -1.4695
 6167TIP3   OH240135   5.738   1.412   1.413  0.1399  0.2582 -0.0793
 6167TIP3    H140136   5.740   1.500   1.376 -0.9375  0.0924 -0.5584
 6167TIP3    H240137   5.830   1.387   1.420  0.4103  0.5791 -1.9915
 6168TIP3   OH240138   2.325   5.262   0.796 -0.3551 -0.3537  0.5285
 6168TIP3    H140139   2.280   5.337   0.758 -1.9009 -1.8655 -0.8362
 6168TIP3    H240140   2.370   5.297   0.872 -1.5003  1.8315  0.2895
 6169TIP3   OH240141   2.514   2.173   2.491 -0.5524  0.9517  0.5268
 6169TIP3    H140142   2.487   2.256   2.453  1.7922  1.4481 -0.1927
 6169TIP3    H240143   2.609   2.174   2.486 -0.4187 -1.3233  1.4988
 6170TIP3   OH240144   2.501   3.559   1.310  0.1771 -0.1713 -0.3447
 6170TIP3    H140145   2.517   3.465   1.302 -0.3866 -0.1126 -4.0122
 6170TIP3    H240146   2.587   3.598   1.325  0.9669 -1.0869 -2.2618
 6171TIP3   OH240147   4.572   0.834   8.555  0.2365 -0.4860 -0.4449
 6171TIP3    H140148   4.580   0.928   8.572 -1.0643 -0.6110  1.1746
 6171TIP3    H240149   4.660   0.807   8.527  1.6760  0.5671  2.6093
 6172TIP3   OH240150   1.870   3.443   7.971 -0.1364  0.1877 -0.7504
 6172TIP3    H140151   1.780   3.451   7.938  0.0218  1.8978 -0.8556
 6172TIP3    H240152   1.922   3.419   7.893 -0.2508  0.9855 -1.0840
 6173TIP3   OH240153   3.556   0.814   1.367  0.0394 -0.0408 -0.3026
 6173TIP3    H140154   3.489   0.866   1.410 -0.5314  0.7099 -2.0151
 6173TIP3    H240155   3.512   0.732   1.344  0.2709 -0.3387  0.3082
 6174TIP3   OH240156   6.707   0.097   1.385 -0.3649  0.1061  0.1077
 6174TIP3    H140157   6.711   0.040   1.309  0.4927 -0.6204  0.6733
 6174TIP3    H240158   6.628   0.069   1.433  0.6261 -1.3835  0.9462
 6175TIP3   OH240159   3.206   1.033   2.275  0.0346 -0.5943  1.2823
 6175TIP3    H140160   3.277   1.046   2.338 -0.2575  0.3684  1.4274
 6175TIP3    H240161   3.145   0.973   2.319 -0.2540  0.2060  1.9940
 6176TIP3   OH240162   2.127   1.612   8.227  0.4500 -0.8059  0.5591
 6176TIP3    H140163   2.110   1.574   8.313  0.3125 -2.2476 -0.0739
 6176TIP3    H240164   2.079   1.556   8.166  1.6571 -0.6440 -0.5841
 6177TIP3   OH240165   1.733   4.387   8.249  0.3776  0.2357  0.0288
 6177TIP3    H140166   1.642   4.362   8.264 -0.0348  1.9589  0.6723
 6177TIP3    H240167   1.736   4.412   8.157  0.7038 -1.6669 -0.5184
 6178TIP3   OH240168   0.666   4.418   8.188  0.2684 -0.1419 -0.1415
 6178TIP3    H140169   0.611   4.347   8.222  0.5410 -0.3520 -0.1346
 6178TIP3    H240170   0.640   4.494   8.240  0.7270 -0.4752  0.6029
 6179TIP3   OH240171   0.119   2.202   0.858  0.6532 -0.0603  0.4072
 6179TIP3    H140172   0.053   2.135   0.841 -0.3819  1.0339 -0.0368
 6179TIP3    H240173   0.114   2.261   0.783  2.1502  0.0640  0.3700
 6180TIP3   OH240174   3.124   6.432   0.069  0.5197 -0.2910  0.2847
 6180TIP3    H140175   3.217   6.454   0.072  0.6807 -0.8655 -0.3272
 6180TIP3    H240176   3.082   6.511   0.034  0.9406 -0.4972 -0.7116
 6181TIP3   OH240177   1.647   0.517   1.197  0.2338  0.4238 -0.7807
 6181TIP3    H140178   1.566   0.467   1.209  0.3784 -0.2966 -2.5384
 6181TIP3    H240179   1.637   0.592   1.256 -1.6507  0.2742 -0.8379
 6182TIP3   OH240180   2.226   1.846   3.085  0.3188  0.0477 -0.2327
 6182TIP3    H140181   2.248   1.767   3.134  0.0356 -0.6792 -1.2364
 6182TIP3    H240182   2.154   1.885   3.134  2.7793  1.7001  2.3113
 6183TIP3   OH240183   5.634   4.838   0.002  0.2816 -0.3396 -0.0214
 6183TIP3    H140184   5.622   4.748   0.033 -1.2186 -0.2269 -0.1665
 6183TIP3    H240185   5.544   4.871  -0.008  0.7728  2.0572  2.5668
 6184TIP3   OH240186   2.041   6.805   7.926 -0.0886  0.4368 -0.5689
 6184TIP3    H140187   2.122   6.854   7.912  0.9726 -1.2711 -0.6770
 6184TIP3    H240188   1.984   6.830   7.853  1.1034  0.1547 -1.6281
 6185TIP3   OH240189   2.860   2.722   7.978 -0.0322  0.7372  0.0371
 6185TIP3    H140190   2.920   2.656   8.013 -1.7876 -0.4168  1.0358
 6185TIP3    H240191   2.833   2.688   7.893 -0.5999  0.3553  0.3612
 6186TIP3   OH240192   3.337   2.576   8.473 -0.2194  0.1283  0.3206
 6186TIP3    H140193   3.273   2.592   8.404 -0.1507  2.8377  0.7655
 6186TIP3    H240194   3.419   2.560   8.426  0.1068  3.1896 -0.3600
 6187TIP3   OH240195   3.769   1.809   0.273 -0.6822  0.1708 -0.4399
 6187TIP3    H140196   3.783   1.753   0.196 -2.2662 -2.0095  0.7591
 6187TIP3    H240197   3.723   1.886   0.238  0.6926  0.3680 -1.9864
 6188TIP3   OH240198   1.622   4.243   7.648 -0.1446  0.5988 -0.1368
 6188TIP3    H140199   1.701   4.277   7.605  0.0196 -2.3715 -2.4881
 6188TIP3    H240200   1.646   4.240   7.741  2.7624 -0.5211 -0.7833
 6189TIP3   OH240201   0.071   1.951   0.296 -0.2457  0.1322  0.9313
 6189TIP3    H140202   0.110   1.964   0.383  0.2486  1.8737  0.5036
 6189TIP3    H240203  -0.000   2.015   0.293 -0.5158 -0.1998  0.2085
 6190TIP3   OH240204   2.844   4.606   0.460  0.3591  0.3033  0.3652
 6190TIP3    H140205   2.863   4.681   0.403 -0.7638  0.7203  0.5097
 6190TIP3    H240206   2.765   4.632   0.508 -0.6694 -1.3829 -0.3286
 6191TIP3   OH240207   6.511   1.749   1.226 -0.6728 -0.0935  0.5640
 6191TIP3    H140208   6.488   1.818   1.288 -0.9862  0.4855 -0.1768
 6191TIP3    H240209   6.471   1.777   1.144  0.7370 -0.2228 -0.2075
 6192TIP3   OH240210   2.607   2.865   1.542 -0.0326  0.3754 -0.0375
 6192TIP3    H140211   2.559   2.945   1.563 -0.3345 -0.0355  0.9334
 6192TIP3    H240212   2.616   2.820   1.627  1.3958  0.0740 -0.3166
 6193TIP3   OH240213   2.605   4.773   7.747  0.1999  0.4613 -0.4465
 6193TIP3    H140214   2.552   4.851   7.732 -0.0012  0.3124 -0.5041
 6193TIP3    H240215   2.676   4.803   7.804  0.5132  0.8444 -1.0320
 6194TIP3   OH240216   1.748   0.075   0.071  0.5709 -0.1303 -0.0063
 6194TIP3    H140217   1.693   0.009   0.030  0.3374  0.5621 -0.8301
 6194TIP3    H240218   1.693   0.154   0.074  1.1161  0.2491  0.2419
 6195TIP3   OH240219   2.734   2.881   8.143 -0.2363 -0.2871 -0.8384
 6195TIP3    H140220   2.778   2.835   8.073 -0.1225  0.9758 -1.6250
 6195TIP3    H240221   2.647   2.842   8.147 -0.1213 -0.6034 -1.4455
 6196TIP3   OH240222   1.245   1.178   7.577  0.0985 -1.3580  0.8325
 6196TIP3    H140223   1.167   1.139   7.535  0.1608 -0.3366 -0.3165
 6196TIP3    H240224   1.211   1.257   7.620  0.6969  0.1411 -1.2386
 6197TIP3   OH240225   2.390   6.147   8.527  0.1307 -0.2166  0.7029
 6197TIP3    H140226   2.328   6.079   8.553  0.1053 -0.4968 -0.0793
 6197TIP3    H240227   2.475   6.103   8.527  1.0842  0.9696  5.4337
 6198TIP3   OH240228   1.725   6.796   7.349  0.1991  0.1157  0.6450
 6198TIP3    H140229   1.647   6.778   7.297 -0.0814 -0.7162  1.3411
 6198TIP3    H240230   1.797   6.756   7.299  0.1359  0.5241  0.2140
 6199TIP3   OH240231   6.023   1.530   7.708 -0.9231  0.0581  0.1139
 6199TIP3    H140232   6.018   1.622   7.684  0.3350  0.5665  1.6015
 6199TIP3    H240233   6.023   1.483   7.625  2.1759  1.6328 -0.9201
 6200TIP3   OH240234   6.423   1.331   7.979  0.1247  0.6260  0.3006
 6200TIP3    H140235   6.422   1.385   7.901  1.3468  2.6601  1.5844
 6200TIP3    H240236   6.347   1.359   8.030 -1.0583 -1.1601 -0.3769
 6201TIP3   OH240237   5.521   2.475   0.660  0.2691 -0.0564  0.3795
 6201TIP3    H140238   5.610   2.462   0.694 -0.2461 -0.1991  1.7473
 6201TIP3    H240239   5.533   2.492   0.567  1.9289  2.2472  0.9267
 6202TIP3   OH240240   3.619   0.104   7.435 -0.2461 -1.0311 -0.2542
 6202TIP3    H140241   3.566   0.045   7.488 -1.0486 -0.3476 -0.2670
 6202TIP3    H240242   3.632   0.058   7.352  1.0024 -2.0994  0.5141
 6203TIP3   OH240243   4.100   2.992   8.786  0.3837  0.6378  0.3128
 6203TIP3    H140244   4.143   3.051   8.848 -0.0633  2.1625 -0.7640
 6203TIP3    H240245   4.173   2.952   8.738  0.7295 -0.5014  1.7031
 6204TIP3   OH240246   4.195   0.992   2.192  0.2525 -0.0148 -0.5926
 6204TIP3    H140247   4.263   0.954   2.247 -1.7915  0.5803  2.6751
 6204TIP3    H240248   4.159   1.064   2.245 -1.1249  1.4555 -3.3019
 6205TIP3   OH240249   2.234   3.964   2.356 -0.0538 -0.2376  0.3405
 6205TIP3    H140250   2.217   3.912   2.278 -0.1795 -2.7910  1.9625
 6205TIP3    H240251   2.329   3.959   2.367 -0.0951 -0.3623  0.6495
 6206TIP3   OH240252   1.497   6.652   1.933  0.1064  0.1306 -0.4616
 6206TIP3    H140253   1.484   6.558   1.942  2.0356 -0.0139  1.8126
 6206TIP3    H240254   1.573   6.661   1.875  1.3875  0.1183  1.1423
 6207TIP3   OH240255   3.792   4.090   0.381 -0.3659 -0.3427 -0.7173
 6207TIP3    H140256   3.842   4.166   0.412 -1.7350  0.4138 -0.2781
 6207TIP3    H240257   3.845   4.015   0.407  1.4020  0.4479 -1.8411
 6208TIP3   OH240258   0.035   4.964   1.358  0.2388 -0.6102 -0.1173
 6208TIP3    H140259   0.088   4.889   1.331 -2.0888 -1.9150 -1.4044
 6208TIP3    H240260   0.055   4.977   1.451  2.2757 -1.4091 -0.4022
 6209TIP3   OH240261   1.218   4.240   6.616  0.2126  0.0745  0.6079
 6209TIP3    H140262   1.266   4.305   6.565  0.2886 -1.0490 -0.8269
 6209TIP3    H240263   1.286   4.183   6.653  0.0866 -1.4863 -1.3838
 6210TIP3   OH240264   3.018   2.904   0.875  0.1595  0.4429  0.0371
 6210TIP3    H140265   2.975   2.860   0.802 -1.5195  1.5978  0.2741
 6210TIP3    H240266   3.000   2.848   0.950  0.2802  0.2034 -0.1118
 6211TIP3   OH240267   3.438   1.857   8.471  0.1403 -0.3422 -0.5036
 6211TIP3    H140268   3.530   1.873   8.452  0.1446 -1.6108 -1.7226
 6211TIP3    H240269   3.394   1.859   8.386 -0.7161 -1.1396 -0.1111
 6212TIP3   OH240270   5.700   0.039   1.088 -0.1836 -0.1131  0.2647
 6212TIP3    H140271   5.727  -0.052   1.087  1.0414  0.2317 -0.2576
 6212TIP3    H240272   5.777   0.087   1.058 -1.2063  0.9839 -0.7103
 6213TIP3   OH240273   0.070   0.532   8.517 -0.4017  0.0098 -0.9472
 6213TIP3    H140274   0.100   0.478   8.590 -2.1720 -1.0308 -0.9122
 6213TIP3    H240275   0.083   0.622   8.545  1.0127 -0.3860 -0.2839
 6214TIP3   OH240276   0.871   0.477   0.995 -0.1176  0.4949 -0.1622
 6214TIP3    H140277   0.813   0.402   1.011 -0.2063  0.4518 -0.6546
 6214TIP3    H240278   0.881   0.518   1.081  0.9118 -0.7758  0.3604
 6215TIP3   OH240279   2.524   4.281   0.462 -0.5105 -0.1934 -0.0863
 6215TIP3    H140280   2.432   4.267   0.485 -0.3071 -1.2296  0.1460
 6215TIP3    H240281   2.560   4.327   0.538 -0.7665 -0.0392 -0.0549
 6216TIP3   OH240282   0.805   5.074   0.176  0.0154  0.3077  0.0058
 6216TIP3    H140283   0.781   5.011   0.108  0.5367  1.3407 -1.1952
 6216TIP3    H240284   0.895   5.099   0.154  0.0191  1.0273  0.7894
 6217TIP3   OH240285   0.516   6.799   0.684  0.4002  0.2041  0.0106
 6217TIP3    H140286   0.492   6.718   0.729 -0.7021  0.5988  0.1403
 6217TIP3    H240287   0.452   6.863   0.712  1.3169  1.1672 -0.0255
 6218TIP3   OH240288   3.561   2.347   0.870  0.0451 -0.1848 -0.1898
 6218TIP3    H140289   3.570   2.344   0.775 -2.1416  0.5550 -0.4876
 6218TIP3    H240290   3.640   2.305   0.903  0.7830 -0.6120 -2.3303
 6219TIP3   OH240291   4.269   3.367   8.829  0.1983  0.1115 -0.4106
 6219TIP3    H140292   4.247   3.294   8.886 -2.1079  0.7178 -0.4335
 6219TIP3    H240293   4.240   3.339   8.742  1.5245  0.1251 -0.8722
 6220TIP3   OH240294   3.060   3.597   6.835  0.0943 -0.4016  0.2417
 6220TIP3    H140295   2.990   3.535   6.812  0.5558 -0.9231  0.2362
 6220TIP3    H240296   3.075   3.647   6.755  0.5982 -1.1401 -0.1285
 6221TIP3   OH240297   6.365   4.507   8.276 -0.5737  0.3515 -0.6797
 6221TIP3    H140298   6.345   4.575   8.340 -0.8781  0.1187 -0.5222
 6221TIP3    H240299   6.317   4.532   8.197 -0.2477  0.6062 -0.8005
 6222TIP3   OH240300   6.441   5.123   2.021 -0.0966  0.0245 -0.2947
 6222TIP3    H140301   6.508   5.071   1.976  0.8061 -0.3571  1.3924
 6222TIP3    H240302   6.366   5.122   1.963  0.6260 -1.4150 -1.2546
 6223TIP3   OH240303   4.779   0.179   2.103 -0.2542  0.2709 -0.4903
 6223TIP3    H140304   4.723   0.182   2.025 -0.5621 -0.9237 -0.3407
 6223TIP3    H240305   4.729   0.225   2.171  1.0665  3.5608 -1.5693
 6224TIP3   OH240306   1.498   3.981   7.969 -0.0256 -0.3539 -0.3321
 6224TIP3    H140307   1.487   3.961   7.876  1.8070  0.9140 -0.8829
 6224TIP3    H240308   1.593   3.981   7.982 -0.2409 -0.3035  1.5091
 6225TIP3   OH240309   3.028   1.541   2.559  0.9006 -1.2337  0.1798
 6225TIP3    H140310   2.952   1.495   2.524 -0.8634  1.2707  0.4115
 6225TIP3    H240311   3.083   1.557   2.482 -0.3574 -0.3932 -0.5784
 6226TIP3   OH240312   5.413   4.422   2.264 -0.0942 -0.0053  0.0234
 6226TIP3    H140313   5.326   4.448   2.234 -0.4891 -1.9918 -0.6825
 6226TIP3    H240314   5.419   4.458   2.352 -0.1973  3.1601 -1.1462
 6227TIP3   OH240315   2.495   4.995   7.630  0.4865 -0.2128 -0.1691
 6227TIP3    H140316   2.418   5.043   7.600  0.4793 -0.7734 -1.0703
 6227TIP3    H240317   2.549   4.984   7.552  1.6485  0.4641  0.5190
 6228TIP3   OH240318   6.633   3.237   1.170  0.1780 -0.0824 -0.7405
 6228TIP3    H140319   6.585   3.238   1.252  1.4494  0.7378  0.0214
 6228TIP3    H240320   6.584   3.296   1.113 -1.1452 -1.2447 -0.8764
 6229TIP3   OH240321   0.225   3.876   0.070 -0.5377  0.5545  0.3987
 6229TIP3    H140322   0.199   3.816  -0.001  0.7378 -0.1316  0.4938
 6229TIP3    H240323   0.177   3.956   0.051 -0.5985  0.2197 -0.9753
 6230TIP3   OH240324   5.260   3.888   1.693 -0.3453  0.0431  0.0939
 6230TIP3    H140325   5.303   3.934   1.620  1.8561 -0.9247  0.7011
 6230TIP3    H240326   5.276   3.944   1.769 -0.4997 -0.1505  0.2690
 6231TIP3   OH240327   0.033   4.459   8.382 -0.5422  0.7240  0.9372
 6231TIP3    H140328   0.079   4.392   8.432  0.1916  0.8619  0.4605
 6231TIP3    H240329   0.052   4.541   8.429  0.8008  0.9665  0.0197
 6232TIP3   OH240330   0.706   0.061   1.577  0.3882 -0.3492 -0.8762
 6232TIP3    H140331   0.718  -0.019   1.525  1.0342 -0.2977 -0.8117
 6232TIP3    H240332   0.794   0.098   1.584  0.3726 -0.5337  0.5448
 6233TIP3   OH240333   5.125   5.437   7.068  0.5383 -0.2672 -0.1246
 6233TIP3    H140334   5.083   5.480   7.142 -3.2720 -1.0569 -1.5799
 6233TIP3    H240335   5.162   5.508   7.016 -2.4020  1.0909 -0.6049
 6234TIP3   OH240336   2.611   4.995   1.286  0.1161 -0.3009  0.2275
 6234TIP3    H140337   2.609   4.904   1.257  0.9649  0.1141 -1.2023
 6234TIP3    H240338   2.627   4.990   1.381  0.5521 -1.6175  0.0950
 6235TIP3   OH240339   5.377   5.968   2.141 -0.5836  0.4980 -0.3561
 6235TIP3    H140340   5.295   6.004   2.108 -2.0031 -2.0986  0.0181
 6235TIP3    H240341   5.398   5.898   2.079 -0.7920 -1.3822  1.5804
 6236TIP3   OH240342   1.925   2.879   1.728 -0.1432  0.3714  0.2952
 6236TIP3    H140343   1.902   2.814   1.794 -0.6783 -2.8582 -2.7354
 6236TIP3    H240344   2.016   2.859   1.705 -0.6133 -0.0778 -1.3632
 6237TIP3   OH240345   1.195   6.183   6.918 -0.1080 -0.0346  0.9057
 6237TIP3    H140346   1.226   6.237   6.845  0.1181 -2.5563 -1.0229
 6237TIP3    H240347   1.103   6.209   6.929  0.0750  0.9441  0.2401
 6238TIP3   OH240348   6.767   2.045   2.281  0.3575  0.1505  0.3344
 6238TIP3    H140349   6.736   2.127   2.242  0.9822  0.3472  0.2370
 6238TIP3    H240350   6.734   2.047   2.370 -0.5152  0.0171  0.0251
 6239TIP3   OH240351   2.752   4.234   2.835  0.4293 -0.4271  0.3505
 6239TIP3    H140352   2.773   4.143   2.857  0.1173 -0.3335  1.0699
 6239TIP3    H240353   2.819   4.260   2.772  0.5626 -1.1327  0.1958
 6240TIP3   OH240354   1.300   4.910   1.729 -0.4850  0.1352 -0.5929
 6240TIP3    H140355   1.389   4.946   1.720 -0.7387  0.6656 -1.0492
 6240TIP3    H240356   1.301   4.866   1.814  0.0378  0.6697 -0.3097
 6241TIP3   OH240357   1.903   3.689   7.626 -0.5001  0.3728  0.3072
 6241TIP3    H140358   1.891   3.687   7.531 -0.1704  0.4401  0.2608
 6241TIP3    H240359   1.823   3.652   7.661 -1.1871  1.5521  0.0518
 6242TIP3   OH240360   2.022   5.367   7.874 -0.1599 -0.6851 -0.0496
 6242TIP3    H140361   1.946   5.360   7.816  0.1621 -0.7914 -0.4659
 6242TIP3    H240362   2.078   5.294   7.848  1.1908  0.7632 -1.4129
 6243TIP3   OH240363   0.244   2.577   7.729  0.0694 -0.2180 -0.1539
 6243TIP3    H140364   0.314   2.641   7.739 -0.1478 -0.0372  0.2680
 6243TIP3    H240365   0.268   2.526   7.652 -0.2597  1.0192 -1.1082
 6244TIP3   OH240366   6.174   3.054   2.182  0.2804 -0.3869 -0.2996
 6244TIP3    H140367   6.172   3.075   2.088 -0.0749  2.9568  0.3115
 6244TIP3    H240368   6.260   3.084   2.210 -0.6437  1.3574  0.8677
 6245TIP3   OH240369   5.721   6.699   7.411 -0.2117 -0.5082 -0.4384
 6245TIP3    H140370   5.666   6.680   7.335 -0.1788 -0.6008 -0.4390
 6245TIP3    H240371   5.705   6.792   7.429 -1.6060 -0.9050  0.5529
 6246TIP3   OH240372   0.757   2.833   2.278 -0.1135 -0.9161  0.3298
 6246TIP3    H140373   0.835   2.848   2.333 -0.9731  0.4286  1.2238
 6246TIP3    H240374   0.789   2.843   2.188  0.6752  0.0858  0.6990
 6247TIP3   OH240375   4.568   2.415   0.001 -0.0235  0.1404 -0.4131
 6247TIP3    H140376   4.572   2.498  -0.047 -1.2027  1.2861  1.3131
 6247TIP3    H240377   4.524   2.354  -0.057  0.6653  0.7692 -1.6335
 6248TIP3   OH240378   3.973   1.412   2.231  0.4259 -0.4649  0.9434
 6248TIP3    H140379   4.041   1.354   2.264 -0.2804 -2.1225 -0.4202
 6248TIP3    H240380   4.014   1.459   2.158  0.3858 -0.7688  0.7257
 6249TIP3   OH240381   1.069   1.399   7.611 -0.0898  0.2820  0.2692
 6249TIP3    H140382   1.032   1.369   7.694  0.7959 -2.2148 -0.1543
 6249TIP3    H240383   0.993   1.423   7.558 -0.7251  0.8161  1.3899
 6250TIP3   OH240384   1.441   4.025   1.422  0.1121 -0.7105  0.2474
 6250TIP3    H140385   1.373   3.968   1.384 -0.2602 -0.7376  0.9355
 6250TIP3    H240386   1.476   4.073   1.347 -0.2142 -1.1704 -0.2120
 6251TIP3   OH240387   3.157   4.384   6.751  0.2792  0.0813 -0.1422
 6251TIP3    H140388   3.104   4.377   6.671  1.0862  0.5306 -0.7345
 6251TIP3    H240389   3.128   4.311   6.806 -2.1072  1.2178  0.2581
 6252TIP3   OH240390   3.874   5.061   8.752 -0.3448 -0.2071 -0.1957
 6252TIP3    H140391   3.823   5.035   8.676 -0.4129  0.5470 -0.4184
 6252TIP3    H240392   3.948   5.000   8.753 -1.0186 -1.0481 -0.1038
 6253TIP3   OH240393   3.163   5.641   7.039  0.0670  0.1579  0.4904
 6253TIP3    H140394   3.073   5.668   7.056  0.0397  1.1921 -1.1134
 6253TIP3    H240395   3.164   5.617   6.946  1.6375  1.0149  0.2612
 6254TIP3   OH240396   2.479   0.204   7.039 -0.2944  0.7986  0.3711
 6254TIP3    H140397   2.545   0.178   7.104 -1.4434 -1.0676  0.8947
 6254TIP3    H240398   2.509   0.165   6.957 -0.1595  0.9541  0.3456
 6255TIP3   OH240399   2.145   3.343   2.004 -0.1529  0.6428  0.9503
 6255TIP3    H140400   2.093   3.347   2.085  0.6836  1.0658  1.4764
 6255TIP3    H240401   2.210   3.413   2.013  0.4320  0.2099  0.2433
 6256TIP3   OH240402   5.040   6.192   1.643 -0.5258 -0.6128  0.5551
 6256TIP3    H140403   5.076   6.118   1.593 -1.5846  0.4087 -1.8866
 6256TIP3    H240404   4.991   6.151   1.714  1.6225 -2.1309  1.2833
 6257TIP3   OH240405   6.346   6.245   7.569 -0.3427 -0.0873  0.1370
 6257TIP3    H140406   6.325   6.263   7.661  0.1755  0.5265  0.1351
 6257TIP3    H240407   6.365   6.330   7.531 -1.4009 -0.2356 -0.7665
 6258TIP3   OH240408   5.037   6.337   6.938 -0.3928  0.4732  1.0925
 6258TIP3    H140409   5.048   6.249   6.974  0.8251  1.1746  2.5493
 6258TIP3    H240410   5.095   6.340   6.862  0.8794  0.5157  2.0332
 6259TIP3   OH240411   6.790   5.915   3.095 -0.1840 -0.1838  0.4390
 6259TIP3    H140412   6.741   5.911   3.013 -0.1219  1.1050  0.3143
 6259TIP3    H240413   6.731   5.960   3.156 -0.3201 -1.3286  1.1855
 6260TIP3   OH240414   5.673   5.563   1.081 -0.5850 -0.2178  0.1002
 6260TIP3    H140415   5.669   5.651   1.118 -1.0501  0.1733 -0.8430
 6260TIP3    H240416   5.629   5.571   0.996  1.2350 -0.8837 -0.9530
 6261TIP3   OH240417   2.182   3.681   0.975 -0.4631  0.1006 -0.0002
 6261TIP3    H140418   2.266   3.718   0.948 -0.2470 -0.6542 -0.3867
 6261TIP3    H240419   2.141   3.653   0.894 -0.6785 -0.3956  0.2776
 6262TIP3   OH240420   5.300   1.867   7.941 -0.2706 -0.0701 -0.2606
 6262TIP3    H140421   5.391   1.840   7.960  0.2097  1.6625  0.0487
 6262TIP3    H240422   5.286   1.840   7.851  0.3821 -0.7945 -0.1649
 6263TIP3   OH240423   6.686   3.689   0.338  0.2784  0.2469 -0.7089
 6263TIP3    H140424   6.708   3.597   0.327  1.2537  0.0900  1.7764
 6263TIP3    H240425   6.771   3.734   0.336  0.2231  0.5787  1.6188
 6264TIP3   OH240426   4.518   5.574   8.248 -0.0175 -0.5703 -0.3179
 6264TIP3    H140427   4.469   5.657   8.252 -0.2005 -0.6567 -0.6945
 6264TIP3    H240428   4.464   5.512   8.298  1.3544  0.1211  2.2080
 6265TIP3   OH240429   3.127   1.209   0.526  0.0032  0.3145 -0.1225
 6265TIP3    H140430   3.123   1.135   0.586  1.1612 -1.0039 -1.6022
 6265TIP3    H240431   3.037   1.243   0.524 -0.3407 -0.4282  1.3017
 6266TIP3   OH240432   1.671   0.414   8.278 -0.3467 -0.0323  0.3795
 6266TIP3    H140433   1.753   0.371   8.254 -0.0625  0.8411 -0.2517
 6266TIP3    H240434   1.688   0.508   8.268 -1.2835  0.1882  0.6846
 6267TIP3   OH240435   0.134   2.926   1.388 -0.1370  0.0911 -0.7053
 6267TIP3    H140436   0.143   2.912   1.294 -0.7465  0.6511 -0.8543
 6267TIP3    H240437   0.053   2.976   1.398 -0.0108  0.1613  0.1055
 6268TIP3   OH240438   6.016   2.307   8.391  0.0722  0.0861  0.3970
 6268TIP3    H140439   6.087   2.291   8.452  0.1147  0.1453  0.3638
 6268TIP3    H240440   6.039   2.389   8.348  0.1375 -0.0505  0.1674
 6269TIP3   OH240441   2.270   3.209   0.258  0.1882  0.0225  0.0916
 6269TIP3    H140442   2.229   3.292   0.232  0.3494  0.1923  0.3589
 6269TIP3    H240443   2.197   3.152   0.282  0.0313 -0.1873 -0.8498
 6270TIP3   OH240444   3.185   4.335   2.832  0.6095  0.6872 -0.0824
 6270TIP3    H140445   3.270   4.316   2.872  1.3549 -0.5891 -2.1018
 6270TIP3    H240446   3.155   4.251   2.797  0.5993  1.8102 -3.1438
 6271TIP3   OH240447   2.690   0.259   6.485  0.6308  0.1630 -0.1096
 6271TIP3    H140448   2.660   0.181   6.439 -2.1312 -0.0969  1.8834
 6271TIP3    H240449   2.614   0.317   6.485  1.9574  1.9893  0.3330
 6272TIP3   OH240450   5.557   5.352   8.769 -0.2490  0.2940 -0.2713
 6272TIP3    H140451   5.484   5.413   8.766 -0.3997  0.3536  2.2556
 6272TIP3    H240452   5.532   5.287   8.835  1.8057  0.0971  0.3911
 6273TIP3   OH240453   4.266   5.131   8.709 -0.0373  0.1718  0.0791
 6273TIP3    H140454   4.221   5.168   8.785 -0.2652  0.9461 -0.4194
 6273TIP3    H240455   4.356   5.163   8.717 -0.2067  0.7535 -0.2911
 6274TIP3   OH240456   5.681   2.855   7.474 -0.6192 -0.3275 -0.2476
 6274TIP3    H140457   5.711   2.765   7.463 -0.9027 -0.7564  2.1384
 6274TIP3    H240458   5.758   2.908   7.450 -0.5259 -1.1281 -1.9142
 6275TIP3   OH240459   3.816   2.800   8.623 -0.1905  0.0347 -0.5103
 6275TIP3    H140460   3.863   2.808   8.539  0.7290  1.2675  0.0898
 6275TIP3    H240461   3.726   2.824   8.602  0.1998  1.1352 -1.0124
 6276TIP3   OH240462   0.964   5.252   1.639 -0.6279 -0.0812  0.6345
 6276TIP3    H140463   1.041   5.306   1.617 -0.0463 -0.2044  2.2524
 6276TIP3    H240464   0.951   5.198   1.561  0.2971  0.6513 -0.0657
 6277TIP3   OH240465   0.148   4.391   0.877 -0.2295 -0.1610  0.0423
 6277TIP3    H140466   0.080   4.416   0.939 -1.1577 -0.5297 -0.7902
 6277TIP3    H240467   0.230   4.420   0.917 -0.6877 -1.3066  1.9076
 6278TIP3   OH240468   2.747   0.022   2.960  0.5268 -0.3251 -0.5600
 6278TIP3    H140469   2.708  -0.007   2.878  1.0578  1.0750 -1.3477
 6278TIP3    H240470   2.704   0.105   2.979  1.0246 -0.2157  0.1303
 6279TIP3   OH240471   2.876   4.131   2.257 -0.4882  0.2595 -0.6095
 6279TIP3    H140472   2.841   4.162   2.174 -2.3796  0.6054  0.2494
 6279TIP3    H240473   2.839   4.191   2.322  0.7786 -0.1204  0.5127
 6280TIP3   OH240474   5.393   2.532   1.195 -0.0773  0.8224  0.1751
 6280TIP3    H140475   5.373   2.451   1.241 -0.9495  0.4443 -0.8162
 6280TIP3    H240476   5.470   2.512   1.142 -1.2067  0.1125 -1.2744
 6281TIP3   OH240477   1.631   5.051   6.853  0.1408  0.7115  0.5680
 6281TIP3    H140478   1.538   5.066   6.870 -0.0624 -0.3814  0.5033
 6281TIP3    H240479   1.642   4.956   6.860  1.1793  0.7891  0.2198
 6282TIP3   OH240480   1.281   6.287   1.484 -0.0698  0.2636 -0.3771
 6282TIP3    H140481   1.235   6.366   1.455 -1.0906 -0.4256 -0.6963
 6282TIP3    H240482   1.344   6.319   1.549 -0.2799  1.3698 -0.6943
 6283TIP3   OH240483   3.869   2.276   0.978  0.7241 -0.2267  0.6925
 6283TIP3    H140484   3.896   2.368   0.983 -0.6772  0.2366  0.3235
 6283TIP3    H240485   3.929   2.229   1.036 -0.5148  1.3849  3.4397
 6284TIP3   OH240486   4.582   6.479   8.359 -0.1242 -0.1588  0.4077
 6284TIP3    H140487   4.627   6.546   8.410 -1.8826  0.6987  0.9229
 6284TIP3    H240488   4.516   6.528   8.308 -0.0004 -1.2605 -0.8784
 6285TIP3   OH240489   3.484   4.585   1.493  0.3063  0.1773  0.4323
 6285TIP3    H140490   3.523   4.620   1.413  1.2303  1.8046  1.5324
 6285TIP3    H240491   3.460   4.662   1.544 -3.0729 -0.7322  0.5032
 6286TIP3   OH240492   3.395   1.453   0.201  0.4752  0.4363 -0.1473
 6286TIP3    H140493   3.387   1.444   0.296 -0.0568  1.1911 -0.1110
 6286TIP3    H240494   3.384   1.547   0.184 -1.3391  0.1060 -1.1138
 6287TIP3   OH240495   4.284   2.086   7.662  0.5287 -0.3151  0.6761
 6287TIP3    H140496   4.272   2.120   7.574  0.6814 -1.0260  0.3800
 6287TIP3    H240497   4.332   2.155   7.708  0.4444  0.0555  0.2100
 6288TIP3   OH240498   1.502   1.513   8.546  0.7902 -0.2331  0.3832
 6288TIP3    H140499   1.458   1.443   8.497  0.1596  0.4126  0.0022
 6288TIP3    H240500   1.568   1.547   8.486  3.7765 -2.9499  1.8377
 6289TIP3   OH240501   0.391   6.324   1.416 -0.8486  0.3486  0.8280
 6289TIP3    H140502   0.318   6.294   1.363 -0.4303  0.1242  0.3666
 6289TIP3    H240503   0.460   6.344   1.352  0.1408 -1.2361  1.3520
 6290TIP3   OH240504   1.383   3.021   6.857 -0.0553  0.7454 -0.0839
 6290TIP3    H140505   1.343   2.952   6.805 -0.0398  1.6676 -1.3670
 6290TIP3    H240506   1.326   3.097   6.844  0.8116  1.4266 -0.0112
 6291TIP3   OH240507   2.147   3.087   1.842  0.4417 -0.7240 -0.5115
 6291TIP3    H140508   2.175   3.168   1.883  2.1948 -0.7061 -1.6302
 6291TIP3    H240509   2.091   3.045   1.907 -0.6876  1.4467  0.0089
 6292TIP3   OH240510   3.989   0.720   0.563 -1.0417 -0.4370 -0.4432
 6292TIP3    H140511   3.961   0.811   0.560  0.1604 -0.0250  0.2072
 6292TIP3    H240512   3.961   0.689   0.649 -1.1240 -0.5770 -0.5193
 6293TIP3   OH240513   5.753   2.743   0.051 -0.7266 -0.2644 -0.2469
 6293TIP3    H140514   5.748   2.800   0.128  0.1343  0.2120 -0.5343
 6293TIP3    H240515   5.821   2.782  -0.004 -1.3414 -0.5893 -1.2671
 6294TIP3   OH240516   2.598   3.817   1.189 -0.9350  0.2543  0.1408
 6294TIP3    H140517   2.624   3.791   1.277  0.1660  1.2165  0.1204
 6294TIP3    H240518   2.547   3.897   1.201 -0.5172  0.5629 -0.1152
 6295TIP3   OH240519   5.929   2.579   2.700  0.0081 -0.1780  0.1374
 6295TIP3    H140520   6.003   2.526   2.728  0.4728  0.4283  0.0830
 6295TIP3    H240521   5.860   2.560   2.763  1.2330  1.6644  2.1849
 6296TIP3   OH240522   3.187   4.425   8.265  0.4006 -0.1603 -0.2085
 6296TIP3    H140523   3.225   4.455   8.183  0.3708 -0.6782 -0.4143
 6296TIP3    H240524   3.261   4.425   8.327  1.1259 -2.6569 -0.9937
 6297TIP3   OH240525   0.961   0.362   7.246  0.4658 -0.3519  0.1103
 6297TIP3    H140526   1.031   0.376   7.310  1.3471  0.7188 -1.0267
 6297TIP3    H240527   0.999   0.302   7.182 -0.1257 -0.7936  0.1683
 6298TIP3   OH240528   4.029   4.737   6.937 -0.1433  0.2878  0.5908
 6298TIP3    H140529   3.985   4.808   6.890  1.4297  1.1533  0.3722
 6298TIP3    H240530   3.988   4.657   6.904 -0.7530  1.0038 -0.4280
 6299TIP3   OH240531   1.177   5.113   0.444  0.2851 -0.2189  0.8274
 6299TIP3    H140532   1.249   5.114   0.507  0.5410 -0.7475  0.5540
 6299TIP3    H240533   1.110   5.059   0.484  0.4609 -0.5818  0.6395
 6300TIP3   OH240534   0.774   3.236   1.711 -0.1275 -0.1542  0.2576
 6300TIP3    H140535   0.767   3.281   1.627  1.5036  1.2775  0.8231
 6300TIP3    H240536   0.697   3.263   1.760  0.6925  1.9265  0.4878
 6301TIP3   OH240537   2.397   2.427   1.008 -0.1545 -0.6860 -0.0764
 6301TIP3    H140538   2.411   2.402   0.917 -0.4061 -0.5666 -0.1515
 6301TIP3    H240539   2.485   2.437   1.045 -0.0511 -0.5219 -0.3658
 6302TIP3   OH240540   5.288   5.599   6.904  0.0761 -0.8542  0.1536
 6302TIP3    H140541   5.342   5.676   6.889  0.1772 -0.9766 -0.1276
 6302TIP3    H240542   5.308   5.541   6.830 -0.1937 -1.0378  0.2221
 6303TIP3   OH240543   4.790   0.682   8.469  0.5960 -0.1897 -0.1312
 6303TIP3    H140544   4.809   0.594   8.438 -1.2355 -0.8756  0.5662
 6303TIP3    H240545   4.875   0.725   8.473  1.3569 -1.3663 -2.0858
 6304TIP3   OH240546   5.309   1.278   2.049  0.5068  0.3694  0.1627
 6304TIP3    H140547   5.319   1.372   2.039 -1.4137  0.5515 -0.3570
 6304TIP3    H240548   5.386   1.240   2.007  1.3853  1.6876  0.5371
 6305TIP3   OH240549   1.912   4.150   0.368  0.7254 -0.3552  0.1290
 6305TIP3    H140550   1.869   4.070   0.338 -1.2398  1.2371 -1.5806
 6305TIP3    H240551   1.985   4.163   0.307  1.5294 -1.1907  0.8780
 6306TIP3   OH240552   0.938   2.813   0.639 -0.0508 -0.0939 -0.1611
 6306TIP3    H140553   1.000   2.765   0.585  0.7714 -0.2787  0.9042
 6306TIP3    H240554   0.992   2.852   0.708 -0.7455  1.9825 -0.7109
 6307TIP3   OH240555   2.799   4.684   1.083  0.2610 -0.0855  0.8825
 6307TIP3    H140556   2.853   4.743   1.135  1.3985 -0.2108 -0.1135
 6307TIP3    H240557   2.858   4.612   1.060 -0.3457 -0.2591 -0.1774
 6308TIP3   OH240558   1.233   6.532   1.381  0.0403 -0.3049  0.3024
 6308TIP3    H140559   1.202   6.532   1.291  2.7640 -0.2623 -0.7071
 6308TIP3    H240560   1.261   6.623   1.396 -1.6661  0.0362  1.7099
 6309TIP3   OH240561   6.407   3.348   1.870 -0.4092 -0.1654  0.3346
 6309TIP3    H140562   6.443   3.291   1.802  0.3153 -1.2557  1.5838
 6309TIP3    H240563   6.367   3.288   1.934 -0.0799  0.7349  1.4316
 6310TIP3   OH240564   2.364   3.985   8.580  0.0960  0.4819 -0.0249
 6310TIP3    H140565   2.336   3.903   8.539 -1.2526 -0.2185  2.1363
 6310TIP3    H240566   2.287   4.041   8.576 -0.0617  0.4141  1.4036
 6311TIP3   OH240567   1.629   4.990   7.177  0.0245  0.6823 -0.1064
 6311TIP3    H140568   1.549   5.001   7.126 -0.3391 -2.1843 -0.3119
 6311TIP3    H240569   1.691   5.051   7.137 -1.4891  1.6048 -1.1603
 6312TIP3   OH240570   3.393   5.490   1.277 -0.6506  0.7248  0.1388
 6312TIP3    H140571   3.362   5.553   1.211  1.9723  2.7757  0.7335
 6312TIP3    H240572   3.327   5.493   1.346 -0.1849  3.5589  0.5502
 6313TIP3   OH240573   4.112   3.709   1.030  0.6492 -0.5010 -0.3518
 6313TIP3    H140574   4.181   3.695   1.096  0.8646 -0.6984 -0.6179
 6313TIP3    H240575   4.115   3.803   1.013  0.2988 -0.3801  0.2406
 6314TIP3   OH240576   1.526   0.948   0.834  0.4924  0.1508 -0.1002
 6314TIP3    H140577   1.581   0.875   0.863  2.6381  1.7567  0.0609
 6314TIP3    H240578   1.543   0.954   0.740 -1.1349 -0.6787 -0.4862
 6315TIP3   OH240579   3.111   2.079   1.596  0.2167  0.4881 -0.3552
 6315TIP3    H140580   3.199   2.098   1.630  0.7103  1.9471 -2.2788
 6315TIP3    H240581   3.054   2.084   1.673  1.5863  1.2318  0.6560
 6316TIP3   OH240582   4.100   0.542   1.675  0.3911 -0.2190  0.5954
 6316TIP3    H140583   4.184   0.530   1.631  0.3625 -0.5436  0.6305
 6316TIP3    H240584   4.042   0.578   1.608 -0.5613 -3.5994 -0.5871
 6317TIP3   OH240585   3.119   0.043   8.499 -0.7061 -0.3826 -0.0005
 6317TIP3    H140586   3.099   0.103   8.571 -1.9057  0.6576 -1.1605
 6317TIP3    H240587   3.208   0.067   8.472 -1.0919  0.7456 -0.3132
 6318TIP3   OH240588   4.358   0.859   1.308 -0.2316  0.0410  0.0891
 6318TIP3    H140589   4.316   0.940   1.281  0.0012 -0.2023 -1.0722
 6318TIP3    H240590   4.444   0.885   1.340 -1.3375  0.5932  2.8998
 6319TIP3   OH240591   4.779   4.069   8.322  0.5326  0.3788 -0.0572
 6319TIP3    H140592   4.747   4.148   8.364  0.7980  0.2983  0.3034
 6319TIP3    H240593   4.749   3.997   8.378 -0.3707  0.1638 -0.7924
 6320TIP3   OH240594   2.951   6.756   0.308 -0.2117 -0.1146 -0.4612
 6320TIP3    H140595   3.017   6.694   0.339  0.4433  0.7067 -0.1807
 6320TIP3    H240596   2.982   6.842   0.338 -1.3102  0.3126 -0.4854
 6321TIP3   OH240597   4.268   1.913   2.141 -0.4291  0.1745  0.0563
 6321TIP3    H140598   4.203   1.887   2.206 -0.5571 -0.6224 -0.3792
 6321TIP3    H240599   4.266   2.009   2.142 -1.3967  0.1580  0.2567
 6322TIP3   OH240600   2.245   0.885   1.668 -0.1085  0.2709 -0.1655
 6322TIP3    H140601   2.188   0.826   1.619 -1.5792 -0.0473  1.8204
 6322TIP3    H240602   2.333   0.852   1.651 -0.4953  0.2601 -2.6193
 6323TIP3   OH240603   1.276   2.320   1.738  0.0170  0.0872 -0.2284
 6323TIP3    H140604   1.353   2.289   1.785  1.0353 -0.0726 -1.9257
 6323TIP3    H240605   1.208   2.325   1.804  1.2461 -0.6293  1.1409
 6324TIP3   OH240606   6.387   6.743   8.818  0.3921 -0.1369 -0.1371
 6324TIP3    H140607   6.373   6.759   8.724  0.6848 -1.0319 -0.3366
 6324TIP3    H240608   6.369   6.650   8.830  0.9023 -0.1478  0.5956
 6325TIP3   OH240609   1.500   2.430   7.797 -0.1414  0.7268  0.1211
 6325TIP3    H140610   1.423   2.380   7.772 -1.6513  2.3638  1.2015
 6325TIP3    H240611   1.538   2.459   7.715 -2.2732  2.1027 -0.4668
 6326TIP3   OH240612   1.219   5.131   7.632  0.0139 -0.5155  0.2559
 6326TIP3    H140613   1.226   5.207   7.575 -0.6659  0.0804  0.9396
 6326TIP3    H240614   1.132   5.095   7.615 -0.2898 -0.1953  1.0556
 6327TIP3   OH240615   3.439   4.859   1.843  0.0479  0.1622 -0.5181
 6327TIP3    H140616   3.483   4.853   1.758  0.8550  0.0899 -0.1056
 6327TIP3    H240617   3.470   4.942   1.880  1.0177 -0.5791  0.4025
 6328TIP3   OH240618   1.123   0.130   0.544 -0.6651 -0.3078 -0.4739
 6328TIP3    H140619   1.142   0.165   0.631 -0.8923 -0.4065 -0.3823
 6328TIP3    H240620   1.090   0.204   0.494  0.4167 -0.0191 -0.7880
 6329TIP3   OH240621   4.084   4.986   7.094  0.1441  0.5307 -0.7987
 6329TIP3    H140622   4.011   5.045   7.112  0.6626  0.7712  0.5750
 6329TIP3    H240623   4.077   4.968   7.000 -0.6714  1.8829 -1.0183
 6330TIP3   OH240624   4.598   1.318   2.274  0.2835 -0.1325  0.0432
 6330TIP3    H140625   4.691   1.308   2.255 -0.2198 -1.4087 -2.1460
 6330TIP3    H240626   4.586   1.413   2.286  1.8797  0.0218  0.6985
 6331TIP3   OH240627   4.462   3.151   8.716  0.0062  0.0006 -0.4445
 6331TIP3    H140628   4.542   3.201   8.702 -0.7422  1.4000  0.1398
 6331TIP3    H240629   4.398   3.188   8.655 -0.4790 -0.4418 -0.2185
 6332TIP3   OH240630   5.917   4.505   1.164  0.9910 -0.2135  0.1053
 6332TIP3    H140631   5.974   4.577   1.140  0.7971  0.0580  0.4462
 6332TIP3    H240632   5.883   4.528   1.251  1.4121 -1.0098  0.4960
 6333TIP3   OH240633   3.152   5.620   0.784  0.2769  0.1577  0.1596
 6333TIP3    H140634   3.228   5.617   0.842  0.8925  0.1516 -0.6175
 6333TIP3    H240635   3.142   5.530   0.752 -1.0739 -0.2044  1.4982
 6334TIP3   OH240636   3.598   3.824   1.639  0.4670 -0.0833 -0.4925
 6334TIP3    H140637   3.646   3.779   1.709  0.7824  0.7740 -0.1334
 6334TIP3    H240638   3.646   3.906   1.627 -1.3312  1.1696  0.4254
 6335TIP3   OH240639   1.788   3.168   1.967 -0.5915 -0.1543 -0.9454
 6335TIP3    H140640   1.708   3.117   1.980 -1.1709  0.4139 -2.1460
 6335TIP3    H240641   1.857   3.116   2.008 -0.6974 -3.1768 -4.1711
 6336TIP3   OH240642   0.905   0.683   0.263 -0.2384 -0.2230 -0.1270
 6336TIP3    H140643   0.993   0.649   0.247  0.0622  0.3951  0.1562
 6336TIP3    H240644   0.896   0.682   0.358 -0.3514  0.1681 -0.1329
 6337TIP3   OH240645   6.359   0.981   7.633 -0.1242 -0.3472  0.1809
 6337TIP3    H140646   6.335   1.023   7.716  2.2680  0.7508  0.3790
 6337TIP3    H240647   6.381   0.891   7.658 -0.5741 -0.3710  0.5173
 6338TIP3   OH240648   1.878   2.937   8.587  0.3183 -0.0721  0.9073
 6338TIP3    H140649   1.786   2.962   8.577  0.6916  0.9626 -0.1258
 6338TIP3    H240650   1.919   3.014   8.627  0.6311 -0.7683  1.9797
 6339TIP3   OH240651   0.058   5.724   2.082 -0.1172  0.1117  0.0982
 6339TIP3    H140652   0.034   5.634   2.104 -0.9606  0.4148  0.4447
 6339TIP3    H240653   0.106   5.755   2.158  3.2358 -1.1086 -1.3098
 6340TIP3   OH240654   6.126   5.553   0.140  0.3282 -0.2633  0.3431
 6340TIP3    H140655   6.046   5.502   0.126  0.7439 -0.3770 -2.1116
 6340TIP3    H240656   6.184   5.524   0.070  1.7904  1.2530  0.8918
 6341TIP3   OH240657   4.372   6.111   7.473  0.2608  0.2948  0.1548
 6341TIP3    H140658   4.338   6.177   7.534  0.5169  0.7628 -0.2024
 6341TIP3    H240659   4.376   6.156   7.389  1.1572  0.0586  0.0588
 6342TIP3   OH240660   2.379   0.567   0.558 -0.5439 -0.4959 -0.3878
 6342TIP3    H140661   2.394   0.517   0.478 -1.9964 -1.7138  0.0504
 6342TIP3    H240662   2.295   0.611   0.544 -0.6512 -0.4548  0.3266
 6343TIP3   OH240663   4.293   1.376   1.216 -0.6658  0.4269 -0.3152
 6343TIP3    H140664   4.372   1.343   1.257 -0.8388 -0.0606 -0.3683
 6343TIP3    H240665   4.233   1.392   1.289 -0.5564  0.6966 -0.2834
 6344TIP3   OH240666   6.373   4.528   7.692 -0.1831 -0.2510  0.3794
 6344TIP3    H140667   6.427   4.480   7.630  1.1305 -0.0478  1.3211
 6344TIP3    H240668   6.385   4.620   7.668 -0.2998 -0.2205  0.4377
 6345TIP3   OH240669   0.391   2.480   0.143  0.0485  0.5064 -0.2383
 6345TIP3    H140670   0.376   2.574   0.155 -1.2829  0.3717 -0.6559
 6345TIP3    H240671   0.423   2.449   0.228  0.2266  1.2809 -0.0156
 6346TIP3   OH240672   5.538   3.733   7.182 -0.3693 -0.1715  0.2539
 6346TIP3    H140673   5.511   3.655   7.230 -0.4999  0.3841  1.1061
 6346TIP3    H240674   5.604   3.702   7.120  1.2862 -0.5976  2.1471
 6347TIP3   OH240675   1.211   1.776   1.061 -0.4112  0.3092  0.1299
 6347TIP3    H140676   1.199   1.870   1.071  0.0248  0.3219  0.5245
 6347TIP3    H240677   1.200   1.740   1.149 -0.4929 -0.0011 -0.0041
 6348TIP3   OH240678   6.324   0.674   8.472  0.7157 -0.4651 -0.6514
 6348TIP3    H140679   6.347   0.606   8.536  0.7445 -0.0946 -0.2630
 6348TIP3    H240680   6.364   0.645   8.391  2.3013  0.0057 -0.0772
 6349TIP3   OH240681   0.694   6.684   2.301 -0.3002 -0.7343 -0.5016
 6349TIP3    H140682   0.694   6.735   2.382 -0.9503 -0.1187 -0.8824
 6349TIP3    H240683   0.786   6.683   2.273 -0.1704 -0.3999 -0.0995
 6350TIP3   OH240684   0.466   2.335   0.362  0.1712 -0.3879 -0.1261
 6350TIP3    H140685   0.402   2.270   0.390  1.1668 -0.8004  1.3568
 6350TIP3    H240686   0.505   2.366   0.444  0.2959  1.4963 -0.8529
 6351TIP3   OH240687   5.252   3.989   0.535 -0.5014 -0.0137  0.0631
 6351TIP3    H140688   5.284   4.001   0.625  1.1883 -0.1257 -0.4814
 6351TIP3    H240689   5.331   3.965   0.485 -1.3020  0.6433 -1.5675
 6352TIP3   OH240690   6.679   3.480   7.698 -0.3428 -0.2488  0.0649
 6352TIP3    H140691   6.614   3.503   7.764 -1.5148  1.0042 -1.4238
 6352TIP3    H240692   6.728   3.561   7.683  1.1006 -0.9904  0.6450
 6353TIP3   OH240693   6.065   5.839   0.780  0.3032 -0.1887 -0.2066
 6353TIP3    H140694   6.116   5.759   0.764  0.2493 -0.1370 -0.6259
 6353TIP3    H240695   6.072   5.889   0.699  1.8791  1.1094  0.6728
 6354TIP3   OH240696   3.207   0.713   2.153 -0.2104  0.7691  0.0512
 6354TIP3    H140697   3.196   0.662   2.233  2.7438  0.7010  0.5464
 6354TIP3    H240698   3.288   0.762   2.168 -0.8172  2.5145 -2.0181
 6355TIP3   OH240699   4.729   0.987   0.557  0.0065 -0.0765 -0.4075
 6355TIP3    H140700   4.656   1.024   0.606 -0.9478 -0.8105 -1.2260
 6355TIP3    H240701   4.718   0.892   0.567  1.9610 -0.2213  1.0314
 6356TIP3   OH240702   2.379   1.021   8.078 -0.4744 -0.3898  0.0158
 6356TIP3    H140703   2.366   0.984   8.166 -0.8850 -0.4448 -0.0648
 6356TIP3    H240704   2.297   1.066   8.059 -0.8370 -1.3464 -0.8032
 6357TIP3   OH240705   5.606   0.570   2.477 -0.5063 -0.4843  0.1401
 6357TIP3    H140706   5.596   0.476   2.468 -1.2460 -0.3887 -0.1146
 6357TIP3    H240707   5.637   0.583   2.567  1.0037 -1.0535 -0.2664
 6358TIP3   OH240708   3.966   4.461   6.946 -0.5176  0.2310  0.2069
 6358TIP3    H140709   4.008   4.414   7.019 -0.3020  2.1712  1.4105
 6358TIP3    H240710   3.892   4.406   6.922 -0.2489 -0.7627  1.5113
 6359TIP3   OH240711   1.857   5.724   0.977  0.3537 -0.7194  0.0260
 6359TIP3    H140712   1.865   5.724   0.882  1.4365  0.5342  0.0950
 6359TIP3    H240713   1.773   5.680   0.994  0.6063 -1.8313 -1.4401
 6360TIP3   OH240714   3.210   3.427   0.259 -0.3907 -0.3109 -0.0820
 6360TIP3    H140715   3.158   3.353   0.288  0.6029 -1.6470 -1.5419
 6360TIP3    H240716   3.288   3.424   0.313  0.9103 -2.0760 -1.8999
 6361TIP3   OH240717   0.724   6.106   2.230 -0.0480  0.0938 -0.1885
 6361TIP3    H140718   0.793   6.073   2.288 -0.2042 -1.2738 -0.7677
 6361TIP3    H240719   0.683   6.028   2.193 -1.7654  0.8878 -0.0479
 6362TIP3   OH240720   2.137   4.712   1.064 -0.5500  0.3339  0.0515
 6362TIP3    H140721   2.133   4.805   1.084 -0.4206 -0.0270  1.9213
 6362TIP3    H240722   2.231   4.693   1.056 -0.5873  0.4062 -0.6854
 6363TIP3   OH240723   5.190   5.145   1.212  0.3684 -0.2957 -0.0323
 6363TIP3    H140724   5.251   5.093   1.264  0.5722 -1.8867 -1.7402
 6363TIP3    H240725   5.159   5.084   1.144 -1.9964  0.8872 -0.1162
 6364TIP3   OH240726   1.611   3.409   7.967  0.0380  0.2358 -0.3779
 6364TIP3    H140727   1.519   3.392   7.983  0.2718 -0.9427 -0.2486
 6364TIP3    H240728   1.651   3.412   8.054  0.2713 -0.1724 -0.4675
 6365TIP3   OH240729   6.632   5.122   1.569 -0.3939  0.4076 -0.0663
 6365TIP3    H140730   6.566   5.055   1.551  1.2914 -1.2146 -0.4354
 6365TIP3    H240731   6.681   5.089   1.644  0.4423  1.2710 -0.2112
 6366TIP3   OH240732   2.698   4.359   1.701  0.5798 -0.4784  0.3248
 6366TIP3    H140733   2.743   4.313   1.630 -0.3022  0.7012 -1.0328
 6366TIP3    H240734   2.632   4.297   1.732  0.9367 -0.9780  0.0999
 6367TIP3   OH240735   5.707   5.290   0.346 -0.5882 -0.1738  0.1154
 6367TIP3    H140736   5.749   5.366   0.387 -0.1570  0.9720 -2.2507
 6367TIP3    H240737   5.626   5.278   0.394 -0.3091  1.3214  1.0238
 6368TIP3   OH240738   5.238   6.395   7.823 -0.0289 -0.7764 -0.0634
 6368TIP3    H140739   5.286   6.467   7.782 -0.2215 -1.0926 -0.8625
 6368TIP3    H240740   5.300   6.322   7.824 -0.5333 -1.2331 -1.2438
 6369TIP3   OH240741   5.074   4.458   6.982 -0.0502  0.0036 -0.1675
 6369TIP3    H140742   5.044   4.549   6.981  2.3899  0.9009  0.1445
 6369TIP3    H240743   5.166   4.463   6.955  0.4536 -2.2367  0.8689
 6370TIP3   OH240744   0.307   2.156   1.753  0.3403 -0.2578 -0.0783
 6370TIP3    H140745   0.249   2.114   1.815  0.6141 -2.6144 -1.3094
 6370TIP3    H240746   0.388   2.172   1.801 -0.2204  0.1120  0.7607
 6371TIP3   OH240747   3.218   6.132   7.218 -0.0613  0.5954 -0.1226
 6371TIP3    H140748   3.254   6.184   7.146 -0.0621 -0.2156 -0.7270
 6371TIP3    H240749   3.147   6.186   7.254 -0.4999  0.7375 -1.1627
 6372TIP3   OH240750   0.252   5.388   2.236  0.4736  0.0227  0.1007
 6372TIP3    H140751   0.251   5.355   2.326 -0.7296  0.6589  0.3521
 6372TIP3    H240752   0.311   5.463   2.239 -0.9007  1.1393  0.8266
 6373TIP3   OH240753   2.130   0.344   0.451 -0.1366  0.0577  0.0004
 6373TIP3    H140754   2.069   0.294   0.505 -0.5875  0.5688 -0.0198
 6373TIP3    H240755   2.124   0.304   0.365 -0.9980  0.5510 -0.1836
 6374TIP3   OH240756   2.655   0.914   8.342  0.1161 -0.1724 -0.4574
 6374TIP3    H140757   2.619   0.952   8.261 -0.5199 -0.6533 -0.4086
 6374TIP3    H240758   2.646   0.820   8.330  0.6266 -0.2690 -0.0955
 6375TIP3   OH240759   1.181   5.155   1.287 -0.2979  0.4353  0.0390
 6375TIP3    H140760   1.137   5.198   1.214 -0.4824 -0.0042 -0.1169
 6375TIP3    H240761   1.155   5.205   1.364 -1.8420 -0.3421  0.0787
 6376TIP3   OH240762   6.836   2.683   0.122  0.3826  0.3457 -0.2895
 6376TIP3    H140763   6.801   2.752   0.178  1.1259  2.3457 -2.1474
 6376TIP3    H240764   6.931   2.686   0.136  0.3507 -1.0518  0.3769
 6377TIP3   OH240765   4.493   1.758   7.123 -0.0873 -0.1747 -0.1738
 6377TIP3    H140766   4.438   1.684   7.098  0.2402 -0.0260 -1.4121
 6377TIP3    H240767   4.578   1.740   7.082  0.6865 -0.2203  1.4080
 6378TIP3   OH240768   0.954   6.669   0.783  0.5750 -0.1817 -0.1312
 6378TIP3    H140769   1.044   6.675   0.751  0.3970  0.9443 -0.4673
 6378TIP3    H240770   0.905   6.730   0.729 -0.0808  0.4246  1.0908
 6379TIP3   OH240771   1.716   3.279   0.969 -0.3474  0.2609 -0.9176
 6379TIP3    H140772   1.665   3.357   0.946 -1.3955 -0.1852 -0.1978
 6379TIP3    H240773   1.650   3.216   0.999  0.6625 -0.1735  0.4974
 6380TIP3   OH240774   3.655   2.719   7.824  0.0857  0.3814  0.5612
 6380TIP3    H140775   3.595   2.717   7.750 -0.5400  0.0407  1.0737
 6380TIP3    H240776   3.677   2.628   7.840  1.1471  0.5313  0.0623
 6381TIP3   OH240777   1.289   6.828   8.544 -0.6366  0.5841 -0.5932
 6381TIP3    H140778   1.278   6.788   8.631  0.6658 -0.6568 -0.9580
 6381TIP3    H240779   1.319   6.917   8.562 -2.4789  1.0975  0.2287
 6382TIP3   OH240780   5.511   0.234   8.819 -0.2529 -0.1330 -0.4764
 6382TIP3    H140781   5.450   0.176   8.775 -0.3375  1.1381 -2.1314
 6382TIP3    H240782   5.598   0.201   8.794 -0.2760 -0.4472 -0.1533
 6383TIP3   OH240783   0.126   3.523   7.517  0.8126  0.1876  0.0456
 6383TIP3    H140784   0.210   3.559   7.488  0.4537 -0.6322 -2.2295
 6383TIP3    H240785   0.062   3.590   7.494  0.6810  0.2542  0.5809
 6384TIP3   OH240786   2.931   3.157   6.830  0.5958 -0.5729  0.5392
 6384TIP3    H140787   2.862   3.136   6.768 -0.4967 -1.3793  1.9563
 6384TIP3    H240788   2.930   3.253   6.835 -1.8961 -0.5835  2.0402
 6385TIP3   OH240789   6.773   0.002   7.999  0.0662  0.3667 -0.4337
 6385TIP3    H140790   6.807   0.039   7.918 -0.3524  1.1127 -0.2789
 6385TIP3    H240791   6.711   0.068   8.031 -1.0194 -0.6584 -0.3665
 6386TIP3   OH240792   1.715   6.367   8.078  0.2627  0.0707  0.0874
 6386TIP3    H140793   1.702   6.273   8.075  0.0727  0.1300 -1.8766
 6386TIP3    H240794   1.672   6.395   8.159  1.0119 -1.6049  1.0963
 6387TIP3   OH240795   2.243   3.988   1.670 -0.1561  0.0342  0.0309
 6387TIP3    H140796   2.234   4.031   1.585  0.5194 -0.9529 -0.5582
 6387TIP3    H240797   2.214   4.054   1.733 -0.1772  0.9666 -0.9230
 6388TIP3   OH240798   3.955   5.151   7.761  0.0694  0.4502  0.6745
 6388TIP3    H140799   3.977   5.137   7.669  1.8257 -0.3420  1.1775
 6388TIP3    H240800   3.861   5.136   7.766  0.2606 -1.5580 -0.6306
 6389TIP3   OH240801   2.420   4.018   2.097 -0.0402  0.0778 -0.2393
 6389TIP3    H140802   2.426   3.928   2.127 -1.0932 -0.0978 -0.5296
 6389TIP3    H240803   2.462   4.069   2.165 -0.6073 -0.5048  0.5627
 6390TIP3   OH240804   3.898   1.707   2.033  0.5080 -0.3115  0.0516
 6390TIP3    H140805   3.939   1.692   1.948  1.3915  1.2788  0.1567
 6390TIP3    H240806   3.853   1.625   2.053  2.4639 -1.6301 -0.7380
 6391TIP3   OH240807   2.819   3.903   1.046 -0.1514  0.2237  1.0060
 6391TIP3    H140808   2.777   3.917   0.962 -1.2434  0.3563  1.5563
 6391TIP3    H240809   2.758   3.847   1.094  1.0188 -0.8882  1.2757
 6392TIP3   OH240810   4.049   2.515   8.317 -0.0918 -0.6443 -0.2378
 6392TIP3    H140811   4.037   2.511   8.412  1.2075  0.3054 -0.0117
 6392TIP3    H240812   3.999   2.591   8.289 -0.0904 -0.6469 -0.2475
 6393TIP3   OH240813   4.205   5.219   1.634 -0.0781 -0.0250  0.2826
 6393TIP3    H140814   4.140   5.277   1.594 -0.9758 -1.2022  0.0028
 6393TIP3    H240815   4.157   5.138   1.652  1.5365 -1.2643 -0.7766
 6394TIP3   OH240816   3.640   6.553   0.371 -0.0088 -0.4289 -0.0542
 6394TIP3    H140817   3.708   6.621   0.372  1.6991 -2.0166 -1.3480
 6394TIP3    H240818   3.558   6.602   0.362  1.1388  1.4728 -0.9240
 6395TIP3   OH240819   0.746   0.976   8.366  0.0809 -0.0082 -0.0789
 6395TIP3    H140820   0.661   0.983   8.323 -0.5187  0.5150  1.1236
 6395TIP3    H240821   0.745   0.889   8.406 -0.4988  0.5168  1.1060
 6396TIP3   OH240822   0.506   0.736   1.773  0.4887 -0.8758  0.0797
 6396TIP3    H140823   0.596   0.721   1.802  0.8063 -0.1267 -0.4908
 6396TIP3    H240824   0.471   0.799   1.836  0.5342 -0.7749  0.0052
 6397TIP3   OH240825   1.629   6.694   7.918  0.0387 -0.1964  0.1271
 6397TIP3    H140826   1.653   6.674   7.827 -0.6874  0.9806 -0.3432
 6397TIP3    H240827   1.685   6.768   7.942 -1.1156  0.7597 -0.0431
 6398TIP3   OH240828   1.651   4.319   0.752 -0.0231  0.0891  0.3835
 6398TIP3    H140829   1.561   4.304   0.721 -0.1588 -0.7801  1.1442
 6398TIP3    H240830   1.679   4.234   0.786  0.5990  0.6705  1.3876
 6399TIP3   OH240831   2.397   4.348   8.374  0.0884  0.2133 -0.2765
 6399TIP3    H140832   2.317   4.342   8.322 -1.0628  1.7730  1.1921
 6399TIP3    H240833   2.366   4.360   8.464  1.9878  0.0018  0.4426
 6400TIP3   OH240834   2.677   4.026   2.568  0.7224  0.5279  0.0659
 6400TIP3    H140835   2.604   3.984   2.613  0.2786  0.7076 -0.4696
 6400TIP3    H240836   2.746   4.032   2.633  1.1706 -1.9369 -0.1190
 6401TIP3   OH240837   1.495   4.384   0.261  0.1815  0.4058 -0.3109
 6401TIP3    H140838   1.405   4.380   0.228  0.1636  1.4814 -0.4405
 6401TIP3    H240839   1.497   4.463   0.315  0.1211 -1.3988  2.5558
 6402TIP3   OH240840   5.343   0.246   8.234  0.2282  0.3258  0.2597
 6402TIP3    H140841   5.263   0.197   8.252 -0.8172  2.1103  0.8045
 6402TIP3    H240842   5.364   0.289   8.317 -0.2372  2.5675 -0.6879
 6403TIP3   OH240843   2.475   0.433   6.492  0.8753 -0.5695 -0.4959
 6403TIP3    H140844   2.390   0.465   6.462 -0.0255 -0.3523  2.0104
 6403TIP3    H240845   2.455   0.384   6.572  3.2018  0.8344  1.0934
 6404TIP3   OH240846   6.725   4.278   8.247  0.0074 -0.0741 -0.0121
 6404TIP3    H140847   6.776   4.330   8.309 -1.8632 -0.7098  2.2123
 6404TIP3    H240848   6.693   4.204   8.299  0.0382 -1.8163 -2.2980
 6405TIP3   OH240849   4.151   1.557   2.039  0.5945 -0.5113 -0.0436
 6405TIP3    H140850   4.117   1.633   1.992 -0.2989 -0.9796 -0.1724
 6405TIP3    H240851   4.236   1.586   2.073 -0.0664  0.8026  0.5676
 6406TIP3   OH240852   1.311   5.387   0.753  0.6023  0.1875  0.1708
 6406TIP3    H140853   1.286   5.361   0.842  1.2667 -0.9597  0.0429
 6406TIP3    H240854   1.384   5.449   0.765  0.6404  0.0920  0.4289
 6407TIP3   OH240855   1.456   3.007   8.105 -0.0384 -0.3392 -0.5584
 6407TIP3    H140856   1.379   3.005   8.049  0.0138  0.4818 -0.6756
 6407TIP3    H240857   1.525   3.045   8.051  0.5449 -1.3559 -0.5543
 6408TIP3   OH240858   0.954   5.212   8.737 -0.1750  0.2940 -0.0413
 6408TIP3    H140859   0.992   5.191   8.822  1.7071  2.6852 -0.1902
 6408TIP3    H240860   0.937   5.306   8.740 -1.5168  0.1747 -1.7911
 6409TIP3   OH240861   0.210   0.866   1.684  0.0301  0.4440 -0.3055
 6409TIP3    H140862   0.258   0.783   1.687 -0.2380  0.3211  1.5195
 6409TIP3    H240863   0.118   0.841   1.677 -0.3249  0.3945  2.8739
 6410TIP3   OH240864   4.219   1.026   2.668  0.3848  0.5732  0.0024
 6410TIP3    H140865   4.169   0.982   2.600  0.7018  0.5210 -0.1977
 6410TIP3    H240866   4.153   1.069   2.723  0.1602  1.1087 -0.6759
 6411TIP3   OH240867   2.248   5.131   1.579 -0.1443  0.3625 -0.1146
 6411TIP3    H140868   2.331   5.163   1.614 -1.0555  1.9153  0.7601
 6411TIP3    H240869   2.211   5.078   1.650  0.2300 -0.5921 -0.6220
 6412TIP3   OH240870   2.413   6.356   2.243 -0.1039 -0.0424 -0.1637
 6412TIP3    H140871   2.470   6.296   2.290  0.4897 -0.4521 -1.3589
 6412TIP3    H240872   2.426   6.334   2.151 -0.3949  1.4512 -0.5892
 6413TIP3   OH240873   4.335   2.297   7.829  0.8132 -0.2969 -0.5072
 6413TIP3    H140874   4.267   2.364   7.832  1.3282  0.2217  0.8954
 6413TIP3    H240875   4.397   2.324   7.898  1.1458 -2.0859 -0.0652
 6414TIP3   OH240876   4.745   2.303   0.217  0.2918  0.7029 -0.1319
 6414TIP3    H140877   4.711   2.214   0.204  2.4460  0.0326 -1.7912
 6414TIP3    H240878   4.713   2.352   0.140  0.9055  0.7579 -0.3565
 6415TIP3   OH240879   1.881   0.372   0.089 -0.0393  0.1164 -0.0349
 6415TIP3    H140880   1.794   0.342   0.114 -0.7644  0.6498 -1.7803
 6415TIP3    H240881   1.939   0.300   0.114 -0.8766  0.0047  1.7079
 6416TIP3   OH240882   4.658   0.634   1.420  0.4339 -0.1882 -0.3382
 6416TIP3    H140883   4.693   0.714   1.459  1.4395 -0.5488 -0.4670
 6416TIP3    H240884   4.648   0.573   1.494  0.8734 -0.3540 -0.4084
 6417TIP3   OH240885   1.363   2.529   1.138  0.2140  0.1876 -0.0871
 6417TIP3    H140886   1.445   2.548   1.183  1.5144  0.4300 -2.4466
 6417TIP3    H240887   1.337   2.443   1.172  1.0893  0.3671  1.1176
 6418TIP3   OH240888   0.969   4.846   8.651 -0.0935 -0.0555 -0.1674
 6418TIP3    H140889   0.980   4.752   8.643 -1.6717 -0.3682  0.8141
 6418TIP3    H240890   0.874   4.860   8.645  0.1086  1.4664 -0.3200
 6419TIP3   OH240891   0.107   4.221   1.965 -0.0554  0.3185 -0.4035
 6419TIP3    H140892   0.038   4.159   1.989 -0.2376  0.0942 -1.4617
 6419TIP3    H240893   0.177   4.205   2.028 -1.1990  1.0084  1.1276
 6420TIP3   OH240894   3.539   6.158   7.312 -1.0088  1.1107 -0.4766
 6420TIP3    H140895   3.590   6.081   7.336 -1.6449  0.8849  0.2229
 6420TIP3    H240896   3.553   6.169   7.218  1.7206  2.1084 -0.0260
 6421TIP3   OH240897   2.937   4.539   7.915 -0.9544  0.3764 -0.0218
 6421TIP3    H140898   2.913   4.626   7.949 -2.4123 -0.2265  0.5881
 6421TIP3    H240899   2.930   4.481   7.991 -0.4913 -0.3597 -0.5327
 6422TIP3   OH240900   3.328   3.026   8.182  0.0708 -0.1560 -0.5382
 6422TIP3    H140901   3.401   2.966   8.169  0.1368 -0.0876 -0.4831
 6422TIP3    H240902   3.282   3.026   8.099 -0.6243 -1.2124 -0.1802
 6423TIP3   OH240903   1.785   3.058   8.196  0.2000  1.0984  0.4245
 6423TIP3    H140904   1.859   3.117   8.180  0.5831  0.6090  0.3599
 6423TIP3    H240905   1.826   2.975   8.219 -0.3398  1.0061  1.0596
 6424TIP3   OH240906   2.937   2.718   1.770  0.3748  0.1672  0.3388
 6424TIP3    H140907   2.920   2.726   1.676 -1.9231  1.4236  0.7931
 6424TIP3    H240908   3.010   2.656   1.776 -0.5022 -1.2541 -2.1970
 6425TIP3   OH240909   4.101   1.773   0.438 -0.0486  0.5275  0.0825
 6425TIP3    H140910   4.084   1.859   0.399 -1.1418  0.0528 -0.5347
 6425TIP3    H240911   4.149   1.726   0.370  2.1325  1.1914  1.0694
 6426TIP3   OH240912   0.401   2.020   2.487  0.4208  0.9508  0.1055
 6426TIP3    H140913   0.312   2.053   2.500  0.1513 -0.1974  1.4576
 6426TIP3    H240914   0.430   1.994   2.575  1.3921 -0.4170 -0.5823
 6427TIP3   OH240915   5.077   6.694   0.462 -0.4678 -0.1714 -0.2328
 6427TIP3    H140916   5.070   6.600   0.447 -0.0196 -0.4059  0.9186
 6427TIP3    H240917   5.109   6.702   0.552  3.5004  0.9595 -1.5016
 6428TIP3   OH240918   4.854   1.863   1.700  0.4840 -0.6748 -0.3029
 6428TIP3    H140919   4.819   1.952   1.695 -0.7329 -0.8432  2.7042
 6428TIP3    H240920   4.903   1.862   1.782  3.2658 -1.9456 -1.8789
 6429TIP3   OH240921   1.564   2.029   8.136 -0.0762  0.1455 -0.2304
 6429TIP3    H140922   1.600   2.019   8.048 -1.2678 -0.8987 -0.6262
 6429TIP3    H240923   1.536   1.941   8.161 -0.1920  0.5130  1.0082
 6430TIP3   OH240924   3.772   6.424   8.454  0.3513  0.1892  0.6020
 6430TIP3    H140925   3.739   6.345   8.410  1.1665 -0.1992  0.6750
 6430TIP3    H240926   3.847   6.452   8.402  0.2156  0.7807  0.7168
 6431TIP3   OH240927   5.477   2.677   2.832 -0.1529 -0.4139 -0.2252
 6431TIP3    H140928   5.524   2.758   2.855  1.0038 -1.1407  0.0766
 6431TIP3    H240929   5.392   2.686   2.874 -0.3453  1.0039 -0.8803
 6432TIP3   OH240930   5.740   0.855   7.931 -0.1201 -0.4461 -0.0388
 6432TIP3    H140931   5.787   0.893   7.857  0.3648  0.9720  0.9554
 6432TIP3    H240932   5.649   0.851   7.902  0.3328 -1.8716 -1.4451
 6433TIP3   OH240933   2.349   0.587   1.082  0.0123  0.6208 -0.2408
 6433TIP3    H140934   2.355   0.593   0.986 -0.3157  0.2200 -0.2857
 6433TIP3    H240935   2.293   0.512   1.098  1.6786 -0.5613  0.2960
 6434TIP3   OH240936   3.631   6.231   1.874  0.0938  0.3732 -0.2448
 6434TIP3    H140937   3.684   6.238   1.953  2.2531  1.6828 -1.6849
 6434TIP3    H240938   3.546   6.269   1.898  0.8741  1.2466  1.2742
 6435TIP3   OH240939   1.793   6.708   8.261 -0.1902 -0.5128  0.2454
 6435TIP3    H140940   1.739   6.705   8.340 -0.2984 -1.0489  0.1495
 6435TIP3    H240941   1.819   6.618   8.245 -0.0683 -0.3930 -0.2677
 6436TIP3   OH240942   4.348   1.806   1.416 -0.2508 -0.0114  0.3414
 6436TIP3    H140943   4.421   1.813   1.478  0.1194 -0.3599 -0.0467
 6436TIP3    H240944   4.376   1.738   1.354 -1.1841 -0.6072  0.5603
 6437TIP3   OH240945   0.139   2.820   7.695 -0.5527 -0.3764 -0.6331
 6437TIP3    H140946   0.176   2.826   7.607  2.2546  0.1887  0.4901
 6437TIP3    H240947   0.150   2.729   7.721 -0.5321 -0.3446 -0.5269
 6438TIP3   OH240948   2.163   2.748   1.655  0.5298  0.1584  0.0371
 6438TIP3    H140949   2.205   2.754   1.569 -0.7203 -1.1028 -0.7008
 6438TIP3    H240950   2.113   2.667   1.652 -1.2396  1.1308  1.1893
 6439TIP3   OH240951   2.264   0.564   8.163 -0.5450 -0.2296 -0.0279
 6439TIP3    H140952   2.215   0.542   8.084  0.9083  0.2107 -1.0870
 6439TIP3    H240953   2.297   0.480   8.195 -0.7994 -0.3612 -0.1081
 6440TIP3   OH240954   3.420   5.153   8.331  0.4035  0.4774 -0.5786
 6440TIP3    H140955   3.337   5.105   8.334  0.2004  0.8344  1.5881
 6440TIP3    H240956   3.396   5.240   8.298 -0.3020  0.8915  0.9374
 6441TIP3   OH240957   5.294   3.559   2.784 -0.2750 -0.1088  0.5761
 6441TIP3    H140958   5.351   3.505   2.729  1.3589  2.3313 -0.2844
 6441TIP3    H240959   5.229   3.595   2.723  2.0354  3.2746 -0.1830
 6442TIP3   OH240960   5.081   0.432   0.713 -0.1879 -0.0403  0.1893
 6442TIP3    H140961   4.989   0.458   0.720 -0.2822 -0.0124 -0.9726
 6442TIP3    H240962   5.080   0.337   0.726 -0.4004 -0.0599  0.0376
 6443TIP3   OH240963   4.247   2.175   7.375  0.3967  0.2904 -0.4157
 6443TIP3    H140964   4.255   2.082   7.350 -1.5955 -0.7105  2.2271
 6443TIP3    H240965   4.336   2.209   7.367  1.4892 -2.2252 -0.1214
 6444TIP3   OH240966   5.316   0.072   8.505  0.0414  0.5094 -0.1153
 6444TIP3    H140967   5.402   0.114   8.502  0.0145  0.5490 -0.3821
 6444TIP3    H240968   5.296   0.065   8.598  0.5594  0.0357 -0.0318
 6445TIP3   OH240969   2.878   5.307   8.003 -0.2100 -1.2031  0.5256
 6445TIP3    H140970   2.861   5.359   8.082 -0.4199 -1.6335  0.7669
 6445TIP3    H240971   2.882   5.372   7.932 -0.0684 -0.8200  0.8808
 6446TIP3   OH240972   3.210   1.575   2.927  0.1128  0.0960  0.7508
 6446TIP3    H140973   3.180   1.664   2.912 -1.1023 -0.6510 -2.0744
 6446TIP3    H240974   3.131   1.527   2.952  0.4533 -0.4388  0.8116
 6447TIP3   OH240975   2.748   2.775   7.641  0.2677 -0.5356  0.3827
 6447TIP3    H140976   2.815   2.713   7.670  0.1854 -0.6578  0.3146
 6447TIP3    H240977   2.715   2.738   7.559  1.0524  0.1973 -0.2975
 6448TIP3   OH240978   4.783   3.216   1.946  0.4894  0.3419  0.9527
 6448TIP3    H140979   4.805   3.126   1.919  1.2020  1.0969 -1.2396
 6448TIP3    H240980   4.687   3.221   1.937  0.6513  0.4673 -1.4902
 6449TIP3   OH240981   6.453   1.326   1.831  0.0839  0.1675  0.2764
 6449TIP3    H140982   6.423   1.263   1.765 -0.4095  0.6272  0.0476
 6449TIP3    H240983   6.497   1.273   1.897  1.3092 -0.2148 -0.8151
 6450TIP3   OH240984   5.980   1.741   8.100  0.0300 -0.5294  0.0721
 6450TIP3    H140985   5.921   1.752   8.025 -0.1737  1.6412  0.4566
 6450TIP3    H240986   6.063   1.713   8.062 -0.9191 -2.6394 -0.5851
 6451TIP3   OH240987   0.491   0.195   8.361  0.1777  0.0937 -0.1016
 6451TIP3    H140988   0.433   0.189   8.437 -0.5544 -2.8901 -0.7575
 6451TIP3    H240989   0.449   0.140   8.295  1.4149  1.6068 -2.2778
 6452TIP3   OH240990   1.829   3.508   1.057 -0.0382  0.2459  0.1054
 6452TIP3    H140991   1.794   3.422   1.036 -1.4279  1.1499 -1.5920
 6452TIP3    H240992   1.891   3.493   1.128 -2.0097 -1.8166  1.5060
 6453TIP3   OH240993   1.277   6.444   0.054  0.0783  0.4200 -0.4426
 6453TIP3    H140994   1.369   6.462   0.072 -0.5191  2.7209  0.6266
 6453TIP3    H240995   1.274   6.425  -0.040  1.5457  0.8915 -0.6029
 6454TIP3   OH240996   2.867   2.550   8.797  0.1172  0.0032 -0.1037
 6454TIP3    H140997   2.819   2.557   8.714 -0.0314 -0.9006 -0.0968
 6454TIP3    H240998   2.802   2.521   8.860  0.7511 -1.7059 -0.1905
 6455TIP3   OH240999   6.288   4.707   8.444  0.1202  0.0700 -0.1811
 6455TIP3    H141000   6.308   4.792   8.483 -0.6710  1.0513 -1.7861
 6455TIP3    H241001   6.203   4.683   8.481 -0.8363  1.2033 -1.5318
 6456TIP3   OH241002   6.602   4.714   8.503 -0.7536  0.8189 -0.3218
 6456TIP3    H141003   6.599   4.621   8.528 -2.5721  1.4692  2.2894
 6456TIP3    H241004   6.543   4.721   8.428 -2.2007  0.1407  0.7147
 6457TIP3   OH241005   3.782   2.688   0.971  0.0561 -0.3022 -0.3448
 6457TIP3    H141006   3.843   2.759   0.949  0.0517 -0.6077 -1.4122
 6457TIP3    H241007   3.744   2.663   0.887 -0.5589 -1.0155  0.1364
 6458TIP3   OH241008   6.156   0.440   1.813 -0.0128 -0.2630 -0.0124
 6458TIP3    H141009   6.238   0.395   1.791  1.5443  0.4274  3.6543
 6458TIP3    H241010   6.088   0.391   1.767  2.1671 -2.5987 -0.9752
 6459TIP3   OH241011   3.791   4.403   7.223  0.1808 -0.1363  0.9814
 6459TIP3    H141012   3.868   4.345   7.227 -0.5921 -1.3461 -0.5464
 6459TIP3    H241013   3.826   4.486   7.192  0.7803 -0.9869 -0.7909
 6460TIP3   OH241014   6.743   3.303   7.226 -0.4854  0.1507  0.5443
 6460TIP3    H141015   6.828   3.267   7.254 -0.4960 -0.1577  0.1904
 6460TIP3    H241016   6.759   3.335   7.137 -1.6262 -3.3779 -1.1543
 6461TIP3   OH241017   2.575   4.993   1.615  0.2367  0.3124 -0.3894
 6461TIP3    H141018   2.530   5.055   1.673 -0.7934 -0.1487 -0.6787
 6461TIP3    H241019   2.661   5.032   1.602 -0.3776  1.6862 -0.5542
 6462TIP3   OH241020   3.927   1.752   7.622  0.6569 -0.4870  0.0426
 6462TIP3    H141021   3.939   1.802   7.703 -1.6919  0.1373  0.0674
 6462TIP3    H241022   3.886   1.670   7.650  1.1580 -0.8921 -0.3818
 6463TIP3   OH241023   6.119   3.959   8.329  0.1165  0.0707  0.0544
 6463TIP3    H141024   6.154   3.924   8.411 -0.2450  1.1708  0.7011
 6463TIP3    H241025   6.168   4.040   8.314 -1.7243  1.3602  0.7034
 6464TIP3   OH241026   6.492   0.584   0.318 -0.2930 -0.4987 -0.4525
 6464TIP3    H141027   6.509   0.653   0.381 -0.2569 -1.2251  0.3582
 6464TIP3    H241028   6.558   0.517   0.338  0.4728 -0.2612 -2.0134
 6465TIP3   OH241029   0.574   2.021   1.417 -0.3025 -0.3938  0.5766
 6465TIP3    H141030   0.550   2.021   1.510 -0.2452  0.4971  0.6001
 6465TIP3    H241031   0.669   2.021   1.417 -0.2633 -2.2248  0.4902
 6466TIP3   OH241032   6.391   0.646   1.125 -0.3927 -0.0977 -0.3088
 6466TIP3    H141033   6.357   0.595   1.051  0.6730 -0.2870 -0.6959
 6466TIP3    H241034   6.483   0.620   1.131 -0.2120  0.6676  0.4516
 6467TIP3   OH241035   1.597   6.208   7.815  0.2385 -0.4648 -0.6920
 6467TIP3    H141036   1.540   6.237   7.887  0.7720 -1.3095  0.0792
 6467TIP3    H241037   1.627   6.290   7.775 -1.8998  0.0264 -1.4557
 6468TIP3   OH241038   5.023   2.481   1.258  0.7766  0.8583  0.1201
 6468TIP3    H141039   5.002   2.501   1.349 -0.4496  0.3142 -0.0221
 6468TIP3    H241040   4.944   2.504   1.209  1.6204  1.7031 -0.9110
 6469TIP3   OH241041   1.849   6.333   7.418 -0.2849 -1.0409  0.0248
 6469TIP3    H141042   1.842   6.344   7.323 -0.4811  0.7189  0.2040
 6469TIP3    H241043   1.943   6.325   7.435 -0.3256 -3.0065 -0.4297
 6470TIP3   OH241044   0.433   1.895   7.802 -0.3119 -0.0748 -0.5903
 6470TIP3    H141045   0.482   1.842   7.739  0.2193 -0.8123  0.4089
 6470TIP3    H241046   0.499   1.950   7.844 -0.1391 -1.5200  1.2164
 6471TIP3   OH241047   1.333   6.763   0.432  0.7496 -0.1237 -0.4570
 6471TIP3    H141048   1.370   6.846   0.402 -0.1203  0.3162 -0.3690
 6471TIP3    H241049   1.361   6.756   0.523 -1.4109  1.5030  0.4491
 6472TIP3   OH241050   3.504   6.675   1.803  0.0641 -0.7005 -0.2184
 6472TIP3    H141051   3.529   6.606   1.742 -1.5939 -2.3362  0.8388
 6472TIP3    H241052   3.445   6.731   1.753  1.4246  0.0002 -1.0883
 6473TIP3   OH241053   6.233   1.754   1.523  0.7318  0.5104 -0.1557
 6473TIP3    H141054   6.289   1.735   1.448 -0.0904 -2.7185 -0.1128
 6473TIP3    H241055   6.144   1.757   1.487  0.6285  3.2489  0.1289
 6474TIP3   OH241056   5.757   2.545   8.179  0.5556  0.0565  0.2433
 6474TIP3    H141057   5.700   2.539   8.255 -0.1161 -1.4408 -0.3353
 6474TIP3    H241058   5.699   2.529   8.104  1.6399 -1.0633 -0.3990
 6475TIP3   OH241059   5.028   3.193   7.586  0.0656  0.3904  0.0708
 6475TIP3    H141060   4.997   3.151   7.506 -1.3950  0.4860  0.5583
 6475TIP3    H241061   5.100   3.137   7.616  0.2919  0.0631 -1.0030
 6476TIP3   OH241062   1.114   1.256   0.920 -0.1721  0.2296  0.2227
 6476TIP3    H141063   1.154   1.342   0.912  0.2158  0.1432  1.0824
 6476TIP3    H241064   1.185   1.194   0.904 -0.2835  0.0718  0.3256
 6477TIP3   OH241065   4.057   3.665   0.313 -0.0705 -0.0217  0.1644
 6477TIP3    H141066   4.039   3.630   0.225  1.1181 -1.2315  0.3694
 6477TIP3    H241067   4.151   3.684   0.313 -0.1623  0.4965  1.0032
 6478TIP3   OH241068   6.283   3.934   2.470  0.0220  0.0498 -0.0933
 6478TIP3    H141069   6.260   3.957   2.380  0.6867  0.8379 -0.0714
 6478TIP3    H241070   6.345   3.862   2.462 -0.7496 -0.6171 -0.2190
 6479TIP3   OH241071   0.131   0.366   0.872  0.4605 -1.0730 -0.3328
 6479TIP3    H141072   0.107   0.450   0.913 -1.2856 -1.3518 -0.7071
 6479TIP3    H241073   0.099   0.300   0.933  1.3478 -1.4782 -0.3014
 6480TIP3   OH241074   1.693   1.505   7.913  0.6586 -0.1372  0.3268
 6480TIP3    H141075   1.603   1.531   7.935  0.6331 -0.2123  0.3125
 6480TIP3    H241076   1.682   1.426   7.860  0.7286 -0.0837  0.2320
 6481TIP3   OH241077   5.603   4.857   8.163  0.2358 -0.3769 -0.2437
 6481TIP3    H141078   5.566   4.943   8.147  1.9583  0.4954  0.2179
 6481TIP3    H241079   5.613   4.851   8.258 -1.6747 -1.9191 -0.0763
 6482TIP3   OH241080   6.262   0.605   7.449 -0.4828 -0.4213 -0.3590
 6482TIP3    H141081   6.275   0.670   7.380  0.6775 -1.0281 -0.7285
 6482TIP3    H241082   6.252   0.657   7.529  1.8624  0.2127 -0.4058
 6483TIP3   OH241083   5.414   3.981   7.250 -0.1945 -0.2674 -0.3093
 6483TIP3    H141084   5.452   3.895   7.238 -0.6198 -0.2825 -1.6864
 6483TIP3    H241085   5.462   4.019   7.324  1.3736 -0.8989 -0.9672
 6484TIP3   OH241086   4.664   4.737   0.164 -0.5505 -0.0099 -0.0281
 6484TIP3    H141087   4.572   4.763   0.162 -1.2849 -2.4104 -0.6692
 6484TIP3    H241088   4.687   4.736   0.257 -0.4516  2.6798  0.0613
 6485TIP3   OH241089   5.010   6.203   0.428  0.3974  0.2747  0.3944
 6485TIP3    H141090   5.066   6.135   0.465  0.3789  0.2525  0.3820
 6485TIP3    H241091   5.027   6.281   0.481  0.3786  0.2457  0.4425
 6486TIP3   OH241092   0.403   0.285   8.615  0.0980 -0.9261  0.0538
 6486TIP3    H141093   0.315   0.299   8.650 -0.2723  0.2894 -1.2819
 6486TIP3    H241094   0.455   0.355   8.653  0.5192 -1.6339  0.8297
 6487TIP3   OH241095   6.665   0.400   0.393  0.0568  0.5327 -0.1911
 6487TIP3    H141096   6.689   0.313   0.360 -0.7624  0.1470  0.1823
 6487TIP3    H241097   6.740   0.428   0.445  0.6872  0.4319 -1.0438
 6488TIP3   OH241098   0.558   6.427   1.603  0.1627 -0.0305 -0.1558
 6488TIP3    H141099   0.482   6.436   1.545  0.3889  0.5985 -0.3604
 6488TIP3    H241100   0.534   6.356   1.663 -0.3609 -0.2090 -0.5679
 6489TIP3   OH241101   6.340   4.762   0.922  0.1013  0.4860 -0.6306
 6489TIP3    H141102   6.265   4.802   0.878 -0.1749  0.4291 -0.2155
 6489TIP3    H241103   6.412   4.823   0.905 -0.4618  1.5259  0.5446
 6490TIP3   OH241104   5.220   3.785   0.268 -0.2549  0.3385 -0.0275
 6490TIP3    H141105   5.156   3.856   0.270 -0.4585  0.1532  0.3401
 6490TIP3    H241106   5.305   3.828   0.268 -0.3793  0.5854 -0.2344
 6491TIP3   OH241107   6.788   1.144   8.514 -0.2208 -0.2479  0.5122
 6491TIP3    H141108   6.806   1.199   8.438 -0.4349  1.1372  1.4380
 6491TIP3    H241109   6.825   1.059   8.491 -1.3440 -0.2359 -1.6359
 6492TIP3   OH241110   5.851   4.607   0.503  0.5676  0.4340  0.4005
 6492TIP3    H141111   5.805   4.606   0.587  0.0100 -0.1080  0.1014
 6492TIP3    H241112   5.889   4.519   0.495 -1.0143 -0.2080 -0.7579
 6493TIP3   OH241113   1.902   6.470   7.926 -0.0999 -0.2542  0.0334
 6493TIP3    H141114   1.834   6.438   7.986  0.1020  1.0534  1.0014
 6493TIP3    H241115   1.878   6.434   7.841 -0.5598 -1.9228  0.8271
 6494TIP3   OH241116   4.143   4.160   1.750  0.4192 -0.7375  0.4743
 6494TIP3    H141117   4.089   4.238   1.738 -0.3119 -1.3087 -0.0485
 6494TIP3    H241118   4.098   4.111   1.819 -0.1510 -1.5553 -0.4499
 6495TIP3   OH241119   3.237   6.426   7.833  0.2457 -0.3024 -0.1672
 6495TIP3    H141120   3.331   6.407   7.826  0.3883  0.4272 -0.2362
 6495TIP3    H241121   3.222   6.498   7.772  0.4272  2.3315  2.6528
 6496TIP3   OH241122   4.280   5.047   1.268  0.3582 -0.2939 -0.2672
 6496TIP3    H141123   4.296   4.975   1.207 -0.7451 -0.7546 -0.0467
 6496TIP3    H241124   4.197   5.024   1.310 -0.3165  1.3903 -0.6076
 6497TIP3   OH241125   5.974   1.736   1.411  0.1439 -0.6098  0.6753
 6497TIP3    H141126   5.902   1.711   1.468 -0.5374 -1.1089 -0.3791
 6497TIP3    H241127   5.939   1.728   1.322  1.6687 -1.5092  0.0997
 6498TIP3   OH241128   1.949   0.753   1.818 -0.3780 -0.3884  0.7698
 6498TIP3    H141129   1.984   0.688   1.878 -1.2716 -0.0937  1.6427
 6498TIP3    H241130   1.979   0.837   1.853 -0.5509 -0.2377  0.5646
 6499TIP3   OH241131   5.078   4.209   7.737  0.2159  0.1146 -0.2384
 6499TIP3    H141132   5.072   4.136   7.799 -2.4928  0.7576  0.3623
 6499TIP3    H241133   5.120   4.171   7.660 -1.4560 -2.2333 -0.0887
 6500TIP3   OH241134   4.330   4.195   0.423 -0.4793  0.5003 -0.1299
 6500TIP3    H141135   4.287   4.228   0.344  2.1019  1.1659 -1.3863
 6500TIP3    H241136   4.303   4.104   0.429  0.9237 -0.2071 -3.1122
 6501TIP3   OH241137   4.137   2.729   2.015  0.4057  0.1466 -0.2256
 6501TIP3    H141138   4.138   2.821   1.991 -0.8381 -0.0739 -1.2279
 6501TIP3    H241139   4.066   2.720   2.078  1.7043  0.1706  1.2916
 6502TIP3   OH241140   5.737   4.953   2.374 -0.7461  0.1779  0.5470
 6502TIP3    H141141   5.805   4.990   2.430  0.7554  0.0032 -1.0766
 6502TIP3    H241142   5.785   4.899   2.311 -2.3858  0.2131 -0.7831
 6503TIP3   OH241143   3.851   1.779   0.548 -0.2843  0.9357  0.3150
 6503TIP3    H141144   3.797   1.780   0.469 -0.1651  2.4436  0.2351
 6503TIP3    H241145   3.938   1.808   0.518  0.2417 -0.1781  0.6901
 6504TIP3   OH241146   1.389   5.679   2.303  0.0177 -0.1381  0.4285
 6504TIP3    H141147   1.383   5.585   2.323  1.4158 -0.0919  1.1380
 6504TIP3    H241148   1.370   5.722   2.387  1.3003  0.1541  0.5870
 6505TIP3   OH241149   5.369   2.707   2.456 -0.9164 -0.3925 -0.0839
 6505TIP3    H141150   5.345   2.769   2.525 -0.8198 -1.0100  0.5164
 6505TIP3    H241151   5.435   2.650   2.497  0.2420  0.1335 -1.1372
 6506TIP3   OH241152   2.243   2.381   7.948  0.2586 -0.4677 -0.1000
 6506TIP3    H141153   2.154   2.372   7.981  1.0670 -0.7368  2.2048
 6506TIP3    H241154   2.272   2.291   7.932  0.8989 -0.6000  1.5667
 6507TIP3   OH241155   2.768   2.003   8.385  0.0665 -0.9742  0.3727
 6507TIP3    H141156   2.744   2.046   8.467  0.4237  0.3322 -0.1838
 6507TIP3    H241157   2.782   2.075   8.323 -0.8240 -1.9489 -1.0144
 6508TIP3   OH241158   3.879   1.414   7.345  0.5371  0.3709 -0.3076
 6508TIP3    H141159   3.784   1.424   7.333  0.5232 -0.1713 -0.6731
 6508TIP3    H241160   3.889   1.330   7.389  0.9127 -0.0710 -1.2201
 6509TIP3   OH241161   0.607   5.297   0.586  0.5581 -0.4390  0.1691
 6509TIP3    H141162   0.672   5.255   0.530 -0.0696 -1.1126 -0.0770
 6509TIP3    H241163   0.651   5.308   0.670  1.3996  0.2708 -0.3456
 6510TIP3   OH241164   0.789   5.097   0.915  0.4630 -0.1325  0.3258
 6510TIP3    H141165   0.693   5.099   0.913  0.4825  0.2173 -0.1542
 6510TIP3    H241166   0.813   5.033   0.849  0.6434  1.8304 -1.6097
 6511TIP3   OH241167   0.856   0.258   2.341  0.1823 -0.7402 -0.4906
 6511TIP3    H141168   0.831   0.333   2.287 -1.6289 -0.4431  0.6729
 6511TIP3    H241169   0.774   0.212   2.358  0.8903 -1.5538  0.9316
 6512TIP3   OH241170   3.608   0.429   0.134  0.0851  0.1628  0.5397
 6512TIP3    H141171   3.703   0.429   0.121  0.0707  2.1113  0.1676
 6512TIP3    H241172   3.577   0.357   0.079  1.2822 -0.0545  0.1067
 6513TIP3   OH241173   2.683   6.145   0.733  0.2487 -0.3072 -0.0928
 6513TIP3    H141174   2.631   6.078   0.687  0.9433 -1.1992  0.3902
 6513TIP3    H241175   2.676   6.223   0.677 -0.1638 -0.9274 -0.9320
 6514TIP3   OH241176   4.171   4.722   2.431 -0.1978  0.3155  0.4766
 6514TIP3    H141177   4.219   4.780   2.372 -1.3359  0.0063 -0.8025
 6514TIP3    H241178   4.159   4.774   2.511  0.2528  1.2177 -0.0222
 6515TIP3   OH241179   6.803   5.673   2.650 -0.0688 -0.1868  0.4560
 6515TIP3    H141180   6.892   5.695   2.624 -0.3488  1.1443  0.5496
 6515TIP3    H241181   6.750   5.691   2.572 -0.4635  0.6302  0.9001
 6516TIP3   OH241182   4.977   3.264   2.601 -0.0479 -0.0177  0.5029
 6516TIP3    H141183   4.951   3.209   2.675  0.2232 -0.2803  0.4045
 6516TIP3    H241184   5.047   3.215   2.558 -0.7749 -0.2861 -0.4301
 6517TIP3   OH241185   4.211   0.175   1.597  0.6443  0.3369 -0.1656
 6517TIP3    H141186   4.129   0.209   1.633  0.2737 -2.0605  1.4323
 6517TIP3    H241187   4.265   0.253   1.584 -1.1667  1.7926  0.5978
 6518TIP3   OH241188   4.221   0.729   0.187 -0.1508 -0.4384 -0.3235
 6518TIP3    H141189   4.310   0.712   0.219  0.5422  0.1144 -1.8594
 6518TIP3    H241190   4.212   0.825   0.190 -0.9397 -0.5214  0.4033
 6519TIP3   OH241191   0.082   1.211   3.032 -0.2433  0.0325 -0.9292
 6519TIP3    H141192   0.159   1.260   3.059 -0.5305  1.2952 -2.2847
 6519TIP3    H241193   0.105   1.119   3.050 -0.1687  0.6372  2.7774
 6520TIP3   OH241194   4.292   6.683   7.745  0.6517 -0.2258 -0.1127
 6520TIP3    H141195   4.369   6.722   7.786 -0.3892  0.7545  0.9583
 6520TIP3    H241196   4.296   6.712   7.653  0.8242  0.9617  0.2568
 6521TIP3   OH241197   0.208   5.966   1.555  0.4669 -0.2536 -0.6423
 6521TIP3    H141198   0.160   5.918   1.487 -0.3451 -1.1718  0.5554
 6521TIP3    H241199   0.155   6.044   1.571 -2.1378 -2.3972  2.3981
 6522TIP3   OH241200   3.535   1.743   7.883  0.0206  0.2687  0.0990
 6522TIP3    H141201   3.492   1.663   7.914  0.2973 -0.1153 -0.4790
 6522TIP3    H241202   3.574   1.781   7.961  0.9597 -0.8369  0.2034
 6523TIP3   OH241203   1.775   1.900   8.574  0.1748 -0.0086  0.5094
 6523TIP3    H141204   1.812   1.946   8.499  1.7309 -0.9814  0.6288
 6523TIP3    H241205   1.688   1.938   8.586  0.9689  2.0992 -0.0497
 6524TIP3   OH241206   6.052   6.627   8.483  0.1137 -0.3658  0.4423
 6524TIP3    H141207   6.025   6.718   8.488  1.8271  0.1364  1.2433
 6524TIP3    H241208   5.983   6.579   8.530  0.4722  0.8468  2.3096
 6525TIP3   OH241209   4.822   3.066   1.471  0.3206 -0.0751  0.0773
 6525TIP3    H141210   4.845   3.096   1.559 -0.3822 -0.4649  0.4091
 6525TIP3    H241211   4.768   2.988   1.487  2.1973 -1.6293 -0.7356
 6526TIP3   OH241212   1.214   6.824   0.792 -0.1787  0.6601 -0.1187
 6526TIP3    H141213   1.230   6.730   0.792 -0.5918  0.5819 -0.8827
 6526TIP3    H241214   1.262   6.856   0.715  1.7685  1.4056  1.3307
 6527TIP3   OH241215   5.962   5.706   1.313 -0.1216  0.1233 -0.3730
 6527TIP3    H141216   5.953   5.739   1.224 -0.9981  1.0887  0.0500
 6527TIP3    H241217   5.969   5.611   1.303  0.2953  0.2556 -1.4903
 6528TIP3   OH241218   4.675   2.580   8.527  0.3684 -0.4246 -0.3461
 6528TIP3    H141219   4.701   2.596   8.436  1.2420  1.3653  0.1741
 6528TIP3    H241220   4.580   2.568   8.523  0.5990 -2.0380 -1.6791
 6529TIP3   OH241221   2.436   6.331   8.751  0.4762  0.1206 -0.0023
 6529TIP3    H141222   2.403   6.305   8.665  1.6293 -0.7754 -0.2012
 6529TIP3    H241223   2.395   6.416   8.768 -1.5647 -0.7198 -0.4072
 6530TIP3   OH241224   4.285   5.453   1.364 -0.1478  0.3737  0.3169
 6530TIP3    H141225   4.316   5.543   1.361  1.2365 -0.0383  1.1943
 6530TIP3    H241226   4.365   5.400   1.365 -0.9288 -0.8597  0.0996
 6531TIP3   OH241227   3.415   5.781   8.775 -0.7569 -0.3348  0.5399
 6531TIP3    H141228   3.474   5.831   8.831  1.7834 -1.2655 -1.1191
 6531TIP3    H241229   3.403   5.698   8.821 -0.2291 -0.3903  0.5789
 6532TIP3   OH241230   1.027   6.543   0.018  0.3006  0.0929  0.1575
 6532TIP3    H141231   1.078   6.463   0.030  0.6444  0.5267  1.7553
 6532TIP3    H241232   1.028   6.586   0.103 -2.5149  0.2750  0.1848
 6533TIP3   OH241233   0.941   5.047   7.597 -0.1065 -0.6333  0.4698
 6533TIP3    H141234   0.869   4.984   7.592  1.0152 -1.8463 -1.7777
 6533TIP3    H241235   0.950   5.066   7.691 -1.8537 -2.1936  1.0058
 6534TIP3   OH241236   4.902   4.393   1.969  0.3990  0.4515 -0.0070
 6534TIP3    H141237   4.930   4.390   1.878  2.8217 -1.9239  0.6842
 6534TIP3    H241238   4.843   4.318   1.979  0.6310  0.3339  0.5182
 6535TIP3   OH241239   0.804   2.373   7.867 -0.5591 -0.7568 -0.6048
 6535TIP3    H141240   0.767   2.457   7.841 -1.0198 -0.0637  2.0230
 6535TIP3    H241241   0.899   2.383   7.854 -0.7066 -0.2613 -1.3687
 6536TIP3   OH241242   4.052   0.753   8.505 -0.4820  0.1448  0.2961
 6536TIP3    H141243   4.122   0.744   8.570  0.4180  0.3553 -0.6152
 6536TIP3    H241244   3.998   0.674   8.516 -0.1424  0.0157  1.0614
 6537TIP3   OH241245   1.402   5.103   8.540  0.1888  0.7841  0.1934
 6537TIP3    H141246   1.384   5.064   8.454 -0.0185  0.3572  0.4262
 6537TIP3    H241247   1.326   5.078   8.594 -1.2681  3.6466 -0.3256
 6538TIP3   OH241248   4.480   5.150   8.312  0.2509  0.3960 -0.0800
 6538TIP3    H141249   4.392   5.139   8.347 -0.3265 -0.8483 -1.7763
 6538TIP3    H241250   4.538   5.116   8.379 -0.6828 -0.3141  0.3778
 6539TIP3   OH241251   3.471   1.006   0.105  0.1411 -0.2951  0.3862
 6539TIP3    H141252   3.381   1.036   0.093  0.2060 -0.5035 -0.6468
 6539TIP3    H241253   3.514   1.078   0.152  0.0475  0.8689 -1.2302
 6540TIP3   OH241254   6.169   1.290   8.460  0.1034 -0.5212 -0.0246
 6540TIP3    H141255   6.238   1.301   8.395 -0.7269  0.8109 -0.7456
 6540TIP3    H241256   6.196   1.214   8.512  1.8500 -0.3259 -0.5733
 6541TIP3   OH241257   3.200   3.177   2.737  0.4320 -0.6132  0.0869
 6541TIP3    H141258   3.146   3.248   2.771  1.4125  0.9378 -1.4136
 6541TIP3    H241259   3.139   3.105   2.720 -0.6176 -0.0722  1.4174
 6542TIP3   OH241260   5.623   3.332   8.762  0.1995 -0.3642 -0.3120
 6542TIP3    H141261   5.590   3.243   8.775 -1.3040  0.2935  0.6662
 6542TIP3    H241262   5.559   3.372   8.703  1.5956 -0.2896 -1.8588
 6543TIP3   OH241263   5.624   0.106   7.488 -0.2075 -0.5604  0.4300
 6543TIP3    H141264   5.687   0.174   7.511 -0.3158  0.4084 -1.8922
 6543TIP3    H241265   5.546   0.126   7.541  0.5682 -0.3414  1.5294
 6544TIP3   OH241266   3.928   4.860   0.935  0.1823 -0.2964 -0.5994
 6544TIP3    H141267   3.966   4.772   0.928  1.8755  0.2797  0.6559
 6544TIP3    H241268   4.002   4.916   0.958 -1.3071  1.0400  1.2486
 6545TIP3   OH241269   3.896   3.804   2.246 -0.2877  0.4171 -0.8840
 6545TIP3    H141270   3.895   3.870   2.316 -2.1149  1.7693 -2.0776
 6545TIP3    H241271   3.909   3.721   2.291  0.8738  1.4621  0.8116
 6546TIP3   OH241272   6.386   3.844   7.558 -0.2690  0.3095 -0.2775
 6546TIP3    H141273   6.323   3.784   7.599 -0.3582  0.6876  0.1419
 6546TIP3    H241274   6.424   3.892   7.632  3.9298 -3.0604  0.1618
 6547TIP3   OH241275   4.552   3.940   2.020  0.0616 -0.2293  0.0866
 6547TIP3    H141276   4.466   3.974   1.996  0.0138 -0.0955  0.4386
 6547TIP3    H241277   4.533   3.866   2.078  0.1645 -0.8642 -0.6745
 6548TIP3   OH241278   6.712   5.283   1.345  0.1717 -0.5905  0.0932
 6548TIP3    H141279   6.651   5.229   1.295 -0.0288 -0.7819  0.5432
 6548TIP3    H241280   6.699   5.256   1.436 -0.3959  0.6706  0.4045
 6549TIP3   OH241281   5.200   1.760   1.818  0.0163 -0.2145 -0.2948
 6549TIP3    H141282   5.228   1.677   1.780 -1.3281 -0.1496 -1.5077
 6549TIP3    H241283   5.245   1.827   1.768 -0.3817 -0.1727 -0.6011
 6550TIP3   OH241284   6.042   1.376   1.017 -0.3652 -0.2469 -0.2852
 6550TIP3    H141285   6.000   1.453   1.055 -2.2908 -0.7376 -1.2689
 6550TIP3    H241286   5.983   1.304   1.040  0.1604 -1.0551 -1.3941
 6551TIP3   OH241287   1.464   3.974   0.189 -0.4324 -0.2833  0.3487
 6551TIP3    H141288   1.496   4.042   0.129  0.5875  0.3893  1.5996
 6551TIP3    H241289   1.508   3.993   0.272 -0.5889 -2.1205  0.9024
 6552TIP3   OH241290   4.026   5.543   8.242  0.0421 -0.0924 -0.4127
 6552TIP3    H141291   4.037   5.467   8.186  0.5698  0.8914 -1.6781
 6552TIP3    H241292   3.939   5.577   8.221 -0.3648 -0.5517  0.4471
 6553TIP3   OH241293   0.986   4.254   7.598  0.2147 -0.1095 -0.7103
 6553TIP3    H141294   0.992   4.335   7.547  0.8289 -0.0609 -0.5722
 6553TIP3    H241295   1.064   4.205   7.574  0.3419 -0.2329 -0.0676
 6554TIP3   OH241296   1.168   3.754   8.755 -0.1295  0.5182 -0.3805
 6554TIP3    H141297   1.190   3.810   8.680  1.4021  0.5682  0.0837
 6554TIP3    H241298   1.228   3.781   8.824 -0.0541 -1.0097  0.1894
 6555TIP3   OH241299   3.701   5.338   6.713  0.4418  0.6170  0.4395
 6555TIP3    H141300   3.793   5.322   6.731 -0.0890 -0.5928  2.3596
 6555TIP3    H241301   3.663   5.251   6.702 -0.3223  1.1347 -1.3415
 6556TIP3   OH241302   0.253   5.415   0.490  0.6074 -0.8471  0.0488
 6556TIP3    H141303   0.279   5.368   0.568  0.8478  0.6238  0.8918
 6556TIP3    H241304   0.335   5.429   0.442  0.4118 -2.0890 -0.7031
 6557TIP3   OH241305   3.890   6.005   1.970 -0.1671 -0.3544 -0.0591
 6557TIP3    H141306   3.844   6.054   2.038 -1.3038 -0.9911 -0.3374
 6557TIP3    H241307   3.894   5.915   2.003  0.7011 -0.3604 -0.1422
 6558TIP3   OH241308   3.587   2.383   0.194 -0.4499 -0.2942  0.4582
 6558TIP3    H141309   3.677   2.416   0.197 -0.2179 -0.8859  0.1816
 6558TIP3    H241310   3.561   2.392   0.102 -0.6034 -0.3135  0.4994
 6559TIP3   OH241311   5.858   3.582   8.377  0.3130 -0.6149 -0.2235
 6559TIP3    H141312   5.876   3.491   8.352  1.8115 -0.2222 -0.6201
 6559TIP3    H241313   5.933   3.631   8.346  0.2795  0.5373  1.4110
 6560TIP3   OH241314   0.418   6.005   0.552 -0.6104 -0.1412  0.2314
 6560TIP3    H141315   0.419   5.920   0.508 -0.1192  0.3368 -0.7119
 6560TIP3    H241316   0.335   6.045   0.524 -0.3150  0.1473 -0.2567
 6561TIP3   OH241317   1.483   6.576   1.505 -0.1148  0.1819  0.6564
 6561TIP3    H141318   1.406   6.632   1.517  0.5526  1.4842 -0.7958
 6561TIP3    H241319   1.529   6.613   1.430  1.2037 -1.4129  0.6074
 6562TIP3   OH241320   3.919   3.789   8.474 -0.3027  0.3326 -0.7145
 6562TIP3    H141321   3.870   3.739   8.539 -0.3667 -0.4503 -1.3460
 6562TIP3    H241322   3.853   3.831   8.419 -0.2479  1.2743 -0.0711
 6563TIP3   OH241323   3.845   1.431   7.047  0.0949  0.6740  0.2917
 6563TIP3    H141324   3.856   1.417   7.141 -0.9881 -0.6432  0.2342
 6563TIP3    H241325   3.758   1.398   7.026 -0.2817  2.2816 -0.9358
 6564TIP3   OH241326   0.990   6.647   8.057 -0.0590  0.4778  0.1579
 6564TIP3    H141327   1.013   6.607   7.973  0.7771 -1.5868  1.2850
 6564TIP3    H241328   1.073   6.652   8.104 -0.7608 -0.1031  1.5176
 6565TIP3   OH241329   2.997   6.269   0.267 -0.1543  0.2558  0.1164
 6565TIP3    H141330   3.030   6.332   0.204 -0.4049  0.1825 -0.0901
 6565TIP3    H241331   3.035   6.296   0.351 -1.8285  1.9162  0.4245
 6566TIP3   OH241332   3.287   3.600   1.302 -0.1441 -0.2306 -0.4584
 6566TIP3    H141333   3.347   3.664   1.340 -0.0988 -0.1706 -0.6283
 6566TIP3    H241334   3.246   3.646   1.229  1.1990 -0.9262 -1.7168
 6567TIP3   OH241335   1.342   0.267   7.894 -0.0331 -0.2277  0.8170
 6567TIP3    H141336   1.256   0.232   7.916  0.7152 -2.7167  0.0854
 6567TIP3    H241337   1.385   0.278   7.979 -0.3857 -0.8998  1.0889
 6568TIP3   OH241338   6.472   5.001   8.128 -0.1607  0.7211  0.0993
 6568TIP3    H141339   6.404   4.960   8.074  0.6648  0.2520 -0.6098
 6568TIP3    H241340   6.456   4.967   8.216 -0.1273 -0.3274 -0.2857
 6569TIP3   OH241341   4.953   4.144   8.629  0.0403 -0.1083  0.0148
 6569TIP3    H141342   5.029   4.102   8.588 -0.5456 -2.2515  0.9549
 6569TIP3    H241343   4.987   4.185   8.708  0.5022  0.5819 -0.5287
 6570TIP3   OH241344   3.410   0.473   1.960 -0.1367  0.3767 -0.1250
 6570TIP3    H141345   3.472   0.546   1.960  0.1004  0.1755 -0.2936
 6570TIP3    H241346   3.418   0.434   1.874 -1.2404  0.9704 -0.5204
 6571TIP3   OH241347   5.546   2.340   7.820 -0.8379 -0.7320 -0.9988
 6571TIP3    H141348   5.564   2.432   7.798 -2.2786 -0.7746 -2.5569
 6571TIP3    H241349   5.530   2.340   7.914  2.4512  0.0305 -0.3049
 6572TIP3   OH241350   3.574   0.528   1.606 -0.3311  0.3350  0.2045
 6572TIP3    H141351   3.528   0.528   1.522 -0.7922 -0.4564  0.4454
 6572TIP3    H241352   3.550   0.612   1.646 -1.1990  0.1304  0.1295
 6573TIP3   OH241353   5.249   4.434   2.688 -0.2452 -0.2822  0.4410
 6573TIP3    H141354   5.329   4.430   2.635 -0.6333 -1.7042 -0.0761
 6573TIP3    H241355   5.221   4.343   2.696 -0.3315 -0.1080  2.9291
 6574TIP3   OH241356   2.247   5.446   0.564 -0.1266  0.1962 -0.2786
 6574TIP3    H141357   2.332   5.483   0.541 -0.2196 -0.2731 -1.4951
 6574TIP3    H241358   2.254   5.353   0.539 -0.9263  0.1178 -0.2438
 6575TIP3   OH241359   3.859   3.688   1.119  1.0719 -0.1081 -0.4153
 6575TIP3    H141360   3.854   3.594   1.105  0.9693  0.0436 -1.4972
 6575TIP3    H241361   3.950   3.711   1.098  1.1027  0.0379 -0.1370
 6576TIP3   OH241362   3.742   1.206   0.673 -0.2490  0.4154 -0.1583
 6576TIP3    H141363   3.722   1.284   0.725 -0.6598  1.0817 -1.2830
 6576TIP3    H241364   3.759   1.138   0.738 -0.8070  1.2004  0.8429
 6577TIP3   OH241365   2.048   4.353   0.693  0.0665  0.2101 -0.4734
 6577TIP3    H141366   2.119   4.408   0.726 -0.6851  0.8176  0.1786
 6577TIP3    H241367   1.998   4.411   0.635 -0.9363  0.3392  0.4930
 6578TIP3   OH241368   6.005   0.819   1.903 -0.4330 -0.2488  0.5944
 6578TIP3    H141369   5.941   0.790   1.838  0.1535  0.3023 -0.2509
 6578TIP3    H241370   6.073   0.752   1.901  0.3872  0.5821 -0.5694
 6579TIP3   OH241371   6.677   0.398   2.523  0.3751 -0.0876  0.3402
 6579TIP3    H141372   6.764   0.374   2.554  0.0620 -0.7540  0.7194
 6579TIP3    H241373   6.626   0.412   2.603 -0.1418 -0.7284  0.1342
 6580TIP3   OH241374   5.234   4.976   7.298  0.0088  0.0192 -0.3826
 6580TIP3    H141375   5.142   4.967   7.323  0.5346 -1.8094  1.2071
 6580TIP3    H241376   5.279   4.911   7.352  2.0651 -0.1111 -2.1410
 6581TIP3   OH241377   6.734   5.191   8.600 -0.0463  0.4001 -0.6164
 6581TIP3    H141378   6.684   5.119   8.560 -0.1315  0.0703  0.0554
 6581TIP3    H241379   6.796   5.147   8.659  2.9048  0.6104 -3.3105
 6582TIP3   OH241380   3.493   1.008   6.958  0.2545 -0.4239  0.1010
 6582TIP3    H141381   3.402   1.012   6.988  0.1086  2.0329 -0.4523
 6582TIP3    H241382   3.539   0.964   7.029 -1.4902 -2.7937 -0.1010
 6583TIP3   OH241383   4.999   5.823   7.752 -0.0172 -0.7628  0.5511
 6583TIP3    H141384   5.043   5.887   7.696  1.1769 -1.9111  0.1059
 6583TIP3    H241385   4.906   5.838   7.737  0.2542 -0.2028 -0.7936
 6584TIP3   OH241386   4.638   5.757   7.158 -0.1952  0.3514  0.0234
 6584TIP3    H141387   4.600   5.735   7.243 -0.3074  1.1168  0.1756
 6584TIP3    H241388   4.564   5.786   7.105  0.2527  2.8566  0.6410
 6585TIP3   OH241389   3.727   4.923   1.388  0.1528  0.4869  0.2402
 6585TIP3    H141390   3.726   4.992   1.454  1.9778  2.0939 -1.2912
 6585TIP3    H241391   3.723   4.969   1.305  3.3073 -0.9873 -0.9209
 6586TIP3   OH241392   3.174   4.440   8.526  1.0021 -0.4074 -0.4731
 6586TIP3    H141393   3.138   4.451   8.438  2.1705 -0.1128 -0.9411
 6586TIP3    H241394   3.129   4.363   8.561  0.4985 -0.5095 -1.3162
 6587TIP3   OH241395   1.493   1.191   1.018  0.2702 -0.0318  0.5588
 6587TIP3    H141396   1.547   1.190   1.097  0.0446  0.7939  0.7396
 6587TIP3    H241397   1.499   1.103   0.983  1.1568 -0.1445  0.9679
 6588TIP3   OH241398   1.403   0.906   1.151 -0.6454  0.5240 -0.0150
 6588TIP3    H141399   1.364   0.838   1.205 -0.2026 -0.5663 -1.0017
 6588TIP3    H241400   1.361   0.895   1.065 -0.5148  1.4562 -0.2097
 6589TIP3   OH241401   4.034   1.056   7.957 -0.4427 -0.1296  0.4591
 6589TIP3    H141402   3.999   1.144   7.942  1.5628  0.9729  1.8333
 6589TIP3    H241403   3.996   1.029   8.040 -1.2778 -0.7270 -0.0957
 6590TIP3   OH241404   2.842   5.742   1.775 -0.1223 -0.4003  0.2390
 6590TIP3    H141405   2.755   5.770   1.805 -0.4076 -0.7926 -0.1932
 6590TIP3    H241406   2.902   5.768   1.845 -0.6330 -0.4047  0.6854
 6591TIP3   OH241407   3.154   6.110   8.360 -0.4684 -0.2067 -0.0065
 6591TIP3    H141408   3.211   6.186   8.368  1.1665 -1.6085  4.7864
 6591TIP3    H241409   3.085   6.124   8.424  1.2659 -3.5636  2.9482
 6592TIP3   OH241410   3.225   6.739   1.746  0.0525  0.2067  0.2619
 6592TIP3    H141411   3.156   6.692   1.792  0.4178  0.8483  1.5041
 6592TIP3    H241412   3.220   6.828   1.780  0.4241  0.6761 -0.8624
 6593TIP3   OH241413   4.364   5.926   1.167  0.0091  0.3570  0.2503
 6593TIP3    H141414   4.386   6.008   1.212 -1.6206  0.1545  1.5066
 6593TIP3    H241415   4.269   5.930   1.155 -0.0604 -1.2293  0.1019
 6594TIP3   OH241416   4.487   5.716   7.936 -0.0915  0.0182 -0.3751
 6594TIP3    H141417   4.504   5.733   8.029 -0.0708  0.4831 -0.4614
 6594TIP3    H241418   4.497   5.801   7.894 -1.7998  0.1575 -0.5617
 6595TIP3   OH241419   2.923   0.720   0.371  0.4743  1.0334  0.3528
 6595TIP3    H141420   2.932   0.677   0.286 -1.7482  0.8069  0.1865
 6595TIP3    H241421   2.959   0.807   0.357  1.5644  0.4904 -0.3678
 6596TIP3   OH241422   0.639   4.464   1.427  0.7587 -0.1249  0.0547
 6596TIP3    H141423   0.571   4.468   1.494  1.6941 -0.6799  1.0814
 6596TIP3    H241424   0.656   4.555   1.404 -0.7477 -0.0049 -0.6829
 6597TIP3   OH241425   3.307   6.000   1.319 -0.1705  0.6827 -0.5551
 6597TIP3    H141426   3.265   5.943   1.254 -1.4108  0.0802  0.7025
 6597TIP3    H241427   3.256   6.081   1.315  0.5912  1.1443 -1.2298
 6598TIP3   OH241428   3.615   2.068   0.090 -0.2138  0.1910 -0.1088
 6598TIP3    H141429   3.574   2.087   0.006  0.4585 -1.8327 -0.9608
 6598TIP3    H241430   3.583   1.981   0.113  3.1285 -1.3462 -0.6221
 6599TIP3   OH241431   4.768   1.635   2.110  0.0888  0.6051  0.1549
 6599TIP3    H141432   4.702   1.581   2.065  2.1402 -1.8874 -0.0410
 6599TIP3    H241433   4.778   1.595   2.196  2.0259  0.3023 -0.1752
 6600TIP3   OH241434   2.198   4.688   7.491  0.1275 -0.1183  0.8068
 6600TIP3    H141435   2.216   4.601   7.457  2.4404  0.3732  0.5856
 6600TIP3    H241436   2.235   4.747   7.425 -3.4109  1.1880 -0.2066
 6601TIP3   OH241437   3.841   5.291   2.124 -0.1664  0.0758  0.4564
 6601TIP3    H141438   3.794   5.237   2.187  2.2742 -2.5915  0.1762
 6601TIP3    H241439   3.903   5.341   2.177  1.1918 -1.4164  0.3347
 6602TIP3   OH241440   2.409   0.642   0.833  0.3533  0.0983 -0.2104
 6602TIP3    H141441   2.440   0.631   0.743  2.4219 -0.4983  0.5242
 6602TIP3    H241442   2.364   0.727   0.833  1.2865  0.6287 -1.5638
 6603TIP3   OH241443   0.401   4.702   7.212  0.3510 -0.2957  0.1886
 6603TIP3    H141444   0.376   4.675   7.300 -0.1565  1.3948  0.5881
 6603TIP3    H241445   0.412   4.797   7.218  2.5962 -0.4152 -1.0242
 6604TIP3   OH241446   0.327   6.405   8.154 -0.6274  0.3832  0.0685
 6604TIP3    H141447   0.252   6.444   8.200  0.0625  0.1898  1.3847
 6604TIP3    H241448   0.321   6.312   8.174  0.3169  0.4506  0.7091
 6605TIP3   OH241449   5.517   2.399   7.372 -0.2688  0.7484 -0.7618
 6605TIP3    H141450   5.432   2.379   7.333  0.4063  0.1073 -1.9488
 6605TIP3    H241451   5.523   2.495   7.367  0.4923  0.6375 -3.8824
 6606TIP3   OH241452   2.831   1.208   7.843  0.3774  0.1378  0.2596
 6606TIP3    H141453   2.769   1.189   7.915 -0.9032  3.1638  0.1100
 6606TIP3    H241454   2.778   1.201   7.764  1.1096 -0.5766 -0.1694
 6607TIP3   OH241455   5.916   6.212   1.791  0.5214  0.3380 -0.2411
 6607TIP3    H141456   5.954   6.125   1.802  0.1358  0.1887 -0.0618
 6607TIP3    H241457   5.915   6.250   1.879 -2.8274 -0.9669  0.4457
 6608TIP3   OH241458   5.471   5.785   6.813  0.0755 -0.1527 -0.4076
 6608TIP3    H141459   5.474   5.880   6.824 -0.0434 -0.2945  1.0428
 6608TIP3    H241460   5.561   5.757   6.830  0.1917 -0.2795 -1.1948
 6609TIP3   OH241461   4.527   1.272   1.305 -0.5760  0.2085  0.0541
 6609TIP3    H141462   4.518   1.187   1.349  1.9415 -0.2910 -0.2430
 6609TIP3    H241463   4.597   1.316   1.353  0.0912  0.9272 -1.5335
 6610TIP3   OH241464   4.673   2.054   0.468  0.1870  1.0186  0.1959
 6610TIP3    H141465   4.578   2.047   0.484  0.3463 -1.2799  0.4499
 6610TIP3    H241466   4.693   1.979   0.412  1.6740  2.2583 -1.0282
 6611TIP3   OH241467   2.146   0.220   0.225  0.1234 -0.3103  0.0636
 6611TIP3    H141468   2.211   0.243   0.159  1.2849  0.4709  1.4136
 6611TIP3    H241469   2.182   0.143   0.269  1.5557  1.5932  2.5311
 6612TIP3   OH241470   5.291   6.688   7.475  0.1804  0.3278  0.1805
 6612TIP3    H141471   5.304   6.630   7.400  1.8287  0.5811  0.2362
 6612TIP3    H241472   5.336   6.769   7.451 -1.0227  1.1641  0.6247
 6613TIP3   OH241473   5.370   1.460   8.802 -0.2330  0.2140 -0.1665
 6613TIP3    H141474   5.443   1.408   8.836 -0.1503  0.5282  0.1504
 6613TIP3    H241475   5.293   1.406   8.816  0.0186 -0.4071 -1.1290
 6614TIP3   OH241476   4.050   3.590   8.259 -0.1035  0.2753  0.2350
 6614TIP3    H141477   4.004   3.524   8.206 -1.7647 -0.7203  2.7159
 6614TIP3    H241478   4.011   3.673   8.231 -0.4043 -0.1297 -0.6134
 6615TIP3   OH241479   2.281   2.879   8.775 -0.6117 -0.3403  0.5217
 6615TIP3    H141480   2.239   2.854   8.693  1.2651  0.9228 -0.9206
 6615TIP3    H241481   2.255   2.971   8.788  2.8604  1.0778 -1.3625
 6616TIP3   OH241482   6.293   1.308   0.076 -0.0768 -0.4547  0.2813
 6616TIP3    H141483   6.290   1.241   0.144  0.1745 -0.4873  0.2588
 6616TIP3    H241484   6.275   1.390   0.121 -0.2847 -0.5236  0.3251
 6617TIP3   OH241485   5.281   5.809   8.581 -0.2116 -0.3858  0.1991
 6617TIP3    H141486   5.344   5.844   8.644  1.0069 -0.6078 -0.8769
 6617TIP3    H241487   5.285   5.868   8.506 -1.9285  0.0898  0.4251
 6618TIP3   OH241488   0.950   6.266   7.784 -0.0823 -0.5547 -0.1989
 6618TIP3    H141489   0.995   6.350   7.795 -0.3579  0.0065 -2.7267
 6618TIP3    H241490   1.009   6.202   7.823  0.6027  0.6765  0.8930
 6619TIP3   OH241491   1.866   3.629   0.799 -0.2306  0.3120 -0.2902
 6619TIP3    H141492   1.870   3.582   0.882 -0.3993  2.4006  0.9669
 6619TIP3    H241493   1.872   3.721   0.823  0.7829  0.9553 -2.6895
 6620TIP3   OH241494   5.352   2.685   8.519 -0.7234  0.0861  0.0963
 6620TIP3    H141495   5.358   2.650   8.608  1.9494  0.6329  0.2124
 6620TIP3    H241496   5.377   2.777   8.528  1.7099 -0.3432 -1.4390
 6621TIP3   OH241497   0.137   5.021   0.232 -0.0173  0.4128 -0.3299
 6621TIP3    H141498   0.124   5.069   0.313  1.4687  0.9673 -0.3937
 6621TIP3    H241499   0.223   5.048   0.201 -0.0197 -0.7356 -1.4485
 6622TIP3   OH241500   1.345   5.029   0.092  0.3172 -0.3932  0.5272
 6622TIP3    H141501   1.399   4.956   0.059  1.3259  0.3399  0.5142
 6622TIP3    H241502   1.264   5.023   0.041  0.1784 -1.7818  0.8515
 6623TIP3   OH241503   1.531   1.620   3.102  0.1724  0.3245  0.3113
 6623TIP3    H141504   1.545   1.546   3.043  0.9425 -1.6027  2.7496
 6623TIP3    H241505   1.566   1.591   3.186 -2.1225  2.3803  2.1271
 6624TIP3   OH241506   5.899   1.363   3.157 -0.2226  0.6221 -0.0879
 6624TIP3    H141507   5.811   1.327   3.163  0.4610 -1.3765 -1.2453
 6624TIP3    H241508   5.953   1.307   3.212  0.6577  0.6054 -0.9294
 6625TIP3   OH241509   4.431   1.892   1.022  0.1108 -0.2350  0.3351
 6625TIP3    H141510   4.423   1.944   0.942 -0.3130  0.8675  1.0731
 6625TIP3    H241511   4.509   1.838   1.008  2.0603  2.3823  0.5210
 6626TIP3   OH241512   0.061   2.557   7.937 -0.5969  0.1822 -0.1639
 6626TIP3    H141513   0.109   2.537   7.856 -2.1333  0.3132 -1.1515
 6626TIP3    H241514   0.125   2.542   8.007  0.9069  0.4530 -1.4102
 6627TIP3   OH241515   3.796   0.354   7.384 -0.5458  0.2209 -0.3071
 6627TIP3    H141516   3.774   0.269   7.422 -0.2164 -0.2737 -1.2129
 6627TIP3    H241517   3.737   0.363   7.309  0.4705  0.0833 -1.1400
 6628TIP3   OH241518   4.518   2.962   0.839 -0.4180 -0.0813  0.2266
 6628TIP3    H141519   4.425   2.980   0.825 -0.3425 -0.8438 -1.5663
 6628TIP3    H241520   4.530   2.971   0.934 -2.7570 -1.8571  0.8135
 6629TIP3   OH241521   2.454   1.847   0.946  0.0598 -0.3569  0.0619
 6629TIP3    H141522   2.376   1.859   0.892  0.6452  0.7480 -0.5685
 6629TIP3    H241523   2.501   1.930   0.940  0.4216 -0.3835  1.8455
 6630TIP3   OH241524   3.203   3.979   0.214 -0.6994  0.3356  0.5040
 6630TIP3    H141525   3.247   3.936   0.288  0.4020 -2.6730 -1.7099
 6630TIP3    H241526   3.248   3.945   0.137 -2.6319  2.3707 -1.6582
 6631TIP3   OH241527   2.573   1.609   1.919  0.1615 -0.2057 -0.0620
 6631TIP3    H141528   2.630   1.604   1.996 -0.5308 -0.9650  0.4165
 6631TIP3    H241529   2.582   1.699   1.889  0.1255  0.2292  1.1585
 6632TIP3   OH241530   1.263   3.798   0.913 -0.2955 -0.6492  0.3195
 6632TIP3    H141531   1.197   3.851   0.869  0.0778 -0.2984  0.1722
 6632TIP3    H241532   1.227   3.709   0.914 -0.3681 -0.6346 -0.5583
 6633TIP3   OH241533   1.050   3.184   0.399  0.5218 -0.2867  0.3320
 6633TIP3    H141534   0.963   3.150   0.378  0.8494 -1.5631  0.9339
 6633TIP3    H241535   1.099   3.176   0.316  0.5985 -1.3653  0.4597
 6634TIP3   OH241536   2.030   2.522   1.610  0.3833 -0.3826 -0.0097
 6634TIP3    H141537   1.959   2.505   1.671  1.0694 -2.7531  0.2417
 6634TIP3    H241538   1.990   2.519   1.524 -0.0674 -0.1613  0.1918
 6635TIP3   OH241539   5.335   6.343   0.518  0.0475 -0.0075 -0.0122
 6635TIP3    H141540   5.400   6.372   0.582  0.2891  1.8006 -1.0031
 6635TIP3    H241541   5.251   6.359   0.560  0.2073 -0.2949  0.4290
 6636TIP3   OH241542   5.556   5.040   1.063 -0.2947 -0.0456 -0.1387
 6636TIP3    H141543   5.615   4.974   1.025 -2.1679 -1.0076 -1.5308
 6636TIP3    H241544   5.500   4.990   1.122 -0.1416  0.7538  0.7000
 6637TIP3   OH241545   2.829   5.167   2.367 -0.0790 -0.0397 -0.5852
 6637TIP3    H141546   2.871   5.187   2.451 -3.9041  1.5290  1.2169
 6637TIP3    H241547   2.838   5.246   2.315 -0.7584  0.3222 -0.1709
 6638TIP3   OH241548   2.694   1.792   7.934  0.1111  0.3676  0.4691
 6638TIP3    H141549   2.672   1.706   7.969 -0.3326 -0.2396 -1.2257
 6638TIP3    H241550   2.790   1.797   7.940  0.2667 -0.8183 -0.6218
 6639TIP3   OH241551   3.292   1.975   0.636 -0.1069  0.4188  0.2071
 6639TIP3    H141552   3.292   2.018   0.722  0.4924 -1.5486  1.2457
 6639TIP3    H241553   3.384   1.970   0.612 -0.0580 -1.2260  0.6364
 6640TIP3   OH241554   1.215   3.422   2.004  0.2719  0.0428 -0.0340
 6640TIP3    H141555   1.134   3.381   1.974  0.3158  0.0578 -0.1776
 6640TIP3    H241556   1.192   3.514   2.018 -0.0972 -0.2384  1.3429
 6641TIP3   OH241557   2.234   1.908   8.495  0.1035  0.3157 -0.5079
 6641TIP3    H141558   2.299   1.858   8.544  0.7354  0.8128 -0.8273
 6641TIP3    H241559   2.151   1.865   8.515  0.6256 -0.8696 -0.7852
 6642TIP3   OH241560   1.207   4.132   0.854 -0.5892  0.0946  0.1578
 6642TIP3    H141561   1.158   4.213   0.871  0.4284  0.7614 -0.0070
 6642TIP3    H241562   1.141   4.071   0.820 -1.3384  0.9088  0.1229
 6643TIP3   OH241563   2.162   4.149   8.605  0.2515 -0.0715  0.1072
 6643TIP3    H141564   2.120   4.211   8.664 -1.2863 -0.8271 -0.1546
 6643TIP3    H241565   2.139   4.179   8.517  2.3176  0.8990 -0.1783
 6644TIP3   OH241566   5.647   3.680   8.234 -0.2418  0.2070 -0.1652
 6644TIP3    H141567   5.711   3.634   8.288 -0.9922 -1.0566 -0.3226
 6644TIP3    H241568   5.687   3.765   8.217  0.2889  0.3911  1.8262
 6645TIP3   OH241569   5.728   3.811   0.366  0.2954 -0.4514  0.1072
 6645TIP3    H141570   5.810   3.774   0.398  0.1242 -1.5941 -0.6973
 6645TIP3    H241571   5.753   3.890   0.318  0.4894  1.9275  3.7253
 6646TIP3   OH241572   6.270   0.240   8.392  0.2035  0.1447 -0.1787
 6646TIP3    H141573   6.259   0.195   8.309  0.4055 -0.0588 -0.0966
 6646TIP3    H241574   6.197   0.302   8.396 -0.8397 -1.0793  0.3088
 6647TIP3   OH241575   6.322   5.139   0.336  1.0154 -0.3232  0.1797
 6647TIP3    H141576   6.329   5.175   0.425  2.1437  0.2563 -0.1271
 6647TIP3    H241577   6.248   5.186   0.297 -0.3149 -1.4770  1.2013
 6648TIP3   OH241578   1.619   0.978   2.075 -0.0763  0.6448  0.1848
 6648TIP3    H141579   1.693   0.927   2.041 -0.3298  1.0021 -0.9302
 6648TIP3    H241580   1.619   1.058   2.023 -2.4455 -0.1892 -1.2632
 6649TIP3   OH241581   5.541   5.634   0.835 -0.5354  0.1793  0.1119
 6649TIP3    H141582   5.507   5.548   0.809  1.7788 -0.2299 -2.0058
 6649TIP3    H241583   5.510   5.692   0.766 -1.8037  1.0573  1.3611
 6650TIP3   OH241584   1.820   1.298   2.808  0.0369 -0.1519  0.3135
 6650TIP3    H141585   1.890   1.266   2.750  0.1952 -0.4650  0.6667
 6650TIP3    H241586   1.846   1.387   2.830 -0.4434  0.2601 -0.7397
 6651TIP3   OH241587   5.818   5.268   7.921 -0.1756 -0.0034  0.0609
 6651TIP3    H141588   5.849   5.331   7.986 -1.3596  1.6791 -0.9056
 6651TIP3    H241589   5.844   5.183   7.955  2.0364  1.0202  1.1395
 6652TIP3   OH241590   6.766   1.806   7.838 -0.1055  0.1598  0.4691
 6652TIP3    H141591   6.853   1.820   7.876  0.0913  0.0169  0.0817
 6652TIP3    H241592   6.708   1.861   7.890 -0.1616 -1.4394  2.2019
 6653TIP3   OH241593   5.323   4.476   0.795  0.4947 -0.6824  0.1059
 6653TIP3    H141594   5.272   4.420   0.854  0.1362 -0.5092 -0.0349
 6653TIP3    H241595   5.349   4.550   0.850 -0.6625 -0.0333 -0.1814
 6654TIP3   OH241596   5.051   5.829   2.230 -0.2927 -0.4918  0.3229
 6654TIP3    H141597   5.053   5.804   2.322 -2.2625 -0.8383  0.2986
 6654TIP3    H241598   5.110   5.766   2.187 -1.5920 -2.2130  0.9476
 6655TIP3   OH241599   0.906   4.607   1.536  0.3245 -0.3416 -0.0049
 6655TIP3    H141600   0.873   4.610   1.446 -0.0060 -0.2848  0.1193
 6655TIP3    H241601   0.923   4.698   1.559  2.6710 -0.5030 -0.8395
 6656TIP3   OH241602   0.681   3.824   1.780 -0.0263 -0.4013  0.4063
 6656TIP3    H141603   0.758   3.872   1.750 -1.3481  0.6159 -1.5590
 6656TIP3    H241604   0.695   3.735   1.750  0.8338 -0.4842  0.9953
 6657TIP3   OH241605   1.050   5.089   0.706 -0.4984 -1.0057  0.0156
 6657TIP3    H141606   0.968   5.040   0.709 -0.3470 -1.4040 -1.4872
 6657TIP3    H241607   1.118   5.021   0.708 -0.1665 -0.6701  1.4518
 6658TIP3   OH241608   3.173   4.924   1.736 -0.7932  0.7953 -0.5323
 6658TIP3    H141609   3.252   4.920   1.790 -0.2101  2.2419 -1.2299
 6658TIP3    H241610   3.171   4.841   1.689 -1.4841 -0.6671  1.8808
 6659TIP3   OH241611   6.518   6.531   1.605 -0.4180  0.7348  0.2058
 6659TIP3    H141612   6.511   6.443   1.568  0.4613  1.4174 -1.6848
 6659TIP3    H241613   6.475   6.587   1.540 -0.3157  1.8027  1.0410
 6660TIP3   OH241614   1.390   1.698   8.713 -0.0665 -0.0492  0.5471
 6660TIP3    H141615   1.351   1.741   8.636 -2.3141  0.2531  1.7752
 6660TIP3    H241616   1.432   1.620   8.678  0.2126  0.8130 -1.1651
 6661TIP3   OH241617   3.589   5.452   8.184  0.8392  0.2648 -0.2642
 6661TIP3    H141618   3.589   5.405   8.267 -0.3685  0.5868 -0.0667
 6661TIP3    H241619   3.600   5.544   8.209  2.0760  0.2266 -0.5796
 6662TIP3   OH241620   6.756   1.298   0.700  0.2429 -0.8360  0.4543
 6662TIP3    H141621   6.695   1.227   0.717 -0.7349 -0.7347 -2.0814
 6662TIP3    H241622   6.703   1.377   0.704  0.0380 -0.7646 -1.9935
 6663TIP3   OH241623   6.589   0.053   7.727 -0.3269 -0.1226 -0.0415
 6663TIP3    H141624   6.549  -0.004   7.793 -0.5762  0.4635  0.3223
 6663TIP3    H241625   6.576   0.007   7.645  1.0426 -1.4504  0.4334
 6664TIP3   OH241626   6.243   5.168   2.926 -0.4201  0.2861 -0.1238
 6664TIP3    H141627   6.153   5.145   2.948 -0.2614 -0.0298  0.2069
 6664TIP3    H241628   6.245   5.263   2.925 -0.3127  0.3330  1.7605
 6665TIP3   OH241629   3.880   5.548   6.459 -0.2978  0.0134  0.1842
 6665TIP3    H141630   3.945   5.581   6.398  0.5368 -1.3442  0.2825
 6665TIP3    H241631   3.922   5.554   6.545 -0.3965 -0.6183  0.2828
 6666TIP3   OH241632   2.419   3.061   2.528  0.4002 -0.1966 -0.3188
 6666TIP3    H141633   2.343   3.112   2.557  1.4024  1.0679  0.2175
 6666TIP3    H241634   2.427   2.991   2.593 -0.5461 -0.6080 -0.6273
 6667TIP3   OH241635   5.985   1.002   7.759 -0.2337  0.5583  0.9111
 6667TIP3    H141636   6.039   1.076   7.730 -1.6765  0.2746 -3.2290
 6667TIP3    H241637   5.906   1.007   7.704 -0.6614 -3.6617  0.8022
 6668TIP3   OH241638   6.809   4.897   7.662 -0.4985  0.4024  0.0130
 6668TIP3    H141639   6.739   4.915   7.599 -0.4991 -0.5515 -0.2754
 6668TIP3    H241640   6.794   4.960   7.733 -0.7493  1.2133 -0.7353
 6669TIP3   OH241641   3.355   5.510   8.457  0.8528 -0.0417 -0.1561
 6669TIP3    H141642   3.448   5.533   8.454  0.2988  2.7870  1.6231
 6669TIP3    H241643   3.309   5.591   8.436 -1.2696 -1.0295  0.4082
 6670TIP3   OH241644   3.509   6.050   2.207  0.4844 -0.3886 -0.4119
 6670TIP3    H141645   3.425   6.087   2.180  0.4471 -0.0586  0.1312
 6670TIP3    H241646   3.486   5.966   2.247  0.2647  0.2571  0.8712
 6671TIP3   OH241647   2.662   6.002   8.554  0.0027 -0.0825  0.2734
 6671TIP3    H141648   2.746   5.983   8.513  0.2896 -0.6506  1.0804
 6671TIP3    H241649   2.684   6.053   8.632 -0.4399  0.2056  0.2107
 6672TIP3   OH241650   0.388   0.963   8.341 -0.5673 -0.1893  0.3031
 6672TIP3    H141651   0.384   1.005   8.255  0.0404 -0.5957  0.0667
 6672TIP3    H241652   0.441   1.022   8.394 -0.0031 -0.4861  0.0718
 6673TIP3   OH241653   2.680   2.343   8.496 -0.2207  0.8061 -0.0296
 6673TIP3    H141654   2.663   2.269   8.554 -0.6697  1.3591  0.5589
 6673TIP3    H241655   2.609   2.340   8.433  0.2777  0.1933 -0.5752
 6674TIP3   OH241656   6.036   5.246   1.390  0.1472 -0.5020  0.1362
 6674TIP3    H141657   6.125   5.280   1.392  0.2333 -0.7497  0.8995
 6674TIP3    H241658   5.990   5.294   1.459  0.2704 -1.8913  1.2347
 6675TIP3   OH241659   5.515   2.929   7.170  0.8221 -0.0775  0.2932
 6675TIP3    H141660   5.489   2.853   7.119 -4.2029  0.5205  1.5022
 6675TIP3    H241661   5.605   2.947   7.142  1.0666 -4.3200 -2.5067
 6676TIP3   OH241662   3.091   4.785   7.177  0.0317 -0.4115  0.0040
 6676TIP3    H141663   3.013   4.816   7.131  1.2696  1.0892 -1.2023
 6676TIP3    H241664   3.069   4.697   7.207 -1.8373 -0.3120 -0.9799
 6677TIP3   OH241665   1.028   6.476   2.019 -0.2159 -0.2601  0.2394
 6677TIP3    H141666   1.068   6.506   1.937 -1.2170  0.8598  0.1302
 6677TIP3    H241667   1.058   6.386   2.029  1.2666  0.1252 -0.4982
 6678TIP3   OH241668   4.171   2.975   1.149  0.4701  0.0209 -0.6259
 6678TIP3    H141669   4.172   2.982   1.054  0.1846  3.1435 -0.5131
 6678TIP3    H241670   4.254   3.012   1.177  0.3293 -0.3762  0.3667
 6679TIP3   OH241671   2.139   2.355   1.147  0.2342  0.4788  0.5264
 6679TIP3    H141672   2.155   2.273   1.193 -0.8728  1.2604  2.4108
 6679TIP3    H241673   2.226   2.394   1.135  0.6451 -0.3417  0.8021
 6680TIP3   OH241674   0.181   4.101   8.096 -0.2091 -0.9590 -0.2349
 6680TIP3    H141675   0.132   4.154   8.159  1.4172 -0.1442  0.4107
 6680TIP3    H241676   0.178   4.151   8.015  0.5026 -0.3065  0.1182
 6681TIP3   OH241677   4.985   2.787   8.277 -0.4100 -0.4026 -0.6756
 6681TIP3    H141678   5.014   2.699   8.300 -1.7138 -0.7036 -0.1232
 6681TIP3    H241679   4.939   2.777   8.193  0.8651  0.0439 -1.4595
 6682TIP3   OH241680   2.659   4.596   2.483  0.3842 -0.1123 -0.1911
 6682TIP3    H141681   2.634   4.623   2.571 -0.9791  0.7280 -0.8059
 6682TIP3    H241682   2.666   4.678   2.433  0.0214 -0.6424 -1.1405
 6683TIP3   OH241683   0.649   4.092   0.168  0.1941  0.0139  0.4462
 6683TIP3    H141684   0.670   4.043   0.089  1.2501  0.3489  0.5134
 6683TIP3    H241685   0.553   4.093   0.170  0.1394  0.4537 -1.1170
 6684TIP3   OH241686   6.450   3.006   0.488  0.7559 -0.0724  0.2032
 6684TIP3    H141687   6.537   2.979   0.517  1.2297  1.4413  0.2394
 6684TIP3    H241688   6.398   3.011   0.569  0.7194 -0.6332  0.2196
 6685TIP3   OH241689   5.680   5.440   8.307  0.6964 -0.1946  0.5582
 6685TIP3    H141690   5.644   5.524   8.339  1.2172  0.0224  0.5786
 6685TIP3    H241691   5.648   5.375   8.370  0.5398  0.0299  0.7139
 6686TIP3   OH241692   2.838   3.737   7.674  0.1405  0.1118 -0.7354
 6686TIP3    H141693   2.767   3.768   7.730 -1.5172 -0.5993 -2.3201
 6686TIP3    H241694   2.856   3.810   7.614  0.0407 -0.0621 -0.9800
 6687TIP3   OH241695   0.988   1.579   1.775  0.0795 -0.4047 -0.2168
 6687TIP3    H141696   0.957   1.670   1.772 -0.9161 -0.6847  0.8143
 6687TIP3    H241697   0.909   1.527   1.791  0.9562 -1.1856  2.1547
 6688TIP3   OH241698   5.760   5.207   0.951 -0.0130 -0.2466 -0.0047
 6688TIP3    H141699   5.722   5.219   0.864  1.5516 -1.8879 -0.9714
 6688TIP3    H241700   5.696   5.153   0.998 -0.4766 -0.0673 -0.4211
 6689TIP3   OH241701   5.483   5.329   1.084  0.4318 -0.1841 -0.1089
 6689TIP3    H141702   5.445   5.243   1.069  0.8575 -0.3230 -0.4308
 6689TIP3    H241703   5.577   5.312   1.096  0.4855  0.2096  0.0375
 6690TIP3   OH241704   1.353   0.592   7.269  0.0195 -0.0198  0.2257
 6690TIP3    H141705   1.417   0.660   7.287 -0.7987  0.9779 -0.5640
 6690TIP3    H241706   1.272   0.639   7.251 -0.9902 -1.2565  1.3179
 6691TIP3   OH241707   5.985   3.805   6.673 -0.2283 -0.2405  0.2913
 6691TIP3    H141708   5.895   3.789   6.700 -1.0111 -0.6309 -2.3049
 6691TIP3    H241709   5.983   3.889   6.629  0.8612  0.0846  0.8157
 6692TIP3   OH241710   2.543   5.829   1.756 -0.1572 -0.0288  0.1472
 6692TIP3    H141711   2.504   5.887   1.822  2.4088  2.1010 -0.0812
 6692TIP3    H241712   2.525   5.871   1.673 -0.5669 -1.0329 -0.2953
 6693TIP3   OH241713   5.671   3.877   0.647  0.2877 -0.0414  0.4193
 6693TIP3    H141714   5.694   3.897   0.556 -1.1307 -0.0939  0.0388
 6693TIP3    H241715   5.691   3.784   0.656  2.4156  0.3895  0.8125
 6694TIP3   OH241716   5.520   3.213   0.239 -0.3976  0.2390  0.5520
 6694TIP3    H141717   5.524   3.306   0.216  1.6105  0.1468  0.3576
 6694TIP3    H241718   5.428   3.190   0.228 -0.6960  1.8518 -0.8173
 6695TIP3   OH241719   5.506   6.536   2.553  0.5517  0.0811 -0.3615
 6695TIP3    H141720   5.534   6.494   2.634  1.6011 -2.7343 -2.0224
 6695TIP3    H241721   5.578   6.596   2.531  1.0788 -0.4440 -0.0776
 6696TIP3   OH241722   1.838   4.374   7.519 -0.0629  0.3621 -0.0320
 6696TIP3    H141723   1.862   4.466   7.507  0.2096  0.0903 -1.8902
 6696TIP3    H241724   1.882   4.328   7.447 -0.3794 -1.1955  0.7279
 6697TIP3   OH241725   1.454   5.507   1.825 -0.0743 -0.3550  0.0373
 6697TIP3    H141726   1.402   5.586   1.809 -0.4360 -1.0643 -2.9391
 6697TIP3    H241727   1.536   5.539   1.862 -0.5358  1.3278 -0.3212
 6698TIP3   OH241728   2.746   5.177   7.642 -0.6527 -0.2200  0.0772
 6698TIP3    H141729   2.752   5.162   7.736 -0.6170  0.2582  0.1529
 6698TIP3    H241730   2.653   5.186   7.624 -0.7894 -1.9338 -0.1970
 6699TIP3   OH241731   5.385   3.848   6.936  0.1902 -0.3112 -0.2188
 6699TIP3    H141732   5.388   3.944   6.927 -1.1298 -0.1799  0.4512
 6699TIP3    H241733   5.472   3.824   6.967  0.4280  0.7129 -0.0617
 6700TIP3   OH241734   4.644   4.815   0.666 -0.6440  0.5833  0.2757
 6700TIP3    H141735   4.695   4.735   0.671  0.7064  1.3513 -0.5385
 6700TIP3    H241736   4.553   4.786   0.672 -0.1527 -0.8034  2.0654
 6701TIP3   OH241737   3.251   1.697   7.776 -0.3677 -0.2539 -0.4491
 6701TIP3    H141738   3.312   1.754   7.822  1.3758 -2.3657  0.0492
 6701TIP3    H241739   3.262   1.720   7.684 -0.0321  0.5213 -0.2212
 6702TIP3   OH241740   1.349   5.586   8.736 -0.4876 -0.6153  0.1727
 6702TIP3    H141741   1.360   5.659   8.796  0.0801 -0.9483  0.4767
 6702TIP3    H241742   1.409   5.605   8.664 -1.8944  0.3099 -0.8353
 6703TIP3   OH241743   1.357   1.769   1.407  0.2730 -0.7658  0.0312
 6703TIP3    H141744   1.345   1.687   1.455 -0.0144 -1.3666 -1.0200
 6703TIP3    H241745   1.327   1.837   1.467  0.0575 -1.4753  0.7451
 6704TIP3   OH241746   3.968   5.536   0.200 -0.8736  0.4616 -0.3011
 6704TIP3    H141747   4.034   5.515   0.265  1.8037  1.1925 -2.5561
 6704TIP3    H241748   3.955   5.454   0.152 -0.2253  0.7196 -0.9449
 6705TIP3   OH241749   4.875   1.951   7.464  0.2415  0.1981 -0.1601
 6705TIP3    H141750   4.879   1.918   7.374  0.6968  0.4297 -0.2310
 6705TIP3    H241751   4.967   1.957   7.490  0.1130  0.2145  0.2929
 6706TIP3   OH241752   3.839   4.305   8.778  0.2483  0.6713  0.4342
 6706TIP3    H141753   3.876   4.360   8.848 -0.3839 -1.4116  2.5280
 6706TIP3    H241754   3.914   4.255   8.745  0.3222  0.7414  0.4955
 6707TIP3   OH241755   2.771   1.352   0.202  0.4038 -0.9663 -0.2774
 6707TIP3    H141756   2.806   1.334   0.289  0.4874 -1.3456 -0.3868
 6707TIP3    H241757   2.719   1.432   0.212 -1.8231 -2.4426  0.7396
 6708TIP3   OH241758   5.593   3.141   8.372  0.1978 -0.1901  0.8397
 6708TIP3    H141759   5.638   3.073   8.321  2.4200  2.5566 -1.2075
 6708TIP3    H241760   5.637   3.140   8.457 -0.1838 -1.5836  1.0574
 6709TIP3   OH241761   1.566   4.970   2.683 -0.3739 -0.4026  0.0788
 6709TIP3    H141762   1.583   5.061   2.710 -2.5539  0.1006 -0.0589
 6709TIP3    H241763   1.477   4.953   2.712 -1.2680 -1.3423 -2.8725
 6710TIP3   OH241764   2.070   5.000   8.312 -0.0317 -0.1960 -0.9192
 6710TIP3    H141765   2.077   4.970   8.403  0.8706 -1.2777 -1.3249
 6710TIP3    H241766   1.981   4.978   8.286 -0.5964  0.9412 -0.0315
 6711TIP3   OH241767   5.266   1.269   2.429 -0.7850  0.3309  0.2736
 6711TIP3    H141768   5.245   1.200   2.366  0.2050  1.5786 -1.5438
 6711TIP3    H241769   5.183   1.289   2.472 -1.4705 -0.6745 -0.5398
 6712TIP3   OH241770   0.145   0.515   2.202 -0.0861 -0.1620 -0.3257
 6712TIP3    H141771   0.073   0.454   2.218  0.5802 -0.5570  1.4821
 6712TIP3    H241772   0.121   0.561   2.122 -2.0886 -0.6309 -0.0441
 6713TIP3   OH241773   0.344   5.472   1.128  0.0369 -0.1354 -0.8166
 6713TIP3    H141774   0.422   5.421   1.106 -0.2016 -0.0546 -1.8705
 6713TIP3    H241775   0.327   5.526   1.051 -0.9552 -0.0055 -0.5237
 6714TIP3   OH241776   0.787   6.553   0.395 -0.0738 -1.1604  0.1968
 6714TIP3    H141777   0.876   6.564   0.363 -0.5545 -0.2699 -0.9148
 6714TIP3    H241778   0.783   6.607   0.474 -0.2618  0.7629 -1.0608
 6715TIP3   OH241779   6.253   5.399   1.420  0.1571  0.5521 -0.2777
 6715TIP3    H141780   6.320   5.359   1.475 -0.1934  0.8126  0.3481
 6715TIP3    H241781   6.248   5.490   1.450 -1.7203  0.1063  0.9346
 6716TIP3   OH241782   0.554   6.508   1.927 -0.2206  0.0625  0.1423
 6716TIP3    H141783   0.539   6.593   1.969 -2.4131 -0.4977  0.6217
 6716TIP3    H241784   0.631   6.522   1.871 -0.0644  2.1323  0.7884
 6717TIP3   OH241785   4.210   4.166   8.067 -0.1415  0.1371  0.3238
 6717TIP3    H141786   4.281   4.135   8.124  1.0816 -0.4568 -1.4366
 6717TIP3    H241787   4.248   4.165   7.979 -2.8269 -1.7517 -0.9260
 6718TIP3   OH241788   2.436   0.118   0.307 -0.0879 -0.2808 -1.4512
 6718TIP3    H141789   2.384   0.174   0.365  0.3682 -2.1201  0.9146
 6718TIP3    H241790   2.377   0.045   0.287  0.6142 -0.9514 -1.1134
 6719TIP3   OH241791   4.186   3.902   6.380  0.1211 -0.1715  0.0575
 6719TIP3    H141792   4.165   3.988   6.416  1.0109 -0.0629  0.3486
 6719TIP3    H241793   4.157   3.841   6.448 -0.1868 -0.0821  0.0071
 6720TIP3   OH241794   5.508   4.203   7.865  0.3204  0.2204  0.3146
 6720TIP3    H141795   5.524   4.118   7.824  0.3457  0.9162 -1.1788
 6720TIP3    H241796   5.424   4.232   7.828 -0.4556  0.1852  1.9757
 6721TIP3   OH241797   2.695   6.081   2.151 -0.2713 -0.4505  0.3103
 6721TIP3    H141798   2.731   5.994   2.169 -0.3472 -0.8471 -1.3179
 6721TIP3    H241799   2.766   6.127   2.106  0.1737  0.7528  2.1487
 6722TIP3   OH241800   6.625   2.725   8.350 -0.4033 -0.2313  0.0901
 6722TIP3    H141801   6.615   2.657   8.416  0.3924 -0.2033  0.2470
 6722TIP3    H241802   6.660   2.680   8.273  1.1546  0.1604  0.5402
 6723TIP3   OH241803   1.627   4.387   1.061  0.2658 -0.4492  0.7139
 6723TIP3    H141804   1.609   4.325   0.991  1.9547 -0.6921  0.4477
 6723TIP3    H241805   1.721   4.377   1.078  0.5036  1.7727  0.9208
 6724TIP3   OH241806   5.735   0.908   0.165  0.1667 -0.0233  0.0980
 6724TIP3    H141807   5.654   0.858   0.173  0.4205 -0.3262  0.8575
 6724TIP3    H241808   5.723   0.981   0.227  1.0520 -0.8710  1.3109
 6725TIP3   OH241809   0.015   2.482   0.918  0.6431  0.2994  0.1369
 6725TIP3    H141810  -0.071   2.466   0.957  1.5112  1.2516  2.6558
 6725TIP3    H241811   0.050   2.395   0.900 -1.0475 -0.1001 -1.5425
 6726TIP3   OH241812   1.017   3.492   1.510  0.2831  0.1785 -0.0146
 6726TIP3    H141813   1.075   3.517   1.438  2.1516  0.5622  1.5415
 6726TIP3    H241814   0.931   3.524   1.484  0.7002 -0.5559 -2.4810
 6727TIP3   OH241815   1.368   2.329   0.812 -0.4701 -0.6731 -0.1119
 6727TIP3    H141816   1.323   2.378   0.744 -1.6058  0.1933  1.2035
 6727TIP3    H241817   1.339   2.369   0.894  1.7970 -0.8842  0.8588
 6728TIP3   OH241818   0.778   1.297   2.380  0.5421 -0.4734 -0.0407
 6728TIP3    H141819   0.794   1.386   2.412  1.9426 -0.6978 -0.0331
 6728TIP3    H241820   0.840   1.242   2.429  0.7383 -1.2310 -1.0879
 6729TIP3   OH241821   5.632   3.375   7.112 -0.9489  0.4737 -0.1326
 6729TIP3    H141822   5.724   3.349   7.102 -1.6849 -1.8652 -1.9077
 6729TIP3    H241823   5.605   3.400   7.024 -2.7355 -1.8268 -0.3375
 6730TIP3   OH241824   0.562   4.434   6.854 -0.1735  0.1819  0.6833
 6730TIP3    H141825   0.595   4.348   6.831  1.0016  1.0932 -1.3081
 6730TIP3    H241826   0.467   4.424   6.853 -0.0538 -1.2083  1.0878
 6731TIP3   OH241827   6.297   5.970   1.155  0.7341  0.1902  0.3332
 6731TIP3    H141828   6.224   6.010   1.108 -2.7124 -1.0957  4.1082
 6731TIP3    H241829   6.324   5.897   1.100 -0.8076  0.6983 -1.1786
 6732TIP3   OH241830   5.147   3.452   7.457  0.8426 -0.5725  0.3944
 6732TIP3    H141831   5.157   3.432   7.364  0.0048  0.1883  0.1224
 6732TIP3    H241832   5.098   3.378   7.493  0.6679 -0.5931  0.1118
 6733TIP3   OH241833   3.923   4.148   0.714  0.0146 -0.3550 -0.4654
 6733TIP3    H141834   3.971   4.231   0.710 -0.1329 -0.1913  0.7016
 6733TIP3    H241835   3.922   4.126   0.807  0.2924 -1.8185 -0.7910
 6734TIP3   OH241836   3.414   2.461   1.473 -0.4259 -0.0240  0.2430
 6734TIP3    H141837   3.344   2.514   1.436  1.2007  2.2023  0.1802
 6734TIP3    H241838   3.491   2.483   1.421  0.8788 -0.4374  1.9167
 6735TIP3   OH241839   3.613   6.356   2.379 -0.0406  0.0732  0.4212
 6735TIP3    H141840   3.554   6.281   2.367  0.5979 -0.3424 -0.1741
 6735TIP3    H241841   3.571   6.408   2.448 -1.5280  0.2114 -0.5494
 6736TIP3   OH241842   2.089   5.811   2.854 -0.0940 -0.1976  0.6597
 6736TIP3    H141843   2.043   5.800   2.937 -3.4555  0.7559 -0.8966
 6736TIP3    H241844   2.022   5.794   2.787  2.3505 -0.5585 -1.8847
 6737TIP3   OH241845   5.212   4.887   8.481  0.1637  0.3046 -0.0254
 6737TIP3    H141846   5.284   4.937   8.519  1.5122 -1.5910  0.0223
 6737TIP3    H241847   5.235   4.796   8.496 -2.3241 -0.3679  0.0803
 6738TIP3   OH241848   6.048   6.754   2.107 -0.2012 -0.0215 -0.6554
 6738TIP3    H141849   6.134   6.734   2.144  0.1703  0.7702 -1.0506
 6738TIP3    H241850   6.067   6.788   2.020 -0.8284  1.1344 -0.3701
 6739TIP3   OH241851   3.501   3.383   7.542 -0.1551  0.3941  0.3445
 6739TIP3    H141852   3.497   3.304   7.488 -0.0094 -0.0745  1.0078
 6739TIP3    H241853   3.556   3.359   7.617  0.5587  1.3679  0.1638
 6740TIP3   OH241854   5.352   3.822   1.310 -0.7706 -0.6843 -0.5104
 6740TIP3    H141855   5.396   3.866   1.236 -1.7838  2.0818  0.4107
 6740TIP3    H241856   5.267   3.796   1.275  0.1435 -2.8527 -1.2995
 6741TIP3   OH241857   5.533   3.843   1.065  0.1045  0.1354  0.3585
 6741TIP3    H141858   5.617   3.888   1.054 -0.0798  0.4786  0.3599
 6741TIP3    H241859   5.469   3.903   1.027 -0.0058 -0.6256 -0.7057
 6742TIP3   OH241860   5.699   0.404   2.180 -0.2138  0.4528  0.2639
 6742TIP3    H141861   5.722   0.362   2.263  0.5358 -0.7250 -0.5101
 6742TIP3    H241862   5.610   0.436   2.194  0.0571  0.6638  1.6613
 6743TIP3   OH241863   5.961   2.754   8.670 -0.1628 -0.1775 -0.1180
 6743TIP3    H141864   6.031   2.713   8.721  0.4367  0.9287 -0.0232
 6743TIP3    H241865   5.976   2.848   8.681 -3.3234  0.2093  2.2916
 6744TIP3   OH241866   1.339   2.004   2.058 -0.3052 -0.3928  0.2896
 6744TIP3    H141867   1.418   1.956   2.033  0.2464  1.2684 -1.3787
 6744TIP3    H241868   1.267   1.955   2.018  0.3534  0.7077 -2.4816
 6745TIP3   OH241869   1.622   2.579   2.010 -0.4480  0.1066  0.1638
 6745TIP3    H141870   1.541   2.528   2.002  0.1144 -0.9784  1.2204
 6745TIP3    H241871   1.663   2.548   2.090  1.1738  0.4353 -0.4987
 6746TIP3   OH241872   5.922   2.535   0.428 -0.2294  0.1534 -0.1983
 6746TIP3    H141873   5.963   2.620   0.443 -0.0792  0.1051 -0.3334
 6746TIP3    H241874   5.983   2.471   0.464 -1.1078  0.1897  1.4431
 6747TIP3   OH241875   5.574   5.579   0.195  0.4380  0.2359 -0.5431
 6747TIP3    H141876   5.582   5.487   0.222 -0.5897  0.5623  1.0157
 6747TIP3    H241877   5.655   5.597   0.148  1.1398 -1.1728  0.0552
 6748TIP3   OH241878   4.721   0.136   1.825 -0.1411  0.4441  0.0155
 6748TIP3    H141879   4.801   0.184   1.805 -0.0123  0.1292 -0.2328
 6748TIP3    H241880   4.732   0.051   1.781 -0.9729  0.7045 -0.7242
 6749TIP3   OH241881   3.456   4.036   7.038 -0.5379 -0.0341 -0.3323
 6749TIP3    H141882   3.451   3.949   7.077 -1.0831 -0.2876 -0.9401
 6749TIP3    H241883   3.543   4.068   7.062 -0.8915 -0.1239  1.1603
 6750TIP3   OH241884   0.103   1.949   1.278  0.8107  0.1584  0.2282
 6750TIP3    H141885   0.116   1.865   1.234  1.0143 -0.6299  1.7151
 6750TIP3    H241886   0.061   2.004   1.213 -0.2890 -1.4287 -0.4622
 6751TIP3   OH241887   1.900   3.089   0.823  0.5079 -0.0854  0.5353
 6751TIP3    H141888   1.829   3.152   0.811  0.4828 -0.2839 -0.4290
 6751TIP3    H241889   1.884   3.022   0.757  2.6075  0.8062 -0.9892
 6752TIP3   OH241890   1.405   0.582   8.224 -0.0042  1.0664 -0.4953
 6752TIP3    H141891   1.364   0.504   8.186  0.2268  1.7593 -2.2555
 6752TIP3    H241892   1.370   0.654   8.172 -0.5997  2.2235  1.4198
 6753TIP3   OH241893   0.043   6.025   8.255 -0.0268 -0.8383 -0.1557
 6753TIP3    H141894   0.138   6.013   8.246  0.2899  1.5458 -0.8504
 6753TIP3    H241895   0.006   5.939   8.235  1.9552 -1.6925 -0.4568
 6754TIP3   OH241896   0.422   6.681   1.641  0.2180  0.1727  0.3587
 6754TIP3    H141897   0.458   6.751   1.696  0.8742  0.9745 -1.0493
 6754TIP3    H241898   0.476   6.604   1.662  0.2807  0.3902  1.0178
 6755TIP3   OH241899   0.279   5.037   6.975  0.0737  0.1087 -0.7375
 6755TIP3    H141900   0.262   4.961   6.920  0.1672 -0.4540  0.0017
 6755TIP3    H241901   0.211   5.100   6.951  0.6386  0.2201 -2.1215
 6756TIP3   OH241902   6.757   1.550   8.016  0.3432  0.2430  0.1326
 6756TIP3    H141903   6.719   1.576   7.932 -0.3071 -0.5126  0.1816
 6756TIP3    H241904   6.834   1.498   7.992  0.6102  0.6856  0.0176
 6757TIP3   OH241905   2.844   4.997   1.069 -0.2429  0.6010  0.3450
 6757TIP3    H141906   2.931   5.035   1.082 -0.5938  0.9263  2.0115
 6757TIP3    H241907   2.783   5.064   1.101 -0.9877 -0.3861  1.0602
 6758TIP3   OH241908   1.045   6.491   0.546 -0.2415 -0.3722 -0.1652
 6758TIP3    H141909   1.119   6.434   0.568 -0.0693 -0.1166 -0.0693
 6758TIP3    H241910   1.082   6.554   0.484 -0.0028  0.6337  0.9507
 6759TIP3   OH241911   4.650   2.197   8.553  0.3914  0.3415 -0.4571
 6759TIP3    H141912   4.669   2.123   8.494  1.3953 -0.2452  0.5579
 6759TIP3    H241913   4.641   2.272   8.495 -0.1601 -0.4829 -1.4798
 6760TIP3   OH241914   4.652   2.923   8.134 -0.1094 -0.1272  0.1358
 6760TIP3    H141915   4.587   2.929   8.064  0.1858 -0.9811 -0.2291
 6760TIP3    H241916   4.623   2.849   8.188  0.8979 -0.9762 -0.4285
 6761TIP3   OH241917   0.477   1.810   0.145 -0.1228 -0.0196 -0.0805
 6761TIP3    H141918   0.402   1.830   0.090 -1.3981 -1.8247  0.8742
 6761TIP3    H241919   0.476   1.715   0.153  2.0645 -0.0757  0.2999
 6762TIP3   OH241920   3.319   2.703   8.041  0.2954  0.0845  0.5194
 6762TIP3    H141921   3.382   2.753   8.094  1.7517 -1.2009  0.0585
 6762TIP3    H241922   3.236   2.713   8.088  0.5434  2.7135  0.5658
 6763TIP3   OH241923   4.496   3.849   2.278 -0.0662  0.5552  0.3344
 6763TIP3    H141924   4.451   3.917   2.328  0.2264 -1.0731  3.0306
 6763TIP3    H241925   4.438   3.773   2.283  1.8608 -0.9181  1.9461
 6764TIP3   OH241926   3.344   6.741   0.593  0.3082 -0.2582  0.0682
 6764TIP3    H141927   3.327   6.682   0.667  2.1321 -1.9574 -0.7612
 6764TIP3    H241928   3.434   6.770   0.606 -0.1870  1.4691 -0.1733
 6765TIP3   OH241929   3.640   0.424   0.973 -0.2619 -0.5285  0.3673
 6765TIP3    H141930   3.552   0.445   1.006  0.0750 -0.0002  0.9513
 6765TIP3    H241931   3.653   0.332   0.996 -0.5287 -0.5127  0.5862
 6766TIP3   OH241932   5.115   0.068   8.098 -0.0487 -0.4402  0.3326
 6766TIP3    H141933   5.073   0.051   8.183 -0.1987 -1.4462  0.0713
 6766TIP3    H241934   5.144  -0.018   8.069  2.2684  0.2030  0.5248
 6767TIP3   OH241935   3.430   3.081   0.137 -0.4614 -0.1494 -0.2903
 6767TIP3    H141936   3.404   3.095   0.046 -1.6066  0.6510  0.1398
 6767TIP3    H241937   3.489   3.154   0.156 -1.3269  0.4734  0.0218
 6768TIP3   OH241938   2.876   6.741   8.482  0.2198  0.0836 -0.9206
 6768TIP3    H141939   2.945   6.798   8.517  1.1567 -0.6850 -1.4550
 6768TIP3    H241940   2.797   6.765   8.531  0.7363  1.3783 -0.6858
 6769TIP3   OH241941   2.932   6.014   6.721  0.6809 -0.5865 -0.5496
 6769TIP3    H141942   2.884   5.943   6.764 -2.1498  1.1640 -0.5497
 6769TIP3    H241943   2.907   6.008   6.629  0.1075  0.5823 -0.4934
 6770TIP3   OH241944   5.977   1.269   2.458 -0.1552  0.3320  0.4401
 6770TIP3    H141945   6.049   1.245   2.516  0.8448 -0.7741 -1.1440
 6770TIP3    H241946   5.909   1.303   2.515  0.1888 -2.0465  2.4290
 6771TIP3   OH241947   6.707   3.417   0.634  0.4508 -0.6245  0.5570
 6771TIP3    H141948   6.675   3.506   0.650  1.2294 -0.4207  1.0474
 6771TIP3    H241949   6.631   3.361   0.650 -0.0968 -0.0405  0.0658
 6772TIP3   OH241950   1.730   1.773   8.055 -0.4742 -0.1972 -0.7053
 6772TIP3    H141951   1.766   1.749   8.141 -0.8752 -0.9153 -0.7305
 6772TIP3    H241952   1.648   1.725   8.049 -0.5209 -0.0372 -1.4346
 6773TIP3   OH241953   4.247   3.035   0.828  0.0083  0.2213 -0.3266
 6773TIP3    H141954   4.222   3.127   0.831  0.2693  0.3453 -1.5388
 6773TIP3    H241955   4.210   3.002   0.746  1.5555 -0.2502 -0.8757
 6774TIP3   OH241956   0.104   5.392   1.680  0.1454 -0.9183  0.3287
 6774TIP3    H141957   0.126   5.381   1.587  0.7230 -0.5477  0.4238
 6774TIP3    H241958   0.181   5.431   1.719 -0.6308  0.3344  0.6782
 6775TIP3   OH241959   4.847   5.929   2.043 -0.4251  0.1188 -0.1964
 6775TIP3    H141960   4.905   5.895   2.111 -1.2736 -0.1167  0.4328
 6775TIP3    H241961   4.759   5.920   2.081 -0.6920  4.6292  0.8491
 6776TIP3   OH241962   4.903   0.486   7.827 -0.5572 -1.0195 -0.2079
 6776TIP3    H141963   4.843   0.484   7.752 -1.4349 -1.6008  0.4887
 6776TIP3    H241964   4.979   0.436   7.798  0.8205  1.8558 -2.0392
 6777TIP3   OH241965   3.360   2.764   2.196 -0.1630 -0.1908 -0.1289
 6777TIP3    H141966   3.271   2.785   2.167 -0.1870 -0.1539 -0.0290
 6777TIP3    H241967   3.378   2.828   2.265 -1.1696 -2.0007  1.9550
 6778TIP3   OH241968   4.451   4.808   2.555 -0.5645 -0.1369 -0.2010
 6778TIP3    H141969   4.376   4.867   2.563 -0.8624 -0.2067 -2.0740
 6778TIP3    H241970   4.516   4.844   2.617 -2.3393 -0.4889  1.9901
 6779TIP3   OH241971   6.591   6.166   7.140 -0.0594 -0.0488  0.6456
 6779TIP3    H141972   6.505   6.189   7.106  0.9758  1.6058 -1.0196
 6779TIP3    H241973   6.611   6.236   7.202 -0.5386 -1.3027  2.2988
 6780TIP3   OH241974   3.365   3.753   1.762  0.0848 -0.3470  0.2303
 6780TIP3    H141975   3.311   3.827   1.735 -1.1292 -2.3486 -3.4863
 6780TIP3    H241976   3.447   3.764   1.714 -0.4996 -1.8040 -1.2251
 6781TIP3   OH241977   3.969   0.246   6.683 -0.9237  0.3196 -0.1320
 6781TIP3    H141978   3.874   0.235   6.676 -1.2034 -0.1601  2.9388
 6781TIP3    H241979   4.003   0.157   6.687 -1.0570  0.2627  4.3460
 6782TIP3   OH241980   6.442   2.645   0.273  0.1765 -0.0053 -0.5595
 6782TIP3    H141981   6.386   2.703   0.222  0.2909  1.4070  0.8346
 6782TIP3    H241982   6.505   2.611   0.210 -3.1279 -3.0651 -2.6422
 6783TIP3   OH241983   6.192   4.474   0.571 -0.2033 -0.0695 -0.4388
 6783TIP3    H141984   6.152   4.389   0.556  1.6903 -0.8985 -1.1034
 6783TIP3    H241985   6.175   4.523   0.490  1.1772 -0.8890 -1.2701
 6784TIP3   OH241986   1.248   5.008   6.418  0.0378 -0.8035  0.8828
 6784TIP3    H141987   1.257   5.047   6.505 -0.8168  2.2133 -0.2708
 6784TIP3    H241988   1.321   5.045   6.368 -1.5726  0.5131 -0.6197
 6785TIP3   OH241989   5.657   3.711   1.281  0.1139  0.0197 -0.2528
 6785TIP3    H141990   5.589   3.685   1.343 -0.3885  0.2557 -0.6927
 6785TIP3    H241991   5.608   3.744   1.205  0.7012 -0.5163 -0.8830
 6786TIP3   OH241992   2.692   4.379   8.374  0.0521 -0.0931  0.0667
 6786TIP3    H141993   2.718   4.323   8.447  0.4651  0.3130  0.2319
 6786TIP3    H241994   2.596   4.384   8.381 -0.0487 -1.1904 -0.2574
 6787TIP3   OH241995   4.203   1.057   1.144 -0.7794  0.2106 -0.4367
 6787TIP3    H141996   4.179   1.015   1.061 -1.0959 -0.2445 -0.1160
 6787TIP3    H241997   4.266   1.125   1.118  0.8299 -1.3532 -0.8166
 6788TIP3   OH241998   4.810   1.177   1.195 -0.1835  0.0278 -0.0846
 6788TIP3    H141999   4.774   1.171   1.284 -0.9698  1.9578 -0.2346
 6788TIP3    H242000   4.757   1.243   1.151  2.5568  1.9632 -0.8028
 6789TIP3   OH242001   6.561   4.308   1.662  0.2574  0.2153 -0.0852
 6789TIP3    H142002   6.634   4.247   1.676  0.0191  0.1992  1.2000
 6789TIP3    H242003   6.502   4.292   1.736  0.1885  1.9958  0.2822
 6790TIP3   OH242004   2.239   4.208   0.517  0.0786  0.5768 -0.1130
 6790TIP3    H142005   2.202   4.282   0.566  0.1461  0.1583  0.5941
 6790TIP3    H242006   2.202   4.130   0.560 -0.4013  0.1980 -1.1706
 6791TIP3   OH242007   1.729   3.043   7.660  0.2629 -0.0770 -0.0745
 6791TIP3    H142008   1.646   3.007   7.627 -0.3017  1.2197 -0.1329
 6791TIP3    H242009   1.756   3.105   7.593  0.2243  1.0047  0.8911
 6792TIP3   OH242010   5.977   2.222   1.263  0.2134 -0.3805 -0.2280
 6792TIP3    H142011   6.058   2.209   1.214 -0.3093 -2.9707 -0.5351
 6792TIP3    H242012   5.921   2.149   1.237 -2.2732  1.3399 -0.0549
 6793TIP3   OH242013   0.700   2.431   1.241 -0.4566  0.0030 -0.5296
 6793TIP3    H142014   0.694   2.507   1.299 -0.5339 -0.2382 -0.2199
 6793TIP3    H242015   0.622   2.380   1.261 -1.1061  0.5041 -1.6905
 6794TIP3   OH242016   2.939   5.860   0.561  0.1843  0.1410  0.0458
 6794TIP3    H142017   2.993   5.799   0.510 -2.4501 -0.3554 -2.3737
 6794TIP3    H242018   2.887   5.907   0.496 -2.9988 -0.0873  2.2087
 6795TIP3   OH242019   2.306   2.137   7.878 -0.6507 -0.1519  0.1038
 6795TIP3    H142020   2.349   2.092   7.950 -2.4495 -0.6873  0.8852
 6795TIP3    H242021   2.339   2.093   7.799 -0.3337 -1.0279  0.7150
 6796TIP3   OH242022   2.520   5.406   0.222 -0.0741  0.2967 -0.4475
 6796TIP3    H142023   2.600   5.381   0.269 -0.9891 -2.7350 -0.2933
 6796TIP3    H242024   2.550   5.432   0.135  1.1485 -0.2222 -0.2041
 6797TIP3   OH242025   2.176   3.010   7.704 -0.5889 -0.2553 -0.3216
 6797TIP3    H142026   2.252   2.954   7.725  0.7731  2.1382  1.6526
 6797TIP3    H242027   2.177   3.016   7.609  2.1342  0.1621 -0.3573
 6798TIP3   OH242028   6.236   4.920   7.283 -0.2031 -0.3024 -0.4403
 6798TIP3    H142029   6.217   4.926   7.189 -1.8728  2.2141 -0.0401
 6798TIP3    H242030   6.329   4.940   7.290 -0.5754  2.1476 -1.4428
 6799TIP3   OH242031   4.776   2.503   1.124  0.3445  0.6844  0.7711
 6799TIP3    H142032   4.724   2.517   1.046  2.4926 -0.3092 -0.9527
 6799TIP3    H242033   4.739   2.425   1.164  1.6978 -1.3306 -1.6305
 6800TIP3   OH242034   1.819   6.720   2.194  0.2791 -0.0573  0.0663
 6800TIP3    H142035   1.833   6.647   2.133 -2.1151  0.7098 -1.5170
 6800TIP3    H242036   1.798   6.678   2.277 -0.0408 -1.1762 -0.5574
 6801TIP3   OH242037   1.029   4.884   7.961 -0.0819 -0.2812  0.5861
 6801TIP3    H142038   0.940   4.920   7.960 -0.5642 -1.4411  0.1986
 6801TIP3    H242039   1.085   4.956   7.931 -0.9480  0.3013  0.3425
 6802TIP3   OH242040   5.772   4.405   0.955  0.1193  0.2166  0.3367
 6802TIP3    H142041   5.820   4.433   1.033  2.6220 -0.0893 -0.9867
 6802TIP3    H242042   5.831   4.343   0.912 -2.1185 -1.3190 -0.6953
 6803TIP3   OH242043   2.298   5.142   2.899 -0.1581 -0.6854 -0.2266
 6803TIP3    H142044   2.312   5.114   2.989 -0.0958 -0.7330 -0.2515
 6803TIP3    H242045   2.360   5.092   2.848  1.7495  1.2893  0.0110
 6804TIP3   OH242046   4.137   5.037   0.187  0.6100  0.2424  0.4326
 6804TIP3    H142047   4.148   5.132   0.185 -1.2352  0.5137  1.4054
 6804TIP3    H242048   4.045   5.022   0.167  0.4447 -1.2188  2.0190
 6805TIP3   OH242049   0.549   1.172   2.319 -0.0379 -0.3595  0.8225
 6805TIP3    H142050   0.624   1.229   2.332 -0.6182  0.9592 -1.1460
 6805TIP3    H242051   0.584   1.095   2.274  0.3549 -0.4400  1.2616
 6806TIP3   OH242052   3.741   5.001   0.753 -0.1837  0.7122 -0.1343
 6806TIP3    H142053   3.798   4.965   0.820 -1.0603  0.1032  0.3062
 6806TIP3    H242054   3.782   4.977   0.670 -0.6893 -1.2419  0.1492
 6807TIP3   OH242055   3.681   5.943   8.786  0.3777 -0.2027  0.1912
 6807TIP3    H142056   3.640   5.998   8.720 -0.6890 -0.7498  0.3711
 6807TIP3    H242057   3.735   5.881   8.736  0.7020  0.2930 -0.0745
 6808TIP3   OH242058   5.917   6.248   7.759 -0.2448 -0.0371 -0.1375
 6808TIP3    H142059   5.917   6.245   7.663 -1.3938 -2.6490 -0.1528
 6808TIP3    H242060   5.937   6.158   7.785 -2.6385 -0.0629  2.0195
 6809TIP3   OH242061   2.221   4.321   2.275  0.2178 -0.3090  0.2678
 6809TIP3    H142062   2.139   4.290   2.235  2.4863 -0.7649 -4.8183
 6809TIP3    H242063   2.251   4.247   2.328 -2.0024 -0.5452  1.3159
 6810TIP3   OH242064   3.152   4.118   7.594 -0.1562  0.1753 -0.0783
 6810TIP3    H142065   3.201   4.184   7.644 -0.1615  0.2929 -0.2275
 6810TIP3    H242066   3.200   4.037   7.607  0.3354  0.3810 -0.6042
 6811TIP3   OH242067   1.613   3.501   0.800 -0.8765  0.2657 -0.0395
 6811TIP3    H142068   1.703   3.534   0.790 -1.1068  0.5283 -1.4419
 6811TIP3    H242069   1.585   3.480   0.711 -2.5300  1.0234  0.2641
 6812TIP3   OH242070   3.269   0.191   0.784  0.4896  0.1988  0.3970
 6812TIP3    H142071   3.238   0.281   0.794  2.5401  0.8270  1.6074
 6812TIP3    H242072   3.189   0.140   0.767 -1.1177  1.7871  2.6445
 6813TIP3   OH242073   5.976   5.132   2.216 -0.9074  0.1146 -0.1890
 6813TIP3    H142074   5.943   5.181   2.291  2.3453  4.1670 -1.0293
 6813TIP3    H242075   5.919   5.159   2.143  0.3029  2.1974 -0.4585
 6814TIP3   OH242076   3.466   4.193   0.915 -0.1073 -0.5586  0.3724
 6814TIP3    H142077   3.395   4.235   0.964  0.2651  0.0566  0.3915
 6814TIP3    H242078   3.546   4.223   0.958  0.4660  2.7111 -2.5468
 6815TIP3   OH242079   6.811   3.154   1.340 -0.4153  0.6626 -0.4753
 6815TIP3    H142080   6.751   3.179   1.270 -0.1961 -1.7014 -1.6052
 6815TIP3    H242081   6.895   3.193   1.315 -0.5925  0.7710 -0.9022
 6816TIP3   OH242082   0.705   0.365   8.534  0.0386  0.5571 -0.2967
 6816TIP3    H142083   0.788   0.387   8.491 -0.0214  1.5356  0.0564
 6816TIP3    H242084   0.660   0.309   8.471  1.4758 -1.0196  0.0107
 6817TIP3   OH242085   5.256   0.677   0.890  0.4961  0.0121 -0.3036
 6817TIP3    H142086   5.249   0.695   0.796  0.2059  1.5897 -0.0050
 6817TIP3    H242087   5.166   0.662   0.918  0.3899  1.0406 -0.0295
 6818TIP3   OH242088   2.261   6.772   8.522  0.2977  0.1778 -0.0288
 6818TIP3    H142089   2.255   6.842   8.456 -0.0439 -0.2112 -0.4181
 6818TIP3    H242090   2.352   6.743   8.518  0.2634  0.1091 -0.3837
 6819TIP3   OH242091   2.610   1.118   0.207 -0.2861 -0.3983 -0.0814
 6819TIP3    H142092   2.649   1.123   0.120 -0.1132 -1.4101 -0.0652
 6819TIP3    H242093   2.629   1.204   0.246 -0.0553 -0.0649 -0.8967
 6820TIP3   OH242094   4.038   5.289   8.134  0.1241 -0.3410  0.2005
 6820TIP3    H142095   4.082   5.235   8.068  2.5396  0.8068  0.7424
 6820TIP3    H242096   4.008   5.227   8.200 -0.7206 -1.3406 -1.0844
 6821TIP3   OH242097   3.899   6.584   8.011 -0.1875  0.1405 -0.4181
 6821TIP3    H142098   3.921   6.561   7.921 -1.3031 -0.8239 -0.4583
 6821TIP3    H242099   3.848   6.665   8.004  0.3593  0.4819 -0.5750
 6822TIP3   OH242100   1.111   5.675   0.895 -0.8117 -0.2438  0.0728
 6822TIP3    H142101   1.020   5.703   0.904 -1.2681 -0.7163 -2.2472
 6822TIP3    H242102   1.110   5.581   0.914 -0.8585 -0.2855 -0.1292
 6823TIP3   OH242103   0.076   1.606   2.816 -0.0951  0.7141  1.2379
 6823TIP3    H142104  -0.003   1.555   2.797  0.2165  0.7739 -0.3741
 6823TIP3    H242105   0.127   1.551   2.874 -0.9787  0.3442  1.6778
 6824TIP3   OH242106   3.929   0.577   1.082 -0.6936 -0.1074 -0.0695
 6824TIP3    H142107   3.924   0.617   0.995  1.0968 -0.5709 -0.4254
 6824TIP3    H242108   3.952   0.650   1.140 -0.3187 -0.0850 -0.2435
 6825TIP3   OH242109   2.856   6.514   2.126 -0.1048 -0.3079 -0.5061
 6825TIP3    H142110   2.787   6.499   2.191  0.7356 -0.8173  0.2789
 6825TIP3    H242111   2.866   6.609   2.124 -0.1029 -0.2922  0.1434
 6826TIP3   OH242112   1.328   6.001   1.641  0.0502 -0.2644 -0.6944
 6826TIP3    H142113   1.280   5.993   1.558  0.4206  1.4339 -1.1156
 6826TIP3    H242114   1.320   5.915   1.682 -2.4842 -0.3391 -1.1986
 6827TIP3   OH242115   5.962   6.607   7.998  0.2481 -0.0201 -0.1756
 6827TIP3    H142116   5.998   6.643   7.917  1.7379 -0.1320  0.3995
 6827TIP3    H242117   5.875   6.647   8.005 -0.6796 -1.3687 -2.7096
 6828TIP3   OH242118   6.385   4.324   1.894  0.1881  0.3122  0.2151
 6828TIP3    H142119   6.338   4.328   1.977  1.1592  2.2259  0.7155
 6828TIP3    H242120   6.378   4.412   1.857  1.4780  0.0455 -0.7604
 6829TIP3   OH242121   3.838   2.145   6.685  0.0297  0.0305  0.1633
 6829TIP3    H142122   3.849   2.106   6.772 -0.0960 -1.0288 -0.2864
 6829TIP3    H242123   3.749   2.123   6.660 -0.5023  1.7190  0.4188
 6830TIP3   OH242124   6.745   6.208   8.402 -0.0116 -0.0391 -0.3370
 6830TIP3    H142125   6.794   6.152   8.342 -1.3243 -1.5133 -0.0913
 6830TIP3    H242126   6.786   6.194   8.487  0.9845  1.0070 -0.6259
 6831TIP3   OH242127   4.762   3.926   1.427  0.0436  0.4875  0.2400
 6831TIP3    H142128   4.847   3.938   1.470  0.3445 -3.0166  0.8940
 6831TIP3    H242129   4.699   3.941   1.497  0.3477 -0.9870  0.8570
 6832TIP3   OH242130   4.567   1.568   7.777 -0.0854  0.0025  0.3139
 6832TIP3    H142131   4.485   1.531   7.745 -0.5086  2.9336 -2.5241
 6832TIP3    H242132   4.541   1.642   7.831  0.5382  1.9824 -1.9433
 6833TIP3   OH242133   0.054   2.364   1.269  0.3069 -0.0308  0.4303
 6833TIP3    H142134   0.093   2.334   1.352  0.5192  1.0161  0.7295
 6833TIP3    H242135  -0.036   2.333   1.272  0.6816 -1.1334  0.4525
 6834TIP3   OH242136   4.245   3.178   8.294  0.1036 -0.4441  0.0380
 6834TIP3    H142137   4.216   3.136   8.214  1.0167  0.8538 -1.0176
 6834TIP3    H242138   4.300   3.112   8.338  0.5201 -0.7859 -0.9680
 6835TIP3   OH242139   3.372   1.561   2.139 -0.0636 -0.4072  0.2112
 6835TIP3    H142140   3.373   1.654   2.160  1.8738 -0.6903  1.6440
 6835TIP3    H242141   3.314   1.521   2.204  1.4923 -0.5382  1.5938
 6836TIP3   OH242142   4.690   4.670   6.855 -0.0018  0.0224  0.1431
 6836TIP3    H142143   4.779   4.677   6.889  0.9317  1.3242 -2.2969
 6836TIP3    H242144   4.670   4.758   6.823 -1.7049 -0.5443 -0.4611
 6837TIP3   OH242145   1.076   6.188   2.527  0.4973  0.1365 -0.1168
 6837TIP3    H142146   1.152   6.192   2.469  0.3351  0.2353 -0.3245
 6837TIP3    H242147   1.089   6.260   2.589  0.0195  0.8767 -0.8424
 6838TIP3   OH242148   4.215   1.253   7.522  0.1013 -0.6444 -0.6012
 6838TIP3    H142149   4.206   1.169   7.478 -0.2312 -0.7282 -0.3768
 6838TIP3    H242150   4.211   1.232   7.615  2.1670 -0.6396 -0.4676
 6839TIP3   OH242151   0.537   3.313   1.807 -0.9553 -0.4625 -0.3588
 6839TIP3    H142152   0.496   3.259   1.874  0.1851 -1.2897 -0.2945
 6839TIP3    H242153   0.482   3.300   1.729 -0.0541 -2.7445 -0.6996
 6840TIP3   OH242154   0.877   4.498   6.865 -0.3193  0.5148 -0.0646
 6840TIP3    H142155   0.918   4.525   6.783  0.2400  0.2004  0.1095
 6840TIP3    H242156   0.944   4.511   6.932 -1.0830  1.7185  0.5185
 6841TIP3   OH242157   0.361   2.389   8.723 -0.5697  0.4310 -0.4039
 6841TIP3    H142158   0.387   2.408   8.813  2.1502 -1.8102 -0.6008
 6841TIP3    H242159   0.377   2.471   8.676  1.6506  0.5498  0.4652
 6842TIP3   OH242160   0.846   0.592   8.822 -0.1787  0.7898  0.2004
 6842TIP3    H142161   0.838   0.496   8.822 -2.3860  0.8590 -1.9419
 6842TIP3    H242162   0.866   0.615   8.913  1.6583 -1.7347  0.5460
 6843TIP3   OH242163   0.037   5.055   0.646 -0.4452 -0.1237  0.4276
 6843TIP3    H142164   0.130   5.075   0.655 -0.4092 -0.2797  0.4041
 6843TIP3    H242165   0.019   4.993   0.717 -0.4809 -0.2627  0.2973
 6844TIP3   OH242166   0.951   3.823   1.686 -0.4365 -0.3204  0.3859
 6844TIP3    H142167   0.965   3.852   1.595 -0.6371 -1.4914 -0.0392
 6844TIP3    H242168   1.023   3.762   1.702  0.5013  1.0344  1.5724
 6845TIP3   OH242169   5.988   1.211   8.102  1.0781  0.1055 -0.4431
 6845TIP3    H142170   5.960   1.120   8.111  1.1328  0.3338  3.0156
 6845TIP3    H242171   5.914   1.255   8.059 -0.6289 -0.8388  1.4092
 6846TIP3   OH242172   4.974   1.842   1.947  0.1292 -0.2635  0.1104
 6846TIP3    H142173   4.930   1.769   1.992  0.8261 -1.3346 -0.8968
 6846TIP3    H242174   5.057   1.805   1.916  0.7668  1.1248  0.0611
 6847TIP3   OH242175   6.811   1.678   1.935 -0.2748 -0.4838 -0.4163
 6847TIP3    H142176   6.868   1.675   2.012  1.3668  0.2609 -1.5438
 6847TIP3    H242177   6.749   1.749   1.953  0.0605 -0.3553  0.2420
 6848TIP3   OH242178   4.122   2.015   0.082  0.1842  0.7543  0.0700
 6848TIP3    H142179   4.097   2.094   0.034  0.3514  0.3290 -0.7278
 6848TIP3    H242180   4.075   2.022   0.166 -0.2927  1.3888 -0.2424
 6849TIP3   OH242181   0.354   1.414   1.503  0.1111 -0.4687  0.0379
 6849TIP3    H142182   0.285   1.427   1.438  0.4481  0.6780 -0.1127
 6849TIP3    H242183   0.308   1.377   1.579 -0.8882  1.2802  0.3382
 6850TIP3   OH242184   3.929   4.101   7.053  0.5838 -0.0817  0.5047
 6850TIP3    H142185   3.837   4.073   7.053  1.5024 -3.6597 -0.4847
 6850TIP3    H242186   3.951   4.112   6.961  1.4878 -0.6877  0.6370
 6851TIP3   OH242187   5.251   3.126   0.212 -0.5337  0.4564 -0.2795
 6851TIP3    H142188   5.214   3.185   0.278  1.3556 -0.7970  2.0595
 6851TIP3    H242189   5.213   3.041   0.232 -0.2955  0.1311 -1.1655
 6852TIP3   OH242190   3.213   6.665   7.707  0.2566 -0.0692  0.7422
 6852TIP3    H142191   3.119   6.654   7.698  0.4831 -1.1442 -0.6207
 6852TIP3    H242192   3.224   6.707   7.792 -1.4525  0.2157  0.8565
 6853TIP3   OH242193   2.987   5.912   7.241  0.5005 -0.6455  0.7516
 6853TIP3    H142194   3.038   5.969   7.183 -0.3476  0.4065  1.0077
 6853TIP3    H242195   2.969   5.834   7.188 -2.2041  1.2063 -1.3419
 6854TIP3   OH242196   5.967   1.238   0.386  0.3997  0.4077 -0.2342
 6854TIP3    H142197   5.978   1.303   0.316  0.1076  0.6394 -0.0661
 6854TIP3    H242198   5.891   1.268   0.435  0.4937  0.1433  0.0760
 6855TIP3   OH242199   6.081   5.260   0.278  0.0911 -0.6265  0.4253
 6855TIP3    H142200   6.023   5.281   0.205 -0.1189  1.4606  1.1421
 6855TIP3    H242201   6.093   5.343   0.324  0.9512 -1.7072  2.2418
 6856TIP3   OH242202   0.038   2.201   8.590  0.3855 -0.1239 -0.2141
 6856TIP3    H142203   0.056   2.127   8.531  0.1130 -0.0249 -0.4243
 6856TIP3    H242204  -0.049   2.183   8.625  0.8559 -0.5857  0.7754
 6857TIP3   OH242205   6.326   1.094   1.585 -0.0989 -0.0349  0.1406
 6857TIP3    H142206   6.356   1.166   1.530  0.8454  0.7381  1.6044
 6857TIP3    H242207   6.399   1.032   1.587  0.8673  1.0692  2.3761
 6858TIP3   OH242208   1.466   2.874   1.193  0.1655  1.0238  0.4047
 6858TIP3    H142209   1.377   2.865   1.159  0.1945  0.8441  0.3759
 6858TIP3    H242210   1.463   2.830   1.278  1.2738 -2.8535 -1.3193
 6859TIP3   OH242211   1.245   1.810   8.066 -0.4946 -0.1351 -0.1775
 6859TIP3    H142212   1.206   1.730   8.100 -0.5595  0.2569  0.6981
 6859TIP3    H242213   1.193   1.881   8.105  1.1789  0.4049  1.1979
 6860TIP3   OH242214   0.575   3.757   8.132  0.2928 -0.4129  0.2797
 6860TIP3    H142215   0.514   3.703   8.082  0.3814  1.4788 -2.0812
 6860TIP3    H242216   0.519   3.824   8.173  0.3367 -1.3876  2.0282
 6861TIP3   OH242217   4.989   1.539   1.873  0.5675 -0.3454  0.4962
 6861TIP3    H142218   4.929   1.571   1.806  0.8037 -0.0966  0.4048
 6861TIP3    H242219   5.053   1.487   1.825  1.0149  0.2234  0.4655
 6862TIP3   OH242220   0.385   3.241   7.836  0.0972 -0.1171  0.0555
 6862TIP3    H142221   0.402   3.263   7.744 -1.2982 -0.7231 -0.3791
 6862TIP3    H242222   0.317   3.303   7.863  0.3908 -0.0441  0.6464
 6863TIP3   OH242223   5.655   3.618   2.780  0.0581 -0.5321 -0.4582
 6863TIP3    H142224   5.722   3.551   2.796  1.1988  0.8930  1.1270
 6863TIP3    H242225   5.702   3.688   2.734 -0.2745  0.5486  0.7873
 6864TIP3   OH242226   4.808   2.751   1.759 -0.1712  0.5293 -0.2315
 6864TIP3    H142227   4.796   2.666   1.800  2.3314  0.9414  1.6458
 6864TIP3    H242228   4.722   2.774   1.723 -1.0938 -2.3934 -0.1299
 6865TIP3   OH242229   3.652   0.327   1.234  0.2963 -0.1457 -0.0696
 6865TIP3    H142230   3.642   0.422   1.227  0.4496 -0.1719 -0.7343
 6865TIP3    H242231   3.621   0.306   1.322  2.5172  0.8087  1.0197
 6866TIP3   OH242232   3.350   2.167   1.441 -0.2938  0.4593 -0.2268
 6866TIP3    H142233   3.397   2.251   1.437 -1.6814  1.3979  1.7295
 6866TIP3    H242234   3.261   2.188   1.414 -1.4668  0.3547  3.1374
 6867TIP3   OH242235   0.945   4.553   0.133  0.4992  0.1448  0.4401
 6867TIP3    H142236   1.025   4.605   0.124  0.3106  0.3289 -0.2392
 6867TIP3    H242237   0.916   4.537   0.043 -0.3399  0.2670  0.6740
 6868TIP3   OH242238   0.769   1.277   7.155 -0.1358 -0.2888 -0.3724
 6868TIP3    H142239   0.737   1.320   7.234 -1.3776 -0.2200 -0.8937
 6868TIP3    H242240   0.848   1.231   7.183  1.8986  3.0712  0.0259
 6869TIP3   OH242241   2.751   3.089   1.984 -0.1374 -0.2115  0.5673
 6869TIP3    H142242   2.838   3.049   1.992  0.1794  0.5411  0.9281
 6869TIP3    H242243   2.766   3.183   1.995 -1.0120 -0.0804  0.7291
 6870TIP3   OH242244   4.042   0.295   7.254 -0.1423  0.3370 -0.7006
 6870TIP3    H142245   3.974   0.333   7.311  0.7026  1.9435 -0.6867
 6870TIP3    H242246   4.011   0.313   7.165  0.8749  2.3743 -0.7015
 6871TIP3   OH242247   3.184   0.135   7.633  0.3008 -0.2626  0.3706
 6871TIP3    H142248   3.279   0.131   7.640  0.4576 -0.2940 -1.3100
 6871TIP3    H242249   3.168   0.157   7.542 -1.3079  0.1657  0.7292
 6872TIP3   OH242250   3.969   0.390   8.248  0.0069 -0.0479  0.6165
 6872TIP3    H142251   3.966   0.402   8.343  0.2072  0.9800  0.4950
 6872TIP3    H242252   4.060   0.367   8.230 -0.4151 -2.1477  0.8714
 6873TIP3   OH242253   6.318   6.425   2.189 -0.1093 -0.2603  0.2338
 6873TIP3    H142254   6.351   6.502   2.236 -1.3144  0.7330 -0.5026
 6873TIP3    H242255   6.397   6.385   2.152  0.4256  1.6282 -0.8371
 6874TIP3   OH242256   2.584   2.874   1.072  0.0600 -0.6942 -0.2579
 6874TIP3    H142257   2.597   2.957   1.117  0.5472 -0.6829 -0.4148
 6874TIP3    H242258   2.519   2.892   1.005  1.1811 -0.0993 -1.2101
 6875TIP3   OH242259   3.954   4.714   1.707  0.6100 -0.4532  0.1948
 6875TIP3    H142260   4.005   4.634   1.722  2.5070  0.6759  0.1112
 6875TIP3    H242261   4.019   4.784   1.707 -0.9587  1.0725 -0.0745
 6876TIP3   OH242262   6.185   2.497   0.706  0.0464  0.1560  0.5819
 6876TIP3    H142263   6.195   2.522   0.614  0.4778  0.7904  0.7898
 6876TIP3    H242264   6.112   2.551   0.738 -1.9370 -2.0029 -0.0536
 6877TIP3   OH242265   2.967   3.344   1.304  0.0552  0.0871  0.6397
 6877TIP3    H142266   2.918   3.277   1.350 -0.4894 -0.1574 -0.2726
 6877TIP3    H242267   2.908   3.373   1.234  1.1234 -0.0635 -0.3451
 6878TIP3   OH242268   0.620   3.573   8.338  0.4423 -0.4751  0.0808
 6878TIP3    H142269   0.574   3.495   8.304 -0.1947  0.0048 -0.1747
 6878TIP3    H242270   0.612   3.637   8.268  2.1529 -0.6061 -0.2858
 6879TIP3   OH242271   4.428   6.432   7.542 -0.3262  0.0212 -0.3167
 6879TIP3    H142272   4.342   6.466   7.517 -0.2048  0.8338  0.3500
 6879TIP3    H242273   4.488   6.467   7.475 -0.6443 -1.3407 -1.3437
 6880TIP3   OH242274   5.476   4.899   2.492  0.3870  0.2237  0.5308
 6880TIP3    H142275   5.540   4.921   2.425  2.2628 -1.2724  1.7002
 6880TIP3    H242276   5.529   4.882   2.570 -1.5953  0.5083  2.0207
 6881TIP3   OH242277   6.100   4.370   7.168 -0.4812  0.2918 -0.3547
 6881TIP3    H142278   6.147   4.346   7.248 -0.4634  1.5204  0.0329
 6881TIP3    H242279   6.029   4.307   7.162  0.6549 -1.0386 -0.4571
 6882TIP3   OH242280   5.909   5.541   2.190  0.4336 -0.0116  0.1212
 6882TIP3    H142281   5.967   5.567   2.118 -0.8511 -0.3784 -1.0806
 6882TIP3    H242282   5.959   5.474   2.237  1.5858  0.7562  0.0376
 6883TIP3   OH242283   0.836   6.080   8.584  0.0511  0.0294 -0.4582
 6883TIP3    H142284   0.787   6.036   8.654  0.4856 -1.7510 -1.2123
 6883TIP3    H242285   0.779   6.071   8.507  0.0036  1.1248 -0.5653
 6884TIP3   OH242286   2.844   0.309   0.124 -0.1907 -0.0314  0.2015
 6884TIP3    H142287   2.772   0.247   0.115  1.2147 -1.8519  0.8561
 6884TIP3    H242288   2.913   0.259   0.167  1.0997  1.9518  0.5618
 6885TIP3   OH242289   0.653   0.661   1.446  0.1849 -0.3718 -0.5469
 6885TIP3    H142290   0.576   0.662   1.388 -0.3170 -1.6738  0.0437
 6885TIP3    H242291   0.616   0.660   1.534  0.8652 -1.2186 -0.2582
 6886TIP3   OH242292   2.395   5.937   1.140  0.0398  0.6073  0.0917
 6886TIP3    H142293   2.327   5.879   1.106  0.2175  0.1501  0.5043
 6886TIP3    H242294   2.477   5.891   1.121  0.2215  1.0308 -0.1648
 6887TIP3   OH242295   1.690   4.179   2.074 -0.1690 -0.0379 -0.5148
 6887TIP3    H142296   1.650   4.167   2.160 -1.9230 -1.3189 -1.4375
 6887TIP3    H242297   1.702   4.273   2.065 -1.6904  0.2663  0.3974
 6888TIP3   OH242298   2.511   6.022   1.562  0.0363 -0.1906 -0.9446
 6888TIP3    H142299   2.436   6.039   1.505 -1.3457 -0.0906  0.8142
 6888TIP3    H242300   2.562   6.103   1.558 -1.4077  0.8196 -0.0933
 6889TIP3   OH242301   5.041   1.149   7.066 -0.7867  0.0306  0.1795
 6889TIP3    H142302   4.997   1.119   6.986  3.0476 -0.2900 -2.0253
 6889TIP3    H242303   5.067   1.068   7.110 -3.0852  0.1981  2.0674
 6890TIP3   OH242304   3.118   6.018   0.223  0.3149  0.1616  0.0790
 6890TIP3    H142305   3.082   6.096   0.264  1.4296  0.5512  0.3645
 6890TIP3    H242306   3.185   5.987   0.284  1.0779 -0.0170 -0.8177
 6891TIP3   OH242307   3.382   5.632   8.022  0.3072  0.1956  0.1060
 6891TIP3    H142308   3.468   5.597   8.043 -0.3911 -1.5129  0.2160
 6891TIP3    H242309   3.339   5.563   7.972 -0.3976  1.6855 -1.4596
 6892TIP3   OH242310   6.785   4.733   8.093 -0.2928  0.3114  0.2632
 6892TIP3    H142311   6.735   4.667   8.141  0.0357  0.6054  1.0192
 6892TIP3    H242312   6.815   4.794   8.160  1.7662 -0.2878 -0.0478
 6893TIP3   OH242313   4.662   3.758   1.830  0.6135  0.4786  1.2304
 6893TIP3    H142314   4.623   3.809   1.901 -1.9881 -0.6887  0.7505
 6893TIP3    H242315   4.613   3.676   1.829  2.1477 -0.5012 -0.4399
 6894TIP3   OH242316   2.266   1.074   8.770 -0.1439 -0.0088 -0.7228
 6894TIP3    H142317   2.256   0.980   8.788 -2.3644 -0.0968 -2.0166
 6894TIP3    H242318   2.291   1.112   8.853  1.4129 -1.8081 -0.2958
 6895TIP3   OH242319   1.400   2.579   1.802 -0.9164 -0.0265 -0.4471
 6895TIP3    H142320   1.349   2.500   1.787 -3.1138  0.7937  1.8721
 6895TIP3    H242321   1.336   2.650   1.796 -0.0876  1.0994  2.3133
 6896TIP3   OH242322   4.212   6.350   0.064 -0.5270 -0.3429 -0.1104
 6896TIP3    H142323   4.217   6.411   0.137  0.6492  2.9189 -2.6283
 6896TIP3    H242324   4.121   6.354   0.036 -0.5983 -0.1984  0.1401
 6897TIP3   OH242325   2.825   5.058   8.304  0.0102 -0.2662  0.0262
 6897TIP3    H142326   2.739   5.049   8.261  0.6573 -0.8593 -1.1943
 6897TIP3    H242327   2.809   5.030   8.394 -1.4871  1.4204  0.3428
 6898TIP3   OH242328   5.456   2.085   0.447  0.1302  0.7250 -0.5140
 6898TIP3    H142329   5.405   2.005   0.434 -0.9037  1.7172 -3.1910
 6898TIP3    H242330   5.426   2.145   0.379  2.3387  2.6871  0.0770
 6899TIP3   OH242331   0.435   4.589   7.985  0.8498 -0.5858  0.4081
 6899TIP3    H142332   0.495   4.643   8.037 -1.0739  1.4292  0.6617
 6899TIP3    H242333   0.360   4.645   7.969 -1.0871 -3.0564  0.2397
 6900TIP3   OH242334   1.673   2.151   2.487 -0.7325  0.2286  0.5730
 6900TIP3    H142335   1.732   2.079   2.467 -2.5457 -1.0655 -0.4880
 6900TIP3    H242336   1.730   2.222   2.516  1.3672 -0.7410 -0.8897
 6901TIP3   OH242337   6.683   2.751   1.017 -0.2357 -0.8091 -0.0843
 6901TIP3    H142338   6.724   2.792   1.093  0.9892 -0.4839 -0.8839
 6901TIP3    H242339   6.747   2.686   0.987 -1.4000 -2.0849  0.1095
 6902TIP3   OH242340   5.922   2.590   0.883  0.5444  0.2152  0.4764
 6902TIP3    H142341   5.898   2.681   0.903  0.7482  1.0831 -2.6049
 6902TIP3    H242342   5.944   2.551   0.967  1.6610  3.3978  1.7911
 6903TIP3   OH242343   1.708   5.976   6.788 -0.3229 -0.0809 -0.1520
 6903TIP3    H142344   1.710   6.021   6.704  1.6376 -0.0023 -0.0984
 6903TIP3    H242345   1.792   5.997   6.829  0.2499 -2.9344  0.3243
 6904TIP3   OH242346   2.943   1.201   1.258  0.2084  0.2174 -0.3476
 6904TIP3    H142347   2.882   1.227   1.189 -0.1351 -1.1244 -0.5786
 6904TIP3    H242348   2.922   1.109   1.275  2.3298 -0.3848 -0.6316
 6905TIP3   OH242349   4.685   2.084   1.698 -0.4564  0.4869  0.3527
 6905TIP3    H142350   4.610   2.052   1.749 -1.4945  1.3237 -0.6206
 6905TIP3    H242351   4.681   2.179   1.705  0.4507  0.5513  0.1673
 6906TIP3   OH242352   5.969   4.531   6.744 -0.1576 -0.2039  0.3303
 6906TIP3    H142353   5.921   4.587   6.683  0.0422  0.3286  0.6509
 6906TIP3    H242354   5.909   4.458   6.762 -1.5479  1.2568  1.9649
 6907TIP3   OH242355   3.431   1.997   7.833 -0.0305  0.7280  0.2017
 6907TIP3    H142356   3.494   1.926   7.845 -2.6584 -1.8714 -0.0235
 6907TIP3    H242357   3.432   2.015   7.739  0.7357  1.1082  0.2759
 6908TIP3   OH242358   3.344   1.224   1.307  0.2379  0.2418  0.4262
 6908TIP3    H142359   3.280   1.223   1.377 -0.6487  0.5605 -0.3561
 6908TIP3    H242360   3.362   1.316   1.291 -1.1629  0.3077 -1.1335
 6909TIP3   OH242361   0.986   4.507   1.212  0.0997 -0.3184  0.5441
 6909TIP3    H142362   1.069   4.554   1.210  0.4276 -0.5999  3.3205
 6909TIP3    H242363   0.996   4.443   1.283 -2.8808  0.4356  1.8087
 6910TIP3   OH242364   5.596   1.306   7.299 -0.2226 -0.3008  0.4443
 6910TIP3    H142365   5.555   1.393   7.302  0.5165  0.0629  0.4744
 6910TIP3    H242366   5.611   1.290   7.206 -0.6953 -0.5650  0.4117
 6911TIP3   OH242367   5.905   3.841   1.765  1.4418  0.0916  0.5057
 6911TIP3    H142368   5.828   3.804   1.721  0.5061 -1.8484  3.4644
 6911TIP3    H242369   5.935   3.911   1.707 -2.0675  0.4113 -1.1641
 6912TIP3   OH242370   4.057   1.270   0.602 -0.8769  0.2585 -0.8699
 6912TIP3    H142371   4.084   1.252   0.692 -0.1362 -1.2717 -1.3749
 6912TIP3    H242372   4.002   1.348   0.609  0.5915  1.2234  0.6830
 6913TIP3   OH242373   0.453   3.539   8.587 -0.2191  0.0955 -0.1295
 6913TIP3    H142374   0.382   3.498   8.537  0.6484 -0.5686 -0.8413
 6913TIP3    H242375   0.475   3.617   8.537 -0.7051  0.5215  0.3076
 6914TIP3   OH242376   0.052   3.702   1.206  0.2175  0.3396  0.1632
 6914TIP3    H142377   0.123   3.684   1.144  0.4701  1.2949  0.1577
 6914TIP3    H242378   0.025   3.792   1.187 -2.2811 -0.5767 -1.1031
 6915TIP3   OH242379   5.928   3.062   0.385 -0.4090 -0.0132  0.2806
 6915TIP3    H142380   5.866   3.129   0.358 -0.3806 -0.2228 -0.3217
 6915TIP3    H242381   5.882   2.979   0.368 -0.6155 -0.1490  1.4257
 6916TIP3   OH242382   2.759   1.232   8.151 -0.2148 -0.3906  0.3925
 6916TIP3    H142383   2.742   1.154   8.099 -0.7585 -0.2899  0.4188
 6916TIP3    H242384   2.673   1.261   8.181  0.0332 -0.0886  0.8297
 6917TIP3   OH242385   2.213   5.354   2.017  0.1795 -0.3793  0.0714
 6917TIP3    H142386   2.221   5.261   2.037  2.3404 -0.7556 -2.0332
 6917TIP3    H242387   2.246   5.398   2.095  2.3616 -1.5329 -0.1237
 6918TIP3   OH242388   0.892   4.354   8.067  0.1822 -0.1538 -0.1600
 6918TIP3    H142389   0.809   4.387   8.102  0.9387  2.8697 -0.9176
 6918TIP3    H242390   0.867   4.288   8.003 -1.5822  0.0612  0.2689
 6919TIP3   OH242391   5.416   6.719   1.643  0.0123  0.3218 -0.3450
 6919TIP3    H142392   5.412   6.701   1.737  2.9029 -0.0596 -0.2092
 6919TIP3    H242393   5.463   6.802   1.637  0.8791 -0.2349 -1.4795
 6920TIP3   OH242394   1.728   2.808   1.584  0.0187  0.2253  0.2047
 6920TIP3    H142395   1.702   2.882   1.530 -1.0440  0.7160  1.3271
 6920TIP3    H242396   1.822   2.820   1.598 -0.0326  1.0493 -0.0983
 6921TIP3   OH242397   0.146   5.298   1.339 -0.5400  0.4038 -0.3197
 6921TIP3    H142398   0.171   5.326   1.251 -0.6186 -1.0273 -0.8284
 6921TIP3    H242399   0.051   5.286   1.334 -0.2993 -1.7809 -0.7206
 6922TIP3   OH242400   5.790   3.336   0.368 -0.2229 -0.6264  0.4100
 6922TIP3    H142401   5.825   3.421   0.395 -1.3982 -0.4713  1.5236
 6922TIP3    H242402   5.742   3.355   0.288 -1.6665  0.0759  1.3897
 6923TIP3   OH242403   4.688   6.018   7.312 -0.5665 -0.0952 -0.0223
 6923TIP3    H142404   4.696   5.923   7.319 -0.3389 -0.3510 -2.7296
 6923TIP3    H242405   4.597   6.032   7.286  0.0640  0.1305 -2.3622
 6924TIP3   OH242406   5.401   1.306   8.434 -0.1153  0.8956 -0.0102
 6924TIP3    H142407   5.400   1.277   8.343 -2.1320 -0.9540  0.5277
 6924TIP3    H242408   5.484   1.353   8.443  0.3526  0.7294 -2.6543
 6925TIP3   OH242409   0.256   1.439   2.373  0.1489 -0.1095 -0.6315
 6925TIP3    H142410   0.257   1.528   2.339  0.1137  0.1570  0.0550
 6925TIP3    H242411   0.213   1.446   2.459 -2.5175 -1.2087 -1.7541
 6926TIP3   OH242412   1.048   0.170   8.777  0.1575  0.5454  0.4948
 6926TIP3    H142413   1.090   0.150   8.861  1.2325  1.4514  0.2071
 6926TIP3    H242414   1.103   0.239   8.739 -0.1655 -0.0207 -1.0732
 6927TIP3   OH242415   4.990   0.189   1.317 -0.2799 -0.4229  0.1765
 6927TIP3    H142416   5.072   0.196   1.364  0.9803 -1.3409 -1.7426
 6927TIP3    H242417   4.937   0.128   1.368  0.2366  0.1165  1.3897
 6928TIP3   OH242418   5.216   3.700   7.973 -0.0958  0.2030  0.4871
 6928TIP3    H142419   5.184   3.688   8.062 -0.2666  1.6542  0.6354
 6928TIP3    H242420   5.308   3.724   7.983  0.4462 -1.5750  0.1602
 6929TIP3   OH242421   3.320   5.771   1.696  0.0226 -0.6991  0.3682
 6929TIP3    H142422   3.414   5.789   1.687 -0.0569 -0.3133  0.2641
 6929TIP3    H242423   3.292   5.826   1.769 -0.3027 -0.0826 -0.1981
 6930TIP3   OH242424   5.317   4.470   6.884 -0.3224 -0.2100  0.4970
 6930TIP3    H142425   5.373   4.542   6.913 -0.1511  0.7779 -2.0896
 6930TIP3    H242426   5.369   4.424   6.818 -1.6008 -0.8149 -0.1153
 6931TIP3   OH242427   4.828   6.058   1.399  0.4351  0.1530  0.2464
 6931TIP3    H142428   4.780   6.084   1.478 -0.2631 -0.6052  0.0918
 6931TIP3    H242429   4.777   5.985   1.364 -0.8200  2.0903 -2.3760
 6932TIP3   OH242430   1.359   3.731   8.106 -0.1699  0.4022  0.0324
 6932TIP3    H142431   1.345   3.685   8.023  1.0312  2.2174 -1.2754
 6932TIP3    H242432   1.440   3.695   8.141  0.7001  1.3619 -0.9233
 6933TIP3   OH242433   0.570   1.127   0.993  1.0068 -0.1068  0.1641
 6933TIP3    H142434   0.642   1.186   0.971  1.0381 -1.0959 -2.8705
 6933TIP3    H242435   0.495   1.163   0.945  0.7583 -1.7961 -0.8054
 6934TIP3   OH242436   5.801   6.055   8.321 -0.2724  0.2582 -0.5646
 6934TIP3    H142437   5.834   5.969   8.347 -0.6319  0.2387 -0.1434
 6934TIP3    H242438   5.777   6.045   8.229  1.0014  0.3163 -0.9222
 6935TIP3   OH242439   4.449   0.742   7.608 -0.2174  0.2071  0.1664
 6935TIP3    H142440   4.424   0.809   7.672 -2.3054  1.2970 -1.6150
 6935TIP3    H242441   4.512   0.786   7.551  0.3595 -0.2004  0.4868
 6936TIP3   OH242442   4.872   4.653   8.826 -0.2411  0.1966 -0.9924
 6936TIP3    H142443   4.808   4.675   8.894  1.2398  2.2623 -0.1715
 6936TIP3    H242444   4.883   4.559   8.834 -2.3795 -0.0716 -0.4715
 6937TIP3   OH242445   6.147   3.159   1.924  0.2556  0.0320 -0.2452
 6937TIP3    H142446   6.064   3.187   1.886 -0.3596 -1.7406 -0.2909
 6937TIP3    H242447   6.201   3.136   1.848  0.8156  1.1732 -0.2152
 6938TIP3   OH242448   5.368   3.516   7.687 -0.0257 -0.3463  0.1450
 6938TIP3    H142449   5.325   3.454   7.746 -1.5244  0.2864 -0.2443
 6938TIP3    H242450   5.428   3.462   7.635 -0.2639 -1.2362  0.7692
 6939TIP3   OH242451   0.019   3.719   7.322 -0.5150 -0.1446  0.4732
 6939TIP3    H142452   0.104   3.756   7.345 -0.3506  0.2336 -0.6728
 6939TIP3    H242453   0.027   3.695   7.230 -1.3954 -0.8420  0.5609
 6940TIP3   OH242454   1.378   1.132   1.302  0.0014  0.0669 -0.0626
 6940TIP3    H142455   1.429   1.061   1.262  0.4091  1.7009 -2.6066
 6940TIP3    H242456   1.439   1.204   1.311 -0.7321  0.5606  1.3123
 6941TIP3   OH242457   3.115   4.507   0.036  0.1208  0.4355  0.5640
 6941TIP3    H142458   3.087   4.586  -0.010 -0.9025  0.1839  0.7216
 6941TIP3    H242459   3.209   4.502   0.020 -0.0992  0.6870 -0.9694
 6942TIP3   OH242460   0.963   3.977   2.136 -0.8651 -0.4437  0.0613
 6942TIP3    H142461   0.916   3.913   2.189 -2.4315 -1.7888 -2.7856
 6942TIP3    H242462   1.055   3.967   2.163 -1.3162 -2.5437  1.0238
 6943TIP3   OH242463   3.352   0.557   0.094  0.6811  0.1805 -0.2096
 6943TIP3    H142464   3.443   0.529   0.102  0.2463 -0.7515  2.1398
 6943TIP3    H242465   3.317   0.504   0.022  1.4020 -1.1437  0.3829
 6944TIP3   OH242466   2.355   6.370   0.191 -0.0490 -0.7289 -0.4315
 6944TIP3    H142467   2.435   6.336   0.152 -1.2638 -1.9024 -2.0813
 6944TIP3    H242468   2.348   6.326   0.276  0.6912 -1.1473 -0.5860
 6945TIP3   OH242469   3.675   1.365   0.461  0.4557  0.4582  0.3831
 6945TIP3    H142470   3.715   1.301   0.520 -0.2231  0.8724  1.3084
 6945TIP3    H242471   3.655   1.440   0.516 -0.7224  0.6291 -0.2409
 6946TIP3   OH242472   4.967   1.101   0.459  0.2565 -0.5691 -0.1524
 6946TIP3    H142473   4.889   1.071   0.505  0.5538 -0.0952  0.6726
 6946TIP3    H242474   4.949   1.081   0.367 -1.3679  0.6765 -0.1505
 6947TIP3   OH242475   4.427   2.976   8.379 -0.6077  0.2681 -0.4033
 6947TIP3    H142476   4.457   2.893   8.342 -0.3789  1.4134 -2.9982
 6947TIP3    H242477   4.506   3.016   8.414 -0.8361 -0.8547  1.5747
 6948TIP3   OH242478   5.577   5.281   0.751 -0.2167  0.4487 -0.1524
 6948TIP3    H142479   5.496   5.315   0.786 -0.0669  0.1823  0.4622
 6948TIP3    H242480   5.588   5.325   0.667 -1.9348 -0.8562 -1.1281
 6949TIP3   OH242481   2.288   6.054   6.813  0.5011  0.4247 -0.1489
 6949TIP3    H142482   2.312   6.087   6.900 -0.5310  1.1411 -0.1168
 6949TIP3    H242483   2.276   6.133   6.760  1.6583 -0.0189 -1.1112
 6950TIP3   OH242484   2.913   1.487   8.261 -0.0635 -0.1182 -0.1183
 6950TIP3    H142485   2.853   1.561   8.246  0.9239  0.4576 -1.4027
 6950TIP3    H242486   2.872   1.413   8.216 -0.6485 -0.1692  0.4784
 6951TIP3   OH242487   4.269   3.680   2.284  0.6441  0.1844  0.0562
 6951TIP3    H142488   4.187   3.659   2.329  1.2611  1.4938  1.8890
 6951TIP3    H242489   4.242   3.700   2.194 -0.6954 -1.9611 -0.1017
 6952TIP3   OH242490   1.648   2.550   1.646  0.2944 -0.0297 -0.2520
 6952TIP3    H142491   1.639   2.637   1.607  0.3304  0.5173  0.9280
 6952TIP3    H242492   1.568   2.538   1.697  1.1953  0.1986  1.2795
 6953TIP3   OH242493   3.452   3.795   1.423 -0.1138 -0.1988 -0.2624
 6953TIP3    H142494   3.486   3.785   1.512  0.1603 -0.6814 -0.4179
 6953TIP3    H242495   3.507   3.862   1.383 -1.0395  0.9331  0.3305
 6954TIP3   OH242496   6.469   6.286   8.411 -0.3299  0.1044 -0.0291
 6954TIP3    H142497   6.520   6.249   8.339  1.1504  0.0290  1.0038
 6954TIP3    H242498   6.514   6.256   8.490 -2.3287 -0.4143  0.9657
 6955TIP3   OH242499   2.425   2.229   8.645 -0.0419 -0.2838 -0.0281
 6955TIP3    H142500   2.468   2.181   8.716  0.9960  0.6979  0.0444
 6955TIP3    H242501   2.458   2.188   8.565 -0.1002 -0.4704  0.0423
 6956TIP3   OH242502   4.869   0.838   2.297 -0.7361 -0.0109 -0.2985
 6956TIP3    H142503   4.948   0.831   2.243 -1.1766  0.1709 -0.9694
 6956TIP3    H242504   4.900   0.822   2.386  0.1838  0.7217 -0.4665
 6957TIP3   OH242505   2.608   2.782   0.469 -0.3813  0.0852 -0.0491
 6957TIP3    H142506   2.564   2.700   0.491  0.0939 -0.3435 -0.6373
 6957TIP3    H242507   2.538   2.846   0.460 -1.0237 -0.8306 -2.1039
 6958TIP3   OH242508   5.292   6.025   8.112 -0.6478 -0.9128  0.0717
 6958TIP3    H142509   5.296   6.028   8.017  0.2469  3.1319  0.0833
 6958TIP3    H242510   5.200   6.040   8.133 -0.5752 -0.1493 -0.1536
 6959TIP3   OH242511   2.667   3.992   0.819  0.0273  0.3564 -0.2572
 6959TIP3    H142512   2.572   3.987   0.807  0.1413  0.0874 -1.1108
 6959TIP3    H242513   2.703   3.974   0.732  0.8378  1.3083 -0.1347
 6960TIP3   OH242514   2.919   3.338   0.705  0.0239  0.0519 -0.0909
 6960TIP3    H142515   2.842   3.291   0.737  1.9132 -1.5594  2.4377
 6960TIP3    H242516   2.901   3.350   0.611 -3.5030  0.2940  0.4700
 6961TIP3   OH242517   0.096   5.426   8.032  0.6449 -0.0293 -0.3230
 6961TIP3    H142518   0.009   5.425   7.992  0.0485  0.2292  0.9273
 6961TIP3    H242519   0.139   5.349   7.996  0.1515  0.2086 -1.4776
 6962TIP3   OH242520   1.663   0.176   0.739  0.2092  0.1481  0.3548
 6962TIP3    H142521   1.728   0.106   0.732 -0.6096 -0.4664 -1.7741
 6962TIP3    H242522   1.715   0.255   0.755  1.6439 -0.1514 -2.3273
 6963TIP3   OH242523   1.892   2.248   1.129 -0.4743 -0.2964 -0.1442
 6963TIP3    H142524   1.936   2.164   1.143  0.8613  0.4923  0.6155
 6963TIP3    H242525   1.963   2.312   1.132 -0.9730  0.6433 -3.9386
 6964TIP3   OH242526   5.012   2.599   8.723 -0.0143 -0.1599  0.2387
 6964TIP3    H142527   5.034   2.674   8.668  3.2386 -0.6535  0.6240
 6964TIP3    H242528   4.944   2.631   8.782  0.3229  2.0647 -0.4793
 6965TIP3   OH242529   1.126   5.708   1.606 -1.2844 -0.0755  0.0590
 6965TIP3    H142530   1.166   5.711   1.693  1.3502  1.4441 -1.0759
 6965TIP3    H242531   1.095   5.797   1.591 -1.6066 -0.3010 -0.6148
 6966TIP3   OH242532   3.706   4.916   0.112  0.3467 -0.5293  0.6349
 6966TIP3    H142533   3.631   4.896   0.056  0.4589 -0.1737  0.3518
 6966TIP3    H242534   3.768   4.960   0.055  0.0458  0.7575  1.2506
 6967TIP3   OH242535   5.584   3.339   0.565  0.5000 -0.3968 -0.2850
 6967TIP3    H142536   5.594   3.259   0.616  1.7684 -0.3040 -0.3535
 6967TIP3    H242537   5.654   3.335   0.500  0.2932  0.5577 -0.5872
 6968TIP3   OH242538   4.780   6.621   0.037 -0.0504 -0.2957  0.4386
 6968TIP3    H142539   4.783   6.655   0.126 -2.6500  2.1081 -0.2488
 6968TIP3    H242540   4.731   6.539   0.043  0.7306 -0.7104  1.3139
 6969TIP3   OH242541   4.379   6.715   7.463  0.3343  0.2830 -0.3326
 6969TIP3    H142542   4.356   6.650   7.397 -0.2835 -0.4987  0.6325
 6969TIP3    H242543   4.322   6.790   7.444 -1.1581 -0.6226  0.3955
 6970TIP3   OH242544   0.011   1.007   1.278 -0.0718  0.3401 -0.5357
 6970TIP3    H142545  -0.033   1.061   1.213  1.4516  0.4096 -1.5635
 6970TIP3    H242546   0.086   1.059   1.306  0.2358 -0.3876  0.0191
 6971TIP3   OH242547   6.462   6.784   0.698 -0.4650 -0.1690  0.1701
 6971TIP3    H142548   6.468   6.834   0.617  1.4743  0.0183  0.3771
 6971TIP3    H242549   6.435   6.848   0.764 -0.8451 -0.0486 -0.1013
 6972TIP3   OH242550   4.823   0.564   0.464  0.8727  0.5366 -0.3487
 6972TIP3    H142551   4.811   0.604   0.378 -0.1419 -0.1395 -0.5450
 6972TIP3    H242552   4.907   0.519   0.459  0.5243 -0.0481 -1.2243
 6973TIP3   OH242553   5.787   2.116   1.570 -0.1715  0.3424 -0.0640
 6973TIP3    H142554   5.753   2.036   1.611 -0.6170  1.0975  1.0810
 6973TIP3    H242555   5.882   2.104   1.568 -0.1444  0.2290  1.1147
 6974TIP3   OH242556   4.581   5.272   7.468 -0.2476 -0.3857  0.0270
 6974TIP3    H142557   4.600   5.269   7.374  1.9228  0.2814  0.3975
 6974TIP3    H242558   4.661   5.242   7.510 -0.6573  0.7528  1.7165
 6975TIP3   OH242559   5.083   4.653   1.562  0.2848 -0.3435  0.3536
 6975TIP3    H142560   5.139   4.699   1.625  0.9557 -0.0997 -0.3999
 6975TIP3    H242561   5.015   4.717   1.540  1.2185  0.3288 -0.6979
 6976TIP3   OH242562   1.071   2.143   0.828  0.1982 -0.2020  0.0749
 6976TIP3    H142563   1.048   2.051   0.837 -0.0798 -0.1253  0.1654
 6976TIP3    H242564   1.147   2.143   0.770 -0.0373 -0.4645 -0.2417
 6977TIP3   OH242565   2.585   5.041   8.107  0.5051 -0.3776  0.0985
 6977TIP3    H142566   2.509   4.985   8.124  2.2249 -3.3725 -1.1809
 6977TIP3    H242567   2.567   5.122   8.155 -3.0180 -1.2796  0.5767
 6978TIP3   OH242568   1.111   0.843   0.398 -0.0014 -0.1263 -0.0118
 6978TIP3    H142569   1.029   0.839   0.349 -0.2079  0.1019  0.3127
 6978TIP3    H242570   1.171   0.787   0.349  0.2404  1.2355 -1.3616
 6979TIP3   OH242571   1.709   3.365   2.585  0.0938 -0.1031  0.3338
 6979TIP3    H142572   1.802   3.370   2.605  0.0398  0.7130  0.4074
 6979TIP3    H242573   1.706   3.334   2.494  0.4204 -0.4633  0.4418
 6980TIP3   OH242574   2.261   3.400   1.409  0.3792  1.3288  0.0430
 6980TIP3    H142575   2.308   3.318   1.421  1.8312  2.4543  3.2152
 6980TIP3    H242576   2.270   3.419   1.315 -1.5162 -2.8349 -1.2100
 6981TIP3   OH242577   3.724   1.527   2.202  0.2858 -0.2407 -0.2056
 6981TIP3    H142578   3.660   1.458   2.220  0.0264 -0.3767 -1.5925
 6981TIP3    H242579   3.809   1.486   2.218  0.0710 -0.1337  1.3970
 6982TIP3   OH242580   0.662   0.715   6.804 -0.0429 -0.0478  0.0958
 6982TIP3    H142581   0.601   0.767   6.752 -1.1615 -0.4483  0.9812
 6982TIP3    H242582   0.607   0.664   6.862  1.0771 -1.5711 -0.1224
 6983TIP3   OH242583   1.599   1.585   0.812 -0.1170 -0.2506 -0.0527
 6983TIP3    H142584   1.518   1.636   0.818 -0.2857 -0.3390 -1.1849
 6983TIP3    H242585   1.573   1.505   0.765  0.4001 -0.8004  0.5854
 6984TIP3   OH242586   5.284   5.097   0.751  0.0046 -0.0272  0.5446
 6984TIP3    H142587   5.319   5.183   0.773  2.1840  0.1106 -2.7518
 6984TIP3    H242588   5.219   5.114   0.684 -0.7659 -0.8767  1.0550
 6985TIP3   OH242589   2.048   2.370   2.864  0.3387  0.0011  0.3702
 6985TIP3    H142590   1.955   2.362   2.886  0.3264 -0.1014  0.2752
 6985TIP3    H242591   2.093   2.325   2.936  0.3626  0.9412  0.9694
 6986TIP3   OH242592   2.023   1.459   8.443  0.0980 -0.1796 -0.0833
 6986TIP3    H142593   2.005   1.517   8.517  0.8323 -0.3202  0.2101
 6986TIP3    H242594   2.074   1.387   8.480 -1.8215 -1.7021 -0.1851
 6987TIP3   OH242595   4.790   6.300   7.294 -0.0531  0.0954  0.3475
 6987TIP3    H142596   4.750   6.214   7.283 -1.6902  0.8504  0.1107
 6987TIP3    H242597   4.814   6.304   7.386 -2.9867  0.5714  1.1870
 6988TIP3   OH242598   1.192   1.198   2.423 -0.2660  0.0422 -0.6827
 6988TIP3    H142599   1.260   1.237   2.368 -0.7502 -0.1105 -1.4091
 6988TIP3    H242600   1.221   1.108   2.438  0.4339  0.4142  0.2872
 6989TIP3   OH242601   3.095   5.051   7.413 -0.1994  0.0375 -0.5145
 6989TIP3    H142602   3.130   5.003   7.488 -1.6295 -1.4008 -0.7013
 6989TIP3    H242603   3.147   5.022   7.339  0.5854  0.7328 -0.2578
 6990TIP3   OH242604   0.181   3.105   0.530  0.0068 -0.5082 -0.2684
 6990TIP3    H142605   0.231   3.114   0.449 -2.6270 -0.0904 -1.9333
 6990TIP3    H242606   0.171   3.195   0.563 -2.4509 -0.1464 -1.8010
 6991TIP3   OH242607   2.540   6.080   6.726 -0.2490  0.0877  0.3766
 6991TIP3    H142608   2.592   6.036   6.792 -0.6840 -0.1921  0.5321
 6991TIP3    H242609   2.450   6.057   6.747 -0.3864 -0.0359 -0.3372
 6992TIP3   OH242610   4.509   4.531   1.060 -0.3932 -0.5008  0.1893
 6992TIP3    H142611   4.568   4.458   1.040  1.3119  0.3979  1.6167
 6992TIP3    H242612   4.491   4.572   0.975 -0.1689 -1.6768 -0.4437
 6993TIP3   OH242613   3.810   2.158   7.386 -0.0858 -0.5731  0.3813
 6993TIP3    H142614   3.838   2.205   7.308 -1.9834 -0.2883 -0.1806
 6993TIP3    H242615   3.886   2.105   7.411  0.6591 -0.4637 -1.4914
 6994TIP3   OH242616   0.624   4.697   0.474  0.1766 -0.7874  0.0644
 6994TIP3    H142617   0.595   4.703   0.565  2.3591 -1.5050  0.8920
 6994TIP3    H242618   0.587   4.615   0.442 -0.7904 -0.4196  0.2246
 6995TIP3   OH242619   4.463   3.025   1.652  0.2945 -0.3463 -0.3127
 6995TIP3    H142620   4.433   2.940   1.684  1.7366 -0.9024 -0.3661
 6995TIP3    H242621   4.437   3.087   1.720 -0.6572 -0.8425 -0.2107
 6996TIP3   OH242622   6.067   2.835   7.747  0.3398  0.3497 -0.1649
 6996TIP3    H142623   6.058   2.777   7.672  0.3583  0.6287 -0.3832
 6996TIP3    H242624   6.008   2.798   7.813  1.1320 -0.5306  0.0866
 6997TIP3   OH242625   3.586   3.749   1.075  0.1362 -0.3028  0.5182
 6997TIP3    H142626   3.675   3.715   1.083  0.9901  1.5341 -0.5114
 6997TIP3    H242627   3.587   3.831   1.124 -1.0642 -0.3247  0.6244
 6998TIP3   OH242628   4.726   3.189   8.141  0.6272  0.6277  0.3137
 6998TIP3    H142629   4.688   3.222   8.060 -0.1853  2.0807  1.2238
 6998TIP3    H242630   4.716   3.094   8.137 -0.4753  0.7761 -0.7591
 6999TIP3   OH242631   3.418   5.616   0.564  0.0295 -0.0798  0.2676
 6999TIP3    H142632   3.506   5.600   0.598 -0.1318  1.1470  1.3287
 6999TIP3    H242633   3.431   5.630   0.470  0.9623  0.0524  0.4009
 7000TIP3   OH242634   0.156   2.156   2.504  0.4192  0.2725 -0.0325
 7000TIP3    H142635   0.076   2.121   2.463  0.0634  0.0625  0.8184
 7000TIP3    H242636   0.179   2.231   2.450 -0.0016 -0.0390 -0.6617
 7001TIP3   OH242637   3.216   1.958   7.381  0.0553 -0.7715  0.3700
 7001TIP3    H142638   3.141   1.968   7.322  0.3327  1.0083  0.2604
 7001TIP3    H242639   3.206   1.870   7.417 -2.1227 -0.5760  0.4046
 7002TIP3   OH242640   2.110   2.193   0.783 -0.1400  0.3686  0.9560
 7002TIP3    H142641   2.029   2.169   0.828 -2.0519 -0.4618 -2.6027
 7002TIP3    H242642   2.122   2.286   0.803 -2.2865  0.6485  1.1463
 7003TIP3   OH242643   3.649   4.172   7.149  0.4101 -0.2988  0.2953
 7003TIP3    H142644   3.692   4.256   7.167 -3.9564  1.5529  3.7497
 7003TIP3    H242645   3.647   4.127   7.233 -1.6259 -1.6518 -0.4108
 7004TIP3   OH242646   2.278   3.124   0.799  0.2007  0.0363 -0.7339
 7004TIP3    H142647   2.242   3.160   0.718  0.5381  0.4695 -0.6960
 7004TIP3    H242648   2.317   3.200   0.844 -1.1799  0.0542  0.4840
 7005TIP3   OH242649   5.882   4.578   6.441  0.3176  0.2374  0.4599
 7005TIP3    H142650   5.916   4.504   6.390  0.8136  0.6994  0.1131
 7005TIP3    H242651   5.808   4.541   6.489  0.9389 -0.6545  0.7780
 7006TIP3   OH242652   3.981   0.938   8.205  0.1656  0.2977 -0.0938
 7006TIP3    H142653   3.944   0.976   8.285  0.4275  2.0231 -0.7359
 7006TIP3    H242654   4.008   0.850   8.230 -3.6046 -0.8578  0.6340
 7007TIP3   OH242655   5.601   3.696   8.825  0.3291 -0.3780 -0.4024
 7007TIP3    H142656   5.648   3.700   8.741  0.0992  1.8959 -0.4734
 7007TIP3    H242657   5.514   3.663   8.801  1.3770 -3.5103 -0.4264
 7008TIP3   OH242658   5.897   3.412   1.569  0.3175  0.0247  0.1962
 7008TIP3    H142659   5.991   3.397   1.557 -0.1536 -2.6475 -0.7305
 7008TIP3    H242660   5.855   3.343   1.518 -2.1961  1.5992 -0.0203
 7009TIP3   OH242661   1.448   4.128   1.924  0.5670  0.0771  0.0177
 7009TIP3    H142662   1.529   4.169   1.953  1.3410 -0.1852 -1.6628
 7009TIP3    H242663   1.476   4.061   1.862 -0.7430 -2.0817  1.6143
 7010TIP3   OH242664   2.846   1.218   0.472 -0.1325  0.2347 -0.4368
 7010TIP3    H142665   2.764   1.265   0.487  0.1203  0.7648 -0.7045
 7010TIP3    H242666   2.852   1.157   0.546 -1.2802 -0.5442 -0.9610
 7011TIP3   OH242667   4.940   2.380   2.051 -0.5988 -0.0007  0.4340
 7011TIP3    H142668   4.862   2.380   2.107 -0.2107  0.1323  0.9807
 7011TIP3    H242669   4.957   2.288   2.033 -1.4994  0.0060 -0.5691
 7012TIP3   OH242670   2.715   5.389   7.232 -0.1874  0.0019 -0.1956
 7012TIP3    H142671   2.678   5.477   7.244  2.7084  1.4542 -0.9859
 7012TIP3    H242672   2.776   5.399   7.159 -0.3114 -2.8983 -0.7865
 7013TIP3   OH242673   2.284   3.731   1.223  0.0517  0.5626 -0.2662
 7013TIP3    H142674   2.235   3.715   1.143 -0.8180 -0.6360  0.4558
 7013TIP3    H242675   2.339   3.653   1.234 -1.9152 -0.6764  1.7043
 7014TIP3   OH242676   0.962   0.405   2.598  0.2802  0.0084 -0.5246
 7014TIP3    H142677   1.040   0.391   2.650 -0.4398  0.9647  0.8643
 7014TIP3    H242678   0.970   0.343   2.525  0.7609 -2.2032  1.3211
 7015TIP3   OH242679   0.512   5.220   1.694 -0.6227  0.5791  0.0357
 7015TIP3    H142680   0.490   5.202   1.603  0.5567 -0.7837 -0.0263
 7015TIP3    H242681   0.580   5.156   1.715 -1.2914  0.4629  2.0564
 7016TIP3   OH242682   1.611   1.557   1.492  0.2583 -0.3194 -0.0450
 7016TIP3    H142683   1.650   1.483   1.538 -0.3002 -0.3120  0.4417
 7016TIP3    H242684   1.685   1.616   1.477  0.4655 -0.3551  0.7758
 7017TIP3   OH242685   4.616   3.376   2.134 -0.2110 -0.1894 -0.4007
 7017TIP3    H142686   4.608   3.441   2.204 -0.3137 -0.5142 -0.1122
 7017TIP3    H242687   4.706   3.387   2.103 -0.0694 -0.2460 -0.0186
 7018TIP3   OH242688   2.230   6.376   7.963  0.3788 -0.2149 -0.3573
 7018TIP3    H142689   2.294   6.317   8.003  1.5797  1.7841  0.8237
 7018TIP3    H242690   2.262   6.390   7.874  0.8460 -0.2881 -0.2019
 7019TIP3   OH242691   0.408   5.096   8.699 -1.0544 -0.0241  0.1516
 7019TIP3    H142692   0.343   5.165   8.701  1.6025  2.6952 -0.2681
 7019TIP3    H242693   0.467   5.119   8.627  1.8190 -0.7981  2.0451
 7020TIP3   OH242694   0.033   3.899   8.695  0.4642 -0.0712 -0.5582
 7020TIP3    H142695   0.076   3.851   8.624  0.9237 -0.4677 -0.0192
 7020TIP3    H242696  -0.028   3.835   8.734  1.2054 -0.2905  0.2762
 7021TIP3   OH242697   1.863   4.317   8.513 -0.1624 -0.0599 -0.2028
 7021TIP3    H142698   1.844   4.350   8.425 -0.7249  3.3801  1.0483
 7021TIP3    H242699   1.781   4.326   8.560  0.7718  0.7111  1.3531
 7022TIP3   OH242700   3.141   2.552   1.697 -0.1906 -0.2894  0.1524
 7022TIP3    H142701   3.134   2.467   1.740  0.9563 -1.2372 -1.4175
 7022TIP3    H242702   3.201   2.537   1.624  1.0687  2.1877  0.5712
 7023TIP3   OH242703   1.005   2.856   7.869 -0.2263  0.4148 -0.0483
 7023TIP3    H142704   0.941   2.917   7.906 -0.9787  0.3447 -1.1730
 7023TIP3    H242705   1.070   2.913   7.828 -0.9086  0.4931 -1.0651
 7024TIP3   OH242706   5.147   6.644   0.720 -0.1305  0.5490  0.0505
 7024TIP3    H142707   5.232   6.660   0.761  0.4391  1.2918 -1.3785
 7024TIP3    H242708   5.089   6.709   0.761 -0.0065  0.1027  0.9596
 7025TIP3   OH242709   2.582   5.817   8.288 -0.6885 -0.2514  0.0090
 7025TIP3    H142710   2.653   5.862   8.334 -0.5817 -0.3693 -0.0362
 7025TIP3    H242711   2.611   5.726   8.284 -0.8245 -0.2927 -0.0470
 7026TIP3   OH242712   5.306   2.015   0.701 -0.4158  0.0872 -0.5471
 7026TIP3    H142713   5.321   2.098   0.656  1.0380  0.6561  0.8708
 7026TIP3    H242714   5.292   1.952   0.631 -0.1286  1.2626 -1.7155
 7027TIP3   OH242715   0.849   2.520   8.413  0.1978 -0.5242  0.5511
 7027TIP3    H142716   0.791   2.480   8.349 -1.0695  0.2856  1.1629
 7027TIP3    H242717   0.829   2.474   8.495 -0.6422  0.7032  1.0714
 7028TIP3   OH242718   0.109   5.672   0.748  0.1704  0.7072 -0.1551
 7028TIP3    H142719   0.126   5.717   0.665  0.1114 -0.5585 -0.8971
 7028TIP3    H242720   0.026   5.626   0.733  1.0284 -0.9578 -0.0556
 7029TIP3   OH242721   0.377   0.084   8.108 -0.1598  0.0457 -0.0201
 7029TIP3    H142722   0.386  -0.010   8.097 -3.2233 -0.2057 -1.2303
 7029TIP3    H242723   0.372   0.120   8.020  2.0951  1.5600  0.3813
 7030TIP3   OH242724   6.182   4.627   8.122  0.0921 -0.2134  0.3511
 7030TIP3    H142725   6.172   4.647   8.029  1.4081  0.4380  0.3263
 7030TIP3    H242726   6.093   4.633   8.157 -0.4264 -0.4646 -0.8540
 7031TIP3   OH242727   2.795   5.302   0.921 -0.4097 -0.0586 -0.4135
 7031TIP3    H142728   2.877   5.350   0.929 -0.7388  1.1328 -3.0626
 7031TIP3    H242729   2.757   5.305   1.008  1.2357  1.4662  0.3238
 7032TIP3   OH242730   5.065   0.144   0.406  0.6495 -0.2365 -0.2919
 7032TIP3    H142731   5.018   0.152   0.489 -1.0451 -0.7477 -1.1475
 7032TIP3    H242732   5.075   0.049   0.394  0.7818 -0.1690 -0.7183
 7033TIP3   OH242733   4.576   3.514   1.206 -0.4455  0.2889 -0.1271
 7033TIP3    H142734   4.600   3.492   1.116 -0.9409 -0.3781 -0.1075
 7033TIP3    H242735   4.598   3.436   1.256 -0.6501  0.4649  0.2411
 7034TIP3   OH242736   4.011   0.442   8.521 -0.3002  0.4633  0.4099
 7034TIP3    H142737   4.100   0.466   8.547  0.8360 -1.5928 -1.2548
 7034TIP3    H242738   3.985   0.374   8.583 -0.7726  1.1370  0.9604
 7035TIP3   OH242739   5.968   6.770   2.834  0.4772  0.5476  0.0855
 7035TIP3    H142740   5.964   6.854   2.788  1.4712  1.7108  1.9847
 7035TIP3    H242741   5.891   6.770   2.892  1.1246  0.7338  0.9717
 7036TIP3   OH242742   2.871   5.933   7.488  0.1869 -0.0744  0.5063
 7036TIP3    H142743   2.925   5.928   7.410  2.5646 -2.8097  2.1321
 7036TIP3    H242744   2.808   5.861   7.479 -1.8989  1.7388 -0.3584
 7037TIP3   OH242745   3.048   0.840   8.794 -0.4726  0.1732  0.7004
 7037TIP3    H142746   3.065   0.904   8.725 -2.0146 -0.0999  0.0303
 7037TIP3    H242747   3.114   0.860   8.861  0.6741  0.8248 -0.5677
 7038TIP3   OH242748   5.309   2.333   8.247  0.1366 -0.9282  0.4821
 7038TIP3    H142749   5.300   2.275   8.172 -0.5042  1.3206 -1.2993
 7038TIP3    H242750   5.239   2.307   8.306 -0.8388 -1.2534 -0.7857
 7039TIP3   OH242751   4.677   5.788   0.664 -0.3946  0.0815  0.1172
 7039TIP3    H142752   4.761   5.812   0.704 -1.5477  2.2161  1.4674
 7039TIP3    H242753   4.698   5.773   0.572  1.2736  2.1808  0.0651
 7040TIP3   OH242754   1.437   6.084   7.567 -0.4395 -0.0043  0.5224
 7040TIP3    H142755   1.478   6.147   7.626  0.4962  1.6954 -1.8117
 7040TIP3    H242756   1.499   6.012   7.563  0.6313  0.9296 -0.1725
 7041TIP3   OH242757   6.269   6.514   8.593  0.2963 -0.2890  0.4577
 7041TIP3    H142758   6.311   6.458   8.528  0.5354  0.9918 -0.5132
 7041TIP3    H242759   6.200   6.559   8.544  0.8588  1.1283  0.9485
 7042TIP3   OH242760   5.352   1.866   7.662 -0.3488 -0.3657  0.5274
 7042TIP3    H142761   5.349   1.870   7.566  0.9071 -0.5742  0.4594
 7042TIP3    H242762   5.385   1.951   7.689  3.1074 -1.5133  0.4902
 7043TIP3   OH242763   1.321   6.122   2.370  0.2725 -0.5773 -0.2128
 7043TIP3    H142764   1.375   6.181   2.423 -0.0836 -0.9186  0.5313
 7043TIP3    H242765   1.367   6.039   2.371  0.3891 -0.5234 -0.6511
 7044TIP3   OH242766   3.933   0.729   0.849 -0.4582  0.0182  0.8796
 7044TIP3    H142767   3.852   0.753   0.804  0.4570  0.9101 -0.3585
 7044TIP3    H242768   3.963   0.810   0.890 -0.7750 -0.5736  2.3409
 7045TIP3   OH242769   0.456   1.841   2.733 -0.5748  0.6257 -0.4107
 7045TIP3    H142770   0.506   1.913   2.771  0.0477 -0.6309  1.3433
 7045TIP3    H242771   0.522   1.781   2.699 -0.9946  0.0818 -0.2826
 7046TIP3   OH242772   2.422   1.219   7.433 -0.9035  0.0870 -0.7444
 7046TIP3    H142773   2.494   1.277   7.407  0.1768 -1.1763 -0.6782
 7046TIP3    H242774   2.406   1.241   7.525  1.8637 -1.9987  0.3618
 7047TIP3   OH242775   2.359   6.285   0.824 -0.0322  0.1244  0.4288
 7047TIP3    H142776   2.391   6.209   0.775  1.3545  0.8225  0.1892
 7047TIP3    H242777   2.377   6.264   0.915 -0.0231  0.0078  0.4010
 7048TIP3   OH242778   6.138   3.781   1.891 -0.3849 -0.1598 -0.3204
 7048TIP3    H142779   6.067   3.792   1.828 -0.5575  1.1712  0.0804
 7048TIP3    H242780   6.203   3.846   1.865  0.0341 -0.3680  0.1994
 7049TIP3   OH242781   4.939   1.292   0.167  0.3222  0.3328  0.1326
 7049TIP3    H142782   4.870   1.324   0.109  0.9582 -0.6019 -1.2030
 7049TIP3    H242783   4.945   1.357   0.236 -1.6089  0.6398  0.0567
 7050TIP3   OH242784   0.152   4.287   7.910 -0.5476 -0.2394 -0.6648
 7050TIP3    H142785   0.150   4.381   7.891 -0.9995 -0.2400 -0.6257
 7050TIP3    H242786   0.187   4.247   7.830 -0.6479 -0.0671 -0.7944
 7051TIP3   OH242787   0.991   4.677   0.835  0.2207 -0.3510  0.3022
 7051TIP3    H142788   1.071   4.675   0.782 -0.3890  1.3141 -0.7374
 7051TIP3    H242789   1.023   4.686   0.925  1.2261  1.6548 -0.2009
 7052TIP3   OH242790   0.894   6.122   1.981  0.1599 -0.3356  0.0878
 7052TIP3    H142791   0.927   6.033   1.996 -0.8456 -0.7287  0.0793
 7052TIP3    H242792   0.853   6.147   2.064 -0.8384 -0.4651 -0.3457
 7053TIP3   OH242793   0.802   6.745   8.274 -0.3221 -0.5461 -0.3219
 7053TIP3    H142794   0.860   6.740   8.350  1.2321  2.2226 -1.2117
 7053TIP3    H242795   0.858   6.721   8.200 -0.3488  1.6792 -1.1360
 7054TIP3   OH242796   3.485   6.005   1.556  0.5476 -0.2052  0.1177
 7054TIP3    H142797   3.416   5.975   1.496 -0.3414 -2.4507  2.1311
 7054TIP3    H242798   3.441   6.070   1.612  0.2486 -1.0269  0.8609
 7055TIP3   OH242799   1.250   3.796   0.197  0.2238 -0.0195  0.1179
 7055TIP3    H142800   1.303   3.717   0.200  1.6604  0.7972 -1.7671
 7055TIP3    H242801   1.314   3.868   0.198 -1.0006  1.1064  0.8965
 7056TIP3   OH242802   6.362   1.113   0.287 -0.2451  0.0399  0.0159
 7056TIP3    H142803   6.446   1.068   0.277 -0.9578 -1.3500  0.1400
 7056TIP3    H242804   6.303   1.067   0.228 -0.8739  1.1713 -0.2586
 7057TIP3   OH242805   0.632   6.761   0.960 -0.0790  0.1079  0.2288
 7057TIP3    H142806   0.578   6.682   0.969  0.1165 -0.0802 -0.1977
 7057TIP3    H242807   0.572   6.827   0.925  0.3427 -0.6006 -2.0471
 7058TIP3   OH242808   3.172   2.724   8.299  0.0391 -0.2172 -0.2424
 7058TIP3    H142809   3.180   2.789   8.368  0.4676 -1.2301  0.6845
 7058TIP3    H242810   3.105   2.760   8.240 -1.0605  0.1910  1.2091
 7059TIP3   OH242811   3.976   4.914   2.242 -0.0648  0.1410 -0.1573
 7059TIP3    H142812   3.918   4.903   2.317  0.8360 -1.8260  0.3190
 7059TIP3    H242813   4.002   5.006   2.245 -1.3304  0.4898  0.9621
 7060TIP3   OH242814   6.544   2.562   0.011 -0.6243 -0.2804 -0.1763
 7060TIP3    H142815   6.464   2.614   0.014 -0.4185  0.0264  0.1408
 7060TIP3    H242816   6.514   2.472   0.005 -1.0160 -0.2183  0.6128
 7061TIP3   OH242817   4.264   0.744   8.719  0.5454 -0.0306 -0.1734
 7061TIP3    H142818   4.211   0.705   8.789 -1.2827  0.7257 -1.0998
 7061TIP3    H242819   4.312   0.815   8.762 -1.9784  1.6608  0.0241
 7062TIP3   OH242820   6.404   4.524   1.711  0.3821  0.1296  0.7482
 7062TIP3    H142821   6.454   4.466   1.653  0.0483 -0.1403  0.7298
 7062TIP3    H242822   6.323   4.541   1.664 -0.0345 -0.3537  1.2696
 7063TIP3   OH242823   1.569   3.112   0.638 -0.4359 -0.6213 -0.1687
 7063TIP3    H142824   1.485   3.157   0.634 -0.8290 -1.3184  0.1092
 7063TIP3    H242825   1.546   3.019   0.648  0.3651 -0.6945  1.2415
 7064TIP3   OH242826   1.268   6.140   1.119 -0.0146  0.2077  0.1609
 7064TIP3    H142827   1.274   6.235   1.134  0.0763  0.2292 -0.0007
 7064TIP3    H242828   1.289   6.130   1.026 -2.6970  0.3084 -0.5380
 7065TIP3   OH242829   5.176   4.180   1.481 -0.2779 -0.2996 -0.0671
 7065TIP3    H142830   5.158   4.126   1.404 -1.8036 -1.7206  1.2355
 7065TIP3    H242831   5.149   4.268   1.454 -3.1177 -1.1867 -0.4293
 7066TIP3   OH242832   1.692   4.396   0.057  0.4781  0.4402  0.3055
 7066TIP3    H142833   1.661   4.351  -0.021  0.1546  2.0216 -0.5111
 7066TIP3    H242834   1.622   4.385   0.121  0.1558  0.2726 -0.0713
 7067TIP3   OH242835   0.119   3.733   7.045  0.7467  0.0514 -0.0223
 7067TIP3    H142836   0.102   3.801   6.979  0.2649  1.4564  1.4872
 7067TIP3    H242837   0.203   3.695   7.018  0.8502  0.9835 -1.1268
 7068TIP3   OH242838   6.613   1.394   0.133 -0.1193 -0.6641  0.2000
 7068TIP3    H142839   6.559   1.343   0.073  0.0937 -1.4760  0.6954
 7068TIP3    H242840   6.588   1.364   0.220  0.1935 -0.1004  0.4924
 7069TIP3   OH242841   1.835   1.258   1.964 -0.0502  0.2837 -0.2373
 7069TIP3    H142842   1.840   1.287   2.055 -0.4725 -0.0176 -0.1119
 7069TIP3    H242843   1.925   1.256   1.934  0.1208  0.0885  0.2707
 7070TIP3   OH242844   5.616   5.752   1.627  0.4365  0.4198  0.7986
 7070TIP3    H142845   5.674   5.811   1.675  1.7383  1.7810 -2.2147
 7070TIP3    H242846   5.562   5.811   1.573 -1.6622 -0.9719  1.2720
 7071TIP3   OH242847   3.186   0.790   1.876 -0.2532 -0.0573 -0.0012
 7071TIP3    H142848   3.092   0.796   1.859  0.1288  0.5698 -2.0924
 7071TIP3    H242849   3.192   0.757   1.966 -2.4573 -0.3784  0.0696
 7072TIP3   OH242850   6.063   3.823   0.513  0.0800  0.7420 -0.4070
 7072TIP3    H142851   6.137   3.820   0.575 -0.3454  1.9331  0.1711
 7072TIP3    H242852   6.076   3.904   0.464 -0.7825  0.9091 -0.3712
 7073TIP3   OH242853   5.422   0.144   1.689  0.4267  0.2215  0.0919
 7073TIP3    H142854   5.362   0.152   1.762  0.6002  0.0106  0.2598
 7073TIP3    H242855   5.498   0.197   1.713  0.3470  0.4116 -0.0770
 7074TIP3   OH242856   4.613   1.335   0.434  0.5551  0.4694  0.4267
 7074TIP3    H142857   4.573   1.288   0.507  1.8202 -2.7974 -0.7984
 7074TIP3    H242858   4.698   1.363   0.466  0.3340  0.7776  0.7564
 7075TIP3   OH242859   2.212   5.381   0.099  0.3182 -0.0118  0.3443
 7075TIP3    H142860   2.303   5.354   0.086  0.3276  0.4472 -0.6301
 7075TIP3    H242861   2.216   5.445   0.170  0.8653  0.5620 -0.1889
 7076TIP3   OH242862   0.102   3.935   7.807  0.2641 -0.5660  0.4029
 7076TIP3    H142863   0.123   3.942   7.714  0.1523  0.5609  0.4462
 7076TIP3    H242864   0.140   4.014   7.846  0.0862 -0.9014  1.2676
 7077TIP3   OH242865   5.929   3.768   0.015  0.2398  0.3328  0.1577
 7077TIP3    H142866   5.881   3.851   0.017 -0.8175 -0.2776  1.2492
 7077TIP3    H242867   5.959   3.756   0.105  0.4402 -0.4252 -0.0086
 7078TIP3   OH242868   6.781   1.357   2.210  0.3308 -0.5768  0.1776
 7078TIP3    H142869   6.825   1.375   2.292  2.8239  0.1065 -1.2036
 7078TIP3    H242870   6.852   1.347   2.146 -1.4372 -2.3111 -1.6827
 7079TIP3   OH242871   4.992   2.820   0.950  0.1786 -0.2581 -0.1806
 7079TIP3    H142872   4.915   2.818   1.006 -0.0396  0.9736 -0.3958
 7079TIP3    H242873   4.996   2.733   0.910 -1.0297 -0.3767 -0.0781
 7080TIP3   OH242874   4.262   3.181   2.341 -0.3759 -0.0140  0.0199
 7080TIP3    H142875   4.182   3.201   2.293 -0.1987 -1.4322 -0.9341
 7080TIP3    H242876   4.289   3.095   2.308  0.2662 -0.6367  2.0017
 7081TIP3   OH242877   0.687   0.323   0.695  0.4597 -0.0176  0.1307
 7081TIP3    H142878   0.721   0.273   0.621  1.8849  1.6599 -0.4294
 7081TIP3    H242879   0.636   0.393   0.654 -0.5740 -0.3258  0.8488
 7082TIP3   OH242880   3.430   3.666   0.508 -0.0497 -0.5220  0.1875
 7082TIP3    H142881   3.514   3.712   0.509 -0.4576  0.2747 -0.6430
 7082TIP3    H242882   3.410   3.652   0.601  0.6211 -0.0233  0.4209
 7083TIP3   OH242883   5.647   4.836   0.549 -0.3907 -0.1968  0.2921
 7083TIP3    H142884   5.627   4.888   0.627 -0.6820  1.5452 -0.8846
 7083TIP3    H242885   5.723   4.783   0.574 -0.0423  0.8375  1.5386
 7084TIP3   OH242886   4.231   3.330   7.142  0.4779 -0.0938  0.3798
 7084TIP3    H142887   4.309   3.366   7.100 -1.7779  2.3122 -2.1400
 7084TIP3    H242888   4.226   3.240   7.110  1.0706  0.4081 -1.2296
 7085TIP3   OH242889   3.816   5.420   0.617  0.7072 -0.1607  0.3017
 7085TIP3    H142890   3.822   5.398   0.710  1.3817 -0.5755  0.1668
 7085TIP3    H242891   3.723   5.409   0.595  0.3028  1.1795  1.2215
 7086TIP3   OH242892   4.904   4.995   0.612  0.5169 -0.1354 -0.5404
 7086TIP3    H142893   4.917   5.064   0.547  0.6457  0.8748  0.5208
 7086TIP3    H242894   4.817   4.960   0.594  0.5455  0.1537 -1.2390
 7087TIP3   OH242895   6.137   1.873   7.331 -0.2610  0.2848 -0.1600
 7087TIP3    H142896   6.189   1.847   7.407 -0.9612  0.9073  0.5593
 7087TIP3    H242897   6.050   1.838   7.349  0.0793 -1.5263 -1.7691
 7088TIP3   OH242898   3.752   5.774   2.642  0.3545  0.0755 -0.1068
 7088TIP3    H142899   3.792   5.749   2.559  1.7390  0.3335  0.4563
 7088TIP3    H242900   3.661   5.744   2.635  1.0664 -2.1056 -0.7343
 7089TIP3   OH242901   4.319   6.461   0.323 -0.6797 -0.0851  0.4518
 7089TIP3    H142902   4.278   6.424   0.401 -0.6010 -2.0554 -0.4069
 7089TIP3    H242903   4.388   6.399   0.300 -1.2021  0.0443 -1.6283
 7090TIP3   OH242904   0.315   3.680   1.082  0.0652  0.4147 -0.3957
 7090TIP3    H142905   0.348   3.726   1.159 -1.3272 -0.9686  1.1190
 7090TIP3    H242906   0.344   3.589   1.094  0.2076  0.2543 -1.7602
 7091TIP3   OH242907   2.718   3.998   0.559  0.0671  0.6414  0.8916
 7091TIP3    H142908   2.799   3.970   0.517 -1.0911 -3.9851  1.2594
 7091TIP3    H242909   2.652   3.993   0.489 -0.4848  1.0351  1.3714
 7092TIP3   OH242910   5.279   4.432   7.847  0.1823 -0.0231  0.7345
 7092TIP3    H142911   5.276   4.528   7.840  2.4311  0.1095  0.6803
 7092TIP3    H242912   5.218   4.411   7.918 -1.8499  1.2109 -0.5384
 7093TIP3   OH242913   2.407   3.988   0.017  0.2489 -0.0745  0.1532
 7093TIP3    H142914   2.353   3.981  -0.062 -2.5844 -0.2750  1.9584
 7093TIP3    H242915   2.442   4.077   0.015 -0.6117  0.2631 -0.8132
 7094TIP3   OH242916   2.071   0.241   1.015 -0.2982 -0.3579 -0.3783
 7094TIP3    H142917   2.072   0.147   1.029 -2.9298 -0.6612 -1.7090
 7094TIP3    H242918   2.143   0.258   0.955  1.0584 -1.2643  0.9216
 7095TIP3   OH242919   6.546   2.363   1.673  0.7362 -0.1276 -0.6108
 7095TIP3    H142920   6.522   2.412   1.594  1.0974 -1.8622 -1.8539
 7095TIP3    H242921   6.555   2.273   1.643  0.7511 -0.8630  1.4669
 7096TIP3   OH242922   6.298   6.140   8.155  0.0598  0.2645 -0.2474
 7096TIP3    H142923   6.388   6.173   8.158  0.2776 -0.3455  0.0443
 7096TIP3    H242924   6.272   6.150   8.064  1.0929 -1.3039 -0.7559
 7097TIP3   OH242925   3.953   0.443   7.711  0.1119  0.4460 -0.2122
 7097TIP3    H142926   3.864   0.439   7.747  0.0165  0.3157 -0.4627
 7097TIP3    H242927   3.946   0.403   7.625  0.7331 -1.0112  0.3834
 7098TIP3   OH242928   5.241   0.393   7.462  0.4753  0.2864  0.3293
 7098TIP3    H142929   5.266   0.474   7.418  0.0412  0.0459 -0.3616
 7098TIP3    H242930   5.271   0.323   7.404  2.3918 -0.1325  1.7025
 7099TIP3   OH242931   3.658   4.323   0.571 -0.0584  0.3727  0.6306
 7099TIP3    H142932   3.577   4.334   0.622 -0.2793  0.9523  0.1705
 7099TIP3    H242933   3.725   4.367   0.623 -0.0752  0.0374  0.9347
 7100TIP3   OH242934   6.481   5.930   8.600 -0.2735  0.1081 -0.1485
 7100TIP3    H142935   6.526   5.856   8.641 -0.9312 -0.3980 -0.3144
 7100TIP3    H242936   6.455   5.897   8.514  0.5155  0.9474 -0.7103
 7101TIP3   OH242937   1.237   6.327   8.239 -1.0494 -0.5457 -0.4041
 7101TIP3    H142938   1.190   6.293   8.315 -0.9018  0.9453  0.3826
 7101TIP3    H242939   1.293   6.254   8.211  0.0785 -0.6555  1.9103
 7102TIP3   OH242940   6.179   2.223   0.776 -0.0354 -0.4272  0.3725
 7102TIP3    H142941   6.108   2.221   0.712 -0.0047  0.9414  0.2830
 7102TIP3    H242942   6.220   2.308   0.765 -0.4262  0.1262  2.6430
 7103TIP3   OH242943   4.839   5.524   7.002  0.1047 -0.4178  0.0515
 7103TIP3    H142944   4.923   5.493   7.036  0.0482 -1.1996 -0.4869
 7103TIP3    H242945   4.833   5.615   7.031  1.8721  0.1604 -1.2437
 7104TIP3   OH242946   1.658   0.689   0.751  0.1382  0.0897 -0.4386
 7104TIP3    H142947   1.633   0.739   0.674 -1.1081  0.6297  0.2877
 7104TIP3    H242948   1.606   0.608   0.745  0.5376 -0.1614 -0.5116
 7105TIP3   OH242949   4.648   6.658   8.566  0.0961 -0.3429 -0.2173
 7105TIP3    H142950   4.697   6.647   8.648  0.3371  0.3384 -0.2638
 7105TIP3    H242951   4.602   6.741   8.576 -0.9447 -0.9085 -0.2348
 7106TIP3   OH242952   3.494   1.238   8.115  0.0400  0.0584  0.4757
 7106TIP3    H142953   3.538   1.230   8.031  0.5289 -0.2340  0.7548
 7106TIP3    H242954   3.564   1.252   8.178 -0.4193  1.8082  0.6581
 7107TIP3   OH242955   5.420   4.133   2.986 -0.3816 -0.2760 -0.0713
 7107TIP3    H142956   5.460   4.215   2.957 -1.2083  0.7715  1.6220
 7107TIP3    H242957   5.465   4.065   2.935  1.5588  1.0694 -0.2518
 7108TIP3   OH242958   5.733   6.704   1.496  0.8746  0.0701  0.3838
 7108TIP3    H142959   5.820   6.684   1.460  0.8905 -1.3893  1.1875
 7108TIP3    H242960   5.720   6.639   1.565 -2.3231 -2.1498 -2.0058
 7109TIP3   OH242961   2.429   4.532   0.552 -0.4281 -0.1446 -0.3689
 7109TIP3    H142962   2.498   4.592   0.579  0.5307 -1.2980 -0.1506
 7109TIP3    H242963   2.431   4.534   0.457  1.4516 -1.7933 -0.4247
 7110TIP3   OH242964   0.868   2.788   2.029  0.2036  0.1852  0.2720
 7110TIP3    H142965   0.839   2.709   1.982 -0.4748  1.2996 -1.2605
 7110TIP3    H242966   0.963   2.776   2.038  0.1125 -0.7974  0.0646
 7111TIP3   OH242967   1.895   2.042   2.095  0.0287 -0.2671 -0.1392
 7111TIP3    H142968   1.879   2.052   2.189 -2.6097 -0.7679 -0.4595
 7111TIP3    H242969   1.919   1.950   2.085 -0.5113 -0.4322 -0.0096
 7112TIP3   OH242970   1.930   6.173   6.743  0.0034 -0.2778 -0.7405
 7112TIP3    H142971   1.880   6.231   6.686 -0.4069 -0.6930 -0.8108
 7112TIP3    H242972   2.018   6.212   6.746 -0.3916  0.5963 -0.3992
 7113TIP3   OH242973   4.181   0.064   7.424 -0.3165 -0.1890 -0.1138
 7113TIP3    H142974   4.125   0.058   7.501 -0.8893 -0.3224 -0.5341
 7113TIP3    H242975   4.121   0.073   7.351  0.2534  0.9008 -0.4645
 7114TIP3   OH242976   4.695   0.976   1.779  0.3298  0.7774  0.1073
 7114TIP3    H142977   4.629   1.039   1.808  1.3611  2.0820 -0.2980
 7114TIP3    H242978   4.771   0.993   1.835  0.3704 -0.6874  0.5527
 7115TIP3   OH242979   6.770   3.891   2.223  0.3249 -0.1041 -0.0471
 7115TIP3    H142980   6.825   3.909   2.146  0.5998  0.4584  0.2822
 7115TIP3    H242981   6.699   3.837   2.188 -0.5077  1.5525 -1.0473
 7116TIP3   OH242982   6.367   0.046   0.219  0.5797 -0.0195  0.1089
 7116TIP3    H142983   6.289   0.064   0.271 -0.2527 -1.7884 -0.4816
 7116TIP3    H242984   6.335   0.008   0.138  2.0601 -0.8049 -0.1495
 7117TIP3   OH242985   3.854   2.366   0.702 -0.4987  0.0033 -0.2550
 7117TIP3    H142986   3.859   2.346   0.795  0.0404 -1.3683 -0.5568
 7117TIP3    H242987   3.796   2.442   0.697  1.1151  1.4161  1.3583
 7118TIP3   OH242988   0.200   1.855   7.928  0.2174 -0.3015 -0.4561
 7118TIP3    H142989   0.227   1.859   8.020 -0.1178  1.2422 -0.3981
 7118TIP3    H242990   0.282   1.858   7.879  0.3268  1.1856 -0.2244
 7119TIP3   OH242991   0.928   3.509   0.177  0.2867  0.0438 -0.3314
 7119TIP3    H142992   0.968   3.490   0.262  0.4511  1.3352 -0.1099
 7119TIP3    H242993   0.993   3.481   0.113  0.8705  0.6223 -0.0006
 7120TIP3   OH242994   3.997   3.179   2.157 -0.5801  0.3323  0.3730
 7120TIP3    H142995   3.968   3.111   2.217  2.9045 -0.7920  1.0191
 7120TIP3    H242996   4.049   3.133   2.091  0.4603  2.1730 -0.1775
 7121TIP3   OH242997   0.973   2.078   2.150  0.1266 -0.1201  0.0028
 7121TIP3    H142998   0.958   2.003   2.208 -0.0455  0.7872  1.1861
 7121TIP3    H242999   1.003   2.148   2.209 -2.4612  1.6266 -0.5546
 7122TIP3   OH243000   3.201   1.514   8.277  0.3093 -0.3468  0.4527
 7122TIP3    H143001   3.215   1.518   8.182 -1.3351  1.9035  0.2319
 7122TIP3    H243002   3.107   1.499   8.287  0.9099 -4.1855  1.8251
 7123TIP3   OH243003   3.452   6.743   1.289 -0.3262 -0.3500 -0.4657
 7123TIP3    H143004   3.398   6.817   1.319  0.2357 -0.4728  0.9143
 7123TIP3    H243005   3.502   6.717   1.366  0.7293 -1.1018 -1.3745
 7124TIP3   OH243006   5.662   3.111   0.737 -0.1561 -0.3714  0.2597
 7124TIP3    H143007   5.615   3.108   0.820 -0.6076 -0.3620  0.0074
 7124TIP3    H243008   5.751   3.136   0.761  0.0086 -1.4783  0.8582
 7125TIP3   OH243009   5.270   2.807   0.781  0.1978  0.2914  0.9252
 7125TIP3    H143010   5.353   2.849   0.758 -0.0279 -0.0758 -0.7183
 7125TIP3    H243011   5.261   2.821   0.875  0.9813  2.3871  0.7433
 7126TIP3   OH243012   4.852   6.618   2.695 -0.1345  0.6896 -0.2308
 7126TIP3    H143013   4.856   6.673   2.774  1.4418  1.8064 -1.0210
 7126TIP3    H243014   4.790   6.548   2.717  1.3284  0.1071  2.5458
 7127TIP3   OH243015   4.596   4.972   2.044 -0.2955 -0.2945  0.3415
 7127TIP3    H143016   4.602   4.879   2.065  0.7250 -0.4771 -0.6432
 7127TIP3    H243017   4.537   4.977   1.969  1.7546 -0.5191 -1.4019
 7128TIP3   OH243018   2.535   3.275   2.375  0.1716  0.0755 -0.1227
 7128TIP3    H143019   2.483   3.206   2.416 -0.8964  1.2866  0.6382
 7128TIP3    H243020   2.498   3.284   2.287  0.1803 -0.1817 -0.1533
 7129TIP3   OH243021   6.377   2.422   8.510 -0.1662  0.4879  0.3715
 7129TIP3    H143022   6.379   2.333   8.478  1.8881  0.7080 -0.2089
 7129TIP3    H243023   6.287   2.452   8.492 -0.1034 -0.5394 -1.9589
 7130TIP3   OH243024   4.766   0.270   0.334 -0.4292 -0.1591 -0.0789
 7130TIP3    H143025   4.766   0.335   0.264 -1.3612 -0.9252 -0.8146
 7130TIP3    H243026   4.758   0.186   0.289 -0.0358 -0.7380  0.8994
 7131TIP3   OH243027   0.359   3.852   0.654 -0.2477 -0.0415  0.3295
 7131TIP3    H143028   0.417   3.910   0.703 -0.6490  0.0732  0.6719
 7131TIP3    H243029   0.404   3.837   0.571 -0.4679  1.3321 -0.0631
 7132TIP3   OH243030   4.183   5.907   8.110  0.5698  0.0897 -0.1956
 7132TIP3    H143031   4.230   5.948   8.038  0.7393  1.5386  0.6928
 7132TIP3    H243032   4.125   5.843   8.068  0.7497  0.8096 -1.5874
 7133TIP3   OH243033   2.987   5.437   8.744  0.4578 -0.1087  0.3300
 7133TIP3    H143034   3.050   5.390   8.799  0.8947 -0.7125 -0.6634
 7133TIP3    H243035   3.012   5.529   8.752  1.1823 -0.2980  0.3126
 7134TIP3   OH243036   1.559   2.106   8.750  0.2033 -0.0570 -0.0532
 7134TIP3    H143037   1.493   2.146   8.694  1.6486  0.7447 -1.2666
 7134TIP3    H243038   1.621   2.177   8.767  2.0945 -1.3723 -1.1043
 7135TIP3   OH243039   6.650   4.738   1.590  0.0054 -0.2078  0.2249
 7135TIP3    H143040   6.683   4.655   1.554 -0.1203  0.1377 -0.7176
 7135TIP3    H243041   6.707   4.755   1.666 -0.3743 -1.4667  0.8210
 7136TIP3   OH243042   0.734   3.700   0.321 -0.0118 -0.0562  0.1494
 7136TIP3    H143043   0.810   3.745   0.284  0.2932 -0.2854  0.4911
 7136TIP3    H243044   0.771   3.631   0.376 -0.4344  0.6238  1.3280
 7137TIP3   OH243045   3.908   2.209   1.997 -0.1331  0.4234 -0.1610
 7137TIP3    H143046   3.928   2.299   1.972  2.0538  0.1697  0.4919
 7137TIP3    H243047   3.924   2.158   1.917  0.1557  0.4412 -0.1170
 7138TIP3   OH243048   4.111   5.123   1.048  0.1696 -0.1463 -0.2657
 7138TIP3    H143049   4.148   5.105   1.134 -0.2830  0.9754  0.1751
 7138TIP3    H243050   4.133   5.214   1.030 -2.2141  0.5354 -0.0423
 7139TIP3   OH243051   6.630   0.778   8.451  0.0545  0.1534  0.6902
 7139TIP3    H143052   6.702   0.840   8.463  0.8989 -0.6559 -0.1264
 7139TIP3    H243053   6.579   0.814   8.379 -0.1344  0.4947  0.9848
 7140TIP3   OH243054   6.672   4.145   1.081 -0.4021 -0.1581  0.2643
 7140TIP3    H143055   6.707   4.215   1.027 -1.8157  1.0294  0.8286
 7140TIP3    H243056   6.709   4.065   1.043 -1.3495  0.6046 -2.4760
 7141TIP3   OH243057   0.595   0.868   0.332 -0.1443  0.1718  0.8577
 7141TIP3    H143058   0.593   0.894   0.240  0.2008 -0.9463  0.5197
 7141TIP3    H243059   0.503   0.864   0.358 -0.3083 -0.6426  0.2093
 7142TIP3   OH243060   5.072   0.484   2.420 -0.4961  0.6522 -0.5617
 7142TIP3    H143061   4.990   0.448   2.454 -0.6843  1.1709 -0.4483
 7142TIP3    H243062   5.135   0.413   2.427 -0.5199  0.7524  0.9158
 7143TIP3   OH243063   6.215   6.693   7.756  0.1471 -0.1351 -0.0404
 7143TIP3    H143064   6.229   6.600   7.773 -1.0124 -0.2644  0.3264
 7143TIP3    H243065   6.209   6.700   7.661 -2.4571 -0.9059 -0.0059
 7144TIP3   OH243066   2.172   0.060   0.491  0.1610  0.1605  0.2833
 7144TIP3    H143067   2.097   0.086   0.545 -0.2167  0.3922 -0.3423
 7144TIP3    H243068   2.247   0.099   0.535 -0.4791  3.3343 -1.1788
 7145TIP3   OH243069   5.400   5.717   2.618 -0.0707  0.5125 -0.0095
 7145TIP3    H143070   5.329   5.713   2.683 -1.7955  4.7338 -1.3103
 7145TIP3    H243071   5.374   5.787   2.559  3.7025  0.0317 -2.5573
 7146TIP3   OH243072   1.029   1.090   8.351  0.0657 -0.2424  0.4340
 7146TIP3    H143073   1.003   1.128   8.435  0.7573 -0.4456  0.7457
 7146TIP3    H243074   0.948   1.052   8.316 -0.7595  1.8340 -0.0845
 7147LIG     O143075   2.858   1.837   1.160 -0.3381 -0.0948  0.4032
 7147LIG     O243076   2.820   1.579   1.065  0.2917  0.4916 -0.1085
 7147LIG     O343077   3.146   1.858   1.189 -0.2588  0.8550  0.3874
 7147LIG     O443078   2.806   1.540   0.832  0.5331  0.1830 -0.1586
 7147LIG     O543079   3.046   1.772   0.867 -0.1884 -0.4648  0.0337
 7147LIG     O643080   3.215   1.522   0.953  0.6934  0.0859  0.0738
 7147LIG     O743081   3.071   1.293   0.861  0.2679  0.4270 -0.5868
 7147LIG     O843082   2.635   1.331   0.948 -0.1423  0.4320 -0.0533
 7147LIG     O943083   2.817   1.208   0.995 -0.4166  0.2006  0.4303
 7147LIG      N43084   2.602   1.836   1.613  0.7298  0.1114  0.3388
 7147LIG     C143085   2.714   1.801   1.340  0.4645 -0.2934 -0.4261
 7147LIG     C243086   2.644   1.687   1.414 -0.5297  0.1971  0.3133
 7147LIG     C343087   2.722   1.787   1.185 -0.1763  0.1098 -1.0277
 7147LIG     C443088   2.661   1.710   1.564  0.1691  0.0115 -0.4533
 7147LIG     C543089   2.659   1.943   1.390 -0.0202  0.4158  0.2514
 7147LIG     C643090   2.855   1.805   1.390 -0.2083  0.2336  0.1434
 7147LIG     C743091   2.808   1.691   1.602 -0.1621 -0.0434 -0.2688
 7147LIG     C843092   2.663   1.955   1.544 -0.1868 -0.4617 -0.0875
 7147LIG     C943093   2.707   1.639   1.137 -0.0255 -0.6672 -0.2752
 7147LIG    C1043094   2.906   1.743   1.501  0.5933  0.0660 -0.3760
 7147LIG    C1143095   2.693   1.551   1.360 -0.1979 -0.4492  0.1781
 7147LIG    C1243096   2.937   1.813   1.281  0.4040  0.2678  1.2536
 7147LIG    C1343097   2.713   1.529   1.235 -0.9426 -0.0190 -0.1148
 7147LIG    C1443098   2.454   1.841   1.613  0.7977  0.3920 -0.0760
 7147LIG    C1543099   3.041   1.710   1.516  0.2629  0.0032  0.0533
 7147LIG    C1643100   3.071   1.808   1.293  0.4006 -0.1765  0.2405
 7147LIG    C1743101   3.125   1.756   1.414  0.1082 -0.5501 -0.2534
 7147LIG    C1843102   2.851   1.635   0.938 -0.1116 -0.3846 -0.3403
 7147LIG    C1943103   3.004   1.655   0.932 -0.1657  0.1742  0.7042
 7147LIG    C2043104   3.084   1.535   0.889 -0.4949  0.3214  0.6125
 7147LIG    C2143105   3.005   1.407   0.912  0.3541  0.2984  0.1252
 7147LIG    C2243106   2.861   1.408   0.859 -0.1140  0.1791 -0.3460
 7147LIG    C2343107   2.773   1.312   0.946  0.1701  1.4590  0.1629
 7147LIG     H143108   2.536   1.698   1.392 -0.4635 -0.7854 -0.5848
 7147LIG     H243109   2.647   1.857   1.143  1.1139  2.2129 -0.0127
 7147LIG     H343110   2.606   1.627   1.614  1.2638 -0.4567 -0.0079
 7147LIG     H443111   2.552   1.956   1.363 -0.1596  1.9298  1.4108
 7147LIG     H543112   2.714   2.023   1.336 -0.1714  0.1977 -0.2411
 7147LIG     H643113   2.826   1.581   1.609 -1.7607 -0.3356 -0.2151
 7147LIG     H743114   2.832   1.724   1.705 -1.5156 -0.7893  0.3168
 7147LIG     H843115   2.770   1.962   1.573  0.4336  2.0648 -2.5845
 7147LIG     H943116   2.621   2.052   1.577  1.0311 -0.5409  1.8274
 7147LIG    H1043117   2.616   1.620   1.075 -0.0863 -0.9653 -0.0969
 7147LIG    H1143118   2.676   1.464   1.425  2.1009 -0.5169  0.7768
 7147LIG    H1243119   2.719   1.427   1.195  1.8644 -0.5592  1.4332
 7147LIG    H1343120   2.414   1.854   1.716  1.9214 -1.7380  0.6930
 7147LIG    H1443121   2.423   1.742   1.573  0.9282  0.5449 -0.5677
 7147LIG    H1543122   2.402   1.915   1.548  0.6106  0.4155  0.0978
 7147LIG    H1643123   3.073   1.656   1.604 -1.1982 -0.8889  0.0721
 7147LIG    H1743124   3.227   1.722   1.412 -0.2717 -1.9141  1.5568
 7147LIG    H1843125   2.789   1.726   0.925  1.6001  0.9164  0.2476
 7147LIG    H1943126   3.031   1.677   1.038 -1.9181 -0.5400  1.3388
 7147LIG    H2043127   3.106   1.534   0.780  1.7503  1.6134  0.9913
 7147LIG    H2143128   3.240   1.841   1.202 -0.2310  1.3791  0.9132
 7147LIG    H2243129   2.993   1.400   1.022 -3.0487 -0.2221 -0.1723
 7147LIG    H2343130   2.867   1.347   0.767  1.0220  0.9054 -0.7828
 7147LIG    H2443131   3.110   1.818   0.922 -0.3241 -0.8420  0.5149
 7147LIG    H2543132   3.283   1.575   0.910  1.3689  0.5752  1.6484
 7147LIG    H2643133   3.135   1.270   0.928 -2.2240 -1.0980  1.4836
 7147LIG    H2743134   2.601   1.271   1.014 -0.2385 -1.0832 -1.4231
   6.83758   6.83758   8.82934
