Title
43134
    1CHL1    C3    1   4.747   2.820   6.821  0.4914  0.4988 -0.9361
    1CHL1    H3    2   4.782   2.924   6.838 -1.1309  0.9916 -0.4429
    1CHL1    O3    3   4.716   2.769   6.952  0.5788 -0.1377 -0.0614
    1CHL1   H3'    4   4.688   2.843   7.006  1.6027  0.0867  0.1830
    1CHL1    C4    5   4.620   2.827   6.733 -0.0610 -0.3463 -0.0724
    1CHL1   H4A    6   4.589   2.721   6.728 -1.3529  0.0337 -0.7306
    1CHL1   H4B    7   4.538   2.884   6.783  0.1573  1.2687 -1.4453
    1CHL1    C5    8   4.631   2.879   6.598  0.1643  0.4821  0.0065
    1CHL1    C6    9   4.552   2.973   6.551 -0.0155 -0.1561 -0.8770
    1CHL1    H6   10   4.474   3.018   6.613  2.0305  1.5406  0.6060
    1CHL1    C7   11   4.543   3.018   6.408  0.6567 -0.3500  0.0163
    1CHL1   H7A   12   4.437   3.012   6.373  0.5901  2.7842 -0.6284
    1CHL1   H7B   13   4.575   3.123   6.391  0.6871 -0.5370 -1.1852
    1CHL1    C8   14   4.629   2.930   6.314 -0.5592  0.0929  0.6017
    1CHL1    H8   15   4.574   2.834   6.306  0.4529 -0.4190 -0.4182
    1CHL1   C14   16   4.663   3.000   6.185 -0.0825 -0.2322 -1.2333
    1CHL1   H14   17   4.741   3.076   6.206  0.9227 -1.1860 -1.4164
    1CHL1   C15   18   4.554   3.076   6.116  1.0365 -1.1221  0.1857
    1CHL1  H15A   19   4.453   3.030   6.116 -1.1381  3.0880 -0.6947
    1CHL1  H15B   20   4.539   3.174   6.167  0.2126 -0.1759 -1.7638
    1CHL1   C16   21   4.606   3.100   5.970 -0.1505  0.1007  0.2967
    1CHL1  H16A   22   4.530   3.061   5.899 -1.4875  1.4883  0.9050
    1CHL1  H16B   23   4.638   3.206   5.962 -0.1439  0.1393  0.7865
    1CHL1   C17   24   4.736   3.018   5.962 -0.3227  0.7850  0.0102
    1CHL1   H17   25   4.818   3.092   5.977  0.3296 -0.3889  2.8425
    1CHL1   C13   26   4.740   2.920   6.084 -1.0843 -0.3808 -0.3581
    1CHL1   C18   27   4.665   2.790   6.047 -0.0252 -0.0314  0.4052
    1CHL1  H18A   28   4.642   2.734   6.140 -0.9955  0.0545  0.2209
    1CHL1  H18B   29   4.566   2.813   6.004  0.0147  0.4637  0.5737
    1CHL1  H18C   30   4.728   2.728   5.980 -0.5109 -0.2020  0.1044
    1CHL1   C12   31   4.876   2.882   6.146 -0.0793 -0.7702  0.8994
    1CHL1  H12A   32   4.944   2.819   6.085  0.2653  0.0266  0.4486
    1CHL1  H12B   33   4.920   2.981   6.169 -1.1225 -0.2367  0.6590
    1CHL1   C11   34   4.858   2.809   6.279 -0.4283 -0.4403  0.1584
    1CHL1  H11A   35   4.810   2.712   6.253  0.2044 -0.3173 -1.6381
    1CHL1  H11B   36   4.958   2.782   6.320 -0.0166 -2.8288 -2.1233
    1CHL1    C9   37   4.765   2.887   6.386  0.3866 -0.0730  0.8209
    1CHL1    H9   38   4.823   2.979   6.412  0.6808 -0.2527  0.8060
    1CHL1   C10   39   4.745   2.810   6.517  0.2787  0.3780 -0.3554
    1CHL1   C19   40   4.694   2.664   6.490  0.5233 -0.0862 -0.1663
    1CHL1  H19A   41   4.775   2.615   6.432 -1.0542 -2.8301 -0.1902
    1CHL1  H19B   42   4.691   2.603   6.583 -2.9766  1.3261  0.7919
    1CHL1  H19C   43   4.602   2.659   6.429  0.5389  2.9135 -0.5752
    1CHL1    C1   44   4.872   2.803   6.610 -0.8360 -0.5955  0.2458
    1CHL1   H1A   45   4.955   2.749   6.561  0.0708  1.0868 -0.1628
    1CHL1   H1B   46   4.917   2.903   6.627  1.0711 -1.2176 -0.8574
    1CHL1    C2   47   4.854   2.741   6.749  0.3375  0.0273  0.2368
    1CHL1   H2A   48   4.948   2.744   6.808  0.2923 -0.3791  0.3258
    1CHL1   H2B   49   4.839   2.631   6.751 -0.2039  0.0657 -0.8717
    1CHL1   C20   50   4.772   2.966   5.819  0.2474  0.6613  0.3891
    1CHL1   H20   51   4.701   2.882   5.804  0.4022  0.3367  1.3561
    1CHL1   C21   52   4.919   2.919   5.807 -0.3271 -0.4512 -0.2985
    1CHL1  H21A   53   4.935   2.883   5.703 -1.6601 -1.3912 -0.2069
    1CHL1  H21B   54   4.946   2.832   5.870  0.4994  0.3079  0.4193
    1CHL1  H21C   55   4.989   3.002   5.831  0.6222 -1.6042  1.0567
    1CHL1   C22   56   4.742   3.072   5.714 -0.2015  0.1164  0.0091
    1CHL1  H22A   57   4.642   3.117   5.733  0.6807  1.8770  0.6276
    1CHL1  H22B   58   4.811   3.158   5.719  0.5531 -0.5314  2.1195
    1CHL1   C23   59   4.736   3.009   5.577 -0.1741  0.4885 -0.0438
    1CHL1  H23A   60   4.735   3.092   5.503 -0.9589  0.1935 -0.3805
    1CHL1  H23B   61   4.823   2.944   5.552  0.1810  0.7786  0.4090
    1CHL1   C24   62   4.612   2.918   5.552 -0.0350 -0.2159  0.1135
    1CHL1  H24A   63   4.634   2.815   5.590  1.9832  1.4186  3.9875
    1CHL1  H24B   64   4.524   2.953   5.610 -1.8076 -0.1019 -2.4830
    1CHL1   C25   65   4.564   2.897   5.410 -0.3599 -0.0162 -0.2576
    1CHL1   H25   66   4.655   2.883   5.347 -0.0437  1.0865 -0.0663
    1CHL1   C26   67   4.462   2.790   5.406  0.6286 -0.6652 -0.7104
    1CHL1  H26A   68   4.409   2.778   5.310 -0.2987  0.0670 -0.3100
    1CHL1  H26B   69   4.504   2.690   5.427 -1.8192 -1.6041  0.0580
    1CHL1  H26C   70   4.384   2.808   5.484 -1.4198  0.2110 -2.8432
    1CHL1   C27   71   4.512   3.032   5.366  1.0222 -0.6869  0.8354
    1CHL1  H27A   72   4.597   3.104   5.362  1.2761 -0.9669  1.1406
    1CHL1  H27B   73   4.465   3.030   5.265  3.3992  0.9932 -0.4118
    1CHL1  H27C   74   4.436   3.065   5.441  1.8974  0.9798  1.0272
    2CHL1    C3   75   5.529   2.935   6.913  0.8531  0.3037 -0.3966
    2CHL1    H3   76   5.592   3.018   6.875 -2.0381  1.5288 -2.9653
    2CHL1    O3   77   5.532   2.918   7.048  0.1518 -0.1196 -0.0916
    2CHL1   H3'   78   5.453   2.874   7.081 -0.0908  1.0752  1.0016
    2CHL1    C4   79   5.382   2.952   6.874 -0.0713 -0.0168 -0.7696
    2CHL1   H4A   80   5.329   2.865   6.918  0.7525 -0.3931 -0.4940
    2CHL1   H4B   81   5.337   3.043   6.919 -0.9653 -1.2135  0.8709
    2CHL1    C5   82   5.368   2.956   6.720  0.3983  0.3949 -0.1743
    2CHL1    C6   83   5.293   3.053   6.660 -0.1332  0.4394 -0.6303
    2CHL1    H6   84   5.252   3.131   6.726 -0.7017 -0.8931  0.6143
    2CHL1    C7   85   5.258   3.061   6.515  0.0692  0.1704 -0.6229
    2CHL1   H7A   86   5.148   3.071   6.500 -0.1076 -1.5361 -0.6064
    2CHL1   H7B   87   5.311   3.152   6.479 -0.0586  1.3240  1.9388
    2CHL1    C8   88   5.298   2.932   6.434  0.3545 -0.0276  0.3811
    2CHL1    H8   89   5.218   2.856   6.450  0.2254  0.3825  1.8189
    2CHL1   C14   90   5.314   2.963   6.285  0.1207 -0.4673 -0.0370
    2CHL1   H14   91   5.398   3.037   6.286 -0.5595  0.3092  0.5549
    2CHL1   C15   92   5.203   3.038   6.205  0.2213  0.1009 -0.5513
    2CHL1  H15A   93   5.115   2.979   6.239 -0.6836  1.7462  0.0577
    2CHL1  H15B   94   5.192   3.144   6.236  3.0657  0.9837 -2.2601
    2CHL1   C16   95   5.254   3.027   6.061 -0.7785  0.5730 -0.4312
    2CHL1  H16A   96   5.178   2.996   5.986  1.1253  0.3406 -2.3796
    2CHL1  H16B   97   5.285   3.127   6.023  0.3048 -0.2861 -1.9412
    2CHL1   C17   98   5.378   2.935   6.057  0.1011 -0.2673  0.0359
    2CHL1   H17   99   5.467   2.998   6.075 -0.8399  0.8334  1.0191
    2CHL1   C13  100   5.367   2.859   6.189  0.3338  0.3443 -0.6958
    2CHL1   C18  101   5.264   2.744   6.187 -1.4283 -0.0966 -0.7567
    2CHL1  H18A  102   5.177   2.767   6.122 -1.2315  1.3507 -0.5387
    2CHL1  H18B  103   5.317   2.655   6.144  0.9470  0.9772 -0.2255
    2CHL1  H18C  104   5.236   2.715   6.290  1.3232 -2.8234 -0.6101
    2CHL1   C12  105   5.504   2.814   6.250  1.1291  0.1328  0.2331
    2CHL1  H12A  106   5.545   2.732   6.187 -1.0425 -2.7420  2.2565
    2CHL1  H12B  107   5.557   2.911   6.244 -1.3695  1.5255 -0.9528
    2CHL1   C11  108   5.490   2.761   6.397  0.5161  0.2745  0.4417
    2CHL1  H11A  109   5.426   2.670   6.399  1.1826 -0.2345 -0.4569
    2CHL1  H11B  110   5.596   2.740   6.425  0.8022  1.1659  0.0415
    2CHL1    C9  111   5.433   2.870   6.489  0.4438 -0.5625 -0.7467
    2CHL1    H9  112   5.506   2.954   6.481 -0.8550  0.5738 -0.9854
    2CHL1   C10  113   5.432   2.837   6.644  0.1968 -0.2102 -0.2031
    2CHL1   C19  114   5.340   2.710   6.671 -0.2017 -0.3095  0.9593
    2CHL1  H19A  115   5.369   2.624   6.607 -3.9565 -1.8121  1.0124
    2CHL1  H19B  116   5.349   2.681   6.778  1.0401 -1.8250  0.4784
    2CHL1  H19C  117   5.232   2.732   6.656 -0.3684 -1.1628  0.8625
    2CHL1    C1  118   5.575   2.820   6.693  0.2482 -0.1467  0.4573
    2CHL1   H1A  119   5.622   2.725   6.660  0.9735  0.8486 -1.4982
    2CHL1   H1B  120   5.634   2.913   6.678  4.0970 -2.1806  1.8271
    2CHL1    C2  121   5.586   2.810   6.846 -0.3825 -0.5895 -0.2226
    2CHL1   H2A  122   5.692   2.804   6.878 -0.9744  0.9127  2.3539
    2CHL1   H2B  123   5.530   2.724   6.888  0.3165 -0.3591  1.2922
    2CHL1   C20  124   5.394   2.856   5.923  0.2375 -0.9735 -0.3366
    2CHL1   H20  125   5.303   2.798   5.895 -0.3555  0.4487 -1.4789
    2CHL1   C21  126   5.516   2.765   5.932  0.4957  0.5382  0.0605
    2CHL1  H21A  127   5.603   2.822   5.972  0.4080  0.0962  0.8864
    2CHL1  H21B  128   5.534   2.732   5.827 -2.7221  0.3814 -0.5404
    2CHL1  H21C  129   5.483   2.678   5.993  1.6776  0.5829  0.8023
    2CHL1   C22  130   5.400   2.961   5.804 -0.1370 -0.1535  0.2195
    2CHL1  H22A  131   5.370   3.058   5.848  3.4841  2.0275 -1.6991
    2CHL1  H22B  132   5.505   2.979   5.775  0.2548 -0.2077  1.5603
    2CHL1   C23  133   5.305   2.927   5.687 -0.0158  0.0127 -0.6733
    2CHL1  H23A  134   5.358   2.863   5.613 -1.5530  0.1968 -1.9988
    2CHL1  H23B  135   5.212   2.876   5.722 -1.3399  3.0688  0.6888
    2CHL1   C24  136   5.261   3.047   5.610 -0.0069 -0.0449  0.0915
    2CHL1  H24A  137   5.196   3.099   5.683  0.8837 -0.0638  0.9016
    2CHL1  H24B  138   5.340   3.115   5.572 -1.6069  3.3609  2.4082
    2CHL1   C25  139   5.164   3.005   5.497 -0.0658  0.4685  0.3353
    2CHL1   H25  140   5.100   2.919   5.525 -1.3552  0.1434 -3.1252
    2CHL1   C26  141   5.061   3.116   5.460  0.2887  0.2471 -0.3927
    2CHL1  H26A  142   4.984   3.128   5.539 -0.3142  0.8955 -1.0692
    2CHL1  H26B  143   5.105   3.217   5.447 -1.9046  1.4258  0.7579
    2CHL1  H26C  144   5.004   3.095   5.367 -2.7700  2.1679  0.9091
    2CHL1   C27  145   5.229   2.961   5.363  0.3095  0.4010  1.1076
    2CHL1  H27A  146   5.299   3.041   5.331  1.4545 -0.8361  0.4293
    2CHL1  H27B  147   5.278   2.862   5.371 -2.2264 -1.2699 -1.5952
    2CHL1  H27C  148   5.148   2.952   5.287 -1.1756 -0.3476  2.7043
    3CHL1    C3  149   4.329   3.642   7.170 -0.1186 -0.2810 -0.0970
    3CHL1    H3  150   4.265   3.731   7.148 -0.9058 -1.3657 -2.5077
    3CHL1    O3  151   4.357   3.621   7.309 -0.5432 -0.5035  1.2863
    3CHL1   H3'  152   4.419   3.548   7.299 -0.3562 -0.1143 -1.0739
    3CHL1    C4  153   4.260   3.518   7.107  0.8940 -0.0943  0.3390
    3CHL1   H4A  154   4.317   3.426   7.133 -0.1826 -1.4852 -1.8782
    3CHL1   H4B  155   4.165   3.511   7.165 -0.4426  1.2437 -1.5565
    3CHL1    C5  156   4.242   3.516   6.954  0.9679 -0.3878 -0.2766
    3CHL1    C6  157   4.127   3.502   6.889  0.5256  0.5913  0.6320
    3CHL1    H6  158   4.030   3.480   6.935 -0.6025  1.1566 -1.3710
    3CHL1    C7  159   4.110   3.497   6.740 -0.5656  0.5079 -0.0479
    3CHL1   H7A  160   4.034   3.418   6.723 -0.9186 -0.3299  4.3924
    3CHL1   H7B  161   4.064   3.587   6.694  2.3093  1.1677 -1.9126
    3CHL1    C8  162   4.245   3.477   6.672  0.0122  0.2831  0.8279
    3CHL1    H8  163   4.267   3.369   6.690  2.7317  1.0011  2.5645
    3CHL1   C14  164   4.230   3.504   6.523 -0.0396 -0.5234 -0.0307
    3CHL1   H14  165   4.183   3.604   6.510 -0.3926 -0.8064 -1.0419
    3CHL1   C15  166   4.130   3.420   6.446  0.3290  0.7445  1.0177
    3CHL1  H15A  167   4.127   3.313   6.477 -1.2791  1.2226  2.6983
    3CHL1  H15B  168   4.029   3.464   6.458  0.0242 -0.2803  2.4283
    3CHL1   C16  169   4.176   3.434   6.301 -0.0248  0.1681 -0.4711
    3CHL1  H16A  170   4.203   3.334   6.262  1.9700  0.7545 -0.6704
    3CHL1  H16B  171   4.103   3.473   6.227 -0.8624  0.4874  0.4850
    3CHL1   C17  172   4.299   3.529   6.306  0.4213  0.2328  0.0951
    3CHL1   H17  173   4.264   3.634   6.305  1.2147  0.6071 -3.3534
    3CHL1   C13  174   4.363   3.502   6.445 -0.4337 -0.3680 -0.3961
    3CHL1   C18  175   4.417   3.363   6.448 -0.1378 -0.6680 -0.1932
    3CHL1  H18A  176   4.501   3.364   6.376 -0.0988  0.4325 -0.1582
    3CHL1  H18B  177   4.444   3.330   6.550 -0.9559 -3.0819 -0.6945
    3CHL1  H18C  178   4.342   3.289   6.412 -0.7378 -0.0590 -0.2176
    3CHL1   C12  179   4.446   3.611   6.497  0.0278 -0.8434  0.3028
    3CHL1  H12A  180   4.539   3.613   6.436 -0.0674 -0.5257  0.1641
    3CHL1  H12B  181   4.393   3.708   6.480  0.7903 -0.5386 -0.4046
    3CHL1   C11  182   4.470   3.587   6.642  0.2289 -0.3635 -0.0850
    3CHL1  H11A  183   4.534   3.496   6.637 -0.6682 -0.9628 -1.2799
    3CHL1  H11B  184   4.548   3.660   6.672 -0.1090  1.1818 -2.7357
    3CHL1    C9  185   4.346   3.575   6.724 -0.1372  0.7847 -0.2851
    3CHL1    H9  186   4.297   3.675   6.722  1.3289  1.5633  0.7320
    3CHL1   C10  187   4.375   3.541   6.882  0.4772  1.1329  0.7322
    3CHL1   C19  188   4.459   3.411   6.898 -0.2124 -0.1132 -0.0761
    3CHL1  H19A  189   4.488   3.391   7.003  2.9694 -0.1020 -0.8562
    3CHL1  H19B  190   4.409   3.317   6.868  0.4245 -0.3781 -0.3263
    3CHL1  H19C  191   4.554   3.432   6.845 -0.5191  0.2290 -0.4968
    3CHL1    C1  192   4.447   3.664   6.940 -0.0257  0.6759 -0.4481
    3CHL1   H1A  193   4.544   3.686   6.891 -0.6158 -0.3527 -2.1502
    3CHL1   H1B  194   4.381   3.753   6.924 -1.4047 -0.6829 -2.9631
    3CHL1    C2  195   4.462   3.664   7.096 -0.7422  0.4140  0.1081
    3CHL1   H2A  196   4.511   3.758   7.128 -2.7892  1.2938  0.8117
    3CHL1   H2B  197   4.530   3.581   7.125  0.4676  0.9843 -0.9925
    3CHL1   C20  198   4.395   3.517   6.187 -0.7435  0.7458 -1.4190
    3CHL1   H20  199   4.492   3.472   6.216 -1.7294 -0.4527  0.2479
    3CHL1   C21  200   4.412   3.665   6.151 -0.0767 -0.3429  0.1978
    3CHL1  H21A  201   4.440   3.727   6.239  0.8194  1.2969 -1.1843
    3CHL1  H21B  202   4.325   3.714   6.103  0.0390 -2.6782 -2.7039
    3CHL1  H21C  203   4.493   3.674   6.075 -0.0671  0.6088  0.3180
    3CHL1   C22  204   4.335   3.435   6.060  0.0643 -0.5926 -0.4893
    3CHL1  H22A  205   4.325   3.326   6.080 -0.1717 -0.6509 -0.9257
    3CHL1  H22B  206   4.236   3.485   6.047  0.6570  0.0898 -2.7148
    3CHL1   C23  207   4.423   3.453   5.935 -0.0428  0.0721 -0.2569
    3CHL1  H23A  208   4.417   3.559   5.903  1.3454 -0.1629 -1.4067
    3CHL1  H23B  209   4.528   3.430   5.964 -0.5200 -2.7659 -0.4800
    3CHL1   C24  210   4.382   3.376   5.807 -0.1057  0.2250 -0.3441
    3CHL1  H24A  211   4.413   3.270   5.819  2.0348  0.7090 -1.1171
    3CHL1  H24B  212   4.272   3.370   5.794 -0.1409  0.7190 -0.2962
    3CHL1   C25  213   4.427   3.438   5.670 -0.3815 -0.0821  0.5731
    3CHL1   H25  214   4.404   3.546   5.664 -0.6097 -0.1986 -1.4548
    3CHL1   C26  215   4.577   3.418   5.647 -0.9282 -0.0436 -0.3197
    3CHL1  H26A  216   4.621   3.484   5.725  0.3300 -1.3241  0.0941
    3CHL1  H26B  217   4.615   3.316   5.668  1.1411  0.7439 -0.0668
    3CHL1  H26C  218   4.624   3.441   5.549  2.0254 -2.5538  0.3784
    3CHL1   C27  219   4.356   3.369   5.554  0.4590  0.2475 -0.2833
    3CHL1  H27A  220   4.249   3.370   5.583  0.2275  4.0224 -0.6407
    3CHL1  H27B  221   4.361   3.420   5.455 -2.2259  0.8801 -0.1659
    3CHL1  H27C  222   4.404   3.270   5.544 -1.1762 -0.5546 -0.4812
    4CHL1    C3  223   3.207   3.353   7.377  0.4367 -0.2526 -0.6364
    4CHL1    H3  224   3.148   3.259   7.374 -0.0535  0.0769 -2.0688
    4CHL1    O3  225   3.254   3.377   7.508 -0.1228  0.4098  0.3265
    4CHL1   H3'  226   3.179   3.367   7.567  0.4346  0.3348  1.0426
    4CHL1    C4  227   3.331   3.358   7.285  0.4704 -0.3796 -0.3330
    4CHL1   H4A  228   3.398   3.446   7.291  0.0320 -0.0639 -0.0366
    4CHL1   H4B  229   3.394   3.272   7.317  0.0213 -0.8598 -0.7094
    4CHL1    C5  230   3.294   3.331   7.143 -0.6469  0.6912 -0.4155
    4CHL1    C6  231   3.350   3.227   7.075  0.2115 -0.7595  0.2155
    4CHL1    H6  232   3.413   3.147   7.118  2.0271  0.5204  0.0179
    4CHL1    C7  233   3.325   3.216   6.928 -0.0267 -0.0278  0.0214
    4CHL1   H7A  234   3.416   3.187   6.872 -1.0796  0.4166 -2.0542
    4CHL1   H7B  235   3.252   3.135   6.906  1.4703 -1.2705 -0.5597
    4CHL1    C8  236   3.261   3.343   6.859 -0.6486 -0.0960  0.3444
    4CHL1    H8  237   3.347   3.412   6.848 -2.1144  1.7231 -0.3347
    4CHL1   C14  238   3.204   3.308   6.723  0.5239  0.0268 -0.4843
    4CHL1   H14  239   3.117   3.241   6.743  0.4126  0.6021  1.0409
    4CHL1   C15  240   3.288   3.221   6.621 -1.0962 -0.7053 -0.2829
    4CHL1  H15A  241   3.390   3.266   6.630 -1.4769 -0.2986  3.3057
    4CHL1  H15B  242   3.295   3.114   6.649 -0.3748 -0.6238 -0.1255
    4CHL1   C16  243   3.225   3.247   6.489 -0.3747  0.1360  0.0150
    4CHL1  H16A  244   3.308   3.256   6.416 -1.2696 -0.7510 -1.1527
    4CHL1  H16B  245   3.164   3.159   6.458  0.6854 -0.6784  0.1660
    4CHL1   C17  246   3.129   3.367   6.505  0.0858 -0.1824 -0.1625
    4CHL1   H17  247   3.029   3.320   6.521  0.0286  0.2711  0.9183
    4CHL1   C13  248   3.156   3.429   6.643 -0.0580  0.2832  0.9495
    4CHL1   C18  249   3.263   3.534   6.619  0.4859 -0.7280 -0.2929
    4CHL1  H18A  250   3.222   3.623   6.568 -2.0673 -0.3975  2.1016
    4CHL1  H18B  251   3.306   3.573   6.714 -2.0447  0.7702  0.3275
    4CHL1  H18C  252   3.351   3.500   6.560  1.8217 -1.5354  2.0449
    4CHL1   C12  253   3.036   3.479   6.722 -0.0127  0.0199 -1.3400
    4CHL1  H12A  254   3.001   3.577   6.681 -0.4605  0.4917  0.1097
    4CHL1  H12B  255   2.945   3.416   6.716  1.8158 -3.0051  0.1534
    4CHL1   C11  256   3.084   3.519   6.864  0.3056  0.7202 -0.5250
    4CHL1  H11A  257   3.143   3.613   6.853 -0.8884  1.6930  0.9301
    4CHL1  H11B  258   2.992   3.545   6.921  0.5761  0.7997 -0.1156
    4CHL1    C9  259   3.156   3.406   6.942 -0.3664 -0.1670 -0.1519
    4CHL1    H9  260   3.093   3.317   6.966  2.1014 -1.6604  1.2422
    4CHL1   C10  261   3.213   3.443   7.083 -0.6039 -0.6477 -0.4419
    4CHL1   C19  262   3.300   3.571   7.072  0.0934 -0.7976  0.4853
    4CHL1  H19A  263   3.239   3.655   7.033  0.7966  0.4590  1.9827
    4CHL1  H19B  264   3.319   3.603   7.177 -0.0786  0.4154  0.1591
    4CHL1  H19C  265   3.393   3.554   7.013 -0.5114 -1.5375 -0.2842
    4CHL1    C1  266   3.094   3.462   7.183 -0.7055  0.0948 -0.5445
    4CHL1   H1A  267   3.040   3.549   7.139 -1.0946 -0.2043 -0.6611
    4CHL1   H1B  268   3.018   3.382   7.173  0.5012 -1.2524  0.7082
    4CHL1    C2  269   3.127   3.476   7.329  0.0320 -0.2717  0.3706
    4CHL1   H2A  270   3.034   3.483   7.389 -0.3207  1.5527 -0.3039
    4CHL1   H2B  271   3.175   3.576   7.341  0.9043 -0.3462 -1.9469
    4CHL1   C20  272   3.113   3.459   6.380  0.5222  0.1677 -0.6245
    4CHL1   H20  273   3.202   3.523   6.366  1.2242 -0.4675  0.7117
    4CHL1   C21  274   2.991   3.545   6.400 -0.0947 -0.1582 -0.9502
    4CHL1  H21A  275   2.903   3.481   6.421 -0.1519  0.1872 -0.0965
    4CHL1  H21B  276   2.955   3.602   6.312 -1.2690  0.5747 -0.0237
    4CHL1  H21C  277   3.020   3.610   6.486  0.1323 -1.4193 -0.0415
    4CHL1   C22  278   3.099   3.375   6.252  0.2836 -0.3998  0.1066
    4CHL1  H22A  279   3.162   3.284   6.245  1.7093  0.5778 -0.1505
    4CHL1  H22B  280   2.992   3.346   6.245  0.4416 -0.9447 -0.0728
    4CHL1   C23  281   3.148   3.467   6.140 -0.0488 -0.7701 -0.0169
    4CHL1  H23A  282   3.078   3.554   6.143  0.0895 -0.6269 -0.6958
    4CHL1  H23B  283   3.251   3.503   6.157 -0.0518 -0.1599 -1.1587
    4CHL1   C24  284   3.145   3.404   6.002  0.5959  0.4679  0.4578
    4CHL1  H24A  285   3.227   3.331   5.988  0.7574  0.8621 -0.8229
    4CHL1  H24B  286   3.049   3.350   5.986  0.2424  1.4714 -1.0628
    4CHL1   C25  287   3.163   3.514   5.883  0.1024 -0.1437  0.6286
    4CHL1   H25  288   3.096   3.599   5.911  2.0911  1.8754 -0.3727
    4CHL1   C26  289   3.306   3.582   5.885  0.6681  0.0200  0.0458
    4CHL1  H26A  290   3.288   3.660   5.807 -3.9404  0.1213  0.9187
    4CHL1  H26B  291   3.323   3.628   5.985  0.5696  0.4184 -0.1149
    4CHL1  H26C  292   3.380   3.506   5.854  1.6172  0.5049  1.0363
    4CHL1   C27  293   3.134   3.458   5.751 -0.0778 -0.3748  0.3644
    4CHL1  H27A  294   3.126   3.533   5.669 -1.0922 -0.8250  0.0251
    4CHL1  H27B  295   3.203   3.389   5.699 -0.2948  1.0490 -1.9930
    4CHL1  H27C  296   3.035   3.407   5.751 -0.7574  0.9011  0.3830
    5CHL1    C3  297   1.839   5.853   7.061 -0.0814 -0.2079 -0.2740
    5CHL1    H3  298   1.742   5.898   7.032  0.3124 -0.2211 -1.6911
    5CHL1    O3  299   1.879   5.904   7.190 -0.2067 -0.3963  0.1247
    5CHL1   H3'  300   1.964   5.864   7.210  0.8144  1.2621 -0.5989
    5CHL1    C4  301   1.838   5.697   7.056 -0.5974 -0.2062 -0.0348
    5CHL1   H4A  302   1.932   5.655   7.098 -1.2851  0.1054  1.9237
    5CHL1   H4B  303   1.770   5.655   7.133  0.0404 -0.8074  0.2158
    5CHL1    C5  304   1.808   5.642   6.918  0.1444  0.6733  0.1784
    5CHL1    C6  305   1.714   5.544   6.901  0.0947  0.5308 -0.2937
    5CHL1    H6  306   1.659   5.512   6.991  0.1707 -1.5830 -0.9389
    5CHL1    C7  307   1.695   5.479   6.766  0.2200 -0.1136 -0.4986
    5CHL1   H7A  308   1.707   5.368   6.774  2.7533  0.2037  1.2897
    5CHL1   H7B  309   1.592   5.502   6.731  0.6807  1.0849 -1.1028
    5CHL1    C8  310   1.800   5.529   6.658  0.2491 -0.1980 -0.1241
    5CHL1    H8  311   1.888   5.466   6.684  1.5061  2.6472  3.5277
    5CHL1   C14  312   1.765   5.484   6.519  0.3157  0.2801 -0.2586
    5CHL1   H14  313   1.669   5.533   6.492 -0.1225 -0.5706 -0.2699
    5CHL1   C15  314   1.728   5.333   6.505 -0.0439 -0.2604 -0.1176
    5CHL1  H15A  315   1.799   5.266   6.558 -1.6874  0.1261  2.8253
    5CHL1  H15B  316   1.623   5.322   6.542  0.2861  0.0671  0.9765
    5CHL1   C16  317   1.730   5.308   6.352  0.6974  0.1168  0.2822
    5CHL1  H16A  318   1.776   5.210   6.329  1.7953  0.7940 -0.4859
    5CHL1  H16B  319   1.628   5.307   6.307  0.2417 -0.0957  1.2886
    5CHL1   C17  320   1.802   5.431   6.287  0.4357 -0.2959  0.0184
    5CHL1   H17  321   1.719   5.492   6.245  0.3470  1.0495  2.0118
    5CHL1   C13  322   1.862   5.511   6.409 -0.4020 -0.3183 -0.3278
    5CHL1   C18  323   2.000   5.443   6.455 -0.1470  0.4419  0.7505
    5CHL1  H18A  324   2.077   5.462   6.376 -0.9974 -0.6331 -0.3820
    5CHL1  H18B  325   2.053   5.469   6.548  2.6622 -0.2995 -0.5296
    5CHL1  H18C  326   1.989   5.333   6.470  0.7484  0.2042 -0.1978
    5CHL1   C12  327   1.874   5.664   6.408  0.1267 -0.5086  0.2503
    5CHL1  H12A  328   1.935   5.700   6.323  1.4139  0.4722  1.5318
    5CHL1  H12B  329   1.772   5.706   6.396  1.0651  1.4019 -1.9131
    5CHL1   C11  330   1.923   5.724   6.543 -0.4338  0.5674  0.2097
    5CHL1  H11A  331   2.031   5.699   6.557 -0.7295 -0.5239  0.5952
    5CHL1  H11B  332   1.913   5.835   6.536  1.3237  0.7755  0.3284
    5CHL1    C9  333   1.839   5.672   6.665  0.3761 -0.1139 -0.2809
    5CHL1    H9  334   1.745   5.732   6.664 -0.4975 -1.4496 -1.3869
    5CHL1   C10  335   1.894   5.705   6.806 -0.5386 -0.3916 -0.1105
    5CHL1   C19  336   2.039   5.650   6.811 -0.1619  0.0883  0.3877
    5CHL1  H19A  337   2.089   5.651   6.910 -1.0175  0.0015  0.8303
    5CHL1  H19B  338   2.037   5.545   6.774 -0.7321  0.5920 -1.0810
    5CHL1  H19C  339   2.102   5.719   6.751  0.5370  0.2593  1.2873
    5CHL1    C1  340   1.892   5.859   6.816  0.2086  0.1813  0.1482
    5CHL1   H1A  341   1.964   5.904   6.744 -1.4648  2.0262 -0.4653
    5CHL1   H1B  342   1.798   5.905   6.778 -1.1890 -2.5952  0.0066
    5CHL1    C2  343   1.934   5.908   6.952 -0.7054 -0.1786 -0.5416
    5CHL1   H2A  344   1.935   6.019   6.948  0.1204  0.0677  3.2290
    5CHL1   H2B  345   2.037   5.882   6.982 -0.5269  1.4840  0.4226
    5CHL1   C20  346   1.889   5.397   6.163  0.1654 -0.1079 -0.4834
    5CHL1   H20  347   1.975   5.338   6.202 -0.9302 -1.0862  0.5399
    5CHL1   C21  348   1.937   5.530   6.101 -0.3937  0.1731  0.4792
    5CHL1  H21A  349   2.015   5.567   6.171 -0.2786  0.5648  0.1417
    5CHL1  H21B  350   1.855   5.603   6.089  0.9490  1.6380 -0.1738
    5CHL1  H21C  351   1.984   5.505   6.003 -1.9153  2.0234 -0.7849
    5CHL1   C22  352   1.816   5.306   6.051  0.9310 -0.0082 -0.2695
    5CHL1  H22A  353   1.749   5.229   6.095  1.8724 -2.0985 -2.2406
    5CHL1  H22B  354   1.747   5.366   5.989  2.1839  0.2671 -1.4666
    5CHL1   C23  355   1.894   5.232   5.949 -0.6330 -0.3074  0.4920
    5CHL1  H23A  356   1.976   5.296   5.909 -2.7307  0.8788 -2.2439
    5CHL1  H23B  357   1.943   5.141   5.990 -0.0749 -0.3224 -0.1841
    5CHL1   C24  358   1.801   5.172   5.832  0.3556 -0.1781  0.4448
    5CHL1  H24A  359   1.702   5.141   5.871  0.4028  0.6860  1.2868
    5CHL1  H24B  360   1.784   5.259   5.765  3.5789  0.3933  0.1796
    5CHL1   C25  361   1.866   5.066   5.738  0.3857  0.1909 -0.0945
    5CHL1   H25  362   1.909   4.985   5.800 -0.8265 -2.0469 -2.0515
    5CHL1   C26  363   1.762   4.999   5.644  0.2553  0.0833  0.3566
    5CHL1  H26A  364   1.802   4.906   5.598 -0.8626 -0.1951 -0.1003
    5CHL1  H26B  365   1.670   4.970   5.699 -0.6043  2.9625  0.6271
    5CHL1  H26C  366   1.721   5.063   5.563  0.7626  0.4257  0.3621
    5CHL1   C27  367   1.983   5.131   5.659  0.4820  0.1339 -0.2073
    5CHL1  H27A  368   2.025   5.047   5.599 -2.2452 -1.4164 -0.1199
    5CHL1  H27B  369   1.932   5.202   5.591 -0.8708 -0.9023 -0.3322
    5CHL1  H27C  370   2.068   5.182   5.710  0.3857 -1.3293  1.5709
    6CHL1    C3  371   2.648   0.939   7.249  0.0566  0.3344 -0.1872
    6CHL1    H3  372   2.580   1.019   7.211 -1.8106 -1.3530 -0.5240
    6CHL1    O3  373   2.661   0.941   7.392  0.4560  0.0839 -0.2574
    6CHL1   H3'  374   2.573   0.917   7.422  0.0527  1.3878 -0.3602
    6CHL1    C4  375   2.605   0.798   7.199  0.0358 -0.3636  0.6643
    6CHL1   H4A  376   2.678   0.728   7.246 -1.5464 -2.0413  0.7091
    6CHL1   H4B  377   2.509   0.768   7.246  0.0252 -1.5642 -0.0894
    6CHL1    C5  378   2.606   0.795   7.043  0.3071  0.3883  0.1789
    6CHL1    C6  379   2.500   0.763   6.962 -0.3398 -0.4060  0.3282
    6CHL1    H6  380   2.412   0.732   7.019 -0.5255  0.5085  0.5561
    6CHL1    C7  381   2.512   0.757   6.811 -0.4375 -0.8389  0.1086
    6CHL1   H7A  382   2.461   0.671   6.763  1.9898  0.4200 -5.5549
    6CHL1   H7B  383   2.451   0.839   6.768  2.1958  1.6719  0.8275
    6CHL1    C8  384   2.658   0.758   6.755  0.3332  0.0270  0.1655
    6CHL1    H8  385   2.715   0.662   6.752  2.5611  1.2999 -2.2419
    6CHL1   C14  386   2.659   0.796   6.602  0.4754  0.0563 -0.8197
    6CHL1   H14  387   2.613   0.897   6.594 -2.1541 -1.1289 -1.8109
    6CHL1   C15  388   2.563   0.722   6.511  1.2892  0.4608  0.7293
    6CHL1  H15A  389   2.558   0.612   6.525  0.8178  0.4575  0.5401
    6CHL1  H15B  390   2.461   0.765   6.505  1.6299  1.1116 -1.7808
    6CHL1   C16  391   2.625   0.745   6.370  0.5967  1.0066  0.9604
    6CHL1  H16A  392   2.646   0.642   6.334  1.9117  0.5163  2.9608
    6CHL1  H16B  393   2.558   0.795   6.297  2.4158  0.2063 -1.4240
    6CHL1   C17  394   2.762   0.823   6.387 -0.1747 -0.4627  0.0536
    6CHL1   H17  395   2.736   0.930   6.371 -0.8232 -0.5831  0.2920
    6CHL1   C13  396   2.801   0.797   6.538  0.3844 -0.7081  0.0889
    6CHL1   C18  397   2.866   0.653   6.539 -0.3747  0.3135 -0.6215
    6CHL1  H18A  398   2.795   0.580   6.495  0.0967 -1.2381  1.0773
    6CHL1  H18B  399   2.958   0.655   6.476  0.3707  3.1664  0.4177
    6CHL1  H18C  400   2.901   0.620   6.640  1.4184 -0.5083 -1.4489
    6CHL1   C12  401   2.886   0.897   6.617 -0.1672  0.1740  0.3901
    6CHL1  H12A  402   2.993   0.891   6.589  0.1909 -2.3891  1.9417
    6CHL1  H12B  403   2.849   0.997   6.586  0.6269  0.0178 -1.1558
    6CHL1   C11  404   2.880   0.867   6.772 -0.5317  1.5065  0.7300
    6CHL1  H11A  405   2.930   0.772   6.802 -1.9890  1.1973  2.3058
    6CHL1  H11B  406   2.930   0.947   6.830 -0.7902  0.1777  2.8978
    6CHL1    C9  407   2.743   0.854   6.829  0.1371 -0.5933 -0.2382
    6CHL1    H9  408   2.697   0.954   6.813  1.3236 -0.2883 -2.0612
    6CHL1   C10  409   2.743   0.836   6.985 -0.8078  0.6502 -0.8824
    6CHL1   C19  410   2.845   0.725   7.027 -0.0873 -0.2801 -0.4674
    6CHL1  H19A  411   2.949   0.762   7.013  0.4216 -0.7806  1.6358
    6CHL1  H19B  412   2.853   0.690   7.133  0.6660  0.7270 -0.1709
    6CHL1  H19C  413   2.834   0.631   6.969 -0.4872  0.6279 -1.9067
    6CHL1    C1  414   2.795   0.968   7.049  0.3753 -0.4936 -0.5728
    6CHL1   H1A  415   2.900   0.994   7.023  0.3289 -1.4886 -1.8823
    6CHL1   H1B  416   2.738   1.056   7.010 -1.7350 -1.8985 -0.8517
    6CHL1    C2  417   2.794   0.970   7.203  0.0633  0.0877  0.0814
    6CHL1   H2A  418   2.832   1.063   7.250  0.0216 -0.8465  2.0735
    6CHL1   H2B  419   2.860   0.886   7.237 -1.5732 -0.8836  1.0203
    6CHL1   C20  420   2.864   0.790   6.279 -0.5681 -0.0252 -0.6574
    6CHL1   H20  421   2.885   0.681   6.279 -3.1507 -0.5841  0.5948
    6CHL1   C21  422   2.995   0.878   6.278  0.4755 -0.6024 -0.1475
    6CHL1  H21A  423   3.045   0.882   6.377  1.9139 -0.2169 -0.8615
    6CHL1  H21B  424   2.965   0.981   6.251 -0.9454 -0.9006  0.1766
    6CHL1  H21C  425   3.072   0.840   6.208  3.0044  0.3804  1.9409
    6CHL1   C22  426   2.812   0.808   6.132  0.0152  0.5265  0.0749
    6CHL1  H22A  427   2.727   0.740   6.112 -1.2902  1.8397  0.9038
    6CHL1  H22B  428   2.760   0.907   6.127 -0.0777  0.4940  0.3667
    6CHL1   C23  429   2.918   0.787   6.022  0.1495  0.5446  1.0768
    6CHL1  H23A  430   2.995   0.867   6.015  1.9691 -1.1878  0.2752
    6CHL1  H23B  431   2.974   0.692   6.036  2.9010  2.1631  1.7773
    6CHL1   C24  432   2.868   0.777   5.875  0.3295  0.0668 -0.5756
    6CHL1  H24A  433   2.763   0.738   5.872 -0.0924  1.1126  0.1344
    6CHL1  H24B  434   2.856   0.876   5.827 -0.6964  0.0293 -0.4338
    6CHL1   C25  435   2.946   0.687   5.775 -0.3253 -0.2913  0.2000
    6CHL1   H25  436   2.960   0.588   5.823 -0.2579 -0.0062  0.7841
    6CHL1   C26  437   2.868   0.671   5.646 -0.3748 -0.0060  0.1687
    6CHL1  H26A  438   2.856   0.767   5.592  0.9827 -0.3052 -0.7256
    6CHL1  H26B  439   2.902   0.596   5.572  3.4640  2.0078 -0.3564
    6CHL1  H26C  440   2.762   0.649   5.674 -0.8146  2.9020  1.0630
    6CHL1   C27  441   3.094   0.736   5.751 -0.5961  0.2676 -0.1298
    6CHL1  H27A  442   3.142   0.775   5.843  1.6291 -1.1451 -0.6306
    6CHL1  H27B  443   3.152   0.647   5.719  1.8696  1.6570  0.2083
    6CHL1  H27C  444   3.101   0.815   5.673  0.6850  0.7325  0.4329
    7CHL1    C3  445   0.052   1.218   6.903  0.1635 -0.1552 -0.4381
    7CHL1    H3  446   0.084   1.324   6.889  1.3892 -0.4047  0.4020
    7CHL1    O3  447   0.075   1.187   7.034  0.5982  0.4579 -0.8512
    7CHL1   H3'  448  -0.006   1.220   7.073  1.8906  1.4007  1.2286
    7CHL1    C4  449  -0.100   1.202   6.868  0.0404  0.5387  0.5983
    7CHL1   H4A  450  -0.124   1.100   6.904 -0.7401 -0.5974 -2.7414
    7CHL1   H4B  451  -0.149   1.272   6.939  0.9553 -0.7191  2.5573
    7CHL1    C5  452  -0.127   1.217   6.714  0.4341  0.0605 -0.7069
    7CHL1    C6  453  -0.222   1.297   6.669 -0.0068 -0.0918  0.0250
    7CHL1    H6  454  -0.298   1.331   6.741 -2.2572 -1.5075 -1.5525
    7CHL1    C7  455  -0.256   1.316   6.518 -0.1620 -0.3436 -0.8075
    7CHL1   H7A  456  -0.366   1.324   6.499 -0.3013  2.6018  0.7022
    7CHL1   H7B  457  -0.223   1.413   6.474 -0.3145 -0.9129 -2.2281
    7CHL1    C8  458  -0.187   1.210   6.422 -0.7218 -0.3498  0.4059
    7CHL1    H8  459  -0.236   1.111   6.422  1.1908 -1.3593  1.3470
    7CHL1   C14  460  -0.187   1.255   6.268 -0.6100  0.5018  0.1804
    7CHL1   H14  461  -0.132   1.352   6.270 -1.4632  1.0242 -1.0236
    7CHL1   C15  462  -0.317   1.278   6.188 -0.7229  0.2903  0.6344
    7CHL1  H15A  463  -0.373   1.183   6.201  0.7945 -0.7916 -0.4029
    7CHL1  H15B  464  -0.388   1.351   6.233 -1.3886 -0.5485  0.9644
    7CHL1   C16  465  -0.278   1.290   6.043  0.0432  0.3042 -0.0158
    7CHL1  H16A  466  -0.351   1.238   5.977 -0.5380  0.0153  0.8262
    7CHL1  H16B  467  -0.268   1.395   6.007  0.2366 -0.2674 -1.6841
    7CHL1   C17  468  -0.132   1.230   6.041 -0.0768  0.2272 -0.7410
    7CHL1   H17  469  -0.062   1.316   6.047  0.3426 -0.1231 -0.5284
    7CHL1   C13  470  -0.108   1.156   6.174 -0.0285 -0.4464 -0.0319
    7CHL1   C18  471  -0.168   1.015   6.164  0.1844 -0.1417 -0.2927
    7CHL1  H18A  472  -0.188   0.973   6.265 -0.5434  0.6912 -0.0746
    7CHL1  H18B  473  -0.269   1.018   6.119 -0.7220 -0.1565  1.6354
    7CHL1  H18C  474  -0.106   0.947   6.102  0.6497  2.0340 -2.3525
    7CHL1   C12  475   0.035   1.155   6.228  0.4222 -0.4013 -0.3963
    7CHL1  H12A  476   0.107   1.103   6.161  1.5311  0.9645 -0.3307
    7CHL1  H12B  477   0.070   1.261   6.223  1.1778 -0.6691 -0.9079
    7CHL1   C11  478   0.051   1.110   6.371 -0.4903  0.0179 -0.1126
    7CHL1  H11A  479   0.027   1.001   6.371 -0.2102 -0.0960 -2.3172
    7CHL1  H11B  480   0.157   1.119   6.403 -1.0070  0.3890  1.5661
    7CHL1    C9  481  -0.045   1.189   6.470 -0.0083  0.2316  0.7556
    7CHL1    H9  482  -0.004   1.293   6.478 -0.7153  0.4486  1.7479
    7CHL1   C10  483  -0.031   1.137   6.617  0.1958 -0.1182 -0.3378
    7CHL1   C19  484  -0.065   0.985   6.629 -0.4292 -0.6288  0.3599
    7CHL1  H19A  485  -0.081   0.947   6.732  2.9561 -1.3074  0.7542
    7CHL1  H19B  486  -0.159   0.957   6.577 -1.1526  2.1792 -0.0104
    7CHL1  H19C  487   0.023   0.930   6.590 -0.5271 -0.9631  0.6091
    7CHL1    C1  488   0.112   1.160   6.666 -0.5575 -0.2365  0.8745
    7CHL1   H1A  489   0.188   1.101   6.610  1.0119  2.0410  0.4492
    7CHL1   H1B  490   0.143   1.263   6.641  0.6979 -0.7518  0.2108
    7CHL1    C2  491   0.139   1.131   6.809  0.4676 -0.8815 -0.0278
    7CHL1   H2A  492   0.243   1.152   6.844  0.1635 -1.2412  1.1169
    7CHL1   H2B  493   0.124   1.025   6.835  0.1877 -1.3029 -1.7587
    7CHL1   C20  494  -0.102   1.157   5.905  0.4385 -0.2527 -0.2713
    7CHL1   H20  495  -0.169   1.070   5.888  1.4836 -1.1609  0.0972
    7CHL1   C21  496   0.041   1.086   5.902 -0.0579 -0.0266  0.5339
    7CHL1  H21A  497   0.065   1.048   5.800  2.1085  0.6795  0.7417
    7CHL1  H21B  498   0.054   1.001   5.972  2.4610 -0.5469 -0.4836
    7CHL1  H21C  499   0.117   1.164   5.922 -0.9456  0.9364  0.2216
    7CHL1   C22  500  -0.118   1.250   5.785 -0.4682  0.4375 -0.3411
    7CHL1  H22A  501  -0.204   1.320   5.795 -1.2912 -0.2947 -1.7754
    7CHL1  H22B  502  -0.025   1.308   5.769  0.6272 -1.4261 -1.1538
    7CHL1   C23  503  -0.155   1.175   5.654 -0.0938 -0.9473  0.1759
    7CHL1  H23A  504  -0.089   1.086   5.650 -0.0131 -0.8460 -1.3320
    7CHL1  H23B  505  -0.259   1.139   5.666 -1.1633  1.2236 -1.7619
    7CHL1   C24  506  -0.156   1.274   5.530 -0.2915 -0.3539  0.5999
    7CHL1  H24A  507  -0.244   1.339   5.550  0.6027  0.7122  1.1844
    7CHL1  H24B  508  -0.066   1.339   5.522  0.3335 -1.2397  0.2799
    7CHL1   C25  509  -0.172   1.198   5.393 -0.5476  0.1053  0.2295
    7CHL1   H25  510  -0.257   1.126   5.391 -2.4585  2.1451 -3.4721
    7CHL1   C26  511  -0.198   1.303   5.280  0.0743  1.1329 -0.6293
    7CHL1  H26A  512  -0.291   1.356   5.310  0.5425  1.4968  0.2217
    7CHL1  H26B  513  -0.112   1.372   5.272  2.1127 -1.1751  0.1936
    7CHL1  H26C  514  -0.224   1.247   5.188 -2.6666  0.2031  0.5885
    7CHL1   C27  515  -0.051   1.110   5.355 -0.1196 -0.2909 -0.4114
    7CHL1  H27A  516  -0.085   1.038   5.278 -1.8193  1.8101 -1.7815
    7CHL1  H27B  517   0.029   1.175   5.312  0.6442  0.9368  2.5614
    7CHL1  H27C  518  -0.018   1.059   5.448  0.4902  1.2436  0.2673
    8CHL1    C3  519   3.167   0.393   7.106  0.6532  0.0845  0.0716
    8CHL1    H3  520   3.106   0.311   7.062  0.7281  0.1811 -0.2120
    8CHL1    O3  521   3.146   0.398   7.249 -0.4025 -0.1582  0.0484
    8CHL1   H3'  522   3.053   0.380   7.260 -0.6366 -0.3675 -1.8722
    8CHL1    C4  523   3.317   0.382   7.077 -0.3774 -0.0637  0.3607
    8CHL1   H4A  524   3.364   0.476   7.114  0.2846  0.0872 -0.8050
    8CHL1   H4B  525   3.365   0.297   7.128 -0.0498  0.8532  1.6178
    8CHL1    C5  526   3.337   0.366   6.927  0.4214 -0.2600 -0.1452
    8CHL1    C6  527   3.386   0.259   6.865 -0.4266  0.3325  0.2101
    8CHL1    H6  528   3.413   0.165   6.916 -0.4890  0.6502  0.8313
    8CHL1    C7  529   3.401   0.256   6.717  0.0306 -0.1726  0.2605
    8CHL1   H7A  530   3.484   0.192   6.679 -0.2209 -0.1621 -0.3097
    8CHL1   H7B  531   3.313   0.203   6.674  1.6385 -2.1580 -0.7925
    8CHL1    C8  532   3.398   0.388   6.639 -0.8723 -0.3933  0.5190
    8CHL1    H8  533   3.495   0.441   6.651 -0.4301 -1.0226 -0.2097
    8CHL1   C14  534   3.366   0.362   6.490  0.0423  0.3934  0.6628
    8CHL1   H14  535   3.268   0.311   6.480 -0.2786  1.2623 -1.0434
    8CHL1   C15  536   3.442   0.259   6.413 -0.3827  0.6848  0.0432
    8CHL1  H15A  537   3.546   0.292   6.432 -0.8007  2.1743 -0.0944
    8CHL1  H15B  538   3.419   0.151   6.428  0.6197  0.6539  1.4572
    8CHL1   C16  539   3.422   0.298   6.260 -0.3792  0.7064 -0.0476
    8CHL1  H16A  540   3.520   0.318   6.212  0.1470  3.7506  2.0241
    8CHL1  H16B  541   3.369   0.220   6.202  0.1962  0.8519 -0.7860
    8CHL1   C17  542   3.339   0.435   6.259 -0.4452  0.5127 -0.0363
    8CHL1   H17  543   3.234   0.401   6.242  0.4417 -1.7265 -1.6565
    8CHL1   C13  544   3.361   0.491   6.399  0.7913  0.6599 -0.0845
    8CHL1   C18  545   3.496   0.561   6.405 -0.1224  0.6631 -0.8074
    8CHL1  H18A  546   3.500   0.649   6.339  0.0467  0.8183 -0.5936
    8CHL1  H18B  547   3.515   0.596   6.509 -3.3650 -0.9022  0.4624
    8CHL1  H18C  548   3.583   0.497   6.379  0.1934  1.0462 -0.6975
    8CHL1   C12  549   3.235   0.571   6.460  0.5215  0.0384  0.5239
    8CHL1  H12A  550   3.223   0.670   6.410  0.4814  0.5244  1.4747
    8CHL1  H12B  551   3.145   0.506   6.449  0.9624 -0.1332 -3.5127
    8CHL1   C11  552   3.250   0.596   6.612  0.0351  0.0067  0.3422
    8CHL1  H11A  553   3.328   0.673   6.632 -0.2374  1.0355 -2.1284
    8CHL1  H11B  554   3.156   0.642   6.650  0.7963  1.7485  0.2377
    8CHL1    C9  555   3.285   0.469   6.700  0.8198 -0.0991  0.1991
    8CHL1    H9  556   3.202   0.399   6.678  2.5243 -1.9909 -0.6021
    8CHL1   C10  557   3.293   0.491   6.857 -0.2652 -0.0916  0.1270
    8CHL1   C19  558   3.389   0.610   6.881 -0.0050  0.3874  0.2284
    8CHL1  H19A  559   3.373   0.645   6.986 -0.0333 -2.0674  1.1195
    8CHL1  H19B  560   3.492   0.580   6.853 -0.7252  0.1773 -2.4851
    8CHL1  H19C  561   3.373   0.694   6.811 -0.0937 -0.8684 -1.3206
    8CHL1    C1  562   3.150   0.529   6.895 -0.6107 -0.6205 -0.1593
    8CHL1   H1A  563   3.133   0.632   6.855 -2.3897 -0.1556  1.6314
    8CHL1   H1B  564   3.077   0.456   6.855 -0.0571 -0.6466 -1.1439
    8CHL1    C2  565   3.116   0.527   7.047 -0.3011 -0.0576 -0.2301
    8CHL1   H2A  566   3.010   0.542   7.078  0.9964  2.6229  3.5789
    8CHL1   H2B  567   3.166   0.620   7.080  1.2106 -0.5800 -0.9313
    8CHL1   C20  568   3.371   0.518   6.132  0.9956  0.8098 -0.6256
    8CHL1   H20  569   3.477   0.545   6.148  0.9591  0.2904  0.5547
    8CHL1   C21  570   3.288   0.643   6.117  0.4511  0.0417 -0.0272
    8CHL1  H21A  571   3.303   0.710   6.204 -0.2456 -0.6487  0.6397
    8CHL1  H21B  572   3.181   0.620   6.139  0.8583 -1.4434  0.4991
    8CHL1  H21C  573   3.305   0.689   6.017  1.1015  2.4205  1.0909
    8CHL1   C22  574   3.353   0.441   5.995  0.3815 -0.2333  0.6310
    8CHL1  H22A  575   3.382   0.516   5.918 -0.1424 -1.6188 -0.9634
    8CHL1  H22B  576   3.420   0.353   5.992  3.0279  1.6615 -0.1605
    8CHL1   C23  577   3.213   0.392   5.963 -0.6431  0.1584  0.6739
    8CHL1  H23A  578   3.183   0.303   6.023  1.0748 -2.4299 -2.0036
    8CHL1  H23B  579   3.141   0.475   5.979 -0.7406  0.0999  0.5468
    8CHL1   C24  580   3.197   0.335   5.821 -0.4353  0.5580  0.0302
    8CHL1  H24A  581   3.228   0.418   5.754  1.3237  0.4469  0.6702
    8CHL1  H24B  582   3.273   0.255   5.804 -1.1381 -0.2689  0.6532
    8CHL1   C25  583   3.060   0.287   5.787  0.6420  0.2374 -0.1978
    8CHL1   H25  584   2.987   0.348   5.844  0.2607  0.5158 -0.9663
    8CHL1   C26  585   3.012   0.290   5.639 -0.1177  0.2106 -0.4426
    8CHL1  H26A  586   2.903   0.269   5.640 -0.2528  0.8371 -0.9394
    8CHL1  H26B  587   3.023   0.391   5.593 -1.2549  0.0060 -1.2098
    8CHL1  H26C  588   3.052   0.209   5.575  0.1555  0.6346 -0.8141
    8CHL1   C27  589   3.041   0.144   5.844  0.9583  0.2355  0.6079
    8CHL1  H27A  590   3.064   0.144   5.952  0.2151  3.3843  0.8651
    8CHL1  H27B  591   2.933   0.122   5.827  1.4549 -2.4839  0.5024
    8CHL1  H27C  592   3.108   0.072   5.792 -1.7063 -1.0364 -1.3460
    9CHL1    C3  593   6.412   2.887   7.275  0.1245 -0.8649  0.5782
    9CHL1    H3  594   6.444   2.783   7.252 -2.5629 -1.9838  1.5376
    9CHL1    O3  595   6.389   2.894   7.416  0.1833 -0.0322 -0.0212
    9CHL1   H3'  596   6.306   2.938   7.434 -0.3130 -0.2612 -1.5892
    9CHL1    C4  597   6.519   2.996   7.232 -0.1822 -0.3355  0.7630
    9CHL1   H4A  598   6.485   3.096   7.266  2.1208  0.9449 -0.4238
    9CHL1   H4B  599   6.611   2.976   7.290 -0.1965  1.8739  1.6438
    9CHL1    C5  600   6.532   3.000   7.081 -0.3301 -0.4053 -0.4546
    9CHL1    C6  601   6.648   2.970   7.016 -0.8923 -0.0218 -0.2748
    9CHL1    H6  602   6.742   2.961   7.074 -1.3586 -0.3626  0.4373
    9CHL1    C7  603   6.668   2.971   6.869  0.0043 -0.1692  0.6094
    9CHL1   H7A  604   6.767   3.018   6.855  0.2272 -0.7356  0.2336
    9CHL1   H7B  605   6.676   2.869   6.824 -0.8452 -0.5262  1.2460
    9CHL1    C8  606   6.560   3.056   6.802 -0.7738  0.0021  0.9286
    9CHL1    H8  607   6.572   3.162   6.833 -2.1962  1.4372 -2.8098
    9CHL1   C14  608   6.569   3.044   6.651  1.1079 -0.6132 -0.4666
    9CHL1   H14  609   6.550   2.936   6.635 -0.7012 -0.3366 -0.3440
    9CHL1   C15  610   6.702   3.083   6.591  0.4110 -0.3212  0.0388
    9CHL1  H15A  611   6.746   3.166   6.651 -0.9805  0.4340  0.0658
    9CHL1  H15B  612   6.763   2.991   6.582  1.2952  0.3516 -1.0373
    9CHL1   C16  613   6.668   3.123   6.443  0.9869 -0.2286 -0.8493
    9CHL1  H16A  614   6.689   3.229   6.419 -0.1472  0.0612 -0.6213
    9CHL1  H16B  615   6.724   3.068   6.364  0.7556 -0.8194 -0.6102
    9CHL1   C17  616   6.514   3.099   6.426 -1.0312 -0.3771 -0.5368
    9CHL1   H17  617   6.485   2.994   6.404 -1.1083  0.0275 -2.5275
    9CHL1   C13  618   6.458   3.119   6.572  0.2330  0.1478 -0.1969
    9CHL1   C18  619   6.447   3.276   6.611  0.1748 -0.3475  0.1384
    9CHL1  H18A  620   6.435   3.288   6.721 -0.9593 -2.6720  0.3297
    9CHL1  H18B  621   6.535   3.341   6.592 -0.7564  1.5954  2.1310
    9CHL1  H18C  622   6.359   3.323   6.563  0.4559  0.9243  0.8257
    9CHL1   C12  623   6.320   3.048   6.603  0.3774  0.0403 -0.3274
    9CHL1  H12A  624   6.230   3.094   6.556 -0.8058 -1.7014  0.1135
    9CHL1  H12B  625   6.325   2.950   6.551 -2.3230  0.0083 -0.6545
    9CHL1   C11  626   6.304   3.043   6.762  0.3282  0.2371 -0.1224
    9CHL1  H11A  627   6.262   3.142   6.789  1.3510  1.0608 -1.4027
    9CHL1  H11B  628   6.225   2.967   6.775  1.0078 -0.4213  0.2659
    9CHL1    C9  629   6.432   2.998   6.847 -0.4414 -0.4881  0.9543
    9CHL1    H9  630   6.444   2.888   6.840  1.5583 -0.3236  1.1647
    9CHL1   C10  631   6.407   3.026   6.996  0.3053  0.2401 -0.2140
    9CHL1   C19  632   6.360   3.169   7.024 -0.0848  1.0827 -0.0798
    9CHL1  H19A  633   6.260   3.191   6.980 -0.1036  2.1421  0.4579
    9CHL1  H19B  634   6.353   3.206   7.129 -0.5096  3.2339 -0.8053
    9CHL1  H19C  635   6.427   3.248   6.984 -0.1859  0.2615 -1.9717
    9CHL1    C1  636   6.302   2.922   7.050  0.1027 -0.7022 -0.5680
    9CHL1   H1A  637   6.206   2.941   6.999  0.6101  0.2248 -1.1908
    9CHL1   H1B  638   6.330   2.823   7.009 -0.3114 -1.3936  0.7465
    9CHL1    C2  639   6.289   2.913   7.202  1.0228  0.3458  0.2267
    9CHL1   H2A  640   6.209   2.847   7.244  0.1406  0.2764 -1.4699
    9CHL1   H2B  641   6.244   3.012   7.226  1.5089  0.6113  0.0518
    9CHL1   C20  642   6.451   3.184   6.309  0.3229  0.1412 -0.2606
    9CHL1   H20  643   6.428   3.287   6.345 -1.7830  0.6907 -2.8552
    9CHL1   C21  644   6.322   3.117   6.264 -0.1084  0.1435 -0.5857
    9CHL1  H21A  645   6.268   3.103   6.360  1.9010 -2.1827  0.3100
    9CHL1  H21B  646   6.355   3.023   6.215 -0.3655  0.2252 -0.9218
    9CHL1  H21C  647   6.263   3.186   6.200 -0.4357  0.7183  0.3294
    9CHL1   C22  648   6.540   3.213   6.186  0.1746  0.1555 -0.1101
    9CHL1  H22A  649   6.498   3.282   6.109  3.2534  0.8143 -1.3533
    9CHL1  H22B  650   6.632   3.268   6.214  0.2913  0.5315 -1.1804
    9CHL1   C23  651   6.594   3.096   6.105  0.2956 -0.2932  0.7725
    9CHL1  H23A  652   6.648   3.026   6.172  4.6267  1.7806 -0.1976
    9CHL1  H23B  653   6.499   3.052   6.067  0.0405  1.8635 -1.3170
    9CHL1   C24  654   6.698   3.128   5.994 -0.2081  0.3585 -0.1238
    9CHL1  H24A  655   6.650   3.196   5.920 -0.0089  2.7611  1.8105
    9CHL1  H24B  656   6.785   3.178   6.041  1.0086 -0.1395 -1.7560
    9CHL1   C25  657   6.753   3.002   5.919 -0.1748 -1.0313  0.2598
    9CHL1   H25  658   6.668   2.932   5.906 -0.3799 -0.4000 -2.6767
    9CHL1   C26  659   6.809   3.042   5.776  0.1647  0.4181  0.4710
    9CHL1  H26A  660   6.836   2.954   5.713  2.1418  1.5740 -0.4221
    9CHL1  H26B  661   6.737   3.099   5.714  1.1016  0.1608 -0.9024
    9CHL1  H26C  662   6.899   3.106   5.789  1.2870 -1.1859  1.0367
    9CHL1   C27  663   6.860   2.932   6.003 -0.1396 -0.2349  0.0680
    9CHL1  H27A  664   6.936   3.001   6.046  1.1787  0.0679 -2.5569
    9CHL1  H27B  665   6.812   2.886   6.092  1.2284 -0.6407  0.6244
    9CHL1  H27C  666   6.916   2.852   5.950  1.1072 -0.2326  1.3190
   10CHL1    C3  667   4.954   3.452   7.009 -1.0272 -0.0514 -0.3707
   10CHL1    H3  668   5.034   3.527   6.993 -1.0517  0.5112  1.7141
   10CHL1    O3  669   4.946   3.430   7.152 -0.6059  0.2985 -0.7014
   10CHL1   H3'  670   4.882   3.360   7.170  0.8298 -2.0400 -3.7306
   10CHL1    C4  671   4.827   3.496   6.951  0.5361 -0.4362  0.3499
   10CHL1   H4A  672   4.745   3.424   6.971 -1.1518  1.2157 -0.2447
   10CHL1   H4B  673   4.790   3.591   6.996 -0.0860  0.4098 -1.8166
   10CHL1    C5  674   4.862   3.519   6.799  0.2504  0.6229 -0.4507
   10CHL1    C6  675   4.859   3.644   6.750  0.4969 -0.3598 -0.7673
   10CHL1    H6  676   4.839   3.728   6.818  1.0459  0.1369 -1.2016
   10CHL1    C7  677   4.877   3.671   6.601  0.0395  0.1272 -0.6854
   10CHL1   H7A  678   4.802   3.740   6.556 -0.5431 -0.2545 -0.3103
   10CHL1   H7B  679   4.978   3.718   6.590  0.6995 -0.9183  0.5767
   10CHL1    C8  680   4.875   3.549   6.509 -0.1301  0.1951 -0.2836
   10CHL1    H8  681   4.767   3.524   6.496 -0.1839  0.3234 -0.0958
   10CHL1   C14  682   4.931   3.578   6.368 -0.2813 -0.0555 -0.1674
   10CHL1   H14  683   5.040   3.588   6.389 -0.6031 -1.9394  2.9460
   10CHL1   C15  684   4.887   3.702   6.288  0.5726 -0.7880  0.3363
   10CHL1  H15A  685   4.777   3.713   6.277  0.9407  1.8987 -1.6888
   10CHL1  H15B  686   4.930   3.789   6.341 -0.4837  0.2316 -0.4252
   10CHL1   C16  687   4.947   3.680   6.148 -0.2171 -0.1247 -0.0011
   10CHL1  H16A  688   4.867   3.688   6.072 -0.5458 -0.0115  0.3533
   10CHL1  H16B  689   5.019   3.756   6.112 -1.0293 -0.3315 -2.2096
   10CHL1   C17  690   4.990   3.525   6.141 -0.1961  0.6213  0.0762
   10CHL1   H17  691   5.100   3.517   6.154  0.0315 -0.4948 -2.0789
   10CHL1   C13  692   4.921   3.467   6.270 -0.2938  0.7851 -0.1308
   10CHL1   C18  693   4.772   3.444   6.238 -0.0170 -0.5936  0.5084
   10CHL1  H18A  694   4.764   3.367   6.159 -3.4453 -1.1684  1.2647
   10CHL1  H18B  695   4.710   3.399   6.318  0.3420 -0.9516  0.5884
   10CHL1  H18C  696   4.723   3.533   6.194  0.2400 -1.7261 -2.2305
   10CHL1   C12  697   4.981   3.336   6.331  1.1057  0.4336 -0.2503
   10CHL1  H12A  698   4.959   3.253   6.259  0.6846  0.0949  0.2625
   10CHL1  H12B  699   5.090   3.353   6.339  1.2743 -0.3098 -0.8646
   10CHL1   C11  700   4.918   3.304   6.474 -0.1771 -0.4176 -0.4770
   10CHL1  H11A  701   4.811   3.281   6.460 -0.4142  0.1047  0.4473
   10CHL1  H11B  702   4.976   3.223   6.523 -1.2328 -1.0332 -0.2105
   10CHL1    C9  703   4.936   3.425   6.569 -0.0283  0.1422 -0.2574
   10CHL1    H9  704   5.047   3.437   6.564  0.2203 -1.8916 -0.6111
   10CHL1   C10  705   4.898   3.398   6.721  0.6548  0.6701 -0.3797
   10CHL1   C19  706   4.772   3.307   6.716  0.5286 -0.0183  0.3145
   10CHL1  H19A  707   4.699   3.357   6.649  2.1926  0.0086 -1.5818
   10CHL1  H19B  708   4.796   3.210   6.668  0.3323 -0.3194  0.8223
   10CHL1  H19C  709   4.728   3.278   6.814 -0.8790  2.1899  0.4009
   10CHL1    C1  710   5.014   3.327   6.794  0.3752 -0.1677  0.4303
   10CHL1   H1A  711   5.029   3.223   6.758 -0.8533 -0.3557  0.3905
   10CHL1   H1B  712   5.108   3.385   6.797  1.3539 -1.7466  2.6519
   10CHL1    C2  713   4.986   3.315   6.947 -0.2936  0.4828 -0.6089
   10CHL1   H2A  714   5.074   3.269   6.998 -0.8008 -0.5984 -0.6737
   10CHL1   H2B  715   4.898   3.247   6.959 -0.8581  1.2331 -0.4572
   10CHL1   C20  716   4.970   3.465   6.002  0.4892  0.3041  0.5787
   10CHL1   H20  717   4.862   3.479   5.981  0.5930 -1.8733 -1.7910
   10CHL1   C21  718   5.016   3.316   5.997 -0.3483 -0.3478  0.3391
   10CHL1  H21A  719   5.028   3.278   5.893  0.9903  1.4171 -0.2010
   10CHL1  H21B  720   4.942   3.256   6.055  0.2188  0.6622  2.1731
   10CHL1  H21C  721   5.113   3.305   6.049 -0.5207 -0.3180  0.6675
   10CHL1   C22  722   5.036   3.548   5.886  0.2934 -0.1206 -0.2387
   10CHL1  H22A  723   4.973   3.640   5.881  0.0490 -0.2193  0.7903
   10CHL1  H22B  724   5.141   3.580   5.900  0.0988  1.0974 -1.3194
   10CHL1   C23  725   5.028   3.486   5.747 -0.1531 -0.3223  0.0974
   10CHL1  H23A  726   5.104   3.406   5.736  1.4883  1.0683  0.8329
   10CHL1  H23B  727   4.930   3.435   5.738  0.7829 -1.9264 -1.7278
   10CHL1   C24  728   5.036   3.587   5.634 -0.2347 -0.1750 -0.2231
   10CHL1  H24A  729   4.953   3.661   5.630  0.5551  0.9526  2.0994
   10CHL1  H24B  730   5.124   3.652   5.655 -1.5833  0.8213  3.1114
   10CHL1   C25  731   5.040   3.518   5.495  0.0811  0.0521  0.0398
   10CHL1   H25  732   5.127   3.449   5.500  0.5005  0.5364 -0.6001
   10CHL1   C26  733   4.904   3.457   5.468  0.5431 -0.4834  0.4289
   10CHL1  H26A  734   4.885   3.404   5.372 -3.1366  1.8351 -0.2939
   10CHL1  H26B  735   4.861   3.387   5.543 -1.2952 -1.7998 -1.7198
   10CHL1  H26C  736   4.839   3.546   5.470  1.5066  0.2691 -0.4014
   10CHL1   C27  737   5.070   3.620   5.385 -0.1082  0.2160 -0.0899
   10CHL1  H27A  738   5.092   3.567   5.290 -1.9897  0.4467 -0.6903
   10CHL1  H27B  739   4.981   3.683   5.360 -0.4317 -1.0429 -2.3811
   10CHL1  H27C  740   5.152   3.693   5.400 -1.1051  1.6153 -1.1529
   11CHL1    C3  741   4.660   5.125   6.917  0.4368  0.6123 -0.1457
   11CHL1    H3  742   4.760   5.156   6.881  0.0506  0.4986 -1.3453
   11CHL1    O3  743   4.675   5.075   7.054 -0.9239  0.7050  0.0252
   11CHL1   H3'  744   4.586   5.048   7.076 -1.9297  1.4996 -2.6404
   11CHL1    C4  745   4.559   5.235   6.910 -0.1341 -0.3046 -0.8255
   11CHL1   H4A  746   4.468   5.211   6.970  0.3319  0.5234  0.2487
   11CHL1   H4B  747   4.595   5.323   6.968 -2.5803 -0.8836  1.8145
   11CHL1    C5  748   4.519   5.278   6.768 -0.2092 -1.0877  0.8185
   11CHL1    C6  749   4.521   5.405   6.731 -0.5896 -0.5999  0.4011
   11CHL1    H6  750   4.569   5.476   6.801  1.2103 -0.7264 -0.6448
   11CHL1    C7  751   4.482   5.462   6.597  0.0417  0.3135  0.3605
   11CHL1   H7A  752   4.403   5.540   6.602 -0.0860  0.4507 -2.2867
   11CHL1   H7B  753   4.578   5.510   6.567  0.0209  0.7504  0.9804
   11CHL1    C8  754   4.435   5.358   6.497  0.5990 -0.8584  0.7382
   11CHL1    H8  755   4.326   5.343   6.511  0.3393 -2.6695 -2.3656
   11CHL1   C14  756   4.454   5.398   6.347  0.2492  0.0752 -0.5530
   11CHL1   H14  757   4.563   5.417   6.344  0.2262  0.8397  1.5505
   11CHL1   C15  758   4.387   5.529   6.296 -0.5550 -0.0846 -0.8798
   11CHL1  H15A  759   4.294   5.553   6.351 -1.1232 -1.8778 -0.9866
   11CHL1  H15B  760   4.459   5.610   6.319 -1.2475 -0.1182  1.6473
   11CHL1   C16  761   4.362   5.517   6.151  0.2997  0.1873  0.7127
   11CHL1  H16A  762   4.253   5.524   6.128  0.5547  0.1088 -0.6327
   11CHL1  H16B  763   4.423   5.584   6.086 -0.6746 -0.5969 -1.0847
   11CHL1   C17  764   4.404   5.366   6.117  0.3449  0.1032 -0.6853
   11CHL1   H17  765   4.510   5.385   6.092  0.8587 -2.0291 -0.2970
   11CHL1   C13  766   4.402   5.287   6.251 -0.8747 -0.0325  0.4480
   11CHL1   C18  767   4.254   5.247   6.286 -0.2296 -0.0863  0.3107
   11CHL1  H18A  768   4.238   5.218   6.392  1.4037 -0.0427  0.5959
   11CHL1  H18B  769   4.192   5.337   6.265  1.2990  0.9036 -0.1564
   11CHL1  H18C  770   4.222   5.172   6.211 -2.3026  0.0925  0.9539
   11CHL1   C12  771   4.501   5.169   6.274 -0.2171  0.0490  0.1057
   11CHL1  H12A  772   4.468   5.083   6.212 -1.2123 -1.2293  2.3026
   11CHL1  H12B  773   4.608   5.193   6.256 -0.4979 -0.5555 -2.9314
   11CHL1   C11  774   4.480   5.117   6.414  0.1488 -0.2319  0.4949
   11CHL1  H11A  775   4.379   5.073   6.421  0.1079 -0.2447 -0.1138
   11CHL1  H11B  776   4.553   5.034   6.428 -0.0454 -0.7953 -1.5136
   11CHL1    C9  777   4.501   5.224   6.524  0.1579  0.2938 -0.4868
   11CHL1    H9  778   4.610   5.244   6.519  0.0943  0.8386  0.3042
   11CHL1   C10  779   4.484   5.172   6.670  0.4018  0.0969  0.8248
   11CHL1   C19  780   4.339   5.127   6.690  0.2999  0.2472 -0.0419
   11CHL1  H19A  781   4.274   5.217   6.691 -0.1087  0.0254 -2.0813
   11CHL1  H19B  782   4.296   5.052   6.619 -1.8279  1.5896 -0.2395
   11CHL1  H19C  783   4.330   5.091   6.794  2.8836 -1.0053 -0.1586
   11CHL1    C1  784   4.579   5.051   6.691 -0.0518 -0.1211  0.2629
   11CHL1   H1A  785   4.530   4.956   6.658  1.3415 -1.6294  2.2843
   11CHL1   H1B  786   4.672   5.078   6.638 -2.0705  0.9531 -3.0218
   11CHL1    C2  787   4.604   5.012   6.836 -0.6099 -0.6620 -0.2387
   11CHL1   H2A  788   4.677   4.931   6.855  3.9633  3.3173  1.0712
   11CHL1   H2B  789   4.507   4.979   6.879  0.7685 -0.7043  3.1060
   11CHL1   C20  790   4.329   5.307   6.001  0.4008 -0.0571  0.8072
   11CHL1   H20  791   4.222   5.297   6.029  0.1961  2.8348  1.3771
   11CHL1   C21  792   4.369   5.163   5.974 -0.6801 -0.0373  0.2056
   11CHL1  H21A  793   4.333   5.147   5.870  0.4680  1.6732 -0.4896
   11CHL1  H21B  794   4.313   5.101   6.048  1.0478 -0.7134  0.9995
   11CHL1  H21C  795   4.477   5.144   5.987 -0.8050 -0.5013  0.6190
   11CHL1   C22  796   4.332   5.394   5.875  0.2608 -0.4432  0.9726
   11CHL1  H22A  797   4.270   5.342   5.799 -1.1152  1.6183  0.6020
   11CHL1  H22B  798   4.289   5.495   5.893  0.6557  0.5710 -2.8981
   11CHL1   C23  799   4.476   5.418   5.825  0.6047  0.2496 -0.0412
   11CHL1  H23A  800   4.546   5.481   5.883 -0.3072  1.9697 -0.7458
   11CHL1  H23B  801   4.506   5.312   5.814  0.2979  0.1422  0.1309
   11CHL1   C24  802   4.483   5.497   5.694 -0.4379  0.1053  0.0393
   11CHL1  H24A  803   4.585   5.503   5.650 -0.8115  0.7411 -0.7597
   11CHL1  H24B  804   4.422   5.445   5.618  1.6787 -0.3305 -1.4611
   11CHL1   C25  805   4.434   5.642   5.694  0.2259 -0.2293 -0.3563
   11CHL1   H25  806   4.337   5.651   5.748  1.1116  1.3401  1.0928
   11CHL1   C26  807   4.536   5.741   5.767  0.1760  0.4584  0.1260
   11CHL1  H26A  808   4.635   5.696   5.788  0.1957  0.6836  0.5076
   11CHL1  H26B  809   4.548   5.843   5.725 -0.1909  1.4744  2.3533
   11CHL1  H26C  810   4.490   5.756   5.867  1.0127  1.1482  0.4114
   11CHL1   C27  811   4.426   5.688   5.547 -0.3482 -0.0738 -0.2651
   11CHL1  H27A  812   4.527   5.693   5.502 -0.2832 -1.2288 -0.2656
   11CHL1  H27B  813   4.360   5.623   5.485 -0.8492  0.6157 -0.4735
   11CHL1  H27C  814   4.371   5.785   5.536  0.5170  0.5006  0.3270
   12CHL1    C3  815   3.165   6.706   7.135  0.4398  0.7569 -0.4991
   12CHL1    H3  816   3.062   6.677   7.104  1.2140 -2.8535 -0.1213
   12CHL1    O3  817   3.175   6.719   7.283 -0.2906  0.1178  0.2684
   12CHL1   H3'  818   3.158   6.812   7.296  0.5601  0.5569 -1.5095
   12CHL1    C4  819   3.254   6.589   7.087 -0.4500  0.2811 -0.1182
   12CHL1   H4A  820   3.357   6.612   7.122 -0.3368 -0.1087 -0.1806
   12CHL1   H4B  821   3.223   6.491   7.130  1.1661  0.1278  0.7889
   12CHL1    C5  822   3.261   6.573   6.935 -0.2561  0.4839 -0.2075
   12CHL1    C6  823   3.222   6.451   6.880 -0.3547  0.1145 -0.0499
   12CHL1    H6  824   3.194   6.373   6.953  0.2445  0.9383  1.0975
   12CHL1    C7  825   3.221   6.424   6.734  0.3713  0.0219  0.1031
   12CHL1   H7A  826   3.284   6.333   6.721  2.4710  1.4195 -0.0846
   12CHL1   H7B  827   3.116   6.404   6.706  0.3509 -0.8630  0.7909
   12CHL1    C8  828   3.283   6.538   6.642 -0.8119 -0.1721 -0.3354
   12CHL1    H8  829   3.393   6.519   6.641 -1.1292 -2.6195  1.8395
   12CHL1   C14  830   3.221   6.531   6.501  0.5864 -0.1429  0.1484
   12CHL1   H14  831   3.115   6.549   6.528  1.0787  0.6527  1.6960
   12CHL1   C15  832   3.233   6.396   6.422 -0.0804  0.7957 -0.5091
   12CHL1  H15A  833   3.335   6.354   6.420 -0.5866 -0.5409  0.3490
   12CHL1  H15B  834   3.166   6.322   6.472  0.0357  1.2755  0.3679
   12CHL1   C16  835   3.197   6.432   6.281  0.7335 -1.1593 -0.0809
   12CHL1  H16A  836   3.285   6.403   6.219  2.3746 -0.2052  1.7053
   12CHL1  H16B  837   3.099   6.401   6.239 -0.1432  1.4140 -0.1614
   12CHL1   C17  838   3.187   6.585   6.280 -0.2642 -0.7124 -0.4742
   12CHL1   H17  839   3.083   6.614   6.307 -0.0248 -0.1481 -0.1426
   12CHL1   C13  840   3.261   6.650   6.409 -0.4089  0.1156 -0.6751
   12CHL1   C18  841   3.411   6.658   6.389 -0.5018 -0.5232 -0.0585
   12CHL1  H18A  842   3.445   6.761   6.364 -1.8929 -0.0567 -0.1290
   12CHL1  H18B  843   3.471   6.614   6.471 -0.3365 -1.6807 -0.7727
   12CHL1  H18C  844   3.442   6.592   6.305 -0.8989  1.3751 -1.7705
   12CHL1   C12  845   3.204   6.777   6.478  0.6052  0.1266 -0.0341
   12CHL1  H12A  846   3.234   6.871   6.426  1.8278  0.2772  0.9022
   12CHL1  H12B  847   3.093   6.774   6.485  0.6273  0.4068  0.4841
   12CHL1   C11  848   3.257   6.803   6.617 -0.6394  0.5591  0.6661
   12CHL1  H11A  849   3.366   6.822   6.614 -0.2887 -1.2829  0.7073
   12CHL1  H11B  850   3.193   6.881   6.664  0.3366  1.3434  0.7125
   12CHL1    C9  851   3.240   6.678   6.703  0.1469 -0.1473  0.1861
   12CHL1    H9  852   3.131   6.661   6.718  0.4951 -2.6284  0.3126
   12CHL1   C10  853   3.287   6.700   6.847 -0.1068 -0.3653 -0.6667
   12CHL1   C19  854   3.441   6.738   6.849  0.5180 -0.3822 -0.1290
   12CHL1  H19A  855   3.483   6.753   6.951 -0.4500  1.2031  0.0657
   12CHL1  H19B  856   3.491   6.653   6.799 -3.2776 -3.4369  0.8292
   12CHL1  H19C  857   3.466   6.832   6.794 -1.1497 -0.4309 -1.0315
   12CHL1    C1  858   3.202   6.819   6.912  0.2978  0.3363  0.2557
   12CHL1   H1A  859   3.245   6.908   6.861  0.8256 -0.5349 -0.8405
   12CHL1   H1B  860   3.093   6.809   6.893  0.4965 -1.8326  0.1173
   12CHL1    C2  861   3.212   6.827   7.067 -0.2210 -0.0749  0.3633
   12CHL1   H2A  862   3.150   6.916   7.096  0.5993  0.8031 -0.5098
   12CHL1   H2B  863   3.312   6.852   7.108 -0.9297  0.0736  2.0843
   12CHL1   C20  864   3.225   6.649   6.146 -0.7060  0.4511 -0.7931
   12CHL1   H20  865   3.329   6.620   6.121 -0.3677  1.2194 -0.3190
   12CHL1   C21  866   3.205   6.801   6.142 -0.0351 -0.3827  0.1792
   12CHL1  H21A  867   3.097   6.822   6.150  0.2787  0.5396  2.9270
   12CHL1  H21B  868   3.246   6.830   6.043  2.4765 -1.5666  0.7800
   12CHL1  H21C  869   3.265   6.853   6.220 -0.8963 -1.6756  1.7705
   12CHL1   C22  870   3.149   6.586   6.028  0.5213  0.4362 -0.0070
   12CHL1  H22A  871   3.148   6.475   6.026 -3.1103  0.2399  2.2813
   12CHL1  H22B  872   3.038   6.598   6.030  0.4464 -0.2497  0.0050
   12CHL1   C23  873   3.188   6.644   5.880 -0.1311 -0.8241 -0.3698
   12CHL1  H23A  874   3.174   6.754   5.874  0.2285 -0.8320 -1.4937
   12CHL1  H23B  875   3.299   6.640   5.881 -0.1346 -4.4055  0.7278
   12CHL1   C24  876   3.111   6.581   5.759 -0.1382  0.2479 -0.5249
   12CHL1  H24A  877   3.114   6.470   5.761  1.8691  0.2802  0.7937
   12CHL1  H24B  878   3.001   6.591   5.771 -0.0527  0.5937 -0.0343
   12CHL1   C25  879   3.164   6.624   5.618  0.1117  0.1955 -0.2562
   12CHL1   H25  880   3.268   6.589   5.607 -0.0620 -0.5678  0.4371
   12CHL1   C26  881   3.079   6.550   5.506  0.0635  0.5579  1.3414
   12CHL1  H26A  882   2.970   6.571   5.520  0.3630  2.5975  0.9311
   12CHL1  H26B  883   3.097   6.578   5.400  1.4798 -0.6065  1.2453
   12CHL1  H26C  884   3.097   6.441   5.522  2.5713  0.2945 -2.1162
   12CHL1   C27  885   3.155   6.776   5.584 -0.3162  0.2831  0.0516
   12CHL1  H27A  886   3.221   6.836   5.651 -0.5056  0.8136 -0.2347
   12CHL1  H27B  887   3.192   6.794   5.481  1.0268 -0.9150  0.2840
   12CHL1  H27C  888   3.049   6.807   5.593 -0.7626 -0.8009 -1.1356
   13CHL1    C3  889   5.113   1.434   6.780  0.3927  0.3833 -0.0823
   13CHL1    H3  890   5.202   1.408   6.719  0.5635 -1.0065  0.7182
   13CHL1    O3  891   5.124   1.364   6.905 -0.0216 -0.1111 -0.7345
   13CHL1   H3'  892   5.157   1.418   6.977  2.6404 -0.6099 -1.4725
   13CHL1    C4  893   5.105   1.579   6.805 -0.0208  0.0165 -0.8223
   13CHL1   H4A  894   5.018   1.604   6.871  1.1848  2.7947 -0.1017
   13CHL1   H4B  895   5.196   1.603   6.864 -0.5135 -0.4795  0.1581
   13CHL1    C5  896   5.100   1.641   6.663  0.0760  0.1647  0.1031
   13CHL1    C6  897   5.196   1.725   6.623  0.0383 -0.0389  0.8424
   13CHL1    H6  898   5.268   1.756   6.700 -0.0648  1.4779  0.3579
   13CHL1    C7  899   5.205   1.790   6.492 -0.0118  0.0509  0.6507
   13CHL1   H7A  900   5.215   1.898   6.513  0.2534 -0.0593  1.1067
   13CHL1   H7B  901   5.288   1.751   6.428  0.3414  2.4197 -0.4357
   13CHL1    C8  902   5.077   1.774   6.407  0.3827  1.1453 -0.2237
   13CHL1    H8  903   5.008   1.844   6.459  0.5392  0.4532  0.9512
   13CHL1   C14  904   5.105   1.825   6.266  0.5830  0.0907 -0.5402
   13CHL1   H14  905   5.179   1.760   6.216  0.9667 -0.8197  1.1399
   13CHL1   C15  906   5.165   1.967   6.256  0.6091  0.1015  0.6108
   13CHL1  H15A  907   5.098   2.039   6.308 -1.1771 -0.5912 -0.6263
   13CHL1  H15B  908   5.271   1.978   6.289  0.3953 -0.2242  1.4214
   13CHL1   C16  909   5.133   1.994   6.106 -0.1018 -0.2689  0.2481
   13CHL1  H16A  910   5.078   2.090   6.093 -0.5307 -0.5228  0.1730
   13CHL1  H16B  911   5.230   2.002   6.051 -1.1946 -1.9908 -2.1216
   13CHL1   C17  912   5.052   1.868   6.049  0.3144  0.0453  0.0965
   13CHL1   H17  913   5.127   1.798   6.007 -0.6906 -0.5527 -0.7508
   13CHL1   C13  914   4.985   1.805   6.173 -0.2260 -0.7958  0.2353
   13CHL1   C18  915   4.869   1.898   6.226 -0.6279  0.2318  0.0170
   13CHL1  H18A  916   4.897   2.005   6.217  2.3274 -0.3693  1.1266
   13CHL1  H18B  917   4.785   1.881   6.154  1.0235  2.4137 -2.6111
   13CHL1  H18C  918   4.852   1.879   6.334  0.8241  0.4428  0.2953
   13CHL1   C12  919   4.941   1.660   6.166 -0.1383 -0.4294  0.1798
   13CHL1  H12A  920   4.850   1.652   6.102 -0.3562  2.8398 -0.0941
   13CHL1  H12B  921   5.014   1.595   6.114 -0.1335 -0.1911 -0.1170
   13CHL1   C11  922   4.908   1.608   6.303  0.7528 -0.1045  0.4038
   13CHL1  H11A  923   4.821   1.669   6.336  0.6420  1.2867 -2.2061
   13CHL1  H11B  924   4.884   1.500   6.292  1.0921 -0.2834  1.2893
   13CHL1    C9  925   5.020   1.629   6.411 -0.2927 -0.9713  0.5671
   13CHL1    H9  926   5.096   1.556   6.375 -1.2913 -1.6456 -0.2329
   13CHL1   C10  927   4.992   1.591   6.560  0.3205  0.2878 -0.1481
   13CHL1   C19  928   4.860   1.666   6.600  0.4216  0.3132 -0.2701
   13CHL1  H19A  929   4.855   1.667   6.711  1.4246  0.8878 -0.2178
   13CHL1  H19B  930   4.875   1.775   6.585  2.4816 -0.0054 -0.8025
   13CHL1  H19C  931   4.767   1.624   6.556 -0.1667  2.3566 -1.1056
   13CHL1    C1  932   4.971   1.438   6.569 -0.8572  0.0493  0.3263
   13CHL1   H1A  933   4.872   1.414   6.525 -0.1536 -0.2160 -1.1692
   13CHL1   H1B  934   5.044   1.389   6.501 -1.3310 -0.1650 -0.0341
   13CHL1    C2  935   4.986   1.382   6.710  0.0721  0.1820 -0.6909
   13CHL1   H2A  936   4.995   1.271   6.709 -2.0848 -0.0822  1.4442
   13CHL1   H2B  937   4.902   1.412   6.775 -0.6685 -1.8751 -0.6210
   13CHL1   C20  938   4.971   1.918   5.927  0.6750 -0.2098  1.0873
   13CHL1   H20  939   4.909   2.002   5.965  0.8273  0.5164 -0.2310
   13CHL1   C21  940   4.879   1.812   5.868 -0.0248  0.4363 -0.2724
   13CHL1  H21A  941   4.798   1.858   5.807 -1.5247  0.6608  1.7788
   13CHL1  H21B  942   4.813   1.769   5.947 -0.2189 -1.0758 -1.2155
   13CHL1  H21C  943   4.917   1.729   5.804 -0.1049  2.0475 -2.5149
   13CHL1   C22  944   5.062   1.992   5.816  0.2963  0.7746 -0.5193
   13CHL1  H22A  945   5.134   2.061   5.865 -0.3170  1.0334  0.0408
   13CHL1  H22B  946   5.114   1.906   5.768 -0.4537 -1.5910  2.5174
   13CHL1   C23  947   4.995   2.071   5.706  0.2253  0.1281  0.1307
   13CHL1  H23A  948   4.905   2.014   5.674  0.3412 -0.4824  0.8731
   13CHL1  H23B  949   4.964   2.172   5.742 -0.3866  0.7258 -1.8844
   13CHL1   C24  950   5.099   2.106   5.593  0.1439  0.4936 -0.2547
   13CHL1  H24A  951   5.186   2.140   5.653 -0.4635 -1.6000  1.9398
   13CHL1  H24B  952   5.136   2.008   5.557 -1.2055 -0.2679  0.3781
   13CHL1   C25  953   5.035   2.176   5.476 -0.3193  0.0628 -0.0647
   13CHL1   H25  954   4.991   2.270   5.515  0.6963  0.3204  0.5061
   13CHL1   C26  955   5.138   2.231   5.377 -0.6819  0.2404  0.2687
   13CHL1  H26A  956   5.177   2.146   5.317  1.6427 -0.3812  2.4734
   13CHL1  H26B  957   5.093   2.303   5.305  1.6063 -0.4124 -1.9449
   13CHL1  H26C  958   5.223   2.291   5.416  0.4983 -0.9150 -0.4668
   13CHL1   C27  959   4.931   2.103   5.395  0.3618  0.2924  0.1755
   13CHL1  H27A  960   4.854   2.054   5.458  1.5559 -1.0103  0.6659
   13CHL1  H27B  961   4.881   2.186   5.340  1.7662  1.4568  0.5922
   13CHL1  H27C  962   4.977   2.022   5.335  4.6321  1.5861  1.3932
   14CHL1    C3  963   3.350   5.190   7.014 -0.8255  0.5684  0.0388
   14CHL1    H3  964   3.242   5.181   7.038 -1.0743 -0.5798 -1.3666
   14CHL1    O3  965   3.436   5.197   7.126 -0.3642  0.0085 -0.0321
   14CHL1   H3'  966   3.525   5.169   7.102  1.3103  3.2322  1.7323
   14CHL1    C4  967   3.393   5.060   6.941 -0.0070 -0.1758 -0.2687
   14CHL1   H4A  968   3.503   5.055   6.922  0.4566  0.0428  2.0405
   14CHL1   H4B  969   3.362   4.978   7.009  0.9536  1.8193  2.8107
   14CHL1    C5  970   3.318   5.047   6.809  0.4187 -0.2953 -0.2498
   14CHL1    C6  971   3.252   4.940   6.771 -0.3787 -0.3521  0.3185
   14CHL1    H6  972   3.255   4.862   6.848 -1.7856 -0.2672  0.4803
   14CHL1    C7  973   3.182   4.925   6.640 -0.6038 -0.1920 -0.1603
   14CHL1   H7A  974   3.198   4.822   6.601 -1.7469 -0.0261 -1.1379
   14CHL1   H7B  975   3.074   4.937   6.664 -1.1233  1.2810 -2.8562
   14CHL1    C8  976   3.223   5.025   6.532 -0.3705 -0.5264  0.3163
   14CHL1    H8  977   3.324   4.988   6.501  1.2140  1.2870  2.8692
   14CHL1   C14  978   3.134   5.028   6.416  0.9795  0.6898 -0.4304
   14CHL1   H14  979   3.041   5.075   6.454  1.1714  0.4931  0.2856
   14CHL1   C15  980   3.092   4.897   6.351  0.6335  0.6806  0.5371
   14CHL1  H15A  981   3.171   4.818   6.350  0.4000  0.3578  2.5710
   14CHL1  H15B  982   3.006   4.859   6.412  0.3603  0.5241  0.0562
   14CHL1   C16  983   3.029   4.934   6.218  0.4533 -0.0850 -0.2262
   14CHL1  H16A  984   3.075   4.872   6.138  3.2113  1.2677  0.1937
   14CHL1  H16B  985   2.920   4.909   6.218  0.8255 -1.9468  1.1742
   14CHL1   C17  986   3.060   5.087   6.194 -0.1479  0.1964  0.4475
   14CHL1   H17  987   2.966   5.142   6.219 -0.1257  0.9150 -0.9769
   14CHL1   C13  988   3.168   5.117   6.300 -0.0002 -0.4353  0.0721
   14CHL1   C18  989   3.302   5.088   6.242 -1.3701 -0.2054 -1.0260
   14CHL1  H18A  990   3.375   5.096   6.325 -0.0577  0.2630 -2.1946
   14CHL1  H18B  991   3.303   4.988   6.192 -1.5597 -0.9763  0.4548
   14CHL1  H18C  992   3.330   5.171   6.174  0.1387 -2.7730 -3.7594
   14CHL1   C12  993   3.160   5.256   6.358  0.1144  0.2054 -0.0714
   14CHL1  H12A  994   3.178   5.336   6.284  0.2237  0.4530  0.2220
   14CHL1  H12B  995   3.055   5.277   6.389  0.0752 -0.2632  0.1198
   14CHL1   C11  996   3.253   5.277   6.485  0.2471 -0.2665  0.2838
   14CHL1  H11A  997   3.359   5.278   6.454  0.1504 -1.2201 -0.1233
   14CHL1  H11B  998   3.252   5.380   6.526  0.6717 -0.4449  0.7530
   14CHL1    C9  999   3.238   5.168   6.593  0.0695  1.1864  0.1264
   14CHL1    H9 1000   3.136   5.184   6.634 -0.6767  0.8490 -1.5152
   14CHL1   C10 1001   3.336   5.171   6.715 -0.1242 -0.0792  0.9368
   14CHL1   C19 1002   3.484   5.176   6.655 -0.7397 -0.1849 -0.1601
   14CHL1  H19A 1003   3.499   5.093   6.583 -0.2210 -0.1692 -0.0748
   14CHL1  H19B 1004   3.509   5.275   6.612 -2.1919  0.6457  0.7989
   14CHL1  H19C 1005   3.560   5.157   6.734  0.4429 -0.2637 -1.2897
   14CHL1    C1 1006   3.302   5.304   6.793 -0.0769  0.5194 -0.9752
   14CHL1   H1A 1007   3.330   5.398   6.741  1.2006  2.0936  2.3028
   14CHL1   H1B 1008   3.193   5.317   6.810 -0.2895 -0.5923 -1.4089
   14CHL1    C2 1009   3.369   5.311   6.926 -0.8278 -0.5708 -0.0575
   14CHL1   H2A 1010   3.345   5.399   6.989 -1.5767 -2.9469  3.2898
   14CHL1   H2B 1011   3.477   5.327   6.908  0.0774 -1.0861  3.8606
   14CHL1   C20 1012   3.084   5.124   6.044 -0.2777  0.0071 -1.5249
   14CHL1   H20 1013   3.170   5.067   6.002 -0.3191  0.2214 -1.9080
   14CHL1   C21 1014   3.105   5.274   6.022 -1.0560 -0.9641 -0.9013
   14CHL1  H21A 1015   3.012   5.330   6.043 -0.8089 -0.3708 -1.3607
   14CHL1  H21B 1016   3.135   5.300   5.919  1.7198  1.3873  0.3509
   14CHL1  H21C 1017   3.195   5.310   6.078 -0.7983 -1.1579 -1.1869
   14CHL1   C22 1018   2.957   5.083   5.963  0.0251  0.3281  0.0997
   14CHL1  H22A 1019   2.912   4.983   5.977  0.3371  0.0988 -0.5260
   14CHL1  H22B 1020   2.875   5.152   5.993  1.4967  2.3178 -0.2217
   14CHL1   C23 1021   2.974   5.098   5.808 -0.1607  0.5599 -0.5352
   14CHL1  H23A 1022   2.994   5.202   5.775 -0.9039  0.5901 -0.9067
   14CHL1  H23B 1023   3.068   5.046   5.780 -0.2918 -1.0158  1.6876
   14CHL1   C24 1024   2.871   5.025   5.716  0.2924 -0.9079 -0.0707
   14CHL1  H24A 1025   2.845   4.926   5.758  1.4662 -2.4306 -2.6479
   14CHL1  H24B 1026   2.780   5.089   5.719  2.4043  2.3123  0.7294
   14CHL1   C25 1027   2.908   5.011   5.565 -0.8717  0.5202  0.1357
   14CHL1   H25 1028   2.969   4.918   5.565 -0.8146  0.5321  1.4340
   14CHL1   C26 1029   2.780   4.982   5.488 -0.4743 -0.0562 -0.5371
   14CHL1  H26A 1030   2.715   5.071   5.487  0.3163  0.5330 -0.2091
   14CHL1  H26B 1031   2.810   4.938   5.391  1.6019 -0.6680  0.3207
   14CHL1  H26C 1032   2.727   4.900   5.542 -0.5128 -0.3410 -1.0040
   14CHL1   C27 1033   2.990   5.128   5.498  0.1859  0.4919 -0.0094
   14CHL1  H27A 1034   2.912   5.204   5.478 -1.5290 -0.6700  1.7802
   14CHL1  H27B 1035   3.071   5.167   5.563  0.6463 -2.9939  1.7961
   14CHL1  H27C 1036   3.037   5.096   5.403  0.9912  0.6573  0.3273
   15CHL1    C3 1037   4.268   4.476   6.884 -0.3619 -0.4424 -0.1459
   15CHL1    H3 1038   4.378   4.474   6.865 -0.6648 -1.4532 -2.0873
   15CHL1    O3 1039   4.248   4.472   7.021  0.1762  0.3072 -0.2149
   15CHL1   H3' 1040   4.261   4.556   7.065  1.3720  0.4241 -0.7513
   15CHL1    C4 1041   4.219   4.615   6.836  0.6345 -0.2976  0.7788
   15CHL1   H4A 1042   4.111   4.620   6.861  0.5073 -0.1093  0.1959
   15CHL1   H4B 1043   4.283   4.693   6.882 -0.7069  0.9514  0.5735
   15CHL1    C5 1044   4.233   4.624   6.687  0.0409 -0.7830  0.4496
   15CHL1    C6 1045   4.310   4.722   6.626 -0.3217 -0.0087 -0.3094
   15CHL1    H6 1046   4.375   4.780   6.692 -2.4528 -0.1889  2.1012
   15CHL1    C7 1047   4.316   4.740   6.480 -0.3215 -0.2535 -0.1984
   15CHL1   H7A 1048   4.313   4.848   6.453  1.7009  0.2042  1.2014
   15CHL1   H7B 1049   4.418   4.702   6.459 -0.0606  0.3326 -0.0258
   15CHL1    C8 1050   4.207   4.664   6.400  0.0561 -0.2093  0.0218
   15CHL1    H8 1051   4.109   4.714   6.413  0.1047 -0.6466  2.7145
   15CHL1   C14 1052   4.247   4.676   6.255  0.1561  0.1093 -0.0815
   15CHL1   H14 1053   4.348   4.630   6.247 -0.1065 -0.5498  0.3590
   15CHL1   C15 1054   4.266   4.808   6.186 -0.1136 -0.5138 -0.3865
   15CHL1  H15A 1055   4.182   4.870   6.223  0.5047  0.0258  0.1421
   15CHL1  H15B 1056   4.362   4.859   6.210  0.0710 -0.3121 -1.5050
   15CHL1   C16 1057   4.263   4.772   6.033  0.6505  0.0971  0.2904
   15CHL1  H16A 1058   4.194   4.844   5.985  0.8370  0.4549  0.5491
   15CHL1  H16B 1059   4.363   4.786   5.986  0.9119 -0.5874  0.6289
   15CHL1   C17 1060   4.227   4.623   6.027 -0.1607 -0.6185  0.0501
   15CHL1   H17 1061   4.330   4.581   6.034 -0.3168 -1.0556 -0.2432
   15CHL1   C13 1062   4.157   4.593   6.162  0.0098  0.5968  0.0212
   15CHL1   C18 1063   4.002   4.644   6.146 -0.2732  0.2283 -0.1319
   15CHL1  H18A 1064   4.003   4.732   6.079  0.8048 -0.5386 -1.1675
   15CHL1  H18B 1065   3.941   4.568   6.092  1.1579 -0.9353 -0.1678
   15CHL1  H18C 1066   3.959   4.671   6.245 -1.1881  0.4789 -0.5868
   15CHL1   C12 1067   4.161   4.445   6.211  0.0099 -0.1450 -0.2154
   15CHL1  H12A 1068   4.098   4.375   6.151  0.9361 -0.2299 -1.1144
   15CHL1  H12B 1069   4.257   4.393   6.192 -1.1555 -1.6522 -2.5331
   15CHL1   C11 1070   4.117   4.426   6.358  0.2942  0.4146 -0.1173
   15CHL1  H11A 1071   4.013   4.460   6.377  0.3576  1.2900 -1.1816
   15CHL1  H11B 1072   4.150   4.322   6.378 -0.5878  0.2596  0.5589
   15CHL1    C9 1073   4.194   4.521   6.451  0.2734 -0.0776 -0.4510
   15CHL1    H9 1074   4.295   4.477   6.464  0.2147  0.2138  1.1638
   15CHL1   C10 1075   4.154   4.521   6.605 -0.5338 -0.6633  0.1405
   15CHL1   C19 1076   3.999   4.553   6.623 -0.2185  0.0697 -0.9255
   15CHL1  H19A 1077   3.971   4.548   6.730  1.4191 -1.3596 -0.5231
   15CHL1  H19B 1078   3.977   4.656   6.587 -0.4684  0.3710  0.0495
   15CHL1  H19C 1079   3.931   4.493   6.560 -1.1237  0.4159 -0.3005
   15CHL1    C1 1080   4.193   4.378   6.666  0.4299 -0.3659 -0.4382
   15CHL1   H1A 1081   4.132   4.299   6.616  1.1892  0.2604 -2.4674
   15CHL1   H1B 1082   4.297   4.365   6.630  0.6579  0.9155 -0.2639
   15CHL1    C2 1083   4.192   4.358   6.817 -0.1947  0.1688  0.1240
   15CHL1   H2A 1084   4.238   4.260   6.841  0.1813  0.3843  0.2901
   15CHL1   H2B 1085   4.086   4.348   6.850 -0.7562 -0.4277 -1.7361
   15CHL1   C20 1086   4.159   4.594   5.887 -0.4966 -0.0847  0.5684
   15CHL1   H20 1087   4.066   4.654   5.877  0.1161  0.6609 -0.9968
   15CHL1   C21 1088   4.127   4.436   5.872 -0.7679 -0.2170  0.3248
   15CHL1  H21A 1089   4.222   4.379   5.886 -0.5157  0.1054 -0.0655
   15CHL1  H21B 1090   4.103   4.424   5.764  2.0403 -1.2780 -0.2637
   15CHL1  H21C 1091   4.049   4.409   5.947  0.1245 -0.3954  1.2082
   15CHL1   C22 1092   4.241   4.631   5.755  0.4775 -0.2722 -0.1908
   15CHL1  H22A 1093   4.175   4.595   5.673 -1.6235  0.0018  1.3268
   15CHL1  H22B 1094   4.260   4.740   5.756 -1.4929  0.1033  1.4212
   15CHL1   C23 1095   4.379   4.579   5.740  0.5785  0.0070  0.1931
   15CHL1  H23A 1096   4.444   4.622   5.819  0.1391  0.1507  0.4762
   15CHL1  H23B 1097   4.367   4.470   5.758 -1.7360  0.2537  0.4791
   15CHL1   C24 1098   4.429   4.596   5.595 -0.0196  0.6310  0.1597
   15CHL1  H24A 1099   4.504   4.517   5.577  0.1920  0.6165  1.0491
   15CHL1  H24B 1100   4.349   4.575   5.520  0.0682 -1.3684  0.5538
   15CHL1   C25 1101   4.504   4.731   5.572  0.0157 -0.1664  0.8630
   15CHL1   H25 1102   4.459   4.809   5.637  1.6547  1.5092  0.0510
   15CHL1   C26 1103   4.648   4.732   5.628 -0.3098 -0.1178  0.3702
   15CHL1  H26A 1104   4.720   4.684   5.559  1.3845  1.7655  0.7670
   15CHL1  H26B 1105   4.690   4.833   5.646  0.6778 -0.5206  0.3806
   15CHL1  H26C 1106   4.639   4.674   5.723 -0.7547 -1.9147 -0.7081
   15CHL1   C27 1107   4.501   4.775   5.419 -0.3776  0.8967 -0.3164
   15CHL1  H27A 1108   4.399   4.773   5.374 -0.6220  1.4526  0.1855
   15CHL1  H27B 1109   4.557   4.870   5.409  0.0046  0.6432 -0.6169
   15CHL1  H27C 1110   4.557   4.702   5.358 -0.2034  0.2680  0.5800
   16CHL1    C3 1111   1.723   1.511   7.325 -0.1626 -0.4347  0.1043
   16CHL1    H3 1112   1.623   1.502   7.278  0.5003 -0.1965 -1.4284
   16CHL1    O3 1113   1.715   1.467   7.451 -0.1465 -0.5201  0.0051
   16CHL1   H3' 1114   1.658   1.521   7.506  0.8956  0.7666 -0.1226
   16CHL1    C4 1115   1.826   1.423   7.248 -0.3962  0.2159  0.2681
   16CHL1   H4A 1116   1.911   1.401   7.315 -0.3676  0.5623  0.3472
   16CHL1   H4B 1117   1.781   1.325   7.223  0.2810 -0.6261  2.1732
   16CHL1    C5 1118   1.870   1.481   7.112 -0.3733  0.4800 -0.1204
   16CHL1    C6 1119   1.886   1.406   7.005 -0.1436  0.0454  0.0931
   16CHL1    H6 1120   1.850   1.303   6.997  2.5775 -0.8446 -3.0771
   16CHL1    C7 1121   1.934   1.465   6.871 -0.1911 -0.5284 -0.3204
   16CHL1   H7A 1122   2.004   1.395   6.821  3.8436  2.9030  0.0107
   16CHL1   H7B 1123   1.846   1.473   6.803  1.6053  2.4558 -2.5259
   16CHL1    C8 1124   1.998   1.603   6.879  0.0198  0.2693  1.4290
   16CHL1    H8 1125   2.103   1.589   6.912  0.5134  1.0218  0.2632
   16CHL1   C14 1126   1.996   1.672   6.741 -0.3093  0.0566 -1.1450
   16CHL1   H14 1127   1.894   1.698   6.703 -1.3309 -2.2150 -0.1543
   16CHL1   C15 1128   2.041   1.593   6.616  0.1945  0.7077  1.1443
   16CHL1  H15A 1129   2.126   1.526   6.642 -0.9154 -1.5296 -0.5721
   16CHL1  H15B 1130   1.960   1.529   6.574  1.8834 -0.2174 -0.9050
   16CHL1   C16 1131   2.087   1.695   6.514 -0.9520  0.7183  0.0551
   16CHL1  H16A 1132   2.196   1.689   6.493 -0.4806  2.0860  1.8496
   16CHL1  H16B 1133   2.028   1.690   6.420 -0.1166  0.3099 -0.4644
   16CHL1   C17 1134   2.064   1.835   6.582  0.1233 -0.2887 -0.3494
   16CHL1   H17 1135   1.961   1.867   6.555 -0.2040 -0.5611  0.5413
   16CHL1   C13 1136   2.074   1.799   6.736  0.3017 -0.4159  0.4033
   16CHL1   C18 1137   2.221   1.801   6.765 -0.2579  0.1102 -0.3996
   16CHL1  H18A 1138   2.245   1.750   6.861  2.0877  1.7780 -0.0170
   16CHL1  H18B 1139   2.273   1.748   6.682  1.1258  1.5001 -0.4662
   16CHL1  H18C 1140   2.266   1.902   6.771  2.4793 -1.0562  0.2926
   16CHL1   C12 1141   1.999   1.901   6.829 -0.2230  0.9252 -0.1559
   16CHL1  H12A 1142   2.058   1.995   6.842  0.0991  0.5880  0.9815
   16CHL1  H12B 1143   1.904   1.930   6.779 -0.8239 -1.1844 -0.3309
   16CHL1   C11 1144   1.970   1.843   6.966 -0.5475  0.6001 -0.1508
   16CHL1  H11A 1145   2.070   1.843   7.013  0.5836 -0.2819 -2.3886
   16CHL1  H11B 1146   1.904   1.906   7.030 -1.7891 -0.3934 -0.4056
   16CHL1    C9 1147   1.923   1.692   6.970  0.1302  0.1973 -0.3310
   16CHL1    H9 1148   1.820   1.687   6.929 -0.9181 -0.7699  2.2640
   16CHL1   C10 1149   1.902   1.634   7.113  0.7319  0.3808  0.4874
   16CHL1   C19 1150   2.038   1.643   7.183 -0.7453 -0.1750 -0.0878
   16CHL1  H19A 1151   2.067   1.747   7.208  1.7564 -1.1139  1.2701
   16CHL1  H19B 1152   2.046   1.590   7.280  2.7711  0.3937  0.0854
   16CHL1  H19C 1153   2.121   1.598   7.125 -0.1854  0.7974 -0.0635
   16CHL1    C1 1154   1.797   1.715   7.183 -0.1704  0.1537  0.0950
   16CHL1   H1A 1155   1.830   1.819   7.203 -1.0158  0.9024 -2.0991
   16CHL1   H1B 1156   1.704   1.705   7.123  0.2636 -1.8362 -0.3343
   16CHL1    C2 1157   1.771   1.657   7.328  0.0218 -0.4274 -0.2805
   16CHL1   H2A 1158   1.699   1.712   7.392 -1.1191 -1.9839 -0.1467
   16CHL1   H2B 1159   1.865   1.656   7.386 -0.1411 -2.5740  0.0495
   16CHL1   C20 1160   2.154   1.939   6.511  0.5671 -0.1483  0.0959
   16CHL1   H20 1161   2.260   1.915   6.535  0.5611 -1.5720 -1.1857
   16CHL1   C21 1162   2.127   2.080   6.565 -0.0965 -0.4991 -0.0217
   16CHL1  H21A 1163   2.020   2.106   6.550  0.4373  1.3756 -0.8388
   16CHL1  H21B 1164   2.186   2.161   6.518  0.1110  0.3289  1.5889
   16CHL1  H21C 1165   2.149   2.086   6.674  1.6825  0.9979 -0.4135
   16CHL1   C22 1166   2.148   1.943   6.350 -0.1271 -0.2837 -0.0567
   16CHL1  H22A 1167   2.220   2.019   6.311 -0.8632 -0.0783 -1.0676
   16CHL1  H22B 1168   2.176   1.848   6.298 -0.7745 -0.8951  0.6921
   16CHL1   C23 1169   2.007   1.984   6.297  0.5464  0.5184 -0.5550
   16CHL1  H23A 1170   1.935   1.899   6.302  0.7370  0.2358 -2.0880
   16CHL1  H23B 1171   1.967   2.066   6.360 -1.1736 -1.3246  0.8996
   16CHL1   C24 1172   1.999   2.021   6.146  0.1798 -0.1992 -0.5455
   16CHL1  H24A 1173   1.904   2.073   6.123  0.9948  0.5375 -2.4181
   16CHL1  H24B 1174   2.079   2.096   6.129  0.0465  0.2678  0.7851
   16CHL1   C25 1175   2.022   1.906   6.035 -0.6432 -0.8836 -0.6164
   16CHL1   H25 1176   2.117   1.851   6.055 -0.5005 -0.5931 -0.4839
   16CHL1   C26 1177   1.912   1.805   6.037 -0.5478  0.0562  0.3798
   16CHL1  H26A 1178   1.920   1.717   5.970  1.9028  0.1092  0.4985
   16CHL1  H26B 1179   1.906   1.764   6.140 -1.4863  0.7082  0.5978
   16CHL1  H26C 1180   1.815   1.857   6.021 -0.3535 -0.1938 -1.9824
   16CHL1   C27 1181   2.039   1.960   5.891  0.1619 -1.5462 -0.8591
   16CHL1  H27A 1182   1.958   2.029   5.860  0.3493 -0.1240  1.5196
   16CHL1  H27B 1183   2.143   1.994   5.872  0.0794  0.7381  1.9923
   16CHL1  H27C 1184   2.026   1.869   5.830  0.8350 -2.5886  0.4827
   17CHL1    C3 1185   0.905   5.351   6.947  0.1334 -0.3223  0.3162
   17CHL1    H3 1186   1.014   5.329   6.951  1.3630  4.5571  0.2777
   17CHL1    O3 1187   0.884   5.403   7.073  0.2312 -0.4489 -0.3541
   17CHL1   H3' 1188   0.928   5.488   7.082 -2.1378  0.8358 -0.0733
   17CHL1    C4 1189   0.885   5.470   6.850  0.1900 -0.5710  0.2162
   17CHL1   H4A 1190   0.795   5.535   6.865  1.7974  1.1432  3.3921
   17CHL1   H4B 1191   0.972   5.537   6.865  1.9594 -2.1974 -2.0671
   17CHL1    C5 1192   0.893   5.424   6.700  0.2703 -0.6325 -0.0362
   17CHL1    C6 1193   0.985   5.479   6.612  0.1705  0.2081 -0.6575
   17CHL1    H6 1194   1.049   5.553   6.663 -1.5351  1.4982 -0.2560
   17CHL1    C7 1195   1.007   5.433   6.470  0.3442  0.1216  0.3029
   17CHL1   H7A 1196   1.009   5.514   6.394 -0.9726 -0.9403 -0.8991
   17CHL1   H7B 1197   1.111   5.397   6.465  0.3198  0.1008 -0.0618
   17CHL1    C8 1198   0.901   5.333   6.426 -0.3603  0.3594  1.0843
   17CHL1    H8 1199   0.812   5.391   6.394 -0.1515  0.9613  1.6004
   17CHL1   C14 1200   0.932   5.259   6.296 -0.0885  0.6952 -0.4627
   17CHL1   H14 1201   1.020   5.191   6.295 -1.9832 -1.9057 -0.0484
   17CHL1   C15 1202   0.955   5.352   6.177 -0.2701  0.1625  0.3594
   17CHL1  H15A 1203   0.881   5.435   6.172 -1.2083 -0.6653  0.1536
   17CHL1  H15B 1204   1.057   5.396   6.178  0.9326 -2.0457 -3.1481
   17CHL1   C16 1205   0.946   5.259   6.057 -0.2453  0.1185  0.1964
   17CHL1  H16A 1206   0.879   5.317   5.989 -1.0484  1.0562  1.7233
   17CHL1  H16B 1207   1.046   5.235   6.016  0.3351  0.0702  1.5899
   17CHL1   C17 1208   0.873   5.129   6.106 -0.8847 -0.1981 -0.1281
   17CHL1   H17 1209   0.951   5.052   6.120 -0.7132 -0.0256 -0.1342
   17CHL1   C13 1210   0.820   5.165   6.250 -0.7996  0.8669 -0.7165
   17CHL1   C18 1211   0.686   5.240   6.241 -0.8488  0.0648  0.1390
   17CHL1  H18A 1212   0.667   5.289   6.339  0.9018 -1.2034  1.1716
   17CHL1  H18B 1213   0.692   5.322   6.165  0.5974  0.0178  0.1686
   17CHL1  H18C 1214   0.610   5.163   6.218  2.4998 -2.8027 -2.4181
   17CHL1   C12 1215   0.813   5.046   6.345  0.0512 -0.1133  0.2434
   17CHL1  H12A 1216   0.730   4.975   6.323  0.2410 -0.1923 -0.2381
   17CHL1  H12B 1217   0.915   5.001   6.338 -0.3488 -0.8682 -1.2036
   17CHL1   C11 1218   0.784   5.098   6.488  0.5976  0.0007  0.3408
   17CHL1  H11A 1219   0.675   5.114   6.504 -0.0295 -1.5652 -1.8795
   17CHL1  H11B 1220   0.801   5.015   6.561  0.5469  0.0234  0.3788
   17CHL1    C9 1221   0.862   5.226   6.536 -0.7093 -0.4348  0.1451
   17CHL1    H9 1222   0.963   5.186   6.557 -0.6557 -0.7460 -0.6595
   17CHL1   C10 1223   0.811   5.291   6.665 -0.1722 -0.4493  0.6227
   17CHL1   C19 1224   0.660   5.330   6.652 -0.1497 -0.0766  0.4538
   17CHL1  H19A 1225   0.620   5.365   6.749 -0.1135 -1.4317  0.9853
   17CHL1  H19B 1226   0.661   5.413   6.578  1.3549  0.4403  1.0188
   17CHL1  H19C 1227   0.592   5.247   6.623  1.9016 -1.4388 -0.7951
   17CHL1    C1 1228   0.825   5.184   6.780 -0.1150  0.0710 -0.2441
   17CHL1   H1A 1229   0.750   5.106   6.754 -0.9010  0.5808  0.4581
   17CHL1   H1B 1230   0.929   5.146   6.781  0.5077  1.6888  0.8204
   17CHL1    C2 1231   0.814   5.232   6.924  0.4662  0.1965  1.3247
   17CHL1   H2A 1232   0.844   5.146   6.988  1.4875  0.1105  0.7452
   17CHL1   H2B 1233   0.708   5.254   6.950  0.5322  1.6363  0.4591
   17CHL1   C20 1234   0.769   5.090   5.990 -0.4423 -0.0453  0.4982
   17CHL1   H20 1235   0.685   5.159   5.969 -0.6510 -0.1861  0.8769
   17CHL1   C21 1236   0.704   4.952   6.034 -0.4133 -0.6384  0.1695
   17CHL1  H21A 1237   0.658   4.899   5.947  1.5862  0.5966 -1.7457
   17CHL1  H21B 1238   0.628   4.957   6.115 -0.1856  1.8370  0.3201
   17CHL1  H21C 1239   0.783   4.886   6.075  0.8826  1.2100  0.7714
   17CHL1   C22 1240   0.843   5.070   5.858  0.2178  0.1222 -0.4694
   17CHL1  H22A 1241   0.877   5.168   5.819 -1.0279 -0.0075 -2.0253
   17CHL1  H22B 1242   0.923   4.997   5.884 -1.5185 -1.0873  1.8927
   17CHL1   C23 1243   0.765   5.008   5.735 -0.0549  0.9258  0.2073
   17CHL1  H23A 1244   0.708   4.918   5.764 -0.4053  0.9254 -0.4645
   17CHL1  H23B 1245   0.685   5.068   5.686 -1.6214 -2.4067 -1.6736
   17CHL1   C24 1246   0.862   4.966   5.620  0.3958  0.3113  0.0171
   17CHL1  H24A 1247   0.901   5.052   5.562  0.7786 -1.2565 -2.1808
   17CHL1  H24B 1248   0.951   4.919   5.668 -0.1635  1.8148  2.6951
   17CHL1   C25 1249   0.800   4.873   5.516 -1.0989  0.8113 -0.3356
   17CHL1   H25 1250   0.736   4.804   5.575 -0.9855  2.5820  1.9843
   17CHL1   C26 1251   0.705   4.945   5.425 -0.5022  0.1693 -0.0394
   17CHL1  H26A 1252   0.667   4.879   5.344  1.1191  2.0027 -2.4157
   17CHL1  H26B 1253   0.620   4.967   5.494 -1.2353 -0.2684 -0.7797
   17CHL1  H26C 1254   0.742   5.034   5.369 -0.7146 -0.8266 -1.8166
   17CHL1   C27 1255   0.895   4.780   5.447 -0.2270 -0.1168 -0.2906
   17CHL1  H27A 1256   0.943   4.709   5.518 -2.9688 -0.1933  1.6162
   17CHL1  H27B 1257   0.852   4.722   5.363  1.4785  0.0517 -1.3263
   17CHL1  H27C 1258   0.976   4.843   5.404  0.8291 -1.8037 -0.8857
   18CHL1    C3 1259   3.808   6.021   7.008  0.1114 -0.0048 -0.2881
   18CHL1    H3 1260   3.704   5.983   7.004 -0.8712  2.2878  1.4161
   18CHL1    O3 1261   3.852   5.993   7.140  0.1031 -0.1937 -0.0218
   18CHL1   H3' 1262   3.941   5.960   7.127  1.1858  3.0676 -2.1031
   18CHL1    C4 1263   3.883   5.951   6.900 -0.5513 -0.2225 -0.2444
   18CHL1   H4A 1264   3.991   5.974   6.911 -0.4539 -1.4116  1.8176
   18CHL1   H4B 1265   3.885   5.843   6.926  1.1392 -0.0432  0.5021
   18CHL1    C5 1266   3.841   5.982   6.756  0.2117  0.6847 -0.0061
   18CHL1    C6 1267   3.816   5.886   6.666 -0.2929  0.1836  0.1382
   18CHL1    H6 1268   3.826   5.779   6.690 -0.2745  0.1791  0.1097
   18CHL1    C7 1269   3.780   5.911   6.520 -0.3598 -0.2298 -0.3745
   18CHL1   H7A 1270   3.832   5.845   6.448 -0.1448  0.2155 -0.6318
   18CHL1   H7B 1271   3.672   5.892   6.501 -0.4935 -0.2676  0.3937
   18CHL1    C8 1272   3.805   6.061   6.481 -0.2641 -0.1500  0.3783
   18CHL1    H8 1273   3.914   6.065   6.460  0.3411 -2.9887  2.4116
   18CHL1   C14 1274   3.728   6.102   6.354 -0.2697  0.3771 -0.2028
   18CHL1   H14 1275   3.623   6.097   6.390 -1.1964  2.5678 -2.3274
   18CHL1   C15 1276   3.745   6.003   6.239  0.0379  0.0114 -0.6337
   18CHL1  H15A 1277   3.854   5.992   6.221 -0.1823 -0.8005 -1.5129
   18CHL1  H15B 1278   3.695   5.904   6.247  0.8799 -0.6939 -3.1668
   18CHL1   C16 1279   3.681   6.082   6.124 -0.2958 -0.4441  0.4836
   18CHL1  H16A 1280   3.739   6.066   6.030 -1.2601 -2.4171  0.1768
   18CHL1  H16B 1281   3.573   6.064   6.109 -0.6807  1.8637  0.0273
   18CHL1   C17 1282   3.684   6.234   6.167  0.2644  0.3925  0.5167
   18CHL1   H17 1283   3.581   6.271   6.182 -0.7720 -1.9973 -0.1354
   18CHL1   C13 1284   3.753   6.246   6.306 -0.0986  0.6451  0.5088
   18CHL1   C18 1285   3.903   6.266   6.285  0.4318 -0.7268  0.4317
   18CHL1  H18A 1286   3.960   6.247   6.379  3.0353  0.8717 -0.7173
   18CHL1  H18B 1287   3.949   6.201   6.208 -0.5748 -0.7170 -0.1966
   18CHL1  H18C 1288   3.925   6.366   6.241 -1.4316 -0.2341  0.5287
   18CHL1   C12 1289   3.695   6.335   6.416  0.2991 -0.0632  0.1098
   18CHL1  H12A 1290   3.700   6.441   6.381  2.1656 -0.3235 -0.5451
   18CHL1  H12B 1291   3.587   6.312   6.420  0.6374 -1.9008 -0.3789
   18CHL1   C11 1292   3.769   6.316   6.553  0.2110 -0.6380  0.6967
   18CHL1  H11A 1293   3.867   6.367   6.551  1.3829 -2.7950 -0.5149
   18CHL1  H11B 1294   3.701   6.368   6.624 -0.1408  0.5243 -0.4495
   18CHL1    C9 1295   3.762   6.165   6.592  0.0071  0.1411 -0.2189
   18CHL1    H9 1296   3.653   6.142   6.597 -0.7581  3.2149 -1.0184
   18CHL1   C10 1297   3.830   6.137   6.732 -0.4529  0.5416 -0.3611
   18CHL1   C19 1298   3.961   6.210   6.731 -0.1892  0.1404  0.4555
   18CHL1  H19A 1299   4.003   6.188   6.630 -0.9678  0.6328  0.0157
   18CHL1  H19B 1300   3.950   6.320   6.743  1.2743  0.5606 -1.5841
   18CHL1  H19C 1301   4.031   6.168   6.807 -1.2734 -0.6645  1.0463
   18CHL1    C1 1302   3.742   6.201   6.842 -0.0867 -0.2865 -0.5672
   18CHL1   H1A 1303   3.731   6.310   6.826 -1.2492 -0.1223  1.1149
   18CHL1   H1B 1304   3.643   6.156   6.820  0.4584 -1.4331 -0.7562
   18CHL1    C2 1305   3.790   6.168   6.990 -0.1686  0.1093  0.6595
   18CHL1   H2A 1306   3.706   6.203   7.054  0.0296  2.5276 -0.2816
   18CHL1   H2B 1307   3.877   6.234   7.011  0.8195 -1.5855  2.2751
   18CHL1   C20 1308   3.714   6.323   6.041 -0.2148  0.1207 -0.4469
   18CHL1   H20 1309   3.819   6.298   6.013 -0.6576 -1.7609 -0.5343
   18CHL1   C21 1310   3.712   6.470   6.073 -0.0712 -0.4022 -0.1533
   18CHL1  H21A 1311   3.614   6.501   6.116 -0.0483 -1.2475  0.5126
   18CHL1  H21B 1312   3.744   6.531   5.985 -0.4487  0.2176  0.1316
   18CHL1  H21C 1313   3.786   6.484   6.155  0.5550  0.3174 -0.8209
   18CHL1   C22 1314   3.618   6.295   5.923 -0.2506  0.0716  0.0963
   18CHL1  H22A 1315   3.642   6.376   5.851  3.0884  1.4910  2.5141
   18CHL1  H22B 1316   3.647   6.196   5.881 -0.7874  0.8648 -2.2999
   18CHL1   C23 1317   3.463   6.293   5.953  0.5836  0.1977 -0.4559
   18CHL1  H23A 1318   3.427   6.215   6.024 -1.2670  2.3222  1.0803
   18CHL1  H23B 1319   3.433   6.395   5.986  1.8701  0.3041  0.4868
   18CHL1   C24 1320   3.371   6.270   5.829  0.2013  0.6442 -0.6865
   18CHL1  H24A 1321   3.264   6.248   5.850  0.2748 -1.9019 -2.5121
   18CHL1  H24B 1322   3.382   6.359   5.763  0.4440  0.3236 -1.0801
   18CHL1   C25 1323   3.418   6.167   5.726 -0.2149 -0.6939  0.2314
   18CHL1   H25 1324   3.523   6.197   5.708  0.0793 -0.6496  1.8331
   18CHL1   C26 1325   3.430   6.025   5.797 -0.3375  0.7233  0.1721
   18CHL1  H26A 1326   3.339   6.005   5.858 -0.1118 -0.5537  0.1307
   18CHL1  H26B 1327   3.442   5.945   5.721 -2.1721  0.1130  0.4734
   18CHL1  H26C 1328   3.517   6.017   5.865 -0.0259 -2.3649 -0.4466
   18CHL1   C27 1329   3.333   6.178   5.604  0.0083  0.4960  0.3886
   18CHL1  H27A 1330   3.355   6.276   5.556  0.5464  0.9683  1.5705
   18CHL1  H27B 1331   3.361   6.094   5.536 -1.4233  0.2568  0.0727
   18CHL1  H27C 1332   3.224   6.162   5.618  0.0498 -3.4877 -2.1718
   19CHL1    C3 1333   2.666   6.672   6.992 -0.3816  0.5357  0.1938
   19CHL1    H3 1334   2.579   6.742   6.989 -0.2196  0.7180 -2.1545
   19CHL1    O3 1335   2.708   6.637   7.120 -0.1285 -0.0162  0.5619
   19CHL1   H3' 1336   2.768   6.562   7.116 -0.2345 -0.1343  1.0749
   19CHL1    C4 1337   2.627   6.538   6.925  0.1951 -0.4141  0.2773
   19CHL1   H4A 1338   2.698   6.458   6.955 -0.0444 -0.1697  1.5532
   19CHL1   H4B 1339   2.533   6.505   6.974 -1.3110  1.4799 -1.1557
   19CHL1    C5 1340   2.622   6.530   6.774 -0.1935 -0.0567 -0.2577
   19CHL1    C6 1341   2.517   6.478   6.703  0.0528  0.3422 -0.2868
   19CHL1    H6 1342   2.442   6.431   6.768  1.5229  0.1061  1.3327
   19CHL1    C7 1343   2.500   6.482   6.556  0.6233 -0.3135  0.1909
   19CHL1   H7A 1344   2.488   6.373   6.536 -0.2642 -0.6013  2.0906
   19CHL1   H7B 1345   2.406   6.540   6.540  1.9812  2.3840  1.4301
   19CHL1    C8 1346   2.619   6.538   6.481 -0.0343 -0.2668 -0.6610
   19CHL1    H8 1347   2.688   6.451   6.473 -0.3421 -0.9657  2.6468
   19CHL1   C14 1348   2.583   6.573   6.348 -0.4096  0.6284 -0.2262
   19CHL1   H14 1349   2.521   6.664   6.335 -3.5304 -1.2573  0.6005
   19CHL1   C15 1350   2.494   6.472   6.265  0.7693  1.0858  0.0715
   19CHL1  H15A 1351   2.539   6.371   6.273  0.6658  0.8759 -1.6555
   19CHL1  H15B 1352   2.384   6.472   6.281  0.7581 -0.3164  0.1094
   19CHL1   C16 1353   2.521   6.525   6.125 -0.0677  0.0033  0.0374
   19CHL1  H16A 1354   2.557   6.433   6.074  0.0487 -1.1104  1.9864
   19CHL1  H16B 1355   2.426   6.557   6.079  1.1008  0.5690 -2.0982
   19CHL1   C17 1356   2.632   6.627   6.124  0.2460 -0.1176 -0.6400
   19CHL1   H17 1357   2.584   6.727   6.131 -0.3877 -0.5134  1.1998
   19CHL1   C13 1358   2.706   6.599   6.259 -0.0691  0.2559  0.4300
   19CHL1   C18 1359   2.803   6.484   6.256 -0.6041  0.1750  0.2755
   19CHL1  H18A 1360   2.863   6.478   6.350 -0.1155  0.9265  0.0190
   19CHL1  H18B 1361   2.745   6.392   6.237 -2.5566  1.5876 -0.9074
   19CHL1  H18C 1362   2.880   6.488   6.176  0.6567  0.6538  1.4628
   19CHL1   C12 1363   2.765   6.723   6.319 -1.0420 -0.7692 -0.2598
   19CHL1  H12A 1364   2.851   6.759   6.260 -1.1447 -2.3034 -1.4073
   19CHL1  H12B 1365   2.690   6.804   6.332 -1.0204 -0.3221 -2.5156
   19CHL1   C11 1366   2.810   6.710   6.469  0.1012  0.4514  0.1383
   19CHL1  H11A 1367   2.895   6.639   6.465 -1.4231 -1.4957  1.0018
   19CHL1  H11B 1368   2.854   6.798   6.522  3.6588 -0.4000 -1.0844
   19CHL1    C9 1369   2.694   6.651   6.554 -0.5644 -0.6135 -0.4179
   19CHL1    H9 1370   2.616   6.726   6.574  0.0635 -0.6477  2.6242
   19CHL1   C10 1371   2.733   6.614   6.699  0.0189 -0.5148 -0.2341
   19CHL1   C19 1372   2.851   6.521   6.696 -0.0490 -0.0416 -0.0245
   19CHL1  H19A 1373   2.844   6.430   6.633 -0.1316 -0.3584  0.4388
   19CHL1  H19B 1374   2.939   6.586   6.675 -0.7853  0.9263 -0.2068
   19CHL1  H19C 1375   2.875   6.483   6.797 -1.6442  1.0217  0.7903
   19CHL1    C1 1376   2.767   6.748   6.778 -0.1742  0.0760  0.2456
   19CHL1   H1A 1377   2.859   6.795   6.738  0.3273  0.9247  2.2603
   19CHL1   H1B 1378   2.679   6.813   6.764 -0.8444 -1.2439 -2.1535
   19CHL1    C2 1379   2.792   6.727   6.930 -0.5249 -0.8907  0.6806
   19CHL1   H2A 1380   2.821   6.826   6.972  2.1276 -1.4450  0.3654
   19CHL1   H2B 1381   2.880   6.659   6.931  1.4233  1.4717  1.0628
   19CHL1   C20 1382   2.709   6.623   5.991 -0.2271  0.0217 -0.3896
   19CHL1   H20 1383   2.766   6.528   5.993 -0.0299  0.1130 -1.2849
   19CHL1   C21 1384   2.813   6.735   5.968  0.2830 -0.0088  0.0273
   19CHL1  H21A 1385   2.751   6.827   5.957 -0.3938 -0.4767 -0.1579
   19CHL1  H21B 1386   2.870   6.725   5.873 -2.4755 -0.2117 -1.7218
   19CHL1  H21C 1387   2.879   6.750   6.056  0.4928  0.5069 -0.2123
   19CHL1   C22 1388   2.620   6.619   5.867 -0.1999  0.2450  0.1213
   19CHL1  H22A 1389   2.548   6.535   5.873  0.0828 -0.1289 -1.3625
   19CHL1  H22B 1390   2.562   6.711   5.844 -1.6710 -0.4745  0.8091
   19CHL1   C23 1391   2.698   6.568   5.745  1.1912  0.2621  0.9544
   19CHL1  H23A 1392   2.756   6.641   5.684 -0.3440  0.3732 -0.4454
   19CHL1  H23B 1393   2.776   6.491   5.765  0.3160 -1.6337 -2.2458
   19CHL1   C24 1394   2.606   6.496   5.643 -0.5705  0.6527  0.1916
   19CHL1  H24A 1395   2.673   6.461   5.562 -0.1805  0.0272  0.7695
   19CHL1  H24B 1396   2.552   6.406   5.679  1.1837  0.0521  1.4598
   19CHL1   C25 1397   2.511   6.591   5.576  0.7832  0.1098  0.0768
   19CHL1   H25 1398   2.429   6.614   5.647  0.9731  0.2815  0.2426
   19CHL1   C26 1399   2.572   6.725   5.527 -0.9448  0.3673  0.7620
   19CHL1  H26A 1400   2.672   6.727   5.481 -1.4465  1.1841 -0.3287
   19CHL1  H26B 1401   2.501   6.757   5.448 -1.0737 -2.2088 -0.2571
   19CHL1  H26C 1402   2.575   6.799   5.610 -0.2718  2.5719 -1.1322
   19CHL1   C27 1403   2.443   6.510   5.455  0.1051  0.8354 -0.5825
   19CHL1  H27A 1404   2.398   6.411   5.479  0.7841  0.5941 -0.2617
   19CHL1  H27B 1405   2.366   6.572   5.406 -0.2843  0.7827 -0.0437
   19CHL1  H27C 1406   2.523   6.489   5.381  0.0568 -0.8203 -0.2162
   20CHL1    C3 1407   1.516   6.420   7.340  0.1709 -0.2097  0.1147
   20CHL1    H3 1408   1.435   6.354   7.378  0.4477  0.1765  1.4273
   20CHL1    O3 1409   1.581   6.474   7.458 -0.4111 -0.5745  0.3041
   20CHL1   H3' 1410   1.645   6.541   7.434 -0.0486 -1.5027 -1.4433
   20CHL1    C4 1411   1.625   6.344   7.260 -0.3335  0.6888 -0.0459
   20CHL1   H4A 1412   1.715   6.405   7.239 -1.5473  2.2977 -0.7485
   20CHL1   H4B 1413   1.655   6.265   7.333 -0.9632 -0.4782 -1.0092
   20CHL1    C5 1414   1.570   6.293   7.128 -0.3079  0.2914  0.1699
   20CHL1    C6 1415   1.574   6.165   7.086 -0.4151 -0.4819  0.7189
   20CHL1    H6 1416   1.610   6.092   7.160 -0.8415 -1.2095  0.2232
   20CHL1    C7 1417   1.538   6.110   6.943  0.8810 -0.1317 -0.1277
   20CHL1   H7A 1418   1.615   6.045   6.896  1.3016 -1.6447  2.4516
   20CHL1   H7B 1419   1.437   6.065   6.939 -0.5558  2.6677  1.2322
   20CHL1    C8 1420   1.528   6.237   6.847  0.5991  0.4357  0.4848
   20CHL1    H8 1421   1.633   6.271   6.836  0.3328  1.5077  1.0673
   20CHL1   C14 1422   1.457   6.195   6.713  0.3537 -0.0366  0.1650
   20CHL1   H14 1423   1.358   6.150   6.736 -1.3600  2.8153 -1.1146
   20CHL1   C15 1424   1.534   6.087   6.629 -0.9090  0.3302 -0.3257
   20CHL1  H15A 1425   1.638   6.117   6.654 -0.8518 -0.2086  0.0955
   20CHL1  H15B 1426   1.520   5.986   6.674  0.8221 -1.0088 -2.5381
   20CHL1   C16 1427   1.486   6.109   6.485  0.3539 -0.8751  0.3721
   20CHL1  H16A 1428   1.577   6.126   6.423  0.8965 -1.0395  1.1095
   20CHL1  H16B 1429   1.433   6.018   6.447  0.2905 -1.3510  1.5434
   20CHL1   C17 1430   1.386   6.228   6.488  1.1133 -0.4354  0.0513
   20CHL1   H17 1431   1.291   6.175   6.509  0.7783  0.9557  2.3051
   20CHL1   C13 1432   1.427   6.309   6.615 -0.5466  0.1470  0.3007
   20CHL1   C18 1433   1.554   6.398   6.585 -0.6486  0.3721  0.5051
   20CHL1  H18A 1434   1.608   6.423   6.679 -1.1888  0.3262  0.8340
   20CHL1  H18B 1435   1.627   6.340   6.524  0.2183 -0.2516  2.0867
   20CHL1  H18C 1436   1.527   6.490   6.528  0.7174 -0.8432 -2.2924
   20CHL1   C12 1437   1.327   6.399   6.692  0.0790  0.3772  0.3977
   20CHL1  H12A 1438   1.283   6.476   6.626 -1.1215  0.7131  1.5354
   20CHL1  H12B 1439   1.240   6.331   6.708 -1.1181  0.7696 -3.4407
   20CHL1   C11 1440   1.385   6.454   6.823  0.8531 -0.2583  0.5590
   20CHL1  H11A 1441   1.474   6.516   6.800  0.8568 -0.1011  0.9924
   20CHL1  H11B 1442   1.312   6.524   6.869 -1.1928 -1.9276 -0.0203
   20CHL1    C9 1443   1.445   6.345   6.916 -0.4255 -0.1939 -0.3054
   20CHL1    H9 1444   1.358   6.287   6.955  0.5655 -2.8021 -1.6841
   20CHL1   C10 1445   1.516   6.402   7.044  0.8188  0.1232 -0.3601
   20CHL1   C19 1446   1.628   6.501   7.002  0.8997 -0.2073  0.1446
   20CHL1  H19A 1447   1.705   6.462   6.932  1.2047 -0.0421  0.3804
   20CHL1  H19B 1448   1.578   6.591   6.959 -0.9351 -1.1202  0.2924
   20CHL1  H19C 1449   1.680   6.545   7.090 -0.3486  0.3151  0.6467
   20CHL1    C1 1450   1.405   6.484   7.130  1.5522  0.2755  0.2616
   20CHL1   H1A 1451   1.385   6.571   7.065 -0.3330 -0.1744  0.1964
   20CHL1   H1B 1452   1.308   6.431   7.137  1.2432  0.9808  2.0118
   20CHL1    C2 1453   1.459   6.535   7.268  0.4178  0.3744  0.1454
   20CHL1   H2A 1454   1.378   6.578   7.331  0.1637 -0.0077  0.0889
   20CHL1   H2B 1455   1.535   6.613   7.248 -2.3438  2.8148 -1.7463
   20CHL1   C20 1456   1.383   6.305   6.357  0.3267 -0.0540  0.1573
   20CHL1   H20 1457   1.472   6.370   6.348  1.9494 -2.1562  0.3222
   20CHL1   C21 1458   1.253   6.384   6.360 -0.8286  0.2532 -0.0395
   20CHL1  H21A 1459   1.167   6.344   6.418 -2.3352 -2.2021 -3.6388
   20CHL1  H21B 1460   1.231   6.412   6.255 -0.8066 -0.3384 -0.2025
   20CHL1  H21C 1461   1.278   6.474   6.420  3.7123 -0.8466  0.0948
   20CHL1   C22 1462   1.388   6.213   6.238 -0.1622 -0.1762 -0.5517
   20CHL1  H22A 1463   1.407   6.271   6.145  0.7043 -1.7805 -1.4122
   20CHL1  H22B 1464   1.466   6.134   6.237 -2.1636 -2.3133  1.0975
   20CHL1   C23 1465   1.259   6.140   6.210 -0.1434 -0.2825 -0.5467
   20CHL1  H23A 1466   1.219   6.110   6.309 -1.2816  0.6004 -0.7119
   20CHL1  H23B 1467   1.176   6.204   6.174 -0.4541 -1.1721 -1.4890
   20CHL1   C24 1468   1.267   6.019   6.117  0.1477 -0.2106  0.5030
   20CHL1  H24A 1469   1.374   5.992   6.125  0.0890 -0.9040 -0.7673
   20CHL1  H24B 1470   1.209   5.943   6.173 -1.0007 -0.3136 -0.7710
   20CHL1   C25 1471   1.225   6.033   5.965 -0.3248  0.7463 -0.3294
   20CHL1   H25 1472   1.271   6.125   5.922  1.3368  0.3251  0.4703
   20CHL1   C26 1473   1.295   5.929   5.873  0.0200 -0.2205 -0.2206
   20CHL1  H26A 1474   1.404   5.930   5.896  0.0722  1.0535 -0.4483
   20CHL1  H26B 1475   1.262   5.824   5.891  0.5408 -0.1816  1.0832
   20CHL1  H26C 1476   1.285   5.959   5.767  3.5302  0.3438 -0.5163
   20CHL1   C27 1477   1.077   6.028   5.954  0.4027 -0.8246 -0.2491
   20CHL1  H27A 1478   1.041   6.034   5.849  0.8024 -0.9416 -0.3921
   20CHL1  H27B 1479   1.039   5.934   5.999  0.4453 -0.3866  0.7304
   20CHL1  H27C 1480   1.036   6.114   6.011  1.2985 -1.7315  1.8748
   21CHL1    C3 1481   1.345   0.730   7.096 -0.1290 -0.1699  0.7399
   21CHL1    H3 1482   1.450   0.757   7.118 -0.0317  0.1022 -0.0007
   21CHL1    O3 1483   1.251   0.770   7.191 -0.4222 -0.6181 -0.3233
   21CHL1   H3' 1484   1.165   0.742   7.159 -1.0413 -0.3870  1.0680
   21CHL1    C4 1485   1.305   0.787   6.958  0.8846 -0.3451 -0.5261
   21CHL1   H4A 1486   1.201   0.754   6.938 -0.4405  0.0586  4.3706
   21CHL1   H4B 1487   1.309   0.898   6.960  0.7828 -0.3313 -1.1048
   21CHL1    C5 1488   1.398   0.731   6.850  0.3289 -0.8642  0.0621
   21CHL1    C6 1489   1.459   0.814   6.761  0.3112 -0.2862 -0.3531
   21CHL1    H6 1490   1.444   0.922   6.776 -3.9427 -0.6466 -0.7835
   21CHL1    C7 1491   1.531   0.768   6.644  0.0298  0.1224  0.5536
   21CHL1   H7A 1492   1.489   0.825   6.559  1.3152  0.8820  0.4019
   21CHL1   H7B 1493   1.638   0.798   6.645 -0.2338  1.1276  0.0755
   21CHL1    C8 1494   1.508   0.617   6.610  0.1325 -0.0009  0.3088
   21CHL1    H8 1495   1.408   0.601   6.563 -0.4278  1.5327  0.9126
   21CHL1   C14 1496   1.620   0.563   6.518 -0.5284 -0.0809 -0.1131
   21CHL1   H14 1497   1.710   0.581   6.581  0.5930  0.3501 -1.7612
   21CHL1   C15 1498   1.642   0.650   6.389  0.3196  0.0693 -0.3678
   21CHL1  H15A 1499   1.542   0.685   6.357  0.5870  2.4668  1.1103
   21CHL1  H15B 1500   1.711   0.732   6.418 -0.2140  1.7451 -3.4214
   21CHL1   C16 1501   1.713   0.548   6.301 -0.1185 -0.1958 -0.2835
   21CHL1  H16A 1502   1.649   0.533   6.212  2.4638  1.2826 -2.5419
   21CHL1  H16B 1503   1.803   0.591   6.253 -0.4015  0.7644  0.0354
   21CHL1   C17 1504   1.730   0.412   6.379  0.0242  0.0990  1.1309
   21CHL1   H17 1505   1.824   0.421   6.437  0.0296  0.8766  1.0078
   21CHL1   C13 1506   1.615   0.419   6.481 -0.6927  0.2709 -0.1170
   21CHL1   C18 1507   1.482   0.389   6.412  0.0268 -0.7048 -0.0343
   21CHL1  H18A 1508   1.476   0.289   6.363 -4.2210  0.2865 -2.0134
   21CHL1  H18B 1509   1.400   0.405   6.486  1.3000 -1.0310  1.5228
   21CHL1  H18C 1510   1.459   0.456   6.327  0.9637 -0.2029  0.0995
   21CHL1   C12 1511   1.636   0.349   6.620 -0.5247 -0.0473 -0.3772
   21CHL1  H12A 1512   1.630   0.239   6.607  2.3313 -0.1301 -1.7814
   21CHL1  H12B 1513   1.742   0.364   6.650  0.2768 -2.8943 -1.3981
   21CHL1   C11 1514   1.537   0.380   6.725  0.1306  0.0356  0.2095
   21CHL1  H11A 1515   1.438   0.336   6.699 -0.5595  0.5273  1.8273
   21CHL1  H11B 1516   1.569   0.347   6.827 -0.9146  0.0482  0.5574
   21CHL1    C9 1517   1.513   0.532   6.740  0.1394 -0.4094  0.2875
   21CHL1    H9 1518   1.604   0.561   6.797  0.2241 -0.0879 -0.0088
   21CHL1   C10 1519   1.405   0.580   6.839  0.2262  0.2491 -0.0337
   21CHL1   C19 1520   1.275   0.518   6.792 -0.4953 -0.6391 -0.6405
   21CHL1  H19A 1521   1.275   0.408   6.808  0.7366 -0.3969  1.3919
   21CHL1  H19B 1522   1.185   0.549   6.849  0.3209 -1.7202  1.3135
   21CHL1  H19C 1523   1.256   0.543   6.685  2.9986  1.5439 -0.9325
   21CHL1    C1 1524   1.442   0.525   6.989 -0.7446  0.3055  0.9012
   21CHL1   H1A 1525   1.433   0.414   6.995  0.5165  0.1964  1.0067
   21CHL1   H1B 1526   1.547   0.553   7.011 -0.6607  0.7650 -0.0388
   21CHL1    C2 1527   1.348   0.575   7.097 -0.2131 -0.1754  0.4009
   21CHL1   H2A 1528   1.381   0.538   7.196  0.9407 -1.8330 -0.5477
   21CHL1   H2B 1529   1.243   0.542   7.083 -0.8463  2.2833 -1.5188
   21CHL1   C20 1530   1.745   0.287   6.294  0.1766 -1.1588  0.0120
   21CHL1   H20 1531   1.644   0.249   6.267  0.4128 -0.5594 -1.8958
   21CHL1   C21 1532   1.831   0.183   6.364  0.3644 -0.3874 -0.2149
   21CHL1  H21A 1533   1.929   0.222   6.399 -0.0439 -0.3834  0.9588
   21CHL1  H21B 1534   1.862   0.109   6.287  2.9906  1.8161 -1.4548
   21CHL1  H21C 1535   1.769   0.150   6.450 -0.9933 -1.6420 -1.5946
   21CHL1   C22 1536   1.797   0.320   6.151 -0.0029  0.6444 -0.0536
   21CHL1  H22A 1537   1.737   0.399   6.101  0.5579  0.0696 -1.6769
   21CHL1  H22B 1538   1.901   0.353   6.168 -0.6026  2.1339  0.9362
   21CHL1   C23 1539   1.798   0.199   6.052 -0.5256  0.3784 -0.9785
   21CHL1  H23A 1540   1.866   0.235   5.973 -2.4909 -1.2861 -3.6355
   21CHL1  H23B 1541   1.848   0.105   6.084  0.7139  0.1690 -3.3354
   21CHL1   C24 1542   1.664   0.161   5.995 -0.0413  0.4012 -0.2606
   21CHL1  H24A 1543   1.608   0.102   6.070  1.0977 -0.9609 -0.4336
   21CHL1  H24B 1544   1.609   0.257   5.978 -0.8063 -0.0062 -0.1194
   21CHL1   C25 1545   1.669   0.085   5.860 -0.7395 -0.0603 -0.5146
   21CHL1   H25 1546   1.692   0.151   5.773  0.6390 -0.4567 -0.4837
   21CHL1   C26 1547   1.793  -0.005   5.851 -0.5141 -0.8555  0.2747
   21CHL1  H26A 1548   1.803  -0.072   5.939 -0.1282 -1.1626  0.0009
   21CHL1  H26B 1549   1.797  -0.066   5.758 -0.5906  0.9910 -0.9909
   21CHL1  H26C 1550   1.885   0.057   5.847 -1.0661 -0.0728 -1.1679
   21CHL1   C27 1551   1.539  -0.000   5.848 -0.4042  0.4950  0.2929
   21CHL1  H27A 1552   1.529  -0.062   5.756 -0.3740 -1.0055  1.2505
   21CHL1  H27B 1553   1.540  -0.073   5.932 -0.3731  0.7964  0.5544
   21CHL1  H27C 1554   1.453   0.068   5.865  0.2680  1.1083  1.3646
   22CHL1    C3 1555   1.035   3.959   7.183  0.2099  0.1199 -0.9427
   22CHL1    H3 1556   1.060   4.054   7.131 -0.9739  0.3019 -1.2069
   22CHL1    O3 1557   1.019   3.984   7.323  0.0072 -0.3979  0.5271
   22CHL1   H3' 1558   1.104   3.966   7.365  0.4434  2.1271  0.8400
   22CHL1    C4 1559   0.902   3.928   7.111 -0.2935  0.1581 -0.3859
   22CHL1   H4A 1560   0.860   3.840   7.164 -0.2188 -0.5269 -1.4238
   22CHL1   H4B 1561   0.829   4.010   7.129  2.2756  2.9221 -1.5747
   22CHL1    C5 1562   0.938   3.896   6.969  0.2874  0.1408 -0.1563
   22CHL1    C6 1563   0.865   3.957   6.878 -0.2450 -0.2648 -0.1161
   22CHL1    H6 1564   0.779   4.020   6.909  1.4419  1.3251  1.5954
   22CHL1    C7 1565   0.868   3.920   6.733 -0.1954 -0.3942 -0.3039
   22CHL1   H7A 1566   0.758   3.912   6.715 -0.7157  0.6927  1.9962
   22CHL1   H7B 1567   0.913   4.009   6.686  1.0912 -0.1492  1.2957
   22CHL1    C8 1568   0.950   3.792   6.703  0.2335  0.1495  0.3276
   22CHL1    H8 1569   0.890   3.701   6.721  0.3166 -0.6089 -2.6580
   22CHL1   C14 1570   1.002   3.792   6.560 -1.1167  0.1755 -0.1737
   22CHL1   H14 1571   1.073   3.877   6.550  0.3287 -0.7606  1.5462
   22CHL1   C15 1572   0.892   3.792   6.458 -0.2307 -0.0748  0.0437
   22CHL1  H15A 1573   0.811   3.727   6.496 -0.2204 -1.2966 -1.8814
   22CHL1  H15B 1574   0.861   3.898   6.447  5.3516  1.8334 -0.6680
   22CHL1   C16 1575   0.958   3.740   6.333 -0.0874  0.3639 -0.3223
   22CHL1  H16A 1576   0.897   3.666   6.277 -0.5238  0.5579 -0.1100
   22CHL1  H16B 1577   0.969   3.831   6.270  1.4949  1.4436  1.4234
   22CHL1   C17 1578   1.101   3.694   6.367  0.2990  0.0121 -0.3605
   22CHL1   H17 1579   1.174   3.778   6.359  0.6876 -0.4471 -1.9928
   22CHL1   C13 1580   1.092   3.679   6.523 -0.0241  0.9066 -0.3570
   22CHL1   C18 1581   1.023   3.545   6.550  0.7885 -0.2062  0.8262
   22CHL1  H18A 1582   0.944   3.523   6.475 -0.6097  1.3448  1.7818
   22CHL1  H18B 1583   1.095   3.462   6.539 -2.3170 -2.8960 -1.2173
   22CHL1  H18C 1584   0.985   3.533   6.653  2.4718  1.3747  1.7024
   22CHL1   C12 1585   1.227   3.684   6.600 -0.0855 -0.1494  0.3602
   22CHL1  H12A 1586   1.290   3.593   6.594 -2.3537 -2.0306  2.7365
   22CHL1  H12B 1587   1.281   3.781   6.588 -0.0836  0.1016  2.1299
   22CHL1   C11 1588   1.195   3.684   6.752 -0.0263  0.0041  0.3183
   22CHL1  H11A 1589   1.160   3.580   6.769 -0.7562  0.5163  2.1778
   22CHL1  H11B 1590   1.289   3.694   6.811  0.6794 -1.6040 -0.4703
   22CHL1    C9 1591   1.080   3.783   6.791  0.4015 -0.2840  0.0026
   22CHL1    H9 1592   1.115   3.886   6.768 -0.1367 -0.3079 -0.9399
   22CHL1   C10 1593   1.048   3.799   6.939 -0.2278  1.0027 -0.3787
   22CHL1   C19 1594   1.009   3.657   6.993 -0.0389  0.5230  0.0805
   22CHL1  H19A 1595   0.971   3.651   7.097 -0.5240 -1.3507 -0.1777
   22CHL1  H19B 1596   0.935   3.614   6.923 -0.7484  0.8011  0.6548
   22CHL1  H19C 1597   1.096   3.587   6.991 -0.7555 -0.5431  2.6226
   22CHL1    C1 1598   1.185   3.837   7.008 -0.0047 -0.3405  0.0879
   22CHL1   H1A 1599   1.259   3.754   7.001  2.2023  1.7083 -2.6909
   22CHL1   H1B 1600   1.241   3.918   6.958 -0.5496 -2.1053 -3.7358
   22CHL1    C2 1601   1.159   3.866   7.160  0.7216  0.2048 -0.2367
   22CHL1   H2A 1602   1.258   3.903   7.195  1.1120 -0.5679 -0.4872
   22CHL1   H2B 1603   1.128   3.774   7.214 -0.4185  0.5602 -0.2567
   22CHL1   C20 1604   1.145   3.575   6.276  0.1560  0.2052  0.0232
   22CHL1   H20 1605   1.074   3.491   6.292 -2.3513  1.4703 -3.1203
   22CHL1   C21 1606   1.293   3.527   6.303 -0.3416  0.8865 -0.1109
   22CHL1  H21A 1607   1.317   3.431   6.253  0.4355  0.6726  0.6627
   22CHL1  H21B 1608   1.305   3.488   6.406  3.1697  0.3181 -0.6298
   22CHL1  H21C 1609   1.367   3.606   6.276 -0.3157  0.2822 -1.9700
   22CHL1   C22 1610   1.133   3.599   6.126 -0.0375 -0.2559  0.1429
   22CHL1  H22A 1611   1.058   3.674   6.091  0.6550  1.2423  1.7294
   22CHL1  H22B 1612   1.225   3.649   6.090  0.0595 -1.2612 -1.0299
   22CHL1   C23 1613   1.099   3.472   6.043 -0.2707  0.7294  0.4888
   22CHL1  H23A 1614   1.175   3.398   6.076 -0.6956 -0.4384 -1.0173
   22CHL1  H23B 1615   1.007   3.424   6.082  1.3377 -1.8667  1.3529
   22CHL1   C24 1616   1.094   3.482   5.892 -0.3081 -0.5981  0.1588
   22CHL1  H24A 1617   1.016   3.552   5.856  0.1392 -0.0481  0.2381
   22CHL1  H24B 1618   1.188   3.516   5.844  0.1452 -1.7135  0.2272
   22CHL1   C25 1619   1.058   3.349   5.814  0.4393 -0.2683  0.2385
   22CHL1   H25 1620   1.133   3.267   5.825  0.8353 -0.0077 -0.4177
   22CHL1   C26 1621   0.920   3.293   5.860 -0.5441 -0.0495  0.0181
   22CHL1  H26A 1622   0.924   3.261   5.966  1.9760 -1.3696 -0.4050
   22CHL1  H26B 1623   0.844   3.372   5.843 -0.7893 -0.0019  1.2194
   22CHL1  H26C 1624   0.893   3.201   5.804  0.7847 -1.2932  1.3389
   22CHL1   C27 1625   1.050   3.378   5.660  0.3404  0.5623  0.1963
   22CHL1  H27A 1626   1.141   3.428   5.621  0.7985  0.5618  1.2257
   22CHL1  H27B 1627   1.050   3.281   5.604  0.9007 -0.4764  1.9228
   22CHL1  H27C 1628   0.956   3.436   5.644  0.2831  0.6872  0.9705
   23CHL1    C3 1629   0.972   1.293   6.861 -0.2721  0.4432  0.3167
   23CHL1    H3 1630   1.077   1.265   6.836 -0.3785  0.4923 -0.1903
   23CHL1    O3 1631   0.967   1.284   7.001 -0.4265 -0.1047  0.6756
   23CHL1   H3' 1632   0.879   1.315   7.023 -0.4950  1.5000 -1.5941
   23CHL1    C4 1633   0.940   1.440   6.832 -0.6875  1.1847  0.0487
   23CHL1   H4A 1634   0.833   1.453   6.856 -1.0563 -2.0619  0.5996
   23CHL1   H4B 1635   0.992   1.499   6.910 -0.1406 -1.7247  2.0576
   23CHL1    C5 1636   0.968   1.475   6.690  0.2587  0.1566 -0.7642
   23CHL1    C6 1637   1.058   1.575   6.664  1.0845  0.3632 -0.1411
   23CHL1    H6 1638   1.089   1.635   6.750 -1.7137  2.1655 -0.2736
   23CHL1    C7 1639   1.101   1.613   6.521  0.2624 -0.1786  0.3609
   23CHL1   H7A 1640   1.104   1.724   6.516 -0.1752 -0.2140 -3.1804
   23CHL1   H7B 1641   1.203   1.572   6.505  0.2756 -0.0540  0.1211
   23CHL1    C8 1642   0.998   1.554   6.419  0.5707 -0.1762 -0.4555
   23CHL1    H8 1643   0.901   1.607   6.428  0.3673 -0.5914 -0.1723
   23CHL1   C14 1644   1.054   1.568   6.277 -0.5891 -0.1175 -0.1176
   23CHL1   H14 1645   1.154   1.519   6.279 -0.1165  0.8329 -0.1213
   23CHL1   C15 1646   1.098   1.705   6.231 -0.1227  0.0723 -0.2662
   23CHL1  H15A 1647   1.032   1.791   6.254 -2.6227 -2.3909  2.6404
   23CHL1  H15B 1648   1.191   1.724   6.290 -0.4489  1.9796 -0.3139
   23CHL1   C16 1649   1.114   1.689   6.081  0.3044 -0.5182  0.6220
   23CHL1  H16A 1650   1.050   1.766   6.035  1.0356 -0.0306  0.4009
   23CHL1  H16B 1651   1.218   1.723   6.060  0.1608 -0.2051  0.4172
   23CHL1   C17 1652   1.068   1.542   6.043 -0.6882 -0.1571  0.0357
   23CHL1   H17 1653   1.155   1.473   6.043  0.6215  1.4235  0.7912
   23CHL1   C13 1654   0.980   1.497   6.166 -0.5619  0.8319  0.7284
   23CHL1   C18 1655   0.841   1.557   6.155  0.7532  0.6016 -0.0915
   23CHL1  H18A 1656   0.789   1.533   6.060 -1.5180 -1.0682  1.4654
   23CHL1  H18B 1657   0.780   1.528   6.243 -1.1695  0.1253 -1.5000
   23CHL1  H18C 1658   0.844   1.669   6.156 -0.4496  0.6675 -1.2331
   23CHL1   C12 1659   0.977   1.345   6.198 -0.3343  0.1192 -0.8079
   23CHL1  H12A 1660   0.920   1.286   6.124 -1.2865 -1.4211  1.0648
   23CHL1  H12B 1661   1.082   1.308   6.192 -0.2885  0.1940 -0.4873
   23CHL1   C11 1662   0.909   1.321   6.329  0.4399 -0.3363 -0.3611
   23CHL1  H11A 1663   0.803   1.347   6.306  0.8584  0.3672 -1.5835
   23CHL1  H11B 1664   0.907   1.210   6.339 -2.3474 -0.3157  0.1944
   23CHL1    C9 1665   0.973   1.403   6.451  0.4502  0.3679  0.2016
   23CHL1    H9 1666   1.072   1.354   6.451  1.1081  1.6306 -0.6233
   23CHL1   C10 1667   0.910   1.381   6.587  0.2428  0.2312  0.3097
   23CHL1   C19 1668   0.759   1.422   6.576 -0.0025 -0.1245 -0.2271
   23CHL1  H19A 1669   0.712   1.423   6.676  2.1086  0.4211  0.8289
   23CHL1  H19B 1670   0.748   1.526   6.537  1.2863 -0.3272 -1.2081
   23CHL1  H19C 1671   0.703   1.346   6.518  0.0699 -0.5998  0.3212
   23CHL1    C1 1672   0.907   1.234   6.625  0.7767 -0.1769  0.0448
   23CHL1   H1A 1673   0.836   1.164   6.575  0.3562 -0.8036  1.4592
   23CHL1   H1B 1674   1.007   1.190   6.604 -0.2273 -2.5177 -0.1881
   23CHL1    C2 1675   0.884   1.205   6.779 -0.4660  0.3613  0.3441
   23CHL1   H2A 1676   0.894   1.104   6.823 -0.4159  0.1645 -0.1087
   23CHL1   H2B 1677   0.783   1.238   6.811 -0.6570  0.9693 -0.8067
   23CHL1   C20 1678   1.001   1.542   5.903 -0.2987 -0.0821 -0.3266
   23CHL1   H20 1679   0.907   1.600   5.909  0.3454  1.1732 -1.7217
   23CHL1   C21 1680   0.949   1.400   5.870 -0.4989  0.3013 -0.0270
   23CHL1  H21A 1681   1.024   1.324   5.901 -0.1071  1.6494  2.6189
   23CHL1  H21B 1682   0.943   1.393   5.760  3.4822  0.7126 -0.4269
   23CHL1  H21C 1683   0.845   1.370   5.897 -0.7773 -0.1348 -1.4914
   23CHL1   C22 1684   1.074   1.598   5.778 -0.2624 -0.2508  0.1166
   23CHL1  H22A 1685   1.009   1.599   5.689  1.0789  5.3593 -1.1914
   23CHL1  H22B 1686   1.089   1.706   5.799 -0.5288  0.1973 -1.8162
   23CHL1   C23 1687   1.221   1.548   5.749  0.2702  0.2811  0.1607
   23CHL1  H23A 1688   1.278   1.584   5.837 -0.0774 -2.0672  1.4446
   23CHL1  H23B 1689   1.231   1.437   5.742  1.2226  0.3707  0.0437
   23CHL1   C24 1690   1.271   1.611   5.618  0.0737  0.1470  0.5090
   23CHL1  H24A 1691   1.224   1.568   5.528  2.9031  1.1722 -1.6116
   23CHL1  H24B 1692   1.247   1.719   5.608 -0.4843  0.0641  0.9042
   23CHL1   C25 1693   1.421   1.587   5.595 -0.2287 -0.4364  0.4261
   23CHL1   H25 1694   1.475   1.604   5.691  1.0059  1.4978 -0.5490
   23CHL1   C26 1695   1.464   1.452   5.548  0.7512  0.7182 -0.4116
   23CHL1  H26A 1696   1.430   1.368   5.614  2.1878 -0.2947 -0.9078
   23CHL1  H26B 1697   1.414   1.437   5.450  1.0114  0.8099 -0.5593
   23CHL1  H26C 1698   1.574   1.439   5.538  0.5926 -1.5233  0.2233
   23CHL1   C27 1699   1.465   1.695   5.487 -0.2579 -0.5349  1.1150
   23CHL1  H27A 1700   1.573   1.685   5.465 -0.3184  3.2602 -2.1120
   23CHL1  H27B 1701   1.421   1.676   5.387  2.2932  1.2449 -0.4549
   23CHL1  H27C 1702   1.432   1.795   5.521  2.3370  1.5607 -1.9885
   24CHL1    C3 1703   1.301   4.353   6.933  0.4544 -0.6635 -0.4430
   24CHL1    H3 1704   1.407   4.375   6.958  0.2878  1.5252 -1.4843
   24CHL1    O3 1705   1.228   4.396   7.045 -0.0109  0.3490 -0.0360
   24CHL1   H3' 1706   1.269   4.360   7.123 -1.2067 -0.2052  0.3694
   24CHL1    C4 1707   1.255   4.437   6.818 -0.0413 -0.3238 -0.6325
   24CHL1   H4A 1708   1.144   4.442   6.816  0.0133  1.3488 -0.8275
   24CHL1   H4B 1709   1.295   4.540   6.831 -0.1223 -0.0688 -2.1686
   24CHL1    C5 1710   1.305   4.383   6.684  0.8699  0.0529  0.2752
   24CHL1    C6 1711   1.369   4.461   6.595  0.1215 -0.0974 -0.8182
   24CHL1    H6 1712   1.394   4.559   6.637 -1.1196 -0.3245  0.5359
   24CHL1    C7 1713   1.422   4.410   6.466 -0.9239 -0.0928  1.5708
   24CHL1   H7A 1714   1.402   4.478   6.380  1.5887 -0.5465  0.5397
   24CHL1   H7B 1715   1.530   4.387   6.470 -0.9669 -0.7628 -0.2403
   24CHL1    C8 1716   1.363   4.274   6.421  0.4868  0.3621  0.6364
   24CHL1    H8 1717   1.256   4.277   6.391  0.5578 -0.3935  0.2910
   24CHL1   C14 1718   1.434   4.212   6.303 -0.0924 -0.0392  0.4619
   24CHL1   H14 1719   1.538   4.215   6.343 -0.0222  3.4833  0.2916
   24CHL1   C15 1720   1.424   4.291   6.162  0.3994 -0.1720 -0.5698
   24CHL1  H15A 1721   1.329   4.349   6.157  0.6516  0.8236  3.3678
   24CHL1  H15B 1722   1.508   4.363   6.153 -0.0234  0.1323 -2.7052
   24CHL1   C16 1723   1.448   4.180   6.059  0.0072  0.5561 -1.2067
   24CHL1  H16A 1724   1.356   4.165   5.998  0.0491 -0.3326 -1.0748
   24CHL1  H16B 1725   1.521   4.199   5.978  0.1231 -1.5242 -1.6654
   24CHL1   C17 1726   1.477   4.045   6.137 -0.0872 -0.6712  0.5081
   24CHL1   H17 1727   1.586   4.051   6.157  0.5271 -2.5426 -1.7617
   24CHL1   C13 1728   1.401   4.067   6.269  0.5807  0.2578 -0.1581
   24CHL1   C18 1729   1.246   4.053   6.235 -0.1538  0.7552  0.1482
   24CHL1  H18A 1730   1.211   4.145   6.185  0.4804  0.6225 -0.5726
   24CHL1  H18B 1731   1.210   3.956   6.194 -1.6852  0.9415  1.0109
   24CHL1  H18C 1732   1.192   4.061   6.331  1.1789  3.0060  0.7688
   24CHL1   C12 1733   1.444   3.982   6.390  0.2864  0.0086  0.7953
   24CHL1  H12A 1734   1.422   3.875   6.374  1.0877 -0.0046 -0.3781
   24CHL1  H12B 1735   1.556   3.983   6.391  0.2871  0.2838  0.3164
   24CHL1   C11 1736   1.374   4.026   6.515 -0.7201  0.5306  0.5386
   24CHL1  H11A 1737   1.271   3.984   6.522 -0.5917  0.0572 -0.3852
   24CHL1  H11B 1738   1.431   3.982   6.600 -1.5508  0.7070  1.2109
   24CHL1    C9 1739   1.369   4.181   6.542 -0.1312  0.3380  0.1660
   24CHL1    H9 1740   1.473   4.192   6.579  0.2990 -3.9427  0.6806
   24CHL1   C10 1741   1.281   4.230   6.652  0.8131 -0.1976 -0.3794
   24CHL1   C19 1742   1.137   4.195   6.616 -0.0044 -0.2634  0.4810
   24CHL1  H19A 1743   1.110   4.237   6.517  0.4606 -0.8649  0.0867
   24CHL1  H19B 1744   1.109   4.088   6.602 -1.7765  0.5034 -2.8185
   24CHL1  H19C 1745   1.072   4.236   6.695  0.7947 -0.3660  1.2079
   24CHL1    C1 1746   1.321   4.162   6.780  0.2372 -0.9233 -0.5585
   24CHL1   H1A 1747   1.285   4.059   6.759 -2.8942 -0.1015  0.1411
   24CHL1   H1B 1748   1.432   4.163   6.783  0.2401  0.8275  0.4652
   24CHL1    C2 1749   1.273   4.210   6.914  0.2816  0.3075 -0.1665
   24CHL1   H2A 1750   1.333   4.165   6.996 -0.5406  1.0834  0.8883
   24CHL1   H2B 1751   1.169   4.178   6.935 -0.4432  1.9641 -1.1237
   24CHL1   C20 1752   1.450   3.920   6.062 -0.8247  0.5729 -0.4587
   24CHL1   H20 1753   1.354   3.878   6.100 -0.2320 -0.2239  0.1731
   24CHL1   C21 1754   1.564   3.826   6.104  0.1519  0.2880  0.6181
   24CHL1  H21A 1755   1.565   3.742   6.032 -0.6062 -2.0450  3.1804
   24CHL1  H21B 1756   1.546   3.797   6.210 -1.1455 -1.3368 -0.0081
   24CHL1  H21C 1757   1.663   3.872   6.082 -0.0173  0.5740  0.4445
   24CHL1   C22 1758   1.434   3.926   5.911 -0.0487 -0.5324  0.9175
   24CHL1  H22A 1759   1.349   3.995   5.896  0.2268 -0.2716  0.5087
   24CHL1  H22B 1760   1.522   3.970   5.858  1.9600 -0.0283  4.3596
   24CHL1   C23 1761   1.398   3.795   5.841  0.4620  0.6854  0.7795
   24CHL1  H23A 1762   1.455   3.706   5.874 -0.1804 -0.4584 -1.0297
   24CHL1  H23B 1763   1.291   3.785   5.871  0.4191  0.3844  0.5259
   24CHL1   C24 1764   1.405   3.807   5.688 -0.2187 -0.1308 -0.0055
   24CHL1  H24A 1765   1.361   3.904   5.658 -0.2866 -0.7152 -1.9452
   24CHL1  H24B 1766   1.513   3.812   5.662 -0.4956 -0.5775 -1.3115
   24CHL1   C25 1767   1.339   3.688   5.619  0.3319 -0.2542  0.0714
   24CHL1   H25 1768   1.230   3.677   5.640  0.3983  0.5448  0.9103
   24CHL1   C26 1769   1.344   3.707   5.467 -0.8929 -1.1078 -0.5642
   24CHL1  H26A 1770   1.320   3.811   5.437 -0.1526 -0.6596  0.3373
   24CHL1  H26B 1771   1.449   3.689   5.438 -0.6074  0.9315 -0.9507
   24CHL1  H26C 1772   1.273   3.638   5.416 -0.3561 -1.7672 -0.4326
   24CHL1   C27 1773   1.423   3.557   5.654 -0.2436 -0.4350  0.3349
   24CHL1  H27A 1774   1.398   3.526   5.758 -1.7917  1.5483  0.6067
   24CHL1  H27B 1775   1.393   3.477   5.584  2.4910 -1.0104 -0.3290
   24CHL1  H27C 1776   1.530   3.581   5.635  0.3198 -0.5463  2.9932
   25CHL1    C3 1777   6.867   1.595   6.979 -0.3560  0.5880  0.5340
   25CHL1    H3 1778   6.865   1.485   6.993  0.5415  0.5046  0.0769
   25CHL1    O3 1779   6.821   1.649   7.098  0.3339  0.0849 -0.4625
   25CHL1   H3' 1780   6.725   1.653   7.096  0.2109  1.4809  2.5596
   25CHL1    C4 1781   7.012   1.644   6.961  0.6589 -0.6704  0.3227
   25CHL1   H4A 1782   7.016   1.755   6.964 -0.9906 -0.5489 -0.6910
   25CHL1   H4B 1783   7.077   1.616   7.046  0.3803 -0.3472  0.6400
   25CHL1    C5 1784   7.065   1.614   6.820 -0.0682  0.2814 -0.0373
   25CHL1    C6 1785   7.182   1.543   6.802 -0.3504 -0.8830 -0.0814
   25CHL1    H6 1786   7.240   1.525   6.893  1.1706 -1.0622 -1.0551
   25CHL1    C7 1787   7.239   1.497   6.671  0.3666 -0.2800  0.4776
   25CHL1   H7A 1788   7.349   1.506   6.658 -0.0840  0.7688 -4.3167
   25CHL1   H7B 1789   7.237   1.387   6.657  2.8046 -0.2890 -0.2906
   25CHL1    C8 1790   7.164   1.567   6.546 -1.3228 -0.3029 -0.4486
   25CHL1    H8 1791   7.210   1.669   6.547 -1.2216 -0.3178  1.5788
   25CHL1   C14 1792   7.200   1.500   6.411  0.4200 -0.5736 -1.1085
   25CHL1   H14 1793   7.168   1.395   6.421  0.3293 -0.3198  2.5494
   25CHL1   C15 1794   7.349   1.482   6.390  0.2551  0.0650 -0.3616
   25CHL1  H15A 1795   7.402   1.573   6.424 -0.2919  0.2780 -0.0634
   25CHL1  H15B 1796   7.389   1.394   6.445  1.9585  1.3820  0.5970
   25CHL1   C16 1797   7.352   1.474   6.238 -0.1491  0.1469 -0.2534
   25CHL1  H16A 1798   7.407   1.568   6.216 -0.5588  0.9614  1.8682
   25CHL1  H16B 1799   7.395   1.376   6.209  0.3246  0.2594  0.0443
   25CHL1   C17 1800   7.210   1.487   6.184  0.1608  0.4315 -0.5084
   25CHL1   H17 1801   7.153   1.392   6.176  1.5510 -0.3199 -2.1941
   25CHL1   C13 1802   7.134   1.566   6.293 -0.0677 -0.3378  0.4151
   25CHL1   C18 1803   7.163   1.715   6.280  0.0166  0.6893  0.1241
   25CHL1  H18A 1804   7.271   1.736   6.265 -0.0223 -0.1435 -1.5549
   25CHL1  H18B 1805   7.111   1.756   6.190 -0.2935 -3.2306 -1.7055
   25CHL1  H18C 1806   7.135   1.781   6.365 -0.0467 -0.1352  0.7627
   25CHL1   C12 1807   6.982   1.547   6.310 -0.1369 -0.3855 -0.1510
   25CHL1  H12A 1808   6.937   1.602   6.225  0.7205 -1.3742 -1.2898
   25CHL1  H12B 1809   6.957   1.439   6.302  0.3732 -0.5211  0.0456
   25CHL1   C11 1810   6.931   1.620   6.444 -0.1957  0.3537  0.1331
   25CHL1  H11A 1811   6.928   1.725   6.407  2.8594  0.3263 -0.4929
   25CHL1  H11B 1812   6.825   1.590   6.451 -0.6387  1.1844 -2.0618
   25CHL1    C9 1813   7.015   1.580   6.567  1.1513  0.2702  0.6153
   25CHL1    H9 1814   6.994   1.472   6.580 -1.0899  0.6227  0.3309
   25CHL1   C10 1815   6.973   1.648   6.695 -1.4140 -0.7984 -0.1054
   25CHL1   C19 1816   6.971   1.795   6.663  0.3679 -0.3468 -0.0133
   25CHL1  H19A 1817   7.069   1.825   6.620  0.3109 -1.3402 -0.8856
   25CHL1  H19B 1818   6.889   1.819   6.592  0.2341 -1.8053 -0.3944
   25CHL1  H19C 1819   6.955   1.851   6.758  1.6731 -1.7993  1.1170
   25CHL1    C1 1820   6.827   1.601   6.729  0.0229 -0.4221 -0.0885
   25CHL1   H1A 1821   6.753   1.639   6.655  1.0225 -2.4953 -2.2791
   25CHL1   H1B 1822   6.829   1.491   6.719  1.6353 -0.4497  0.3398
   25CHL1    C2 1823   6.774   1.640   6.869 -0.3900  0.5380  0.3370
   25CHL1   H2A 1824   6.680   1.585   6.889  0.5302 -0.4504  2.1730
   25CHL1   H2B 1825   6.762   1.751   6.869 -1.6879  0.4022  0.4216
   25CHL1   C20 1826   7.204   1.548   6.036 -1.0548  0.0737 -0.7727
   25CHL1   H20 1827   7.233   1.654   6.054 -1.8329  0.0518  0.8593
   25CHL1   C21 1828   7.068   1.543   5.981 -0.0658  0.4538  0.6770
   25CHL1  H21A 1829   6.985   1.570   6.050  1.0413  1.5179  1.6463
   25CHL1  H21B 1830   7.046   1.440   5.946 -0.8578  1.2161 -1.2156
   25CHL1  H21C 1831   7.046   1.612   5.897 -1.2615 -1.3151 -0.5369
   25CHL1   C22 1832   7.316   1.489   5.946  0.6865 -0.2010 -0.4138
   25CHL1  H22A 1833   7.419   1.510   5.984 -0.0131 -0.4881  1.7983
   25CHL1  H22B 1834   7.294   1.380   5.948 -1.3916  0.1805  1.6581
   25CHL1   C23 1835   7.308   1.531   5.795 -0.7828  0.4872 -0.5357
   25CHL1  H23A 1836   7.213   1.485   5.762 -0.3626 -0.9978  0.2205
   25CHL1  H23B 1837   7.307   1.642   5.790 -0.9635  0.6744  2.0205
   25CHL1   C24 1838   7.426   1.469   5.713  0.6850 -0.0406  0.2575
   25CHL1  H24A 1839   7.518   1.525   5.739 -0.3286  1.3061  1.1164
   25CHL1  H24B 1840   7.434   1.361   5.735 -0.3708 -0.8917 -2.9095
   25CHL1   C25 1841   7.414   1.485   5.559  0.0896  0.4573 -0.0203
   25CHL1   H25 1842   7.501   1.433   5.513  0.2723  0.1715  0.6225
   25CHL1   C26 1843   7.287   1.429   5.490  0.0026  0.2352 -0.1984
   25CHL1  H26A 1844   7.294   1.321   5.511  1.6212  0.4367  0.4747
   25CHL1  H26B 1845   7.195   1.460   5.543  0.0474 -0.1700  0.1201
   25CHL1  H26C 1846   7.275   1.447   5.381 -2.5863  0.0610 -0.0024
   25CHL1   C27 1847   7.437   1.631   5.521  0.1092 -0.4678  0.3772
   25CHL1  H27A 1848   7.366   1.697   5.575  1.4572  2.1169 -0.7941
   25CHL1  H27B 1849   7.538   1.661   5.558  0.1921  1.4509 -1.2452
   25CHL1  H27C 1850   7.423   1.651   5.413  1.4324  0.6100  0.3687
   26CHL1    C3 1851   2.143   6.425   7.304  0.2637  0.7367  0.5076
   26CHL1    H3 1852   2.114   6.328   7.351  0.2107  0.7947  0.5939
   26CHL1    O3 1853   2.181   6.504   7.411 -1.1201 -1.1864  0.1272
   26CHL1   H3' 1854   2.097   6.531   7.450 -0.7957 -2.2684  1.6856
   26CHL1    C4 1855   2.266   6.407   7.217 -0.5349  0.0341  0.7536
   26CHL1   H4A 1856   2.312   6.503   7.186  0.5980 -0.6949  0.1124
   26CHL1   H4B 1857   2.343   6.350   7.273 -0.0714 -0.4188 -0.3025
   26CHL1    C5 1858   2.247   6.335   7.087  0.1744  0.8749  0.4539
   26CHL1    C6 1859   2.321   6.231   7.044  0.2316  0.0860  0.2064
   26CHL1    H6 1860   2.408   6.199   7.103  1.4369 -0.7507 -1.9014
   26CHL1    C7 1861   2.303   6.160   6.913 -0.4608 -0.5570 -0.5161
   26CHL1   H7A 1862   2.400   6.136   6.864 -0.5292  1.7133 -1.9664
   26CHL1   H7B 1863   2.245   6.068   6.933 -1.6111  0.8025  3.4947
   26CHL1    C8 1864   2.211   6.235   6.814  0.5866 -0.8298  0.1631
   26CHL1    H8 1865   2.267   6.319   6.769 -1.7737  1.8877  2.0015
   26CHL1   C14 1866   2.166   6.155   6.695 -0.1256  0.3461  0.6562
   26CHL1   H14 1867   2.103   6.077   6.743  1.4515 -0.4601  1.4857
   26CHL1   C15 1868   2.275   6.062   6.622  0.4603 -0.1827 -0.0458
   26CHL1  H15A 1869   2.358   6.134   6.607 -0.5201  1.2026  0.9800
   26CHL1  H15B 1870   2.293   5.976   6.691 -0.7785  1.1136  1.9938
   26CHL1   C16 1871   2.202   6.032   6.486 -0.7355  0.0631 -0.4880
   26CHL1  H16A 1872   2.261   6.065   6.398 -0.2266  1.0335  0.2060
   26CHL1  H16B 1873   2.190   5.922   6.473 -1.1483  0.0087  0.2952
   26CHL1   C17 1874   2.061   6.091   6.496  0.0940  0.3123 -0.5521
   26CHL1   H17 1875   1.994   6.017   6.545 -0.3344  0.6672 -0.5973
   26CHL1   C13 1876   2.076   6.219   6.589  0.2760 -0.2511 -0.0018
   26CHL1   C18 1877   2.139   6.343   6.512 -0.3930 -0.5380 -0.1197
   26CHL1  H18A 1878   2.074   6.366   6.426 -2.0884 -1.3650  0.8773
   26CHL1  H18B 1879   2.157   6.431   6.577 -0.4942  0.9512 -2.0350
   26CHL1  H18C 1880   2.235   6.313   6.466 -0.9828 -0.9408 -1.1180
   26CHL1   C12 1881   1.949   6.262   6.659 -0.6064 -0.2340 -0.2083
   26CHL1  H12A 1882   1.887   6.329   6.596  2.9231  0.8316 -2.9241
   26CHL1  H12B 1883   1.898   6.171   6.697  1.8724 -1.2816  0.8489
   26CHL1   C11 1884   1.985   6.351   6.783  0.0742 -0.1429  0.6447
   26CHL1  H11A 1885   2.026   6.445   6.739 -1.1972 -0.6982 -1.9133
   26CHL1  H11B 1886   1.894   6.377   6.841 -0.5019  1.9208 -1.0164
   26CHL1    C9 1887   2.086   6.289   6.884  0.3625  0.0052 -0.2993
   26CHL1    H9 1888   2.038   6.203   6.935 -0.1051  1.0887  1.1557
   26CHL1   C10 1889   2.123   6.384   7.004  0.5181  0.9907 -1.2159
   26CHL1   C19 1890   2.154   6.526   6.939 -0.2025 -0.2716 -0.0231
   26CHL1  H19A 1891   2.221   6.577   7.012  0.6503  0.6721 -1.4170
   26CHL1  H19B 1892   2.222   6.521   6.851  0.5847  0.5770  0.5193
   26CHL1  H19C 1893   2.061   6.579   6.912 -0.9480 -0.0689  2.6251
   26CHL1    C1 1894   1.995   6.405   7.103  0.2429  0.0692  0.2838
   26CHL1   H1A 1895   1.919   6.465   7.049  0.4259 -2.0288 -2.5440
   26CHL1   H1B 1896   1.950   6.310   7.137 -1.4494  1.3784  1.8882
   26CHL1    C2 1897   2.032   6.491   7.223 -0.2392  0.6853 -0.3022
   26CHL1   H2A 1898   1.937   6.504   7.278 -1.6368  1.4432 -2.7309
   26CHL1   H2B 1899   2.076   6.588   7.191  3.0920 -0.4810  0.3251
   26CHL1   C20 1900   1.996   6.114   6.360 -1.3314  0.0859 -0.0692
   26CHL1   H20 1901   2.054   6.192   6.305 -1.9498  2.0871  1.9812
   26CHL1   C21 1902   1.853   6.168   6.368 -0.2278  0.3260  0.5573
   26CHL1  H21A 1903   1.850   6.277   6.389 -0.0731  0.6559 -0.9909
   26CHL1  H21B 1904   1.788   6.117   6.441 -0.7710  0.4288  0.1507
   26CHL1  H21C 1905   1.797   6.155   6.273  0.7964  0.0260 -0.0162
   26CHL1   C22 1906   1.989   5.986   6.274  0.2101  0.2408 -0.2287
   26CHL1  H22A 1907   2.081   5.924   6.277  0.7695  0.9338 -1.7210
   26CHL1  H22B 1908   1.911   5.928   6.328  1.5098  0.0588  1.5645
   26CHL1   C23 1909   1.958   6.014   6.125  0.3465  0.4484  0.3242
   26CHL1  H23A 1910   1.891   6.103   6.117 -3.2733 -2.1258 -0.7333
   26CHL1  H23B 1911   2.058   6.032   6.081  1.4681 -0.1620  2.4459
   26CHL1   C24 1912   1.876   5.894   6.074  0.5165  0.0191  0.0996
   26CHL1  H24A 1913   1.953   5.813   6.079  1.0589  0.4117 -1.3653
   26CHL1  H24B 1914   1.788   5.885   6.141  1.1757  0.7829  1.0950
   26CHL1   C25 1915   1.829   5.903   5.931 -0.6377  0.2321  0.2770
   26CHL1   H25 1916   1.919   5.928   5.870 -0.0376  1.5651  1.6399
   26CHL1   C26 1917   1.765   5.774   5.861 -0.2632 -0.1988  0.0688
   26CHL1  H26A 1918   1.667   5.756   5.911 -0.7680 -1.4000 -1.2996
   26CHL1  H26B 1919   1.755   5.779   5.751  0.1624 -0.6195  0.0069
   26CHL1  H26C 1920   1.822   5.682   5.886 -0.5212 -0.2256  0.5728
   26CHL1   C27 1921   1.730   6.017   5.908  0.5688 -0.8806  0.0228
   26CHL1  H27A 1922   1.699   6.023   5.802  0.7516 -0.5331 -0.0144
   26CHL1  H27B 1923   1.639   6.001   5.970  1.5236 -1.9438  1.2043
   26CHL1  H27C 1924   1.771   6.118   5.931 -2.2759  0.1606  1.0959
   27CHL1    C3 1925   1.489   2.842   7.290 -0.4050  0.1581 -0.3428
   27CHL1    H3 1926   1.578   2.778   7.309 -1.7441 -1.5383  0.4186
   27CHL1    O3 1927   1.426   2.867   7.416 -0.1027  0.0702  0.7164
   27CHL1   H3' 1928   1.353   2.923   7.391 -0.5592 -0.3985  0.9834
   27CHL1    C4 1929   1.527   2.973   7.221 -0.4755 -0.8333 -0.3394
   27CHL1   H4A 1930   1.437   3.037   7.218 -2.2167 -3.0414  1.2134
   27CHL1   H4B 1931   1.604   3.016   7.289  1.2853 -3.5177 -0.4840
   27CHL1    C5 1932   1.581   2.959   7.080  1.1422  0.8602  0.0967
   27CHL1    C6 1933   1.698   3.005   7.054 -0.1251 -0.7386 -0.1838
   27CHL1    H6 1934   1.750   3.055   7.138  0.6546 -0.3594 -0.8775
   27CHL1    C7 1935   1.769   2.987   6.920  0.4427 -0.7172  0.3054
   27CHL1   H7A 1936   1.836   3.072   6.898  0.7178 -0.1802  2.8967
   27CHL1   H7B 1937   1.838   2.901   6.928 -0.2959 -1.2442  1.3057
   27CHL1    C8 1938   1.666   2.951   6.807  0.3629  0.5387 -0.4817
   27CHL1    H8 1939   1.616   3.048   6.789 -2.0390 -0.0965  2.0262
   27CHL1   C14 1940   1.736   2.890   6.686 -0.1418  0.0644 -0.1791
   27CHL1   H14 1941   1.776   2.792   6.719 -2.9253 -1.0939  0.0414
   27CHL1   C15 1942   1.850   2.974   6.618  0.6017  0.1425 -0.0933
   27CHL1  H15A 1943   1.814   3.079   6.612  0.1815 -0.0530 -1.2216
   27CHL1  H15B 1944   1.943   2.985   6.678  0.0443 -0.6224  0.9300
   27CHL1   C16 1945   1.856   2.913   6.468  0.4108 -0.3569  0.4096
   27CHL1  H16A 1946   1.863   2.993   6.391  1.8146 -1.2161 -0.4069
   27CHL1  H16B 1947   1.947   2.851   6.449  0.4545 -0.1668 -0.0073
   27CHL1   C17 1948   1.741   2.815   6.449  0.6547  0.4711 -0.0362
   27CHL1   H17 1949   1.782   2.717   6.479  0.2144  1.0550  2.7596
   27CHL1   C13 1950   1.644   2.846   6.567  0.3525 -0.2845 -0.4210
   27CHL1   C18 1951   1.572   2.976   6.520  0.2893  0.6131 -0.0552
   27CHL1  H18A 1952   1.648   3.049   6.485 -0.8071  0.8300 -2.1855
   27CHL1  H18B 1953   1.503   2.963   6.433  0.0947 -0.0928  0.1937
   27CHL1  H18C 1954   1.510   3.022   6.600  0.6782  0.5472  0.2891
   27CHL1   C12 1955   1.552   2.738   6.626  0.0193 -0.1342 -0.1169
   27CHL1  H12A 1956   1.489   2.705   6.540  1.1038 -4.5083  0.5311
   27CHL1  H12B 1957   1.616   2.650   6.651  0.5447 -0.3770 -2.1245
   27CHL1   C11 1958   1.467   2.785   6.746 -0.1129 -0.3178  0.3399
   27CHL1  H11A 1959   1.399   2.868   6.717  2.8606  1.5490 -2.0295
   27CHL1  H11B 1960   1.417   2.699   6.795  0.9584  0.0490  2.1830
   27CHL1    C9 1961   1.561   2.845   6.858 -0.6251 -0.1565  0.4432
   27CHL1    H9 1962   1.624   2.754   6.868 -0.3412 -0.2373 -1.5850
   27CHL1   C10 1963   1.489   2.890   6.988  0.0972  0.1503  0.0971
   27CHL1   C19 1964   1.355   2.967   6.953  0.4526 -0.6685 -0.4613
   27CHL1  H19A 1965   1.272   2.909   6.907 -0.4469 -0.2768  0.6068
   27CHL1  H19B 1966   1.303   3.007   7.043  1.2992  0.8098 -0.6067
   27CHL1  H19C 1967   1.383   3.061   6.900  1.2285  0.2173  1.4115
   27CHL1    C1 1968   1.454   2.759   7.056  0.4754  0.3051  0.0352
   27CHL1   H1A 1969   1.370   2.714   6.999  0.0273  1.1072  0.0468
   27CHL1   H1B 1970   1.535   2.683   7.057 -1.6768 -2.1577  1.8603
   27CHL1    C2 1971   1.393   2.761   7.199  0.3508 -0.5029 -0.0801
   27CHL1   H2A 1972   1.347   2.667   7.234 -0.4967 -0.7345 -1.7436
   27CHL1   H2B 1973   1.301   2.823   7.194  0.8217  0.4099  1.6565
   27CHL1   C20 1974   1.680   2.810   6.307  0.0646  0.3279 -0.0954
   27CHL1   H20 1975   1.642   2.911   6.282 -0.5335 -0.3989 -2.2944
   27CHL1   C21 1976   1.559   2.713   6.295  0.0963 -0.3299  0.0940
   27CHL1  H21A 1977   1.530   2.686   6.192 -2.9928  0.7256  0.5721
   27CHL1  H21B 1978   1.461   2.741   6.341 -0.0503 -1.8605  0.7754
   27CHL1  H21C 1979   1.600   2.625   6.348  1.4662 -0.0459 -0.4708
   27CHL1   C22 1980   1.789   2.777   6.196  0.5483 -0.3186 -0.1398
   27CHL1  H22A 1981   1.874   2.848   6.207 -0.4626  0.9307 -0.1891
   27CHL1  H22B 1982   1.828   2.674   6.212 -0.2387 -0.6670 -0.3964
   27CHL1   C23 1983   1.729   2.773   6.052  0.2240  0.2756  0.7174
   27CHL1  H23A 1984   1.642   2.705   6.037  0.0766  0.0250  2.5087
   27CHL1  H23B 1985   1.691   2.875   6.032  3.4334  1.7296  1.5203
   27CHL1   C24 1986   1.840   2.753   5.945 -0.2891 -0.2306  0.6215
   27CHL1  H24A 1987   1.905   2.842   5.954 -1.3839  0.8010 -1.1078
   27CHL1  H24B 1988   1.906   2.669   5.975 -2.0825 -0.7380  3.5555
   27CHL1   C25 1989   1.785   2.718   5.805 -0.6528  0.3109  0.4125
   27CHL1   H25 1990   1.713   2.633   5.800 -2.1175  1.5648 -3.6960
   27CHL1   C26 1991   1.716   2.841   5.755  0.2976  0.3638 -0.0880
   27CHL1  H26A 1992   1.693   2.837   5.646  0.6048 -0.0481 -0.1425
   27CHL1  H26B 1993   1.616   2.839   5.802  0.4066 -0.4760  0.1214
   27CHL1  H26C 1994   1.773   2.935   5.773 -1.6467  1.2599  1.7738
   27CHL1   C27 1995   1.897   2.696   5.698 -0.5092  0.4560 -0.1661
   27CHL1  H27A 1996   1.842   2.689   5.601 -2.0070  0.0122  0.6793
   27CHL1  H27B 1997   1.967   2.782   5.692  0.5452 -0.1101  2.5660
   27CHL1  H27C 1998   1.963   2.608   5.715 -2.6273 -0.8949  1.6519
   28CHL1    C3 1999   0.930   0.190   6.810  0.1204  0.5857  0.0751
   28CHL1    H3 2000   1.023   0.141   6.849 -1.2508 -2.3242 -0.0417
   28CHL1    O3 2001   0.887   0.258   6.921 -0.4992 -0.4385 -0.6561
   28CHL1   H3' 2002   0.793   0.274   6.912 -0.2650  0.4349 -1.8348
   28CHL1    C4 2003   0.957   0.285   6.690 -0.4736  0.1787 -0.0392
   28CHL1   H4A 2004   0.867   0.343   6.661  0.6711  0.9800 -2.1521
   28CHL1   H4B 2005   1.031   0.359   6.729 -0.8782  1.3115 -1.3573
   28CHL1    C5 2006   1.008   0.198   6.570 -0.0524 -0.0406 -0.1455
   28CHL1    C6 2007   1.124   0.233   6.510 -0.2250  0.5661 -0.3266
   28CHL1    H6 2008   1.176   0.322   6.549  3.7147 -1.9884  0.7453
   28CHL1    C7 2009   1.173   0.162   6.389  0.4500  0.0953 -0.1503
   28CHL1   H7A 2010   1.227   0.234   6.324  3.6730 -1.5889  0.4752
   28CHL1   H7B 2011   1.250   0.089   6.420  2.3451  2.2093  0.4158
   28CHL1    C8 2012   1.063   0.074   6.326 -0.0323 -0.0632  0.4145
   28CHL1    H8 2013   0.989   0.140   6.276  0.0815  0.3106  0.7286
   28CHL1   C14 2014   1.126  -0.020   6.224  0.6779  0.0820  0.2320
   28CHL1   H14 2015   1.194  -0.091   6.276  0.8626  0.1531  0.0875
   28CHL1   C15 2016   1.225   0.041   6.118 -0.0469  0.1445  0.0276
   28CHL1  H15A 2017   1.167   0.129   6.084  0.1949  0.7808  1.1985
   28CHL1  H15B 2018   1.323   0.063   6.166  0.2834  0.3056 -0.7030
   28CHL1   C16 2019   1.237  -0.068   6.013 -0.0379 -0.4246 -0.2922
   28CHL1  H16A 2020   1.210  -0.039   5.910 -1.0576  2.0473  0.5974
   28CHL1  H16B 2021   1.334  -0.122   6.016 -0.2371 -0.8037  2.2870
   28CHL1   C17 2022   1.128  -0.181   6.045 -0.1633 -0.3613  0.3476
   28CHL1   H17 2023   1.190  -0.255   6.100  0.2786 -0.7332 -0.6312
   28CHL1   C13 2024   1.029  -0.111   6.143 -0.2720  0.4243 -0.3146
   28CHL1   C18 2025   0.919  -0.029   6.069  0.1357 -0.4243  0.1822
   28CHL1  H18A 2026   0.854  -0.090   6.004  0.6954 -0.5197 -0.2964
   28CHL1  H18B 2027   0.848   0.028   6.134  1.1429  0.8667  0.1952
   28CHL1  H18C 2028   0.965   0.045   6.000 -1.5865  0.1190 -0.4466
   28CHL1   C12 2029   0.964  -0.200   6.249 -0.5600 -0.2286 -0.1564
   28CHL1  H12A 2030   0.887  -0.274   6.218 -0.0698 -0.0019 -2.0160
   28CHL1  H12B 2031   1.049  -0.252   6.299 -0.3084 -0.3996 -0.7507
   28CHL1   C11 2032   0.894  -0.121   6.364 -0.0433 -0.6242  0.6886
   28CHL1  H11A 2033   0.801  -0.088   6.313 -1.1837 -0.3445  2.8244
   28CHL1  H11B 2034   0.858  -0.200   6.433 -0.9604 -2.1615 -1.4447
   28CHL1    C9 2035   0.988  -0.011   6.427  0.3242 -0.2706  0.0324
   28CHL1    H9 2036   1.064  -0.073   6.478 -0.6920 -1.1344  0.5508
   28CHL1   C10 2037   0.917   0.077   6.531 -0.8621 -0.2773 -0.0384
   28CHL1   C19 2038   0.789   0.147   6.468 -0.7537  0.4319  0.1144
   28CHL1  H19A 2039   0.808   0.221   6.388 -1.8382  2.0882  1.3272
   28CHL1  H19B 2040   0.709   0.071   6.449 -0.7581  0.6607 -0.8083
   28CHL1  H19C 2041   0.758   0.213   6.552  0.2632  0.4459  0.4934
   28CHL1    C1 2042   0.880  -0.005   6.656 -0.6442 -0.6164 -0.5223
   28CHL1   H1A 2043   0.798  -0.078   6.638  0.3305 -1.8217 -0.2353
   28CHL1   H1B 2044   0.973  -0.057   6.688 -1.0582  0.0343  1.9469
   28CHL1    C2 2045   0.832   0.084   6.777  0.0346  0.1177  0.5472
   28CHL1   H2A 2046   0.808   0.016   6.861 -1.4584  1.0245  0.8976
   28CHL1   H2B 2047   0.732   0.124   6.750  0.1012 -1.7977 -3.2501
   28CHL1   C20 2048   1.064  -0.259   5.921  0.2713 -0.4615  0.3689
   28CHL1   H20 2049   0.994  -0.187   5.873  2.2214  1.9949  1.0138
   28CHL1   C21 2050   0.989  -0.384   5.958  0.6663 -0.2513 -0.4634
   28CHL1  H21A 2051   0.958  -0.449   5.873 -1.7317  1.4464 -0.9720
   28CHL1  H21B 2052   0.902  -0.350   6.018  0.8761 -1.3758  0.5171
   28CHL1  H21C 2053   1.056  -0.445   6.023 -0.1673 -0.1760  0.4910
   28CHL1   C22 2054   1.164  -0.287   5.796 -0.0777  0.1989 -0.5315
   28CHL1  H22A 2055   1.106  -0.323   5.709  0.8372  0.7758 -1.4014
   28CHL1  H22B 2056   1.195  -0.186   5.761 -0.4635  0.4297 -0.2273
   28CHL1   C23 2057   1.284  -0.382   5.831  0.4517  0.4287  0.2763
   28CHL1  H23A 2058   1.333  -0.373   5.931  1.4804 -2.3627  0.1148
   28CHL1  H23B 2059   1.249  -0.487   5.824  0.4671  0.4590 -0.2966
   28CHL1   C24 2060   1.399  -0.362   5.731 -0.5106 -0.4649  0.4761
   28CHL1  H24A 2061   1.365  -0.389   5.628  1.5427  1.9636 -0.9596
   28CHL1  H24B 2062   1.410  -0.253   5.718 -1.8675 -0.3127  0.4509
   28CHL1   C25 2063   1.531  -0.423   5.771 -0.1129 -0.3490 -0.1265
   28CHL1   H25 2064   1.548  -0.403   5.879  0.7539  2.3788 -0.6986
   28CHL1   C26 2065   1.534  -0.569   5.748 -0.8581  0.4421 -0.1321
   28CHL1  H26A 2066   1.446  -0.626   5.784 -0.4239 -1.6147 -2.0886
   28CHL1  H26B 2067   1.546  -0.595   5.640  2.4823  2.2130 -0.3087
   28CHL1  H26C 2068   1.621  -0.616   5.798 -1.6078 -0.3261  0.4794
   28CHL1   C27 2069   1.658  -0.359   5.696 -0.0337 -0.4922 -0.5328
   28CHL1  H27A 2070   1.654  -0.249   5.712  1.4294 -0.4366 -0.4198
   28CHL1  H27B 2071   1.754  -0.401   5.733 -0.6493 -0.6158  0.9839
   28CHL1  H27C 2072   1.642  -0.371   5.587  0.4919  2.6081 -1.0580
   29CHL1    C3 2073   5.951   5.780   3.937 -0.8602  0.3829 -0.2768
   29CHL1    H3 2074   5.909   5.678   3.937  1.1949 -0.5227  0.7759
   29CHL1    O3 2075   5.940   5.851   3.809  0.0211 -0.1396 -0.0320
   29CHL1   H3' 2076   5.974   5.790   3.743 -0.7918  0.9926 -1.5461
   29CHL1    C4 2077   5.880   5.866   4.046 -0.1012  0.0786  0.1438
   29CHL1   H4A 2078   5.921   5.969   4.046  0.1262 -0.0089  1.0924
   29CHL1   H4B 2079   5.774   5.862   4.014 -1.2382  0.7759  3.4270
   29CHL1    C5 2080   5.908   5.794   4.180 -0.2151  0.0495 -0.5733
   29CHL1    C6 2081   5.803   5.755   4.255  0.1245 -0.0511  0.2333
   29CHL1    H6 2082   5.701   5.777   4.221  0.0633 -0.2698  0.2725
   29CHL1    C7 2083   5.814   5.679   4.378 -0.1935  0.0779 -0.3144
   29CHL1   H7A 2084   5.738   5.701   4.455  1.1794  0.4140  0.9862
   29CHL1   H7B 2085   5.804   5.570   4.357  0.3934  0.1860 -1.2561
   29CHL1    C8 2086   5.952   5.697   4.446  0.0440  0.8522 -0.4327
   29CHL1    H8 2087   5.967   5.801   4.482  1.5936  0.3145  0.5749
   29CHL1   C14 2088   5.964   5.606   4.567 -0.3729  0.3086  0.1718
   29CHL1   H14 2089   5.951   5.500   4.536 -2.1256 -0.7142  3.8657
   29CHL1   C15 2090   5.868   5.629   4.680 -0.1145  0.0896  0.1435
   29CHL1  H15A 2091   5.865   5.740   4.686  0.5014  0.1628 -0.6900
   29CHL1  H15B 2092   5.764   5.595   4.661 -0.0432  0.9457 -1.9827
   29CHL1   C16 2093   5.937   5.558   4.806  0.6970  0.6135  0.0249
   29CHL1  H16A 2094   5.946   5.630   4.890  2.5417 -1.1886  1.4799
   29CHL1  H16B 2095   5.875   5.469   4.833 -0.3134  0.6597 -1.9551
   29CHL1   C17 2096   6.087   5.531   4.767  0.3118  0.0186  0.2123
   29CHL1   H17 2097   6.085   5.427   4.729 -0.5608 -0.6047  1.8589
   29CHL1   C13 2098   6.106   5.622   4.638  0.7488 -0.2489  1.4445
   29CHL1   C18 2099   6.134   5.769   4.686 -0.2830  0.4321 -0.6232
   29CHL1  H18A 2100   6.099   5.847   4.615 -0.5953  2.6209  1.8034
   29CHL1  H18B 2101   6.079   5.786   4.781 -1.3913 -1.2412 -0.9088
   29CHL1  H18C 2102   6.239   5.804   4.695 -0.2936  0.9490 -2.1765
   29CHL1   C12 2103   6.200   5.574   4.535  0.3911 -1.1765  0.2644
   29CHL1  H12A 2104   6.301   5.594   4.578  1.0928 -0.4757 -1.6174
   29CHL1  H12B 2105   6.181   5.468   4.509 -3.1619 -0.7662  0.7267
   29CHL1   C11 2106   6.203   5.661   4.409 -0.0540  0.1613 -0.2307
   29CHL1  H11A 2107   6.252   5.757   4.436  1.9707 -0.9658  0.2897
   29CHL1  H11B 2108   6.264   5.615   4.328  0.2435 -0.7721  0.5073
   29CHL1    C9 2109   6.060   5.674   4.342 -0.1935  0.1094  0.2935
   29CHL1    H9 2110   6.035   5.568   4.318 -2.3980  0.4610  0.8043
   29CHL1   C10 2111   6.055   5.766   4.220  0.1418  0.0544 -0.0712
   29CHL1   C19 2112   6.113   5.909   4.257 -0.1505  0.6151  0.2675
   29CHL1  H19A 2113   6.111   5.978   4.170  0.1078 -0.0004 -0.2316
   29CHL1  H19B 2114   6.061   5.952   4.346 -2.1732  0.6045 -0.8716
   29CHL1  H19C 2115   6.218   5.888   4.287 -0.5102  0.3143  1.3654
   29CHL1    C1 2116   6.130   5.699   4.099  0.6076  0.3927 -0.6813
   29CHL1   H1A 2117   6.240   5.710   4.101  0.6729 -0.2955 -0.0303
   29CHL1   H1B 2118   6.107   5.591   4.099  2.3213 -0.0003 -0.4417
   29CHL1    C2 2119   6.103   5.764   3.969 -0.7019 -0.8765  0.2762
   29CHL1   H2A 2120   6.152   5.707   3.887 -2.6709 -1.3842 -0.6223
   29CHL1   H2B 2121   6.155   5.862   3.970 -0.8872 -0.7769  1.8418
   29CHL1   C20 2122   6.187   5.540   4.882  0.7786 -0.1564 -0.0282
   29CHL1   H20 2123   6.208   5.646   4.909  0.3517 -0.2215  0.6045
   29CHL1   C21 2124   6.322   5.479   4.846 -0.0985  0.6755 -0.3869
   29CHL1  H21A 2125   6.393   5.481   4.931  0.2508  2.2965 -0.6948
   29CHL1  H21B 2126   6.379   5.532   4.767  1.4923  0.9599  0.8881
   29CHL1  H21C 2127   6.309   5.376   4.807 -0.5956  1.4068 -2.2412
   29CHL1   C22 2128   6.137   5.471   5.011  0.1886  0.0307 -0.6031
   29CHL1  H22A 2129   6.037   5.499   5.050  1.3039  2.2418  0.8700
   29CHL1  H22B 2130   6.157   5.361   5.008 -1.0007 -0.1768 -1.9218
   29CHL1   C23 2131   6.216   5.504   5.133 -0.1969  0.2402  0.0676
   29CHL1  H23A 2132   6.324   5.480   5.123  0.2313  1.7855  0.6489
   29CHL1  H23B 2133   6.208   5.611   5.162 -0.8030 -0.2035  1.6539
   29CHL1   C24 2134   6.168   5.412   5.253 -0.0209 -0.2168  0.0266
   29CHL1  H24A 2135   6.061   5.433   5.275  0.0178 -1.4440  1.5645
   29CHL1  H24B 2136   6.155   5.306   5.221 -2.9278  0.6708 -2.2063
   29CHL1   C25 2137   6.253   5.416   5.382 -0.1829  0.4744 -0.1030
   29CHL1   H25 2138   6.269   5.523   5.408  1.3041  0.2823 -0.1369
   29CHL1   C26 2139   6.169   5.359   5.494 -0.7008  0.3095  0.3211
   29CHL1  H26A 2140   6.070   5.409   5.500 -0.8747 -0.1594  1.5381
   29CHL1  H26B 2141   6.147   5.252   5.478 -0.0560  0.0689  0.9973
   29CHL1  H26C 2142   6.228   5.361   5.588 -0.0774  2.3927 -0.0567
   29CHL1   C27 2143   6.388   5.345   5.374 -0.3983 -0.0373  0.0282
   29CHL1  H27A 2144   6.366   5.237   5.369  0.8408 -0.2550 -1.1952
   29CHL1  H27B 2145   6.452   5.377   5.289  1.1690 -2.3235  0.2724
   29CHL1  H27C 2146   6.448   5.360   5.467  0.8621 -0.6775 -0.6563
   30CHL1    C3 2147   2.468   1.523   3.712  0.2315 -0.7123  0.3039
   30CHL1    H3 2148   2.445   1.631   3.710  0.2280 -0.6735  1.8624
   30CHL1    O3 2149   2.453   1.468   3.582  0.3844  0.1672 -0.2116
   30CHL1   H3' 2150   2.478   1.375   3.574 -1.4010 -0.2305 -1.8052
   30CHL1    C4 2151   2.619   1.523   3.750 -0.0940 -0.1985  0.2302
   30CHL1   H4A 2152   2.666   1.424   3.735  1.8283  0.9499 -1.9454
   30CHL1   H4B 2153   2.662   1.594   3.676  0.8551  0.0359  0.9868
   30CHL1    C5 2154   2.652   1.555   3.889 -0.3759  0.5422  0.5369
   30CHL1    C6 2155   2.730   1.665   3.913 -0.9581  0.0339 -0.0905
   30CHL1    H6 2156   2.786   1.719   3.836 -1.0594  2.0660  1.1809
   30CHL1    C7 2157   2.762   1.710   4.053  0.3053 -1.2769  0.2624
   30CHL1   H7A 2158   2.869   1.725   4.077  0.1816 -1.4889  0.9764
   30CHL1   H7B 2159   2.706   1.803   4.073 -0.6221 -1.8848  0.5654
   30CHL1    C8 2160   2.722   1.605   4.163 -0.5420  0.0866 -0.4488
   30CHL1    H8 2161   2.794   1.520   4.164  1.5903  1.7654  1.5889
   30CHL1   C14 2162   2.729   1.669   4.299  0.0723  0.6971 -0.5283
   30CHL1   H14 2163   2.664   1.759   4.289  0.7864  0.9612 -3.7160
   30CHL1   C15 2164   2.861   1.724   4.342  0.4587 -0.1863  0.2296
   30CHL1  H15A 2165   2.938   1.653   4.304  0.9871  0.3145  0.3486
   30CHL1  H15B 2166   2.882   1.820   4.290 -0.1569  0.1949  0.6660
   30CHL1   C16 2167   2.855   1.732   4.488  0.2686 -0.4619 -1.0527
   30CHL1  H16A 2168   2.933   1.670   4.538  0.2298  0.3364  0.0353
   30CHL1  H16B 2169   2.867   1.827   4.544  0.5059 -0.2363 -1.4828
   30CHL1   C17 2170   2.711   1.671   4.534 -0.4265 -0.1688  0.0034
   30CHL1   H17 2171   2.646   1.760   4.520  0.0585  0.0647 -0.8393
   30CHL1   C13 2172   2.674   1.573   4.414  0.4281 -0.1786 -0.4067
   30CHL1   C18 2173   2.767   1.451   4.427  0.2449  0.7835  0.2660
   30CHL1  H18A 2174   2.754   1.393   4.333  0.9109  0.3755  0.4223
   30CHL1  H18B 2175   2.875   1.472   4.437  0.4631 -0.8992  2.0390
   30CHL1  H18C 2176   2.735   1.383   4.509 -0.4147  1.6770  0.7719
   30CHL1   C12 2177   2.527   1.546   4.384 -0.0024 -0.3201 -0.1446
   30CHL1  H12A 2178   2.481   1.473   4.454 -0.1742 -0.7360 -0.6838
   30CHL1  H12B 2179   2.472   1.642   4.388  1.3400  0.6236 -2.2581
   30CHL1   C11 2180   2.511   1.489   4.247  0.3964 -0.1737  0.0409
   30CHL1  H11A 2181   2.548   1.385   4.257 -1.7210 -0.8462  1.6224
   30CHL1  H11B 2182   2.400   1.481   4.234  0.1815 -0.1616  1.6443
   30CHL1    C9 2183   2.581   1.559   4.133 -0.0705  0.1904 -0.3397
   30CHL1    H9 2184   2.518   1.650   4.132 -2.0030 -1.0586  0.8142
   30CHL1   C10 2185   2.572   1.482   3.994  0.3243  0.2515 -0.0429
   30CHL1   C19 2186   2.639   1.344   4.004  0.0154 -0.4011  0.0794
   30CHL1  H19A 2187   2.735   1.346   4.061  1.5302 -0.0450 -2.3338
   30CHL1  H19B 2188   2.573   1.273   4.057 -0.4758  0.2802  0.4012
   30CHL1  H19C 2189   2.652   1.286   3.911  4.0426  1.3667 -0.7085
   30CHL1    C1 2190   2.419   1.479   3.951  0.3297 -0.3655  0.3576
   30CHL1   H1A 2191   2.347   1.436   4.023 -1.9914  1.5884 -0.6407
   30CHL1   H1B 2192   2.383   1.584   3.944  0.9534 -0.0025  2.1373
   30CHL1    C2 2193   2.382   1.439   3.809  0.3272  0.5175 -0.4964
   30CHL1   H2A 2194   2.274   1.450   3.788  0.0549  1.0056  1.0648
   30CHL1   H2B 2195   2.413   1.336   3.783  0.0572  0.7852 -2.0062
   30CHL1   C20 2196   2.700   1.625   4.676  0.1734  0.0611 -0.7037
   30CHL1   H20 2197   2.746   1.524   4.685 -0.1399  0.0672  1.2095
   30CHL1   C21 2198   2.543   1.619   4.700  0.2358 -1.0393  0.0316
   30CHL1  H21A 2199   2.525   1.591   4.806  2.6921  0.9295  1.0651
   30CHL1  H21B 2200   2.499   1.537   4.639  1.2518 -0.2527 -1.8326
   30CHL1  H21C 2201   2.491   1.716   4.686 -2.1252 -2.4283 -1.6786
   30CHL1   C22 2202   2.771   1.718   4.787  0.3394  0.1408  0.0721
   30CHL1  H22A 2203   2.880   1.707   4.767  0.1680  0.0134 -0.8124
   30CHL1  H22B 2204   2.738   1.823   4.769 -0.5083 -0.4413 -2.0263
   30CHL1   C23 2205   2.747   1.670   4.929 -0.4871  0.0181 -0.4929
   30CHL1  H23A 2206   2.641   1.646   4.947 -0.4185 -0.7745 -1.0506
   30CHL1  H23B 2207   2.802   1.574   4.943  0.8637  0.9297  0.7485
   30CHL1   C24 2208   2.785   1.780   5.031 -0.5371 -0.3060  0.3568
   30CHL1  H24A 2209   2.892   1.803   5.014 -0.9712  0.1376 -2.1468
   30CHL1  H24B 2210   2.728   1.873   5.008  1.2062  0.0871 -2.8154
   30CHL1   C25 2211   2.770   1.761   5.180 -0.0398  1.1268  0.0763
   30CHL1   H25 2212   2.672   1.715   5.205 -0.1701  1.6486  0.5367
   30CHL1   C26 2213   2.873   1.661   5.236 -0.3323 -1.0368 -0.8135
   30CHL1  H26A 2214   2.973   1.703   5.215 -1.2118  1.5001 -0.2907
   30CHL1  H26B 2215   2.868   1.654   5.347 -0.4286  0.5833 -0.6875
   30CHL1  H26C 2216   2.876   1.558   5.195  1.6492 -0.4699 -2.2500
   30CHL1   C27 2217   2.785   1.892   5.255  0.5356  0.1420 -0.2238
   30CHL1  H27A 2218   2.767   1.878   5.363 -3.1673  1.0589 -0.5747
   30CHL1  H27B 2219   2.879   1.945   5.233 -0.3363  1.7207 -0.2594
   30CHL1  H27C 2220   2.692   1.945   5.225 -0.2921 -0.1086  1.7755
   31CHL1    C3 2221   3.516   0.228   3.538 -0.0201 -0.4799 -0.0328
   31CHL1    H3 2222   3.413   0.249   3.573 -0.5977 -0.5842 -1.5791
   31CHL1    O3 2223   3.527   0.229   3.395 -0.4305  0.1908  0.5933
   31CHL1   H3' 2224   3.498   0.141   3.370 -0.1608  0.3002 -0.1530
   31CHL1    C4 2225   3.602   0.345   3.582  0.2633  0.3183 -1.0395
   31CHL1   H4A 2226   3.699   0.345   3.528  1.4589 -3.3232  0.7512
   31CHL1   H4B 2227   3.545   0.432   3.544 -1.2630 -0.2998 -0.2796
   31CHL1    C5 2228   3.640   0.343   3.727 -0.0278  0.4902 -0.7794
   31CHL1    C6 2229   3.616   0.458   3.798 -0.2627 -0.5087 -0.1047
   31CHL1    H6 2230   3.594   0.552   3.745  1.8403 -0.2453 -0.5790
   31CHL1    C7 2231   3.631   0.477   3.942  0.0809  0.1798  0.1596
   31CHL1   H7A 2232   3.673   0.576   3.971 -0.1577  0.5266 -0.6442
   31CHL1   H7B 2233   3.528   0.468   3.981 -0.1834  0.4550 -0.4628
   31CHL1    C8 2234   3.691   0.354   4.013 -0.3056  0.3968  0.0003
   31CHL1    H8 2235   3.799   0.363   3.991 -0.3847  1.8232  0.0982
   31CHL1   C14 2236   3.662   0.362   4.161  0.0464  0.4316  0.3086
   31CHL1   H14 2237   3.553   0.347   4.178  0.4046 -0.3457  2.1025
   31CHL1   C15 2238   3.688   0.497   4.222  0.4510 -1.2011 -0.6469
   31CHL1  H15A 2239   3.775   0.560   4.195 -0.2856  1.2863  2.2047
   31CHL1  H15B 2240   3.594   0.555   4.209  0.4651 -1.4696 -2.0305
   31CHL1   C16 2241   3.693   0.457   4.378 -0.0071 -0.7898  0.3854
   31CHL1  H16A 2242   3.778   0.500   4.435  0.4199 -0.1026 -0.7277
   31CHL1  H16B 2243   3.598   0.493   4.424 -0.5874 -0.3596 -1.0946
   31CHL1   C17 2244   3.695   0.302   4.388 -0.7013  0.1944  0.3136
   31CHL1   H17 2245   3.588   0.275   4.407  0.5241 -3.4423  3.1814
   31CHL1   C13 2246   3.727   0.257   4.248  0.3438  0.1889  0.5780
   31CHL1   C18 2247   3.879   0.261   4.226  1.0035 -0.8947  0.2663
   31CHL1  H18A 2248   3.906   0.277   4.120 -3.4971  2.7962 -0.6478
   31CHL1  H18B 2249   3.904   0.357   4.275 -1.3181 -0.6579  1.1353
   31CHL1  H18C 2250   3.928   0.170   4.266  0.6494  0.0461  3.0758
   31CHL1   C12 2251   3.662   0.125   4.200 -0.6326  0.8361  0.5908
   31CHL1  H12A 2252   3.706   0.039   4.254  0.4177  0.6547 -0.5019
   31CHL1  H12B 2253   3.552   0.113   4.214 -0.4767  1.3626  2.7056
   31CHL1   C11 2254   3.676   0.103   4.041  0.0337  0.3913 -0.0130
   31CHL1  H11A 2255   3.786   0.090   4.039  0.0897  0.1244  2.5540
   31CHL1  H11B 2256   3.626   0.008   4.013 -1.1865 -0.0981  3.3933
   31CHL1    C9 2257   3.627   0.226   3.957  0.4918  0.5026  0.1027
   31CHL1    H9 2258   3.517   0.235   3.963  0.4201  1.5804 -1.8865
   31CHL1   C10 2259   3.656   0.211   3.804  0.1860  0.2821 -0.0031
   31CHL1   C19 2260   3.803   0.174   3.778 -0.3949 -0.9055  0.3569
   31CHL1  H19A 2261   3.833   0.071   3.806  0.7232 -1.0001 -1.0245
   31CHL1  H19B 2262   3.828   0.176   3.669  2.4131 -0.1334  0.9288
   31CHL1  H19C 2263   3.876   0.244   3.825 -0.9817  1.6513 -2.1990
   31CHL1    C1 2264   3.557   0.098   3.742  0.9508 -0.2831 -0.7145
   31CHL1   H1A 2265   3.575  -0.003   3.782 -0.6310 -0.2714  0.1024
   31CHL1   H1B 2266   3.456   0.134   3.769  1.0405  0.2680 -1.0775
   31CHL1    C2 2267   3.555   0.097   3.585  0.3006  0.7596 -0.8622
   31CHL1   H2A 2268   3.479   0.018   3.569  1.9593 -0.8765 -1.0041
   31CHL1   H2B 2269   3.649   0.063   3.536  1.2694  1.3894  0.4975
   31CHL1   C20 2270   3.785   0.251   4.508  0.0077  0.1261  0.3065
   31CHL1   H20 2271   3.885   0.291   4.483  0.6086 -0.9921  0.8459
   31CHL1   C21 2272   3.800   0.100   4.516  0.1645  0.1434 -0.4376
   31CHL1  H21A 2273   3.816   0.075   4.623  0.4660  1.6419 -0.1038
   31CHL1  H21B 2274   3.887   0.071   4.453  1.8542 -1.1598  2.3102
   31CHL1  H21C 2275   3.703   0.051   4.492 -0.5212  0.6782  1.0895
   31CHL1   C22 2276   3.727   0.310   4.640 -0.0150 -0.2020 -0.1016
   31CHL1  H22A 2277   3.807   0.273   4.708  1.6973  0.7614 -1.5148
   31CHL1  H22B 2278   3.745   0.419   4.644  1.0148 -0.3933  1.4866
   31CHL1   C23 2279   3.581   0.260   4.687 -0.1144 -0.0657  0.7190
   31CHL1  H23A 2280   3.508   0.322   4.631  2.6233  3.6904  0.9132
   31CHL1  H23B 2281   3.565   0.150   4.675 -2.2158  0.2543  0.1963
   31CHL1   C24 2282   3.546   0.289   4.836 -0.0977 -0.2741  0.4097
   31CHL1  H24A 2283   3.526   0.394   4.866 -2.1957 -0.6005  0.2805
   31CHL1  H24B 2284   3.447   0.243   4.854  0.1720 -0.7538  0.6892
   31CHL1   C25 2285   3.643   0.222   4.943 -0.7799 -0.7146 -0.4799
   31CHL1   H25 2286   3.735   0.285   4.950 -0.6728 -0.9205 -0.0016
   31CHL1   C26 2287   3.575   0.224   5.077  0.4480 -0.1252 -0.6322
   31CHL1  H26A 2288   3.642   0.181   5.154 -0.0322 -0.4607 -0.3984
   31CHL1  H26B 2289   3.561   0.327   5.115  1.5689 -0.4180  0.6608
   31CHL1  H26C 2290   3.484   0.161   5.082  1.1424 -1.3122 -1.8536
   31CHL1   C27 2291   3.682   0.075   4.915  0.3827  0.1495  0.3966
   31CHL1  H27A 2292   3.592   0.018   4.883 -0.8073  1.6121  1.0168
   31CHL1  H27B 2293   3.751   0.081   4.829  2.0155  0.0249  1.6596
   31CHL1  H27C 2294   3.726   0.031   5.007 -1.8026  0.8892  1.8959
   32CHL1    C3 2295   0.904   5.263   4.299  0.7201 -0.3697  0.5343
   32CHL1    H3 2296   0.979   5.345   4.301 -0.6284  0.8940  2.1149
   32CHL1    O3 2297   0.882   5.233   4.163  0.0784 -0.7564  0.2075
   32CHL1   H3' 2298   0.842   5.147   4.177  0.5420 -0.7484  1.7566
   32CHL1    C4 2299   0.956   5.139   4.374 -1.0899  0.3215 -0.2482
   32CHL1   H4A 2300   0.893   5.052   4.346 -0.4646 -0.1765 -0.1396
   32CHL1   H4B 2301   1.056   5.122   4.327 -1.2989  2.2700 -1.5204
   32CHL1    C5 2302   0.978   5.146   4.521  0.3490 -0.0027  0.3126
   32CHL1    C6 2303   1.092   5.108   4.588 -0.1223 -0.5092  0.5318
   32CHL1    H6 2304   1.181   5.071   4.536 -0.0529 -0.7685  0.8332
   32CHL1    C7 2305   1.106   5.123   4.734  0.3377  0.1576  0.5742
   32CHL1   H7A 2306   1.137   5.027   4.780 -1.2488  0.3031  2.0067
   32CHL1   H7B 2307   1.189   5.194   4.756  0.2907  0.4343 -0.1108
   32CHL1    C8 2308   0.987   5.170   4.824 -0.0362  0.2955  0.3892
   32CHL1    H8 2309   0.913   5.088   4.837 -1.9740  1.9637  0.4591
   32CHL1   C14 2310   1.028   5.224   4.963 -0.0313  0.5404 -0.7673
   32CHL1   H14 2311   1.093   5.309   4.935  0.7911  0.5416  0.9660
   32CHL1   C15 2312   1.122   5.142   5.056 -0.2491  0.7022  0.2072
   32CHL1  H15A 2313   1.082   5.039   5.047  1.2934  0.1683 -0.9495
   32CHL1  H15B 2314   1.231   5.144   5.032 -0.3904 -0.2820 -0.5722
   32CHL1   C16 2315   1.101   5.202   5.201 -0.2929  0.4300  0.0690
   32CHL1  H16A 2316   1.072   5.117   5.267  0.0245  0.1362 -0.1703
   32CHL1  H16B 2317   1.188   5.255   5.246 -1.7321  2.7488  0.2578
   32CHL1   C17 2318   0.988   5.302   5.180  0.4233 -0.6965 -0.2555
   32CHL1   H17 2319   1.046   5.392   5.149  3.0104 -1.8619  0.8792
   32CHL1   C13 2320   0.913   5.262   5.049  0.6651 -0.8205  0.2236
   32CHL1   C18 2321   0.819   5.152   5.101  0.2008 -0.1641  0.3990
   32CHL1  H18A 2322   0.752   5.113   5.021 -0.8250 -0.4349  1.3598
   32CHL1  H18B 2323   0.874   5.068   5.149 -0.1620 -1.4940 -1.3575
   32CHL1  H18C 2324   0.754   5.197   5.178 -2.6900  1.1254 -2.5564
   32CHL1   C12 2325   0.839   5.377   4.963 -0.2483  0.2422  0.0047
   32CHL1  H12A 2326   0.754   5.417   5.023 -0.7888  1.0376 -1.2561
   32CHL1  H12B 2327   0.915   5.457   4.954  0.1308 -0.1873 -0.7324
   32CHL1   C11 2328   0.790   5.324   4.826 -0.3155 -0.7896 -0.9385
   32CHL1  H11A 2329   0.715   5.245   4.848 -1.2657  0.0937 -0.9563
   32CHL1  H11B 2330   0.734   5.403   4.773 -0.1250 -0.3497 -0.4897
   32CHL1    C9 2331   0.902   5.265   4.731  0.2322 -0.4324 -0.3119
   32CHL1    H9 2332   0.978   5.341   4.703 -0.0569 -0.5161 -1.3932
   32CHL1   C10 2333   0.857   5.210   4.597  0.1141  0.6593 -0.5402
   32CHL1   C19 2334   0.754   5.100   4.616 -0.1081 -0.2725 -0.5622
   32CHL1  H19A 2335   0.666   5.143   4.669  0.5024  2.2468 -1.4448
   32CHL1  H19B 2336   0.710   5.074   4.518 -0.4093 -1.0765 -0.2183
   32CHL1  H19C 2337   0.788   5.005   4.663 -0.9938 -1.3274 -1.9995
   32CHL1    C1 2338   0.792   5.326   4.511 -0.2472 -0.2088 -0.4814
   32CHL1   H1A 2339   0.702   5.362   4.565  0.5736 -1.7473  2.1243
   32CHL1   H1B 2340   0.870   5.405   4.521 -0.0155 -0.4973  0.0534
   32CHL1    C2 2341   0.773   5.297   4.358 -0.2604  0.2571  0.4430
   32CHL1   H2A 2342   0.728   5.386   4.309 -1.5545 -0.4184  0.3732
   32CHL1   H2B 2343   0.700   5.214   4.342 -2.2201  2.0383 -0.3324
   32CHL1   C20 2344   0.923   5.347   5.313 -0.9786  0.0044 -0.2023
   32CHL1   H20 2345   0.894   5.253   5.366 -0.3901  0.6034  1.2395
   32CHL1   C21 2346   0.790   5.433   5.294 -0.3442 -0.1856  0.0884
   32CHL1  H21A 2347   0.723   5.390   5.217 -0.5775  1.2442 -0.5417
   32CHL1  H21B 2348   0.804   5.535   5.253 -1.9373  0.6458  1.4431
   32CHL1  H21C 2349   0.738   5.441   5.393  0.1332 -3.2103  0.6883
   32CHL1   C22 2350   1.017   5.420   5.414 -0.3644  0.5411  0.3860
   32CHL1  H22A 2351   1.118   5.376   5.422  0.0872  1.7522  1.8357
   32CHL1  H22B 2352   1.022   5.530   5.396  0.2958  0.6930  1.4321
   32CHL1   C23 2353   0.966   5.406   5.562 -0.3209 -0.3817  0.4513
   32CHL1  H23A 2354   0.861   5.442   5.574 -0.8950  0.2330 -4.3564
   32CHL1  H23B 2355   0.955   5.298   5.586 -0.2607 -1.0163 -2.0556
   32CHL1   C24 2356   1.072   5.452   5.671 -0.4961 -0.1646 -0.1797
   32CHL1  H24A 2357   1.108   5.356   5.713 -0.3852 -0.7801 -1.6276
   32CHL1  H24B 2358   1.158   5.503   5.623 -0.8403 -1.0352 -1.7637
   32CHL1   C25 2359   1.012   5.538   5.777  0.5064 -0.4906  0.6528
   32CHL1   H25 2360   0.937   5.483   5.839  0.7173 -1.2525  0.2393
   32CHL1   C26 2361   1.125   5.591   5.861 -0.9212 -0.7432  0.7401
   32CHL1  H26A 2362   1.185   5.511   5.909  0.1561 -0.3674  0.0418
   32CHL1  H26B 2363   1.201   5.647   5.803 -0.2601 -0.9718  1.3833
   32CHL1  H26C 2364   1.101   5.650   5.951  0.5926  0.5036  0.3637
   32CHL1   C27 2365   0.928   5.662   5.731 -0.3104  0.0636 -0.2393
   32CHL1  H27A 2366   0.848   5.634   5.659  0.7434  2.2667 -2.4179
   32CHL1  H27B 2367   0.891   5.702   5.827 -0.4021  0.1770 -0.3218
   32CHL1  H27C 2368   0.992   5.740   5.684 -2.1374  1.1836 -0.9536
   33CHL1    C3 2369   0.706   5.778   4.092  0.2106  0.0701 -0.5412
   33CHL1    H3 2370   0.757   5.877   4.085  0.6506 -0.1399 -0.3825
   33CHL1    O3 2371   0.691   5.744   3.954 -0.0177  0.1254 -0.4030
   33CHL1   H3' 2372   0.675   5.649   3.947 -0.4544  0.1505  0.1717
   33CHL1    C4 2373   0.778   5.676   4.172  0.0490 -0.0516  0.4171
   33CHL1   H4A 2374   0.724   5.578   4.168 -0.8397  0.3631  1.6368
   33CHL1   H4B 2375   0.879   5.652   4.134  0.4748  0.1946  1.3908
   33CHL1    C5 2376   0.789   5.728   4.317  0.5398  0.0733 -0.3295
   33CHL1    C6 2377   0.904   5.716   4.383 -0.4144  0.2173  0.6362
   33CHL1    H6 2378   0.995   5.685   4.330 -1.1806  0.4742 -0.8733
   33CHL1    C7 2379   0.921   5.744   4.528  0.2378 -0.5894 -0.2125
   33CHL1   H7A 2380   0.966   5.655   4.578 -1.4984 -1.4682 -0.1392
   33CHL1   H7B 2381   0.971   5.838   4.557 -3.0640  0.7467  1.6614
   33CHL1    C8 2382   0.781   5.766   4.602 -0.3795  0.0235  0.3324
   33CHL1    H8 2383   0.740   5.666   4.625  1.8321 -0.6722  1.5954
   33CHL1   C14 2384   0.792   5.833   4.743  0.2779 -0.2897  0.2355
   33CHL1   H14 2385   0.841   5.930   4.719  1.6250 -1.2909 -1.2986
   33CHL1   C15 2386   0.895   5.776   4.841  0.3608 -0.2546  0.6332
   33CHL1  H15A 2387   0.890   5.665   4.844 -0.6090 -0.1983  1.7121
   33CHL1  H15B 2388   0.999   5.805   4.814 -0.5546  1.6308 -1.1926
   33CHL1   C16 2389   0.848   5.824   4.977  0.4133  0.6186 -0.2343
   33CHL1  H16A 2390   0.835   5.736   5.043  1.3778  1.2590  0.8475
   33CHL1  H16B 2391   0.930   5.887   5.019  1.0842 -0.9318  0.8624
   33CHL1   C17 2392   0.715   5.911   4.946 -0.0073  0.2256 -0.2503
   33CHL1   H17 2393   0.750   6.015   4.926 -1.2985  0.2478 -2.7297
   33CHL1   C13 2394   0.663   5.856   4.814  0.1480 -0.2582 -0.8714
   33CHL1   C18 2395   0.591   5.713   4.841  0.7335 -0.8827 -0.1625
   33CHL1  H18A 2396   0.669   5.647   4.884  1.9347  0.7338  0.2273
   33CHL1  H18B 2397   0.509   5.726   4.914  2.8301  1.8860  1.9156
   33CHL1  H18C 2398   0.561   5.666   4.745 -0.4676 -0.9883  0.2479
   33CHL1   C12 2399   0.580   5.950   4.731 -0.1107 -0.3878  0.1475
   33CHL1  H12A 2400   0.493   6.001   4.777  1.1104  0.4072  1.6479
   33CHL1  H12B 2401   0.634   6.043   4.705 -0.3889 -0.2703 -0.0181
   33CHL1   C11 2402   0.550   5.887   4.593  0.1430  0.3705 -0.3124
   33CHL1  H11A 2403   0.488   5.795   4.603  1.4036 -0.4876 -0.0477
   33CHL1  H11B 2404   0.493   5.959   4.530  2.0473  0.1934 -2.3916
   33CHL1    C9 2405   0.683   5.846   4.516 -0.3261 -0.6832  0.5658
   33CHL1    H9 2406   0.721   5.947   4.490 -0.3618 -1.3578 -2.3477
   33CHL1   C10 2407   0.653   5.772   4.383 -0.6848  0.1973  0.1991
   33CHL1   C19 2408   0.570   5.650   4.410  0.5640  1.3662 -0.0501
   33CHL1  H19A 2409   0.592   5.573   4.332 -0.4576  2.3476 -1.3625
   33CHL1  H19B 2410   0.590   5.601   4.507 -1.1951 -1.1309 -0.8587
   33CHL1  H19C 2411   0.463   5.675   4.397  0.2457  0.1654  0.1853
   33CHL1    C1 2412   0.575   5.863   4.285  0.2841  0.3538 -0.5652
   33CHL1   H1A 2413   0.472   5.885   4.323  0.0201  3.0289 -2.5079
   33CHL1   H1B 2414   0.625   5.961   4.273 -0.1006  0.5316 -0.7407
   33CHL1    C2 2415   0.567   5.804   4.148 -0.6511 -0.0478  0.2455
   33CHL1   H2A 2416   0.518   5.882   4.086  0.9928  1.6770  0.9838
   33CHL1   H2B 2417   0.507   5.711   4.152 -0.4567 -0.1442  1.0939
   33CHL1   C20 2418   0.628   5.922   5.073 -0.2101 -0.4174 -0.4318
   33CHL1   H20 2419   0.579   5.824   5.091 -2.0158  0.6309  0.6515
   33CHL1   C21 2420   0.516   6.022   5.061 -0.3197 -0.8533 -0.0455
   33CHL1  H21A 2421   0.449   5.984   4.980 -1.8758  0.1317  0.7394
   33CHL1  H21B 2422   0.551   6.121   5.027  0.3300 -1.2608 -0.6027
   33CHL1  H21C 2423   0.443   6.023   5.144  0.0409 -2.0851  0.3220
   33CHL1   C22 2424   0.709   5.948   5.202  0.2489  0.9182 -0.1089
   33CHL1  H22A 2425   0.785   5.868   5.214  0.3043  0.8169 -1.0249
   33CHL1  H22B 2426   0.763   6.044   5.191  1.5160  0.2168 -0.2193
   33CHL1   C23 2427   0.625   5.954   5.329  0.6282  0.0942 -0.1515
   33CHL1  H23A 2428   0.545   6.032   5.325  1.7995  1.3066 -0.9007
   33CHL1  H23B 2429   0.568   5.864   5.360  1.8621 -0.5771  0.1883
   33CHL1   C24 2430   0.716   6.001   5.449  1.1546  0.2881  1.6962
   33CHL1  H24A 2431   0.785   5.914   5.455 -0.1914 -1.0230 -0.5449
   33CHL1  H24B 2432   0.774   6.090   5.416  0.1110  0.1520 -0.6311
   33CHL1   C25 2433   0.632   6.036   5.571 -0.2119 -0.6954  0.5069
   33CHL1   H25 2434   0.571   6.123   5.540  0.2870 -0.6749 -0.4763
   33CHL1   C26 2435   0.531   5.931   5.614  0.3584 -0.0959  0.0130
   33CHL1  H26A 2436   0.452   5.916   5.537  1.1470 -1.7588 -0.5299
   33CHL1  H26B 2437   0.578   5.833   5.637  0.2109 -0.0110  0.6953
   33CHL1  H26C 2438   0.483   5.956   5.710 -1.1292 -1.5310 -0.3162
   33CHL1   C27 2439   0.727   6.069   5.694  0.0219 -0.2984  0.2428
   33CHL1  H27A 2440   0.801   6.146   5.662  1.5397 -1.7882  0.0233
   33CHL1  H27B 2441   0.682   6.117   5.783 -0.1703 -0.4391  0.2225
   33CHL1  H27C 2442   0.787   5.981   5.725 -1.8248 -1.4298  0.7823
   34CHL1    C3 2443   4.169   6.103   3.755 -0.0451  0.0896  0.4959
   34CHL1    H3 2444   4.273   6.069   3.772 -0.2811 -0.6186  0.5603
   34CHL1    O3 2445   4.144   6.104   3.614  0.1204 -0.5000  0.3224
   34CHL1   H3' 2446   4.214   6.153   3.571  0.3265 -1.2580 -0.2281
   34CHL1    C4 2447   4.067   6.007   3.818 -0.0214 -0.6111 -0.2870
   34CHL1   H4A 2448   3.969   6.051   3.788  0.0656 -1.1692 -1.4425
   34CHL1   H4B 2449   4.078   5.908   3.769  2.1588 -0.5002 -0.1129
   34CHL1    C5 2450   4.085   5.999   3.965 -0.3285  0.6093 -0.2543
   34CHL1    C6 2451   4.113   5.887   4.027  0.5389  0.8161  0.7544
   34CHL1    H6 2452   4.118   5.794   3.969  1.3226  1.5312 -0.3651
   34CHL1    C7 2453   4.115   5.871   4.172  0.4149 -0.0637 -0.3891
   34CHL1   H7A 2454   4.050   5.788   4.207 -0.4658 -0.1676 -2.1479
   34CHL1   H7B 2455   4.218   5.840   4.199  0.9239  0.2677 -1.8440
   34CHL1    C8 2456   4.070   5.995   4.247 -0.2306  0.2505  0.0155
   34CHL1    H8 2457   3.960   5.996   4.258 -0.1848  1.2665  0.5707
   34CHL1   C14 2458   4.134   5.994   4.389  0.8392  0.5744  0.6939
   34CHL1   H14 2459   4.244   5.989   4.390  0.8896 -1.5112  4.2852
   34CHL1   C15 2460   4.099   5.869   4.477 -0.1407 -0.3538 -0.3524
   34CHL1  H15A 2461   3.991   5.843   4.484 -0.4152  0.7486 -0.2475
   34CHL1  H15B 2462   4.167   5.790   4.440  1.5844 -0.3714  2.5907
   34CHL1   C16 2463   4.141   5.915   4.617 -0.3445  0.5391 -0.3528
   34CHL1  H16A 2464   4.063   5.882   4.689 -0.8625 -0.5087 -1.3556
   34CHL1  H16B 2465   4.239   5.872   4.647 -2.0555 -1.2981  3.1703
   34CHL1   C17 2466   4.168   6.074   4.614 -0.1838  0.9095 -0.7318
   34CHL1   H17 2467   4.277   6.090   4.598 -0.3313  2.8659 -0.0308
   34CHL1   C13 2468   4.104   6.113   4.478  0.4213 -0.0703  0.3635
   34CHL1   C18 2469   3.953   6.127   4.512 -0.6778 -0.3262 -0.0981
   34CHL1  H18A 2470   3.931   6.223   4.563  3.8244 -0.2133  2.0714
   34CHL1  H18B 2471   3.887   6.110   4.424 -1.3500  1.7569 -0.0479
   34CHL1  H18C 2472   3.922   6.053   4.589 -3.2549 -1.6508 -2.2415
   34CHL1   C12 2473   4.146   6.237   4.406 -0.3230  0.0407  0.3947
   34CHL1  H12A 2474   4.109   6.332   4.451  0.9377  1.8356 -2.0462
   34CHL1  H12B 2475   4.257   6.236   4.395 -0.3449 -2.7598 -0.0988
   34CHL1   C11 2476   4.086   6.243   4.264 -0.0511  0.3310  0.7692
   34CHL1  H11A 2477   3.977   6.261   4.275 -0.1756  0.2222 -0.2253
   34CHL1  H11B 2478   4.136   6.333   4.224 -0.6427  1.2268  1.9666
   34CHL1    C9 2479   4.122   6.121   4.181 -0.5094  0.7663  0.7875
   34CHL1    H9 2480   4.231   6.100   4.176 -0.5333  0.9968 -1.7753
   34CHL1   C10 2481   4.086   6.133   4.031  0.8949 -0.1884  0.3706
   34CHL1   C19 2482   3.939   6.192   4.023  0.1697  0.6142 -0.8138
   34CHL1  H19A 2483   3.869   6.129   4.082  1.4611  0.3050  0.4192
   34CHL1  H19B 2484   3.928   6.297   4.056  0.2781  1.1114 -2.2881
   34CHL1  H19C 2485   3.899   6.189   3.919  0.9689 -0.5503 -1.1140
   34CHL1    C1 2486   4.184   6.239   3.966  0.1244  0.3316  0.4312
   34CHL1   H1A 2487   4.155   6.341   4.001  0.4592  0.4752  0.2945
   34CHL1   H1B 2488   4.284   6.202   3.996  0.0636 -1.1210 -1.0415
   34CHL1    C2 2489   4.153   6.246   3.814  0.4426  0.1025 -0.4199
   34CHL1   H2A 2490   4.225   6.312   3.761 -0.7759  0.5686 -1.5696
   34CHL1   H2B 2491   4.049   6.283   3.800  0.6396  0.8781  0.1779
   34CHL1   C20 2492   4.130   6.142   4.750 -0.0614  0.0636 -0.1872
   34CHL1   H20 2493   4.020   6.138   4.768  0.1842  0.9367  1.8995
   34CHL1   C21 2494   4.165   6.293   4.752  0.5867  0.1502  0.3872
   34CHL1  H21A 2495   4.100   6.339   4.674  1.0049  1.3418  0.7244
   34CHL1  H21B 2496   4.256   6.321   4.694  1.1792 -1.5497  0.4299
   34CHL1  H21C 2497   4.170   6.341   4.852  0.0752 -1.0354  1.0062
   34CHL1   C22 2498   4.176   6.066   4.878  0.4746 -0.8684  0.0462
   34CHL1  H22A 2499   4.145   5.960   4.871  1.1468 -1.0434 -0.3756
   34CHL1  H22B 2500   4.287   6.074   4.887  0.4011  0.8658 -0.1374
   34CHL1   C23 2501   4.127   6.117   5.020  0.0388 -0.5475 -0.4490
   34CHL1  H23A 2502   4.139   6.228   5.026  0.9832 -0.6089 -0.9637
   34CHL1  H23B 2503   4.017   6.108   5.030 -0.1555 -0.6807 -2.2979
   34CHL1   C24 2504   4.186   6.028   5.131  0.0151  0.0167 -0.4179
   34CHL1  H24A 2505   4.143   6.036   5.233 -0.9745  3.2248 -0.9680
   34CHL1  H24B 2506   4.181   5.923   5.094  2.6888 -0.6160  0.7456
   34CHL1   C25 2507   4.337   6.057   5.160  0.1456 -0.3425 -0.2997
   34CHL1   H25 2508   4.380   6.097   5.067  3.1664 -4.1216 -0.7828
   34CHL1   C26 2509   4.353   6.169   5.263 -0.0351  0.3745  0.4917
   34CHL1  H26A 2510   4.459   6.201   5.274 -0.2573  1.5664 -0.6308
   34CHL1  H26B 2511   4.291   6.259   5.242  0.1776  0.3296 -0.3573
   34CHL1  H26C 2512   4.318   6.123   5.358 -0.5098  0.8275  0.5376
   34CHL1   C27 2513   4.418   5.936   5.191  0.2122  0.4644 -0.1365
   34CHL1  H27A 2514   4.361   5.865   5.254  1.2673  0.0087  0.3311
   34CHL1  H27B 2515   4.445   5.890   5.093  0.8328  0.8507 -0.1517
   34CHL1  H27C 2516   4.502   5.977   5.251  0.9177 -0.3050 -0.5895
   35CHL1    C3 2517   0.261   1.513   3.698 -0.0647  0.4117 -0.0049
   35CHL1    H3 2518   0.286   1.613   3.739 -0.1399  0.2343  0.4895
   35CHL1    O3 2519   0.249   1.537   3.559  0.5870 -0.2753  0.5119
   35CHL1   H3' 2520   0.234   1.452   3.517 -0.6107  0.4073 -0.5247
   35CHL1    C4 2521   0.369   1.414   3.726 -0.7214  0.0325  0.0002
   35CHL1   H4A 2522   0.342   1.320   3.673  1.5035 -0.3829 -0.5194
   35CHL1   H4B 2523   0.462   1.448   3.675 -0.3028 -0.5459  0.3565
   35CHL1    C5 2524   0.389   1.381   3.873  0.0550 -0.1694 -0.4193
   35CHL1    C6 2525   0.506   1.414   3.926  0.3542 -0.5349  0.3640
   35CHL1    H6 2526   0.581   1.458   3.859 -1.8345  1.0064 -1.2223
   35CHL1    C7 2527   0.543   1.390   4.070 -0.5116 -0.8126  0.5418
   35CHL1   H7A 2528   0.645   1.346   4.073  0.0613  0.5186  0.8573
   35CHL1   H7B 2529   0.542   1.489   4.120 -0.6805  1.7595 -4.0392
   35CHL1    C8 2530   0.445   1.296   4.143  0.3815 -0.6178  0.2662
   35CHL1    H8 2531   0.456   1.198   4.091 -0.9866  0.2893 -1.8845
   35CHL1   C14 2532   0.478   1.289   4.294  0.0538  0.6271 -0.3254
   35CHL1   H14 2533   0.468   1.394   4.329 -0.0947  0.2783  0.6968
   35CHL1   C15 2534   0.613   1.238   4.338  0.2069 -0.6090 -0.2506
   35CHL1  H15A 2535   0.643   1.158   4.266 -0.4489  1.0761 -2.4860
   35CHL1  H15B 2536   0.696   1.312   4.333 -1.4408  1.2354 -1.3622
   35CHL1   C16 2537   0.590   1.182   4.482  0.6759 -0.1025  0.2690
   35CHL1  H16A 2538   0.614   1.074   4.492 -0.2049 -0.3827 -0.4930
   35CHL1  H16B 2539   0.637   1.243   4.562 -0.3388  1.3082 -0.1761
   35CHL1   C17 2540   0.436   1.216   4.513 -0.1565 -0.0740  0.4688
   35CHL1   H17 2541   0.427   1.316   4.559  1.8378  0.7291 -0.7532
   35CHL1   C13 2542   0.373   1.210   4.372 -0.0362 -0.9351 -0.1151
   35CHL1   C18 2543   0.372   1.063   4.317 -0.1543 -0.3310  0.1570
   35CHL1  H18A 2544   0.280   1.013   4.353  0.3884 -1.0045  0.6552
   35CHL1  H18B 2545   0.351   1.061   4.208  0.0664 -1.3934  0.1206
   35CHL1  H18C 2546   0.460   0.999   4.340  0.2982  0.7809  1.6734
   35CHL1   C12 2547   0.239   1.283   4.345 -0.2859  0.7948 -0.2670
   35CHL1  H12A 2548   0.158   1.234   4.402  0.3099  0.5691  0.4060
   35CHL1  H12B 2549   0.236   1.387   4.383 -1.0997  0.6442  0.1048
   35CHL1   C11 2550   0.200   1.272   4.200 -0.5266  0.1822 -0.1907
   35CHL1  H11A 2551   0.189   1.171   4.154 -0.8725  0.4948 -0.7949
   35CHL1  H11B 2552   0.102   1.322   4.187 -0.8426  0.1370  1.7528
   35CHL1    C9 2553   0.303   1.342   4.112  0.3448  0.4556  0.4331
   35CHL1    H9 2554   0.300   1.452   4.129 -2.0690  1.1477 -3.3690
   35CHL1   C10 2555   0.266   1.334   3.951 -0.6950 -0.3361 -0.2694
   35CHL1   C19 2556   0.236   1.184   3.904  0.0397 -0.6798 -0.4268
   35CHL1  H19A 2557   0.309   1.108   3.942 -0.1038 -1.7344 -2.1487
   35CHL1  H19B 2558   0.134   1.148   3.929 -0.2436  0.8945  0.8152
   35CHL1  H19C 2559   0.241   1.183   3.793 -1.7060  2.1769 -0.6392
   35CHL1    C1 2560   0.149   1.434   3.914 -0.3714 -0.0167  0.4153
   35CHL1   H1A 2561   0.052   1.393   3.950 -1.5482  2.1671 -0.1295
   35CHL1   H1B 2562   0.158   1.524   3.979 -0.2534 -0.7750  1.4901
   35CHL1    C2 2563   0.129   1.463   3.764 -0.4820 -1.0921  0.5523
   35CHL1   H2A 2564   0.046   1.534   3.745  1.0525  0.3964 -0.8913
   35CHL1   H2B 2565   0.105   1.361   3.726 -0.0898 -1.1421  0.4312
   35CHL1   C20 2566   0.389   1.121   4.624  0.3287 -0.5215  0.1854
   35CHL1   H20 2567   0.416   1.016   4.603  1.7734 -0.2439  0.5544
   35CHL1   C21 2568   0.237   1.128   4.622  1.0078  0.0334 -0.5756
   35CHL1  H21A 2569   0.191   1.228   4.635 -1.1640 -1.0113  0.2567
   35CHL1  H21B 2570   0.198   1.070   4.709 -1.4974 -0.8407 -2.1693
   35CHL1  H21C 2571   0.190   1.082   4.532  0.6705  1.6857 -1.2871
   35CHL1   C22 2572   0.445   1.152   4.764  0.0759 -0.2017  0.1849
   35CHL1  H22A 2573   0.556   1.144   4.762  0.1516  0.7871 -1.2318
   35CHL1  H22B 2574   0.430   1.252   4.810  0.4229 -0.5625  1.1067
   35CHL1   C23 2575   0.409   1.042   4.860 -0.2517  0.0148  0.1995
   35CHL1  H23A 2576   0.301   1.048   4.885 -0.3443  0.5082 -0.3057
   35CHL1  H23B 2577   0.422   0.938   4.823  2.8168  0.7599 -1.1270
   35CHL1   C24 2578   0.480   1.059   5.003  0.0244 -0.7204  0.0841
   35CHL1  H24A 2579   0.588   1.038   4.991  0.5013  0.7638  1.5216
   35CHL1  H24B 2580   0.478   1.167   5.027  3.5566  0.0077 -2.1540
   35CHL1   C25 2581   0.405   0.970   5.105  0.7433 -0.5832 -0.1529
   35CHL1   H25 2582   0.297   0.995   5.090  1.3336  1.7406 -0.9378
   35CHL1   C26 2583   0.427   0.822   5.081 -0.6350  0.8169 -0.0621
   35CHL1  H26A 2584   0.532   0.791   5.065 -0.5698 -0.1866  1.9785
   35CHL1  H26B 2585   0.379   0.764   5.164 -0.1379 -0.3820 -0.5849
   35CHL1  H26C 2586   0.379   0.794   4.985  1.1563 -1.3614 -0.4189
   35CHL1   C27 2587   0.428   1.011   5.251 -0.0613  0.8260 -0.7293
   35CHL1  H27A 2588   0.538   1.007   5.270 -0.3399 -0.1518  0.9153
   35CHL1  H27B 2589   0.391   1.113   5.272  0.3817  0.6923  0.8601
   35CHL1  H27C 2590   0.373   0.936   5.313  1.1827  1.2083  0.9165
   36CHL1    C3 2591   1.344   2.120   7.485 -0.4763  0.6369  0.0530
   36CHL1    H3 2592   1.331   2.016   7.450  1.3323 -0.2795  1.8906
   36CHL1    O3 2593   1.321   2.113   7.621  0.3817 -0.2809  0.0317
   36CHL1   H3' 2594   1.313   2.206   7.640  2.3589 -0.2882  1.2330
   36CHL1    C4 2595   1.486   2.174   7.460  0.5582  0.4368 -0.0154
   36CHL1   H4A 2596   1.490   2.278   7.500 -0.5198  1.0705 -1.4761
   36CHL1   H4B 2597   1.553   2.116   7.527 -1.8439 -0.6553  1.6039
   36CHL1    C5 2598   1.526   2.166   7.314 -0.2913  0.6039  0.2451
   36CHL1    C6 2599   1.629   2.090   7.269  0.3009 -0.6223 -0.2310
   36CHL1    H6 2600   1.691   2.035   7.341 -0.7854 -1.4832  0.0867
   36CHL1    C7 2601   1.663   2.078   7.125 -0.1070 -0.1529 -0.6302
   36CHL1   H7A 2602   1.770   2.101   7.106  0.3812  0.5720  2.4680
   36CHL1   H7B 2603   1.631   1.978   7.089  1.1335 -0.3060 -1.3613
   36CHL1    C8 2604   1.592   2.181   7.039  0.4011 -0.2446 -0.1976
   36CHL1    H8 2605   1.636   2.281   7.059  0.4901  0.1938 -2.3484
   36CHL1   C14 2606   1.607   2.161   6.891 -0.4277 -0.0023 -0.2182
   36CHL1   H14 2607   1.580   2.055   6.872  0.7630 -0.5806  1.1932
   36CHL1   C15 2608   1.744   2.166   6.830 -0.1840  0.1018  0.2806
   36CHL1  H15A 2609   1.803   2.253   6.867  1.1328 -0.6281 -0.0348
   36CHL1  H15B 2610   1.803   2.081   6.870 -0.9868 -1.1348 -1.0501
   36CHL1   C16 2611   1.727   2.154   6.686 -0.3207  0.3452  0.8204
   36CHL1  H16A 2612   1.795   2.232   6.645 -0.8458  0.1386 -0.4595
   36CHL1  H16B 2613   1.745   2.057   6.636  0.8526 -0.1403  2.1151
   36CHL1   C17 2614   1.578   2.197   6.658  0.2168  0.0719  0.1986
   36CHL1   H17 2615   1.519   2.103   6.646 -1.4488  0.9786  0.8761
   36CHL1   C13 2616   1.524   2.250   6.791  0.2131 -0.0764 -0.0012
   36CHL1   C18 2617   1.570   2.396   6.806 -0.0044 -0.1187 -0.3184
   36CHL1  H18A 2618   1.568   2.431   6.911 -0.5562  2.3555 -1.0713
   36CHL1  H18B 2619   1.674   2.404   6.767  0.4043 -0.9686  0.5693
   36CHL1  H18C 2620   1.504   2.472   6.759 -0.9480  1.2360  2.9120
   36CHL1   C12 2621   1.375   2.232   6.827  0.5473  0.1424  0.1293
   36CHL1  H12A 2622   1.310   2.290   6.758  0.9273 -1.7322 -1.9216
   36CHL1  H12B 2623   1.340   2.127   6.828  1.2478 -0.1021  1.9966
   36CHL1   C11 2624   1.348   2.271   6.969 -0.4656 -0.6372 -0.4333
   36CHL1  H11A 2625   1.368   2.380   6.975  3.5898 -1.2312 -0.3523
   36CHL1  H11B 2626   1.240   2.259   6.991 -0.2965  0.7661  1.3473
   36CHL1    C9 2627   1.442   2.193   7.073  0.5449  0.1254 -0.2905
   36CHL1    H9 2628   1.407   2.089   7.060 -0.6732  0.7018 -2.0258
   36CHL1   C10 2629   1.422   2.236   7.225  0.3218  0.2138  0.1543
   36CHL1   C19 2630   1.450   2.391   7.240  0.8707 -0.0235  0.0141
   36CHL1  H19A 2631   1.548   2.432   7.208  0.7113  1.2400  1.0776
   36CHL1  H19B 2632   1.365   2.445   7.194  1.3138  0.4710 -0.2339
   36CHL1  H19C 2633   1.458   2.418   7.348  2.7951 -0.5222  0.0453
   36CHL1    C1 2634   1.274   2.198   7.261 -0.5006  0.1921  0.0623
   36CHL1   H1A 2635   1.212   2.271   7.204 -0.3469  0.0415 -0.3049
   36CHL1   H1B 2636   1.246   2.100   7.214 -0.1464 -1.1007  2.4229
   36CHL1    C2 2637   1.243   2.205   7.412 -0.3282 -0.1883 -1.1342
   36CHL1   H2A 2638   1.139   2.176   7.439  0.0162 -0.9347 -0.5682
   36CHL1   H2B 2639   1.260   2.308   7.451  0.5404 -0.0845 -1.7677
   36CHL1   C20 2640   1.570   2.285   6.533  0.0795 -0.4211 -0.5996
   36CHL1   H20 2641   1.624   2.379   6.552  1.5476 -1.6459  1.8022
   36CHL1   C21 2642   1.417   2.332   6.509 -0.0015 -0.0271  0.0800
   36CHL1  H21A 2643   1.398   2.401   6.594  5.0033  2.3169 -0.3369
   36CHL1  H21B 2644   1.354   2.241   6.500  0.3504 -0.1610 -1.2734
   36CHL1  H21C 2645   1.402   2.397   6.420 -1.7135  1.0341  1.0787
   36CHL1   C22 2646   1.628   2.231   6.404 -0.3993 -0.1765 -0.6908
   36CHL1  H22A 2647   1.738   2.226   6.420 -0.4679  0.9508  0.2370
   36CHL1  H22B 2648   1.601   2.126   6.382  2.6634 -1.1548 -0.2491
   36CHL1   C23 2649   1.616   2.321   6.277  0.0882 -0.2637 -0.7738
   36CHL1  H23A 2650   1.510   2.340   6.252  0.5286  1.7089 -1.2668
   36CHL1  H23B 2651   1.675   2.414   6.295 -0.8600  0.3266 -0.6957
   36CHL1   C24 2652   1.684   2.256   6.160  0.0173 -0.4717  0.1421
   36CHL1  H24A 2653   1.782   2.212   6.187  0.7989  0.5811 -0.9054
   36CHL1  H24B 2654   1.625   2.167   6.127  1.4343 -0.8977 -1.3807
   36CHL1   C25 2655   1.710   2.351   6.035 -0.1513  0.3445 -0.1749
   36CHL1   H25 2656   1.782   2.428   6.070  1.2200 -0.2773 -1.4857
   36CHL1   C26 2657   1.777   2.270   5.919 -0.9564 -0.2091  0.6556
   36CHL1  H26A 2658   1.703   2.191   5.895  0.6909 -1.4427 -0.6334
   36CHL1  H26B 2659   1.779   2.335   5.830  0.9234 -1.4959 -0.3185
   36CHL1  H26C 2660   1.874   2.229   5.955  1.3340  2.2056 -2.3029
   36CHL1   C27 2661   1.585   2.421   5.980  0.2072 -0.0618 -0.6830
   36CHL1  H27A 2662   1.614   2.487   5.895 -1.8359  1.0531 -0.5595
   36CHL1  H27B 2663   1.509   2.348   5.946  0.8808  0.5330 -3.7728
   36CHL1  H27C 2664   1.547   2.494   6.055  1.2124  0.1146 -0.3214
   37CHL1    C3 2665   0.007   6.653   3.953  0.2352  0.0010 -0.2367
   37CHL1    H3 2666  -0.044   6.554   3.959  1.6605 -0.8356 -1.1947
   37CHL1    O3 2667   0.039   6.666   3.818  0.0534  0.0141 -0.4014
   37CHL1   H3' 2668   0.128   6.638   3.798 -0.1680 -0.5224 -0.6653
   37CHL1    C4 2669  -0.089   6.762   3.989  0.9127 -0.0131  0.1596
   37CHL1   H4A 2670  -0.049   6.854   3.942 -0.8634  0.4798 -0.4705
   37CHL1   H4B 2671  -0.181   6.746   3.929  0.6759  0.0317  0.5103
   37CHL1    C5 2672  -0.116   6.789   4.135  0.0630 -0.3913  0.8291
   37CHL1    C6 2673  -0.239   6.813   4.179  0.0216  0.0502  0.3956
   37CHL1    H6 2674  -0.326   6.815   4.113  0.9087 -0.2091 -0.8122
   37CHL1    C7 2675  -0.258   6.864   4.317  0.3449  0.0744 -0.2931
   37CHL1   H7A 2676  -0.330   6.949   4.320 -0.2110 -0.2480 -2.4654
   37CHL1   H7B 2677  -0.307   6.780   4.372  0.5593  2.1343  3.3576
   37CHL1    C8 2678  -0.138   6.894   4.410  0.1674  0.3928 -0.7267
   37CHL1    H8 2679  -0.105   6.998   4.388  0.4354  0.0346 -2.1385
   37CHL1   C14 2680  -0.171   6.880   4.559 -0.2564  0.1889 -0.7919
   37CHL1   H14 2681  -0.200   6.775   4.582 -0.9872  1.1638  3.4677
   37CHL1   C15 2682  -0.293   6.953   4.624  0.3138 -0.3702  0.7293
   37CHL1  H15A 2683  -0.295   7.053   4.575  1.1340 -1.2110 -1.1115
   37CHL1  H15B 2684  -0.387   6.899   4.600  1.6934 -1.5575 -2.5186
   37CHL1   C16 2685  -0.270   6.952   4.772  0.2653  0.5428 -0.8815
   37CHL1  H16A 2686  -0.270   7.058   4.807  1.5969 -0.2498  1.7728
   37CHL1  H16B 2687  -0.355   6.909   4.829 -0.5665  1.5436 -1.3160
   37CHL1   C17 2688  -0.123   6.898   4.800  0.1298  0.4028 -0.6141
   37CHL1   H17 2689  -0.135   6.788   4.812 -0.3964  0.4194 -0.9905
   37CHL1   C13 2690  -0.057   6.910   4.659 -0.3927 -0.1591  0.2291
   37CHL1   C18 2691  -0.003   7.050   4.642 -0.3690 -0.8466 -0.1371
   37CHL1  H18A 2692   0.087   7.065   4.705  0.1061 -1.0568 -0.7506
   37CHL1  H18B 2693   0.028   7.071   4.537  0.4763 -0.6757  0.1377
   37CHL1  H18C 2694  -0.077   7.128   4.668 -0.6407 -1.6833  1.7838
   37CHL1   C12 2695   0.055   6.806   4.626 -0.6576 -0.3387 -0.3553
   37CHL1  H12A 2696   0.146   6.835   4.683 -1.9599  0.7505  1.2386
   37CHL1  H12B 2697   0.024   6.700   4.638  0.5825 -0.4498  2.9135
   37CHL1   C11 2698   0.095   6.814   4.477 -0.0882  0.1479 -0.5028
   37CHL1  H11A 2699   0.145   6.912   4.461  0.1524  0.3304  1.2195
   37CHL1  H11B 2700   0.160   6.726   4.458  1.3334  1.2318 -0.8380
   37CHL1    C9 2701  -0.027   6.798   4.374  0.0880 -0.2475 -1.2588
   37CHL1    H9 2702  -0.070   6.697   4.394 -0.4882  0.1016 -0.6894
   37CHL1   C10 2703   0.008   6.795   4.223  0.1088 -0.2054  0.5904
   37CHL1   C19 2704   0.083   6.927   4.179 -0.3902 -0.2984  0.7195
   37CHL1  H19A 2705   0.026   7.018   4.208  2.1205  1.3877  0.6742
   37CHL1  H19B 2706   0.187   6.936   4.217 -0.4805  1.0127  0.7006
   37CHL1  H19C 2707   0.095   6.935   4.069 -0.2534 -2.8028  0.4956
   37CHL1    C1 2708   0.100   6.672   4.194  0.6319  1.0037 -0.1832
   37CHL1   H1A 2709   0.191   6.667   4.258  2.0027 -1.4392 -2.1568
   37CHL1   H1B 2710   0.047   6.576   4.210  0.6154  0.9293 -0.6695
   37CHL1    C2 2711   0.140   6.664   4.042  0.0865 -0.1588 -0.0150
   37CHL1   H2A 2712   0.219   6.588   4.026 -0.6171 -1.6395  2.8723
   37CHL1   H2B 2713   0.179   6.763   4.011 -1.1980  0.9325  1.6907
   37CHL1   C20 2714  -0.045   6.952   4.929  0.4028  0.2814  0.2588
   37CHL1   H20 2715  -0.029   7.061   4.914 -0.5979  0.2863 -0.9767
   37CHL1   C21 2716   0.097   6.893   4.953 -0.0310  0.4682  0.4986
   37CHL1  H21A 2717   0.145   6.920   5.050  0.4319 -2.7467  1.2583
   37CHL1  H21B 2718   0.162   6.930   4.870 -0.0457  0.9552  0.6972
   37CHL1  H21C 2719   0.087   6.783   4.959 -0.9263  0.3104 -2.3839
   37CHL1   C22 2720  -0.129   6.922   5.053  0.0967 -0.0645  0.0875
   37CHL1  H22A 2721  -0.237   6.936   5.029 -0.2059 -0.7224  1.0171
   37CHL1  H22B 2722  -0.126   6.814   5.077  0.0503 -0.0377  0.2111
   37CHL1   C23 2723  -0.098   7.020   5.170  0.7885 -0.4005  0.4513
   37CHL1  H23A 2724   0.009   7.005   5.197  2.2713  2.3156 -3.0411
   37CHL1  H23B 2725  -0.109   7.123   5.129 -4.0745 -1.1194 -0.6070
   37CHL1   C24 2726  -0.200   7.000   5.283 -0.6263  0.7247 -0.6294
   37CHL1  H24A 2727  -0.307   7.001   5.252  0.0465  2.2770 -3.2007
   37CHL1  H24B 2728  -0.169   6.899   5.317 -1.1914  0.5192 -0.7079
   37CHL1   C25 2729  -0.173   7.107   5.389 -0.5781 -0.3236 -0.5652
   37CHL1   H25 2730  -0.069   7.098   5.428 -0.9606  1.2198  0.9370
   37CHL1   C26 2731  -0.175   7.251   5.336  0.2469  0.1300 -0.1217
   37CHL1  H26A 2732  -0.150   7.319   5.420  4.4118 -0.0645 -0.9755
   37CHL1  H26B 2733  -0.102   7.286   5.260  1.9088 -1.4033  0.6827
   37CHL1  H26C 2734  -0.277   7.278   5.301  0.1380  0.2165  0.2605
   37CHL1   C27 2735  -0.271   7.100   5.508 -0.3207 -0.0007 -0.1637
   37CHL1  H27A 2736  -0.288   7.197   5.559 -2.3533  0.3230 -1.3208
   37CHL1  H27B 2737  -0.368   7.058   5.474 -1.1051  0.9701  0.8001
   37CHL1  H27C 2738  -0.216   7.028   5.572  0.3782 -0.3045 -1.0817
   38CHL1    C3 2739   1.762   6.041   3.764 -0.0236 -0.2258  0.3363
   38CHL1    H3 2740   1.755   5.938   3.806  1.8709 -1.1948 -1.5145
   38CHL1    O3 2741   1.745   6.030   3.622  0.4664  0.4246 -0.4943
   38CHL1   H3' 2742   1.654   6.003   3.609  0.5356 -0.4681  0.6476
   38CHL1    C4 2743   1.655   6.131   3.828 -0.0737  0.4742  0.4576
   38CHL1   H4A 2744   1.643   6.227   3.774 -1.7162 -0.2363 -0.4923
   38CHL1   H4B 2745   1.568   6.070   3.797 -0.0950  1.3452 -1.3194
   38CHL1    C5 2746   1.679   6.155   3.976  0.4621 -0.2206  0.3863
   38CHL1    C6 2747   1.580   6.128   4.066 -0.5726  0.2476 -0.2203
   38CHL1    H6 2748   1.486   6.080   4.035 -0.7298 -0.0929  0.7370
   38CHL1    C7 2749   1.598   6.145   4.215 -0.0489 -0.1105 -0.9082
   38CHL1   H7A 2750   1.503   6.180   4.261 -1.3722 -3.4121 -0.8404
   38CHL1   H7B 2751   1.598   6.042   4.257 -0.3734 -1.6504 -4.3371
   38CHL1    C8 2752   1.713   6.235   4.258 -0.0086 -0.5622 -0.1560
   38CHL1    H8 2753   1.683   6.341   4.239  2.8199  0.1766 -1.0442
   38CHL1   C14 2754   1.751   6.212   4.406 -0.0052  0.2531 -0.0140
   38CHL1   H14 2755   1.789   6.108   4.418 -2.1572 -0.4848  0.9916
   38CHL1   C15 2756   1.638   6.204   4.512  0.7211 -0.6088 -0.0380
   38CHL1  H15A 2757   1.558   6.276   4.484 -0.0047 -1.4271 -0.1398
   38CHL1  H15B 2758   1.589   6.104   4.513  0.3248 -0.4139  0.8135
   38CHL1   C16 2759   1.711   6.237   4.641  0.1569  0.0254 -0.1487
   38CHL1  H16A 2760   1.664   6.327   4.686 -0.3596 -0.9087  1.2751
   38CHL1  H16B 2761   1.696   6.161   4.721 -0.7726  0.7900  0.4260
   38CHL1   C17 2762   1.866   6.259   4.610 -0.3539  0.5057  0.5619
   38CHL1   H17 2763   1.920   6.162   4.619 -0.2630  0.6662  2.0413
   38CHL1   C13 2764   1.865   6.300   4.455 -0.0917 -0.3469 -0.5330
   38CHL1   C18 2765   1.829   6.454   4.440 -0.1185  0.4757 -0.2489
   38CHL1  H18A 2766   1.917   6.520   4.455  0.1970  0.1498 -0.6189
   38CHL1  H18B 2767   1.771   6.477   4.348 -0.7815  1.6828  0.4585
   38CHL1  H18C 2768   1.761   6.485   4.521  0.6089 -1.0011  0.9807
   38CHL1   C12 2769   1.985   6.270   4.365 -0.0166  0.1639  0.0185
   38CHL1  H12A 2770   2.068   6.340   4.387 -0.3066  0.9281 -1.2185
   38CHL1  H12B 2771   2.021   6.165   4.375  0.3881  0.0095 -2.4574
   38CHL1   C11 2772   1.956   6.287   4.218  0.5512 -0.0487 -0.1068
   38CHL1  H11A 2773   1.953   6.399   4.218  0.6876 -0.0267 -1.2096
   38CHL1  H11B 2774   2.046   6.257   4.160 -0.7580 -3.2536 -0.6513
   38CHL1    C9 2775   1.834   6.209   4.174  0.7957  0.3376 -0.7521
   38CHL1    H9 2776   1.870   6.106   4.198  0.3276  0.2178 -0.5584
   38CHL1   C10 2777   1.820   6.208   4.019  0.2310  0.5566 -0.1791
   38CHL1   C19 2778   1.838   6.358   3.978 -0.1625  0.2537  0.9840
   38CHL1  H19A 2779   1.943   6.389   3.999  0.5163 -0.9881 -0.3365
   38CHL1  H19B 2780   1.819   6.368   3.869 -1.7509  2.2905  1.3957
   38CHL1  H19C 2781   1.758   6.420   4.022  0.5083  1.7098  0.2051
   38CHL1    C1 2782   1.928   6.118   3.939  0.3576 -0.1059 -0.4894
   38CHL1   H1A 2783   2.018   6.178   3.964 -0.8649  1.2671  0.8497
   38CHL1   H1B 2784   1.938   6.030   4.006 -0.0463  1.4601  1.7676
   38CHL1    C2 2785   1.900   6.110   3.790  0.1924 -0.3801 -0.2430
   38CHL1   H2A 2786   1.967   6.036   3.742 -0.5876 -2.2352  1.3722
   38CHL1   H2B 2787   1.904   6.204   3.731 -0.6622  0.4233  0.9234
   38CHL1   C20 2788   1.931   6.348   4.720  0.4957 -0.1513  0.4800
   38CHL1   H20 2789   1.884   6.449   4.725  1.1020  0.1608 -0.0305
   38CHL1   C21 2790   2.078   6.365   4.681 -0.6752  0.0610 -0.6713
   38CHL1  H21A 2791   2.080   6.435   4.595 -1.2234  0.4004 -0.4169
   38CHL1  H21B 2792   2.126   6.272   4.645  0.9815  1.5397 -2.4618
   38CHL1  H21C 2793   2.142   6.409   4.759 -1.3575 -0.7642  0.3827
   38CHL1   C22 2794   1.917   6.269   4.857 -0.2354  0.6549 -0.0132
   38CHL1  H22A 2795   1.809   6.268   4.883 -0.3582  0.3406 -0.5093
   38CHL1  H22B 2796   1.947   6.165   4.831 -0.1429  0.8016 -0.5057
   38CHL1   C23 2797   2.002   6.314   4.972  0.5781  0.7198 -0.6621
   38CHL1  H23A 2798   2.112   6.296   4.964  0.3391 -2.0153  1.0668
   38CHL1  H23B 2799   1.986   6.424   4.975  1.3922  0.8184  0.9149
   38CHL1   C24 2800   1.960   6.254   5.108  0.0016 -0.7671 -0.4242
   38CHL1  H24A 2801   1.849   6.263   5.114  0.0433  1.3268 -1.6870
   38CHL1  H24B 2802   1.984   6.146   5.112  0.7910 -0.7051 -2.2475
   38CHL1   C25 2803   2.004   6.337   5.232  0.3308 -0.0191 -0.2004
   38CHL1   H25 2804   1.940   6.427   5.223  0.3116 -0.2633 -3.3887
   38CHL1   C26 2805   1.956   6.257   5.353  0.3696 -0.3593  0.0425
   38CHL1  H26A 2806   2.028   6.179   5.386 -2.1451 -1.6787  2.8845
   38CHL1  H26B 2807   1.935   6.326   5.437 -1.1090  1.7819 -1.9577
   38CHL1  H26C 2808   1.859   6.203   5.346 -0.1721  0.4999  0.8095
   38CHL1   C27 2809   2.155   6.357   5.226 -0.0666 -0.5411  0.0894
   38CHL1  H27A 2810   2.190   6.426   5.305 -0.5077  0.6822 -0.7677
   38CHL1  H27B 2811   2.203   6.257   5.234  1.8563  0.2466 -0.9037
   38CHL1  H27C 2812   2.191   6.390   5.127 -0.3105 -1.4669 -0.3236
   39CHL1    C3 2813   3.977   1.290   3.967  0.3333 -0.2864  0.4797
   39CHL1    H3 2814   3.871   1.286   4.000  0.4799 -0.0857  0.9856
   39CHL1    O3 2815   3.982   1.289   3.826 -0.5214 -0.3303 -0.6692
   39CHL1   H3' 2816   4.075   1.287   3.805  0.0471 -1.3007  1.6201
   39CHL1    C4 2817   4.044   1.424   4.023 -0.0508  0.0213  0.2398
   39CHL1   H4A 2818   4.146   1.446   3.987 -0.2644 -1.5160 -1.4182
   39CHL1   H4B 2819   3.977   1.503   3.983  1.6689  0.2615 -2.3578
   39CHL1    C5 2820   4.040   1.419   4.175  0.0393 -0.0348 -0.3900
   39CHL1    C6 2821   3.994   1.530   4.244 -0.1637  0.3223 -0.3092
   39CHL1    H6 2822   3.967   1.615   4.180 -0.0755 -0.5653 -1.5833
   39CHL1    C7 2823   4.005   1.548   4.394  0.0914  0.2962  0.3847
   39CHL1   H7A 2824   4.041   1.651   4.416  0.6008  0.1125  0.4263
   39CHL1   H7B 2825   3.904   1.529   4.437  0.7452  0.9925  2.3324
   39CHL1    C8 2826   4.100   1.441   4.464  0.1062  0.2233  0.6673
   39CHL1    H8 2827   4.205   1.474   4.450 -0.2974  1.0982 -0.5222
   39CHL1   C14 2828   4.062   1.419   4.607 -0.3267 -0.1541 -0.2088
   39CHL1   H14 2829   3.954   1.394   4.607 -0.2614 -0.8687  2.7307
   39CHL1   C15 2830   4.057   1.545   4.697 -0.3332  0.0064  0.6341
   39CHL1  H15A 2831   4.148   1.605   4.676 -0.2557 -0.8685 -1.9736
   39CHL1  H15B 2832   3.971   1.604   4.660 -0.6044 -1.9284 -2.1538
   39CHL1   C16 2833   4.052   1.491   4.837  0.2719  0.1480  0.6686
   39CHL1  H16A 2834   4.139   1.523   4.898  1.3406  1.1626 -1.2793
   39CHL1  H16B 2835   3.957   1.504   4.893 -0.0994  2.1445 -0.3435
   39CHL1   C17 2836   4.074   1.336   4.819  1.0922 -0.1062  0.2146
   39CHL1   H17 2837   3.971   1.295   4.813  1.4344 -0.7231 -3.3419
   39CHL1   C13 2838   4.140   1.319   4.686 -0.4800 -0.0865  0.1719
   39CHL1   C18 2839   4.289   1.367   4.697 -1.1268 -0.3058  0.0934
   39CHL1  H18A 2840   4.342   1.319   4.782 -0.8234  1.9233  1.2612
   39CHL1  H18B 2841   4.329   1.350   4.595 -2.3737  1.4669 -0.7553
   39CHL1  H18C 2842   4.300   1.474   4.727  0.2437 -0.8705  1.7628
   39CHL1   C12 2843   4.124   1.187   4.613 -0.1608  0.2631  0.2762
   39CHL1  H12A 2844   4.186   1.113   4.669  0.8446 -0.3767 -1.6046
   39CHL1  H12B 2845   4.018   1.163   4.635  0.2233 -0.2715  1.7196
   39CHL1   C11 2846   4.157   1.194   4.466 -0.0325  0.0641 -0.0791
   39CHL1  H11A 2847   4.267   1.201   4.455  0.0941 -3.3888 -2.5964
   39CHL1  H11B 2848   4.119   1.103   4.414 -0.9016  1.0006 -1.1292
   39CHL1    C9 2849   4.089   1.305   4.391 -0.2526 -0.4112  0.8358
   39CHL1    H9 2850   3.981   1.282   4.401 -0.7112  1.0296 -0.4030
   39CHL1   C10 2851   4.115   1.309   4.241 -0.6549  0.0235 -0.3409
   39CHL1   C19 2852   4.273   1.315   4.216  0.1221  0.8585  0.4720
   39CHL1  H19A 2853   4.301   1.411   4.266 -0.5642  1.3828 -0.1290
   39CHL1  H19B 2854   4.314   1.225   4.266 -1.0460  0.6773  1.1542
   39CHL1  H19C 2855   4.296   1.316   4.107 -0.1645  0.2087  0.4053
   39CHL1    C1 2856   4.059   1.179   4.176  0.2582 -1.1204  0.2944
   39CHL1   H1A 2857   4.121   1.092   4.205  2.3418 -0.1183 -0.8937
   39CHL1   H1B 2858   3.952   1.170   4.206  0.4603 -1.1010  1.0332
   39CHL1    C2 2859   4.060   1.174   4.026  0.5342 -0.2683 -0.4893
   39CHL1   H2A 2860   4.020   1.082   3.978  3.4303 -2.1763  0.4881
   39CHL1   H2B 2861   4.169   1.184   4.005  0.5676  1.7598  0.3755
   39CHL1   C20 2862   4.133   1.269   4.946 -0.0026  0.0297  0.3829
   39CHL1   H20 2863   4.238   1.303   4.957  1.5025 -4.0496  0.3676
   39CHL1   C21 2864   4.129   1.116   4.933  0.3048 -0.0315 -0.0631
   39CHL1  H21A 2865   4.199   1.070   4.860 -0.2485  0.1040 -0.6946
   39CHL1  H21B 2866   4.022   1.087   4.923 -0.4705  2.8144 -0.9955
   39CHL1  H21C 2867   4.167   1.083   5.032 -1.1969 -0.2725  0.4601
   39CHL1   C22 2868   4.050   1.294   5.078 -0.1088 -0.3895  0.4567
   39CHL1  H22A 2869   4.016   1.399   5.090  2.1881  0.4123  0.3757
   39CHL1  H22B 2870   3.966   1.220   5.074  0.5629 -1.1700  0.5558
   39CHL1   C23 2871   4.130   1.277   5.209  0.1928 -0.0684 -0.6455
   39CHL1  H23A 2872   4.065   1.213   5.272  0.7147  0.6196  0.6270
   39CHL1  H23B 2873   4.226   1.226   5.186 -0.0976 -0.1285 -1.7691
   39CHL1   C24 2874   4.140   1.400   5.291  0.5226 -1.0704  0.0022
   39CHL1  H24A 2875   4.205   1.472   5.238 -2.4520  0.2483 -2.0984
   39CHL1  H24B 2876   4.039   1.441   5.313  0.7704  0.0349 -0.8759
   39CHL1   C25 2877   4.212   1.365   5.422  0.7279 -0.2007 -0.1578
   39CHL1   H25 2878   4.187   1.260   5.448 -0.0532  0.6284  2.8705
   39CHL1   C26 2879   4.358   1.379   5.410  0.1856 -0.0876  0.9021
   39CHL1  H26A 2880   4.385   1.481   5.375 -0.5756 -0.6258 -1.4223
   39CHL1  H26B 2881   4.410   1.347   5.503  2.1295  1.1643  0.3017
   39CHL1  H26C 2882   4.402   1.309   5.336  2.9524  2.3716  0.0522
   39CHL1   C27 2883   4.156   1.458   5.536 -0.3290  0.3431  0.0815
   39CHL1  H27A 2884   4.167   1.561   5.495 -1.1740  0.5297  0.2921
   39CHL1  H27B 2885   4.048   1.438   5.552 -0.0951 -2.1220 -0.9490
   39CHL1  H27C 2886   4.210   1.445   5.631  0.4361  0.4171 -0.3387
   40CHL1    C3 2887   5.581   4.737   3.743  0.0732 -0.6487 -0.3640
   40CHL1    H3 2888   5.660   4.662   3.767  0.3493 -0.9023 -1.9751
   40CHL1    O3 2889   5.620   4.771   3.615 -0.5241  0.1162  0.0474
   40CHL1   H3' 2890   5.544   4.821   3.585  0.1189  3.3745  3.2053
   40CHL1    C4 2891   5.440   4.681   3.748  0.8072 -0.2851 -0.0085
   40CHL1   H4A 2892   5.382   4.760   3.696 -0.2059  0.2071  1.7871
   40CHL1   H4B 2893   5.440   4.590   3.684  0.5119 -1.3174  1.3954
   40CHL1    C5 2894   5.374   4.675   3.888 -0.7835 -0.0850  0.7079
   40CHL1    C6 2895   5.313   4.560   3.927  0.2343 -0.0341  0.7671
   40CHL1    H6 2896   5.306   4.482   3.849 -0.1158  2.1158 -1.4843
   40CHL1    C7 2897   5.242   4.551   4.061 -0.3406  0.3183 -0.0159
   40CHL1   H7A 2898   5.138   4.513   4.055  0.6697 -2.6269 -0.9726
   40CHL1   H7B 2899   5.303   4.492   4.134  1.0784  0.6298 -0.8984
   40CHL1    C8 2900   5.233   4.686   4.142  0.5336  0.1416  0.4473
   40CHL1    H8 2901   5.142   4.735   4.101  1.5924  2.2996  0.5338
   40CHL1   C14 2902   5.217   4.659   4.294  0.0857  0.9531  0.2401
   40CHL1   H14 2903   5.308   4.614   4.339  0.7551  1.3164 -0.7152
   40CHL1   C15 2904   5.096   4.569   4.327  1.0957  0.0208  0.3020
   40CHL1  H15A 2905   5.020   4.576   4.247  1.3116 -1.3663 -0.0586
   40CHL1  H15B 2906   5.147   4.470   4.335  1.9764  0.5543  1.6244
   40CHL1   C16 2907   5.068   4.609   4.469  0.4906  0.4522 -0.0275
   40CHL1  H16A 2908   4.960   4.636   4.472  0.6213  0.8535  2.0503
   40CHL1  H16B 2909   5.099   4.529   4.539  0.4095  0.7533  0.3539
   40CHL1   C17 2910   5.159   4.730   4.503  0.5159  0.7119 -0.9357
   40CHL1   H17 2911   5.254   4.691   4.546 -0.2374 -0.0672  0.0725
   40CHL1   C13 2912   5.196   4.789   4.370  0.3883 -0.2565 -0.3398
   40CHL1   C18 2913   5.077   4.870   4.325  0.1735 -0.4659  0.3235
   40CHL1  H18A 2914   5.074   4.966   4.382 -0.3482  0.5707 -1.3470
   40CHL1  H18B 2915   5.080   4.890   4.216 -1.8468 -0.7996  0.1584
   40CHL1  H18C 2916   4.979   4.827   4.357 -0.1411  2.4746  4.0835
   40CHL1   C12 2917   5.326   4.871   4.353 -1.0749  0.6920 -0.2123
   40CHL1  H12A 2918   5.318   4.965   4.412 -0.3167 -0.4675  1.8400
   40CHL1  H12B 2919   5.413   4.815   4.394 -1.0051  1.4787  0.7482
   40CHL1   C11 2920   5.350   4.905   4.205  0.1313  0.4187  0.0689
   40CHL1  H11A 2921   5.270   4.967   4.160  0.8266 -1.0008 -3.4765
   40CHL1  H11B 2922   5.434   4.976   4.189 -1.6615  2.3857 -0.9934
   40CHL1    C9 2923   5.351   4.780   4.118 -0.4491  0.3173 -0.2021
   40CHL1    H9 2924   5.440   4.726   4.155  0.8112  1.7774 -0.9562
   40CHL1   C10 2925   5.393   4.802   3.967 -0.1315  0.0011 -0.1297
   40CHL1   C19 2926   5.297   4.904   3.901 -0.4364  0.2020 -0.1742
   40CHL1  H19A 2927   5.309   5.003   3.950 -0.2488  0.1323 -0.0800
   40CHL1  H19B 2928   5.314   4.918   3.792  2.0553  2.1497  0.3910
   40CHL1  H19C 2929   5.188   4.889   3.916 -0.5551  1.0264 -0.1502
   40CHL1    C1 2930   5.545   4.842   3.970 -0.4277 -0.7423  0.6444
   40CHL1   H1A 2931   5.573   4.938   4.019 -1.1254 -0.2018  0.0008
   40CHL1   H1B 2932   5.597   4.753   4.012 -2.0325 -1.5077  1.0871
   40CHL1    C2 2933   5.604   4.864   3.831  0.1758  0.5371  0.2471
   40CHL1   H2A 2934   5.712   4.891   3.826  0.1976  0.2109 -1.9106
   40CHL1   H2B 2935   5.541   4.942   3.784  1.4050 -0.3959 -3.2252
   40CHL1   C20 2936   5.084   4.816   4.609 -0.5831  0.7717  1.0993
   40CHL1   H20 2937   4.990   4.850   4.561  0.7206  0.3453 -1.9889
   40CHL1   C21 2938   5.152   4.945   4.643  0.1677  0.3680 -0.2860
   40CHL1  H21A 2939   5.254   4.922   4.681  0.4580  0.8729 -0.7433
   40CHL1  H21B 2940   5.092   5.011   4.709 -1.2572 -1.1849  0.0530
   40CHL1  H21C 2941   5.165   5.004   4.550 -3.4916 -0.0680 -1.2036
   40CHL1   C22 2942   5.065   4.733   4.740 -0.2235 -0.5152 -0.0497
   40CHL1  H22A 2943   4.999   4.646   4.722 -1.6263  0.6218 -0.5333
   40CHL1  H22B 2944   5.158   4.689   4.784  0.7450 -0.6284 -2.1169
   40CHL1   C23 2945   4.988   4.809   4.853 -0.1756 -0.1620  0.1186
   40CHL1  H23A 2946   5.060   4.888   4.884  0.3935 -1.2031  1.5670
   40CHL1  H23B 2947   4.896   4.856   4.812 -0.4244 -0.4647  0.3312
   40CHL1   C24 2948   4.964   4.741   4.985  0.0290  0.1271 -0.1001
   40CHL1  H24A 2949   4.873   4.679   4.980  2.7972 -4.5034  0.8879
   40CHL1  H24B 2950   5.051   4.674   5.006  0.9918  0.6581 -2.1395
   40CHL1   C25 2951   4.939   4.834   5.109  0.2509 -0.0709 -0.3344
   40CHL1   H25 2952   5.027   4.900   5.124 -0.4048  1.0422 -1.2291
   40CHL1   C26 2953   4.809   4.912   5.093 -1.1791 -0.1682 -0.1801
   40CHL1  H26A 2954   4.729   4.835   5.096  0.7390 -2.2969  2.7456
   40CHL1  H26B 2955   4.805   4.975   5.184 -2.3066  1.2017 -1.1531
   40CHL1  H26C 2956   4.799   4.983   5.008 -2.0926  1.1241  0.9776
   40CHL1   C27 2957   4.937   4.754   5.242  0.2699  0.7598 -0.5802
   40CHL1  H27A 2958   5.031   4.700   5.266  0.8085  1.4994 -0.9747
   40CHL1  H27B 2959   4.917   4.831   5.319 -2.3825 -0.7282  0.3549
   40CHL1  H27C 2960   4.848   4.689   5.247 -0.8037  2.2741  2.4932
   41CHL1    C3 2961   3.093   1.929   3.981  0.3664 -0.6208 -0.0024
   41CHL1    H3 2962   2.993   1.887   4.004  1.1005 -2.3163  0.3371
   41CHL1    O3 2963   3.095   1.951   3.840 -0.2991 -0.3674 -0.1222
   41CHL1   H3' 2964   3.132   2.038   3.827  0.4531 -0.5336  0.8200
   41CHL1    C4 2965   3.111   2.060   4.049  0.0091 -0.0255  0.2919
   41CHL1   H4A 2966   3.205   2.109   4.016 -0.4017  0.7764  0.2778
   41CHL1   H4B 2967   3.021   2.122   4.027 -0.6422 -1.4030 -1.0535
   41CHL1    C5 2968   3.122   2.041   4.190 -0.1662  0.5799 -0.3384
   41CHL1    C6 2969   3.033   2.094   4.272  0.4672  0.1368 -0.0544
   41CHL1    H6 2970   2.963   2.162   4.221 -1.6263 -1.6135  0.3189
   41CHL1    C7 2971   3.027   2.074   4.425  0.0093  0.5174  1.3757
   41CHL1   H7A 2972   2.985   2.162   4.479  3.0036  1.2630  2.6895
   41CHL1   H7B 2973   2.950   1.997   4.447 -0.8859  0.9931  0.0469
   41CHL1    C8 2974   3.166   2.030   4.478  0.6989  0.1957 -0.2489
   41CHL1    H8 2975   3.243   2.110   4.483 -0.7630  1.7529 -1.2506
   41CHL1   C14 2976   3.144   1.985   4.617 -0.0365 -0.0175 -0.1313
   41CHL1   H14 2977   3.080   1.894   4.611  0.0788 -0.3868  2.9406
   41CHL1   C15 2978   3.067   2.081   4.707 -0.7460 -0.4882  0.1778
   41CHL1  H15A 2979   3.123   2.177   4.712 -1.0469 -0.3348  0.6571
   41CHL1  H15B 2980   2.959   2.099   4.690 -1.2536 -1.2934  2.2517
   41CHL1   C16 2981   3.092   2.024   4.851  0.8064 -0.0952  0.9034
   41CHL1  H16A 2982   3.134   2.109   4.909  0.0078  1.1093 -0.2123
   41CHL1  H16B 2983   2.999   1.992   4.903 -0.4344  0.1941 -1.0282
   41CHL1   C17 2984   3.201   1.913   4.837 -1.1374 -0.3784  0.3633
   41CHL1   H17 2985   3.146   1.816   4.842 -1.0973 -0.4344 -0.1537
   41CHL1   C13 2986   3.271   1.941   4.691  0.3335  0.1945  0.1691
   41CHL1   C18 2987   3.376   2.058   4.708 -0.1547  0.6470 -0.2770
   41CHL1  H18A 2988   3.467   2.018   4.757  0.7058 -1.8629 -3.5505
   41CHL1  H18B 2989   3.408   2.101   4.610  2.5465 -0.8435 -0.1239
   41CHL1  H18C 2990   3.332   2.131   4.779 -0.0749 -0.4113  0.8948
   41CHL1   C12 2991   3.321   1.818   4.609 -0.0622  0.9261 -0.2222
   41CHL1  H12A 2992   3.409   1.781   4.666 -1.2078  0.0478  1.0449
   41CHL1  H12B 2993   3.238   1.744   4.619 -0.7129  1.9133  2.6265
   41CHL1   C11 2994   3.346   1.863   4.467 -0.4702 -0.1545  0.5183
   41CHL1  H11A 2995   3.420   1.945   4.471 -0.4819 -0.0637 -0.7415
   41CHL1  H11B 2996   3.381   1.775   4.409 -2.8245 -0.7723 -0.1012
   41CHL1    C9 2997   3.224   1.919   4.393 -0.2262 -0.1356 -0.2579
   41CHL1    H9 2998   3.153   1.835   4.407 -0.0720 -0.1036  0.7903
   41CHL1   C10 2999   3.233   1.943   4.240 -0.2601  0.5227  0.0122
   41CHL1   C19 3000   3.374   2.005   4.209 -0.6323 -0.0314  0.0662
   41CHL1  H19A 3001   3.365   2.107   4.252 -3.2917  0.6887 -1.9506
   41CHL1  H19B 3002   3.454   1.950   4.263  0.3471  1.5785  0.3249
   41CHL1  H19C 3003   3.407   2.017   4.104 -2.0798  4.6886 -0.0577
   41CHL1    C1 3004   3.211   1.812   4.168  0.2134 -0.0072  0.0744
   41CHL1   H1A 3005   3.293   1.738   4.184 -0.3407 -0.7383 -0.3601
   41CHL1   H1B 3006   3.117   1.776   4.215 -0.5444  2.3389  0.4467
   41CHL1    C2 3007   3.204   1.831   4.015  0.3583 -0.4592 -0.0965
   41CHL1   H2A 3008   3.205   1.730   3.971  0.9718  0.7352 -3.0536
   41CHL1   H2B 3009   3.305   1.872   3.992  0.0891 -0.6025 -1.6054
   41CHL1   C20 3010   3.298   1.905   4.963 -0.0186 -0.4879  1.1203
   41CHL1   H20 3011   3.355   1.997   4.985  0.3887  0.3293 -2.7210
   41CHL1   C21 3012   3.406   1.792   4.939 -0.0819 -1.0316  0.3565
   41CHL1  H21A 3013   3.488   1.828   4.873 -0.2440 -0.2956  0.5479
   41CHL1  H21B 3014   3.366   1.690   4.919 -0.0569 -1.1060  0.6727
   41CHL1  H21C 3015   3.468   1.776   5.030 -0.5165  1.3665  1.1327
   41CHL1   C22 3016   3.218   1.855   5.087 -0.0647 -0.4039  0.4837
   41CHL1  H22A 3017   3.136   1.929   5.100  0.8395  0.7198 -0.0530
   41CHL1  H22B 3018   3.176   1.755   5.062  1.6851 -1.4511  1.5660
   41CHL1   C23 3019   3.287   1.852   5.218  0.2289  0.0337  0.1070
   41CHL1  H23A 3020   3.376   1.786   5.207  3.3203  3.7043  1.0778
   41CHL1  H23B 3021   3.325   1.956   5.229  2.3960 -0.8146  1.5153
   41CHL1   C24 3022   3.185   1.818   5.324 -0.2073  0.3936  1.2287
   41CHL1  H24A 3023   3.090   1.875   5.316 -0.0562  0.4135 -1.0775
   41CHL1  H24B 3024   3.162   1.709   5.330  0.4349  0.1659 -0.1435
   41CHL1   C25 3025   3.229   1.858   5.465  0.0107 -0.4675  0.9548
   41CHL1   H25 3026   3.260   1.964   5.450 -0.0217 -0.5426  0.3135
   41CHL1   C26 3027   3.108   1.856   5.557  0.2997  0.1080  0.3663
   41CHL1  H26A 3028   3.024   1.916   5.517 -0.6311 -1.2532  0.2094
   41CHL1  H26B 3029   3.081   1.751   5.582 -2.0699  0.8892  1.3212
   41CHL1  H26C 3030   3.121   1.901   5.658  0.0738 -0.3868  0.6200
   41CHL1   C27 3031   3.350   1.791   5.522 -1.0066 -0.2635  0.4614
   41CHL1  H27A 3032   3.435   1.798   5.451  0.3551 -0.7666  1.9599
   41CHL1  H27B 3033   3.385   1.837   5.617 -1.1891 -1.4935  1.1490
   41CHL1  H27C 3034   3.320   1.686   5.546 -0.8550  0.0773  2.2860
   42CHL1    C3 3035   4.605   0.850   3.659  0.4900 -0.2482  0.2899
   42CHL1    H3 3036   4.702   0.810   3.696  0.0055  0.7758  2.8946
   42CHL1    O3 3037   4.602   0.841   3.523 -0.0530  0.2888  0.5360
   42CHL1   H3' 3038   4.567   0.927   3.498 -0.2423 -0.3279 -1.4393
   42CHL1    C4 3039   4.486   0.771   3.722 -0.1394  0.1361  0.1686
   42CHL1   H4A 3040   4.402   0.837   3.692  0.8692  0.1939 -2.8336
   42CHL1   H4B 3041   4.463   0.677   3.668 -0.5740  0.8594 -0.9480
   42CHL1    C5 3042   4.516   0.765   3.870 -0.1334 -0.0266  0.1117
   42CHL1    C6 3043   4.538   0.643   3.927  0.4800 -0.0249  0.5724
   42CHL1    H6 3044   4.526   0.552   3.867  0.7066  1.4678 -1.8699
   42CHL1    C7 3045   4.570   0.627   4.071 -0.5787  0.4573 -0.4757
   42CHL1   H7A 3046   4.513   0.540   4.112 -1.0133  0.9917  0.0880
   42CHL1   H7B 3047   4.678   0.603   4.081 -1.0745 -1.0849  2.4000
   42CHL1    C8 3048   4.541   0.755   4.157  0.1876 -0.2522  0.5377
   42CHL1    H8 3049   4.432   0.776   4.148  0.5610  1.0260 -1.8700
   42CHL1   C14 3050   4.599   0.756   4.299 -1.1896  0.0959 -0.6595
   42CHL1   H14 3051   4.707   0.749   4.273 -1.0179  1.6078 -0.4272
   42CHL1   C15 3052   4.564   0.640   4.393 -0.4064 -0.3934 -0.3643
   42CHL1  H15A 3053   4.459   0.606   4.377 -1.1038  1.0657  0.8590
   42CHL1  H15B 3054   4.631   0.554   4.369 -0.5834 -0.9475  1.0728
   42CHL1   C16 3055   4.593   0.683   4.541 -0.7827  0.3650 -0.0497
   42CHL1  H16A 3056   4.506   0.664   4.607 -1.1885 -1.3430 -1.0183
   42CHL1  H16B 3057   4.691   0.643   4.576 -0.9026 -0.3155 -0.4740
   42CHL1   C17 3058   4.622   0.840   4.523  0.4043 -0.5476  0.1199
   42CHL1   H17 3059   4.733   0.842   4.514  0.4193 -2.3512 -0.4285
   42CHL1   C13 3060   4.573   0.882   4.385 -0.0068 -0.3844 -0.6488
   42CHL1   C18 3061   4.421   0.915   4.396 -0.0652  0.7228 -0.6904
   42CHL1  H18A 3062   4.404   0.988   4.478  1.2124 -1.9753  2.2352
   42CHL1  H18B 3063   4.377   0.950   4.300  0.6472 -1.0401 -1.7037
   42CHL1  H18C 3064   4.365   0.826   4.433 -0.1186  1.0078 -0.0667
   42CHL1   C12 3065   4.653   0.995   4.311  0.9082 -0.5419 -0.1113
   42CHL1  H12A 3066   4.647   1.094   4.361 -0.1493 -1.0354  0.7684
   42CHL1  H12B 3067   4.762   0.976   4.304  0.8604 -0.2260 -2.5184
   42CHL1   C11 3068   4.600   1.016   4.161 -0.2397 -0.5577  0.4830
   42CHL1  H11A 3069   4.506   1.074   4.173  1.7691  3.0089  0.3978
   42CHL1  H11B 3070   4.672   1.089   4.118 -0.5088  0.6660  2.0373
   42CHL1    C9 3071   4.597   0.881   4.083  0.2983 -0.3528 -0.2783
   42CHL1    H9 3072   4.704   0.854   4.071  0.6414 -0.3283  2.1847
   42CHL1   C10 3073   4.537   0.905   3.946 -0.1716  0.5482  0.4673
   42CHL1   C19 3074   4.393   0.971   3.955  0.7652 -0.5107 -0.7080
   42CHL1  H19A 3075   4.344   0.976   3.855 -1.9821  0.4255  0.5592
   42CHL1  H19B 3076   4.325   0.917   4.024 -0.3011 -0.5866 -1.7873
   42CHL1  H19C 3077   4.398   1.079   3.983  3.2714 -0.4074 -1.3588
   42CHL1    C1 3078   4.636   0.995   3.866  0.6507 -0.2755  0.1723
   42CHL1   H1A 3079   4.626   1.099   3.904 -2.6851  0.4664 -2.1873
   42CHL1   H1B 3080   4.739   0.957   3.884  0.7540 -1.4359 -2.3773
   42CHL1    C2 3081   4.617   0.999   3.714  0.3718  0.0319  0.9734
   42CHL1   H2A 3082   4.710   1.046   3.674  1.7851 -1.2595  2.6086
   42CHL1   H2B 3083   4.523   1.047   3.680 -0.2715 -2.4091 -1.0456
   42CHL1   C20 3084   4.597   0.923   4.652 -0.0102 -0.5636  0.0751
   42CHL1   H20 3085   4.487   0.922   4.663  0.2416 -0.6681  3.5308
   42CHL1   C21 3086   4.650   1.072   4.647 -0.1520  0.3131  0.4514
   42CHL1  H21A 3087   4.757   1.072   4.618 -0.5655 -0.0467 -1.2007
   42CHL1  H21B 3088   4.640   1.136   4.738 -0.9990  0.3354  0.3495
   42CHL1  H21C 3089   4.588   1.125   4.572  0.4032  1.7380  0.9717
   42CHL1   C22 3090   4.653   0.864   4.786 -0.2809  0.2040 -0.3499
   42CHL1  H22A 3091   4.618   0.942   4.857 -2.4222 -1.5318  0.6363
   42CHL1  H22B 3092   4.598   0.768   4.800  1.6490 -0.9553 -0.3792
   42CHL1   C23 3093   4.801   0.838   4.800  0.1283 -0.7252  0.6724
   42CHL1  H23A 3094   4.825   0.743   4.748 -0.3450 -0.3094 -0.3337
   42CHL1  H23B 3095   4.859   0.921   4.754  0.0394 -0.0168  1.7802
   42CHL1   C24 3096   4.856   0.821   4.941 -0.0111  0.5447 -0.6367
   42CHL1  H24A 3097   4.962   0.788   4.938 -0.3284 -0.5619 -0.1698
   42CHL1  H24B 3098   4.846   0.915   4.999 -0.7291 -0.9955  1.8706
   42CHL1   C25 3099   4.781   0.710   5.026 -0.0712 -0.9348 -0.3025
   42CHL1   H25 3100   4.673   0.722   5.001  0.1915 -0.2253 -1.1545
   42CHL1   C26 3101   4.837   0.568   4.991  0.1506 -0.2366 -0.7886
   42CHL1  H26A 3102   4.807   0.530   4.891 -0.8030  2.8789 -1.7854
   42CHL1  H26B 3103   4.946   0.568   5.014  0.1292  1.5827 -0.5480
   42CHL1  H26C 3104   4.780   0.508   5.065 -4.6999  1.2299 -2.9833
   42CHL1   C27 3105   4.803   0.738   5.170 -0.7892  0.0946 -0.6189
   42CHL1  H27A 3106   4.744   0.669   5.235 -1.7074  1.2213 -0.2228
   42CHL1  H27B 3107   4.910   0.719   5.192 -1.0077  1.3556  1.9414
   42CHL1  H27C 3108   4.781   0.843   5.198 -0.2263  0.4915 -1.6338
   43CHL1    C3 3109   1.676   0.120   3.609 -0.9077 -0.1801  0.3332
   43CHL1    H3 3110   1.590   0.129   3.679 -0.1520 -3.5025  1.8939
   43CHL1    O3 3111   1.636   0.142   3.481 -0.0163 -0.3067  0.0018
   43CHL1   H3' 3112   1.703   0.105   3.423  0.6921  1.1660 -0.1498
   43CHL1    C4 3113   1.790   0.213   3.648 -0.6112 -0.0988 -0.4404
   43CHL1   H4A 3114   1.858   0.213   3.560 -1.2722  2.8847 -1.0366
   43CHL1   H4B 3115   1.747   0.315   3.649  2.6646  1.3911  0.8867
   43CHL1    C5 3116   1.858   0.173   3.782  0.3181  0.5150  0.2151
   43CHL1    C6 3117   1.862   0.269   3.877 -0.0861  0.1789  0.2959
   43CHL1    H6 3118   1.817   0.368   3.859 -1.1487 -0.5116 -1.0844
   43CHL1    C7 3119   1.928   0.243   4.004 -0.4826  0.0279 -0.2897
   43CHL1   H7A 3120   1.986   0.336   4.022 -2.2920  0.8487  1.7140
   43CHL1   H7B 3121   1.848   0.247   4.080 -0.1595  2.4180 -0.0060
   43CHL1    C8 3122   2.018   0.118   4.018  0.1019  0.3339  0.0954
   43CHL1    H8 3123   2.114   0.128   3.963 -1.0672 -1.4369 -2.4291
   43CHL1   C14 3124   2.056   0.092   4.158 -0.6152  0.2787 -0.0510
   43CHL1   H14 3125   1.960   0.072   4.211 -1.4446 -0.0784 -1.6154
   43CHL1   C15 3126   2.132   0.204   4.235 -0.6211 -0.0378 -0.0222
   43CHL1  H15A 3127   2.218   0.245   4.179  0.0891  0.3779  1.3367
   43CHL1  H15B 3128   2.067   0.293   4.252 -0.8520 -0.4082  1.1358
   43CHL1   C16 3129   2.191   0.122   4.353 -0.6914 -0.0004  0.2828
   43CHL1  H16A 3130   2.301   0.134   4.347 -0.8132  1.5036  0.6427
   43CHL1  H16B 3131   2.163   0.145   4.458 -0.7812  0.0531  0.2475
   43CHL1   C17 3132   2.159  -0.029   4.321  0.0813 -0.3795  0.0128
   43CHL1   H17 3133   2.064  -0.046   4.375 -0.2983 -0.7568 -0.7611
   43CHL1   C13 3134   2.136  -0.036   4.167 -0.2273 -0.1265  0.1482
   43CHL1   C18 3135   2.278  -0.022   4.084  0.3998 -0.2360 -0.9057
   43CHL1  H18A 3136   2.338   0.068   4.109 -2.3779  1.6153 -0.4848
   43CHL1  H18B 3137   2.338  -0.112   4.110 -0.2367 -0.6773 -0.9450
   43CHL1  H18C 3138   2.264  -0.016   3.974 -0.3642 -0.2335 -0.8133
   43CHL1   C12 3139   2.057  -0.156   4.114 -0.0101  0.3098  0.0217
   43CHL1  H12A 3140   2.123  -0.244   4.123  0.5581  0.7793  0.5911
   43CHL1  H12B 3141   1.961  -0.161   4.169 -0.4065  2.5195 -0.3855
   43CHL1   C11 3142   2.018  -0.128   3.972  0.3720  0.7122  0.4847
   43CHL1  H11A 3143   2.105  -0.126   3.904 -0.9427 -3.7720 -1.7245
   43CHL1  H11B 3144   1.956  -0.212   3.932  2.2478  0.2383 -1.6170
   43CHL1    C9 3145   1.944  -0.000   3.956  0.5967 -0.0450  0.1679
   43CHL1    H9 3146   1.847  -0.014   4.008  1.0644  1.7830  1.6353
   43CHL1   C10 3147   1.909   0.036   3.805  0.2159  0.7985 -0.0402
   43CHL1   C19 3148   2.038   0.023   3.704  1.1189 -0.1771 -0.4369
   43CHL1  H19A 3149   2.119   0.087   3.746 -1.6754  2.8014  0.9111
   43CHL1  H19B 3150   2.069  -0.082   3.687  1.3227 -0.5619  1.9768
   43CHL1  H19C 3151   2.005   0.064   3.606  2.3536  0.7065 -0.5033
   43CHL1    C1 3152   1.793  -0.058   3.755  0.0806  0.5127 -0.0690
   43CHL1   H1A 3153   1.834  -0.157   3.727  0.6747  0.1469  1.9640
   43CHL1   H1B 3154   1.719  -0.071   3.837  0.0790  0.5519 -0.0644
   43CHL1    C2 3155   1.719  -0.026   3.622  0.2147 -0.1132 -0.0649
   43CHL1   H2A 3156   1.638  -0.101   3.614  2.2834 -2.5172  0.1226
   43CHL1   H2B 3157   1.793  -0.042   3.540  0.1938  2.5358 -0.6960
   43CHL1   C20 3158   2.254  -0.139   4.384  0.2812  0.0593  0.1224
   43CHL1   H20 3159   2.353  -0.131   4.333  0.8245  2.4416  1.3891
   43CHL1   C21 3160   2.187  -0.283   4.393  0.2867  0.0675  0.3919
   43CHL1  H21A 3161   2.187  -0.337   4.296 -1.8453 -1.8649  1.3811
   43CHL1  H21B 3162   2.082  -0.271   4.427  0.8262  1.3418  1.7231
   43CHL1  H21C 3163   2.239  -0.342   4.471  0.4541 -0.0038  0.2260
   43CHL1   C22 3164   2.300  -0.117   4.527 -0.2581 -0.8257  0.2259
   43CHL1  H22A 3165   2.346  -0.212   4.563 -1.0102 -1.2244  0.1487
   43CHL1  H22B 3166   2.377  -0.037   4.524 -0.8676 -0.2749 -1.8736
   43CHL1   C23 3167   2.201  -0.090   4.642  0.1877  0.0049 -0.0050
   43CHL1  H23A 3168   2.127  -0.009   4.622  1.9375  1.1954 -2.0763
   43CHL1  H23B 3169   2.141  -0.183   4.646  2.4480 -1.5247 -0.4203
   43CHL1   C24 3170   2.273  -0.069   4.780  0.5363 -0.0581  0.0627
   43CHL1  H24A 3171   2.346  -0.153   4.789  2.0779  1.2693  0.6182
   43CHL1  H24B 3172   2.338   0.022   4.783  0.0640  0.2994 -0.4346
   43CHL1   C25 3173   2.179  -0.079   4.898 -0.3338 -0.6773 -0.4042
   43CHL1   H25 3174   2.102  -0.002   4.880  0.9171  0.4674 -1.0665
   43CHL1   C26 3175   2.110  -0.206   4.925  0.5287 -0.1293  0.4197
   43CHL1  H26A 3176   2.167  -0.274   4.992  2.2122  1.3953  0.6074
   43CHL1  H26B 3177   2.017  -0.174   4.976  0.9524  1.2928  0.3493
   43CHL1  H26C 3178   2.074  -0.254   4.831 -0.2854  0.4958  0.4063
   43CHL1   C27 3179   2.262  -0.018   5.014 -0.3030  0.1751  0.1560
   43CHL1  H27A 3180   2.295   0.086   4.992 -2.2892  0.7748 -0.1626
   43CHL1  H27B 3181   2.201  -0.018   5.106  1.4793 -2.0229  1.4363
   43CHL1  H27C 3182   2.345  -0.090   5.033 -0.5802 -0.1123  0.2747
   44CHL1    C3 3183   5.185   6.420   3.920  0.4022 -0.0291 -0.0521
   44CHL1    H3 3184   5.279   6.366   3.946  1.1169  1.4362  0.5561
   44CHL1    O3 3185   5.176   6.444   3.779 -0.0235  0.1131 -0.6141
   44CHL1   H3' 3186   5.117   6.385   3.733  0.9604  0.3954 -2.3289
   44CHL1    C4 3187   5.054   6.351   3.965  0.2780  0.5621  0.3212
   44CHL1   H4A 3188   4.966   6.390   3.911 -0.3782  0.8049  1.5333
   44CHL1   H4B 3189   5.065   6.245   3.933  0.3933  1.2225 -1.9369
   44CHL1    C5 3190   5.055   6.352   4.118 -0.6443  0.5474 -0.4740
   44CHL1    C6 3191   5.040   6.237   4.185  0.2755 -0.3322  0.0913
   44CHL1    H6 3192   5.017   6.147   4.127 -0.4204  1.3046 -2.3618
   44CHL1    C7 3193   5.049   6.237   4.335  0.3499  0.3602 -0.0962
   44CHL1   H7A 3194   4.974   6.166   4.376 -1.3530  3.4023  2.4903
   44CHL1   H7B 3195   5.152   6.201   4.358 -0.0156 -0.6094  0.0926
   44CHL1    C8 3196   5.012   6.368   4.410  0.5758 -0.3883 -0.3848
   44CHL1    H8 3197   4.906   6.397   4.392  0.7323  0.0190 -0.6548
   44CHL1   C14 3198   5.031   6.361   4.561 -0.0058  0.6197 -0.7543
   44CHL1   H14 3199   5.137   6.328   4.571 -0.3722 -0.3032  0.2401
   44CHL1   C15 3200   4.954   6.256   4.647 -0.1557  0.7325  0.1210
   44CHL1  H15A 3201   4.845   6.254   4.624 -0.6261  0.4258  2.1346
   44CHL1  H15B 3202   4.996   6.154   4.636  0.2354  0.3075  4.0738
   44CHL1   C16 3203   4.985   6.300   4.792  1.0348 -0.7107 -0.1698
   44CHL1  H16A 3204   4.904   6.303   4.868  0.5163  0.5684 -0.7438
   44CHL1  H16B 3205   5.066   6.234   4.827  3.8679  3.5885  2.3340
   44CHL1   C17 3206   5.057   6.442   4.781  0.2807 -0.0985 -0.3023
   44CHL1   H17 3207   5.167   6.429   4.777  0.3035  0.3465 -1.6584
   44CHL1   C13 3208   5.030   6.494   4.638 -0.0525 -0.2503  0.8838
   44CHL1   C18 3209   4.884   6.539   4.635  0.1498  0.4053  0.6747
   44CHL1  H18A 3210   4.840   6.516   4.734 -1.2101  0.5184  0.1137
   44CHL1  H18B 3211   4.884   6.649   4.618 -0.4044  0.1978 -0.7812
   44CHL1  H18C 3212   4.822   6.500   4.552 -3.5367  0.4312  3.1873
   44CHL1   C12 3213   5.126   6.592   4.562 -0.5216 -0.0179  0.0025
   44CHL1  H12A 3214   5.108   6.686   4.617  0.5644  1.8851 -2.6512
   44CHL1  H12B 3215   5.229   6.554   4.580  1.0066  2.8229 -1.8586
   44CHL1   C11 3216   5.101   6.618   4.416  0.1596 -0.1618  0.5345
   44CHL1  H11A 3217   5.002   6.667   4.398  1.6467  2.4370 -1.3582
   44CHL1  H11B 3218   5.181   6.681   4.371 -1.6196  2.7786  1.1871
   44CHL1    C9 3219   5.101   6.474   4.342 -0.5415 -0.2081 -0.0677
   44CHL1    H9 3220   5.204   6.438   4.363 -0.4917 -0.6335 -0.9821
   44CHL1   C10 3221   5.082   6.482   4.184 -0.8882  0.8884  0.1312
   44CHL1   C19 3222   4.952   6.571   4.158  0.3127  0.7468 -0.2118
   44CHL1  H19A 3223   4.978   6.679   4.164  1.2896  0.5095  0.0887
   44CHL1  H19B 3224   4.905   6.559   4.058 -0.3931 -2.8432  0.4092
   44CHL1  H19C 3225   4.878   6.546   4.237  2.1282  0.3565  1.4357
   44CHL1    C1 3226   5.201   6.561   4.126 -0.7138 -0.4985 -0.2504
   44CHL1   H1A 3227   5.210   6.665   4.166 -2.0829  0.5386 -2.4526
   44CHL1   H1B 3228   5.290   6.502   4.155 -0.4518 -0.0509 -0.1324
   44CHL1    C2 3229   5.208   6.559   3.972  0.0388  0.0127 -0.7322
   44CHL1   H2A 3230   5.304   6.603   3.937 -0.2560 -0.1630 -1.7956
   44CHL1   H2B 3231   5.127   6.625   3.932  0.2580 -0.7471 -2.5436
   44CHL1   C20 3232   5.036   6.540   4.899 -0.8524  0.8780  0.6476
   44CHL1   H20 3233   4.930   6.574   4.906 -1.4073 -1.0075  2.2391
   44CHL1   C21 3234   5.111   6.670   4.878  0.1730 -0.1434  0.3565
   44CHL1  H21A 3235   5.221   6.662   4.865  0.3967 -0.4439  2.2498
   44CHL1  H21B 3236   5.129   6.726   4.972  0.6376  1.9576 -0.8974
   44CHL1  H21C 3237   5.062   6.741   4.808  2.8964 -0.2569 -1.8594
   44CHL1   C22 3238   5.074   6.478   5.036 -0.0010 -0.5203  0.1721
   44CHL1  H22A 3239   5.018   6.382   5.034 -0.2695 -0.3663  0.1731
   44CHL1  H22B 3240   5.184   6.465   5.043 -0.0806 -2.4404 -1.5181
   44CHL1   C23 3241   5.006   6.551   5.161 -0.7447 -0.1542  0.2860
   44CHL1  H23A 3242   5.032   6.658   5.151 -2.7014  0.2106 -1.5597
   44CHL1  H23B 3243   4.896   6.540   5.154 -0.6325 -1.6018  0.4625
   44CHL1   C24 3244   5.062   6.489   5.288  0.0422  0.7439  0.2224
   44CHL1  H24A 3245   5.052   6.379   5.276  4.7274 -0.1601  2.1963
   44CHL1  H24B 3246   5.171   6.508   5.281  0.1722  0.2362  0.7172
   44CHL1   C25 3247   5.008   6.541   5.419 -0.3408  0.3746 -0.1446
   44CHL1   H25 3248   4.897   6.531   5.417 -0.2488 -0.6672 -1.4343
   44CHL1   C26 3249   5.054   6.457   5.530 -0.4982 -0.0600 -0.1405
   44CHL1  H26A 3250   5.014   6.480   5.631  0.6251  1.9644 -0.1036
   44CHL1  H26B 3251   5.040   6.347   5.525  0.1831 -0.1421 -0.4045
   44CHL1  H26C 3252   5.166   6.457   5.530 -0.4540 -1.5000 -2.1480
   44CHL1   C27 3253   5.045   6.692   5.429  0.0089 -0.1429  0.0658
   44CHL1  H27A 3254   5.041   6.742   5.529  0.2767  1.8992 -0.8898
   44CHL1  H27B 3255   5.150   6.699   5.394 -0.1728 -1.4123 -0.7776
   44CHL1  H27C 3256   4.970   6.740   5.363  1.5089 -0.3398 -1.8479
   45CHL1    C3 3257   5.836   1.829   3.608  0.4254  0.5154 -0.4710
   45CHL1    H3 3258   5.861   1.724   3.635 -1.2880  1.2495  5.3546
   45CHL1    O3 3259   5.849   1.853   3.467  0.4054  0.4681 -0.4600
   45CHL1   H3' 3260   5.937   1.816   3.453  1.5484  2.2921  1.2583
   45CHL1    C4 3261   5.697   1.860   3.649  0.0930  0.5132  0.1719
   45CHL1   H4A 3262   5.672   1.952   3.592 -0.7791  0.4747  0.4875
   45CHL1   H4B 3263   5.622   1.796   3.597 -0.0376  1.2419 -0.5528
   45CHL1    C5 3264   5.670   1.868   3.802 -0.0321 -0.5812  0.1622
   45CHL1    C6 3265   5.568   1.801   3.862 -0.4493 -0.0699  0.1741
   45CHL1    H6 3266   5.494   1.738   3.810 -0.9694  0.0647  0.7437
   45CHL1    C7 3267   5.541   1.812   4.005 -0.0369 -0.1119  0.1370
   45CHL1   H7A 3268   5.431   1.822   4.018 -0.0105 -0.7930  0.9335
   45CHL1   H7B 3269   5.579   1.720   4.055 -0.2865  0.0415  0.6037
   45CHL1    C8 3270   5.616   1.920   4.078  0.1786  0.0971  0.0752
   45CHL1    H8 3271   5.571   2.015   4.044 -0.9499 -0.4160  0.0837
   45CHL1   C14 3272   5.603   1.910   4.231 -0.4293 -0.3572  0.3111
   45CHL1   H14 3273   5.639   1.806   4.249 -0.7603 -0.5074  0.1251
   45CHL1   C15 3274   5.457   1.900   4.284 -1.2938  0.9032  0.1581
   45CHL1  H15A 3275   5.397   1.983   4.241 -0.5243  1.0136 -0.7510
   45CHL1  H15B 3276   5.413   1.800   4.261 -0.1879  0.0026  1.7298
   45CHL1   C16 3277   5.479   1.918   4.437 -0.4622 -0.2629 -0.1533
   45CHL1  H16A 3278   5.399   1.989   4.466 -0.1113 -0.0994  0.4338
   45CHL1  H16B 3279   5.465   1.821   4.488 -0.0615 -0.8367 -1.0944
   45CHL1   C17 3280   5.629   1.955   4.462  0.3179  0.0600  0.1181
   45CHL1   H17 3281   5.682   1.863   4.495 -0.6986  0.0489  1.8642
   45CHL1   C13 3282   5.680   2.005   4.319 -0.0600  0.6411  0.4908
   45CHL1   C18 3283   5.633   2.151   4.294 -0.1028  1.2204  0.4191
   45CHL1  H18A 3284   5.686   2.227   4.354 -0.6798  2.8310 -1.0320
   45CHL1  H18B 3285   5.644   2.181   4.187 -0.4013 -0.2809 -0.0583
   45CHL1  H18C 3286   5.525   2.168   4.314 -1.0500 -2.2734 -0.9282
   45CHL1   C12 3287   5.832   1.993   4.283 -0.0065 -0.2167  0.3750
   45CHL1  H12A 3288   5.892   2.061   4.347  1.4642 -2.2976  1.3314
   45CHL1  H12B 3289   5.853   1.887   4.308 -2.2751 -0.2067  2.6961
   45CHL1   C11 3290   5.855   2.024   4.131  0.1407  0.6492 -0.6792
   45CHL1  H11A 3291   5.849   2.133   4.113  2.7735  0.5670 -2.7018
   45CHL1  H11B 3292   5.960   1.997   4.106  0.9477  1.7824  1.3041
   45CHL1    C9 3293   5.759   1.933   4.037 -0.5703 -0.4216  0.0566
   45CHL1    H9 3294   5.806   1.834   4.051  0.9980  0.3583  0.5412
   45CHL1   C10 3295   5.771   1.947   3.888  0.2901 -0.0908  0.2229
   45CHL1   C19 3296   5.749   2.100   3.845 -0.0866 -0.3001  0.1020
   45CHL1  H19A 3297   5.757   2.103   3.735 -1.4384 -1.9122 -0.0758
   45CHL1  H19B 3298   5.647   2.132   3.875 -1.6184 -1.6732 -3.1525
   45CHL1  H19C 3299   5.823   2.165   3.897 -0.3059  0.4723 -0.5305
   45CHL1    C1 3300   5.917   1.914   3.834  0.5362 -0.1557  0.4641
   45CHL1   H1A 3301   5.984   1.975   3.898 -1.5658 -0.2231  2.9091
   45CHL1   H1B 3302   5.940   1.809   3.862 -0.0325 -0.7158 -1.0807
   45CHL1    C2 3303   5.938   1.916   3.685 -0.2864 -0.8622 -0.5718
   45CHL1   H2A 3304   6.038   1.876   3.657 -0.2630 -0.4856 -1.0358
   45CHL1   H2B 3305   5.935   2.023   3.655 -0.1897 -1.0970 -1.4407
   45CHL1   C20 3306   5.630   2.060   4.572  0.4055 -0.3333  0.2866
   45CHL1   H20 3307   5.597   2.162   4.543  1.5595 -0.4726 -1.7785
   45CHL1   C21 3308   5.778   2.063   4.615 -0.1214 -0.9527  0.0027
   45CHL1  H21A 3309   5.786   2.112   4.715  1.5327 -2.1842  0.5223
   45CHL1  H21B 3310   5.849   2.115   4.548  1.0715 -1.3483  0.9180
   45CHL1  H21C 3311   5.820   1.961   4.630 -0.4974 -0.9974  0.8586
   45CHL1   C22 3312   5.542   2.026   4.698  0.3180 -0.2421 -0.1895
   45CHL1  H22A 3313   5.568   2.103   4.774 -0.0849 -0.7761  0.4947
   45CHL1  H22B 3314   5.433   2.024   4.676  0.1392  1.2134  0.4355
   45CHL1   C23 3315   5.589   1.895   4.773  0.3522 -0.3506 -0.0791
   45CHL1  H23A 3316   5.612   1.824   4.690  0.4532  1.2343 -1.4663
   45CHL1  H23B 3317   5.688   1.905   4.822  1.1501  0.1617 -1.7154
   45CHL1   C24 3318   5.483   1.828   4.869 -0.5285 -0.2925 -0.5905
   45CHL1  H24A 3319   5.380   1.828   4.828 -1.0982 -2.3719  0.6790
   45CHL1  H24B 3320   5.520   1.724   4.881 -1.3370 -0.6040 -0.7278
   45CHL1   C25 3321   5.474   1.892   5.011 -0.6284  0.2552  0.5114
   45CHL1   H25 3322   5.577   1.917   5.046 -0.2632 -0.4486 -0.0205
   45CHL1   C26 3323   5.387   2.018   5.012 -0.4733  0.6455 -0.0990
   45CHL1  H26A 3324   5.360   2.034   5.119  2.8906 -2.0348  1.3427
   45CHL1  H26B 3325   5.441   2.100   4.959  1.6428 -0.8793 -0.4494
   45CHL1  H26C 3326   5.293   1.987   4.962 -2.1256 -0.9810  3.5890
   45CHL1   C27 3327   5.420   1.785   5.106 -0.3169  0.1539  0.2776
   45CHL1  H27A 3328   5.318   1.752   5.078  0.0680  0.1442 -1.2170
   45CHL1  H27B 3329   5.480   1.694   5.127 -3.0904 -1.3151  2.4803
   45CHL1  H27C 3330   5.418   1.826   5.209  0.9260 -0.4897  0.5725
   46CHL1    C3 3331   3.650   0.851   3.813  0.5252  0.5033 -0.0047
   46CHL1    H3 3332   3.656   0.741   3.828 -3.0091  0.2767  0.4689
   46CHL1    O3 3333   3.647   0.891   3.680  0.0580  0.0788 -0.2642
   46CHL1   H3' 3334   3.616   0.981   3.685  0.7900  0.4293 -1.5884
   46CHL1    C4 3335   3.509   0.888   3.860  0.3712 -0.3000 -0.2987
   46CHL1   H4A 3336   3.501   0.993   3.825 -1.3987 -0.8203 -1.5736
   46CHL1   H4B 3337   3.441   0.825   3.799  0.7497 -0.7205 -0.2881
   46CHL1    C5 3338   3.486   0.875   4.010  0.2454  0.3243 -0.3572
   46CHL1    C6 3339   3.393   0.791   4.061  0.5741  0.3537  0.7039
   46CHL1    H6 3340   3.340   0.736   3.982  2.4323  2.1873 -1.9776
   46CHL1    C7 3341   3.365   0.761   4.211  0.4118 -0.7362 -0.2418
   46CHL1   H7A 3342   3.255   0.751   4.226  0.1812 -0.6695 -1.7085
   46CHL1   H7B 3343   3.409   0.661   4.233  1.6692 -0.2846 -0.5993
   46CHL1    C8 3344   3.430   0.880   4.290 -0.1722  0.1366 -0.1209
   46CHL1    H8 3345   3.367   0.970   4.282  1.6376  1.5287  0.5308
   46CHL1   C14 3346   3.430   0.841   4.439 -0.4183  0.3735  0.4086
   46CHL1   H14 3347   3.503   0.758   4.446 -0.8374  0.0251  0.7009
   46CHL1   C15 3348   3.306   0.784   4.506  0.6669 -0.0184 -0.4770
   46CHL1  H15A 3349   3.214   0.845   4.494  1.2376  0.9221 -0.2286
   46CHL1  H15B 3350   3.293   0.680   4.469  1.6567  0.1178 -1.2533
   46CHL1   C16 3351   3.335   0.785   4.658  0.0079  0.4252 -0.3280
   46CHL1  H16A 3352   3.257   0.840   4.714  0.2481  0.2274  0.2047
   46CHL1  H16B 3353   3.340   0.685   4.704 -0.6613  0.3499 -0.4077
   46CHL1   C17 3354   3.473   0.872   4.665  0.1284  0.3294 -0.0286
   46CHL1   H17 3355   3.563   0.807   4.667  0.7130  1.1225  0.5061
   46CHL1   C13 3356   3.487   0.947   4.526 -0.1138  0.1019 -0.0643
   46CHL1   C18 3357   3.395   1.068   4.523  0.5960  0.4621  0.3812
   46CHL1  H18A 3358   3.387   1.119   4.425 -1.3225 -0.5558 -0.0383
   46CHL1  H18B 3359   3.293   1.034   4.553 -0.0714 -0.4246 -2.6027
   46CHL1  H18C 3360   3.430   1.145   4.595  2.1879 -0.2583  0.4225
   46CHL1   C12 3361   3.633   0.971   4.487 -0.2190 -0.1173 -0.2308
   46CHL1  H12A 3362   3.671   1.043   4.563 -1.5384  0.6818 -0.2898
   46CHL1  H12B 3363   3.698   0.883   4.506 -0.7494 -0.7195 -1.1306
   46CHL1   C11 3364   3.644   1.015   4.339 -0.5166 -0.3069 -0.7727
   46CHL1  H11A 3365   3.596   1.114   4.327  0.6196  0.3500 -0.0604
   46CHL1  H11B 3366   3.753   1.017   4.319 -0.4682 -0.5967 -0.5584
   46CHL1    C9 3367   3.571   0.911   4.242 -0.2957  0.0867  0.9485
   46CHL1    H9 3368   3.635   0.821   4.254  0.2224  0.6168  2.4038
   46CHL1   C10 3369   3.585   0.953   4.093  0.3682  0.3987  0.2821
   46CHL1   C19 3370   3.551   1.110   4.080  0.5857  0.5427 -0.6758
   46CHL1  H19A 3371   3.451   1.137   4.118  0.3774 -0.8800 -0.1491
   46CHL1  H19B 3372   3.628   1.171   4.133  1.5814 -1.2128 -0.0198
   46CHL1  H19C 3373   3.552   1.159   3.980 -1.6893 -1.1271 -1.5865
   46CHL1    C1 3374   3.721   0.906   4.044  0.2239  0.4258  0.3564
   46CHL1   H1A 3375   3.795   0.962   4.105 -0.8730  0.7990  1.3932
   46CHL1   H1B 3376   3.737   0.798   4.067 -0.6698  0.2664  0.2558
   46CHL1    C2 3377   3.760   0.916   3.896 -1.0322  0.3477  0.1807
   46CHL1   H2A 3378   3.864   0.883   3.880 -0.9005  0.4768  0.7535
   46CHL1   H2B 3379   3.771   1.026   3.881  2.4048  0.0984  0.1540
   46CHL1   C20 3380   3.484   0.944   4.799  0.0984 -0.1341  0.3436
   46CHL1   H20 3381   3.391   1.005   4.802  1.1328  1.8260 -2.8091
   46CHL1   C21 3382   3.600   1.042   4.812  0.0732 -0.5326  0.0170
   46CHL1  H21A 3383   3.597   1.128   4.742 -2.4170 -2.7240 -2.8370
   46CHL1  H21B 3384   3.695   0.993   4.781  1.9782  1.5111  2.2029
   46CHL1  H21C 3385   3.601   1.083   4.916 -2.5185  0.7364 -0.3741
   46CHL1   C22 3386   3.478   0.846   4.922 -0.1969 -0.7744 -0.1613
   46CHL1  H22A 3387   3.425   0.751   4.899  0.1275 -0.3960 -2.8538
   46CHL1  H22B 3388   3.584   0.827   4.947  0.4686  2.5403  0.0075
   46CHL1   C23 3389   3.412   0.912   5.044 -0.4602 -0.0091 -0.5740
   46CHL1  H23A 3390   3.437   1.020   5.044 -0.2578 -0.0536 -0.1634
   46CHL1  H23B 3391   3.305   0.914   5.013 -0.5918  1.2672 -0.1261
   46CHL1   C24 3392   3.426   0.833   5.174 -0.2236 -0.1513 -1.2703
   46CHL1  H24A 3393   3.396   0.727   5.162  1.5105 -0.9414  0.8251
   46CHL1  H24B 3394   3.535   0.830   5.199 -0.4545  0.8942 -0.0149
   46CHL1   C25 3395   3.344   0.880   5.296  0.3539  0.0953 -0.4101
   46CHL1   H25 3396   3.239   0.907   5.273 -0.5086 -0.3031  2.5517
   46CHL1   C26 3397   3.328   0.772   5.404 -0.0679 -0.2145  0.8061
   46CHL1  H26A 3398   3.254   0.809   5.478  0.7785  1.5971  0.7986
   46CHL1  H26B 3399   3.286   0.681   5.357 -0.2040  1.2155 -2.0978
   46CHL1  H26C 3400   3.425   0.752   5.452  1.0697  1.4708 -0.6317
   46CHL1   C27 3401   3.401   1.013   5.361  0.2547 -0.4991 -0.0379
   46CHL1  H27A 3402   3.388   1.100   5.294 -1.6561  1.0423  2.1770
   46CHL1  H27B 3403   3.343   1.049   5.449  0.0329  0.3026 -0.5040
   46CHL1  H27C 3404   3.510   0.994   5.372  0.0510 -1.9025 -0.2488
   47CHL1    C3 3405   0.683   2.391   3.869 -0.1443  0.3263 -0.0372
   47CHL1    H3 3406   0.597   2.461   3.881  0.9351  1.5709  0.8277
   47CHL1    O3 3407   0.701   2.363   3.734  0.6222 -0.0420  0.1216
   47CHL1   H3' 3408   0.637   2.292   3.724 -0.9024  1.3559 -0.5579
   47CHL1    C4 3409   0.805   2.446   3.942 -0.4610  0.1461  0.2295
   47CHL1   H4A 3410   0.889   2.375   3.928 -1.0820 -0.4203 -0.7463
   47CHL1   H4B 3411   0.824   2.542   3.890 -2.5276  2.0652  2.7153
   47CHL1    C5 3412   0.781   2.470   4.086 -0.1042 -0.3443 -0.8965
   47CHL1    C6 3413   0.798   2.593   4.140  0.0425  0.1730  0.1006
   47CHL1    H6 3414   0.826   2.678   4.076 -2.2908  0.2928 -0.8741
   47CHL1    C7 3415   0.777   2.624   4.284 -0.3688 -0.3362 -0.0905
   47CHL1   H7A 3416   0.870   2.668   4.327  0.2341 -0.3366 -1.3449
   47CHL1   H7B 3417   0.688   2.686   4.307 -0.7118  0.2755 -2.6877
   47CHL1    C8 3418   0.766   2.488   4.362 -0.7176  0.5145 -0.0594
   47CHL1    H8 3419   0.863   2.439   4.385 -0.9092 -0.3753 -1.0568
   47CHL1   C14 3420   0.710   2.516   4.506 -0.0664  0.1841  0.5668
   47CHL1   H14 3421   0.608   2.552   4.479 -0.4485 -2.0404 -1.2206
   47CHL1   C15 3422   0.779   2.628   4.590 -0.1535 -0.2515 -0.2292
   47CHL1  H15A 3423   0.889   2.615   4.591 -0.0696  0.4256  0.9208
   47CHL1  H15B 3424   0.747   2.728   4.554  1.1432  0.0529 -0.5789
   47CHL1   C16 3425   0.715   2.608   4.734  0.2542 -0.4913 -0.4245
   47CHL1  H16A 3426   0.804   2.594   4.799  1.0357 -1.9173 -1.7387
   47CHL1  H16B 3427   0.648   2.694   4.757  0.0298 -0.0507 -2.4799
   47CHL1   C17 3428   0.642   2.476   4.728 -0.3638  0.1278  0.1271
   47CHL1   H17 3429   0.540   2.497   4.689 -1.4764 -2.0080  1.6556
   47CHL1   C13 3430   0.692   2.403   4.601  0.3675 -0.8974 -0.0035
   47CHL1   C18 3431   0.829   2.332   4.634  0.0540 -0.6127  0.1785
   47CHL1  H18A 3432   0.896   2.404   4.687 -0.8734 -0.2989  0.9603
   47CHL1  H18B 3433   0.818   2.256   4.714 -0.5997  0.1014  0.7819
   47CHL1  H18C 3434   0.878   2.288   4.545  1.5028 -1.6843  1.4378
   47CHL1   C12 3435   0.593   2.307   4.533 -0.1350  0.1854  0.2684
   47CHL1  H12A 3436   0.560   2.222   4.596  0.3729  0.6072  1.1299
   47CHL1  H12B 3437   0.498   2.362   4.520 -2.2259 -3.4044 -0.9829
   47CHL1   C11 3438   0.647   2.266   4.394  0.1698 -0.0278 -0.8251
   47CHL1  H11A 3439   0.736   2.202   4.412  0.3227  0.1467 -0.9505
   47CHL1  H11B 3440   0.564   2.209   4.347 -1.7636  0.1401  2.1047
   47CHL1    C9 3441   0.679   2.381   4.303 -0.5122 -0.2828 -0.1265
   47CHL1    H9 3442   0.576   2.423   4.293  0.2194  2.1086  1.5696
   47CHL1   C10 3443   0.727   2.339   4.162 -0.3539 -0.5133 -1.2363
   47CHL1   C19 3444   0.855   2.249   4.159  0.3266  0.3943 -0.4900
   47CHL1  H19A 3445   0.881   2.212   4.058 -3.9747 -2.9221 -0.6420
   47CHL1  H19B 3446   0.945   2.297   4.204  1.6659 -1.6674 -0.8319
   47CHL1  H19C 3447   0.838   2.158   4.221 -0.3171 -0.0217 -1.2655
   47CHL1    C1 3448   0.609   2.277   4.084 -0.2773 -0.1693  0.1173
   47CHL1   H1A 3449   0.589   2.171   4.109 -0.8875 -0.1730 -0.3725
   47CHL1   H1B 3450   0.524   2.349   4.088  0.4796  0.9084 -1.7335
   47CHL1    C2 3451   0.638   2.262   3.935  0.6494  0.2666 -0.4593
   47CHL1   H2A 3452   0.556   2.219   3.873  2.4469 -2.7026 -0.9993
   47CHL1   H2B 3453   0.711   2.181   3.915  1.2579  0.9774 -1.2011
   47CHL1   C20 3454   0.622   2.413   4.866 -0.4226  0.2906 -0.3708
   47CHL1   H20 3455   0.721   2.381   4.906 -1.3176 -2.6821 -0.2983
   47CHL1   C21 3456   0.548   2.283   4.852  0.6431 -0.6535  0.2092
   47CHL1  H21A 3457   0.460   2.293   4.785 -0.2030  1.1720  1.5362
   47CHL1  H21B 3458   0.504   2.257   4.950  1.5703  1.7258  1.3161
   47CHL1  H21C 3459   0.616   2.206   4.809  1.2591 -0.0348  0.0571
   47CHL1   C22 3460   0.553   2.516   4.962 -0.0438  0.1599  0.6083
   47CHL1  H22A 3461   0.574   2.623   4.945 -2.1038  0.5500  0.2750
   47CHL1  H22B 3462   0.443   2.502   4.947 -0.0145  0.6116 -0.0495
   47CHL1   C23 3463   0.594   2.498   5.109 -0.7822  0.7009 -0.9280
   47CHL1  H23A 3464   0.566   2.392   5.128  3.1555 -0.5027 -0.8262
   47CHL1  H23B 3465   0.704   2.487   5.119 -1.0344 -5.2478 -1.1712
   47CHL1   C24 3466   0.538   2.600   5.203 -0.1279  0.2122  0.4846
   47CHL1  H24A 3467   0.559   2.696   5.152 -3.7168  1.3475  0.9069
   47CHL1  H24B 3468   0.427   2.594   5.205 -0.2601  1.7209 -0.8585
   47CHL1   C25 3469   0.581   2.586   5.345  0.0834 -0.2883 -0.0008
   47CHL1   H25 3470   0.691   2.599   5.354  0.3760 -0.6866 -2.4528
   47CHL1   C26 3471   0.518   2.704   5.419  0.7076  0.5998 -0.0123
   47CHL1  H26A 3472   0.537   2.805   5.378  0.1239  1.1282  1.0032
   47CHL1  H26B 3473   0.407   2.696   5.412  0.8495 -0.2788 -2.3030
   47CHL1  H26C 3474   0.552   2.698   5.524  0.5639 -0.0346  0.0028
   47CHL1   C27 3475   0.545   2.451   5.418 -0.3132 -0.5920 -0.4002
   47CHL1  H27A 3476   0.627   2.382   5.388  0.0642  0.9718 -3.3600
   47CHL1  H27B 3477   0.519   2.460   5.526 -1.0724 -0.9640 -0.5437
   47CHL1  H27C 3478   0.450   2.421   5.369 -0.5315  2.1238 -1.8162
   48CHL1    C3 3479   0.150   6.107   3.924  0.0546 -0.2131 -0.6007
   48CHL1    H3 3480   0.094   6.017   3.959  0.1737 -0.2827 -0.5880
   48CHL1    O3 3481   0.154   6.119   3.783  0.2181  0.3645  0.2439
   48CHL1   H3' 3482   0.188   6.208   3.770  0.8977  0.0429 -0.2706
   48CHL1    C4 3483   0.077   6.236   3.980  0.3895 -0.5885  0.1077
   48CHL1   H4A 3484   0.123   6.329   3.939  0.5427 -0.9577 -0.5704
   48CHL1   H4B 3485  -0.026   6.224   3.939  0.8826  1.5503 -1.9726
   48CHL1    C5 3486   0.080   6.234   4.129  0.2160  0.4855  0.2240
   48CHL1    C6 3487  -0.032   6.224   4.208 -0.1198  0.7911 -0.2344
   48CHL1    H6 3488  -0.128   6.231   4.155  1.6996  2.1089 -3.6164
   48CHL1    C7 3489  -0.042   6.248   4.355  0.6013 -0.6563  0.4245
   48CHL1   H7A 3490  -0.116   6.330   4.367  1.6794  0.7049 -1.6938
   48CHL1   H7B 3491  -0.077   6.161   4.414 -0.3359 -0.0644  0.7729
   48CHL1    C8 3492   0.099   6.301   4.403 -0.5255 -0.7337  0.0854
   48CHL1    H8 3493   0.123   6.403   4.366  0.0268 -0.2431  1.7366
   48CHL1   C14 3494   0.096   6.309   4.555  0.3774 -0.3848  0.3492
   48CHL1   H14 3495   0.074   6.205   4.589  0.8058  0.0654  2.1150
   48CHL1   C15 3496  -0.013   6.385   4.623  0.3452  0.9290  0.6340
   48CHL1  H15A 3497  -0.024   6.487   4.580  1.5268  1.1294  0.7719
   48CHL1  H15B 3498  -0.112   6.336   4.613  0.5298  0.5672  0.5877
   48CHL1   C16 3499   0.032   6.408   4.768  0.0729 -0.0552  0.2218
   48CHL1  H16A 3500   0.019   6.517   4.789 -1.8924  0.4664 -3.0428
   48CHL1  H16B 3501  -0.027   6.342   4.835 -0.1592 -0.6831 -0.5880
   48CHL1   C17 3502   0.179   6.355   4.770 -0.1108  0.0961  0.4481
   48CHL1   H17 3503   0.159   6.249   4.798 -0.5707  0.7677  2.9128
   48CHL1   C13 3504   0.231   6.350   4.622  0.0377  0.8587 -0.0228
   48CHL1   C18 3505   0.288   6.492   4.589  0.8299 -0.0195 -0.4489
   48CHL1  H18A 3506   0.210   6.562   4.625 -0.6029 -1.7484 -0.0207
   48CHL1  H18B 3507   0.383   6.517   4.641  0.7019 -0.4548  0.0104
   48CHL1  H18C 3508   0.302   6.502   4.479 -0.2835 -0.2324 -0.6189
   48CHL1   C12 3509   0.339   6.250   4.587 -0.3348 -0.3785  0.0997
   48CHL1  H12A 3510   0.438   6.283   4.626 -1.7729  1.8784  2.0398
   48CHL1  H12B 3511   0.317   6.153   4.635 -0.3904 -0.8703 -0.8916
   48CHL1   C11 3512   0.357   6.234   4.434  0.6854 -0.1980  0.1915
   48CHL1  H11A 3513   0.392   6.333   4.400 -2.2105  0.7098 -0.4900
   48CHL1  H11B 3514   0.431   6.155   4.408  0.1365 -0.3880 -0.8575
   48CHL1    C9 3515   0.224   6.215   4.357  0.1066 -0.0547 -0.0781
   48CHL1    H9 3516   0.189   6.112   4.379 -3.1935  0.4854 -2.0400
   48CHL1   C10 3517   0.228   6.229   4.196  0.2716 -0.1333  0.0522
   48CHL1   C19 3518   0.304   6.356   4.163 -0.0988 -1.1630 -0.4030
   48CHL1  H19A 3519   0.409   6.346   4.200 -0.1190 -1.1261 -0.3352
   48CHL1  H19B 3520   0.319   6.367   4.054  1.7671  0.3674 -0.0508
   48CHL1  H19C 3521   0.255   6.450   4.196  0.0057 -0.4181 -2.2594
   48CHL1    C1 3522   0.299   6.096   4.137 -0.2615 -0.4185  0.6104
   48CHL1   H1A 3523   0.401   6.103   4.179 -0.1004  0.6106  0.0816
   48CHL1   H1B 3524   0.260   5.997   4.170  1.9879 -1.3793  0.5772
   48CHL1    C2 3525   0.296   6.098   3.979 -0.0576 -0.7852 -0.2921
   48CHL1   H2A 3526   0.338   6.002   3.942  0.1727 -1.0425  0.6032
   48CHL1   H2B 3527   0.356   6.184   3.943 -2.6934  2.2464  1.9791
   48CHL1   C20 3528   0.255   6.421   4.880  0.5263 -0.1925 -0.4390
   48CHL1   H20 3529   0.275   6.528   4.861  0.3042 -0.2072 -0.7608
   48CHL1   C21 3530   0.389   6.341   4.897  0.8225 -0.2812  0.0696
   48CHL1  H21A 3531   0.451   6.340   4.805  0.3486  1.5323 -0.2887
   48CHL1  H21B 3532   0.370   6.244   4.948 -0.9382 -0.8897 -1.6106
   48CHL1  H21C 3533   0.449   6.399   4.970 -1.0684  0.6939  0.9058
   48CHL1   C22 3534   0.174   6.411   5.015 -0.4669 -0.2999 -0.1732
   48CHL1  H22A 3535   0.085   6.477   5.010 -1.2166 -1.0305  2.1650
   48CHL1  H22B 3536   0.136   6.307   5.025 -3.3360  0.6163 -0.4126
   48CHL1   C23 3537   0.245   6.457   5.145 -0.0064  0.5871  0.5139
   48CHL1  H23A 3538   0.338   6.397   5.150  1.3177  2.2462 -2.0596
   48CHL1  H23B 3539   0.275   6.564   5.138 -1.1440  0.8529 -0.7557
   48CHL1   C24 3540   0.170   6.438   5.276  0.1325 -0.5188 -0.5367
   48CHL1  H24A 3541   0.150   6.329   5.287  1.4709 -0.6627  0.9738
   48CHL1  H24B 3542   0.235   6.452   5.365 -1.2622 -1.3506  0.6674
   48CHL1   C25 3543   0.042   6.526   5.286 -1.0022 -0.2315 -0.5424
   48CHL1   H25 3544  -0.009   6.542   5.189  0.0984  0.7244 -1.0004
   48CHL1   C26 3545  -0.064   6.476   5.381  0.0360 -0.3082 -0.4568
   48CHL1  H26A 3546  -0.007   6.455   5.474 -0.3826  0.3576 -0.0448
   48CHL1  H26B 3547  -0.138   6.551   5.417 -0.6103 -1.4642  0.6929
   48CHL1  H26C 3548  -0.105   6.382   5.338  2.8314 -0.8132 -2.2548
   48CHL1   C27 3549   0.086   6.672   5.328 -0.2926  0.2708 -0.3370
   48CHL1  H27A 3550  -0.004   6.737   5.327 -0.3987  0.1236 -0.3213
   48CHL1  H27B 3551   0.129   6.664   5.430  3.0954 -1.9188 -1.7447
   48CHL1  H27C 3552   0.159   6.710   5.254  2.7665 -1.9169  1.3052
   49CHL1    C3 3553   5.608   1.272   4.111  0.4716  0.3200  0.1376
   49CHL1    H3 3554   5.675   1.186   4.134  0.8795  0.8423  0.9330
   49CHL1    O3 3555   5.565   1.262   3.976 -0.8316  0.1782  0.5154
   49CHL1   H3' 3556   5.514   1.181   3.977 -2.1385  0.9684  2.1475
   49CHL1    C4 3557   5.481   1.243   4.189 -0.5838  0.2032  0.2826
   49CHL1   H4A 3558   5.396   1.313   4.174 -0.6889  0.3364  1.3912
   49CHL1   H4B 3559   5.441   1.143   4.164 -0.7366  0.0876  0.9543
   49CHL1    C5 3560   5.500   1.249   4.342 -0.0183  0.6247  0.3599
   49CHL1    C6 3561   5.464   1.142   4.417 -0.0068 -0.3656  0.2113
   49CHL1    H6 3562   5.430   1.049   4.368  1.3064 -1.3574  1.1181
   49CHL1    C7 3563   5.471   1.143   4.565  0.7070  0.1005  0.0627
   49CHL1   H7A 3564   5.375   1.109   4.608  0.2103  1.7407  0.3114
   49CHL1   H7B 3565   5.545   1.066   4.598  3.6520  1.3747 -2.9781
   49CHL1    C8 3566   5.509   1.280   4.622  0.1727  1.3162  0.0193
   49CHL1    H8 3567   5.411   1.329   4.635 -1.3437 -1.9868  2.6527
   49CHL1   C14 3568   5.563   1.257   4.763 -0.2514 -0.4181  0.1992
   49CHL1   H14 3569   5.671   1.233   4.755 -0.0937 -0.1560  1.4440
   49CHL1   C15 3570   5.512   1.136   4.859 -0.1584 -0.4870 -0.3464
   49CHL1  H15A 3571   5.403   1.137   4.838 -0.1182  0.8645 -0.5986
   49CHL1  H15B 3572   5.558   1.044   4.816 -0.2063 -0.0610 -1.3202
   49CHL1   C16 3573   5.538   1.189   4.998  0.0035  0.2326 -0.3352
   49CHL1  H16A 3574   5.442   1.221   5.043 -0.7781 -1.3899 -0.7722
   49CHL1  H16B 3575   5.585   1.115   5.066  0.6016  1.8050  1.0033
   49CHL1   C17 3576   5.620   1.322   4.974  0.1149 -1.0290  0.2418
   49CHL1   H17 3577   5.724   1.291   4.956  0.9061  0.3574  2.0410
   49CHL1   C13 3578   5.569   1.388   4.846 -0.9163  0.2719 -0.2252
   49CHL1   C18 3579   5.430   1.443   4.860  0.4416 -0.3176  0.0513
   49CHL1  H18A 3580   5.405   1.529   4.926 -1.3314 -0.5614 -0.2496
   49CHL1  H18B 3581   5.402   1.494   4.765 -0.2513  2.3728  1.5925
   49CHL1  H18C 3582   5.355   1.363   4.877 -1.9579  1.6843 -0.6086
   49CHL1   C12 3583   5.662   1.483   4.772 -0.0866  0.0000 -0.4215
   49CHL1  H12A 3584   5.654   1.584   4.818 -1.4303 -0.1211 -0.3693
   49CHL1  H12B 3585   5.766   1.445   4.786 -0.3501 -1.4560 -2.1286
   49CHL1   C11 3586   5.645   1.502   4.616  0.3099  0.0793 -0.4521
   49CHL1  H11A 3587   5.563   1.576   4.598  0.3549  0.0557 -0.7694
   49CHL1  H11B 3588   5.735   1.546   4.568  0.6876  1.7515  1.6390
   49CHL1    C9 3589   5.604   1.365   4.543  0.1412 -0.2775 -0.6491
   49CHL1    H9 3590   5.701   1.311   4.546  0.5426  0.4680  1.6944
   49CHL1   C10 3591   5.558   1.378   4.400  0.3295 -0.2416  0.6022
   49CHL1   C19 3592   5.442   1.486   4.398 -0.1826 -0.4283  0.2595
   49CHL1  H19A 3593   5.363   1.456   4.469  1.6395 -0.4926  2.3671
   49CHL1  H19B 3594   5.483   1.584   4.432 -1.2819  0.5520 -1.0955
   49CHL1  H19C 3595   5.395   1.489   4.297  0.5269 -0.4646 -0.0799
   49CHL1    C1 3596   5.678   1.425   4.306  0.2161  0.7870  0.6085
   49CHL1   H1A 3597   5.707   1.530   4.327 -0.6998  0.9258  1.2175
   49CHL1   H1B 3598   5.768   1.366   4.333 -1.4887 -2.5123 -0.3505
   49CHL1    C2 3599   5.653   1.418   4.149  0.4198 -0.3175  0.7253
   49CHL1   H2A 3600   5.755   1.442   4.113  1.1217 -0.0965  2.7141
   49CHL1   H2B 3601   5.578   1.496   4.122  0.2527 -0.1132  1.7047
   49CHL1   C20 3602   5.624   1.413   5.098  0.5464  0.3618  0.0181
   49CHL1   H20 3603   5.523   1.454   5.120 -0.3652 -1.6860 -0.1271
   49CHL1   C21 3604   5.729   1.521   5.088 -0.3003 -0.1713  0.4960
   49CHL1  H21A 3605   5.797   1.498   5.003 -1.2553 -2.1291  0.2004
   49CHL1  H21B 3606   5.788   1.531   5.182 -1.2885 -3.3837  1.5959
   49CHL1  H21C 3607   5.680   1.617   5.063  0.3755 -0.0490 -0.3896
   49CHL1   C22 3608   5.641   1.318   5.225 -0.1012  0.1218  0.2101
   49CHL1  H22A 3609   5.543   1.268   5.240 -0.4031  0.6435  0.0165
   49CHL1  H22B 3610   5.732   1.257   5.205  0.9961  1.8082 -0.1266
   49CHL1   C23 3611   5.675   1.378   5.363  0.0376 -0.0198  0.5296
   49CHL1  H23A 3612   5.684   1.296   5.438 -0.5187 -0.3048  0.2870
   49CHL1  H23B 3613   5.770   1.436   5.365  0.6202 -0.9542  0.8553
   49CHL1   C24 3614   5.563   1.469   5.419  0.2065  0.1657  0.2491
   49CHL1  H24A 3615   5.561   1.550   5.343  1.5356 -0.3373 -0.3632
   49CHL1  H24B 3616   5.468   1.417   5.395 -0.3355  0.8661  0.8520
   49CHL1   C25 3617   5.575   1.510   5.569  0.4622 -0.9683  1.1453
   49CHL1   H25 3618   5.488   1.577   5.584  1.8059  0.8175  1.3266
   49CHL1   C26 3619   5.563   1.392   5.669 -0.6241  0.6661  0.6449
   49CHL1  H26A 3620   5.570   1.421   5.776 -1.6963  0.1672  0.8683
   49CHL1  H26B 3621   5.470   1.335   5.648 -1.8202  2.4463  0.8804
   49CHL1  H26C 3622   5.655   1.333   5.653 -0.8966  0.7444 -1.4194
   49CHL1   C27 3623   5.702   1.587   5.608  0.0840 -0.2402 -0.0802
   49CHL1  H27A 3624   5.699   1.592   5.719 -2.4676 -4.2951  0.2555
   49CHL1  H27B 3625   5.795   1.538   5.573 -1.0913 -0.8222 -2.5990
   49CHL1  H27C 3626   5.701   1.695   5.580  0.9762 -0.3089 -0.4144
   50CHL1    C3 3627   2.042   2.340   3.924  0.4855  0.7456 -0.2733
   50CHL1    H3 3628   1.942   2.340   3.973 -0.0455  1.7684 -1.3094
   50CHL1    O3 3629   2.016   2.308   3.789  0.2305 -0.0251  0.2765
   50CHL1   H3' 3630   2.097   2.290   3.742 -1.3822 -1.7104 -2.1115
   50CHL1    C4 3631   2.102   2.483   3.938 -0.6214 -0.3777 -0.0508
   50CHL1   H4A 3632   2.197   2.489   3.881 -0.4342 -1.1206  0.1733
   50CHL1   H4B 3633   2.033   2.560   3.895 -0.9433 -1.0284 -0.7366
   50CHL1    C5 3634   2.111   2.493   4.087 -0.1989 -0.5094  0.2890
   50CHL1    C6 3635   2.039   2.585   4.153  0.9796  0.4011  0.6868
   50CHL1    H6 3636   1.981   2.665   4.103  0.7122 -0.6667 -0.7869
   50CHL1    C7 3637   2.045   2.606   4.300  0.0886 -0.9815  0.7260
   50CHL1   H7A 3638   2.048   2.715   4.322 -3.5885 -1.0945  2.4978
   50CHL1   H7B 3639   1.949   2.559   4.330 -0.3605 -1.4458 -1.3047
   50CHL1    C8 3640   2.168   2.547   4.365 -0.0734  0.4880  0.2424
   50CHL1    H8 3641   2.263   2.595   4.336 -0.6116  0.4290 -1.8391
   50CHL1   C14 3642   2.148   2.546   4.521 -0.5969 -1.1716 -0.3167
   50CHL1   H14 3643   2.062   2.479   4.544  0.9735 -2.6742  1.5065
   50CHL1   C15 3644   2.123   2.683   4.581 -0.3038 -0.7750  0.3043
   50CHL1  H15A 3645   2.191   2.759   4.535 -1.8649 -0.0669 -0.9468
   50CHL1  H15B 3646   2.023   2.721   4.551  0.9671  2.0388 -0.7222
   50CHL1   C16 3647   2.139   2.654   4.730  0.8514  0.0810  0.4182
   50CHL1  H16A 3648   2.211   2.726   4.776  0.7319  0.1706  0.4654
   50CHL1  H16B 3649   2.043   2.661   4.786  0.4697 -0.6264 -0.1406
   50CHL1   C17 3650   2.199   2.516   4.738  0.0333  0.2135 -0.2892
   50CHL1   H17 3651   2.111   2.450   4.758 -1.8488  2.8979  0.9195
   50CHL1   C13 3652   2.253   2.485   4.600 -0.2347 -0.1954 -0.0016
   50CHL1   C18 3653   2.387   2.565   4.580  0.1575 -0.1264 -0.5661
   50CHL1  H18A 3654   2.410   2.558   4.472 -0.7610  1.7242 -0.9205
   50CHL1  H18B 3655   2.362   2.670   4.609 -0.7419 -0.2186 -0.9727
   50CHL1  H18C 3656   2.469   2.525   4.644 -2.2896 -1.3993  2.0007
   50CHL1   C12 3657   2.258   2.336   4.553 -0.2895  0.6544 -0.1237
   50CHL1  H12A 3658   2.342   2.295   4.613 -2.0311  0.1875  2.1260
   50CHL1  H12B 3659   2.172   2.276   4.588  0.2019 -1.2013 -1.9092
   50CHL1   C11 3660   2.285   2.316   4.404 -0.1175  1.0227 -0.6583
   50CHL1  H11A 3661   2.388   2.351   4.378  1.2360 -2.3177 -0.3227
   50CHL1  H11B 3662   2.279   2.209   4.375  0.3779  0.7740  0.1396
   50CHL1    C9 3663   2.180   2.397   4.320 -0.9101 -0.5710  0.7336
   50CHL1    H9 3664   2.084   2.345   4.338 -0.0920 -3.3495 -2.0968
   50CHL1   C10 3665   2.207   2.395   4.159  0.1144  0.6910 -0.0273
   50CHL1   C19 3666   2.349   2.436   4.118  0.3188 -0.5836 -0.1973
   50CHL1  H19A 3667   2.366   2.540   4.154  0.6946 -0.0950 -1.7440
   50CHL1  H19B 3668   2.424   2.372   4.170  1.6160 -0.1631 -1.4799
   50CHL1  H19C 3669   2.373   2.427   4.010 -0.4159  3.5398 -0.8809
   50CHL1    C1 3670   2.167   2.246   4.121  0.5072 -0.0503  0.5169
   50CHL1   H1A 3671   2.246   2.177   4.157 -1.5189 -1.6063  2.2361
   50CHL1   H1B 3672   2.074   2.220   4.176 -0.4377  2.9853  0.5271
   50CHL1    C2 3673   2.131   2.228   3.978 -0.5518  0.0764  0.4244
   50CHL1   H2A 3674   2.071   2.137   3.956  0.8945 -0.7940 -0.0202
   50CHL1   H2B 3675   2.226   2.225   3.921 -1.4403 -1.8810 -1.0912
   50CHL1   C20 3676   2.285   2.484   4.859 -0.4249 -0.2667 -0.0255
   50CHL1   H20 3677   2.358   2.567   4.863  1.3682 -1.8067  0.8918
   50CHL1   C21 3678   2.344   2.348   4.853 -0.7926  0.3139 -0.2145
   50CHL1  H21A 3679   2.432   2.349   4.785 -1.0157 -0.7596 -0.5182
   50CHL1  H21B 3680   2.269   2.272   4.825  1.7226 -2.1611 -0.7177
   50CHL1  H21C 3681   2.382   2.323   4.955 -0.6360 -0.3079 -0.4275
   50CHL1   C22 3682   2.209   2.503   4.995  0.0741  0.1240 -0.4763
   50CHL1  H22A 3683   2.136   2.587   4.996 -1.4006 -1.0382  2.3454
   50CHL1  H22B 3684   2.144   2.413   4.993 -0.6247  0.5876  0.5555
   50CHL1   C23 3685   2.290   2.514   5.125  0.3844 -0.0063 -0.1719
   50CHL1  H23A 3686   2.323   2.412   5.153 -0.7113 -0.5733 -0.8718
   50CHL1  H23B 3687   2.376   2.583   5.109 -0.5408  0.8341 -1.7298
   50CHL1   C24 3688   2.205   2.555   5.246 -0.0154  0.0683 -1.3845
   50CHL1  H24A 3689   2.107   2.503   5.242  0.1302 -0.3143 -0.4109
   50CHL1  H24B 3690   2.247   2.511   5.339 -2.4402 -0.9636 -0.6946
   50CHL1   C25 3691   2.190   2.710   5.263 -0.5681  0.1979  0.3702
   50CHL1   H25 3692   2.191   2.746   5.158 -2.9591  1.8009  0.8227
   50CHL1   C26 3693   2.062   2.751   5.328  0.4480 -0.6037  0.4777
   50CHL1  H26A 3694   1.977   2.688   5.295 -1.3327  1.4387  0.9184
   50CHL1  H26B 3695   2.061   2.724   5.436 -1.5245  0.5306  0.7876
   50CHL1  H26C 3696   2.039   2.859   5.319  1.4900 -0.1712  2.4180
   50CHL1   C27 3697   2.309   2.780   5.330 -0.3673 -0.3596 -0.0427
   50CHL1  H27A 3698   2.282   2.887   5.345  1.0716  0.1495 -0.9153
   50CHL1  H27B 3699   2.343   2.733   5.425 -0.1391 -0.9485 -0.4164
   50CHL1  H27C 3700   2.396   2.791   5.262 -0.9356  0.2542 -0.6845
   51CHL1    C3 3701   6.204   0.890   3.878  0.3836  0.3249  0.2163
   51CHL1    H3 3702   6.307   0.849   3.883  0.2896 -0.3927 -2.3639
   51CHL1    O3 3703   6.168   0.867   3.739  0.8163 -0.1778  0.4235
   51CHL1   H3' 3704   6.081   0.908   3.732  0.2954 -1.5081 -1.7271
   51CHL1    C4 3705   6.105   0.815   3.965 -0.7483 -0.2976 -0.0604
   51CHL1   H4A 3706   6.003   0.847   3.933 -1.7404 -2.3701  0.8702
   51CHL1   H4B 3707   6.129   0.709   3.942  2.5972  0.1521  0.8133
   51CHL1    C5 3708   6.112   0.850   4.113 -0.1422  0.1953  0.2244
   51CHL1    C6 3709   6.123   0.753   4.206  0.1070  1.0523  0.6043
   51CHL1    H6 3710   6.118   0.650   4.168  0.3214  1.8897 -1.8619
   51CHL1    C7 3711   6.125   0.768   4.353  0.3392  0.5799 -0.3867
   51CHL1   H7A 3712   6.051   0.694   4.389  1.8589 -1.1216 -0.6518
   51CHL1   H7B 3713   6.225   0.735   4.390 -0.9348 -3.2719  0.0748
   51CHL1    C8 3714   6.088   0.912   4.393  0.2318  0.2490 -0.2187
   51CHL1    H8 3715   5.979   0.918   4.375  0.2200  0.0344 -0.2211
   51CHL1   C14 3716   6.142   0.949   4.535  0.0414  0.0507 -0.4486
   51CHL1   H14 3717   6.251   0.944   4.514 -0.0096 -4.8105 -0.8059
   51CHL1   C15 3718   6.115   0.855   4.645 -0.7365 -0.8706  0.6110
   51CHL1  H15A 3719   6.008   0.836   4.666 -0.5466 -2.2012  0.4529
   51CHL1  H15B 3720   6.155   0.752   4.641  0.7529 -0.3281  0.7301
   51CHL1   C16 3721   6.164   0.930   4.771 -0.1491 -0.0492 -0.1429
   51CHL1  H16A 3722   6.099   0.904   4.857 -2.4330  1.8538 -1.1575
   51CHL1  H16B 3723   6.272   0.909   4.788 -0.3784 -0.6136  0.6612
   51CHL1   C17 3724   6.163   1.081   4.732 -0.1647  0.0545  0.2832
   51CHL1   H17 3725   6.271   1.108   4.722 -0.0681 -0.2703  0.4496
   51CHL1   C13 3726   6.105   1.093   4.586 -0.2969 -0.7069 -0.3717
   51CHL1   C18 3727   5.955   1.108   4.590 -0.2214 -1.0178 -0.2574
   51CHL1  H18A 3728   5.906   1.096   4.492 -0.1681  1.0889 -0.5946
   51CHL1  H18B 3729   5.912   1.021   4.644 -1.0266 -0.7463 -0.4496
   51CHL1  H18C 3730   5.916   1.202   4.634 -2.5287 -1.3425 -1.4782
   51CHL1   C12 3731   6.178   1.189   4.489 -0.1672  0.0271 -0.5782
   51CHL1  H12A 3732   6.168   1.298   4.506  2.1755  0.3351 -0.9619
   51CHL1  H12B 3733   6.287   1.172   4.499  0.1775  1.4553 -1.5647
   51CHL1   C11 3734   6.132   1.164   4.345 -0.3385 -0.2028  0.1708
   51CHL1  H11A 3735   6.022   1.179   4.346 -0.2024  1.0258  2.1200
   51CHL1  H11B 3736   6.178   1.238   4.275  0.4812  0.8024  1.7191
   51CHL1    C9 3737   6.156   1.014   4.298  0.6233 -0.4109  0.6404
   51CHL1    H9 3738   6.266   0.998   4.306  0.7062 -0.8556 -1.0334
   51CHL1   C10 3739   6.120   1.000   4.147 -0.2165  1.1669  0.4032
   51CHL1   C19 3740   5.978   1.067   4.121  0.2164 -0.7968  0.2647
   51CHL1  H19A 3741   5.925   1.029   4.032 -3.1378 -2.0638  2.5947
   51CHL1  H19B 3742   5.904   1.047   4.202  0.6043  2.7770  1.6676
   51CHL1  H19C 3743   5.983   1.178   4.113 -0.1601 -0.8754 -1.2290
   51CHL1    C1 3744   6.225   1.064   4.048 -0.2092 -0.3763 -0.3835
   51CHL1   H1A 3745   6.225   1.174   4.062  0.3893 -0.2999 -0.9385
   51CHL1   H1B 3746   6.331   1.035   4.064 -0.0821 -0.9588 -2.0613
   51CHL1    C2 3747   6.195   1.032   3.900 -0.0510 -0.0481 -0.3232
   51CHL1   H2A 3748   6.276   1.083   3.844  2.5805 -3.6738 -0.1929
   51CHL1   H2B 3749   6.103   1.075   3.854 -0.0393 -1.5006 -1.7984
   51CHL1   C20 3750   6.105   1.173   4.841  0.0843 -0.4114  0.1215
   51CHL1   H20 3751   5.998   1.155   4.865 -0.1013  0.7604  0.2364
   51CHL1   C21 3752   6.121   1.321   4.805 -0.0010 -0.1186 -0.0358
   51CHL1  H21A 3753   6.044   1.359   4.734  2.5424 -0.2342 -3.0675
   51CHL1  H21B 3754   6.214   1.349   4.751  0.0884  2.0404  1.1306
   51CHL1  H21C 3755   6.128   1.381   4.898 -0.0843  1.3975 -0.9756
   51CHL1   C22 3756   6.173   1.156   4.980  0.1452  0.0900 -0.7815
   51CHL1  H22A 3757   6.185   1.046   4.990  0.7843  0.2131 -0.1677
   51CHL1  H22B 3758   6.277   1.195   4.981  0.4255 -0.6411 -0.9992
   51CHL1   C23 3759   6.102   1.208   5.105  0.8017  0.2391  0.0935
   51CHL1  H23A 3760   6.072   1.314   5.090 -1.4890 -0.5719 -1.6497
   51CHL1  H23B 3761   6.009   1.148   5.102 -1.5691  3.6392 -1.0000
   51CHL1   C24 3762   6.167   1.195   5.238  0.0580  0.8198  0.2454
   51CHL1  H24A 3763   6.267   1.243   5.239  0.1618  0.6054  1.2571
   51CHL1  H24B 3764   6.110   1.241   5.322 -0.5156  1.9488 -0.7331
   51CHL1   C25 3765   6.203   1.049   5.280 -0.3623 -0.9015 -0.1692
   51CHL1   H25 3766   6.248   1.001   5.190  0.3633  1.5975 -1.2333
   51CHL1   C26 3767   6.312   1.052   5.384  0.5526 -0.8320  0.2359
   51CHL1  H26A 3768   6.393   1.120   5.349  0.5188 -0.4634  0.8680
   51CHL1  H26B 3769   6.274   1.101   5.476  2.6009 -1.3979  1.4379
   51CHL1  H26C 3770   6.361   0.953   5.396  1.1538 -0.5251  0.3415
   51CHL1   C27 3771   6.090   0.959   5.325 -0.3924  0.0703  0.0053
   51CHL1  H27A 3772   6.011   0.957   5.248 -1.7202 -0.8842  1.3302
   51CHL1  H27B 3773   6.132   0.856   5.333  0.2850  0.3178 -0.3175
   51CHL1  H27C 3774   6.035   0.979   5.420 -0.1394 -0.3299  0.2380
   52CHL1    C3 3775   4.022   5.244   3.594 -0.7881  0.1398  0.5950
   52CHL1    H3 3776   3.980   5.148   3.631  0.2485 -0.0671  1.2780
   52CHL1    O3 3777   4.043   5.242   3.452  0.2196  0.1899  0.2779
   52CHL1   H3' 3778   4.126   5.195   3.442 -0.0510 -0.3203  0.4127
   52CHL1    C4 3779   3.920   5.359   3.625 -0.6163  0.4206 -0.2555
   52CHL1   H4A 3780   3.970   5.455   3.599 -0.5499  0.7594  1.0398
   52CHL1   H4B 3781   3.823   5.340   3.574 -0.1661 -2.1330 -0.3006
   52CHL1    C5 3782   3.891   5.367   3.779  0.5500  0.0591 -0.0103
   52CHL1    C6 3783   3.769   5.349   3.834 -0.5979 -0.3022 -0.5529
   52CHL1    H6 3784   3.679   5.335   3.772 -0.8210  0.7243 -0.4775
   52CHL1    C7 3785   3.742   5.345   3.983 -0.4120  0.1224  0.6136
   52CHL1   H7A 3786   3.649   5.402   4.003 -0.1748  0.0232  2.1560
   52CHL1   H7B 3787   3.728   5.238   4.011  1.5468  0.0891  1.6491
   52CHL1    C8 3788   3.862   5.391   4.069 -0.0756 -0.2642 -0.0018
   52CHL1    H8 3789   3.851   5.501   4.068 -1.5597 -0.3973 -0.8134
   52CHL1   C14 3790   3.865   5.332   4.212 -0.5831  0.2293 -0.8039
   52CHL1   H14 3791   3.895   5.226   4.199 -2.2031 -0.1396 -1.7833
   52CHL1   C15 3792   3.734   5.335   4.300 -0.0869 -0.2252  0.6417
   52CHL1  H15A 3793   3.698   5.440   4.308 -1.4084 -0.3483 -2.3039
   52CHL1  H15B 3794   3.652   5.279   4.250 -0.1065  1.0523 -0.8256
   52CHL1   C16 3795   3.773   5.292   4.442 -0.2192  0.0043  0.0207
   52CHL1  H16A 3796   3.736   5.358   4.524  0.5342 -1.7305  1.8510
   52CHL1  H16B 3797   3.742   5.187   4.460  1.0086 -0.5396 -0.8784
   52CHL1   C17 3798   3.934   5.295   4.431 -0.1348 -0.6461  0.1779
   52CHL1   H17 3799   3.951   5.188   4.405 -1.0374 -0.8184  0.2504
   52CHL1   C13 3800   3.971   5.379   4.309 -0.2657  0.7297  0.1733
   52CHL1   C18 3801   3.955   5.536   4.342  0.4752  0.4557  0.4277
   52CHL1  H18A 3802   3.866   5.550   4.407  0.2697 -1.4810  0.6419
   52CHL1  H18B 3803   4.047   5.570   4.393  0.1074  1.6624  0.3254
   52CHL1  H18C 3804   3.951   5.586   4.243  1.0268 -1.7546 -0.7870
   52CHL1   C12 3805   4.108   5.345   4.249  0.5497 -0.1381 -0.4099
   52CHL1  H12A 3806   4.179   5.393   4.320 -1.0435  1.7070  0.0083
   52CHL1  H12B 3807   4.129   5.236   4.251  2.4656  0.2003  1.8907
   52CHL1   C11 3808   4.115   5.407   4.105  0.0719  0.6460  1.6150
   52CHL1  H11A 3809   4.113   5.518   4.110  2.0778  0.7928  0.2835
   52CHL1  H11B 3810   4.209   5.374   4.056  0.4247 -0.3381  2.8749
   52CHL1    C9 3811   3.997   5.356   4.015 -0.7053  0.0267  0.3379
   52CHL1    H9 3812   4.000   5.245   4.021  1.2875  0.0904  1.4551
   52CHL1   C10 3813   4.017   5.380   3.866 -0.0552  0.5463  0.6212
   52CHL1   C19 3814   4.079   5.525   3.850 -0.2438 -0.3390 -0.1632
   52CHL1  H19A 3815   4.004   5.597   3.890 -0.1741  0.3595 -1.2518
   52CHL1  H19B 3816   4.179   5.535   3.897 -0.5300  0.4726  0.2974
   52CHL1  H19C 3817   4.089   5.540   3.740 -1.0404 -0.4313 -0.2539
   52CHL1    C1 3818   4.121   5.276   3.815  0.0181 -0.4597  0.3398
   52CHL1   H1A 3819   4.220   5.282   3.865 -0.1459  0.3574  0.5739
   52CHL1   H1B 3820   4.084   5.176   3.847  0.3735 -1.4351 -2.0970
   52CHL1    C2 3821   4.148   5.269   3.665 -0.6789 -0.0639  0.4966
   52CHL1   H2A 3822   4.216   5.184   3.639 -2.0749 -0.9682 -0.2954
   52CHL1   H2B 3823   4.194   5.366   3.635  0.5795  0.0513  2.6163
   52CHL1   C20 3824   4.023   5.326   4.561  0.1742  0.3914 -0.5299
   52CHL1   H20 3825   4.112   5.390   4.542  1.7319 -0.7419  2.3580
   52CHL1   C21 3826   4.084   5.192   4.606  0.1802 -0.4704  0.2213
   52CHL1  H21A 3827   4.001   5.120   4.620 -0.3607  0.0480 -0.2904
   52CHL1  H21B 3828   4.147   5.203   4.697  0.3606  0.5779 -0.0240
   52CHL1  H21C 3829   4.146   5.155   4.521  0.8923  0.5922  0.2650
   52CHL1   C22 3830   3.941   5.395   4.676 -0.0292 -0.4206  0.1247
   52CHL1  H22A 3831   3.886   5.488   4.651  1.0752 -0.3226 -2.1633
   52CHL1  H22B 3832   3.869   5.319   4.715  1.5236 -2.3255 -0.5763
   52CHL1   C23 3833   4.032   5.421   4.792  0.8391 -0.2465 -0.1047
   52CHL1  H23A 3834   4.049   5.328   4.850  0.1598 -0.6391 -0.5217
   52CHL1  H23B 3835   4.128   5.462   4.755 -0.4494  1.7928 -1.3708
   52CHL1   C24 3836   3.970   5.526   4.892 -0.6644 -0.2257 -0.3100
   52CHL1  H24A 3837   3.943   5.616   4.833 -4.5103 -1.2161 -0.2945
   52CHL1  H24B 3838   3.867   5.494   4.917 -0.8235 -0.4000 -1.1377
   52CHL1   C25 3839   4.045   5.551   5.027 -0.0523 -0.5697  0.5841
   52CHL1   H25 3840   4.060   5.447   5.063  1.2801 -1.7683 -3.0142
   52CHL1   C26 3841   4.173   5.628   5.033 -0.2675  0.2607 -0.2823
   52CHL1  H26A 3842   4.208   5.651   5.136 -1.1299  1.3300 -0.2066
   52CHL1  H26B 3843   4.247   5.582   4.963 -0.8941 -0.6481 -0.3721
   52CHL1  H26C 3844   4.162   5.728   4.988 -0.1681 -0.6197 -2.3909
   52CHL1   C27 3845   3.937   5.601   5.129 -0.0503  0.3763  0.0987
   52CHL1  H27A 3846   3.914   5.707   5.106 -3.1430  0.2879  2.0655
   52CHL1  H27B 3847   3.840   5.547   5.129 -0.0339  0.3404 -0.4248
   52CHL1  H27C 3848   3.976   5.605   5.233 -1.8844 -0.4886  0.8764
   53CHL1    C3 3849   2.629   0.570   3.921  0.0158 -0.6173  0.1009
   53CHL1    H3 3850   2.524   0.603   3.914  0.5192  1.4091  1.3974
   53CHL1    O3 3851   2.694   0.593   3.801  0.5621  0.0872  0.3157
   53CHL1   H3' 3852   2.775   0.542   3.806 -0.7834 -2.1082  4.4947
   53CHL1    C4 3853   2.685   0.655   4.030  0.3112  0.1244  0.0945
   53CHL1   H4A 3854   2.793   0.630   4.024  0.2657 -0.9581  2.5646
   53CHL1   H4B 3855   2.675   0.762   4.001 -1.5930 -0.5225 -1.8956
   53CHL1    C5 3856   2.623   0.635   4.164  0.1653  0.5232  0.0999
   53CHL1    C6 3857   2.566   0.728   4.239  1.3671 -1.1548 -0.7234
   53CHL1    H6 3858   2.569   0.834   4.211 -1.5492 -0.6384  0.5125
   53CHL1    C7 3859   2.507   0.712   4.375  0.9190 -1.4095  0.1808
   53CHL1   H7A 3860   2.535   0.800   4.437 -3.9557 -0.1458  1.0258
   53CHL1   H7B 3861   2.397   0.730   4.371  1.3439  1.7311  0.1535
   53CHL1    C8 3862   2.536   0.585   4.439  0.5984  0.3930 -0.2678
   53CHL1    H8 3863   2.637   0.591   4.485  0.2339  1.3514  0.4201
   53CHL1   C14 3864   2.440   0.563   4.562 -0.3815  0.0142  0.0175
   53CHL1   H14 3865   2.338   0.559   4.518 -0.4181  3.4092 -0.4596
   53CHL1   C15 3866   2.422   0.677   4.667 -0.2612 -0.2490 -0.1125
   53CHL1  H15A 3867   2.506   0.749   4.665 -0.2641 -0.1783  1.3365
   53CHL1  H15B 3868   2.324   0.728   4.655  0.7507  1.3857 -2.1786
   53CHL1   C16 3869   2.408   0.603   4.802 -0.6312 -0.0655 -1.3532
   53CHL1  H16A 3870   2.498   0.611   4.867 -0.5318  2.2736 -1.7060
   53CHL1  H16B 3871   2.331   0.630   4.878  1.5642 -2.3188  1.9760
   53CHL1   C17 3872   2.381   0.448   4.762 -0.4437  0.3059  0.5371
   53CHL1   H17 3873   2.279   0.447   4.717  0.5488  1.6551 -1.9613
   53CHL1   C13 3874   2.471   0.430   4.639  0.4526  0.3435  0.0366
   53CHL1   C18 3875   2.619   0.422   4.690 -0.0939 -0.1921  0.0737
   53CHL1  H18A 3876   2.643   0.511   4.752 -0.6923  1.4528 -1.9509
   53CHL1  H18B 3877   2.634   0.324   4.741 -1.6024 -0.3853  0.1928
   53CHL1  H18C 3878   2.687   0.425   4.603 -0.4452 -0.3642 -0.2115
   53CHL1   C12 3879   2.438   0.317   4.538  0.0712  1.3017 -0.1974
   53CHL1  H12A 3880   2.449   0.219   4.589  1.4055  1.1342 -0.7808
   53CHL1  H12B 3881   2.332   0.339   4.512  0.0762  0.6660 -0.7996
   53CHL1   C11 3882   2.522   0.323   4.408  0.3803 -0.5505  0.4193
   53CHL1  H11A 3883   2.627   0.288   4.419  0.8965  0.7300 -0.2459
   53CHL1  H11B 3884   2.480   0.252   4.333  0.5751 -1.2087  0.9275
   53CHL1    C9 3885   2.522   0.467   4.337  0.0193  0.0831 -0.4440
   53CHL1    H9 3886   2.418   0.465   4.298 -0.4846 -1.1060  0.8753
   53CHL1   C10 3887   2.615   0.485   4.214  0.7460 -0.1478  0.9220
   53CHL1   C19 3888   2.755   0.445   4.255  0.3266  0.5719 -0.4118
   53CHL1  H19A 3889   2.791   0.504   4.342 -0.0267 -0.9856  0.8234
   53CHL1  H19B 3890   2.756   0.337   4.280  0.6327  0.5004 -0.7107
   53CHL1  H19C 3891   2.833   0.452   4.175  1.2547  0.9547  0.5073
   53CHL1    C1 3892   2.569   0.405   4.092 -0.0546  0.0082 -0.0996
   53CHL1   H1A 3893   2.576   0.295   4.110  0.7136  0.1219  0.3290
   53CHL1   H1B 3894   2.466   0.427   4.057 -0.0378  2.5405  1.2298
   53CHL1    C2 3895   2.646   0.423   3.958 -0.3945 -0.3994  0.6497
   53CHL1   H2A 3896   2.613   0.357   3.875 -0.7478  0.6995 -0.0869
   53CHL1   H2B 3897   2.753   0.394   3.970 -0.2805 -0.8357 -1.1732
   53CHL1   C20 3898   2.388   0.348   4.879  0.5736  0.6604  0.0053
   53CHL1   H20 3899   2.426   0.255   4.832  0.2889  0.4033  0.2781
   53CHL1   C21 3900   2.237   0.333   4.928  1.0955 -0.1945 -0.8986
   53CHL1  H21A 3901   2.179   0.267   4.859 -1.9057  2.3262 -0.9644
   53CHL1  H21B 3902   2.186   0.430   4.938 -1.4521 -1.3676 -1.6911
   53CHL1  H21C 3903   2.240   0.296   5.033 -0.7156  0.7734 -0.4731
   53CHL1   C22 3904   2.486   0.382   4.992  0.1796 -0.5923 -0.7589
   53CHL1  H22A 3905   2.577   0.428   4.948  2.4886 -2.2072  1.9571
   53CHL1  H22B 3906   2.428   0.461   5.044 -0.5934 -0.6633 -1.4907
   53CHL1   C23 3907   2.538   0.265   5.076  0.2473  0.3303 -0.5106
   53CHL1  H23A 3908   2.451   0.215   5.124  1.0089  0.5782  1.2253
   53CHL1  H23B 3909   2.584   0.184   5.014 -0.8215 -0.6660 -0.0429
   53CHL1   C24 3910   2.637   0.297   5.184  0.0660 -0.1401  0.2294
   53CHL1  H24A 3911   2.741   0.301   5.148 -0.4542 -1.9215 -1.6353
   53CHL1  H24B 3912   2.626   0.402   5.221  1.0232  0.5139 -1.2443
   53CHL1   C25 3913   2.618   0.213   5.313 -0.1712  0.5262 -0.5479
   53CHL1   H25 3914   2.620   0.106   5.285 -0.2221  0.1462  0.8235
   53CHL1   C26 3915   2.743   0.219   5.409 -0.5473 -0.1286  0.7195
   53CHL1  H26A 3916   2.764   0.314   5.464  0.5180 -0.1784  0.4152
   53CHL1  H26B 3917   2.718   0.153   5.494 -2.1349  1.0084  1.1713
   53CHL1  H26C 3918   2.831   0.190   5.348 -2.0299 -0.3522 -1.3993
   53CHL1   C27 3919   2.490   0.229   5.398 -0.0306  0.7396 -0.0048
   53CHL1  H27A 3920   2.491   0.327   5.449 -0.6479  0.0186  1.4471
   53CHL1  H27B 3921   2.413   0.219   5.318  2.4611 -2.1735 -2.3383
   53CHL1  H27C 3922   2.483   0.143   5.468 -0.0809 -1.0514 -2.0962
   54CHL1    C3 3923   6.083   2.323   3.546  0.6234 -0.2083  0.4503
   54CHL1    H3 3924   5.991   2.262   3.543  0.0586  0.5945 -2.3101
   54CHL1    O3 3925   6.115   2.355   3.410 -0.1402  0.2679 -0.3792
   54CHL1   H3' 3926   6.187   2.418   3.418 -0.2301  0.3647 -0.3162
   54CHL1    C4 3927   6.049   2.457   3.616  0.0148 -0.4385 -0.5548
   54CHL1   H4A 3928   6.126   2.534   3.596 -0.4231  0.9388  2.4349
   54CHL1   H4B 3929   5.953   2.494   3.574 -0.6881 -0.3962  1.0096
   54CHL1    C5 3930   6.025   2.439   3.763 -0.9184  0.2355 -0.1927
   54CHL1    C6 3931   5.910   2.472   3.823  0.2483 -0.6022 -0.7828
   54CHL1    H6 3932   5.835   2.520   3.760  0.2618  0.4872  0.0035
   54CHL1    C7 3933   5.877   2.453   3.972  0.0311 -0.6692  0.3981
   54CHL1   H7A 3934   5.810   2.533   4.012 -0.3221  0.4836 -2.2526
   54CHL1   H7B 3935   5.821   2.358   3.984  2.3515 -2.1879 -0.3576
   54CHL1    C8 3936   6.006   2.445   4.051  0.1387  0.8539  0.3890
   54CHL1    H8 3937   6.044   2.550   4.055  0.4304  0.7243  1.0338
   54CHL1   C14 3938   5.973   2.399   4.193 -0.1286 -0.3098 -0.0352
   54CHL1   H14 3939   5.951   2.290   4.186  0.2935 -0.4373  0.5356
   54CHL1   C15 3940   5.868   2.474   4.274  0.5430  1.3794  0.5506
   54CHL1  H15A 3941   5.884   2.583   4.257  0.3101  1.6292  1.8628
   54CHL1  H15B 3942   5.766   2.440   4.246  0.4400  1.3723  0.9284
   54CHL1   C16 3943   5.899   2.435   4.415 -0.0970 -0.1394 -0.4066
   54CHL1  H16A 3944   5.919   2.525   4.477  0.6593 -0.5235 -0.0890
   54CHL1  H16B 3945   5.822   2.376   4.470 -0.7448  0.8218 -0.2569
   54CHL1   C17 3946   6.033   2.358   4.410  0.8568 -0.2672  0.4032
   54CHL1   H17 3947   6.004   2.251   4.397 -1.9501  0.3895  0.7440
   54CHL1   C13 3948   6.103   2.400   4.274  0.5212  0.0266 -0.8943
   54CHL1   C18 3949   6.167   2.544   4.291  0.4011  0.8874  0.5456
   54CHL1  H18A 3950   6.256   2.540   4.358 -1.0382  0.3257  2.5445
   54CHL1  H18B 3951   6.194   2.585   4.192 -0.8383  0.3123 -0.0648
   54CHL1  H18C 3952   6.093   2.614   4.336  0.1018 -0.1541  1.7408
   54CHL1   C12 3953   6.198   2.300   4.219  0.8767 -0.0049 -0.2029
   54CHL1  H12A 3954   6.296   2.294   4.271  1.3345 -2.4360 -1.1982
   54CHL1  H12B 3955   6.149   2.201   4.214 -1.3191  0.9469  1.0987
   54CHL1   C11 3956   6.233   2.335   4.067 -0.5761 -0.7203 -0.5578
   54CHL1  H11A 3957   6.300   2.423   4.076 -0.3879 -0.9581  0.5083
   54CHL1  H11B 3958   6.296   2.253   4.027 -0.3635 -1.0932  0.4959
   54CHL1    C9 3959   6.105   2.349   3.983 -0.0879 -0.5349  0.1877
   54CHL1    H9 3960   6.054   2.251   3.982 -1.2874  0.0656 -1.1060
   54CHL1   C10 3961   6.140   2.371   3.838  0.8691 -0.3018 -0.0249
   54CHL1   C19 3962   6.263   2.465   3.830  0.6305  0.1622  0.0123
   54CHL1  H19A 3963   6.287   2.500   3.728 -0.2093 -0.2011 -0.3137
   54CHL1  H19B 3964   6.249   2.554   3.895  2.2626  0.5773 -0.1520
   54CHL1  H19C 3965   6.354   2.417   3.872  1.1962  1.1405 -0.0777
   54CHL1    C1 3966   6.182   2.239   3.768  0.0438  0.6805 -0.3389
   54CHL1   H1A 3967   6.275   2.196   3.811 -1.6618 -2.2740  0.6631
   54CHL1   H1B 3968   6.102   2.166   3.792  1.2164 -0.0023  1.7033
   54CHL1    C2 3969   6.197   2.243   3.617  0.0006  0.0257 -0.3888
   54CHL1   H2A 3970   6.224   2.158   3.551  0.5054  0.9352 -1.4133
   54CHL1   H2B 3971   6.280   2.312   3.590  0.1764  0.3535  0.9257
   54CHL1   C20 3972   6.111   2.367   4.547  0.2975 -0.9563  0.4291
   54CHL1   H20 3973   6.153   2.470   4.548 -1.2497 -0.3040  1.4779
   54CHL1   C21 3974   6.225   2.265   4.549  0.4246  0.3398 -0.5492
   54CHL1  H21A 3975   6.175   2.166   4.538 -0.1535  0.4199  1.0470
   54CHL1  H21B 3976   6.278   2.252   4.647 -0.5202 -2.1496 -0.2936
   54CHL1  H21C 3977   6.305   2.264   4.472  1.9956 -0.0971  0.9955
   54CHL1   C22 3978   6.021   2.358   4.674 -0.0782 -0.0306  0.1130
   54CHL1  H22A 3979   5.914   2.383   4.659 -0.1002 -0.5854 -0.7503
   54CHL1  H22B 3980   6.015   2.255   4.715  0.8277 -0.2694 -0.3241
   54CHL1   C23 3981   6.075   2.439   4.802 -0.5461 -0.0457  0.2979
   54CHL1  H23A 3982   6.185   2.425   4.808 -0.1957  1.5271 -1.4000
   54CHL1  H23B 3983   6.055   2.548   4.793 -2.2695 -0.3901 -0.3975
   54CHL1   C24 3984   6.031   2.393   4.943  0.6011  0.1847 -0.6302
   54CHL1  H24A 3985   5.920   2.382   4.939  0.5201 -0.4952  1.8658
   54CHL1  H24B 3986   6.065   2.293   4.977 -1.9232 -0.9299 -1.1024
   54CHL1   C25 3987   6.061   2.490   5.063  0.0588 -0.7091  0.2409
   54CHL1   H25 3988   6.038   2.593   5.029 -1.4655 -1.8593 -2.5213
   54CHL1   C26 3989   5.981   2.458   5.189 -0.3314  0.2845  0.2376
   54CHL1  H26A 3990   6.015   2.367   5.243 -0.6784 -0.1600 -0.2767
   54CHL1  H26B 3991   5.990   2.549   5.253 -0.2692  0.1935  0.3583
   54CHL1  H26C 3992   5.872   2.447   5.170 -0.0812  0.0509 -1.2169
   54CHL1   C27 3993   6.212   2.497   5.103  0.9138  0.5225 -0.5775
   54CHL1  H27A 3994   6.217   2.557   5.196 -1.0675 -0.9835  0.5685
   54CHL1  H27B 3995   6.235   2.392   5.134  0.1019  0.2671 -0.8289
   54CHL1  H27C 3996   6.289   2.536   5.032  0.7918  1.6033 -0.1303
   55CHL1    C3 3997   0.595   3.646   4.193  0.2807 -0.2956  0.9574
   55CHL1    H3 3998   0.633   3.542   4.199 -1.2792 -0.9895 -0.4557
   55CHL1    O3 3999   0.627   3.701   4.065  0.3220  0.9164 -0.0108
   55CHL1   H3' 4000   0.553   3.757   4.040  0.8869  2.1278  0.9266
   55CHL1    C4 4001   0.438   3.635   4.192  0.6225 -0.1607 -0.8106
   55CHL1   H4A 4002   0.379   3.726   4.166 -2.5465 -1.1404  2.1260
   55CHL1   H4B 4003   0.414   3.559   4.115  2.8450  1.0445 -2.8373
   55CHL1    C5 4004   0.385   3.601   4.336 -0.6532  0.8182  0.1411
   55CHL1    C6 4005   0.321   3.488   4.354  0.2651  0.3280 -0.2864
   55CHL1    H6 4006   0.287   3.432   4.266  0.5198  1.4251 -1.1013
   55CHL1    C7 4007   0.259   3.432   4.484  0.3467  0.7982  0.7667
   55CHL1   H7A 4008   0.157   3.401   4.453  1.2508 -1.4160 -0.2361
   55CHL1   H7B 4009   0.319   3.344   4.516 -0.0408 -0.2141 -1.1268
   55CHL1    C8 4010   0.261   3.545   4.591  0.4241  0.0385 -0.1730
   55CHL1    H8 4011   0.171   3.607   4.572 -0.5848 -1.2311  0.3152
   55CHL1   C14 4012   0.252   3.489   4.737 -0.4017 -0.1704  0.3588
   55CHL1   H14 4013   0.347   3.435   4.754  1.1594  2.4498  0.5113
   55CHL1   C15 4014   0.146   3.389   4.765 -0.4347  0.7139  0.2282
   55CHL1  H15A 4015   0.041   3.415   4.737 -0.5687 -2.4128 -2.8199
   55CHL1  H15B 4016   0.168   3.295   4.711  4.7482  1.8056 -0.1123
   55CHL1   C16 4017   0.155   3.372   4.913  0.4021 -0.1718  0.2239
   55CHL1  H16A 4018   0.056   3.380   4.963  0.2617  0.4078 -0.1394
   55CHL1  H16B 4019   0.206   3.276   4.939 -1.5032 -2.1893 -2.7965
   55CHL1   C17 4020   0.234   3.496   4.971 -0.3567  0.5818 -0.5287
   55CHL1   H17 4021   0.333   3.454   5.000 -1.1360 -1.6180 -0.8087
   55CHL1   C13 4022   0.245   3.587   4.859 -0.0445 -0.7242  1.3073
   55CHL1   C18 4023   0.114   3.674   4.839  0.5650 -0.3906 -0.0434
   55CHL1  H18A 4024   0.031   3.608   4.870  1.4240 -2.3204 -1.6166
   55CHL1  H18B 4025   0.109   3.773   4.890 -1.3173 -1.0378  1.1136
   55CHL1  H18C 4026   0.092   3.698   4.733  1.1171 -0.3566 -0.1546
   55CHL1   C12 4027   0.368   3.678   4.848  0.0818  0.0028 -0.7099
   55CHL1  H12A 4028   0.356   3.766   4.915  0.2460  0.5225 -1.3556
   55CHL1  H12B 4029   0.452   3.611   4.876 -0.5619  0.2842  2.3313
   55CHL1   C11 4030   0.385   3.727   4.704 -0.0352 -0.6320 -0.1124
   55CHL1  H11A 4031   0.304   3.802   4.691  0.2772  0.0016  1.3410
   55CHL1  H11B 4032   0.481   3.784   4.700  0.0780 -0.9082 -1.9671
   55CHL1    C9 4033   0.386   3.630   4.588 -0.1550  0.1502 -0.1579
   55CHL1    H9 4034   0.462   3.551   4.610 -1.8972 -1.9148 -1.1806
   55CHL1   C10 4035   0.423   3.693   4.451  0.0319  0.2898 -0.4373
   55CHL1   C19 4036   0.342   3.824   4.440  0.0023 -0.2992  0.2116
   55CHL1  H19A 4037   0.341   3.868   4.338  1.5223 -0.6403  0.0288
   55CHL1  H19B 4038   0.240   3.813   4.483  0.2675  0.7751  1.1646
   55CHL1  H19C 4039   0.385   3.911   4.494 -2.1151  0.9581  0.0080
   55CHL1    C1 4040   0.580   3.722   4.440  0.0609  0.8156  0.5867
   55CHL1   H1A 4041   0.625   3.802   4.503  1.0794  1.1139 -0.4881
   55CHL1   H1B 4042   0.630   3.628   4.471 -2.2143 -0.1385  1.5924
   55CHL1    C2 4043   0.645   3.748   4.299 -0.3408  0.9950 -1.0546
   55CHL1   H2A 4044   0.754   3.727   4.312 -0.6559 -0.5179 -0.7091
   55CHL1   H2B 4045   0.633   3.852   4.260 -2.2492  1.0122 -0.4942
   55CHL1   C20 4046   0.173   3.550   5.105  0.8360  0.5655 -0.0874
   55CHL1   H20 4047   0.077   3.603   5.089  1.8121  2.0387 -1.4203
   55CHL1   C21 4048   0.270   3.651   5.165  0.8235 -0.6718 -0.2207
   55CHL1  H21A 4049   0.299   3.735   5.099 -1.7274 -0.5075 -1.2490
   55CHL1  H21B 4050   0.366   3.601   5.191  0.3114  0.0275  3.5163
   55CHL1  H21C 4051   0.229   3.682   5.263 -0.0369  0.6248 -0.9555
   55CHL1   C22 4052   0.137   3.427   5.200 -0.2282  0.1091  0.5197
   55CHL1  H22A 4053   0.110   3.329   5.156  0.2578 -0.6657  1.8887
   55CHL1  H22B 4054   0.234   3.416   5.254  0.0120 -1.0331 -0.1164
   55CHL1   C23 4055   0.039   3.458   5.310  0.3126  0.4755 -0.1707
   55CHL1  H23A 4056   0.055   3.560   5.352  2.5137 -0.3085  1.0562
   55CHL1  H23B 4057  -0.058   3.468   5.257  0.2043  0.9799  0.1125
   55CHL1   C24 4058   0.011   3.357   5.423 -0.8273  0.0691  0.6504
   55CHL1  H24A 4059  -0.076   3.292   5.398  0.0768 -0.6817 -0.7102
   55CHL1  H24B 4060   0.096   3.289   5.445 -0.8695  0.1763  1.1661
   55CHL1   C25 4061  -0.016   3.438   5.557 -0.2440 -0.1300  0.5971
   55CHL1   H25 4062  -0.056   3.537   5.526  0.6223 -0.2633 -1.0723
   55CHL1   C26 4063  -0.124   3.372   5.637  0.1366 -0.0637  0.3572
   55CHL1  H26A 4064  -0.153   3.279   5.584  2.0174  0.3529 -1.5515
   55CHL1  H26B 4065  -0.099   3.344   5.742  1.2800 -1.1150 -0.1611
   55CHL1  H26C 4066  -0.210   3.440   5.654 -0.0677 -0.1650 -0.2522
   55CHL1   C27 4067   0.117   3.471   5.633 -0.0654 -0.4241  0.0846
   55CHL1  H27A 4068   0.084   3.521   5.727  3.6563 -0.9138  1.8223
   55CHL1  H27B 4069   0.168   3.376   5.658  2.1849 -0.0305 -2.5495
   55CHL1  H27C 4070   0.186   3.534   5.572 -0.2456 -1.2342 -0.9760
   56CHL1    C3 4071   2.234   3.473   3.861  0.0203  0.6213  0.3063
   56CHL1    H3 4072   2.184   3.395   3.922 -3.6255  1.8174 -0.9120
   56CHL1    O3 4073   2.156   3.498   3.749 -0.0322 -0.4815 -0.1460
   56CHL1   H3' 4074   2.198   3.567   3.698 -0.4673 -0.5507 -0.6052
   56CHL1    C4 4075   2.243   3.606   3.939 -0.2858  0.0640 -0.7907
   56CHL1   H4A 4076   2.264   3.695   3.875 -2.3960  0.3285 -1.1929
   56CHL1   H4B 4077   2.140   3.627   3.974  0.4568  1.1535  0.8508
   56CHL1    C5 4078   2.342   3.598   4.050 -0.3342 -0.0969  0.1425
   56CHL1    C6 4079   2.302   3.624   4.174 -0.3723  0.3369  0.1453
   56CHL1    H6 4080   2.198   3.658   4.182 -0.1825  0.9256  0.1911
   56CHL1    C7 4081   2.401   3.623   4.290  0.4094  0.1610 -0.7770
   56CHL1   H7A 4082   2.393   3.712   4.357 -0.6387 -1.2807  1.1052
   56CHL1   H7B 4083   2.376   3.539   4.359 -2.0457  2.2955  1.1599
   56CHL1    C8 4084   2.548   3.612   4.243 -0.1224  0.0942  0.0273
   56CHL1    H8 4085   2.575   3.710   4.199 -1.4384 -0.4790 -2.2440
   56CHL1   C14 4086   2.643   3.584   4.358  1.1568  0.3630  0.3433
   56CHL1   H14 4087   2.610   3.490   4.406 -0.2762  1.4403  1.5899
   56CHL1   C15 4088   2.642   3.684   4.472 -0.1531  0.0979  0.1944
   56CHL1  H15A 4089   2.632   3.783   4.421  1.9555  0.2451 -0.0147
   56CHL1  H15B 4090   2.564   3.664   4.549 -1.1300  0.3141 -0.6999
   56CHL1   C16 4091   2.773   3.661   4.542  0.5300 -0.5125  1.1387
   56CHL1  H16A 4092   2.825   3.759   4.538  2.4341 -1.5166 -1.4178
   56CHL1  H16B 4093   2.760   3.625   4.647  1.4855  2.1206  2.2360
   56CHL1   C17 4094   2.853   3.563   4.454  0.8019 -0.3320  0.3953
   56CHL1   H17 4095   2.833   3.462   4.495  2.5027 -0.7701  0.2371
   56CHL1   C13 4096   2.791   3.569   4.314 -0.0912 -1.0788  0.5360
   56CHL1   C18 4097   2.838   3.698   4.232 -0.1578  0.2677 -0.7213
   56CHL1  H18A 4098   2.808   3.781   4.300 -0.7358 -0.8460  0.4174
   56CHL1  H18B 4099   2.948   3.700   4.217  0.1605  0.4073  1.3513
   56CHL1  H18C 4100   2.796   3.706   4.130  2.1628  1.3387 -1.6554
   56CHL1   C12 4101   2.791   3.436   4.234  0.9313  0.4975  0.6921
   56CHL1  H12A 4102   2.891   3.398   4.204  1.3309  3.1412 -1.7604
   56CHL1  H12B 4103   2.739   3.363   4.299  1.0144 -0.2748 -0.0925
   56CHL1   C11 4104   2.711   3.454   4.103  0.4561 -0.6926 -0.1649
   56CHL1  H11A 4105   2.769   3.527   4.041 -3.1198  2.7350  0.1610
   56CHL1  H11B 4106   2.711   3.355   4.051  1.0843 -0.9145  0.2400
   56CHL1    C9 4107   2.563   3.503   4.137  0.2091  0.2790  0.5001
   56CHL1    H9 4108   2.522   3.408   4.179 -1.0983 -0.4138 -2.1053
   56CHL1   C10 4109   2.484   3.541   4.006  0.2571 -1.0400 -0.0003
   56CHL1   C19 4110   2.555   3.658   3.922  0.2947 -0.0615 -0.7256
   56CHL1  H19A 4111   2.495   3.704   3.840 -1.5405  0.9290  1.0677
   56CHL1  H19B 4112   2.577   3.743   3.990 -0.0762 -1.4691  1.2092
   56CHL1  H19C 4113   2.649   3.615   3.882 -0.8975 -2.3665 -1.1972
   56CHL1    C1 4114   2.474   3.412   3.918  0.4367 -0.6730 -0.6027
   56CHL1   H1A 4115   2.570   3.387   3.868  1.4700  2.0270 -0.1426
   56CHL1   H1B 4116   2.440   3.340   3.996 -1.7361  1.5229  0.6528
   56CHL1    C2 4117   2.368   3.413   3.810 -0.7336  0.4519 -0.3027
   56CHL1   H2A 4118   2.364   3.310   3.767 -1.5750 -0.2365  1.3293
   56CHL1   H2B 4119   2.426   3.468   3.733  0.4039  0.2714  0.3985
   56CHL1   C20 4120   3.006   3.588   4.464 -0.0125 -0.6232 -0.6021
   56CHL1   H20 4121   3.024   3.686   4.415 -5.3814 -0.0643 -2.1271
   56CHL1   C21 4122   3.076   3.482   4.372 -0.1080  0.4622  0.4554
   56CHL1  H21A 4123   3.027   3.385   4.394 -1.6156  1.1732  0.3460
   56CHL1  H21B 4124   3.184   3.467   4.393  0.7373  1.0914 -2.9621
   56CHL1  H21C 4125   3.074   3.501   4.263 -0.3440  0.7487  0.5065
   56CHL1   C22 4126   3.056   3.605   4.613  0.1772 -0.2599  0.0283
   56CHL1  H22A 4127   3.163   3.636   4.612 -0.1045  0.7593 -1.1530
   56CHL1  H22B 4128   3.001   3.686   4.665  0.7315 -0.7793  1.4881
   56CHL1   C23 4129   3.060   3.482   4.686 -0.1637 -0.2624  0.0654
   56CHL1  H23A 4130   2.956   3.444   4.689  0.3255 -1.6213  1.8142
   56CHL1  H23B 4131   3.131   3.406   4.645  0.3519 -1.2428  2.5963
   56CHL1   C24 4132   3.095   3.499   4.838  0.2061  0.2115  1.0877
   56CHL1  H24A 4133   3.200   3.535   4.845 -0.1443  1.3289  0.8256
   56CHL1  H24B 4134   3.032   3.580   4.880  2.2674  2.4021  0.2235
   56CHL1   C25 4135   3.071   3.368   4.915 -0.2531 -1.0478 -0.2391
   56CHL1   H25 4136   3.122   3.284   4.863  1.6019 -0.7201  0.9588
   56CHL1   C26 4137   3.141   3.402   5.054 -0.1203 -0.1451  0.1170
   56CHL1  H26A 4138   3.079   3.484   5.095  0.4319 -0.5533  1.8418
   56CHL1  H26B 4139   3.119   3.312   5.116 -3.3587 -0.0995 -0.7965
   56CHL1  H26C 4140   3.249   3.429   5.045  0.2801 -1.6778  0.0464
   56CHL1   C27 4141   2.920   3.338   4.938 -0.0994  0.1951  0.1347
   56CHL1  H27A 4142   2.871   3.413   5.004 -0.3374 -0.0290  0.2120
   56CHL1  H27B 4143   2.866   3.323   4.842  0.0424 -0.5774  0.1692
   56CHL1  H27C 4144   2.917   3.245   4.999 -0.4086  0.4090  0.4507
   57SAPC     N 4145   6.358   3.576   7.896  0.5081  0.1224  0.3173
   57SAPC   C12 4146   6.378   3.703   7.816  0.1847 -0.2664  0.7498
   57SAPC  H12A 4147   6.310   3.782   7.842  0.5858  0.7561 -1.0665
   57SAPC  H12B 4148   6.350   3.689   7.712  2.4011  0.7920 -0.0534
   57SAPC   C13 4149   6.455   3.468   7.851 -1.0018 -0.1031  0.8866
   57SAPC  H13A 4150   6.442   3.453   7.745 -0.4935 -1.5319  1.0096
   57SAPC  H13B 4151   6.559   3.492   7.868  0.2835 -3.0565 -1.7460
   57SAPC  H13C 4152   6.432   3.371   7.892 -1.0681 -1.2596 -1.6628
   57SAPC   C14 4153   6.351   3.593   8.038  0.5175 -0.7557 -0.1745
   57SAPC  H14A 4154   6.270   3.662   8.058  0.0015 -1.5075  0.3854
   57SAPC  H14B 4155   6.316   3.508   8.095 -0.3008 -0.4816 -0.2629
   57SAPC  H14C 4156   6.440   3.632   8.085 -0.1636 -2.0183  2.3516
   57SAPC   C15 4157   6.231   3.515   7.855  0.1402 -0.4900 -0.1504
   57SAPC  H15A 4158   6.236   3.470   7.757  2.4841  2.1581 -1.4057
   57SAPC  H15B 4159   6.200   3.450   7.935 -2.8328 -0.7511 -1.3859
   57SAPC  H15C 4160   6.151   3.587   7.857  0.8029  0.2562  0.4202
   57SAPC   C11 4161   6.516   3.779   7.816 -0.1903 -0.7796 -0.1915
   57SAPC  H11A 4162   6.539   3.808   7.920  0.4777 -1.1771 -0.2156
   57SAPC  H11B 4163   6.509   3.867   7.749  1.5604 -0.2381  0.2752
   57SAPC     P 4164   6.673   3.679   7.621  0.4177 -0.0010  0.6924
   57SAPC   O13 4165   6.737   3.802   7.568  0.4243  0.2436  0.4631
   57SAPC   O14 4166   6.739   3.548   7.614 -0.1473  0.5548 -0.6512
   57SAPC   O12 4167   6.627   3.694   7.768  1.0974 -0.2965  0.1863
   57SAPC   O11 4168   6.528   3.668   7.552  0.0196 -0.0913 -0.3771
   57SAPC    C1 4169   6.487   3.558   7.479  0.5552 -0.1077  0.6306
   57SAPC    HA 4170   6.490   3.462   7.534 -1.7482 -0.1243  0.8196
   57SAPC    HB 4171   6.378   3.570   7.462  1.1411  1.9881 -2.4433
   57SAPC    C2 4172   6.563   3.559   7.336 -0.2432 -0.1137 -0.1583
   57SAPC    HS 4173   6.664   3.515   7.345 -1.4273 -2.8122  1.2629
   57SAPC   O21 4174   6.541   3.692   7.278  0.1891 -0.4149 -0.2093
   57SAPC   C21 4175   6.646   3.741   7.205 -0.2465  0.7129 -0.0624
   57SAPC   O22 4176   6.756   3.683   7.201  0.1189 -0.1327 -0.1417
   57SAPC   C22 4177   6.609   3.864   7.124  0.6410 -0.1030 -0.3922
   57SAPC   H2R 4178   6.602   3.945   7.200  1.6706 -1.0278  0.7435
   57SAPC   H2S 4179   6.690   3.901   7.057 -0.1230  2.0988 -0.2035
   57SAPC    C3 4180   6.488   3.464   7.240  0.2699 -0.6802  0.1254
   57SAPC    HX 4181   6.382   3.490   7.222 -0.4137 -3.4295 -0.2441
   57SAPC    HY 4182   6.486   3.361   7.282  0.7957 -0.9831 -0.5764
   57SAPC   O31 4183   6.545   3.449   7.109 -0.0559 -0.4128 -0.2914
   57SAPC   C31 4184   6.664   3.395   7.092 -0.0058  0.5519 -0.5445
   57SAPC   O32 4185   6.744   3.357   7.182  0.0627 -0.4527  0.3113
   57SAPC   C32 4186   6.703   3.389   6.940 -0.2672 -0.2288  0.1744
   57SAPC   H2X 4187   6.627   3.440   6.876  0.3748  0.3835 -0.1094
   57SAPC   H2Y 4188   6.713   3.282   6.912 -1.1059 -0.1026 -0.6881
   57SAPC   C23 4189   6.480   3.842   7.050 -0.2207  0.9554 -0.0991
   57SAPC   H3R 4190   6.429   3.941   7.039  0.7146  1.4808  0.1733
   57SAPC   H3S 4191   6.407   3.787   7.113  0.1708  1.5520  0.9014
   57SAPC   C24 4192   6.483   3.762   6.923  0.0122 -0.1215 -0.2757
   57SAPC   H4R 4193   6.380   3.722   6.907 -0.2423  0.9531 -1.5123
   57SAPC   H4S 4194   6.555   3.681   6.946  0.0204  0.5010  2.1640
   57SAPC   C25 4195   6.538   3.840   6.809  0.1466 -0.2799  0.6436
   57SAPC   H5R 4196   6.643   3.866   6.826  0.8711 -1.8232 -1.0734
   57SAPC   C26 4197   6.474   3.900   6.709  0.2693 -0.0809 -0.2359
   57SAPC   H6R 4198   6.530   3.951   6.630 -0.9278  0.8083 -0.5458
   57SAPC   C27 4199   6.328   3.881   6.673  0.3660 -0.5094 -0.0687
   57SAPC   H7R 4200   6.264   3.844   6.756  1.2279  1.3290  1.5089
   57SAPC   H7S 4201   6.322   3.808   6.590 -0.6387 -0.7622  0.2112
   57SAPC   C28 4202   6.273   4.012   6.625 -0.5843  0.5290  0.1530
   57SAPC   H8R 4203   6.207   4.056   6.701  1.9419  0.7152  2.3875
   57SAPC   C29 4204   6.269   4.068   6.501  0.2454 -1.0254 -0.4240
   57SAPC   H9R 4205   6.205   4.157   6.497  0.7894 -0.6185 -0.1670
   57SAPC  C210 4206   6.348   4.027   6.379 -0.5207  0.0097 -0.7221
   57SAPC  H10R 4207   6.411   3.938   6.402  1.0130  0.9459 -1.0903
   57SAPC  H10S 4208   6.416   4.111   6.350  1.3988 -0.9055  0.8674
   57SAPC  C211 4209   6.262   3.988   6.262 -0.8725 -0.0382  0.3282
   57SAPC  H11R 4210   6.244   3.879   6.257 -0.8390 -0.1504  1.9788
   57SAPC  C212 4211   6.217   4.064   6.161 -0.2236  0.4052  0.1516
   57SAPC  H12R 4212   6.150   4.020   6.085  0.8799  0.7543 -1.0622
   57SAPC  C213 4213   6.224   4.209   6.168 -0.5142 -0.1174 -0.3709
   57SAPC  H13R 4214   6.261   4.245   6.070  1.3328 -0.6135  0.1059
   57SAPC  H13S 4215   6.293   4.254   6.243  0.3708  0.3680 -1.4458
   57SAPC  C214 4216   6.090   4.264   6.192 -0.3386 -0.9317  0.3938
   57SAPC  H14R 4217   6.066   4.295   6.295 -0.2205  1.7583 -0.2994
   57SAPC  C215 4218   5.998   4.307   6.100  0.0608  0.3069 -0.4049
   57SAPC  H15R 4219   5.901   4.350   6.128 -1.3590 -3.0922  0.4809
   57SAPC  C216 4220   6.004   4.277   5.949 -0.0938 -0.3437  0.6278
   57SAPC  H16R 4221   5.971   4.171   5.940  0.3572 -0.6060  1.8673
   57SAPC  H16S 4222   6.107   4.295   5.911  0.8460 -0.8847  2.7912
   57SAPC  C217 4223   5.918   4.372   5.872  0.1088 -0.1346  0.2221
   57SAPC  H17R 4224   5.948   4.478   5.886 -0.4683 -0.2752  2.9337
   57SAPC  H17S 4225   5.819   4.368   5.922  0.9838 -0.0511  2.0100
   57SAPC  C218 4226   5.911   4.325   5.725  0.1627  0.1835  0.7675
   57SAPC  H18R 4227   5.902   4.214   5.723  2.1037 -0.0130  1.0555
   57SAPC  H18S 4228   6.011   4.339   5.679 -0.0373 -1.2496 -0.1767
   57SAPC  C219 4229   5.798   4.396   5.643 -0.6705  1.2458  0.3432
   57SAPC  H19R 4230   5.804   4.503   5.672  2.3905  0.8682  1.4467
   57SAPC  H19S 4231   5.699   4.356   5.676  1.2646 -2.0746  2.6859
   57SAPC  C220 4232   5.805   4.384   5.487 -0.5643  0.0282 -1.0844
   57SAPC  H20R 4233   5.899   4.435   5.458 -0.4341  1.9326  2.2862
   57SAPC  H20S 4234   5.722   4.435   5.433  0.5701  1.5739 -1.4511
   57SAPC  H20T 4235   5.800   4.278   5.454  3.3945 -0.7908  0.4230
   57SAPC   C33 4236   6.839   3.458   6.907 -0.3028 -0.2070 -0.1219
   57SAPC   H3X 4237   6.921   3.397   6.950 -0.4119 -1.8819 -2.1390
   57SAPC   H3Y 4238   6.831   3.559   6.955 -0.4603  0.4176 -1.4208
   57SAPC   C34 4239   6.869   3.473   6.757  0.1181 -0.7153 -0.0046
   57SAPC   H4X 4240   6.846   3.372   6.716 -0.3367 -1.0645  1.0463
   57SAPC   H4Y 4241   6.976   3.499   6.742 -0.1615  0.4809 -0.0233
   57SAPC   C35 4242   6.783   3.574   6.673 -0.4949  0.0718 -0.3370
   57SAPC   H5X 4243   6.818   3.680   6.678  0.5929 -0.3049  4.3998
   57SAPC   H5Y 4244   6.682   3.571   6.720 -1.3460 -1.5321 -2.1185
   57SAPC   C36 4245   6.774   3.524   6.531 -0.0427  0.6148 -0.2637
   57SAPC   H6X 4246   6.719   3.428   6.545 -0.3781  0.3792 -2.8273
   57SAPC   H6Y 4247   6.875   3.516   6.486 -0.4046  0.3480 -1.0441
   57SAPC   C37 4248   6.697   3.618   6.444 -0.8033  0.2348 -0.2084
   57SAPC   H7X 4249   6.754   3.712   6.427 -0.4194  0.2364  0.9903
   57SAPC   H7Y 4250   6.604   3.657   6.491 -0.4132  1.2793 -0.2704
   57SAPC   C38 4251   6.652   3.560   6.316 -0.0294  0.3545  0.1313
   57SAPC   H8X 4252   6.617   3.456   6.335 -1.0100  0.8977  1.4425
   57SAPC   H8Y 4253   6.731   3.555   6.237 -1.5988 -1.6943 -1.4379
   57SAPC   C39 4254   6.536   3.637   6.250  0.5251  0.2713 -0.1038
   57SAPC   H9X 4255   6.571   3.734   6.208  0.1386  0.2894 -0.3893
   57SAPC   H9Y 4256   6.447   3.663   6.311 -0.8554 -2.3050 -0.8738
   57SAPC  C310 4257   6.470   3.566   6.133 -0.2019  0.1506 -0.2155
   57SAPC  H10X 4258   6.427   3.472   6.176 -1.2556  0.8801  0.3627
   57SAPC  H10Y 4259   6.545   3.536   6.057  1.0216 -0.2948  1.1223
   57SAPC  C311 4260   6.365   3.635   6.058  0.0713 -0.1257 -0.3501
   57SAPC  H11X 4261   6.296   3.670   6.137  0.3673  1.6735 -0.8590
   57SAPC  H11Y 4262   6.312   3.559   5.996 -1.6916  0.0792  0.8158
   57SAPC  C312 4263   6.407   3.760   5.974 -0.1004 -0.2521  0.1109
   57SAPC  H12X 4264   6.494   3.734   5.910  0.0196  0.3885  0.0138
   57SAPC  H12Y 4265   6.427   3.845   6.042  0.7809  1.1902 -1.8727
   57SAPC  C313 4266   6.298   3.814   5.882  0.6972  0.2655 -0.3311
   57SAPC  H13X 4267   6.206   3.824   5.943  0.0881 -3.4620 -0.4022
   57SAPC  H13Y 4268   6.281   3.733   5.807  0.7684  0.4617 -0.5621
   57SAPC  C314 4269   6.345   3.935   5.813 -0.2839 -0.2953  0.3951
   57SAPC  H14X 4270   6.435   3.910   5.753 -0.8796  0.9381 -1.0959
   57SAPC  H14Y 4271   6.361   4.013   5.890  0.3645  0.4437 -0.4669
   57SAPC  C315 4272   6.230   3.980   5.716  0.1471 -0.5180 -0.6669
   57SAPC  H15X 4273   6.148   4.025   5.776 -1.8502  0.3553 -3.8076
   57SAPC  H15Y 4274   6.185   3.892   5.666 -0.4606 -2.3517  2.8180
   57SAPC  C316 4275   6.273   4.088   5.621 -0.0459 -0.0840 -0.6783
   57SAPC  H16X 4276   6.372   4.065   5.575 -0.1855 -2.6646  0.1490
   57SAPC  H16Y 4277   6.295   4.175   5.686 -0.7526 -0.9166  0.7236
   57SAPC  C317 4278   6.157   4.127   5.528 -0.1380 -0.8595  0.8418
   57SAPC  H17X 4279   6.162   4.234   5.496  1.5983 -1.5905 -1.6103
   57SAPC  H17Y 4280   6.065   4.115   5.590  0.0787 -2.0600  0.9597
   57SAPC  C318 4281   6.126   4.031   5.414 -0.6857 -0.2242  0.0594
   57SAPC  H18X 4282   6.031   4.054   5.361 -1.1751 -4.3739 -1.1883
   57SAPC  H18Y 4283   6.137   3.930   5.458 -0.1765  0.6602  2.0805
   57SAPC  H18Z 4284   6.203   4.043   5.335  1.5337  0.9218  2.2460
   58SAPC     N 4285   2.897   6.636   7.544 -0.3296 -0.3025  0.1510
   58SAPC   C12 4286   3.026   6.554   7.538  0.6017  0.1585  0.1748
   58SAPC  H12A 4287   3.064   6.561   7.437  0.5684 -1.3547  0.0419
   58SAPC  H12B 4288   3.011   6.447   7.541  2.2604 -0.2957 -3.0516
   58SAPC   C13 4289   2.820   6.625   7.675 -0.4781 -0.6774 -0.3805
   58SAPC  H13A 4290   2.789   6.525   7.703 -1.5740 -0.3763 -0.4914
   58SAPC  H13B 4291   2.888   6.656   7.753 -0.9726 -1.4068  0.3647
   58SAPC  H13C 4292   2.733   6.689   7.669  0.4147  0.4947 -1.1430
   58SAPC   C14 4293   2.921   6.782   7.513  0.1505  0.8062 -0.2747
   58SAPC  H14A 4294   2.975   6.814   7.600  1.8170 -1.9675 -0.1716
   58SAPC  H14B 4295   2.968   6.810   7.420  0.4141  0.7968 -0.1442
   58SAPC  H14C 4296   2.830   6.840   7.510 -0.3049  0.1975  1.0492
   58SAPC   C15 4297   2.808   6.591   7.440 -1.1612 -0.2148  0.0924
   58SAPC  H15A 4298   2.849   6.575   7.342 -1.1401  0.0754  0.0522
   58SAPC  H15B 4299   2.760   6.495   7.458  1.7138 -1.5647  1.1990
   58SAPC  H15C 4300   2.720   6.652   7.425 -1.6547 -0.0395  3.0206
   58SAPC   C11 4301   3.142   6.595   7.637  0.1836  0.4455 -0.7608
   58SAPC  H11A 4302   3.191   6.693   7.617  1.6414  0.1524  1.1055
   58SAPC  H11B 4303   3.223   6.524   7.612  0.1866  0.2767 -0.2743
   58SAPC     P 4304   3.100   6.441   7.838 -0.0903  0.1254  0.0763
   58SAPC   O13 4305   3.224   6.415   7.914 -0.3389  0.0627 -0.0355
   58SAPC   O14 4306   2.980   6.448   7.928 -0.0428 -0.2401 -0.6084
   58SAPC   O12 4307   3.110   6.585   7.775  0.2360  0.6136 -0.5027
   58SAPC   O11 4308   3.077   6.335   7.716 -0.4403 -0.2851 -0.0532
   58SAPC    C1 4309   3.170   6.229   7.696  0.1720 -0.9149  0.0319
   58SAPC    HA 4310   3.273   6.268   7.706 -0.2273 -0.3977  2.5818
   58SAPC    HB 4311   3.143   6.146   7.765 -1.4484  0.4790  1.1416
   58SAPC    C2 4312   3.171   6.185   7.550 -0.3071  0.0749 -0.3046
   58SAPC    HS 4313   3.190   6.272   7.484  0.0824 -0.9556 -1.5857
   58SAPC   O21 4314   3.039   6.119   7.525 -0.3925 -0.1122 -0.8602
   58SAPC   C21 4315   2.973   6.180   7.431  0.3006 -0.6393  0.1076
   58SAPC   O22 4316   3.005   6.285   7.377  0.6484  0.3614  0.0925
   58SAPC   C22 4317   2.857   6.082   7.396  0.5626  0.1704 -0.3255
   58SAPC   H2R 4318   2.846   6.017   7.486  0.8232  0.3875 -0.1349
   58SAPC   H2S 4319   2.765   6.140   7.375  1.1624  1.4534  0.5191
   58SAPC    C3 4320   3.282   6.083   7.537  0.2965  0.0415  0.2457
   58SAPC    HX 4321   3.268   6.009   7.618  0.2958  0.5094  0.6809
   58SAPC    HY 4322   3.380   6.135   7.548  0.7466 -0.6888 -0.2691
   58SAPC   O31 4323   3.271   6.018   7.408  0.0623 -0.6465  0.6943
   58SAPC   C31 4324   3.318   6.091   7.306  0.0166  0.7633 -0.4570
   58SAPC   O32 4325   3.391   6.186   7.312  0.1574 -0.6411  0.1893
   58SAPC   C32 4326   3.254   6.021   7.179 -0.0070 -0.6436 -0.0847
   58SAPC   H2X 4327   3.143   6.032   7.175 -0.4770 -3.9233  1.2637
   58SAPC   H2Y 4328   3.283   5.914   7.181  0.4402 -0.5157  0.6263
   58SAPC   C23 4329   2.886   5.980   7.285  0.2057 -0.0186  0.3741
   58SAPC   H3R 4330   2.825   5.887   7.295  0.3234 -0.3006 -1.2111
   58SAPC   H3S 4331   2.993   5.954   7.295  0.4723  0.3910 -1.0536
   58SAPC   C24 4332   2.868   6.049   7.151  1.0512 -0.1374  0.3519
   58SAPC   H4R 4333   2.932   5.991   7.081  0.3571  0.6820 -0.9890
   58SAPC   H4S 4334   2.919   6.148   7.153  1.0111 -0.1215  0.5779
   58SAPC   C25 4335   2.725   6.074   7.108 -0.1233  0.2509 -0.1233
   58SAPC   H5R 4336   2.661   6.097   7.194  0.8778 -1.7258  1.2312
   58SAPC   C26 4337   2.678   6.066   6.981  0.3608 -0.7892  0.2581
   58SAPC   H6R 4338   2.570   6.082   6.967  0.3224 -0.4131  0.9389
   58SAPC   C27 4339   2.747   6.032   6.854 -0.6282 -0.4617  0.1317
   58SAPC   H7R 4340   2.728   5.927   6.823  0.2532 -0.2368 -1.2313
   58SAPC   H7S 4341   2.855   6.053   6.864 -0.5876 -0.1036 -0.9428
   58SAPC   C28 4342   2.713   6.139   6.752  0.2004  0.2530  0.3031
   58SAPC   H8R 4343   2.707   6.245   6.781  1.2099  0.7302 -1.1554
   58SAPC   C29 4344   2.693   6.134   6.619 -0.1847  0.2149  0.1660
   58SAPC   H9R 4345   2.658   6.226   6.571 -0.8765  0.2441  0.7089
   58SAPC  C210 4346   2.686   6.018   6.525 -0.4555 -0.1138  0.4718
   58SAPC  H10R 4347   2.584   6.002   6.485 -0.4312 -2.1698  1.0966
   58SAPC  H10S 4348   2.713   5.924   6.578  0.0009 -1.6522 -2.2652
   58SAPC  C211 4349   2.776   6.033   6.396  0.0632  0.4874 -0.2536
   58SAPC  H11R 4350   2.877   6.069   6.419 -1.0327  3.0778  0.8520
   58SAPC  C212 4351   2.732   6.015   6.272  0.3418 -0.9965  0.2898
   58SAPC  H12R 4352   2.809   6.045   6.199 -0.5343  0.6225 -0.0138
   58SAPC  C213 4353   2.589   5.996   6.222  0.5509 -0.0718  0.1690
   58SAPC  H13R 4354   2.560   5.906   6.280 -1.1725 -0.5792 -1.3687
   58SAPC  H13S 4355   2.582   5.968   6.114 -0.4582  0.2563  0.1476
   58SAPC  C214 4356   2.490   6.102   6.260 -0.0607 -0.2181  0.9577
   58SAPC  H14R 4357   2.500   6.145   6.361 -0.4880  0.2419  0.8094
   58SAPC  C215 4358   2.417   6.168   6.168  0.0274  0.3301  0.3097
   58SAPC  H15R 4359   2.339   6.238   6.199  0.6836  1.6460 -0.8727
   58SAPC  C216 4360   2.404   6.126   6.025  1.2092  0.0987 -0.4264
   58SAPC  H16R 4361   2.370   6.020   6.023 -0.1677  0.5093 -0.1251
   58SAPC  H16S 4362   2.507   6.121   5.984  0.7956 -2.5983 -1.3095
   58SAPC  C217 4363   2.317   6.208   5.938  0.4477 -0.3576  0.4868
   58SAPC  H17R 4364   2.355   6.312   5.944 -0.2011 -0.0734 -0.1703
   58SAPC  H17S 4365   2.212   6.215   5.973  1.1471  0.7159  2.5796
   58SAPC  C218 4366   2.314   6.158   5.792 -0.4533  0.5104 -0.1262
   58SAPC  H18R 4367   2.252   6.066   5.788  0.3100 -0.0658  0.7584
   58SAPC  H18S 4368   2.417   6.125   5.767 -0.4340  0.6857 -0.2755
   58SAPC  C219 4369   2.269   6.265   5.689  0.3166 -0.0098  0.5810
   58SAPC  H19R 4370   2.265   6.219   5.588 -0.4910 -0.8925  1.0026
   58SAPC  H19S 4371   2.357   6.334   5.681 -1.1646  1.9512  0.4602
   58SAPC  C220 4372   2.141   6.340   5.725  1.0225  0.5657 -0.1473
   58SAPC  H20R 4373   2.168   6.418   5.799 -0.4524  1.8670 -0.9260
   58SAPC  H20S 4374   2.065   6.269   5.761 -0.4082  0.4198 -3.1280
   58SAPC  H20T 4375   2.097   6.391   5.636 -1.2507 -0.4171  0.3701
   58SAPC   C33 4376   3.320   6.072   7.044  0.2901  1.2427 -0.1477
   58SAPC   H3X 4377   3.417   6.019   7.032 -0.2317 -0.6066  2.7753
   58SAPC   H3Y 4378   3.345   6.180   7.051  2.8681  0.7022 -0.0363
   58SAPC   C34 4379   3.246   6.030   6.921  0.5588  0.1064  1.2454
   58SAPC   H4X 4380   3.170   6.111   6.910 -1.0878 -1.3133  1.8637
   58SAPC   H4Y 4381   3.188   5.936   6.920 -0.0485  0.4543  2.0456
   58SAPC   C35 4382   3.347   6.050   6.803  0.7859 -0.2620  0.1424
   58SAPC   H5X 4383   3.427   5.973   6.800  1.6179  0.6045 -2.1258
   58SAPC   H5Y 4384   3.389   6.152   6.811  2.4400 -0.9694  0.9668
   58SAPC   C36 4385   3.264   6.047   6.676 -0.1691 -0.2598 -0.6700
   58SAPC   H6X 4386   3.188   6.128   6.686  0.7617  0.4052  1.8617
   58SAPC   H6Y 4387   3.209   5.951   6.669  1.7394 -1.5078  0.4547
   58SAPC   C37 4388   3.347   6.057   6.549 -0.4344  0.4301 -0.3597
   58SAPC   H7X 4389   3.424   5.976   6.549 -1.3234 -0.4446  0.5843
   58SAPC   H7Y 4390   3.394   6.158   6.538 -2.1137  1.1210 -1.4960
   58SAPC   C38 4391   3.257   6.042   6.422 -0.2329  0.0488  0.9324
   58SAPC   H8X 4392   3.176   6.118   6.415  0.6101  0.9505  0.7025
   58SAPC   H8Y 4393   3.214   5.940   6.429 -1.4723  0.4542 -0.2686
   58SAPC   C39 4394   3.337   6.069   6.290 -0.0496  0.2606  0.2583
   58SAPC   H9X 4395   3.423   5.998   6.293 -0.4649 -0.2483  0.3046
   58SAPC   H9Y 4396   3.381   6.171   6.291 -0.5494  0.5063 -1.0366
   58SAPC  C310 4397   3.257   6.033   6.162  0.7856 -0.3559 -0.5677
   58SAPC  H10X 4398   3.224   5.927   6.165 -0.0752 -0.1063  2.4850
   58SAPC  H10Y 4399   3.321   6.039   6.072 -2.6922 -0.6545 -3.2533
   58SAPC  C311 4400   3.143   6.133   6.131  0.0591 -0.0605  0.3538
   58SAPC  H11X 4401   3.188   6.233   6.110  0.4254 -0.6411 -1.9316
   58SAPC  H11Y 4402   3.075   6.139   6.218 -1.2490 -0.7249 -0.5893
   58SAPC  C312 4403   3.059   6.093   6.006  0.8203 -0.2031 -0.4552
   58SAPC  H12X 4404   3.008   5.996   6.019  1.0552 -0.3998 -0.9984
   58SAPC  H12Y 4405   3.128   6.087   5.920  1.1382  2.1897 -0.4497
   58SAPC  C313 4406   2.956   6.209   5.979  0.1035  1.0188 -0.5892
   58SAPC  H13X 4407   3.006   6.306   5.961  0.4820  1.2808  1.5897
   58SAPC  H13Y 4408   2.906   6.230   6.076  1.1314 -0.4813  0.3028
   58SAPC  C314 4409   2.865   6.186   5.862  0.6939  0.4427 -0.7076
   58SAPC  H14X 4410   2.802   6.276   5.846  1.2987  0.7314 -1.5544
   58SAPC  H14Y 4411   2.795   6.103   5.883  0.3811  0.2158 -2.5112
   58SAPC  C315 4412   2.937   6.153   5.735 -0.7641  0.0931  0.6189
   58SAPC  H15X 4413   3.002   6.063   5.737 -2.3502 -1.2501 -2.4152
   58SAPC  H15Y 4414   3.010   6.236   5.724  0.2173 -1.0257 -2.0271
   58SAPC  C316 4415   2.842   6.140   5.614 -0.5810 -0.6633 -0.4314
   58SAPC  H16X 4416   2.756   6.204   5.645 -0.1831 -1.8859  3.7453
   58SAPC  H16Y 4417   2.794   6.040   5.619 -0.6680 -0.5786  0.5899
   58SAPC  C317 4418   2.901   6.194   5.482  0.1044  0.4430 -0.2084
   58SAPC  H17X 4419   3.000   6.147   5.464  0.1325 -0.0091  1.0484
   58SAPC  H17Y 4420   2.901   6.304   5.495 -2.4298  0.4024  0.8088
   58SAPC  C318 4421   2.819   6.170   5.359 -0.1293 -0.1317 -0.1476
   58SAPC  H18X 4422   2.829   6.071   5.310 -0.1653  0.3346 -1.1344
   58SAPC  H18Y 4423   2.863   6.225   5.273  0.1581 -1.1468 -0.6651
   58SAPC  H18Z 4424   2.716   6.212   5.364  0.6565  1.8667  0.4499
   59SAPC     N 4425   2.643   4.215   7.847  0.1376  0.5434 -0.1819
   59SAPC   C12 4426   2.773   4.196   7.770 -0.4771 -0.1536  0.4932
   59SAPC  H12A 4427   2.777   4.093   7.738 -0.6897  0.3932 -1.4214
   59SAPC  H12B 4428   2.855   4.214   7.838  0.6664 -0.3654 -0.7845
   59SAPC   C13 4429   2.641   4.110   7.961  0.0995  0.0297  0.5122
   59SAPC  H13A 4430   2.543   4.116   8.005 -0.1846 -0.5412 -0.0320
   59SAPC  H13B 4431   2.668   4.015   7.919  1.5898  0.3866  0.5989
   59SAPC  H13C 4432   2.711   4.140   8.038 -0.6809  0.6345  1.0001
   59SAPC   C14 4433   2.652   4.344   7.927 -0.1250 -0.0547  0.5829
   59SAPC  H14A 4434   2.645   4.419   7.849 -0.4657 -0.3756  0.3002
   59SAPC  H14B 4435   2.573   4.365   7.997  0.4345  3.6094  0.2858
   59SAPC  H14C 4436   2.748   4.350   7.977 -0.1454  2.7674  0.4427
   59SAPC   C15 4437   2.525   4.215   7.762 -0.0662  0.7654  0.5272
   59SAPC  H15A 4438   2.527   4.136   7.689 -2.1239  2.2201 -1.2191
   59SAPC  H15B 4439   2.435   4.197   7.819  0.3194 -1.3803  0.5377
   59SAPC  H15C 4440   2.514   4.308   7.708 -0.0534 -0.4346 -1.6177
   59SAPC   C11 4441   2.793   4.280   7.646  0.3264  0.2435 -0.0008
   59SAPC  H11A 4442   2.710   4.264   7.574 -0.0133  2.3889 -0.1565
   59SAPC  H11B 4443   2.880   4.251   7.584 -2.1216  1.2889 -4.3234
   59SAPC     P 4444   2.950   4.470   7.717 -0.3482  0.2231  0.0845
   59SAPC   O13 4445   2.952   4.619   7.742  0.1265 -0.3836  0.3839
   59SAPC   O14 4446   2.989   4.387   7.836 -0.6005  0.5610 -0.0974
   59SAPC   O12 4447   2.811   4.414   7.665  0.3764  0.0511  0.2672
   59SAPC   O11 4448   3.040   4.441   7.590  0.2051 -0.4396 -0.4628
   59SAPC    C1 4449   3.036   4.534   7.485 -0.2397 -0.3359 -0.9746
   59SAPC    HA 4450   2.934   4.574   7.466 -0.3664 -0.5585 -0.7697
   59SAPC    HB 4451   3.110   4.616   7.503  0.4803 -1.6071  2.6810
   59SAPC    C2 4452   3.075   4.463   7.352 -0.0170 -0.2496  0.3073
   59SAPC    HS 4453   3.083   4.543   7.275  2.3434 -0.5746  0.1338
   59SAPC   O21 4454   2.988   4.359   7.311  0.5305 -0.0699 -0.6059
   59SAPC   C21 4455   2.879   4.397   7.245 -0.0528 -0.2295 -0.1914
   59SAPC   O22 4456   2.851   4.513   7.206  0.1888  0.1268 -0.6487
   59SAPC   C22 4457   2.788   4.279   7.208 -0.1907  0.0577 -0.3514
   59SAPC   H2R 4458   2.816   4.250   7.104  4.5682  0.5997  0.5594
   59SAPC   H2S 4459   2.817   4.192   7.270 -1.0980 -0.3861 -0.5296
   59SAPC    C3 4460   3.213   4.404   7.364 -0.4049  0.0862 -0.4005
   59SAPC    HX 4461   3.209   4.329   7.446  1.7940  0.2944 -0.0512
   59SAPC    HY 4462   3.284   4.484   7.394 -0.2008  0.2129 -1.1947
   59SAPC   O31 4463   3.265   4.332   7.255 -0.1061  0.6239 -0.2895
   59SAPC   C31 4464   3.296   4.408   7.150 -0.2154  0.4425  0.5136
   59SAPC   O32 4465   3.276   4.527   7.136 -0.8584  0.1008  0.1326
   59SAPC   C32 4466   3.324   4.312   7.033  0.3468 -0.5024 -0.3320
   59SAPC   H2X 4467   3.272   4.215   7.053  0.4972 -1.1120 -2.5841
   59SAPC   H2Y 4468   3.432   4.284   7.035  0.0614 -1.6370  0.3636
   59SAPC   C23 4469   2.640   4.306   7.224  0.3607  0.5405 -0.0294
   59SAPC   H3R 4470   2.616   4.365   7.133 -0.5794 -1.0755 -0.8668
   59SAPC   H3S 4471   2.633   4.371   7.314  3.2826  0.9712 -0.0225
   59SAPC   C24 4472   2.557   4.183   7.236  0.3513  0.7790  0.1908
   59SAPC   H4R 4473   2.453   4.191   7.276  0.5646 -0.0106  0.9232
   59SAPC   H4S 4474   2.608   4.121   7.312 -1.4407 -2.1908 -0.8324
   59SAPC   C25 4475   2.574   4.103   7.107  0.2802 -0.1775 -0.2105
   59SAPC   H5R 4476   2.644   4.018   7.109  1.4713  0.7205 -1.4902
   59SAPC   C26 4477   2.509   4.117   6.987  0.5334  0.5145 -0.2604
   59SAPC   H6R 4478   2.544   4.048   6.910  1.2679 -0.0865  0.5895
   59SAPC   C27 4479   2.402   4.216   6.940  0.2132 -0.0351 -0.7379
   59SAPC   H7R 4480   2.363   4.276   7.025 -1.3639  1.6061 -2.5431
   59SAPC   H7S 4481   2.316   4.152   6.912  2.5026 -2.4945 -2.6247
   59SAPC   C28 4482   2.439   4.304   6.830  0.0512  0.1553  0.5218
   59SAPC   H8R 4483   2.544   4.332   6.817  0.3598 -1.3405 -0.3746
   59SAPC   C29 4484   2.354   4.346   6.739 -0.1872  0.2569  0.2120
   59SAPC   H9R 4485   2.389   4.401   6.650 -0.1823 -0.3416 -0.1592
   59SAPC  C210 4486   2.209   4.319   6.735  0.3424 -0.0005  0.0359
   59SAPC  H10R 4487   2.178   4.234   6.799  1.9482 -0.3129  0.4326
   59SAPC  H10S 4488   2.177   4.278   6.636  0.4620  0.1302 -0.0566
   59SAPC  C211 4489   2.124   4.428   6.787 -0.1480  0.0858 -0.4186
   59SAPC  H11R 4490   2.079   4.398   6.882  2.6159  1.8150  1.5938
   59SAPC  C212 4491   2.091   4.548   6.731 -0.0708  0.3642 -0.8324
   59SAPC  H12R 4492   2.039   4.627   6.788 -0.1685 -0.3803  0.1362
   59SAPC  C213 4493   2.147   4.607   6.604  0.3786 -0.3992  0.5775
   59SAPC  H13R 4494   2.216   4.533   6.559  0.2290  0.3939 -1.0212
   59SAPC  H13S 4495   2.191   4.707   6.626  0.5099 -0.5969  1.2239
   59SAPC  C214 4496   2.033   4.642   6.511  0.1708 -0.3816 -0.3845
   59SAPC  H14R 4497   1.943   4.695   6.548  0.7649  0.1107  0.3967
   59SAPC  C215 4498   2.043   4.622   6.380 -0.8561 -0.4644  0.5805
   59SAPC  H15R 4499   1.954   4.643   6.320  0.3796  2.2853 -0.4649
   59SAPC  C216 4500   2.153   4.560   6.301 -0.7767 -0.1463  0.0983
   59SAPC  H16R 4501   2.167   4.451   6.319 -0.3564 -0.5078 -2.1677
   59SAPC  H16S 4502   2.252   4.609   6.296 -1.0284  0.3250 -4.2189
   59SAPC  C217 4503   2.113   4.560   6.150 -0.2142 -0.1305  0.0437
   59SAPC  H17R 4504   2.085   4.665   6.125  1.6175  0.7198  1.3538
   59SAPC  H17S 4505   2.019   4.499   6.148 -0.6382  0.5115 -2.6704
   59SAPC  C218 4506   2.226   4.505   6.053 -0.3618  0.1683 -0.3607
   59SAPC  H18R 4507   2.248   4.401   6.082 -0.8381 -0.4473 -2.0981
   59SAPC  H18S 4508   2.313   4.571   6.072 -1.0126  1.4486 -1.5876
   59SAPC  C219 4509   2.196   4.528   5.913  0.0885  0.0508 -0.7440
   59SAPC  H19R 4510   2.197   4.638   5.898 -2.5074  0.3263  0.5078
   59SAPC  H19S 4511   2.089   4.501   5.899  0.1550 -0.4051 -0.3894
   59SAPC  C220 4512   2.294   4.460   5.815 -0.3025 -0.2813 -0.3137
   59SAPC  H20R 4513   2.245   4.465   5.716  0.5505 -0.4466 -0.7493
   59SAPC  H20S 4514   2.317   4.355   5.844 -1.0514 -0.5329 -0.5962
   59SAPC  H20T 4515   2.397   4.500   5.812 -0.7798  0.9247 -1.5251
   59SAPC   C33 4516   3.267   4.360   6.900  0.5913 -0.5589  0.4485
   59SAPC   H3X 4517   3.295   4.280   6.828  0.6223  0.6174 -0.8937
   59SAPC   H3Y 4518   3.323   4.449   6.866  0.3395 -1.6387 -3.2032
   59SAPC   C34 4519   3.115   4.370   6.888 -0.0506  0.0027  0.7358
   59SAPC   H4X 4520   3.078   4.424   6.978 -1.8805  1.1267 -0.6352
   59SAPC   H4Y 4521   3.079   4.265   6.902 -1.6100  0.6718  2.2269
   59SAPC   C35 4522   3.068   4.429   6.757  0.1674  0.3198  0.1519
   59SAPC   H5X 4523   3.101   4.534   6.760 -2.2533  1.1357  0.7812
   59SAPC   H5Y 4524   2.958   4.443   6.756  0.2566  1.0470 -1.6462
   59SAPC   C36 4525   3.120   4.359   6.634 -0.0512  0.6763  0.5730
   59SAPC   H6X 4526   3.099   4.250   6.629  0.9840  0.5203 -0.7419
   59SAPC   H6Y 4527   3.229   4.376   6.626 -0.1107  0.7368 -0.1391
   59SAPC   C37 4528   3.089   4.429   6.497 -1.0407 -0.4077 -0.2813
   59SAPC   H7X 4529   3.112   4.536   6.515 -1.8932 -0.5133  1.7061
   59SAPC   H7Y 4530   2.986   4.403   6.465 -0.7637 -0.2764 -1.3122
   59SAPC   C38 4531   3.182   4.376   6.382  0.8809 -0.5111 -0.0375
   59SAPC   H8X 4532   3.182   4.265   6.389  1.7603 -0.5040  0.2622
   59SAPC   H8Y 4533   3.281   4.411   6.418  0.4641 -0.3384  0.9572
   59SAPC   C39 4534   3.149   4.417   6.239 -0.4098 -0.3898 -0.0581
   59SAPC   H9X 4535   3.127   4.525   6.227 -0.2960 -0.4346 -0.6929
   59SAPC   H9Y 4536   3.066   4.351   6.205  0.6487 -1.0753 -1.3845
   59SAPC  C310 4537   3.253   4.408   6.128 -0.5954 -0.9247 -0.2327
   59SAPC  H10X 4538   3.265   4.303   6.094  0.5304 -0.7311 -0.4756
   59SAPC  H10Y 4539   3.353   4.446   6.157 -0.4128 -0.8500 -0.9520
   59SAPC  C311 4540   3.204   4.478   5.994  0.0447 -0.3706  0.3115
   59SAPC  H11X 4541   3.189   4.585   6.022  1.8151 -0.1798  0.6154
   59SAPC  H11Y 4542   3.108   4.425   5.976  0.8822 -2.1348  0.8375
   59SAPC  C312 4543   3.292   4.449   5.871  0.1811  0.1359  0.3474
   59SAPC  H12X 4544   3.304   4.340   5.853 -1.0748  0.0072  0.2306
   59SAPC  H12Y 4545   3.387   4.505   5.885  0.3957  0.2543 -1.3682
   59SAPC  C313 4546   3.235   4.518   5.742 -0.3532  0.4292  0.5809
   59SAPC  H13X 4547   3.154   4.585   5.779 -0.3700 -0.2845  1.9094
   59SAPC  H13Y 4548   3.178   4.450   5.675 -0.5161 -0.4358  1.5758
   59SAPC  C314 4549   3.351   4.601   5.664 -0.0020  0.0066  0.0810
   59SAPC  H14X 4550   3.419   4.533   5.608  0.7276  0.9871 -0.2405
   59SAPC  H14Y 4551   3.414   4.665   5.728 -0.5985 -2.5224  3.4539
   59SAPC  C315 4552   3.293   4.698   5.557  0.1124  0.0549  0.5330
   59SAPC  H15X 4553   3.215   4.752   5.615 -2.4298 -2.0320 -0.7374
   59SAPC  H15Y 4554   3.252   4.635   5.475 -0.3165  1.3079 -0.2609
   59SAPC  C316 4555   3.404   4.779   5.499 -0.0371 -0.2736  0.2703
   59SAPC  H16X 4556   3.450   4.839   5.580  3.5503 -0.2688 -1.5276
   59SAPC  H16Y 4557   3.356   4.856   5.435  0.8233  0.3322  0.3416
   59SAPC  C317 4558   3.507   4.706   5.413 -0.1229 -0.6150  0.8406
   59SAPC  H17X 4559   3.456   4.646   5.335 -0.6773  1.6882 -0.6854
   59SAPC  H17Y 4560   3.553   4.635   5.486 -0.3567 -1.4162  0.2181
   59SAPC  C318 4561   3.597   4.813   5.350 -0.3816 -0.2892 -0.4187
   59SAPC  H18X 4562   3.539   4.871   5.276 -2.5175 -0.5532  0.9784
   59SAPC  H18Y 4563   3.681   4.766   5.294 -1.4095 -0.9535 -1.4260
   59SAPC  H18Z 4564   3.645   4.883   5.423  2.7618 -0.0456 -2.4901
   60SAPC     N 4565   0.645   6.218   7.927  0.4221 -0.9368  0.6865
   60SAPC   C12 4566   0.690   6.325   7.818  0.3228 -0.1898  0.0501
   60SAPC  H12A 4567   0.798   6.334   7.821  0.2530  0.7654  2.1945
   60SAPC  H12B 4568   0.653   6.422   7.849  1.5629  0.1548  0.4978
   60SAPC   C13 4569   0.707   6.243   8.063 -0.0433 -0.0081 -0.1177
   60SAPC  H13A 4570   0.659   6.189   8.144 -0.4140 -0.1765 -0.4488
   60SAPC  H13B 4571   0.814   6.229   8.067 -0.2144 -2.8762 -2.4244
   60SAPC  H13C 4572   0.686   6.346   8.087 -1.0287 -0.0531 -0.7241
   60SAPC   C14 4573   0.496   6.223   7.941 -0.3172 -0.1046 -0.1554
   60SAPC  H14A 4574   0.462   6.159   8.021 -1.6907 -1.7480 -1.9548
   60SAPC  H14B 4575   0.451   6.315   7.975 -1.0698 -0.2703 -0.6658
   60SAPC  H14C 4576   0.440   6.178   7.861 -0.9451  0.2260  0.0890
   60SAPC   C15 4577   0.681   6.080   7.881 -0.4008 -0.1059  0.2930
   60SAPC  H15A 4578   0.622   6.048   7.796  0.7556  1.2450 -1.0697
   60SAPC  H15B 4579   0.785   6.068   7.854 -0.7279  0.9752 -1.6355
   60SAPC  H15C 4580   0.662   6.020   7.969 -1.9206 -0.7085 -0.4194
   60SAPC   C11 4581   0.643   6.303   7.672 -0.3021  1.0870  0.1390
   60SAPC  H11A 4582   0.690   6.389   7.619  0.4674  1.1312  0.8599
   60SAPC  H11B 4583   0.534   6.318   7.660 -0.0943  1.7093 -1.2034
   60SAPC     P 4584   0.848   6.155   7.592  0.1071 -0.0467  0.1040
   60SAPC   O13 4585   0.924   6.208   7.706  0.4771 -0.3719 -0.1276
   60SAPC   O14 4586   0.866   6.010   7.557  0.0183 -0.4692  0.0196
   60SAPC   O12 4587   0.692   6.178   7.621  0.2592  0.6130 -0.1626
   60SAPC   O11 4588   0.878   6.249   7.467  0.2109  0.1407  0.5343
   60SAPC    C1 4589   0.800   6.273   7.349 -0.0145 -0.2048 -0.5103
   60SAPC    HA 4590   0.696   6.308   7.367 -0.1365 -1.1699  0.8019
   60SAPC    HB 4591   0.838   6.359   7.290  2.0174 -0.0710  0.8991
   60SAPC    C2 4592   0.789   6.146   7.259 -0.5481 -0.2953  0.2505
   60SAPC    HS 4593   0.757   6.067   7.330 -2.0028 -0.2343 -0.2994
   60SAPC   O21 4594   0.915   6.124   7.202 -0.6581 -0.7554  0.2380
   60SAPC   C21 4595   0.957   6.000   7.197 -0.9199  0.2141  0.1580
   60SAPC   O22 4596   0.900   5.898   7.238  0.3258 -0.2518 -0.0355
   60SAPC   C22 4597   1.096   6.009   7.141  1.0036 -0.2671  0.2127
   60SAPC   H2R 4598   1.165   6.000   7.228 -1.4182 -0.5476  2.1973
   60SAPC   H2S 4599   1.113   5.918   7.080 -1.1544 -0.7052  0.1842
   60SAPC    C3 4600   0.679   6.161   7.147  0.1482 -0.0361  0.4705
   60SAPC    HX 4601   0.578   6.173   7.192 -0.1066  1.6480 -0.4548
   60SAPC    HY 4602   0.663   6.060   7.103 -2.2689  0.0421  1.0364
   60SAPC   O31 4603   0.705   6.263   7.038  0.1182 -0.0228  0.5883
   60SAPC   C31 4604   0.634   6.374   7.058  0.1139  0.1249 -0.2005
   60SAPC   O32 4605   0.574   6.405   7.159 -0.1189 -0.3734 -0.0058
   60SAPC   C32 4606   0.642   6.459   6.928 -0.4807  0.3468 -0.4371
   60SAPC   H2X 4607   0.613   6.397   6.841 -1.9249  1.5243 -0.8244
   60SAPC   H2Y 4608   0.748   6.493   6.919  0.5531 -2.2822  0.6579
   60SAPC   C23 4609   1.132   6.132   7.056 -0.4753  0.3073  0.7485
   60SAPC   H3R 4610   1.240   6.149   7.075  0.0596 -0.7158 -1.1211
   60SAPC   H3S 4611   1.083   6.228   7.084 -0.6560  0.6596 -0.6744
   60SAPC   C24 4612   1.124   6.101   6.908 -0.9785  0.5733 -0.3738
   60SAPC   H4R 4613   1.190   6.016   6.880 -3.4906 -1.1932 -1.3120
   60SAPC   H4S 4614   1.170   6.181   6.845 -0.0417  0.4594  0.1435
   60SAPC   C25 4615   0.980   6.078   6.882  0.3697  0.3043  0.0341
   60SAPC   H5R 4616   0.922   6.163   6.920  0.3020  1.5788 -2.7024
   60SAPC   C26 4617   0.928   5.984   6.798 -0.5439 -0.2663 -0.7585
   60SAPC   H6R 4618   0.820   5.963   6.792 -0.6414 -0.3021  0.7127
   60SAPC   C27 4619   1.009   5.875   6.736  0.4163 -0.0741 -0.1594
   60SAPC   H7R 4620   0.940   5.788   6.727 -0.3140  0.3741  0.9581
   60SAPC   H7S 4621   1.094   5.848   6.802 -0.3202 -1.3219  0.3181
   60SAPC   C28 4622   1.072   5.894   6.604  0.1424  0.2625  0.9929
   60SAPC   H8R 4623   1.172   5.940   6.610  0.8007 -0.9157 -0.5367
   60SAPC   C29 4624   1.018   5.861   6.485  1.2033  0.5963 -0.1515
   60SAPC   H9R 4625   1.077   5.866   6.392 -0.2006  3.4123 -1.0015
   60SAPC  C210 4626   0.871   5.815   6.460  0.1624 -0.0440 -0.0755
   60SAPC  H10R 4627   0.802   5.883   6.514  0.1251  0.8525 -1.2078
   60SAPC  H10S 4628   0.863   5.715   6.508 -0.3805 -0.1776 -0.4263
   60SAPC  C211 4629   0.836   5.820   6.311 -0.0582  0.1672  0.4280
   60SAPC  H11R 4630   0.920   5.859   6.251 -1.3336  1.8595 -0.3269
   60SAPC  C212 4631   0.712   5.784   6.266 -0.6244 -0.6243  0.1902
   60SAPC  H12R 4632   0.683   5.807   6.162 -1.0758  0.6017  0.5740
   60SAPC  C213 4633   0.592   5.737   6.346  0.5104 -0.9806  0.1661
   60SAPC  H13R 4634   0.611   5.777   6.448 -1.5930 -0.9002  0.5648
   60SAPC  H13S 4635   0.578   5.627   6.358 -1.7302 -0.5778  1.9052
   60SAPC  C214 4636   0.462   5.807   6.298  0.2921 -0.2723 -0.4634
   60SAPC  H14R 4637   0.441   5.903   6.346 -1.0396 -0.6074 -0.3443
   60SAPC  C215 4638   0.390   5.774   6.191  0.5831 -0.2686 -0.6417
   60SAPC  H15R 4639   0.306   5.841   6.168  0.0432  0.1425  2.2331
   60SAPC  C216 4640   0.406   5.640   6.123  0.1155 -0.2107 -0.2609
   60SAPC  H16R 4641   0.306   5.592   6.121 -0.2319  0.4587  0.6274
   60SAPC  H16S 4642   0.458   5.566   6.187  0.6518  1.0902  0.8584
   60SAPC  C217 4643   0.488   5.645   5.993  0.0214  0.0192  1.1922
   60SAPC  H17R 4644   0.593   5.680   6.001  1.4354 -3.3938 -0.5284
   60SAPC  H17S 4645   0.445   5.719   5.921  0.0314 -0.5826  0.5552
   60SAPC  C218 4646   0.496   5.510   5.916  0.0611 -0.9252 -0.3956
   60SAPC  H18R 4647   0.400   5.478   5.872 -0.9190  0.4531  0.6681
   60SAPC  H18S 4648   0.542   5.437   5.987 -0.8889  0.6564  1.9621
   60SAPC  C219 4649   0.594   5.519   5.798 -0.5296  0.9450  0.4830
   60SAPC  H19R 4650   0.701   5.519   5.828 -0.5645 -2.9250  1.1408
   60SAPC  H19S 4651   0.577   5.620   5.754  0.7384  1.2287  0.6247
   60SAPC  C220 4652   0.591   5.405   5.699 -0.3604  0.1026 -0.5478
   60SAPC  H20R 4653   0.681   5.406   5.634 -0.2630 -1.4240 -0.4744
   60SAPC  H20S 4654   0.496   5.417   5.642 -0.9850 -3.2702 -0.4638
   60SAPC  H20T 4655   0.588   5.307   5.752 -0.1809  0.6697  0.5318
   60SAPC   C33 4656   0.561   6.591   6.938  0.2618 -0.2572  0.0668
   60SAPC   H3X 4657   0.570   6.637   7.039 -0.2369 -0.7498  0.3417
   60SAPC   H3Y 4658   0.453   6.565   6.929 -0.5925  3.2563 -1.1750
   60SAPC   C34 4659   0.608   6.704   6.851 -0.8784  0.1220  0.3127
   60SAPC   H4X 4660   0.719   6.699   6.849 -0.8591  0.0617  1.0198
   60SAPC   H4Y 4661   0.596   6.801   6.905  1.4314 -0.8737  2.8369
   60SAPC   C35 4662   0.560   6.701   6.709  0.0012 -0.2304 -0.1214
   60SAPC   H5X 4663   0.627   6.637   6.648 -1.7216 -2.3093  0.0372
   60SAPC   H5Y 4664   0.558   6.809   6.682 -0.2288  0.8271  3.5297
   60SAPC   C36 4665   0.417   6.646   6.673  0.1263 -0.3615 -0.2554
   60SAPC   H6X 4666   0.341   6.682   6.746 -1.0855 -1.7100 -0.7802
   60SAPC   H6Y 4667   0.421   6.538   6.700 -3.3293 -0.6518 -0.4249
   60SAPC   C37 4668   0.368   6.687   6.538  0.1264 -0.3499  0.0396
   60SAPC   H7X 4669   0.349   6.796   6.530 -1.5277 -0.5347  0.9849
   60SAPC   H7Y 4670   0.269   6.648   6.506 -0.7141  2.2476 -0.8287
   60SAPC   C38 4671   0.470   6.639   6.428 -0.0952  0.4580  0.3769
   60SAPC   H8X 4672   0.478   6.528   6.433 -2.0527  0.3004  1.0620
   60SAPC   H8Y 4673   0.565   6.693   6.446 -0.3296  1.1484 -0.4052
   60SAPC   C39 4674   0.410   6.671   6.288  0.9697  0.2304  0.6169
   60SAPC   H9X 4675   0.351   6.766   6.287 -1.4496 -1.1891  0.4235
   60SAPC   H9Y 4676   0.338   6.591   6.261  0.3026  0.9582  0.1717
   60SAPC  C310 4677   0.515   6.675   6.175  0.1268  0.1450 -0.2071
   60SAPC  H10X 4678   0.590   6.594   6.186  1.4533  1.3312 -0.1234
   60SAPC  H10Y 4679   0.565   6.775   6.170 -0.4978  0.5233  0.8852
   60SAPC  C311 4680   0.456   6.656   6.032  0.4571 -0.0259  0.0064
   60SAPC  H11X 4681   0.378   6.726   5.996 -0.6474 -0.1796  1.9862
   60SAPC  H11Y 4682   0.414   6.553   6.028  0.1420  0.1183 -3.7615
   60SAPC  C312 4683   0.555   6.658   5.917 -0.0176  0.8906  0.0211
   60SAPC  H12X 4684   0.635   6.589   5.950 -2.3782 -1.7675  0.5175
   60SAPC  H12Y 4685   0.599   6.758   5.898 -0.1880  1.4792  2.3812
   60SAPC  C313 4686   0.493   6.612   5.780 -0.7022  0.3788  0.4553
   60SAPC  H13X 4687   0.508   6.692   5.705  0.3993  0.6302  0.9263
   60SAPC  H13Y 4688   0.385   6.590   5.797 -0.7448 -0.9990 -1.3503
   60SAPC  C314 4689   0.566   6.477   5.737  0.0976 -0.2514  0.1115
   60SAPC  H14X 4690   0.504   6.409   5.675 -0.0982  0.1323 -0.1225
   60SAPC  H14Y 4691   0.588   6.418   5.828 -1.2192 -0.0414  0.5870
   60SAPC  C315 4692   0.691   6.526   5.668  0.2435  0.0219 -0.3744
   60SAPC  H15X 4693   0.779   6.463   5.692  1.6671  1.4724 -1.5730
   60SAPC  H15Y 4694   0.714   6.627   5.709 -0.0231  0.0448 -0.2806
   60SAPC  C316 4695   0.672   6.539   5.515 -0.2323  0.7103  0.5964
   60SAPC  H16X 4696   0.742   6.613   5.469 -2.0277  1.7294 -0.6212
   60SAPC  H16Y 4697   0.578   6.588   5.483  0.4377  1.2408 -0.6107
   60SAPC  C317 4698   0.687   6.401   5.451  0.2293  0.6923 -0.2125
   60SAPC  H17X 4699   0.623   6.329   5.506  0.3544  1.0672  0.4388
   60SAPC  H17Y 4700   0.794   6.374   5.459  0.4784  1.8683  0.6589
   60SAPC  C318 4701   0.642   6.384   5.302 -0.2384 -0.6776 -0.4565
   60SAPC  H18X 4702   0.691   6.466   5.245  0.2026 -0.5895  0.0369
   60SAPC  H18Y 4703   0.534   6.390   5.280 -0.8867 -0.0970  2.5249
   60SAPC  H18Z 4704   0.678   6.289   5.257  1.5666  1.0747 -2.9761
   61SAPC     N 4705   5.204   3.743   8.186  0.4487  0.1595 -0.2302
   61SAPC   C12 4706   5.165   3.764   8.044 -0.3938  0.3152  0.3033
   61SAPC  H12A 4707   5.163   3.871   8.030  0.8837  0.4467  0.9911
   61SAPC  H12B 4708   5.076   3.713   8.010  1.0089 -1.2815 -1.1978
   61SAPC   C13 4709   5.341   3.801   8.215  0.5519  0.1671 -0.5703
   61SAPC  H13A 4710   5.362   3.775   8.318  2.4201  1.4505 -0.5756
   61SAPC  H13B 4711   5.420   3.764   8.150 -0.5676 -0.8326 -1.4092
   61SAPC  H13C 4712   5.329   3.907   8.205  0.2630  0.1552 -0.3389
   61SAPC   C14 4713   5.099   3.808   8.262  0.2444 -0.0157 -0.2912
   61SAPC  H14A 4714   5.128   3.811   8.366 -1.9640 -0.4384  0.3904
   61SAPC  H14B 4715   5.078   3.908   8.229 -1.7851 -0.1752  0.3853
   61SAPC  H14C 4716   5.008   3.750   8.257  0.9523 -1.0736 -2.7106
   61SAPC   C15 4717   5.204   3.591   8.208  0.4025 -0.1580 -0.3349
   61SAPC  H15A 4718   5.112   3.548   8.171  0.9712 -3.1234  1.2923
   61SAPC  H15B 4719   5.287   3.559   8.148  0.2166  0.3274 -0.8536
   61SAPC  H15C 4720   5.208   3.567   8.314 -0.6899  0.9432 -0.0166
   61SAPC   C11 4721   5.278   3.729   7.940 -0.8214 -0.1000 -0.2730
   61SAPC  H11A 4722   5.244   3.705   7.837 -0.1801 -0.2509 -0.4577
   61SAPC  H11B 4723   5.323   3.636   7.982  1.9910  0.8869 -0.8560
   61SAPC     P 4724   5.373   3.961   7.879 -0.4185 -0.2938 -0.0078
   61SAPC   O13 4725   5.242   4.011   7.917  0.8599  0.6784 -0.6006
   61SAPC   O14 4726   5.494   4.036   7.916  0.0317 -1.0950  0.2549
   61SAPC   O12 4727   5.390   3.822   7.945  0.6304 -0.0762  0.3717
   61SAPC   O11 4728   5.376   3.924   7.725  0.4256  0.4282  0.1300
   61SAPC    C1 4729   5.475   3.833   7.670  0.0575  0.2449  0.2291
   61SAPC    HA 4730   5.577   3.846   7.712  2.0334 -2.4677 -3.1872
   61SAPC    HB 4731   5.440   3.731   7.697  1.7819  0.0459  1.9242
   61SAPC    C2 4732   5.470   3.839   7.512  0.2026  0.6540  0.1540
   61SAPC    HS 4733   5.485   3.736   7.474  0.6367  0.6942  0.2072
   61SAPC   O21 4734   5.578   3.920   7.465  0.4395  0.0371 -0.3555
   61SAPC   C21 4735   5.658   3.881   7.364  0.0107  0.0911 -0.3265
   61SAPC   O22 4736   5.650   3.771   7.313 -0.4952  0.2039  0.6376
   61SAPC   C22 4737   5.755   3.986   7.324  0.0455  0.7304 -0.1656
   61SAPC   H2R 4738   5.697   4.070   7.281 -0.6112  0.9195  1.0432
   61SAPC   H2S 4739   5.808   4.025   7.414  1.3927  0.3682 -0.7787
   61SAPC    C3 4740   5.332   3.886   7.456  0.1488 -0.2702 -0.1681
   61SAPC    HX 4741   5.318   3.989   7.494  0.4794 -0.6642  1.0833
   61SAPC    HY 4742   5.253   3.826   7.507  1.8296 -0.5439  2.2392
   61SAPC   O31 4743   5.322   3.879   7.309 -0.2572 -0.7545  0.4924
   61SAPC   C31 4744   5.270   3.765   7.262 -0.0182 -0.3612  0.6276
   61SAPC   O32 4745   5.216   3.678   7.335 -0.7485 -0.1493  0.2919
   61SAPC   C32 4746   5.280   3.759   7.107 -0.3165 -0.4633  0.1259
   61SAPC   H2X 4747   5.262   3.654   7.077  1.2443 -0.5475 -0.5958
   61SAPC   H2Y 4748   5.380   3.793   7.072  0.4668  1.6775  3.8173
   61SAPC   C23 4749   5.858   3.937   7.224 -0.1501 -0.5056  0.3870
   61SAPC   H3R 4750   5.809   3.914   7.127 -0.7045 -0.8114  0.7351
   61SAPC   H3S 4751   5.896   3.838   7.257  0.5382  0.1910  1.7893
   61SAPC   C24 4752   5.969   4.038   7.208 -0.3952  0.3338  0.3672
   61SAPC   H4R 4753   6.002   4.046   7.314 -2.2651 -0.6209  1.0796
   61SAPC   H4S 4754   5.930   4.134   7.168 -2.2446 -1.6352 -3.0308
   61SAPC   C25 4755   6.080   3.984   7.121 -0.2913  0.0907 -0.3575
   61SAPC   H5R 4756   6.152   3.916   7.170  0.1572  1.6390  1.2511
   61SAPC   C26 4757   6.091   4.024   6.990 -0.1327 -0.4128  0.0572
   61SAPC   H6R 4758   6.162   3.978   6.920 -0.7065 -1.1062 -0.0802
   61SAPC   C27 4759   6.007   4.128   6.917 -0.3228  0.6155 -0.2826
   61SAPC   H7R 4760   5.901   4.129   6.952 -1.3219 -0.8637 -2.9830
   61SAPC   H7S 4761   5.991   4.088   6.815 -3.6953  0.5416  0.1563
   61SAPC   C28 4762   6.071   4.261   6.920 -0.0399 -0.1953 -0.4449
   61SAPC   H8R 4763   6.105   4.299   7.017  0.5942  1.0949 -1.1536
   61SAPC   C29 4764   6.073   4.356   6.828 -0.5386 -0.5880  0.0092
   61SAPC   H9R 4765   6.128   4.446   6.857 -0.3699 -0.6005 -0.2745
   61SAPC  C210 4766   6.009   4.356   6.691 -0.5969  0.0693  0.7443
   61SAPC  H10R 4767   5.914   4.413   6.693  1.1581  3.2674 -0.0084
   61SAPC  H10S 4768   5.990   4.254   6.650  1.2002  0.0775 -0.2098
   61SAPC  C211 4769   6.102   4.427   6.596  0.2571  0.7379  0.3132
   61SAPC  H11R 4770   6.208   4.420   6.622  0.7742 -0.1612 -1.7775
   61SAPC  C212 4771   6.075   4.491   6.481  0.8549  0.2008 -1.0245
   61SAPC  H12R 4772   6.160   4.535   6.427  0.2655  1.3263 -1.0585
   61SAPC  C213 4773   5.938   4.528   6.425 -0.5211  0.1667  0.4815
   61SAPC  H13R 4774   5.863   4.483   6.494 -1.5372 -1.6818 -1.7139
   61SAPC  H13S 4775   5.934   4.468   6.331  1.3874 -1.2976  1.2690
   61SAPC  C214 4776   5.917   4.677   6.422 -0.0644  0.6558 -0.0802
   61SAPC  H14R 4777   5.953   4.726   6.514 -1.5931  1.5623  0.0627
   61SAPC  C215 4778   5.839   4.739   6.337  0.3025 -0.5061 -0.4716
   61SAPC  H15R 4779   5.840   4.849   6.345  0.3097 -0.6256  3.6019
   61SAPC  C216 4780   5.768   4.689   6.208  0.4520 -0.2733 -0.4681
   61SAPC  H16R 4781   5.661   4.671   6.231  1.0461 -1.4145  1.6145
   61SAPC  H16S 4782   5.811   4.593   6.175  0.0883 -0.0638 -1.6117
   61SAPC  C217 4783   5.768   4.796   6.095  0.8969 -0.1083  0.0542
   61SAPC  H17R 4784   5.872   4.827   6.071 -0.0662  2.3540 -1.3081
   61SAPC  H17S 4785   5.725   4.892   6.129 -1.5637 -0.0766 -2.7234
   61SAPC  C218 4786   5.700   4.751   5.960  0.9692 -0.3365  0.7203
   61SAPC  H18R 4787   5.592   4.740   5.984  0.9710 -1.2276  0.3700
   61SAPC  H18S 4788   5.745   4.653   5.934  1.1385  0.2296 -1.2396
   61SAPC  C219 4789   5.703   4.858   5.845  0.6536 -0.4348  0.4324
   61SAPC  H19R 4790   5.678   4.818   5.745  1.5953 -0.8956  0.3712
   61SAPC  H19S 4791   5.805   4.899   5.829  0.5167  0.1229  0.9276
   61SAPC  C220 4792   5.607   4.974   5.876 -0.2695  0.0383 -0.3676
   61SAPC  H20R 4793   5.639   5.029   5.967 -2.1706 -0.7108  0.8176
   61SAPC  H20S 4794   5.504   4.938   5.900 -0.7015  2.2007  1.3084
   61SAPC  H20T 4795   5.610   5.051   5.796  1.1466 -0.8451 -1.2108
   61SAPC   C33 4796   5.177   3.858   7.057  0.7098  0.1850  0.2640
   61SAPC   H3X 4797   5.159   3.952   7.112 -2.7560 -0.5313  0.6029
   61SAPC   H3Y 4798   5.077   3.810   7.058  0.2950  1.0565  1.3398
   61SAPC   C34 4799   5.211   3.907   6.911  0.3477 -0.1271  0.0077
   61SAPC   H4X 4800   5.321   3.920   6.919  0.4036 -1.4732  2.0227
   61SAPC   H4Y 4801   5.160   4.004   6.889 -0.2176 -0.0430  1.6195
   61SAPC   C35 4802   5.186   3.804   6.803 -0.5058  0.3045  0.5363
   61SAPC   H5X 4803   5.084   3.813   6.760  0.0882 -1.0067 -1.2638
   61SAPC   H5Y 4804   5.198   3.701   6.842  1.4316  0.0095 -0.7441
   61SAPC   C36 4805   5.294   3.821   6.698  0.4706 -0.2512  0.7233
   61SAPC   H6X 4806   5.390   3.804   6.752  1.2054  1.4492  0.0265
   61SAPC   H6Y 4807   5.300   3.927   6.665  2.3243 -0.7055 -0.6163
   61SAPC   C37 4808   5.277   3.730   6.570  0.4479 -0.2144 -0.0227
   61SAPC   H7X 4809   5.170   3.709   6.551  0.4344  0.1194 -0.3472
   61SAPC   H7Y 4810   5.329   3.632   6.583 -0.6699 -0.5491  2.4583
   61SAPC   C38 4811   5.335   3.793   6.438 -0.4630 -0.5209  0.4398
   61SAPC   H8X 4812   5.435   3.842   6.438  0.2393 -1.8613  2.2106
   61SAPC   H8Y 4813   5.263   3.873   6.410 -1.3794 -1.1545  0.9289
   61SAPC   C39 4814   5.343   3.685   6.331  0.2166 -0.0188  0.8009
   61SAPC   H9X 4815   5.251   3.624   6.318 -0.6877  1.1352  1.5501
   61SAPC   H9Y 4816   5.413   3.606   6.364 -0.6199 -0.1580  2.3189
   61SAPC  C310 4817   5.372   3.736   6.190  0.1585 -0.5363 -0.6703
   61SAPC  H10X 4818   5.465   3.796   6.200 -1.8992  2.8429 -0.2302
   61SAPC  H10Y 4819   5.304   3.820   6.164  0.4126 -0.2093 -0.2987
   61SAPC  C311 4820   5.377   3.624   6.084  0.1227 -0.0286 -0.2907
   61SAPC  H11X 4821   5.289   3.557   6.094  1.4754 -1.9500 -0.8339
   61SAPC  H11Y 4822   5.464   3.558   6.103 -1.1603 -1.3788  1.0965
   61SAPC  C312 4823   5.386   3.690   5.947  0.1105 -0.0297  0.4766
   61SAPC  H12X 4824   5.465   3.766   5.960  1.6135 -1.2918 -0.8152
   61SAPC  H12Y 4825   5.287   3.737   5.927 -0.8995 -1.4117  1.8940
   61SAPC  C313 4826   5.415   3.589   5.842 -0.1771  0.1626  0.4045
   61SAPC  H13X 4827   5.340   3.506   5.844  0.3046 -0.3022 -0.2411
   61SAPC  H13Y 4828   5.511   3.536   5.858  0.1793  1.0071  1.1434
   61SAPC  C314 4829   5.423   3.654   5.703 -0.4163  0.0635 -0.4065
   61SAPC  H14X 4830   5.505   3.729   5.693  0.9803 -1.3526  0.0018
   61SAPC  H14Y 4831   5.323   3.700   5.687 -0.0364  0.7878 -0.7596
   61SAPC  C315 4832   5.447   3.556   5.585 -0.2630  0.0109  0.0217
   61SAPC  H15X 4833   5.365   3.482   5.574  0.6935 -0.7594 -2.5932
   61SAPC  H15Y 4834   5.547   3.509   5.599 -0.0619  0.9616  2.1519
   61SAPC  C316 4835   5.455   3.636   5.452  0.0983 -0.0106  0.6472
   61SAPC  H16X 4836   5.539   3.708   5.465  1.6228 -1.8449  1.5412
   61SAPC  H16Y 4837   5.367   3.704   5.451  1.1156  1.3677 -1.2203
   61SAPC  C317 4838   5.472   3.558   5.317  0.2069  0.4633  0.2223
   61SAPC  H17X 4839   5.448   3.635   5.240  0.7579  1.7403  1.2936
   61SAPC  H17Y 4840   5.394   3.479   5.317 -0.7659  1.3466 -1.6228
   61SAPC  C318 4841   5.607   3.499   5.288 -0.4052 -0.1464  0.3293
   61SAPC  H18X 4842   5.686   3.577   5.292 -0.0827 -0.1900 -2.7934
   61SAPC  H18Y 4843   5.620   3.443   5.193 -2.5875 -1.8976  0.9655
   61SAPC  H18Z 4844   5.639   3.422   5.362  0.4512 -0.8939 -0.7813
   62SAPC     N 4845   2.337   2.363   8.246  0.4997  0.1151 -0.0615
   62SAPC   C12 4846   2.444   2.317   8.158  0.3692 -0.6518  0.0498
   62SAPC  H12A 4847   2.480   2.221   8.191  0.1922 -1.0683 -0.9448
   62SAPC  H12B 4848   2.521   2.391   8.176 -0.9823  0.8117 -0.0263
   62SAPC   C13 4849   2.219   2.264   8.258 -0.4347 -0.7552  0.3104
   62SAPC  H13A 4850   2.247   2.163   8.284 -0.2976 -1.6292 -2.8637
   62SAPC  H13B 4851   2.148   2.297   8.332 -1.2301 -2.3806  0.3136
   62SAPC  H13C 4852   2.163   2.261   8.166 -1.5247 -1.0503  0.9662
   62SAPC   C14 4853   2.390   2.399   8.384  0.0901  0.1260  0.6918
   62SAPC  H14A 4854   2.448   2.320   8.429  0.7269  0.5688  0.6606
   62SAPC  H14B 4855   2.458   2.482   8.373  1.0479 -0.7336 -0.0778
   62SAPC  H14C 4856   2.306   2.437   8.440 -0.4164  0.1997 -0.0892
   62SAPC   C15 4857   2.273   2.490   8.199  0.1503  1.0162  0.2563
   62SAPC  H15A 4858   2.212   2.533   8.277 -2.2936 -1.6709  0.0015
   62SAPC  H15B 4859   2.355   2.557   8.177  2.5457 -2.2194 -1.5803
   62SAPC  H15C 4860   2.213   2.470   8.112 -0.8003 -0.6801  1.2390
   62SAPC   C11 4861   2.422   2.320   8.007 -0.1717  0.3471  0.0106
   62SAPC  H11A 4862   2.521   2.324   7.956 -0.7699  0.4528 -1.1531
   62SAPC  H11B 4863   2.377   2.418   7.981 -1.5054 -0.9089 -2.8532
   62SAPC     P 4864   2.353   2.068   7.976 -0.1054  0.2266  0.0010
   62SAPC   O13 4865   2.471   2.033   8.063  0.3118 -0.0608 -0.1129
   62SAPC   O14 4866   2.223   2.012   8.011  0.3900 -0.0195  0.1848
   62SAPC   O12 4867   2.328   2.222   7.970 -0.0594 -0.4531  0.0560
   62SAPC   O11 4868   2.398   2.021   7.834 -0.4674  0.0184 -0.0495
   62SAPC    C1 4869   2.461   2.111   7.741  0.3080  0.0286  0.1184
   62SAPC    HA 4870   2.551   2.169   7.773  0.9761  0.7560 -2.8100
   62SAPC    HB 4871   2.494   2.049   7.656 -0.9770  2.3907 -2.2660
   62SAPC    C2 4872   2.362   2.205   7.664 -0.3508 -0.3117 -0.4497
   62SAPC    HS 4873   2.323   2.277   7.739  1.1841  1.7536 -1.5671
   62SAPC   O21 4874   2.249   2.138   7.615 -0.4405 -0.0510 -0.4811
   62SAPC   C21 4875   2.128   2.198   7.605 -0.1750 -0.8800 -0.3197
   62SAPC   O22 4876   2.095   2.303   7.657 -0.5188 -0.1658  0.2229
   62SAPC   C22 4877   2.045   2.108   7.512 -0.1532 -0.0004 -0.8906
   62SAPC   H2R 4878   2.046   2.014   7.571 -0.8229  1.2685  1.2729
   62SAPC   H2S 4879   1.935   2.125   7.512 -0.9039 -3.9585 -1.1255
   62SAPC    C3 4880   2.441   2.291   7.549  0.6181  0.1043 -0.2025
   62SAPC    HX 4881   2.480   2.211   7.483 -2.1254 -1.9609  0.4687
   62SAPC    HY 4882   2.540   2.337   7.569  0.6176  0.6373 -1.3822
   62SAPC   O31 4883   2.353   2.379   7.472 -0.0961  0.5328  0.6380
   62SAPC   C31 4884   2.325   2.492   7.541 -0.0519 -0.2304 -0.2822
   62SAPC   O32 4885   2.361   2.515   7.653 -0.4978  0.7407 -0.1056
   62SAPC   C32 4886   2.226   2.580   7.470  0.0601 -0.3004  0.2427
   62SAPC   H2X 4887   2.133   2.573   7.531 -0.3756 -0.4927 -0.4388
   62SAPC   H2Y 4888   2.207   2.540   7.368 -0.0591  1.7745 -0.5963
   62SAPC   C23 4889   2.103   2.079   7.369 -0.3014  0.4270 -0.5401
   62SAPC   H3R 4890   2.054   1.988   7.328 -0.6399  1.4165 -2.4435
   62SAPC   H3S 4891   2.211   2.065   7.392 -0.3464  2.2095  1.0099
   62SAPC   C24 4892   2.081   2.195   7.275  0.1547  0.0944  0.6408
   62SAPC   H4R 4893   2.130   2.288   7.309  0.5261 -0.0426  0.4849
   62SAPC   H4S 4894   1.974   2.218   7.292  0.5982  1.5486  1.5925
   62SAPC   C25 4895   2.094   2.170   7.125 -0.2579 -0.1877  0.0232
   62SAPC   H5R 4896   2.011   2.115   7.078 -1.0698  0.3708  0.7783
   62SAPC   C26 4897   2.198   2.203   7.042 -0.1472  0.2255 -0.6699
   62SAPC   H6R 4898   2.204   2.187   6.933  1.7686  1.9090 -0.8803
   62SAPC   C27 4899   2.327   2.262   7.093  0.6669 -0.4280  0.9172
   62SAPC   H7R 4900   2.398   2.176   7.100 -0.5129 -1.6480 -1.1298
   62SAPC   H7S 4901   2.313   2.295   7.198 -3.4442  0.8275  0.1527
   62SAPC   C28 4902   2.398   2.369   7.019 -0.1573 -0.2473  0.1832
   62SAPC   H8R 4903   2.353   2.469   7.032  1.1160  0.3585  0.1086
   62SAPC   C29 4904   2.515   2.362   6.952  0.0626 -0.2639 -0.2847
   62SAPC   H9R 4905   2.554   2.456   6.911  0.4708 -0.3000  0.0137
   62SAPC  C210 4906   2.598   2.233   6.938 -0.2011 -0.7471 -0.1541
   62SAPC  H10R 4907   2.533   2.143   6.932  0.8388 -1.4306 -2.0273
   62SAPC  H10S 4908   2.656   2.221   7.032 -0.6891 -0.7240  0.1565
   62SAPC  C211 4909   2.683   2.228   6.815 -0.2875 -0.2199 -0.3047
   62SAPC  H11R 4910   2.788   2.254   6.836 -0.0313 -2.5717  1.9893
   62SAPC  C212 4911   2.650   2.174   6.689 -0.2706  0.1059 -0.0160
   62SAPC  H12R 4912   2.728   2.170   6.611 -0.1593  0.0844  0.0947
   62SAPC  C213 4913   2.515   2.114   6.666 -0.2096  0.1707  0.2129
   62SAPC  H13R 4914   2.459   2.209   6.650  0.5611  0.2364 -2.6742
   62SAPC  H13S 4915   2.458   2.070   6.750 -0.5005 -1.0137 -0.5868
   62SAPC  C214 4916   2.491   2.027   6.545 -0.2741  0.2240  0.6697
   62SAPC  H14R 4917   2.489   1.919   6.561  1.6658  0.2324  1.3238
   62SAPC  C215 4918   2.497   2.058   6.415  0.7792 -0.4348  0.2216
   62SAPC  H15R 4919   2.485   1.983   6.336  1.0282  1.6003 -1.8746
   62SAPC  C216 4920   2.506   2.190   6.358  0.6727 -0.0346  0.0584
   62SAPC  H16R 4921   2.609   2.228   6.374  0.2695  1.0043  0.3348
   62SAPC  H16S 4922   2.435   2.257   6.411  0.9577 -0.1675  0.6167
   62SAPC  C217 4923   2.487   2.197   6.203 -0.0856  0.4764 -0.0730
   62SAPC  H17R 4924   2.530   2.297   6.184 -1.2432  1.0358  0.2008
   62SAPC  H17S 4925   2.377   2.193   6.186  0.0344  0.6497 -0.9340
   62SAPC  C218 4926   2.568   2.101   6.116 -0.5412 -0.4159 -0.3226
   62SAPC  H18R 4927   2.535   1.998   6.142 -1.4195 -0.2189 -0.6048
   62SAPC  H18S 4928   2.672   2.113   6.153 -0.1040 -3.2690 -0.3858
   62SAPC  C219 4929   2.565   2.139   5.967  0.4922 -0.3002  0.1009
   62SAPC  H19R 4930   2.593   2.244   5.942  0.9288 -0.4231  0.0626
   62SAPC  H19S 4931   2.463   2.144   5.924  0.1609  1.3347  0.9975
   62SAPC  C220 4932   2.657   2.043   5.884 -0.4693 -0.1983  0.0113
   62SAPC  H20R 4933   2.655   2.068   5.776 -1.5782 -1.1169 -0.1983
   62SAPC  H20S 4934   2.622   1.939   5.896 -0.8289 -0.4350 -2.5791
   62SAPC  H20T 4935   2.758   2.060   5.928 -0.4143  0.1629 -0.2554
   62SAPC   C33 4936   2.277   2.724   7.465  0.1173 -0.2332 -0.4399
   62SAPC   H3X 4937   2.315   2.747   7.567 -1.3283 -1.0141  0.3008
   62SAPC   H3Y 4938   2.194   2.794   7.441 -1.3043 -1.6021  0.2718
   62SAPC   C34 4939   2.393   2.744   7.361  0.0055  0.0248  0.5800
   62SAPC   H4X 4940   2.475   2.672   7.382 -0.4760 -1.2909 -1.7198
   62SAPC   H4Y 4941   2.434   2.843   7.393 -1.2281  1.0794 -0.9603
   62SAPC   C35 4942   2.345   2.730   7.218 -0.1826  0.1152  0.1447
   62SAPC   H5X 4943   2.264   2.807   7.214  0.6448  0.9569 -1.8599
   62SAPC   H5Y 4944   2.307   2.626   7.209  1.8512 -0.7641  1.2161
   62SAPC   C36 4945   2.451   2.782   7.117  0.2107  0.0867  0.1018
   62SAPC   H6X 4946   2.531   2.705   7.125 -0.1379 -0.0832  2.8731
   62SAPC   H6Y 4947   2.484   2.878   7.160  1.6870 -0.5797  0.5046
   62SAPC   C37 4948   2.388   2.791   6.975  0.1940 -0.7679 -0.2357
   62SAPC   H7X 4949   2.301   2.721   6.969 -0.7316 -0.1239  3.5316
   62SAPC   H7Y 4950   2.471   2.773   6.904  0.0233  0.1136 -0.6799
   62SAPC   C38 4951   2.348   2.936   6.935  0.1042  0.2762 -0.0960
   62SAPC   H8X 4952   2.440   2.997   6.918  0.4882 -0.0516  0.7467
   62SAPC   H8Y 4953   2.293   2.980   7.020  1.6163  0.1187  1.0057
   62SAPC   C39 4954   2.255   2.946   6.813  0.1352  0.2003  0.6603
   62SAPC   H9X 4955   2.199   3.042   6.808 -2.6754 -1.3298  0.5990
   62SAPC   H9Y 4956   2.186   2.860   6.822  0.0470 -0.2258 -2.7674
   62SAPC  C310 4957   2.332   2.926   6.677 -0.5957 -0.0849 -0.0216
   62SAPC  H10X 4958   2.407   2.844   6.692 -1.3036 -0.8971 -0.7687
   62SAPC  H10Y 4959   2.381   3.023   6.656 -0.4686 -0.2278 -0.4025
   62SAPC  C311 4960   2.242   2.892   6.558  0.6873 -0.4006 -0.1038
   62SAPC  H11X 4961   2.143   2.942   6.573  0.7504  0.1094 -1.2829
   62SAPC  H11Y 4962   2.226   2.783   6.568 -1.6445 -0.2186 -1.2617
   62SAPC  C312 4963   2.306   2.941   6.434  0.6758 -0.1728 -0.1700
   62SAPC  H12X 4964   2.400   2.887   6.409  1.9211  2.6612 -2.1486
   62SAPC  H12Y 4965   2.337   3.046   6.450  1.0806 -0.3361  0.1254
   62SAPC  C313 4966   2.209   2.952   6.318 -0.7714  0.0211  0.1951
   62SAPC  H13X 4967   2.135   3.025   6.357  1.2637  2.7552 -0.7200
   62SAPC  H13Y 4968   2.176   2.850   6.289  0.7286  0.0284 -1.7788
   62SAPC  C314 4969   2.277   3.017   6.193  0.0564  0.2743 -0.3363
   62SAPC  H14X 4970   2.362   2.952   6.165  0.6354 -0.0415  1.9304
   62SAPC  H14Y 4971   2.309   3.113   6.238 -2.1736  0.1648  1.7406
   62SAPC  C315 4972   2.176   3.022   6.086 -0.1054 -0.3692  0.0607
   62SAPC  H15X 4973   2.078   3.055   6.124 -0.6415 -0.1677 -1.4491
   62SAPC  H15Y 4974   2.156   2.920   6.046 -1.4139 -0.4210  0.8122
   62SAPC  C316 4975   2.227   3.107   5.974  0.1886  0.0913  0.6729
   62SAPC  H16X 4976   2.326   3.093   5.926 -0.8562  2.1677 -2.3913
   62SAPC  H16Y 4977   2.234   3.203   6.030 -0.3162 -0.2242  1.2980
   62SAPC  C317 4978   2.114   3.123   5.871 -0.1764  0.0531 -0.2846
   62SAPC  H17X 4979   2.015   3.156   5.908  0.0477 -0.9807  1.3196
   62SAPC  H17Y 4980   2.087   3.021   5.837  1.0809 -0.6801  0.8192
   62SAPC  C318 4981   2.159   3.221   5.764 -0.2973 -0.0134  0.6444
   62SAPC  H18X 4982   2.232   3.176   5.694  2.1694  1.8202  1.8905
   62SAPC  H18Y 4983   2.204   3.314   5.804  3.0483 -1.4014  0.4620
   62SAPC  H18Z 4984   2.065   3.243   5.709  1.3834  0.3634 -2.2498
   63SAPC     N 4985   1.066   5.292   7.554  0.1141  0.0916  0.2903
   63SAPC   C12 4986   1.102   5.293   7.402 -0.2583  0.0419  0.1154
   63SAPC  H12A 4987   1.139   5.393   7.385  0.4835 -0.4097 -1.0600
   63SAPC  H12B 4988   1.016   5.273   7.340 -0.9923  2.3911  0.3073
   63SAPC   C13 4989   1.185   5.318   7.638 -0.3660 -0.3293 -0.1418
   63SAPC  H13A 4990   1.245   5.229   7.645 -0.7881 -0.5535  0.7692
   63SAPC  H13B 4991   1.256   5.391   7.602 -0.2094  0.4681  1.6850
   63SAPC  H13C 4992   1.150   5.329   7.739  0.6001 -2.3627  0.4611
   63SAPC   C14 4993   0.965   5.406   7.564  0.0244 -0.3880  0.5103
   63SAPC  H14A 4994   0.935   5.426   7.666 -1.6402  2.0046 -0.3536
   63SAPC  H14B 4995   1.006   5.494   7.518 -0.1666 -0.3774  0.3637
   63SAPC  H14C 4996   0.872   5.382   7.515 -0.1426 -0.3514  0.8035
   63SAPC   C15 4997   1.002   5.163   7.594 -0.6488  0.1200 -0.0140
   63SAPC  H15A 4998   1.075   5.087   7.573  0.8135  1.8261 -1.4872
   63SAPC  H15B 4999   0.968   5.167   7.696  0.9134 -0.4026  0.5565
   63SAPC  H15C 5000   0.915   5.146   7.532 -0.8964  2.3585 -0.3517
   63SAPC   C11 5001   1.202   5.182   7.355  0.3295  0.2420  0.1007
   63SAPC  H11A 5002   1.282   5.157   7.428  2.0155 -1.2177 -2.0984
   63SAPC  H11B 5003   1.259   5.239   7.278 -1.4442  1.3862 -0.4347
   63SAPC     P 5004   1.147   4.928   7.374  0.0342  0.4510  0.3238
   63SAPC   O13 5005   1.184   4.818   7.286  0.0601  0.0583 -0.5600
   63SAPC   O14 5006   1.229   4.944   7.497 -0.0128 -0.5131  0.3447
   63SAPC   O12 5007   1.127   5.070   7.299  0.2720  0.0087 -0.0956
   63SAPC   O11 5008   1.000   4.896   7.419  0.3709 -0.4361  0.0730
   63SAPC    C1 5009   0.884   4.928   7.346  0.0496  0.2913 -0.1039
   63SAPC    HA 5010   0.797   4.929   7.415  0.2290 -2.7781  0.3083
   63SAPC    HB 5011   0.896   5.032   7.307  0.2411  0.7087  1.0449
   63SAPC    C2 5012   0.855   4.829   7.219 -0.4896 -0.5909  0.3551
   63SAPC    HS 5013   0.890   4.728   7.252  0.3569 -0.1638  0.8013
   63SAPC   O21 5014   0.939   4.868   7.105  0.4870  0.2703  0.4361
   63SAPC   C21 5015   1.015   4.772   7.051  0.5712  0.7781  0.5304
   63SAPC   O22 5016   0.990   4.653   7.066  0.1578  0.4289  0.2802
   63SAPC   C22 5017   1.133   4.831   6.981  0.4448  0.1558  0.5268
   63SAPC   H2R 5018   1.118   4.941   6.993 -0.6152  0.1006 -0.1865
   63SAPC   H2S 5019   1.228   4.805   7.033  0.2504 -0.6007  0.5052
   63SAPC    C3 5020   0.706   4.823   7.181  0.0449 -0.2058  0.1944
   63SAPC    HX 5021   0.686   4.917   7.125 -1.2600 -0.4910  0.1351
   63SAPC    HY 5022   0.648   4.817   7.276  0.6844 -0.2721  0.5855
   63SAPC   O31 5023   0.667   4.722   7.086  0.9094  0.3933 -0.1496
   63SAPC   C31 5024   0.671   4.593   7.130 -0.0822 -0.0617 -0.5141
   63SAPC   O32 5025   0.690   4.562   7.247 -0.2271  0.2219 -0.3751
   63SAPC   C32 5026   0.636   4.487   7.020  0.5908 -0.1960  0.0272
   63SAPC   H2X 5027   0.642   4.390   7.072 -1.7405 -0.2426  0.3009
   63SAPC   H2Y 5028   0.705   4.489   6.933 -1.7922  0.2993 -1.9872
   63SAPC   C23 5029   1.135   4.795   6.827 -0.1158  0.6129 -0.2398
   63SAPC   H3R 5030   1.155   4.689   6.797 -1.5142  0.5925 -1.1691
   63SAPC   H3S 5031   1.221   4.851   6.785  1.2145  0.7768  2.4882
   63SAPC   C24 5032   1.001   4.826   6.751  0.0662  0.2275  0.0574
   63SAPC   H4R 5033   1.027   4.849   6.645  2.5851  0.4334  0.6414
   63SAPC   H4S 5034   0.963   4.922   6.792 -1.2006 -0.5367  0.7332
   63SAPC   C25 5035   0.890   4.725   6.751  0.0298  0.7351 -1.1775
   63SAPC   H5R 5036   0.817   4.757   6.828  0.3257  1.1183 -1.0524
   63SAPC   C26 5037   0.882   4.618   6.670 -0.1784 -0.0400  0.6731
   63SAPC   H6R 5038   0.790   4.558   6.659  0.5094 -0.6273 -3.2128
   63SAPC   C27 5039   0.977   4.584   6.558 -0.0317  0.7638 -0.1078
   63SAPC   H7R 5040   1.012   4.481   6.580 -1.2867 -0.4748 -3.3867
   63SAPC   H7S 5041   1.066   4.649   6.571 -2.1081  3.4919  1.7708
   63SAPC   C28 5042   0.909   4.588   6.424  0.0753  0.6345  0.1653
   63SAPC   H8R 5043   0.801   4.571   6.432 -0.1023  1.5894 -0.0582
   63SAPC   C29 5044   0.972   4.582   6.306 -0.0107 -0.2715  0.0561
   63SAPC   H9R 5045   0.911   4.588   6.214 -2.1547 -0.2763  1.4202
   63SAPC  C210 5046   1.119   4.579   6.276 -0.7489 -0.1860 -0.3488
   63SAPC  H10R 5047   1.132   4.513   6.187  3.8515 -2.5293  1.7140
   63SAPC  H10S 5048   1.175   4.530   6.358  0.3927  2.0729  0.3088
   63SAPC  C211 5049   1.178   4.719   6.257 -0.2196  0.8023 -0.0675
   63SAPC  H11R 5050   1.199   4.778   6.348 -0.4086  0.0361  0.4798
   63SAPC  C212 5051   1.192   4.785   6.140 -0.2997  0.0624 -0.3387
   63SAPC  H12R 5052   1.218   4.891   6.150 -1.1332  0.1711  0.8939
   63SAPC  C213 5053   1.189   4.742   5.999  0.2679  0.0127  0.0160
   63SAPC  H13R 5054   1.229   4.638   6.003 -3.4110 -1.5149  1.5500
   63SAPC  H13S 5055   1.260   4.806   5.943 -1.6894  2.3191  0.0428
   63SAPC  C214 5056   1.056   4.735   5.925  0.0924 -0.2247 -0.0730
   63SAPC  H14R 5057   0.961   4.777   5.962  0.0371  0.0192 -0.4849
   63SAPC  C215 5058   1.033   4.674   5.804  0.1991 -0.4790 -0.3529
   63SAPC  H15R 5059   0.937   4.689   5.752  1.1847  0.4585 -2.0129
   63SAPC  C216 5060   1.120   4.596   5.722 -0.0460  0.0709  0.1079
   63SAPC  H16R 5061   1.225   4.612   5.756 -1.5653  2.6684  4.3394
   63SAPC  H16S 5062   1.099   4.631   5.619 -1.1212  0.9876  0.6225
   63SAPC  C217 5063   1.084   4.449   5.705  0.3098  0.5306 -0.2051
   63SAPC  H17R 5064   1.131   4.397   5.619  0.7151  1.5001 -0.5881
   63SAPC  H17S 5065   0.977   4.439   5.678  0.6049 -0.9151 -0.9636
   63SAPC  C218 5066   1.092   4.373   5.836  0.4125 -0.3417  0.2784
   63SAPC  H18R 5067   1.042   4.419   5.924 -0.4133 -2.1198  0.7802
   63SAPC  H18S 5068   1.198   4.361   5.869  0.2950 -0.5100  0.5990
   63SAPC  C219 5069   1.025   4.235   5.832 -0.0080 -0.2813 -0.0968
   63SAPC  H19R 5070   0.930   4.245   5.776  0.1638  1.4997 -0.1294
   63SAPC  H19S 5071   0.999   4.190   5.931 -1.4485 -2.9695 -1.5763
   63SAPC  C220 5072   1.107   4.134   5.741  0.1406 -0.0640  0.1558
   63SAPC  H20R 5073   1.058   4.034   5.753  2.4204 -1.3141 -0.3302
   63SAPC  H20S 5074   1.214   4.138   5.771  0.4477  0.1318 -0.9249
   63SAPC  H20T 5075   1.094   4.172   5.638 -1.1175  0.6886  0.5620
   63SAPC   C33 5076   0.489   4.508   6.975 -0.2383 -0.0914 -0.2497
   63SAPC   H3X 5077   0.479   4.602   6.917  0.5925  0.3524  0.3095
   63SAPC   H3Y 5078   0.418   4.499   7.060  0.7405 -0.2096  0.5839
   63SAPC   C34 5079   0.443   4.395   6.885  0.6040  0.1832  0.5093
   63SAPC   H4X 5080   0.333   4.391   6.899  0.4071 -1.0578 -1.0762
   63SAPC   H4Y 5081   0.479   4.291   6.905 -1.3061 -1.0778 -1.9701
   63SAPC   C35 5082   0.463   4.413   6.730  0.1216 -0.1288  0.5639
   63SAPC   H5X 5083   0.572   4.396   6.720  0.4490  1.3159  1.4735
   63SAPC   H5Y 5084   0.446   4.518   6.697  1.4678 -0.1853 -0.4103
   63SAPC   C36 5085   0.372   4.330   6.644  0.1717  0.3734 -0.8014
   63SAPC   H6X 5086   0.267   4.368   6.641  0.4963  1.2604 -1.3247
   63SAPC   H6Y 5087   0.363   4.227   6.684  2.6021  0.7094  0.7804
   63SAPC   C37 5088   0.413   4.339   6.500 -0.4784  0.0905 -1.3038
   63SAPC   H7X 5089   0.511   4.287   6.485  0.7752  1.7653  0.6336
   63SAPC   H7Y 5090   0.434   4.445   6.476  0.3457  0.3397  0.3742
   63SAPC   C38 5091   0.309   4.289   6.401 -0.5836  0.2230  0.8009
   63SAPC   H8X 5092   0.207   4.323   6.429 -0.9077  0.7484 -0.8711
   63SAPC   H8Y 5093   0.308   4.178   6.408  1.3833  0.1317  0.2468
   63SAPC   C39 5094   0.362   4.313   6.263  0.7331 -0.0483  0.4548
   63SAPC   H9X 5095   0.463   4.268   6.259  2.2919  3.1477  1.1895
   63SAPC   H9Y 5096   0.376   4.420   6.238 -0.7132  0.0102 -0.1868
   63SAPC  C310 5097   0.264   4.251   6.162 -0.1176 -0.0824  0.1769
   63SAPC  H10X 5098   0.181   4.325   6.162  2.1132  2.5459  0.2513
   63SAPC  H10Y 5099   0.224   4.153   6.196 -0.1519  0.3885  1.5730
   63SAPC  C311 5100   0.326   4.234   6.024 -1.0157 -0.2582 -0.2831
   63SAPC  H11X 5101   0.407   4.158   6.019 -0.7544 -0.1725  1.8980
   63SAPC  H11Y 5102   0.380   4.328   5.996  1.2248 -1.4725 -0.2309
   63SAPC  C312 5103   0.215   4.210   5.918 -0.0533  0.4509 -0.9624
   63SAPC  H12X 5104   0.148   4.299   5.913 -1.4398 -0.4600  0.4054
   63SAPC  H12Y 5105   0.160   4.118   5.946  1.3334  0.0329  0.5338
   63SAPC  C313 5106   0.279   4.190   5.777  0.5419 -0.3831  0.1820
   63SAPC  H13X 5107   0.339   4.280   5.752 -2.7332  2.3140  1.3814
   63SAPC  H13Y 5108   0.201   4.185   5.699  3.5569 -0.1777 -3.0804
   63SAPC  C314 5109   0.357   4.064   5.769 -0.0518  0.6608 -1.5326
   63SAPC  H14X 5110   0.290   3.997   5.827  0.8654  1.5430  0.6627
   63SAPC  H14Y 5111   0.453   4.077   5.822 -0.6005  2.5667 -0.9318
   63SAPC  C315 5112   0.379   4.020   5.623  0.5158 -0.5946 -0.1411
   63SAPC  H15X 5113   0.445   4.089   5.567  1.6013 -0.8212  0.8153
   63SAPC  H15Y 5114   0.281   4.020   5.572  0.5339  0.2344 -0.1970
   63SAPC  C316 5115   0.432   3.878   5.623  0.5753 -0.8067 -0.2757
   63SAPC  H16X 5116   0.379   3.820   5.702 -0.2172  0.3792  0.0891
   63SAPC  H16Y 5117   0.542   3.880   5.640  1.0051 -2.2723 -2.4517
   63SAPC  C317 5118   0.417   3.797   5.488 -0.4628 -0.4876 -0.2949
   63SAPC  H17X 5119   0.466   3.858   5.410 -1.8901  0.9642 -0.0832
   63SAPC  H17Y 5120   0.310   3.799   5.461 -0.9618 -3.2769  1.0853
   63SAPC  C318 5121   0.462   3.657   5.485 -0.0399  0.2473  0.3050
   63SAPC  H18X 5122   0.570   3.651   5.510  0.0149 -0.2081 -0.0338
   63SAPC  H18Y 5123   0.467   3.608   5.385  1.3819 -0.7850  0.8413
   63SAPC  H18Z 5124   0.395   3.597   5.549  1.1631  0.3698  1.7284
   64SAPC     N 5125   2.932   0.418   8.061  0.0436 -0.3673  0.6157
   64SAPC   C12 5126   2.782   0.409   8.066  0.5979 -0.8730  0.0862
   64SAPC  H12A 5127   2.740   0.507   8.049  0.1443 -1.0250  0.2964
   64SAPC  H12B 5128   2.754   0.379   8.166 -0.2420  1.5271  0.6466
   64SAPC   C13 5129   2.993   0.284   8.080 -1.2335  0.2062  0.1461
   64SAPC  H13A 5130   2.965   0.245   8.176 -2.3933  0.1319 -0.2094
   64SAPC  H13B 5131   2.984   0.213   7.999  3.4804 -1.2543  0.6211
   64SAPC  H13C 5132   3.099   0.306   8.083 -1.2166  0.2424 -0.5450
   64SAPC   C14 5133   2.973   0.479   7.927 -0.3252 -0.2433 -1.0401
   64SAPC  H14A 5134   3.080   0.472   7.920 -0.1166 -0.6569  1.4494
   64SAPC  H14B 5135   2.925   0.423   7.849  0.8786 -0.7630 -1.4330
   64SAPC  H14C 5136   2.944   0.583   7.921  0.6452  0.2789  1.6210
   64SAPC   C15 5137   2.990   0.506   8.170 -0.0705  0.4090  0.4139
   64SAPC  H15A 5138   3.094   0.491   8.196  0.4408  0.5455 -1.3931
   64SAPC  H15B 5139   2.987   0.608   8.135  0.3629 -0.2529 -1.6897
   64SAPC  H15C 5140   2.928   0.495   8.258 -0.1351  1.7172  0.5549
   64SAPC   C11 5141   2.708   0.316   7.963 -0.7058  0.6682 -1.1617
   64SAPC  H11A 5142   2.599   0.328   7.979 -0.4302  0.4168  1.3443
   64SAPC  H11B 5143   2.740   0.213   7.991  3.3060  1.4081 -2.4055
   64SAPC     P 5144   2.717   0.232   7.716 -0.0776 -0.1213  0.1769
   64SAPC   O13 5145   2.830   0.129   7.707  0.0444  0.5555 -0.2066
   64SAPC   O14 5146   2.577   0.184   7.737  0.2878 -0.4395 -0.0647
   64SAPC   O12 5147   2.745   0.336   7.824 -0.0999 -0.1338 -0.9322
   64SAPC   O11 5148   2.743   0.327   7.591 -0.5088 -0.2485 -0.1301
   64SAPC    C1 5149   2.642   0.414   7.550 -0.0359 -0.9310 -0.5715
   64SAPC    HA 5150   2.566   0.440   7.627 -0.2577  2.9236 -1.8413
   64SAPC    HB 5151   2.682   0.516   7.531  0.3195 -0.2031  3.1955
   64SAPC    C2 5152   2.558   0.366   7.428  0.2250 -0.1174  0.3195
   64SAPC    HS 5153   2.487   0.289   7.465 -3.5532  2.5249 -0.8298
   64SAPC   O21 5154   2.647   0.314   7.328 -0.1383 -0.8541 -0.3826
   64SAPC   C21 5155   2.674   0.191   7.333  0.7171  0.3149 -0.4102
   64SAPC   O22 5156   2.629   0.113   7.411  0.5964  0.6775  0.3321
   64SAPC   C22 5157   2.778   0.151   7.212 -0.0231 -0.4221 -0.8363
   64SAPC   H2R 5158   2.870   0.115   7.261  1.0891  0.1789 -2.4011
   64SAPC   H2S 5159   2.736   0.068   7.151 -0.9256 -0.9716  0.4888
   64SAPC    C3 5160   2.465   0.475   7.365  0.2563 -0.7189  0.0069
   64SAPC    HX 5161   2.530   0.560   7.335 -0.3116 -0.3113 -0.0840
   64SAPC    HY 5162   2.385   0.504   7.437 -0.3631 -0.0154 -0.9518
   64SAPC   O31 5163   2.411   0.413   7.249  0.1783 -0.4390  0.2157
   64SAPC   C31 5164   2.329   0.497   7.189  0.4346 -0.3099  0.1995
   64SAPC   O32 5165   2.324   0.617   7.214  0.2059  0.1227 -0.1285
   64SAPC   C32 5166   2.252   0.428   7.072 -0.5891  0.6371 -0.8669
   64SAPC   H2X 5167   2.212   0.333   7.115 -0.6372  0.2907 -1.6486
   64SAPC   H2Y 5168   2.332   0.405   6.998 -2.3353 -0.4188 -2.5098
   64SAPC   C23 5169   2.807   0.269   7.109 -0.1197  0.2535  0.8704
   64SAPC   H3R 5170   2.894   0.229   7.053 -2.2508 -3.8700  0.1338
   64SAPC   H3S 5171   2.831   0.363   7.164 -0.5461  0.9275 -0.0709
   64SAPC   C24 5172   2.686   0.304   7.018  0.1151 -0.6547 -0.5353
   64SAPC   H4R 5173   2.610   0.353   7.083  0.2555 -0.8618 -0.2142
   64SAPC   H4S 5174   2.642   0.212   6.975 -3.6101  0.2495  0.9550
   64SAPC   C25 5175   2.727   0.397   6.911 -0.4866  0.3609  0.4695
   64SAPC   H5R 5176   2.704   0.504   6.923 -1.0989  0.2805  0.0889
   64SAPC   C26 5177   2.788   0.361   6.799  0.5514  0.7807 -0.2963
   64SAPC   H6R 5178   2.805   0.437   6.721  2.1131  1.4694  0.6569
   64SAPC   C27 5179   2.818   0.217   6.755  0.4984 -0.4393 -0.0683
   64SAPC   H7R 5180   2.738   0.170   6.694 -0.1175  0.8391 -0.2905
   64SAPC   H7S 5181   2.817   0.149   6.842 -0.3851  0.5649  0.7351
   64SAPC   C28 5182   2.947   0.208   6.689  0.2776  0.0810 -0.0978
   64SAPC   H8R 5183   3.025   0.230   6.763  0.5171 -1.2391  0.0667
   64SAPC   C29 5184   2.975   0.201   6.565 -0.5494  0.0835  0.1754
   64SAPC   H9R 5185   3.082   0.182   6.546 -0.1317 -0.7043  2.8645
   64SAPC  C210 5186   2.877   0.190   6.451  0.1037 -0.3498 -0.6922
   64SAPC  H10R 5187   2.799   0.269   6.448 -1.3898 -1.8077 -1.6540
   64SAPC  H10S 5188   2.823   0.094   6.463  0.0011 -0.0293  1.8072
   64SAPC  C211 5189   2.952   0.186   6.325 -0.0414 -0.0539  0.4092
   64SAPC  H11R 5190   3.058   0.158   6.329  0.2456  0.7426 -0.8504
   64SAPC  C212 5191   2.903   0.205   6.201 -0.4387  0.5752  0.3513
   64SAPC  H12R 5192   2.976   0.183   6.122  0.2046 -2.5410  1.6485
   64SAPC  C213 5193   2.766   0.266   6.172 -0.3290  0.1050  0.5163
   64SAPC  H13R 5194   2.697   0.254   6.258 -0.2374 -1.7705  0.3641
   64SAPC  H13S 5195   2.718   0.204   6.093  0.7165 -0.8776  0.6284
   64SAPC  C214 5196   2.763   0.409   6.133  0.0650 -0.3599  0.2003
   64SAPC  H14R 5197   2.775   0.482   6.215  0.7332 -0.8010  0.4975
   64SAPC  C215 5198   2.756   0.458   6.005 -0.7773  0.2449 -0.3299
   64SAPC  H15R 5199   2.773   0.564   5.984 -1.8228  0.3553 -0.6628
   64SAPC  C216 5200   2.735   0.363   5.882 -0.4239 -0.8094  0.3847
   64SAPC  H16R 5201   2.780   0.263   5.900  0.3863 -0.6141 -0.4474
   64SAPC  H16S 5202   2.789   0.415   5.800 -0.2637 -1.4153  0.1043
   64SAPC  C217 5203   2.582   0.344   5.851 -0.4318 -0.2429  0.4275
   64SAPC  H17R 5204   2.524   0.329   5.945 -3.2699  2.9531 -0.6028
   64SAPC  H17S 5205   2.578   0.263   5.775  3.6948  0.6072 -0.9853
   64SAPC  C218 5206   2.520   0.470   5.793  0.3532  0.7800  0.5069
   64SAPC  H18R 5207   2.584   0.512   5.713  0.8440 -1.3749 -0.2853
   64SAPC  H18S 5208   2.519   0.554   5.866  0.4510  1.4284 -0.2297
   64SAPC  C219 5209   2.377   0.453   5.757 -0.2215  0.0011 -0.4521
   64SAPC  H19R 5210   2.321   0.433   5.851 -2.9949  2.1236 -1.4995
   64SAPC  H19S 5211   2.362   0.369   5.686  0.7672 -1.2233  0.7485
   64SAPC  C220 5212   2.326   0.587   5.698 -0.2923  0.3443 -0.0332
   64SAPC  H20R 5213   2.227   0.577   5.647 -0.7508  1.6566  0.5585
   64SAPC  H20S 5214   2.395   0.625   5.620 -0.9839 -0.3188 -1.0008
   64SAPC  H20T 5215   2.310   0.658   5.782 -1.9699  1.2961 -1.0965
   64SAPC   C33 5216   2.129   0.508   7.022 -0.3698 -0.5047  0.1838
   64SAPC   H3X 5217   2.159   0.603   6.974  1.4103 -1.2704 -0.3078
   64SAPC   H3Y 5218   2.067   0.540   7.109 -2.0866 -1.4408 -0.6602
   64SAPC   C34 5219   2.039   0.427   6.926 -0.1583  0.1606 -0.0198
   64SAPC   H4X 5220   2.019   0.341   6.993 -0.1398  1.3010  1.5172
   64SAPC   H4Y 5221   2.099   0.410   6.834  0.1906 -2.4032  0.6066
   64SAPC   C35 5222   1.909   0.495   6.902 -0.4507 -0.3324  1.0781
   64SAPC   H5X 5223   1.866   0.521   7.001  0.4891 -0.1090  1.4373
   64SAPC   H5Y 5224   1.839   0.439   6.837 -0.0501 -0.2023  0.5274
   64SAPC   C36 5225   1.924   0.631   6.835  0.2125 -0.8082 -0.7320
   64SAPC   H6X 5226   2.000   0.695   6.883  2.2248 -1.1919 -3.1663
   64SAPC   H6Y 5227   1.826   0.684   6.837  1.1479  1.0070  1.8121
   64SAPC   C37 5228   1.990   0.623   6.699  0.2428  0.7320  0.7719
   64SAPC   H7X 5229   1.950   0.536   6.642  2.0699 -0.1339  0.7318
   64SAPC   H7Y 5230   2.093   0.591   6.724 -0.3936 -0.4798  1.9991
   64SAPC   C38 5231   1.987   0.749   6.612 -0.5797  0.2152  0.2653
   64SAPC   H8X 5232   2.042   0.830   6.665 -1.6930  1.1215  0.0842
   64SAPC   H8Y 5233   1.879   0.775   6.609 -0.7371 -0.4314  0.1175
   64SAPC   C39 5234   2.043   0.726   6.472 -0.3062 -0.8140  1.0117
   64SAPC   H9X 5235   1.964   0.676   6.411 -0.1991  0.6580 -0.3938
   64SAPC   H9Y 5236   2.137   0.666   6.475 -0.9784 -2.0130 -0.4559
   64SAPC  C310 5237   2.054   0.866   6.396  0.0240 -0.3417  1.0423
   64SAPC  H10X 5238   2.135   0.921   6.448  0.1678 -1.7959  2.4468
   64SAPC  H10Y 5239   1.958   0.922   6.401  0.1962 -0.0887  1.6758
   64SAPC  C311 5240   2.093   0.853   6.248 -0.1921  0.5045 -0.1964
   64SAPC  H11X 5241   2.012   0.808   6.185 -0.3826  1.3945 -0.6043
   64SAPC  H11Y 5242   2.183   0.788   6.244 -1.4255 -1.3228  0.3843
   64SAPC  C312 5243   2.132   0.984   6.175  0.1469  0.6713  0.2822
   64SAPC  H12X 5244   2.211   1.033   6.236  2.0396 -0.6675 -0.9751
   64SAPC  H12Y 5245   2.048   1.057   6.174 -0.5578 -0.0641  2.4873
   64SAPC  C313 5246   2.181   0.961   6.026  0.3119 -0.1119  0.7469
   64SAPC  H13X 5247   2.094   0.909   5.980  0.6612  0.5180 -0.6790
   64SAPC  H13Y 5248   2.268   0.892   6.037  1.3876  0.6578 -2.0872
   64SAPC  C314 5249   2.222   1.090   5.968  1.0059  0.7047  0.8415
   64SAPC  H14X 5250   2.297   1.145   6.028  1.1889  0.5637  0.7451
   64SAPC  H14Y 5251   2.132   1.154   5.972  0.2428 -0.0336 -2.1418
   64SAPC  C315 5252   2.253   1.081   5.818 -0.7900 -0.3636 -0.0127
   64SAPC  H15X 5253   2.265   1.185   5.781 -0.5964 -0.5285 -0.4163
   64SAPC  H15Y 5254   2.183   1.021   5.757 -3.4004  1.2401  1.2285
   64SAPC  C316 5255   2.400   1.025   5.803  0.9827 -0.2962 -0.8676
   64SAPC  H16X 5256   2.398   0.920   5.837 -2.2566 -0.7291 -2.0125
   64SAPC  H16Y 5257   2.474   1.085   5.862  2.0667 -1.4607 -1.0086
   64SAPC  C317 5258   2.438   1.037   5.658 -0.4022  0.6116 -0.1569
   64SAPC  H17X 5259   2.465   1.142   5.633  0.2329  0.3536 -0.5819
   64SAPC  H17Y 5260   2.348   1.001   5.604 -0.4195 -0.5590  0.6028
   64SAPC  C318 5261   2.542   0.935   5.610 -0.3947 -0.3225 -0.1980
   64SAPC  H18X 5262   2.645   0.949   5.650 -1.2797  1.2984  1.6902
   64SAPC  H18Y 5263   2.556   0.949   5.501  0.8459  2.3557  0.2195
   64SAPC  H18Z 5264   2.499   0.835   5.634 -1.3561  0.7806  3.3245
   65SAPC     N 5265   5.773   2.754   2.894  0.5876 -0.0012  0.1125
   65SAPC   C12 5266   5.661   2.712   2.981  0.1174  0.5846  0.1606
   65SAPC  H12A 5267   5.652   2.604   2.982  0.7971  0.5172 -0.2405
   65SAPC  H12B 5268   5.571   2.743   2.930 -1.1110 -2.0312  0.5748
   65SAPC   C13 5269   5.775   2.664   2.773  0.4476 -0.6263  0.2490
   65SAPC  H13A 5270   5.787   2.560   2.799  0.4140 -0.8266 -0.5009
   65SAPC  H13B 5271   5.684   2.677   2.715  1.7248  0.3906 -1.6309
   65SAPC  H13C 5272   5.861   2.695   2.716 -0.2808  1.1602  0.0564
   65SAPC   C14 5273   5.758   2.895   2.856 -0.4461 -0.4935  0.5447
   65SAPC  H14A 5274   5.846   2.931   2.804  0.0727 -1.2728  0.8538
   65SAPC  H14B 5275   5.671   2.910   2.795 -1.9061  0.7959  2.7917
   65SAPC  H14C 5276   5.732   2.962   2.936 -0.4734  1.5363 -1.0973
   65SAPC   C15 5277   5.902   2.741   2.978 -0.1525 -0.1089 -0.4634
   65SAPC  H15A 5278   5.918   2.639   3.009 -1.2669  0.0720  0.7878
   65SAPC  H15B 5279   5.985   2.779   2.920  0.8671  0.8897  1.5506
   65SAPC  H15C 5280   5.887   2.791   3.073  1.5902 -1.2487  0.4639
   65SAPC   C11 5281   5.646   2.765   3.121  0.0480  0.4940  0.1047
   65SAPC  H11A 5282   5.741   2.750   3.177  0.2766  1.1315 -0.1026
   65SAPC  H11B 5283   5.573   2.700   3.175 -0.9904  2.2812  0.9458
   65SAPC     P 5284   5.667   3.012   3.190  0.2642  0.3020  0.3128
   65SAPC   O13 5285   5.779   3.041   3.100  0.1883 -0.5729 -0.2115
   65SAPC   O14 5286   5.571   3.121   3.217  0.1933  0.2221 -0.3387
   65SAPC   O12 5287   5.591   2.891   3.132  0.5305 -0.3495  0.0703
   65SAPC   O11 5288   5.714   2.962   3.330  0.1342  0.1100 -0.1241
   65SAPC    C1 5289   5.806   3.039   3.407 -0.6079  0.5964 -0.1161
   65SAPC    HA 5290   5.901   3.068   3.356  0.6442 -1.4823  0.8955
   65SAPC    HB 5291   5.764   3.136   3.442  0.8471  1.0851  0.3742
   65SAPC    C2 5292   5.835   2.964   3.536  0.0997 -0.9134 -0.3429
   65SAPC    HS 5293   5.866   2.862   3.505 -1.8253 -0.8147 -2.9638
   65SAPC   O21 5294   5.713   2.962   3.608 -0.4126  0.3136  0.0064
   65SAPC   C21 5295   5.687   2.853   3.690  0.0240  0.0552  0.2343
   65SAPC   O22 5296   5.743   2.743   3.677  0.2167 -0.5384  0.3718
   65SAPC   C22 5297   5.559   2.873   3.774  0.0078  0.2984 -0.6586
   65SAPC   H2R 5298   5.537   2.982   3.773  1.1448  0.5372 -1.5070
   65SAPC   H2S 5299   5.470   2.826   3.727 -0.8004  2.3335 -1.2608
   65SAPC    C3 5300   5.939   3.037   3.632  0.1190 -0.3079  0.2378
   65SAPC    HX 5301   5.901   3.141   3.648 -0.7876 -0.3506 -1.4206
   65SAPC    HY 5302   6.035   3.029   3.576  0.3099 -3.4103  0.8422
   65SAPC   O31 5303   5.953   2.970   3.765 -0.2211 -0.5024 -0.4138
   65SAPC   C31 5304   6.055   2.883   3.768 -0.3640  0.4548  0.0511
   65SAPC   O32 5305   6.133   2.860   3.680  0.5481  0.2280  0.2341
   65SAPC   C32 5306   6.068   2.838   3.908 -0.4253  0.5316 -0.4491
   65SAPC   H2X 5307   6.136   2.750   3.906 -0.3143  0.6229 -0.7059
   65SAPC   H2Y 5308   5.973   2.797   3.949  0.1601  2.4922  3.3348
   65SAPC   C23 5309   5.566   2.826   3.926  0.2872 -0.7148  0.0953
   65SAPC   H3R 5310   5.628   2.734   3.919  2.6597  0.8014  0.4154
   65SAPC   H3S 5311   5.464   2.813   3.969 -0.8534  2.4096 -1.3104
   65SAPC   C24 5312   5.647   2.932   4.011 -0.3013  0.6426  0.5790
   65SAPC   H4R 5313   5.572   3.000   4.057 -0.4836 -0.0261  1.2783
   65SAPC   H4S 5314   5.716   2.996   3.952 -0.7558 -0.5710 -1.3931
   65SAPC   C25 5315   5.743   2.858   4.106 -0.5647 -0.1413  0.7673
   65SAPC   H5R 5316   5.826   2.805   4.057 -2.0383 -2.1350  0.2739
   65SAPC   C26 5317   5.740   2.845   4.241 -0.1034 -1.4724 -0.5463
   65SAPC   H6R 5318   5.826   2.804   4.295  0.1128 -2.0047 -1.2689
   65SAPC   C27 5319   5.625   2.895   4.325  0.1436  0.0984  0.2462
   65SAPC   H7R 5320   5.595   2.815   4.396 -2.6963  0.9938  0.1767
   65SAPC   H7S 5321   5.549   2.898   4.244  1.8064 -0.6656 -1.4033
   65SAPC   C28 5322   5.631   3.029   4.391 -0.0059 -0.1694 -0.2049
   65SAPC   H8R 5323   5.646   3.117   4.326  1.8988 -0.7440 -0.6216
   65SAPC   C29 5324   5.612   3.050   4.521 -0.7030  0.8543  0.3171
   65SAPC   H9R 5325   5.617   3.158   4.537  0.6976  0.9665 -0.7866
   65SAPC  C210 5326   5.592   2.954   4.630 -0.0625 -0.1942  0.4258
   65SAPC  H10R 5327   5.652   2.990   4.716  1.9911 -0.5162 -0.7796
   65SAPC  H10S 5328   5.637   2.858   4.596 -1.6789 -1.1053  0.7856
   65SAPC  C211 5329   5.449   2.927   4.666  0.4049 -0.7578  0.3646
   65SAPC  H11R 5330   5.392   2.875   4.588 -0.9252 -1.7173  1.9038
   65SAPC  C212 5331   5.384   2.962   4.776 -0.3991 -0.0852 -0.5343
   65SAPC  H12R 5332   5.280   2.932   4.794 -0.2319  0.0776  0.8166
   65SAPC  C213 5333   5.439   3.035   4.898  0.2701 -0.0348  0.4299
   65SAPC  H13R 5334   5.371   3.121   4.916  1.7083  0.8306  1.9867
   65SAPC  H13S 5335   5.540   3.073   4.873  1.3124 -1.6037  2.1035
   65SAPC  C214 5336   5.447   2.948   5.023  0.2563  0.9191  0.1038
   65SAPC  H14R 5337   5.359   2.883   5.033  0.3434  0.2239 -2.7597
   65SAPC  C215 5338   5.549   2.953   5.112 -0.0430 -0.4269 -0.2182
   65SAPC  H15R 5339   5.525   2.891   5.200 -2.3745 -0.9178 -1.1053
   65SAPC  C216 5340   5.672   3.042   5.109  0.1276 -0.8201 -0.1206
   65SAPC  H16R 5341   5.681   3.089   5.209 -0.3356 -0.4742 -0.2403
   65SAPC  H16S 5342   5.654   3.122   5.034 -1.5821  2.2009  3.2030
   65SAPC  C217 5343   5.800   2.969   5.071  0.4561  0.0094 -0.2071
   65SAPC  H17R 5344   5.807   2.874   5.128 -0.0026  0.6749  0.9908
   65SAPC  H17S 5345   5.879   3.047   5.083  0.5942  0.1520 -1.7961
   65SAPC  C218 5346   5.800   2.941   4.922 -0.1918  0.4005 -0.2355
   65SAPC  H18R 5347   5.784   3.043   4.882  1.2603  0.0278 -1.9202
   65SAPC  H18S 5348   5.714   2.879   4.891  0.6665  0.0983 -2.1694
   65SAPC  C219 5349   5.924   2.896   4.856 -0.4583 -0.3036 -0.0753
   65SAPC  H19R 5350   5.950   2.793   4.887  0.9689  0.0906  0.1311
   65SAPC  H19S 5351   6.006   2.963   4.891  3.3728 -4.8011  0.5631
   65SAPC  C220 5352   5.924   2.895   4.706 -0.8251  0.2767 -0.1809
   65SAPC  H20R 5353   5.831   2.856   4.660 -0.8346  1.6569 -1.4199
   65SAPC  H20S 5354   6.014   2.842   4.669  1.6758  2.4054  2.3806
   65SAPC  H20T 5355   5.925   3.001   4.672 -1.0693  0.4558  0.3478
   65SAPC   C33 5356   6.129   2.939   4.011 -0.2382 -0.1070 -0.4374
   65SAPC   H3X 5357   6.047   3.008   4.039  1.5829  1.3990  1.5060
   65SAPC   H3Y 5358   6.213   2.996   3.965  1.7108 -0.7679  2.1066
   65SAPC   C34 5359   6.179   2.879   4.144 -0.0791  0.3444 -0.4273
   65SAPC   H4X 5360   6.271   2.824   4.114 -0.3259 -0.3053 -0.0007
   65SAPC   H4Y 5361   6.116   2.796   4.180  0.3245  0.4368  0.5168
   65SAPC   C35 5362   6.217   2.986   4.246  0.2056 -0.0167 -0.0655
   65SAPC   H5X 5363   6.130   3.055   4.242 -0.6500 -1.0328  0.4409
   65SAPC   H5Y 5364   6.305   3.038   4.202 -1.9453  1.6844 -2.6307
   65SAPC   C36 5365   6.231   2.940   4.387 -0.0632  0.1527 -0.1875
   65SAPC   H6X 5366   6.296   2.851   4.404 -1.1804 -0.5462  0.5627
   65SAPC   H6Y 5367   6.125   2.920   4.413  0.5397 -1.0985  1.4641
   65SAPC   C37 5368   6.275   3.065   4.464 -0.6820 -0.2626 -0.4656
   65SAPC   H7X 5369   6.237   3.163   4.428  0.7374  1.3858  2.2206
   65SAPC   H7Y 5370   6.384   3.082   4.454 -0.6179  2.4740  3.0927
   65SAPC   C38 5371   6.265   3.059   4.616  0.2122 -0.3571  0.2227
   65SAPC   H8X 5372   6.313   2.963   4.646  0.9940 -0.0415 -0.0123
   65SAPC   H8Y 5373   6.158   3.066   4.645  0.5525  1.4388  1.1460
   65SAPC   C39 5374   6.335   3.171   4.677 -0.0443  0.1551  0.5028
   65SAPC   H9X 5375   6.290   3.266   4.642  1.6350  1.6212  2.1700
   65SAPC   H9Y 5376   6.441   3.174   4.644 -0.7525  2.4994 -1.8707
   65SAPC  C310 5377   6.335   3.175   4.829  0.5522  0.0353 -0.6007
   65SAPC  H10X 5378   6.395   3.261   4.866  1.0176 -1.1623  1.6278
   65SAPC  H10Y 5379   6.379   3.079   4.863 -0.9367 -1.0021 -1.4550
   65SAPC  C311 5380   6.199   3.191   4.906  0.3089  0.2988 -0.7276
   65SAPC  H11X 5381   6.224   3.205   5.013 -2.5912 -0.9153  0.2081
   65SAPC  H11Y 5382   6.146   3.094   4.912 -0.0615  0.5961  2.1449
   65SAPC  C312 5383   6.120   3.311   4.859  0.1577 -0.1825  0.2603
   65SAPC  H12X 5384   6.119   3.311   4.748  1.8836 -0.8125  0.2183
   65SAPC  H12Y 5385   6.177   3.399   4.896  0.5372 -0.9212  1.4828
   65SAPC  C313 5386   5.978   3.317   4.904  0.5068  0.1756 -0.1836
   65SAPC  H13X 5387   5.983   3.336   5.014  0.4893 -3.3066  0.5463
   65SAPC  H13Y 5388   5.922   3.223   4.888  1.8827 -0.6786 -0.1529
   65SAPC  C314 5389   5.905   3.431   4.834 -0.4784 -0.7825 -0.6232
   65SAPC  H14X 5390   5.888   3.393   4.731 -3.5327  0.1169 -0.5391
   65SAPC  H14Y 5391   5.969   3.521   4.823  0.5631 -1.5481 -0.9899
   65SAPC  C315 5392   5.773   3.462   4.892  0.4552 -0.0859  0.8218
   65SAPC  H15X 5393   5.782   3.537   4.974 -0.2508 -2.0079  2.7651
   65SAPC  H15Y 5394   5.726   3.370   4.933 -1.6404 -0.0839 -1.3594
   65SAPC  C316 5395   5.678   3.498   4.780  0.2818 -0.4217  0.2693
   65SAPC  H16X 5396   5.721   3.478   4.679  0.8813 -2.2955  0.8573
   65SAPC  H16Y 5397   5.665   3.608   4.776  0.3024 -0.4458 -2.1179
   65SAPC  C317 5398   5.545   3.420   4.785 -0.0604  0.3296  0.3112
   65SAPC  H17X 5399   5.557   3.319   4.828  0.2505  0.7630  1.2708
   65SAPC  H17Y 5400   5.505   3.409   4.682 -0.5148 -1.6915  0.6658
   65SAPC  C318 5401   5.433   3.487   4.869 -0.1134 -0.1980  0.9565
   65SAPC  H18X 5402   5.406   3.590   4.834 -0.8656 -0.7207 -0.0598
   65SAPC  H18Y 5403   5.478   3.501   4.969  1.4545  1.9144  0.0565
   65SAPC  H18Z 5404   5.350   3.414   4.876 -0.7567  0.3888 -0.1212
   66SAPC     N 5405   4.294   6.415   2.887 -0.7492  0.0077 -0.1065
   66SAPC   C12 5406   4.293   6.460   3.035  0.0861 -0.4175  0.5383
   66SAPC  H12A 5407   4.350   6.550   3.053 -1.9710  0.7225  1.6510
   66SAPC  H12B 5408   4.344   6.384   3.093 -1.4665 -0.3508  2.0904
   66SAPC   C13 5409   4.254   6.272   2.869 -0.2695 -0.1851 -0.8317
   66SAPC  H13A 5410   4.262   6.258   2.762  0.7059 -0.0650 -0.7833
   66SAPC  H13B 5411   4.316   6.200   2.919 -1.2259 -0.0467  0.5990
   66SAPC  H13C 5412   4.152   6.248   2.892  0.0408 -1.5404 -0.8002
   66SAPC   C14 5413   4.206   6.496   2.794  0.7013  0.3105  0.7551
   66SAPC  H14A 5414   4.217   6.470   2.690 -0.8911  1.6693  0.1889
   66SAPC  H14B 5415   4.107   6.472   2.831  0.9405 -2.3749 -0.1509
   66SAPC  H14C 5416   4.225   6.602   2.806  2.4829  0.1956 -0.6178
   66SAPC   C15 5417   4.436   6.418   2.835 -0.0287 -0.4019  0.2630
   66SAPC  H15A 5418   4.476   6.518   2.832  1.3741 -0.8634  2.0595
   66SAPC  H15B 5419   4.507   6.360   2.891  0.5857  0.9537  0.9433
   66SAPC  H15C 5420   4.436   6.377   2.735  0.7327 -1.3447  0.6349
   66SAPC   C11 5421   4.165   6.498   3.109  0.6940  0.3405 -0.5003
   66SAPC  H11A 5422   4.124   6.599   3.086 -1.6579 -0.5554 -0.5337
   66SAPC  H11B 5423   4.181   6.518   3.217 -3.6884  0.6327  0.2796
   66SAPC     P 5424   4.008   6.303   3.194  0.5032  0.1852  0.0756
   66SAPC   O13 5425   3.884   6.229   3.162 -0.0720  0.1839  0.2084
   66SAPC   O14 5426   4.123   6.214   3.217  0.0370 -0.3466  0.1671
   66SAPC   O12 5427   4.056   6.407   3.082  0.3235 -0.0605 -0.1217
   66SAPC   O11 5428   3.977   6.388   3.328  0.4600 -0.0037 -0.0257
   66SAPC    C1 5429   3.881   6.500   3.330 -0.3494 -0.5238  0.2190
   66SAPC    HA 5430   3.850   6.519   3.225  1.4399 -0.6574 -0.3575
   66SAPC    HB 5431   3.789   6.476   3.388 -0.0329 -0.5403  0.7242
   66SAPC    C2 5432   3.938   6.628   3.398 -1.1139 -0.0737  0.0711
   66SAPC    HS 5433   4.007   6.669   3.321 -0.1922 -0.3599  0.7240
   66SAPC   O21 5434   4.030   6.603   3.508  0.7586  0.3176 -0.2820
   66SAPC   C21 5435   4.080   6.704   3.569  0.0350 -1.0182  0.1607
   66SAPC   O22 5436   4.075   6.820   3.530  0.1317  0.0026  0.2598
   66SAPC   C22 5437   4.152   6.661   3.700  0.2940 -0.1550  0.6117
   66SAPC   H2R 5438   4.153   6.550   3.697  0.7673 -0.1364 -0.0217
   66SAPC   H2S 5439   4.247   6.716   3.681 -0.2098  0.5080 -0.0285
   66SAPC    C3 5440   3.819   6.733   3.428 -0.1691  0.0954  0.1818
   66SAPC    HX 5441   3.755   6.730   3.337 -0.3136 -1.2630  0.3091
   66SAPC    HY 5442   3.853   6.839   3.432 -0.2986  0.1371  0.1912
   66SAPC   O31 5443   3.757   6.696   3.550 -0.0755 -0.8096  0.1464
   66SAPC   C31 5444   3.640   6.634   3.537  0.0054  0.4446 -0.7493
   66SAPC   O32 5445   3.569   6.633   3.436  0.7423  0.2485 -0.0407
   66SAPC   C32 5446   3.600   6.567   3.670 -0.1035  0.3046 -0.1433
   66SAPC   H2X 5447   3.490   6.566   3.686 -0.0342 -0.4800  0.3437
   66SAPC   H2Y 5448   3.642   6.628   3.752 -0.6310  2.3391 -1.3319
   66SAPC   C23 5449   4.076   6.712   3.820  0.4398  0.5299  0.5982
   66SAPC   H3R 5450   4.042   6.817   3.808 -0.9579 -0.1859 -2.9836
   66SAPC   H3S 5451   4.162   6.709   3.890  0.0377  0.4827  1.0945
   66SAPC   C24 5452   3.965   6.609   3.862 -0.3958  0.4516  0.1333
   66SAPC   H4R 5453   4.007   6.516   3.905 -1.7686 -0.5301 -0.5787
   66SAPC   H4S 5454   3.910   6.578   3.770 -2.7470  0.2190  1.5184
   66SAPC   C25 5455   3.877   6.686   3.949 -0.3645 -0.1491  0.4741
   66SAPC   H5R 5456   3.812   6.753   3.891 -0.1793 -1.7835 -1.7565
   66SAPC   C26 5457   3.856   6.667   4.078 -0.3436 -0.2655  0.0399
   66SAPC   H6R 5458   3.789   6.728   4.141  1.3585  0.0962  1.6046
   66SAPC   C27 5459   3.932   6.571   4.167 -0.6081  0.3016 -0.1353
   66SAPC   H7R 5460   4.016   6.515   4.121  1.1920  2.7987 -0.0610
   66SAPC   H7S 5461   3.867   6.485   4.194  1.8938 -1.0647  2.0208
   66SAPC   C28 5462   3.992   6.638   4.287  0.8466 -0.5721  0.5448
   66SAPC   H8R 5463   4.074   6.704   4.255  0.1393 -0.6209 -1.5081
   66SAPC   C29 5464   3.950   6.633   4.418 -0.3890  0.0731 -0.1232
   66SAPC   H9R 5465   4.004   6.680   4.502 -0.3356 -0.5971  0.2297
   66SAPC  C210 5466   3.835   6.549   4.477 -0.2675  0.5166  0.0720
   66SAPC  H10R 5467   3.885   6.456   4.512  0.4778 -0.6163 -3.5518
   66SAPC  H10S 5468   3.763   6.526   4.396 -0.7784  2.0503  0.0530
   66SAPC  C211 5469   3.763   6.623   4.581 -0.0543  0.5952  0.6336
   66SAPC  H11R 5470   3.660   6.638   4.545  0.0162  0.1373  0.2251
   66SAPC  C212 5471   3.794   6.646   4.712 -0.1261  0.1085  0.3843
   66SAPC  H12R 5472   3.714   6.695   4.769  0.3478  0.7110  0.5456
   66SAPC  C213 5473   3.917   6.613   4.792  0.3060 -1.1322 -0.8307
   66SAPC  H13R 5474   3.958   6.709   4.831 -0.4495 -1.0159 -0.2998
   66SAPC  H13S 5475   4.002   6.583   4.728  0.1591  0.1925 -1.6807
   66SAPC  C214 5476   3.900   6.512   4.904  0.6542 -0.1526  0.1736
   66SAPC  H14R 5477   3.858   6.417   4.870 -0.0960  0.5318 -0.8990
   66SAPC  C215 5478   3.920   6.514   5.036 -1.0604 -0.0942 -0.0752
   66SAPC  H15R 5479   3.898   6.424   5.094 -4.1302 -0.1603 -1.1772
   66SAPC  C216 5480   3.963   6.631   5.113  0.1006  0.8348  0.8180
   66SAPC  H16R 5481   3.871   6.667   5.163  0.2702  0.6272  1.2858
   66SAPC  H16S 5482   3.993   6.715   5.046  1.5019 -0.4676 -0.2614
   66SAPC  C217 5483   4.085   6.603   5.209  0.2324 -0.1964 -0.4906
   66SAPC  H17R 5484   4.053   6.524   5.281  0.1430  0.8716  0.6826
   66SAPC  H17S 5485   4.101   6.693   5.273  1.1740  0.2851 -1.3698
   66SAPC  C218 5486   4.218   6.548   5.140  0.3344 -0.3945  0.5832
   66SAPC  H18R 5487   4.248   6.635   5.078  1.0410  1.3037  3.1232
   66SAPC  H18S 5488   4.198   6.453   5.087  1.0016 -1.1410  1.6363
   66SAPC  C219 5489   4.333   6.546   5.247  0.2720 -0.5467 -0.5246
   66SAPC  H19R 5490   4.313   6.463   5.318 -2.1556  0.0983 -0.3704
   66SAPC  H19S 5491   4.332   6.648   5.290  3.0797 -0.1638 -1.1891
   66SAPC  C220 5492   4.470   6.523   5.182  0.9842 -0.5324 -0.5641
   66SAPC  H20R 5493   4.475   6.416   5.150  1.9572 -1.2378  1.7304
   66SAPC  H20S 5494   4.548   6.550   5.257  0.6844 -1.7714  0.2284
   66SAPC  H20T 5495   4.475   6.587   5.092 -1.4441 -0.8849 -1.0194
   66SAPC   C33 5496   3.655   6.426   3.693  0.1426 -0.4799  0.4662
   66SAPC   H3X 5497   3.764   6.427   3.715  0.0079 -1.9366  1.3771
   66SAPC   H3Y 5498   3.653   6.373   3.595  2.2838  1.0607 -0.4805
   66SAPC   C34 5499   3.590   6.342   3.806 -0.1483  0.3561  0.1030
   66SAPC   H4X 5500   3.639   6.245   3.827 -0.2557  0.2319 -0.2241
   66SAPC   H4Y 5501   3.482   6.329   3.783 -0.1366  0.9965 -0.3423
   66SAPC   C35 5502   3.599   6.411   3.946  0.0425  0.7571  0.2073
   66SAPC   H5X 5503   3.555   6.513   3.941 -1.9159 -0.0348  0.3327
   66SAPC   H5Y 5504   3.704   6.422   3.979  0.0781 -1.9109  1.2167
   66SAPC   C36 5505   3.529   6.323   4.056 -0.3134 -0.0041  1.2501
   66SAPC   H6X 5506   3.549   6.219   4.021  0.5169  0.7411 -0.6641
   66SAPC   H6Y 5507   3.421   6.337   4.038  0.0229 -1.1287 -2.6760
   66SAPC   C37 5508   3.573   6.346   4.200  0.3981 -0.0070 -0.6289
   66SAPC   H7X 5509   3.547   6.450   4.231  0.0489 -0.2279 -0.1731
   66SAPC   H7Y 5510   3.683   6.336   4.196  0.6450  1.4198  1.1104
   66SAPC   C38 5511   3.528   6.247   4.309  0.3799 -0.3093 -0.0023
   66SAPC   H8X 5512   3.561   6.144   4.284  1.6533 -0.0409  0.4793
   66SAPC   H8Y 5513   3.418   6.245   4.324  0.4633 -0.3807  0.6305
   66SAPC   C39 5514   3.601   6.283   4.445  0.1074  0.2902  0.5588
   66SAPC   H9X 5515   3.591   6.392   4.467  1.0227  0.0851  2.1975
   66SAPC   H9Y 5516   3.707   6.273   4.411 -0.3802  1.9107 -1.6348
   66SAPC  C310 5517   3.580   6.190   4.555  0.5876 -0.0462  0.1210
   66SAPC  H10X 5518   3.663   6.195   4.630  0.0740  0.6231  0.6692
   66SAPC  H10Y 5519   3.562   6.085   4.525  0.3069  0.0617 -0.0823
   66SAPC  C311 5520   3.451   6.236   4.626 -0.6448 -0.4614  0.1394
   66SAPC  H11X 5521   3.402   6.153   4.682 -0.8625 -0.2779  0.2221
   66SAPC  H11Y 5522   3.378   6.250   4.543  1.8298  0.4336 -2.0061
   66SAPC  C312 5523   3.501   6.365   4.703  0.5137 -0.2284 -0.0030
   66SAPC  H12X 5524   3.443   6.447   4.655 -0.8751 -0.8068  0.6333
   66SAPC  H12Y 5525   3.610   6.387   4.709  0.9005 -2.0592  0.1984
   66SAPC  C313 5526   3.432   6.364   4.841 -0.2010 -0.6866 -0.5074
   66SAPC  H13X 5527   3.472   6.284   4.908 -1.4643 -1.2994 -0.4559
   66SAPC  H13Y 5528   3.321   6.359   4.841 -0.5480  3.4409  0.5990
   66SAPC  C314 5529   3.465   6.493   4.926 -0.4825 -0.3661 -0.1893
   66SAPC  H14X 5530   3.429   6.583   4.873 -0.2907 -0.3026 -0.2134
   66SAPC  H14Y 5531   3.573   6.517   4.937  0.1936 -3.1715  0.0243
   66SAPC  C315 5532   3.410   6.499   5.074  0.0114  0.0880 -0.1365
   66SAPC  H15X 5533   3.420   6.398   5.120 -2.5120 -1.0038 -1.7371
   66SAPC  H15Y 5534   3.299   6.505   5.078  0.0679  0.6639  2.2237
   66SAPC  C316 5535   3.454   6.625   5.157 -0.3091 -0.1223 -0.0047
   66SAPC  H16X 5536   3.450   6.715   5.092  0.1210 -2.0347 -2.8994
   66SAPC  H16Y 5537   3.564   6.617   5.174 -0.3130  0.0215  0.0818
   66SAPC  C317 5538   3.405   6.651   5.295  0.0769  0.0834 -0.1044
   66SAPC  H17X 5539   3.433   6.559   5.350 -0.6205 -1.0054 -1.5027
   66SAPC  H17Y 5540   3.294   6.652   5.299  0.0688 -0.8577  0.2532
   66SAPC  C318 5541   3.469   6.767   5.363 -0.0417 -0.2667  0.0549
   66SAPC  H18X 5542   3.435   6.761   5.468  0.5150 -3.5159  0.1314
   66SAPC  H18Y 5543   3.427   6.860   5.319  1.3160  0.6711  0.6649
   66SAPC  H18Z 5544   3.580   6.763   5.360 -0.0014  0.9141 -1.1854
   67SAPC     N 5545   1.526   3.856   3.189  0.3799 -0.3879  0.0421
   67SAPC   C12 5546   1.574   3.799   3.325 -0.0912  0.0365  0.1919
   67SAPC  H12A 5547   1.681   3.785   3.328 -0.3616 -2.3723  0.4181
   67SAPC  H12B 5548   1.539   3.697   3.334 -1.7500  0.4588 -0.8130
   67SAPC   C13 5549   1.547   4.005   3.177  0.0307  0.1789 -0.3768
   67SAPC  H13A 5550   1.479   4.055   3.245 -0.9095  2.2019 -2.6794
   67SAPC  H13B 5551   1.650   4.030   3.195  0.2876 -0.9471 -0.2076
   67SAPC  H13C 5552   1.523   4.039   3.077  1.7045  1.0187 -0.5148
   67SAPC   C14 5553   1.599   3.794   3.077  0.6013  0.3562  0.7478
   67SAPC  H14A 5554   1.706   3.806   3.087  0.4753  0.6876  1.8996
   67SAPC  H14B 5555   1.586   3.687   3.071 -0.0631  0.4647  0.2038
   67SAPC  H14C 5556   1.576   3.840   2.982  0.3120  0.8555  1.0588
   67SAPC   C15 5557   1.382   3.828   3.160 -0.3026 -0.1825  0.1138
   67SAPC  H15A 5558   1.322   3.887   3.227 -0.7171 -0.4738  0.0053
   67SAPC  H15B 5559   1.357   3.861   3.060  0.2446  0.3892  0.1621
   67SAPC  H15C 5560   1.347   3.727   3.175 -0.0659 -0.3854 -0.6588
   67SAPC   C11 5561   1.535   3.881   3.454 -0.7422 -0.0169 -0.1670
   67SAPC  H11A 5562   1.586   3.977   3.430  0.7013 -1.0254 -1.3539
   67SAPC  H11B 5563   1.584   3.826   3.537 -1.2823  0.8960  0.7692
   67SAPC     P 5564   1.315   3.774   3.532  0.6202  0.4543 -0.4083
   67SAPC   O13 5565   1.170   3.818   3.521 -0.0177 -0.2347  0.0606
   67SAPC   O14 5566   1.358   3.647   3.467  0.0699 -0.4409  0.0515
   67SAPC   O12 5567   1.401   3.890   3.468  0.5451  0.4335 -0.0513
   67SAPC   O11 5568   1.354   3.763   3.683 -0.0957 -0.2001 -0.2517
   67SAPC    C1 5569   1.389   3.885   3.752 -0.1435  0.5890  0.0099
   67SAPC    HA 5570   1.486   3.929   3.719 -0.8224  1.1586 -1.2815
   67SAPC    HB 5571   1.315   3.966   3.738 -0.4450  0.2187 -0.5544
   67SAPC    C2 5572   1.401   3.860   3.903 -0.0912 -0.1797  0.3228
   67SAPC    HS 5573   1.486   3.789   3.908  0.2254  0.2482  1.2320
   67SAPC   O21 5574   1.287   3.781   3.939  0.5702 -0.2736 -0.5364
   67SAPC   C21 5575   1.175   3.840   3.957 -0.5024 -0.1673  0.4637
   67SAPC   O22 5576   1.151   3.961   3.937 -0.2548  0.4768 -0.1297
   67SAPC   C22 5577   1.073   3.733   3.999  0.6272 -0.1415  0.4261
   67SAPC   H2R 5578   1.009   3.708   3.911  1.3903 -0.8365  0.0610
   67SAPC   H2S 5579   1.122   3.635   4.016 -1.1349 -1.1820 -0.1620
   67SAPC    C3 5580   1.432   3.983   3.995 -0.2585  0.3721  0.5921
   67SAPC    HX 5581   1.357   4.063   3.979 -1.4839 -0.8796 -0.1123
   67SAPC    HY 5582   1.524   4.037   3.964  1.8706 -2.4497  1.4988
   67SAPC   O31 5583   1.437   3.946   4.137 -0.0501  0.0526  0.4682
   67SAPC   C31 5584   1.553   3.893   4.169 -0.5840  0.1675  0.1674
   67SAPC   O32 5585   1.655   3.891   4.098  0.7103  0.7989 -1.0872
   67SAPC   C32 5586   1.551   3.822   4.302  0.0550 -0.6294  0.9514
   67SAPC   H2X 5587   1.608   3.727   4.294 -0.0779 -0.5952 -0.7464
   67SAPC   H2Y 5588   1.446   3.798   4.329 -0.8342  0.9335 -0.8249
   67SAPC   C23 5589   0.975   3.788   4.103 -0.7982 -0.7173  0.7889
   67SAPC   H3R 5590   0.880   3.730   4.103 -2.2240  1.3942  3.5149
   67SAPC   H3S 5591   0.942   3.892   4.080 -0.9576 -0.7183  1.0075
   67SAPC   C24 5592   1.030   3.779   4.251  0.7692 -0.1755  0.2373
   67SAPC   H4R 5593   1.054   3.677   4.287  1.0863  0.8300  3.1629
   67SAPC   H4S 5594   0.943   3.794   4.319  0.1245  0.4306 -0.6824
   67SAPC   C25 5595   1.133   3.878   4.296 -0.6347  0.1590  0.5145
   67SAPC   H5R 5596   1.162   3.944   4.212  0.3864  2.1614  2.3518
   67SAPC   C26 5597   1.208   3.876   4.417  0.5788  0.0381  0.0995
   67SAPC   H6R 5598   1.275   3.960   4.439 -0.2515  0.8842 -0.5515
   67SAPC   C27 5599   1.178   3.781   4.524 -0.3022  0.3659  0.5008
   67SAPC   H7R 5600   1.071   3.750   4.521 -0.3762  0.5941  0.7452
   67SAPC   H7S 5601   1.178   3.835   4.621 -0.3878  0.4336  0.4644
   67SAPC   C28 5602   1.268   3.654   4.521 -0.0379 -0.1712 -0.1475
   67SAPC   H8R 5603   1.284   3.613   4.420  0.5134 -1.1869  0.3364
   67SAPC   C29 5604   1.324   3.598   4.631  0.0433 -0.1458  0.5239
   67SAPC   H9R 5605   1.388   3.510   4.619  2.0386  1.3762 -0.5322
   67SAPC  C210 5606   1.284   3.651   4.770  0.2670  0.3916  0.5532
   67SAPC  H10R 5607   1.175   3.639   4.782 -0.3404  0.4579 -3.4417
   67SAPC  H10S 5608   1.309   3.759   4.760  0.7431  0.1449 -1.5947
   67SAPC  C211 5609   1.367   3.586   4.878  0.4542  0.0633 -0.2181
   67SAPC  H11R 5610   1.439   3.511   4.843 -0.0208 -0.4049 -0.2058
   67SAPC  C212 5611   1.352   3.591   5.013 -0.3423 -0.5248  0.1368
   67SAPC  H12R 5612   1.422   3.534   5.076  1.3056 -1.1451 -2.1212
   67SAPC  C213 5613   1.241   3.673   5.075  0.0510  0.4951  0.3184
   67SAPC  H13R 5614   1.204   3.742   4.996  2.2376  0.2280 -1.0152
   67SAPC  H13S 5615   1.286   3.742   5.150 -1.1147  3.0067 -1.1500
   67SAPC  C214 5616   1.122   3.598   5.126  0.0805 -0.0099  0.3309
   67SAPC  H14R 5617   1.112   3.494   5.092 -0.8922 -0.1218  0.9239
   67SAPC  C215 5618   1.019   3.651   5.201 -0.1864 -0.3018 -1.1190
   67SAPC  H15R 5619   0.926   3.594   5.215 -1.0243  0.8566 -1.8063
   67SAPC  C216 5620   1.006   3.787   5.268 -0.1374  0.2310  0.5292
   67SAPC  H16R 5621   0.955   3.859   5.201 -0.5330  0.6588  1.2773
   67SAPC  H16S 5622   1.109   3.816   5.300  0.5823  1.3390 -2.4312
   67SAPC  C217 5623   0.911   3.792   5.392 -0.3861 -0.0797  0.5593
   67SAPC  H17R 5624   0.809   3.756   5.364 -0.6316 -0.2352  1.6022
   67SAPC  H17S 5625   0.909   3.899   5.422  0.2853  1.4065 -4.0148
   67SAPC  C218 5626   0.959   3.709   5.518 -0.6180 -0.2279 -0.3729
   67SAPC  H18R 5627   1.060   3.746   5.544 -1.0990  1.9854 -1.4603
   67SAPC  H18S 5628   0.983   3.611   5.472  0.0183 -0.2257 -0.0547
   67SAPC  C219 5629   0.863   3.719   5.639  0.7808 -0.8778 -0.0731
   67SAPC  H19R 5630   0.916   3.652   5.710  0.4549 -1.2877 -0.2136
   67SAPC  H19S 5631   0.766   3.675   5.610  0.6667 -0.8687  0.2872
   67SAPC  C220 5632   0.840   3.861   5.699 -1.0610  0.5421  0.3217
   67SAPC  H20R 5633   0.816   3.850   5.807 -1.6791  0.7409  0.2071
   67SAPC  H20S 5634   0.759   3.909   5.641  0.3172  0.6611 -1.5810
   67SAPC  H20T 5635   0.934   3.914   5.676 -0.8654 -0.3558 -1.0696
   67SAPC   C33 5636   1.617   3.916   4.407 -1.2816 -0.1014  0.4775
   67SAPC   H3X 5637   1.557   4.009   4.411 -0.5850  0.6661 -3.3004
   67SAPC   H3Y 5638   1.720   3.936   4.372 -1.5262  0.1248 -0.1200
   67SAPC   C34 5639   1.631   3.844   4.546  0.4495 -1.0110 -0.2030
   67SAPC   H4X 5640   1.691   3.754   4.521  0.8572  0.0800 -3.6454
   67SAPC   H4Y 5641   1.529   3.817   4.581  0.4152 -2.1662 -1.1117
   67SAPC   C35 5642   1.689   3.927   4.663 -0.1409 -0.5562  0.0980
   67SAPC   H5X 5643   1.643   4.027   4.672  1.2121  0.0118  1.1183
   67SAPC   H5Y 5644   1.793   3.955   4.637 -0.3861 -0.7124 -1.0873
   67SAPC   C36 5645   1.686   3.848   4.796 -0.2518  0.9592 -0.2800
   67SAPC   H6X 5646   1.712   3.746   4.762 -1.1317  1.5074 -2.8355
   67SAPC   H6Y 5647   1.578   3.843   4.824 -0.1630  1.7893  0.2527
   67SAPC   C37 5648   1.779   3.896   4.908  0.0614  0.1346 -0.6887
   67SAPC   H7X 5649   1.878   3.907   4.860  0.1171 -1.9287 -1.1360
   67SAPC   H7Y 5650   1.777   3.818   4.988  1.0214 -0.1578 -0.9402
   67SAPC   C38 5651   1.737   4.033   4.950  1.0079 -0.6295  0.1001
   67SAPC   H8X 5652   1.627   4.025   4.967  1.3545 -2.9906  1.7423
   67SAPC   H8Y 5653   1.755   4.109   4.872 -1.7336  1.5028  1.3572
   67SAPC   C39 5654   1.795   4.078   5.083 -0.5351  0.0043 -0.0386
   67SAPC   H9X 5655   1.906   4.083   5.077 -0.4752 -0.6028  0.4217
   67SAPC   H9Y 5656   1.769   4.005   5.163 -0.2782  0.8520  0.8266
   67SAPC  C310 5657   1.741   4.215   5.129  0.1959 -0.4082 -0.3756
   67SAPC  H10X 5658   1.638   4.193   5.165  0.3429 -1.2091 -0.4309
   67SAPC  H10Y 5659   1.738   4.281   5.040 -0.2779  0.8639  0.5465
   67SAPC  C311 5660   1.829   4.282   5.228 -0.3046 -0.0979 -0.3069
   67SAPC  H11X 5661   1.852   4.217   5.315 -0.7023  2.6183  1.9654
   67SAPC  H11Y 5662   1.768   4.362   5.273 -2.5476 -2.1414  0.4949
   67SAPC  C312 5663   1.954   4.342   5.169 -0.4289 -0.5111  0.7506
   67SAPC  H12X 5664   1.929   4.438   5.119 -2.3555 -0.2988  2.0426
   67SAPC  H12Y 5665   2.010   4.281   5.094 -0.2367 -0.4213  0.8198
   67SAPC  C313 5666   2.051   4.354   5.289 -0.0774 -0.0514 -0.4087
   67SAPC  H13X 5667   2.085   4.258   5.333 -1.1775 -0.9405 -1.4152
   67SAPC  H13Y 5668   1.996   4.391   5.378  0.2310 -1.0471  0.2112
   67SAPC  C314 5669   2.166   4.446   5.265  0.0784 -0.1808  0.3366
   67SAPC  H14X 5670   2.124   4.532   5.207  0.5763  0.2520  0.6118
   67SAPC  H14Y 5671   2.247   4.404   5.202 -0.1162  0.5019 -0.3950
   67SAPC  C315 5672   2.234   4.486   5.396  0.6806 -0.4440 -0.0150
   67SAPC  H15X 5673   2.298   4.407   5.440 -1.3076 -1.5105  1.1453
   67SAPC  H15Y 5674   2.156   4.510   5.472  0.4569  0.1156 -0.4127
   67SAPC  C316 5675   2.301   4.626   5.380  0.4510  0.0825  0.3343
   67SAPC  H16X 5676   2.334   4.660   5.480 -0.4100  1.6019  0.1225
   67SAPC  H16Y 5677   2.237   4.704   5.333  1.2013  1.7498  1.9622
   67SAPC  C317 5678   2.419   4.609   5.294 -0.1893 -0.1544 -0.5774
   67SAPC  H17X 5679   2.468   4.706   5.269  1.7471 -1.4622 -2.1827
   67SAPC  H17Y 5680   2.403   4.578   5.189 -0.7593 -0.1995 -0.4810
   67SAPC  C318 5681   2.529   4.518   5.354  0.5849 -0.9620 -0.5757
   67SAPC  H18X 5682   2.628   4.521   5.304  0.6146 -0.8652 -0.5127
   67SAPC  H18Y 5683   2.500   4.411   5.349 -0.7548 -0.5668 -2.1628
   67SAPC  H18Z 5684   2.554   4.551   5.457  0.7136  1.6026 -1.3526
   68SAPC     N 5685   1.438   4.900   3.190  0.6772 -0.5777  0.1801
   68SAPC   C12 5686   1.373   4.924   3.328  0.2492  0.8905  0.4299
   68SAPC  H12A 5687   1.307   4.839   3.329 -0.3446  1.3471  0.0472
   68SAPC  H12B 5688   1.304   5.006   3.337 -2.3958 -1.0288 -0.8582
   68SAPC   C13 5689   1.515   5.027   3.157 -0.6840 -1.2835  0.0465
   68SAPC  H13A 5690   1.455   5.112   3.126 -0.3181 -1.3317 -0.8224
   68SAPC  H13B 5691   1.575   5.055   3.243 -1.4814  0.0366  0.2062
   68SAPC  H13C 5692   1.565   5.005   3.064 -1.6814  0.1071 -0.8538
   68SAPC   C14 5693   1.509   4.774   3.179 -0.0317  0.1411  0.0514
   68SAPC  H14A 5694   1.444   4.697   3.218 -1.8035  0.7063 -1.6417
   68SAPC  H14B 5695   1.546   4.749   3.081  1.4778 -0.7636  0.8123
   68SAPC  H14C 5696   1.598   4.788   3.239  0.6564 -0.2880 -0.8369
   68SAPC   C15 5697   1.326   4.889   3.087  0.4078  0.7172 -0.0918
   68SAPC  H15A 5698   1.290   4.988   3.067  1.5839  1.2634  0.4154
   68SAPC  H15B 5699   1.362   4.845   2.995 -2.2198 -0.8949 -0.4567
   68SAPC  H15C 5700   1.242   4.832   3.124  1.4759 -0.7155  0.2264
   68SAPC   C11 5701   1.476   4.935   3.447  0.3932  0.3182  0.4900
   68SAPC  H11A 5702   1.416   4.967   3.535 -2.3333 -0.1365 -1.0921
   68SAPC  H11B 5703   1.552   5.016   3.434 -1.1732  1.4649 -2.5176
   68SAPC     P 5704   1.475   4.690   3.535  0.4939 -0.2204  0.2889
   68SAPC   O13 5705   1.344   4.662   3.464  0.6753 -0.0551  0.0697
   68SAPC   O14 5706   1.574   4.586   3.555 -0.7036  0.0863  0.1956
   68SAPC   O12 5707   1.546   4.809   3.462  0.1602  0.0150  0.4657
   68SAPC   O11 5708   1.446   4.745   3.680 -0.2902 -0.0122  0.3036
   68SAPC    C1 5709   1.536   4.841   3.741  0.1715  1.0771 -0.5159
   68SAPC    HA 5710   1.594   4.900   3.667  0.0845 -0.1005 -1.5610
   68SAPC    HB 5711   1.462   4.909   3.789 -0.7513 -0.6504  0.5712
   68SAPC    C2 5712   1.622   4.761   3.842  0.0922 -0.3311 -0.1272
   68SAPC    HS 5713   1.680   4.685   3.786  0.6531 -0.2282  0.2951
   68SAPC   O21 5714   1.533   4.697   3.936  0.5309 -0.1152 -0.6325
   68SAPC   C21 5715   1.572   4.591   3.991  0.3903 -0.1764  1.3879
   68SAPC   O22 5716   1.677   4.534   3.968  0.0662  0.0112  0.4705
   68SAPC   C22 5717   1.477   4.554   4.105 -0.2679 -0.2203 -0.5077
   68SAPC   H2R 5718   1.516   4.458   4.142  1.4346  0.3249 -0.7860
   68SAPC   H2S 5719   1.500   4.614   4.195  3.5874 -0.4851 -1.1416
   68SAPC    C3 5720   1.716   4.862   3.919 -0.0336  0.1615 -0.6368
   68SAPC    HX 5721   1.646   4.934   3.966  0.5606 -0.8516  1.9714
   68SAPC    HY 5722   1.785   4.904   3.843 -0.4075 -1.5230 -1.9826
   68SAPC   O31 5723   1.784   4.806   4.032 -0.2377  0.3900 -0.4641
   68SAPC   C31 5724   1.909   4.774   4.015 -0.1425 -0.3226  0.2190
   68SAPC   O32 5725   1.973   4.776   3.910  0.3142  0.0093 -0.3535
   68SAPC   C32 5726   1.959   4.704   4.146 -0.6102 -0.4530  0.1548
   68SAPC   H2X 5727   1.866   4.654   4.182 -2.9873  3.1278 -0.4914
   68SAPC   H2Y 5728   1.991   4.786   4.214 -0.7353 -2.3489  2.6614
   68SAPC   C23 5729   1.328   4.552   4.060  0.1466 -0.3064 -0.2322
   68SAPC   H3R 5730   1.322   4.513   3.956  0.6506 -1.2398  0.0698
   68SAPC   H3S 5731   1.287   4.654   4.072 -0.3223 -0.7964  3.4530
   68SAPC   C24 5732   1.240   4.457   4.149  0.1544 -0.0968  0.5455
   68SAPC   H4R 5733   1.136   4.477   4.115  0.8361  0.1837 -1.5776
   68SAPC   H4S 5734   1.246   4.496   4.252  0.4511  0.7821  0.2042
   68SAPC   C25 5735   1.266   4.310   4.149  0.1771  0.3211 -0.8052
   68SAPC   H5R 5736   1.246   4.269   4.048 -4.4789  2.9059 -1.2356
   68SAPC   C26 5737   1.304   4.229   4.251  0.3805 -0.4355  0.3507
   68SAPC   H6R 5738   1.315   4.122   4.229 -1.5869 -0.7669  0.7968
   68SAPC   C27 5739   1.335   4.264   4.395 -0.3319 -0.1962  0.6700
   68SAPC   H7R 5740   1.408   4.347   4.391 -1.2557  0.5850 -0.4015
   68SAPC   H7S 5741   1.386   4.176   4.440  2.8143  0.5088 -1.1930
   68SAPC   C28 5742   1.212   4.297   4.475 -0.9929 -0.0200 -0.3219
   68SAPC   H8R 5743   1.117   4.306   4.420 -0.7889  2.5276 -0.3787
   68SAPC   C29 5744   1.202   4.286   4.609  0.3467 -0.3512  0.1487
   68SAPC   H9R 5745   1.107   4.314   4.655 -0.4282 -3.0475  0.3616
   68SAPC  C210 5746   1.317   4.267   4.707 -0.0882 -0.1149  0.1813
   68SAPC  H10R 5747   1.335   4.348   4.781 -0.4425 -1.5314  1.8895
   68SAPC  H10S 5748   1.416   4.274   4.658 -0.4891 -1.3679 -0.8784
   68SAPC  C211 5749   1.317   4.135   4.768  0.7147  0.6353  0.3613
   68SAPC  H11R 5750   1.339   4.050   4.701  0.8244  0.2921  0.8262
   68SAPC  C212 5751   1.271   4.111   4.894 -0.0437  0.2051  0.7107
   68SAPC  H12R 5752   1.270   4.005   4.923 -0.6597  0.0589  0.1978
   68SAPC  C213 5753   1.207   4.204   4.992 -0.1229 -0.6511 -0.3052
   68SAPC  H13R 5754   1.140   4.276   4.942  0.2309 -0.7595 -0.9514
   68SAPC  H13S 5755   1.289   4.270   5.029 -0.8768  0.7054 -1.0072
   68SAPC  C214 5756   1.131   4.147   5.106  0.3471  0.3543  0.1870
   68SAPC  H14R 5757   1.024   4.136   5.082  0.5923 -0.9205 -0.3722
   68SAPC  C215 5758   1.173   4.090   5.221 -0.0590 -0.2307 -0.2588
   68SAPC  H15R 5759   1.102   4.047   5.293 -2.2190  2.0160 -0.8900
   68SAPC  C216 5760   1.316   4.086   5.264  0.0296 -0.8415 -0.2844
   68SAPC  H16R 5761   1.384   4.144   5.197  0.6108 -1.7262 -0.4702
   68SAPC  H16S 5762   1.349   3.981   5.273  0.7097 -0.4596  3.0004
   68SAPC  C217 5763   1.342   4.139   5.410  0.0608  0.2096 -0.2552
   68SAPC  H17R 5764   1.330   4.052   5.478  0.5662  0.0684 -0.3447
   68SAPC  H17S 5765   1.283   4.229   5.441  0.7042  1.2455 -1.9370
   68SAPC  C218 5766   1.486   4.183   5.431  0.2465  0.2260  0.5720
   68SAPC  H18R 5767   1.491   4.289   5.401  0.1528 -0.0865 -0.6132
   68SAPC  H18S 5768   1.547   4.131   5.353 -3.1890  0.5640 -2.6426
   68SAPC  C219 5769   1.542   4.166   5.572  0.6354 -0.2314 -0.0293
   68SAPC  H19R 5770   1.653   4.169   5.567  0.6617 -0.1424  0.5270
   68SAPC  H19S 5771   1.524   4.064   5.612 -1.6379  1.1180  2.7569
   68SAPC  C220 5772   1.497   4.270   5.673 -0.1841  0.5795 -0.7884
   68SAPC  H20R 5773   1.518   4.359   5.609 -0.0101  1.0879 -0.0377
   68SAPC  H20S 5774   1.558   4.275   5.765  2.0298  0.9142 -2.1903
   68SAPC  H20T 5775   1.388   4.269   5.694 -0.0770  3.0019  0.1856
   68SAPC   C33 5776   2.078   4.609   4.135 -0.0178  0.8717 -0.3340
   68SAPC   H3X 5777   2.171   4.651   4.091  0.7524  0.0638  0.4749
   68SAPC   H3Y 5778   2.064   4.512   4.082  0.6925  0.9395 -0.6634
   68SAPC   C34 5779   2.130   4.584   4.281  0.1127 -0.3264  0.0941
   68SAPC   H4X 5780   2.052   4.536   4.344  0.6424 -1.4083 -0.0550
   68SAPC   H4Y 5781   2.166   4.676   4.334 -1.1018  0.7162 -0.8328
   68SAPC   C35 5782   2.250   4.486   4.287  0.0161  0.2217 -0.5216
   68SAPC   H5X 5783   2.340   4.542   4.255 -0.0404 -0.1050 -1.2618
   68SAPC   H5Y 5784   2.229   4.413   4.206 -1.9716  2.5554 -2.2403
   68SAPC   C36 5785   2.264   4.403   4.415  0.5380 -0.9043  0.5033
   68SAPC   H6X 5786   2.332   4.315   4.416 -0.8624 -2.0397  1.6934
   68SAPC   H6Y 5787   2.169   4.346   4.427  0.1614 -0.1469  1.1963
   68SAPC   C37 5788   2.296   4.497   4.536 -0.3643 -0.1177  0.0445
   68SAPC   H7X 5789   2.218   4.574   4.549  0.4430  0.7905 -0.3150
   68SAPC   H7Y 5790   2.390   4.551   4.511 -0.0923 -0.0543  1.1721
   68SAPC   C38 5791   2.300   4.424   4.674  0.0351 -0.8449  0.1239
   68SAPC   H8X 5792   2.334   4.489   4.758 -0.5982 -1.6654  1.0346
   68SAPC   H8Y 5793   2.371   4.341   4.654  0.7758  0.0321 -0.9789
   68SAPC   C39 5794   2.168   4.370   4.724  0.3716  0.5132 -0.4072
   68SAPC   H9X 5795   2.133   4.294   4.651  0.7996 -0.2981  0.2154
   68SAPC   H9Y 5796   2.095   4.452   4.740 -0.1426 -0.0003 -0.0622
   68SAPC  C310 5797   2.192   4.295   4.860  0.0889  0.6872  0.1615
   68SAPC  H10X 5798   2.090   4.267   4.896  0.9876 -0.8228  1.6288
   68SAPC  H10Y 5799   2.233   4.367   4.933  3.0274 -0.0683 -0.6397
   68SAPC  C311 5800   2.293   4.178   4.840 -0.3251  0.5123 -0.2710
   68SAPC  H11X 5801   2.393   4.224   4.824 -0.0793 -0.5194 -1.9097
   68SAPC  H11Y 5802   2.275   4.114   4.751  2.4770 -2.3092  0.9858
   68SAPC  C312 5803   2.288   4.079   4.960  0.0690 -0.6810  0.7306
   68SAPC  H12X 5804   2.330   3.982   4.926  1.0470 -0.2815  0.7709
   68SAPC  H12Y 5805   2.180   4.068   4.984  0.1974 -0.4178  1.4824
   68SAPC  C313 5806   2.357   4.126   5.087  0.0328  0.2748 -0.1704
   68SAPC  H13X 5807   2.280   4.103   5.165 -0.1403  0.3178 -0.3285
   68SAPC  H13Y 5808   2.379   4.235   5.092  2.0734  0.0016 -2.0076
   68SAPC  C314 5809   2.487   4.055   5.116  0.3280  0.3298  1.1088
   68SAPC  H14X 5810   2.564   4.069   5.037  0.6462  0.5219  1.4483
   68SAPC  H14Y 5811   2.466   3.947   5.134  2.2715  0.2678  3.6591
   68SAPC  C315 5812   2.532   4.082   5.257  0.5530 -0.4435  0.3906
   68SAPC  H15X 5813   2.446   4.061   5.325  0.2558 -0.5156  0.0019
   68SAPC  H15Y 5814   2.556   4.190   5.261  0.7130 -0.5120  1.4414
   68SAPC  C316 5815   2.671   4.013   5.289  0.5761 -0.9699 -0.4641
   68SAPC  H16X 5816   2.739   4.038   5.205  0.2621  2.6995  0.2180
   68SAPC  H16Y 5817   2.648   3.904   5.299 -1.1276 -0.4913  1.3923
   68SAPC  C317 5818   2.736   4.049   5.426 -0.8429 -0.1663 -0.4290
   68SAPC  H17X 5819   2.824   3.987   5.451 -1.3320  0.1183  2.3427
   68SAPC  H17Y 5820   2.652   4.041   5.499 -1.5214 -1.8146 -1.3479
   68SAPC  C318 5821   2.787   4.193   5.426 -0.1699  0.0050 -0.1507
   68SAPC  H18X 5822   2.864   4.216   5.503 -1.3889  0.4090  0.9779
   68SAPC  H18Y 5823   2.698   4.257   5.441  1.8120  2.9759 -0.3456
   68SAPC  H18Z 5824   2.834   4.222   5.329  2.3250 -0.0452  0.9831
   69SAPC     N 5825   3.447   1.432   3.043 -0.1297  0.4539 -0.5689
   69SAPC   C12 5826   3.496   1.426   3.189 -0.2158 -0.5391 -0.1565
   69SAPC  H12A 5827   3.538   1.520   3.221 -2.0303  0.7183 -1.2250
   69SAPC  H12B 5828   3.574   1.351   3.186 -0.9681 -1.3354 -0.3875
   69SAPC   C13 5829   3.572   1.469   2.960  0.2130  0.3501 -0.0873
   69SAPC  H13A 5830   3.643   1.388   2.968 -0.4997 -0.5326 -2.1923
   69SAPC  H13B 5831   3.551   1.485   2.856 -1.6831 -2.7989 -0.3350
   69SAPC  H13C 5832   3.614   1.552   3.015 -0.7613 -0.0461  1.3435
   69SAPC   C14 5833   3.404   1.296   3.003  0.0179  0.5064  0.7246
   69SAPC  H14A 5834   3.308   1.272   3.045  0.1095 -1.9190 -0.3100
   69SAPC  H14B 5835   3.388   1.290   2.897 -0.9243  2.5155  0.7047
   69SAPC  H14C 5836   3.466   1.217   3.044  0.6917  0.6968  0.0973
   69SAPC   C15 5837   3.340   1.533   3.029 -0.0279 -0.7922  0.7108
   69SAPC  H15A 5838   3.370   1.625   3.078  2.5899 -3.1970  4.1457
   69SAPC  H15B 5839   3.321   1.547   2.924  0.3265 -2.7155  0.3564
   69SAPC  H15C 5840   3.246   1.508   3.077 -0.6537  0.3458  0.1292
   69SAPC   C11 5841   3.394   1.392   3.301 -0.3142 -0.1145  0.1681
   69SAPC  H11A 5842   3.460   1.356   3.382 -0.3559 -1.6261 -0.4391
   69SAPC  H11B 5843   3.330   1.307   3.269 -0.4829  0.3581 -0.8118
   69SAPC     P 5844   3.172   1.501   3.361  0.0665 -0.1595 -0.0805
   69SAPC   O13 5845   3.118   1.600   3.265  0.0869  0.5017  0.2448
   69SAPC   O14 5846   3.128   1.360   3.341  0.8980 -0.2680  0.2303
   69SAPC   O12 5847   3.324   1.508   3.341 -0.3670 -0.8487 -0.9008
   69SAPC   O11 5848   3.143   1.550   3.511  0.5139 -0.3466 -0.0500
   69SAPC    C1 5849   3.226   1.509   3.624  0.6882  0.6501 -0.1217
   69SAPC    HA 5850   3.310   1.445   3.589 -1.2557 -1.5098 -1.1518
   69SAPC    HB 5851   3.256   1.594   3.689 -0.9108  0.5971  0.7420
   69SAPC    C2 5852   3.153   1.401   3.712  0.0485 -0.3196  0.4777
   69SAPC    HS 5853   3.046   1.428   3.700 -0.5694 -2.7587  0.0206
   69SAPC   O21 5854   3.181   1.433   3.853  0.9269  0.4530 -0.2252
   69SAPC   C21 5855   3.091   1.392   3.934  0.4949 -0.0290 -0.0204
   69SAPC   O22 5856   2.975   1.360   3.907 -0.0348 -0.1104 -0.1224
   69SAPC   C22 5857   3.140   1.415   4.081  0.5537  0.5953  0.4041
   69SAPC   H2R 5858   3.249   1.397   4.082  0.3963 -0.9173  4.2007
   69SAPC   H2S 5859   3.112   1.522   4.092  0.5238  0.5274  1.0136
   69SAPC    C3 5860   3.179   1.257   3.666  0.1661 -0.2269 -0.1684
   69SAPC    HX 5861   3.286   1.231   3.683 -0.3268 -3.4598 -1.4012
   69SAPC    HY 5862   3.162   1.254   3.557  3.1541 -1.3566 -0.6991
   69SAPC   O31 5863   3.100   1.158   3.738  0.1924 -0.2504 -0.1359
   69SAPC   C31 5864   3.142   1.042   3.737  0.4245  0.9644  0.3353
   69SAPC   O32 5865   3.230   0.997   3.664  0.2213 -0.0682 -0.1479
   69SAPC   C32 5866   3.071   0.956   3.839  0.3262 -0.0681  0.0315
   69SAPC   H2X 5867   3.088   0.853   3.801  0.4313 -0.4295  1.0218
   69SAPC   H2Y 5868   2.963   0.977   3.829  0.4579  0.5556 -0.1040
   69SAPC   C23 5869   3.073   1.333   4.192 -0.3977  0.0657 -0.6648
   69SAPC   H3R 5870   3.041   1.241   4.140 -0.3899  0.0306 -0.6074
   69SAPC   H3S 5871   2.984   1.387   4.233 -0.2108 -0.8439  1.0291
   69SAPC   C24 5872   3.172   1.298   4.311  0.5258 -0.0021  0.0467
   69SAPC   H4R 5873   3.249   1.242   4.254 -0.0374 -1.0628  0.2944
   69SAPC   H4S 5874   3.129   1.220   4.378  0.6352 -0.7721 -0.7588
   69SAPC   C25 5875   3.230   1.414   4.390 -0.4055  0.0150  0.6287
   69SAPC   H5R 5876   3.289   1.481   4.327 -0.0307 -0.7662  0.1378
   69SAPC   C26 5877   3.226   1.438   4.519 -0.1036 -0.1190 -0.6892
   69SAPC   H6R 5878   3.269   1.531   4.560 -1.1385  0.2004 -0.3017
   69SAPC   C27 5879   3.159   1.347   4.628  0.5250  0.3316 -0.1380
   69SAPC   H7R 5880   3.244   1.306   4.687  0.6824 -0.1815 -0.7132
   69SAPC   H7S 5881   3.105   1.261   4.583 -2.4251  1.3177  1.2874
   69SAPC   C28 5882   3.052   1.420   4.708 -1.0892  0.5454  0.2074
   69SAPC   H8R 5883   2.954   1.437   4.661 -0.0026  0.0172 -2.4386
   69SAPC   C29 5884   3.071   1.461   4.832 -0.1092  0.1416 -0.4192
   69SAPC   H9R 5885   2.994   1.519   4.885 -0.3346 -2.5443  2.4929
   69SAPC  C210 5886   3.196   1.439   4.903  0.0152  0.5435 -0.3449
   69SAPC  H10R 5887   3.205   1.531   4.964 -0.5364  0.5735 -0.3065
   69SAPC  H10S 5888   3.291   1.436   4.845  0.8402  0.6152  0.9520
   69SAPC  C211 5889   3.209   1.318   4.987  0.0496  0.4253  0.3013
   69SAPC  H11R 5890   3.232   1.225   4.934 -0.2929  0.3090  0.3593
   69SAPC  C212 5891   3.217   1.319   5.119  0.0627  0.0603 -0.5777
   69SAPC  H12R 5892   3.239   1.226   5.173 -1.6286 -0.4946 -0.7945
   69SAPC  C213 5893   3.200   1.430   5.218 -0.2667  0.8461  1.0446
   69SAPC  H13R 5894   3.098   1.427   5.261 -0.7232  0.9479 -0.0098
   69SAPC  H13S 5895   3.220   1.529   5.172 -0.6101  0.7103  0.5979
   69SAPC  C214 5896   3.305   1.405   5.317  0.5214 -0.2024 -0.7200
   69SAPC  H14R 5897   3.409   1.423   5.285  1.6162 -0.3220  2.4009
   69SAPC  C215 5898   3.301   1.393   5.450  0.1583  0.3400 -1.1104
   69SAPC  H15R 5899   3.389   1.390   5.516 -0.2777 -1.6105 -0.5452
   69SAPC  C216 5900   3.170   1.380   5.535  0.2036  0.0910  0.2012
   69SAPC  H16R 5901   3.078   1.407   5.478 -0.7068  0.6803  1.8959
   69SAPC  H16S 5902   3.174   1.444   5.625 -1.5629  0.0717  0.3276
   69SAPC  C217 5903   3.134   1.237   5.579  0.6011  0.4077  0.0687
   69SAPC  H17R 5904   3.059   1.244   5.662  0.1774 -4.0432  0.3067
   69SAPC  H17S 5905   3.211   1.172   5.625  2.6548  2.0453 -0.9069
   69SAPC  C218 5906   3.065   1.163   5.471 -0.1491  0.3763  0.1856
   69SAPC  H18R 5907   3.143   1.149   5.393  0.7436  2.4840  0.6322
   69SAPC  H18S 5908   2.978   1.213   5.423  0.1829  0.0495 -0.7891
   69SAPC  C219 5909   3.027   1.020   5.508  0.1098  0.1834  0.3677
   69SAPC  H19R 5910   2.962   1.014   5.598 -0.8092 -0.5288 -0.3166
   69SAPC  H19S 5911   3.126   0.981   5.539  0.9834  0.0985 -2.2998
   69SAPC  C220 5912   2.961   0.949   5.394  0.0970  0.2571  0.0188
   69SAPC  H20R 5913   2.862   0.991   5.366 -1.0409 -0.0226  3.2518
   69SAPC  H20S 5914   2.939   0.842   5.415 -0.8645  0.2992 -0.7230
   69SAPC  H20T 5915   3.032   0.959   5.309  2.0659  0.9098  1.6575
   69SAPC   C33 5916   3.102   0.981   3.984 -0.9220  0.0648  0.1221
   69SAPC   H3X 5917   3.063   1.085   3.994  1.7462  1.0759  0.9418
   69SAPC   H3Y 5918   3.208   0.993   4.015 -1.4982  0.6756  2.0595
   69SAPC   C34 5919   3.016   0.882   4.076  0.3069  0.3982  0.2008
   69SAPC   H4X 5920   3.069   0.787   4.099  1.2683  1.3608  2.2254
   69SAPC   H4Y 5921   2.920   0.855   4.026 -0.3952  1.2062  1.0891
   69SAPC   C35 5922   2.995   0.951   4.209  1.0841  0.6459 -0.2530
   69SAPC   H5X 5923   2.922   1.034   4.198  1.2641  0.6882 -1.2168
   69SAPC   H5Y 5924   3.088   1.003   4.239  2.3276  0.2634 -3.1259
   69SAPC   C36 5925   2.939   0.843   4.315 -0.4546 -0.6786  0.4882
   69SAPC   H6X 5926   3.011   0.759   4.323 -1.2636 -1.2438  2.3722
   69SAPC   H6Y 5927   2.846   0.802   4.270 -0.6119  0.6065 -0.4108
   69SAPC   C37 5928   2.909   0.896   4.450 -0.4586  0.0213 -0.1556
   69SAPC   H7X 5929   2.809   0.944   4.459  0.2500  1.3335  1.2952
   69SAPC   H7Y 5930   2.983   0.973   4.482 -0.6898 -0.0475  0.5686
   69SAPC   C38 5931   2.906   0.780   4.558  0.1243  0.3312  0.0369
   69SAPC   H8X 5932   3.011   0.744   4.564  0.7589  2.0081 -0.4946
   69SAPC   H8Y 5933   2.835   0.702   4.522  0.0952  1.0796 -1.6491
   69SAPC   C39 5934   2.860   0.831   4.696  0.3068 -0.3401 -0.0940
   69SAPC   H9X 5935   2.812   0.750   4.756  2.5537 -1.0779  0.8404
   69SAPC   H9Y 5936   2.781   0.907   4.679  1.6940  1.8398  2.3387
   69SAPC  C310 5937   2.974   0.904   4.772 -0.0942 -0.0635  0.3433
   69SAPC  H10X 5938   3.021   0.975   4.701  0.1252 -0.5325  0.0100
   69SAPC  H10Y 5939   3.056   0.832   4.795  1.6620  1.6377 -0.3600
   69SAPC  C311 5940   2.928   0.989   4.891 -0.4497  0.1090 -0.3366
   69SAPC  H11X 5941   3.016   1.043   4.934  0.2870 -1.4423  0.1687
   69SAPC  H11Y 5942   2.880   0.927   4.969  1.1733  1.1153  1.5586
   69SAPC  C312 5943   2.845   1.113   4.856  0.5113  0.5942 -0.5820
   69SAPC  H12X 5944   2.739   1.083   4.838  0.6862  0.9528 -2.3903
   69SAPC  H12Y 5945   2.870   1.158   4.758 -0.7809 -1.6681 -2.0351
   69SAPC  C313 5946   2.846   1.230   4.952  0.2170  0.4674  0.2739
   69SAPC  H13X 5947   2.760   1.292   4.919  1.1723  0.8302 -1.6357
   69SAPC  H13Y 5948   2.947   1.276   4.949  0.8740 -0.9877 -1.1486
   69SAPC  C314 5949   2.819   1.182   5.096 -0.5448 -0.6597  0.6050
   69SAPC  H14X 5950   2.911   1.123   5.112  2.1184  2.2829 -2.4551
   69SAPC  H14Y 5951   2.728   1.118   5.095 -2.1074  1.2502 -3.5449
   69SAPC  C315 5952   2.804   1.300   5.192  1.1469  0.2014  0.0783
   69SAPC  H15X 5953   2.738   1.372   5.137  1.2424 -0.0515 -0.3764
   69SAPC  H15Y 5954   2.906   1.336   5.215  1.5139 -0.9073  0.2384
   69SAPC  C316 5955   2.727   1.255   5.322 -0.4895  0.7515  0.2747
   69SAPC  H16X 5956   2.788   1.169   5.358 -2.8502 -1.4221 -0.5908
   69SAPC  H16Y 5957   2.631   1.201   5.306  0.1705 -1.5946  3.2968
   69SAPC  C317 5958   2.705   1.363   5.426  0.3351 -0.1801  0.0340
   69SAPC  H17X 5959   2.799   1.419   5.446  0.7878  0.2159 -2.6908
   69SAPC  H17Y 5960   2.682   1.321   5.526 -0.6783  0.0159 -0.1028
   69SAPC  C318 5961   2.600   1.468   5.385 -0.1094  0.6111 -0.3050
   69SAPC  H18X 5962   2.589   1.480   5.275  0.9540  0.0302 -0.4911
   69SAPC  H18Y 5963   2.641   1.559   5.435  1.4374 -1.2814  2.0846
   69SAPC  H18Z 5964   2.503   1.438   5.430  0.8445 -3.6469 -0.6739
   70SAPC     N 5965   0.228   1.801   3.306 -0.3074 -0.4832 -0.7076
   70SAPC   C12 5966   0.332   1.693   3.304  0.0177  0.5496 -0.3936
   70SAPC  H12A 5967   0.319   1.633   3.393 -0.2430  0.7280 -0.3119
   70SAPC  H12B 5968   0.431   1.734   3.321 -0.2898  1.2597 -0.3002
   70SAPC   C13 5969   0.094   1.739   3.316  0.6189 -0.5072  0.2964
   70SAPC  H13A 5970   0.013   1.810   3.317 -0.0674 -1.2814  0.2666
   70SAPC  H13B 5971   0.075   1.672   3.234 -1.2981 -1.5641  1.5105
   70SAPC  H13C 5972   0.076   1.681   3.406  0.4374  0.9787  1.2601
   70SAPC   C14 5973   0.254   1.882   3.436  0.0503 -0.0908 -0.6790
   70SAPC  H14A 5974   0.346   1.936   3.453 -1.2171  1.6020  1.2499
   70SAPC  H14B 5975   0.177   1.958   3.441  1.9393  1.8179  2.0831
   70SAPC  H14C 5976   0.236   1.824   3.524 -0.6587  0.8284 -0.1956
   70SAPC   C15 5977   0.232   1.879   3.179 -0.2676 -0.2744  0.4298
   70SAPC  H15A 5978   0.162   1.961   3.170  0.5959  0.2688 -2.5654
   70SAPC  H15B 5979   0.329   1.924   3.162 -0.1240 -1.2368 -1.5288
   70SAPC  H15C 5980   0.220   1.816   3.093 -2.0360  1.5074 -0.7396
   70SAPC   C11 5981   0.336   1.590   3.185  0.3423  0.6452  0.4849
   70SAPC  H11A 5982   0.410   1.514   3.219 -0.2503  0.2521  0.9169
   70SAPC  H11B 5983   0.387   1.644   3.101  1.5238  1.7882  1.8801
   70SAPC     P 5984   0.162   1.390   3.197  0.0252 -0.1840  0.4655
   70SAPC   O13 5985   0.016   1.393   3.217  0.4307 -0.7806 -0.1152
   70SAPC   O14 5986   0.211   1.286   3.105 -0.1203  0.1928  0.0437
   70SAPC   O12 5987   0.210   1.536   3.154  0.2969  0.1935 -0.5933
   70SAPC   O11 5988   0.220   1.363   3.341  0.5632 -0.6749 -0.6391
   70SAPC    C1 5989   0.338   1.291   3.369 -0.0194 -0.4238  0.0384
   70SAPC    HA 5990   0.415   1.309   3.291 -1.1874  1.5105 -0.7508
   70SAPC    HB 5991   0.376   1.347   3.457 -0.8700  3.5718 -1.9261
   70SAPC    C2 5992   0.309   1.150   3.401 -0.2125  0.9376 -0.1499
   70SAPC    HS 5993   0.280   1.116   3.300  0.5669  3.3770 -1.2693
   70SAPC   O21 5994   0.198   1.135   3.489 -0.4170 -0.2330  0.2973
   70SAPC   C21 5995   0.141   1.017   3.501 -0.4052  0.5446 -0.5366
   70SAPC   O22 5996   0.176   0.915   3.450 -0.0841  0.0724 -0.1869
   70SAPC   C22 5997   0.011   1.040   3.577 -0.6239  0.3416 -0.0653
   70SAPC   H2R 5998   0.036   1.069   3.681 -0.4391 -1.2977  0.3791
   70SAPC   H2S 5999  -0.042   1.122   3.524 -0.8803 -0.4435 -1.0614
   70SAPC    C3 6000   0.437   1.067   3.451  0.6594  0.2339 -0.4164
   70SAPC    HX 6001   0.503   1.072   3.362 -0.3881  0.3846 -1.2107
   70SAPC    HY 6002   0.415   0.961   3.474 -1.2229  0.7926  0.5801
   70SAPC   O31 6003   0.488   1.125   3.570 -0.2343  0.7923  0.9383
   70SAPC   C31 6004   0.601   1.078   3.602  0.1849  0.0840  0.1230
   70SAPC   O32 6005   0.670   0.990   3.547 -0.5852 -0.4033  0.3123
   70SAPC   C32 6006   0.642   1.145   3.728  0.4632 -0.0856  0.5206
   70SAPC   H2X 6007   0.564   1.128   3.806 -0.0073 -1.6874 -0.2457
   70SAPC   H2Y 6008   0.652   1.254   3.715 -0.5900  0.2034  1.8713
   70SAPC   C23 6009  -0.086   0.915   3.587 -0.2100 -0.1667  0.0638
   70SAPC   H3R 6010  -0.046   0.850   3.668 -0.6095  0.1164  0.4883
   70SAPC   H3S 6011  -0.093   0.856   3.493 -2.3745 -0.1327  0.1525
   70SAPC   C24 6012  -0.228   0.955   3.633  0.3453  0.1247  0.2496
   70SAPC   H4R 6013  -0.287   1.026   3.572  2.3113  0.4060 -1.4311
   70SAPC   H4S 6014  -0.202   1.021   3.718 -2.3472  1.4272  0.1687
   70SAPC   C25 6015  -0.304   0.830   3.682  0.2520 -0.0992  0.3412
   70SAPC   H5R 6016  -0.326   0.751   3.610 -0.6534  0.2770  0.1957
   70SAPC   C26 6017  -0.305   0.793   3.814  0.0635 -0.1893  0.5416
   70SAPC   H6R 6018  -0.369   0.712   3.852  0.0472 -0.2520  0.3786
   70SAPC   C27 6019  -0.265   0.886   3.924 -0.2008  0.1396  0.4688
   70SAPC   H7R 6020  -0.303   0.854   4.023 -0.2473  0.3564  0.5215
   70SAPC   H7S 6021  -0.319   0.983   3.912 -1.2380 -0.1867  2.1847
   70SAPC   C28 6022  -0.112   0.892   3.937 -0.2387 -0.7965 -0.1936
   70SAPC   H8R 6023  -0.053   0.818   3.879 -0.3641  0.8189 -2.5263
   70SAPC   C29 6024  -0.049   0.958   4.038  0.8257 -0.3965 -0.3201
   70SAPC   H9R 6025   0.060   0.941   4.044  0.9637  0.7994  1.3855
   70SAPC  C210 6026  -0.101   1.047   4.150  0.4819 -0.1477 -0.0131
   70SAPC  H10R 6027  -0.212   1.045   4.157  0.3605  2.6181  0.1127
   70SAPC  H10S 6028  -0.076   1.153   4.128 -1.4836  0.5911  1.0486
   70SAPC  C211 6029  -0.040   1.009   4.281  0.3266  0.0471 -0.7780
   70SAPC  H11R 6030   0.060   0.965   4.290 -0.7835 -2.3604  0.6575
   70SAPC  C212 6031  -0.104   1.029   4.401 -0.1351  0.4347 -0.2242
   70SAPC  H12R 6032  -0.051   1.008   4.495  0.2063 -2.0346 -0.8913
   70SAPC  C213 6033  -0.246   1.085   4.432  0.6917  0.2148  0.1922
   70SAPC  H13R 6034  -0.321   1.091   4.351 -1.1245 -1.7202  1.6183
   70SAPC  H13S 6035  -0.245   1.190   4.469 -2.5827  0.3210  0.2209
   70SAPC  C214 6036  -0.313   0.988   4.531  0.3101 -0.0032  0.0667
   70SAPC  H14R 6037  -0.328   0.887   4.490  1.2523  0.1567 -0.6874
   70SAPC  C215 6038  -0.324   1.003   4.668 -0.2326 -0.4228 -0.2168
   70SAPC  H15R 6039  -0.380   0.929   4.726  0.4161  0.5517  1.7560
   70SAPC  C216 6040  -0.283   1.130   4.744 -0.2945  0.6525  0.2750
   70SAPC  H16R 6041  -0.370   1.177   4.794 -0.1471 -0.0860  1.2765
   70SAPC  H16S 6042  -0.249   1.215   4.682  1.2111  0.8755  1.3519
   70SAPC  C217 6043  -0.176   1.097   4.845 -0.9123  0.0036  0.0690
   70SAPC  H17R 6044  -0.096   1.041   4.792 -0.3890 -0.2547  1.1241
   70SAPC  H17S 6045  -0.219   1.035   4.926 -2.0739 -0.4932 -0.8975
   70SAPC  C218 6046  -0.110   1.222   4.909  0.5412  0.1392  0.6042
   70SAPC  H18R 6047  -0.191   1.276   4.963  1.1641 -0.4241  2.1478
   70SAPC  H18S 6048  -0.080   1.275   4.815 -1.7931 -0.5005 -0.5956
   70SAPC  C219 6049   0.012   1.181   4.991 -0.2441 -0.4242  0.5346
   70SAPC  H19R 6050   0.076   1.128   4.916 -0.1162  0.0114  0.3336
   70SAPC  H19S 6051  -0.011   1.121   5.082 -0.5656 -2.7663 -0.9889
   70SAPC  C220 6052   0.094   1.316   5.036  0.3336  0.3235 -0.2585
   70SAPC  H20R 6053   0.017   1.370   5.094  0.5131 -0.2554  0.5355
   70SAPC  H20S 6054   0.131   1.381   4.953 -0.1309  2.5025  1.1479
   70SAPC  H20T 6055   0.172   1.285   5.108 -0.6115 -1.0227  0.2246
   70SAPC   C33 6056   0.778   1.096   3.783  0.5164 -0.7493 -0.1416
   70SAPC   H3X 6057   0.854   1.126   3.708  0.1713  4.5651  1.2283
   70SAPC   H3Y 6058   0.784   0.986   3.794 -2.2950 -1.0748 -0.9365
   70SAPC   C34 6059   0.811   1.169   3.914 -0.6524 -0.8788 -0.0162
   70SAPC   H4X 6060   0.733   1.151   3.991 -1.1432  1.6508  0.1442
   70SAPC   H4Y 6061   0.816   1.280   3.908 -1.0173 -0.5090  3.7405
   70SAPC   C35 6062   0.943   1.125   3.976 -0.0272  0.9872  0.2681
   70SAPC   H5X 6063   1.025   1.154   3.906 -0.8674 -0.0739 -1.2111
   70SAPC   H5Y 6064   0.951   1.015   3.984  2.6741  1.0454 -0.5201
   70SAPC   C36 6065   0.975   1.188   4.109 -0.4079  0.4493  0.2378
   70SAPC   H6X 6066   0.880   1.213   4.163 -1.0117 -0.5312 -0.3376
   70SAPC   H6Y 6067   1.038   1.272   4.075  0.7106 -0.3707  0.2224
   70SAPC   C37 6068   1.060   1.094   4.191 -0.4899 -0.1028 -0.0710
   70SAPC   H7X 6069   1.014   0.994   4.180  0.2604 -0.6226  1.2473
   70SAPC   H7Y 6070   1.162   1.075   4.150 -0.5488 -2.9041  0.8678
   70SAPC   C38 6071   1.074   1.113   4.346  0.7654 -0.2866  0.0545
   70SAPC   H8X 6072   1.121   1.213   4.355  1.3364 -0.4552 -0.9345
   70SAPC   H8Y 6073   1.143   1.032   4.381  0.1780 -0.0476  1.8956
   70SAPC   C39 6074   0.944   1.103   4.435 -0.1376 -0.2320  0.1230
   70SAPC   H9X 6075   0.882   1.014   4.412 -1.5861  1.2397 -2.0038
   70SAPC   H9Y 6076   0.882   1.188   4.401 -1.5711 -1.1191  0.4597
   70SAPC  C310 6077   0.977   1.105   4.585 -0.5485 -0.2052  0.1988
   70SAPC  H10X 6078   1.056   1.027   4.594  0.1772  0.5592  0.5391
   70SAPC  H10Y 6079   0.885   1.088   4.644 -0.6185  0.6905  0.3533
   70SAPC  C311 6080   1.035   1.237   4.625  0.3034  0.5679  0.1705
   70SAPC  H11X 6081   0.963   1.317   4.601  0.2238  1.2500  2.4274
   70SAPC  H11Y 6082   1.125   1.259   4.564  0.8464 -3.2674 -0.6837
   70SAPC  C312 6083   1.072   1.255   4.776  0.4905  0.0872  0.1829
   70SAPC  H12X 6084   1.052   1.363   4.794  0.0646  0.3003 -1.4205
   70SAPC  H12Y 6085   1.180   1.228   4.774  0.3935 -0.3367 -1.7760
   70SAPC  C313 6086   0.993   1.163   4.873 -0.3280 -0.4698  1.6383
   70SAPC  H13X 6087   1.047   1.169   4.970  0.5609  1.7127  1.0942
   70SAPC  H13Y 6088   1.002   1.054   4.856  0.3191 -0.7738  3.5862
   70SAPC  C314 6089   0.850   1.210   4.881 -0.1057  0.1649 -0.5015
   70SAPC  H14X 6090   0.793   1.146   4.952  0.3242 -1.2214 -1.3503
   70SAPC  H14Y 6091   0.801   1.198   4.781  0.6094 -1.3643 -0.7042
   70SAPC  C315 6092   0.837   1.349   4.932  0.2077 -0.3158 -0.3354
   70SAPC  H15X 6093   0.892   1.421   4.868  1.6132 -0.5370  0.5767
   70SAPC  H15Y 6094   0.882   1.353   5.033  1.5692  1.5955 -0.9532
   70SAPC  C316 6095   0.688   1.383   4.951 -0.2033 -1.1248  0.2043
   70SAPC  H16X 6096   0.632   1.306   5.008  0.0364 -0.3923  1.4488
   70SAPC  H16Y 6097   0.646   1.386   4.848  0.4093 -0.5700 -0.0399
   70SAPC  C317 6098   0.652   1.516   5.020 -0.1407  0.2773  0.7542
   70SAPC  H17X 6099   0.690   1.605   4.965 -0.3780  0.5245  0.9858
   70SAPC  H17Y 6100   0.722   1.518   5.107  2.2073  1.6374 -1.0389
   70SAPC  C318 6101   0.506   1.524   5.049  0.2321  0.2567 -0.5916
   70SAPC  H18X 6102   0.487   1.608   5.119 -0.4924 -1.0490  0.8517
   70SAPC  H18Y 6103   0.467   1.438   5.107  1.8017  0.1290  0.3210
   70SAPC  H18Z 6104   0.450   1.553   4.957 -0.7179 -0.0930 -0.1323
   71SAPC     N 6105   4.426   5.013   2.899  0.5054  0.0811  0.0266
   71SAPC   C12 6106   4.478   4.919   3.009 -0.6557 -0.0612 -0.1034
   71SAPC  H12A 6107   4.541   4.848   2.956 -0.8914  1.2335 -2.2459
   71SAPC  H12B 6108   4.391   4.871   3.052 -0.2991 -0.8623 -0.2515
   71SAPC   C13 6109   4.318   5.104   2.960 -0.1915  0.0147 -0.0874
   71SAPC  H13A 6110   4.274   5.162   2.881  1.2348 -2.0781 -2.5658
   71SAPC  H13B 6111   4.239   5.046   3.004  0.7397 -2.0091 -0.9659
   71SAPC  H13C 6112   4.368   5.167   3.033  2.0840 -1.0988 -0.5816
   71SAPC   C14 6113   4.546   5.091   2.857 -0.3516 -0.3204 -0.3162
   71SAPC  H14A 6114   4.628   5.027   2.829 -0.7445 -1.3852  0.8503
   71SAPC  H14B 6115   4.524   5.156   2.774  4.0660 -0.2554 -1.6913
   71SAPC  H14C 6116   4.579   5.155   2.938  3.6154 -0.1334 -1.8766
   71SAPC   C15 6117   4.380   4.937   2.771 -0.0135 -0.3845  0.3816
   71SAPC  H15A 6118   4.354   5.003   2.689  1.0158 -0.9925 -0.4505
   71SAPC  H15B 6119   4.464   4.876   2.742 -1.1784 -1.0269 -1.9300
   71SAPC  H15C 6120   4.306   4.871   2.812 -0.3910  0.4554  1.0882
   71SAPC   C11 6121   4.560   4.977   3.136 -0.8603 -0.0932  0.0068
   71SAPC  H11A 6122   4.655   5.020   3.098 -1.0546 -1.4412 -2.1846
   71SAPC  H11B 6123   4.586   4.887   3.196 -0.3805  0.8661  1.2781
   71SAPC     P 6124   4.349   5.025   3.298  0.1748  0.1423 -0.0712
   71SAPC   O13 6125   4.272   5.139   3.347  0.5409 -1.0175  0.6280
   71SAPC   O14 6126   4.275   4.920   3.221 -0.2665  0.0016 -0.0268
   71SAPC   O12 6127   4.480   5.076   3.215  0.7114  0.0067  0.2566
   71SAPC   O11 6128   4.393   4.952   3.423 -0.5416  0.2275  0.3795
   71SAPC    C1 6129   4.531   4.919   3.450  0.0923  0.5263 -0.1672
   71SAPC    HA 6130   4.554   4.818   3.409 -1.3321  0.4109 -0.7501
   71SAPC    HB 6131   4.597   5.002   3.417  0.5238  1.8370  3.5357
   71SAPC    C2 6132   4.545   4.919   3.603 -0.2519  0.1695  0.2442
   71SAPC    HS 6133   4.649   4.891   3.631  0.1650  1.2218 -0.2104
   71SAPC   O21 6134   4.459   4.819   3.651 -0.4945  0.5451 -0.7369
   71SAPC   C21 6135   4.482   4.690   3.615  1.0607 -0.1692 -0.0615
   71SAPC   O22 6136   4.578   4.643   3.562 -0.2152  0.1559 -0.2210
   71SAPC   C22 6137   4.356   4.622   3.665 -0.1283 -0.4972 -0.6400
   71SAPC   H2R 6138   4.271   4.693   3.658 -0.7593 -0.9130  1.8400
   71SAPC   H2S 6139   4.343   4.534   3.598  2.7789 -2.3330  0.9887
   71SAPC    C3 6140   4.515   5.053   3.663  0.4987  0.3126  0.4836
   71SAPC    HX 6141   4.424   5.095   3.616 -0.6514 -0.6404  1.7791
   71SAPC    HY 6142   4.607   5.111   3.640  1.8821 -2.3412 -1.2774
   71SAPC   O31 6143   4.511   5.049   3.806  0.0453 -0.2102 -0.0479
   71SAPC   C31 6144   4.400   5.018   3.867 -0.5827  0.7671 -0.6530
   71SAPC   O32 6145   4.288   5.012   3.823  0.0514  0.8889  0.6466
   71SAPC   C32 6146   4.434   4.985   4.011 -0.4955  0.5647 -0.7094
   71SAPC   H2X 6147   4.357   4.924   4.063  0.5855  1.5545  2.3040
   71SAPC   H2Y 6148   4.452   5.081   4.066 -0.3481 -0.5601  1.3184
   71SAPC   C23 6149   4.385   4.584   3.809  0.8641 -0.1450 -0.8808
   71SAPC   H3R 6150   4.397   4.684   3.855 -0.8688 -1.2466  2.3404
   71SAPC   H3S 6151   4.468   4.514   3.834  1.1367  1.0268  1.8634
   71SAPC   C24 6152   4.260   4.542   3.899 -0.0747 -0.5723  0.9446
   71SAPC   H4R 6153   4.178   4.605   3.857  1.7192  0.5307 -1.1314
   71SAPC   H4S 6154   4.277   4.588   3.998  0.8682  1.8186 -0.2538
   71SAPC   C25 6155   4.227   4.396   3.907 -0.1965  0.0620  0.8627
   71SAPC   H5R 6156   4.312   4.341   3.950  1.4121 -0.8270 -3.0960
   71SAPC   C26 6157   4.118   4.323   3.869  0.0849 -0.3611 -0.5451
   71SAPC   H6R 6158   4.113   4.214   3.884  0.2558 -0.4625 -1.2059
   71SAPC   C27 6159   3.996   4.382   3.803  0.5987  0.5624  0.9429
   71SAPC   H7R 6160   3.983   4.491   3.820 -0.9614  0.6133 -0.3366
   71SAPC   H7S 6161   3.906   4.338   3.852  0.9037  0.7938  1.7282
   71SAPC   C28 6162   3.997   4.363   3.653 -0.2830  0.4223 -0.1944
   71SAPC   H8R 6163   4.034   4.454   3.604 -3.7201  2.1661  0.1525
   71SAPC   C29 6164   3.946   4.257   3.587 -0.0544  0.5202  0.3722
   71SAPC   H9R 6165   3.934   4.265   3.478  0.1438 -0.4057  0.2727
   71SAPC  C210 6166   3.876   4.135   3.641  0.8798 -0.2320 -0.1613
   71SAPC  H10R 6167   3.883   4.149   3.751  0.8345  1.3417 -0.3303
   71SAPC  H10S 6168   3.946   4.054   3.613 -1.0871 -2.1300  0.1393
   71SAPC  C211 6169   3.737   4.088   3.598  0.1617  0.7082 -0.0942
   71SAPC  H11R 6170   3.726   3.999   3.535 -3.7563 -0.2350  1.6053
   71SAPC  C212 6171   3.623   4.142   3.638  0.5897  0.1543 -0.5203
   71SAPC  H12R 6172   3.526   4.097   3.611 -0.0379  0.2428  1.4373
   71SAPC  C213 6173   3.619   4.262   3.735 -0.2433 -0.0646 -0.0635
   71SAPC  H13R 6174   3.666   4.349   3.684 -1.8241  0.7682 -0.1560
   71SAPC  H13S 6175   3.687   4.250   3.822  0.1850  2.3705  0.0110
   71SAPC  C214 6176   3.477   4.304   3.766  0.8272 -0.2074  0.7335
   71SAPC  H14R 6177   3.409   4.313   3.680 -0.8269  1.5036  2.1245
   71SAPC  C215 6178   3.421   4.337   3.886 -0.0759  0.2764 -0.5560
   71SAPC  H15R 6179   3.319   4.378   3.880 -0.4655 -0.8227 -1.9501
   71SAPC  C216 6180   3.480   4.336   4.019 -0.0384 -0.3830 -0.3461
   71SAPC  H16R 6181   3.571   4.275   4.000  0.6830  0.9060 -1.2503
   71SAPC  H16S 6182   3.411   4.285   4.089  0.1523  1.5118  1.3419
   71SAPC  C217 6183   3.511   4.478   4.073 -0.0993 -0.3604 -0.0954
   71SAPC  H17R 6184   3.418   4.535   4.093 -0.5663 -1.2194  0.2140
   71SAPC  H17S 6185   3.559   4.546   3.999 -0.6507  0.7369  0.5250
   71SAPC  C218 6186   3.589   4.479   4.203 -0.2323 -0.3862 -0.1130
   71SAPC  H18R 6187   3.565   4.384   4.257 -2.1719  1.8241  3.2686
   71SAPC  H18S 6188   3.551   4.556   4.272 -1.1018 -0.8710 -0.0377
   71SAPC  C219 6189   3.738   4.482   4.172 -0.0320 -0.0947 -0.3502
   71SAPC  H19R 6190   3.796   4.512   4.262  0.1257  3.2452 -1.4237
   71SAPC  H19S 6191   3.758   4.553   4.090 -1.2991  1.0982  0.3318
   71SAPC  C220 6192   3.798   4.346   4.134  0.5319  0.1816 -0.1323
   71SAPC  H20R 6193   3.908   4.363   4.126  0.6133 -0.9761 -1.8551
   71SAPC  H20S 6194   3.758   4.306   4.039 -2.1811 -2.0861  1.8136
   71SAPC  H20T 6195   3.778   4.270   4.212 -0.0610 -1.4303 -1.7858
   71SAPC   C33 6196   4.571   4.898   4.019  1.0549 -0.2840  0.2820
   71SAPC   H3X 6197   4.657   4.959   3.982  0.2455  0.4949 -0.3643
   71SAPC   H3Y 6198   4.574   4.805   3.960  0.4869 -1.3212  1.8135
   71SAPC   C34 6199   4.596   4.862   4.170 -0.6129 -1.0775  0.3976
   71SAPC   H4X 6200   4.575   4.957   4.224 -0.4084  0.1058 -1.5000
   71SAPC   H4Y 6201   4.705   4.841   4.174  0.0900  2.1696  0.9994
   71SAPC   C35 6202   4.522   4.747   4.233 -0.0470  0.0073 -0.0414
   71SAPC   H5X 6203   4.534   4.656   4.172 -1.9603 -0.6281  0.4600
   71SAPC   H5Y 6204   4.413   4.764   4.232  0.2471  2.3823  0.6585
   71SAPC   C36 6205   4.564   4.705   4.377  0.2075 -0.1710 -0.5667
   71SAPC   H6X 6206   4.637   4.621   4.374 -1.7317 -1.9965  0.6557
   71SAPC   H6Y 6207   4.471   4.659   4.417 -0.1094  0.2504 -0.8049
   71SAPC   C37 6208   4.626   4.815   4.464  0.0384 -0.0293 -0.9208
   71SAPC   H7X 6209   4.569   4.910   4.454  0.4716  0.2692 -0.6053
   71SAPC   H7Y 6210   4.731   4.828   4.429  1.3782 -3.0345  1.5305
   71SAPC   C38 6211   4.613   4.775   4.618 -0.6328 -1.1079 -0.3606
   71SAPC   H8X 6212   4.503   4.778   4.636 -0.6117  0.6467 -0.2640
   71SAPC   H8Y 6213   4.659   4.859   4.674  0.7288 -2.5680  0.7923
   71SAPC   C39 6214   4.681   4.648   4.666 -0.2575 -0.5895 -0.0441
   71SAPC   H9X 6215   4.790   4.665   4.651 -0.3369 -0.7549 -0.8946
   71SAPC   H9Y 6216   4.654   4.558   4.607 -0.0936 -0.0651 -0.9410
   71SAPC  C310 6217   4.649   4.626   4.814 -0.1371  0.2435  0.6876
   71SAPC  H10X 6218   4.687   4.710   4.876  1.5831  1.1199 -1.4619
   71SAPC  H10Y 6219   4.690   4.528   4.846  0.4851  1.3832  3.7188
   71SAPC  C311 6220   4.496   4.611   4.837 -0.6720  1.1243 -0.1063
   71SAPC  H11X 6221   4.457   4.517   4.793 -1.0468 -0.1444  2.7049
   71SAPC  H11Y 6222   4.433   4.695   4.802 -0.3136  1.0494 -0.9498
   71SAPC  C312 6223   4.462   4.598   4.994  0.1121  0.4859 -0.3071
   71SAPC  H12X 6224   4.461   4.696   5.045 -0.9462 -0.7430  2.2240
   71SAPC  H12Y 6225   4.538   4.537   5.047  0.0231 -1.0050 -1.7926
   71SAPC  C313 6226   4.327   4.530   5.009 -0.4302 -0.4371  0.4690
   71SAPC  H13X 6227   4.332   4.431   4.958 -0.0111  1.1024 -2.6750
   71SAPC  H13Y 6228   4.256   4.591   4.950  0.9330 -0.4789 -1.2944
   71SAPC  C314 6229   4.286   4.526   5.161  0.0851 -0.3233  0.1722
   71SAPC  H14X 6230   4.270   4.633   5.188 -0.0570 -0.0815 -0.8037
   71SAPC  H14Y 6231   4.373   4.485   5.216  1.3909  3.1239  0.9337
   71SAPC  C315 6232   4.158   4.446   5.179 -0.1783 -0.0637  0.0689
   71SAPC  H15X 6233   4.177   4.342   5.144  2.9232 -0.5099  2.6285
   71SAPC  H15Y 6234   4.083   4.493   5.111  0.8067  0.4662 -0.6821
   71SAPC  C316 6235   4.112   4.430   5.316  0.0317 -0.2260 -0.5248
   71SAPC  H16X 6236   4.127   4.523   5.375 -0.2635 -0.2493 -0.4066
   71SAPC  H16Y 6237   4.174   4.347   5.357 -0.7539  1.7352  5.7501
   71SAPC  C317 6238   3.960   4.394   5.331 -0.1100  0.1925 -0.1250
   71SAPC  H17X 6239   3.945   4.352   5.432 -2.5876 -0.6606 -0.7753
   71SAPC  H17Y 6240   3.938   4.313   5.259  1.2534 -1.4625  1.2595
   71SAPC  C318 6241   3.858   4.509   5.302  0.2853 -0.4573 -0.1999
   71SAPC  H18X 6242   3.870   4.606   5.355 -0.1521  0.1731 -1.2172
   71SAPC  H18Y 6243   3.756   4.482   5.337  0.5148 -0.3877  0.5514
   71SAPC  H18Z 6244   3.860   4.534   5.194  2.4804 -0.2003 -0.1423
   72SAPC     N 6245   0.328   3.276   3.215  0.1787  0.4483  0.6836
   72SAPC   C12 6246   0.405   3.275   3.342 -0.1670  0.1332 -0.4906
   72SAPC  H12A 6247   0.346   3.233   3.422 -0.1621 -0.7847 -0.9482
   72SAPC  H12B 6248   0.427   3.377   3.370 -1.9758  0.5228 -0.3577
   72SAPC   C13 6249   0.263   3.139   3.202 -0.4148 -0.3547 -0.4964
   72SAPC  H13A 6250   0.193   3.139   3.119 -1.9397 -1.7307  0.7297
   72SAPC  H13B 6251   0.340   3.072   3.168 -0.1705 -1.5910  2.2753
   72SAPC  H13C 6252   0.215   3.097   3.289  0.4817 -1.6690 -0.6150
   72SAPC   C14 6253   0.218   3.379   3.213  0.0334 -0.1766  0.2406
   72SAPC  H14A 6254   0.152   3.356   3.296 -1.9960 -0.1098 -1.2699
   72SAPC  H14B 6255   0.261   3.475   3.236 -2.9557  0.4391  4.3623
   72SAPC  H14C 6256   0.176   3.382   3.114 -0.8923  1.5176  0.6477
   72SAPC   C15 6257   0.419   3.304   3.100 -0.0643  0.3264  0.5060
   72SAPC  H15A 6258   0.378   3.277   3.003  1.3472  1.4901 -0.4652
   72SAPC  H15B 6259   0.434   3.411   3.094 -0.9440  0.4002 -1.0314
   72SAPC  H15C 6260   0.509   3.246   3.107 -1.8742 -2.7721 -0.0235
   72SAPC   C11 6261   0.543   3.202   3.361  0.3394  0.4063  0.4713
   72SAPC  H11A 6262   0.533   3.097   3.325 -0.3612  0.8236 -0.5974
   72SAPC  H11B 6263   0.566   3.194   3.470 -2.3429 -0.0309  1.0780
   72SAPC     P 6264   0.715   3.399   3.339  0.1545 -0.3214  0.2807
   72SAPC   O13 6265   0.816   3.455   3.240  0.0384 -0.0201  0.2872
   72SAPC   O14 6266   0.612   3.493   3.380 -0.2220 -0.1652  0.0289
   72SAPC   O12 6267   0.647   3.266   3.292 -0.6622  0.5863 -0.1264
   72SAPC   O11 6268   0.788   3.352   3.464 -0.7936  0.1753 -0.2426
   72SAPC    C1 6269   0.894   3.257   3.453 -0.2037 -0.1840  0.3245
   72SAPC    HA 6270   0.932   3.239   3.350 -0.6927 -2.4462  0.4816
   72SAPC    HB 6271   0.981   3.291   3.515  0.7593  0.5941 -1.3821
   72SAPC    C2 6272   0.850   3.125   3.516  0.5456 -0.2000 -0.1074
   72SAPC    HS 6273   0.784   3.066   3.449 -0.7763 -1.5804  2.2843
   72SAPC   O21 6274   0.777   3.146   3.643 -0.4397  0.1195 -0.1525
   72SAPC   C21 6275   0.716   3.035   3.679  0.2365 -0.1076  0.2451
   72SAPC   O22 6276   0.696   2.937   3.610 -0.0935 -0.7049  0.4197
   72SAPC   C22 6277   0.678   3.046   3.822 -0.5166  0.8877  0.0041
   72SAPC   H2R 6278   0.600   2.969   3.837  1.1744 -1.1264 -1.0430
   72SAPC   H2S 6279   0.769   3.024   3.881 -1.9761  1.9279  2.8181
   72SAPC    C3 6280   0.976   3.025   3.531  0.0490  0.2449  0.8379
   72SAPC    HX 6281   1.018   3.003   3.431  1.0543 -0.9754  1.4994
   72SAPC    HY 6282   0.943   2.929   3.576 -0.6780  0.7414  1.3945
   72SAPC   O31 6283   1.077   3.087   3.609  0.1984 -0.1251 -0.7324
   72SAPC   C31 6284   1.091   3.055   3.736 -0.1962  0.0997 -0.1977
   72SAPC   O32 6285   1.018   2.976   3.798  0.1971  0.7389  0.4880
   72SAPC   C32 6286   1.189   3.147   3.802 -0.0959  0.1353 -0.2639
   72SAPC   H2X 6287   1.177   3.249   3.759  1.1870  0.2234 -0.4665
   72SAPC   H2Y 6288   1.288   3.120   3.759  0.1217  0.0335  0.2874
   72SAPC   C23 6289   0.632   3.186   3.863 -0.5362 -0.2014 -0.4635
   72SAPC   H3R 6290   0.523   3.206   3.855 -0.8289 -0.6207  1.7738
   72SAPC   H3S 6291   0.692   3.264   3.811 -0.0449  1.4801  2.3445
   72SAPC   C24 6292   0.664   3.210   4.015 -0.8778  0.1510  0.6114
   72SAPC   H4R 6293   0.641   3.316   4.039  0.0653  0.6916 -0.7548
   72SAPC   H4S 6294   0.770   3.211   4.048 -0.3359  2.2398 -0.9694
   72SAPC   C25 6295   0.577   3.115   4.087  0.2789  0.2230  0.3386
   72SAPC   H5R 6296   0.476   3.096   4.048 -0.0612  0.0721  1.2488
   72SAPC   C26 6297   0.618   3.038   4.184 -0.1863  0.2196 -0.1739
   72SAPC   H6R 6298   0.537   2.972   4.219 -2.0877  0.8475 -3.0331
   72SAPC   C27 6299   0.748   3.027   4.262  0.4837 -0.0801 -0.4617
   72SAPC   H7R 6300   0.728   2.953   4.343 -2.3688 -0.2517 -1.2196
   72SAPC   H7S 6301   0.771   3.114   4.326  1.3986 -0.6851  0.0594
   72SAPC   C28 6302   0.871   2.991   4.181  0.4178  0.1406 -0.2179
   72SAPC   H8R 6303   0.856   2.965   4.076 -0.3050  5.0278 -1.5837
   72SAPC   C29 6304   0.981   2.942   4.239  0.0807 -0.0548  0.2102
   72SAPC   H9R 6305   1.057   2.902   4.171 -0.0906 -1.9028  1.0520
   72SAPC  C210 6306   1.027   2.944   4.379  0.3038 -0.0939 -0.1323
   72SAPC  H10R 6307   0.999   2.852   4.435 -1.1732  0.2346 -0.2822
   72SAPC  H10S 6308   0.976   3.023   4.437  0.8858 -0.9044  1.5227
   72SAPC  C211 6309   1.180   2.952   4.397  0.6090  0.6313  0.0185
   72SAPC  H11R 6310   1.237   2.931   4.306 -0.9573  1.2421 -1.1524
   72SAPC  C212 6311   1.240   2.990   4.507 -0.5922 -0.1967  0.6873
   72SAPC  H12R 6312   1.349   2.980   4.504 -0.4161  1.5717 -0.0440
   72SAPC  C213 6313   1.185   3.029   4.637  0.0328  0.7181  0.5300
   72SAPC  H13R 6314   1.242   2.960   4.702  0.6807 -0.1042 -0.8650
   72SAPC  H13S 6315   1.076   3.011   4.647  0.0548  1.2515  1.8889
   72SAPC  C214 6316   1.217   3.174   4.667 -0.0656 -0.8932 -0.4185
   72SAPC  H14R 6317   1.172   3.251   4.603 -1.6568 -1.2387  0.2539
   72SAPC  C215 6318   1.279   3.226   4.773  0.0591 -0.5024  0.5438
   72SAPC  H15R 6319   1.293   3.335   4.768 -1.7343 -0.2766 -0.1516
   72SAPC  C216 6320   1.361   3.161   4.885  0.1468 -0.1808  0.9098
   72SAPC  H16R 6321   1.463   3.204   4.881  0.5980 -1.2704 -1.6591
   72SAPC  H16S 6322   1.375   3.053   4.863 -0.9125 -0.7593  2.8626
   72SAPC  C217 6323   1.315   3.182   5.028  0.0763  0.3098 -0.2222
   72SAPC  H17R 6324   1.221   3.125   5.041  0.6852 -1.1265 -1.6722
   72SAPC  H17S 6325   1.299   3.290   5.050  5.0176  1.2293 -0.0129
   72SAPC  C218 6326   1.426   3.128   5.121  0.9695 -0.4053  0.9638
   72SAPC  H18R 6327   1.521   3.174   5.087  0.3304 -0.0854 -0.4576
   72SAPC  H18S 6328   1.423   3.017   5.124  2.4674 -0.4580  3.1466
   72SAPC  C219 6329   1.411   3.197   5.258 -0.0118  0.2287 -0.6653
   72SAPC  H19R 6330   1.414   3.307   5.247 -0.7638  0.3275  0.0600
   72SAPC  H19S 6331   1.485   3.150   5.328  0.1434  0.0594 -0.9418
   72SAPC  C220 6332   1.278   3.168   5.332  0.5644 -0.1191  0.1082
   72SAPC  H20R 6333   1.269   3.185   5.441  0.3402 -3.0647  0.6104
   72SAPC  H20S 6334   1.239   3.065   5.323  2.3717 -0.9257  1.0508
   72SAPC  H20T 6335   1.201   3.229   5.279  2.3963  1.3966 -0.9450
   72SAPC   C33 6336   1.183   3.133   3.953 -0.3045 -0.3377 -0.5557
   72SAPC   H3X 6337   1.200   3.027   3.983  0.7613  0.1864  0.8121
   72SAPC   H3Y 6338   1.087   3.156   4.004  2.2577 -0.5090  5.0515
   72SAPC   C34 6339   1.292   3.208   4.030 -0.2302 -0.2969 -0.0513
   72SAPC   H4X 6340   1.293   3.315   4.000  1.8767 -0.4126 -0.6140
   72SAPC   H4Y 6341   1.396   3.180   4.001  0.1168  0.1399  0.7321
   72SAPC   C35 6342   1.299   3.183   4.180 -0.1475  0.1312  0.4843
   72SAPC   H5X 6343   1.333   3.078   4.191  0.3408 -0.0608 -2.1885
   72SAPC   H5Y 6344   1.196   3.197   4.219  0.1263 -0.0026  1.2715
   72SAPC   C36 6345   1.412   3.267   4.250 -0.0064  0.0432 -0.6056
   72SAPC   H6X 6346   1.397   3.375   4.226 -0.1643  1.1315  3.4854
   72SAPC   H6Y 6347   1.506   3.227   4.208  0.2018 -2.8383  2.2583
   72SAPC   C37 6348   1.429   3.258   4.402  0.1376  0.3979  0.6769
   72SAPC   H7X 6349   1.452   3.155   4.437 -1.9303  0.4367  2.3306
   72SAPC   H7Y 6350   1.330   3.280   4.446 -0.3262 -1.0899  0.4339
   72SAPC   C38 6351   1.539   3.337   4.456 -0.1741 -0.4896 -0.2228
   72SAPC   H8X 6352   1.515   3.446   4.448  0.2708 -0.3533  0.2485
   72SAPC   H8Y 6353   1.631   3.317   4.397 -0.3667  0.0274 -0.7122
   72SAPC   C39 6354   1.570   3.322   4.606  0.1477  0.1591 -0.5409
   72SAPC   H9X 6355   1.610   3.220   4.621 -2.7088 -1.1341 -0.9036
   72SAPC   H9Y 6356   1.478   3.337   4.667  0.6442 -0.1236  0.2812
   72SAPC  C310 6357   1.669   3.417   4.679  0.8385  0.2525  0.1935
   72SAPC  H10X 6358   1.627   3.518   4.665  0.2010 -0.1769 -1.1721
   72SAPC  H10Y 6359   1.767   3.415   4.627 -0.1376 -1.1170 -1.7212
   72SAPC  C311 6360   1.682   3.373   4.828  0.5544  0.9574  0.1157
   72SAPC  H11X 6361   1.701   3.264   4.841 -1.4958  0.5356 -0.0561
   72SAPC  H11Y 6362   1.583   3.384   4.877  1.0704  1.2087  1.1327
   72SAPC  C312 6363   1.788   3.460   4.908 -0.0706 -0.1260  0.1692
   72SAPC  H12X 6364   1.776   3.566   4.878 -0.8779 -0.8203 -2.1776
   72SAPC  H12Y 6365   1.888   3.424   4.878 -0.0567  0.8347 -1.0103
   72SAPC  C313 6366   1.763   3.449   5.058 -0.2372  0.2610 -0.0495
   72SAPC  H13X 6367   1.733   3.346   5.087  1.0381 -0.2054 -0.3148
   72SAPC  H13Y 6368   1.674   3.510   5.084 -0.0811 -0.3496  2.0861
   72SAPC  C314 6369   1.878   3.511   5.140  0.2182 -0.5978  0.1464
   72SAPC  H14X 6370   1.881   3.622   5.138  2.4597 -0.6293 -0.7679
   72SAPC  H14Y 6371   1.974   3.474   5.097  0.7936  0.5016  0.4675
   72SAPC  C315 6372   1.858   3.469   5.287  0.7248 -0.2310 -0.2437
   72SAPC  H15X 6373   1.951   3.501   5.340 -0.3788  0.9532  1.0620
   72SAPC  H15Y 6374   1.851   3.360   5.306 -0.8589  0.2381  2.3758
   72SAPC  C316 6375   1.740   3.543   5.367  0.3036 -0.4553  0.6944
   72SAPC  H16X 6376   1.722   3.505   5.470 -3.2851 -0.1766  0.2927
   72SAPC  H16Y 6377   1.640   3.526   5.321  0.3851  1.1914 -0.1438
   72SAPC  C317 6378   1.753   3.691   5.383 -1.1847 -0.1024  0.5553
   72SAPC  H17X 6379   1.649   3.732   5.382 -1.2659 -0.2897 -1.0469
   72SAPC  H17Y 6380   1.806   3.745   5.303 -1.0784  1.3246  1.5426
   72SAPC  C318 6381   1.839   3.728   5.513 -0.2618 -0.0612  0.0929
   72SAPC  H18X 6382   1.940   3.681   5.509 -0.1818  0.1727 -0.6883
   72SAPC  H18Y 6383   1.802   3.689   5.611  0.6646 -0.3701  0.3280
   72SAPC  H18Z 6384   1.843   3.838   5.523 -0.1756 -0.1649  1.3499
   73SLPC     N 6385   4.299   5.861   7.669  0.0240  0.1567 -0.0246
   73SLPC   C13 6386   4.263   5.988   7.734  0.3031  0.0167  0.3451
   73SLPC  H13A 6387   4.216   6.054   7.664 -2.1832 -0.1013  1.7776
   73SLPC  H13B 6388   4.200   5.966   7.819 -0.0805 -0.9052 -0.1666
   73SLPC  H13C 6389   4.352   6.040   7.767 -1.7199  2.0382  3.2074
   73SLPC   C14 6390   4.164   5.792   7.652 -0.1915 -0.0154  0.1902
   73SLPC  H14A 6391   4.096   5.859   7.601  1.4349  3.0889  1.8042
   73SLPC  H14B 6392   4.174   5.701   7.596  1.2543 -0.5171  1.2042
   73SLPC  H14C 6393   4.124   5.766   7.748 -0.6762 -0.7672 -0.2093
   73SLPC   C15 6394   4.381   5.776   7.765  0.4129  0.0497 -0.2283
   73SLPC  H15A 6395   4.373   5.670   7.745  0.0621  0.2574 -1.2625
   73SLPC  H15B 6396   4.484   5.807   7.767 -0.3458  2.9338  2.5740
   73SLPC  H15C 6397   4.346   5.797   7.865 -0.2219  0.9039 -0.6208
   73SLPC   C12 6398   4.365   5.880   7.532  0.2304  1.1338  0.0283
   73SLPC  H12A 6399   4.469   5.907   7.544  0.8229 -0.7241 -0.5679
   73SLPC  H12B 6400   4.323   5.958   7.471 -1.1402  1.2010  1.0027
   73SLPC   C11 6401   4.345   5.758   7.431 -0.2715 -0.5491 -0.6417
   73SLPC  H11A 6402   4.400   5.794   7.342  1.6257  0.4518  0.8375
   73SLPC  H11B 6403   4.239   5.757   7.396 -1.1666  1.3714  1.6575
   73SLPC     P 6404   4.319   5.501   7.459 -0.3147  0.0310  0.2125
   73SLPC   O13 6405   4.419   5.399   7.429  0.3522  0.4518 -0.3295
   73SLPC   O14 6406   4.239   5.483   7.580  0.3488 -0.5786  0.3899
   73SLPC   O12 6407   4.396   5.635   7.474 -0.0682  0.2250  0.0171
   73SLPC   O11 6408   4.221   5.523   7.341  0.4392 -0.0906  1.0073
   73SLPC    C1 6409   4.147   5.413   7.282  0.0317  0.1898 -0.0708
   73SLPC    HA 6410   4.207   5.334   7.234 -0.4460  0.5330 -1.2846
   73SLPC    HB 6411   4.079   5.368   7.358 -1.1379 -0.2833 -1.3380
   73SLPC    C2 6412   4.042   5.479   7.186 -0.1335 -0.0561  0.4446
   73SLPC    HS 6413   3.963   5.402   7.171  0.0337  0.1543 -1.8421
   73SLPC   O21 6414   4.104   5.510   7.058  0.0485 -0.0074 -0.1147
   73SLPC   C21 6415   4.047   5.455   6.947  0.2060 -0.4329 -0.2201
   73SLPC   O22 6416   3.960   5.370   6.947  0.2598  0.3632 -0.4282
   73SLPC   C22 6417   4.100   5.520   6.819 -0.2657 -0.0630 -0.7166
   73SLPC   H2R 6418   4.123   5.628   6.814 -0.3033 -0.0960 -2.7924
   73SLPC   H2S 6419   4.196   5.469   6.794 -0.2977 -0.4711 -0.0289
   73SLPC    C3 6420   3.965   5.597   7.252  0.0427 -0.3208 -0.2760
   73SLPC    HX 6421   4.028   5.679   7.293  0.5723  1.9366 -4.8946
   73SLPC    HY 6422   3.912   5.547   7.336 -1.0482 -2.4732 -2.1409
   73SLPC   O31 6423   3.861   5.643   7.160 -0.1902 -0.4150 -0.0296
   73SLPC   C31 6424   3.732   5.634   7.201 -0.6069 -0.9991  0.3645
   73SLPC   O32 6425   3.700   5.592   7.309  0.1212 -0.2075 -0.1868
   73SLPC   C32 6426   3.643   5.686   7.089  0.4358  0.3162 -0.2916
   73SLPC   H2X 6427   3.666   5.794   7.079 -1.0422  0.5709 -1.3968
   73SLPC   H2Y 6428   3.537   5.680   7.124 -0.2980 -0.3371 -2.4349
   73SLPC   C23 6429   4.011   5.524   6.697 -0.7303  0.5559  0.5458
   73SLPC   H3R 6430   3.927   5.594   6.715 -0.2449  1.0835  0.7831
   73SLPC   H3S 6431   3.974   5.420   6.680  0.4533 -0.0290  1.3790
   73SLPC   C24 6432   4.073   5.578   6.561 -0.1325  1.6387  0.7179
   73SLPC   H4R 6433   4.159   5.510   6.542 -1.0189 -0.6703  4.0171
   73SLPC   H4S 6434   4.103   5.682   6.585  2.1625  1.0843  0.4710
   73SLPC   C25 6435   3.963   5.576   6.456 -0.2734 -0.3639 -0.4026
   73SLPC   H5R 6436   3.880   5.635   6.500  0.7585 -0.4055  1.6911
   73SLPC   H5S 6437   3.933   5.470   6.437  1.9706 -1.1871  0.3863
   73SLPC   C26 6438   4.005   5.639   6.324  0.9010  0.2527 -1.0594
   73SLPC   H6R 6439   4.093   5.581   6.288  0.7878 -0.1232 -0.7460
   73SLPC   H6S 6440   4.030   5.744   6.347 -1.8052  0.5958  0.8661
   73SLPC   C27 6441   3.899   5.642   6.219 -0.5834  0.5869  0.4607
   73SLPC   H7R 6442   3.816   5.705   6.258  1.8797  3.6051  1.3270
   73SLPC   H7S 6443   3.854   5.542   6.208 -1.2288  1.0841 -1.8261
   73SLPC   C28 6444   3.956   5.692   6.081  0.2887  0.4837  0.2032
   73SLPC   H8R 6445   4.030   5.618   6.044  0.6696  1.6855 -1.5896
   73SLPC   H8S 6446   4.019   5.783   6.096  2.2274 -0.8558  0.5147
   73SLPC   C29 6447   3.843   5.705   5.982  0.1401  0.2645 -0.0423
   73SLPC   H9R 6448   3.753   5.643   5.993  1.1632 -1.5443 -1.4858
   73SLPC  C210 6449   3.836   5.781   5.870  0.7305  0.4196 -0.1221
   73SLPC  H10R 6450   3.739   5.797   5.823  0.6679  0.9029  0.1718
   73SLPC  C211 6451   3.950   5.874   5.836  0.6857  0.4207 -0.2122
   73SLPC  H11R 6452   4.031   5.864   5.911  0.4425  0.7077  0.0936
   73SLPC  H11S 6453   3.915   5.977   5.859 -1.5761  0.2062 -2.2404
   73SLPC  C212 6454   3.997   5.852   5.695  0.1992  0.5739  0.2613
   73SLPC  H12R 6455   4.023   5.749   5.666  3.4064  1.8417 -1.8678
   73SLPC  C213 6456   4.001   5.944   5.596 -0.2836  0.8788 -0.0627
   73SLPC  H13R 6457   4.019   5.919   5.491  2.7478 -0.8560  0.7635
   73SLPC  C214 6458   3.967   6.085   5.611 -0.4336 -0.1520 -0.6063
   73SLPC  H14R 6459   3.872   6.085   5.669  0.9499 -0.2419  1.7561
   73SLPC  H14S 6460   3.946   6.135   5.513  0.0795 -1.0331 -1.1781
   73SLPC  C215 6461   4.064   6.171   5.694 -0.1786 -0.3474 -0.1834
   73SLPC  H15R 6462   4.169   6.166   5.656  0.2171  1.3128  0.5877
   73SLPC  H15S 6463   4.070   6.134   5.798 -1.2510 -1.3228 -0.4483
   73SLPC  C216 6464   4.021   6.325   5.694  0.4571  0.1100  0.0378
   73SLPC  H16R 6465   3.923   6.340   5.744  0.1050 -0.5144 -0.4500
   73SLPC  H16S 6466   4.006   6.345   5.586  3.0367 -0.5916 -0.5241
   73SLPC  C217 6467   4.132   6.413   5.739  0.2608  0.5979  0.0384
   73SLPC  H17R 6468   4.192   6.368   5.821  0.5677 -0.1182 -0.5715
   73SLPC  H17S 6469   4.096   6.513   5.773 -0.3787  0.6506 -0.7775
   73SLPC  C218 6470   4.230   6.437   5.625 -0.6634  0.8142 -0.2004
   73SLPC  H18R 6471   4.302   6.521   5.637  1.5510 -1.0197  0.1420
   73SLPC  H18S 6472   4.167   6.462   5.537 -2.4018 -1.0410  0.4382
   73SLPC  H18T 6473   4.284   6.345   5.594  1.1037  0.8505  2.4827
   73SLPC   C33 6474   3.656   5.611   6.952 -0.5563  0.5391  0.0347
   73SLPC   H3X 6475   3.626   5.505   6.967  0.3052  0.4375  1.1453
   73SLPC   H3Y 6476   3.761   5.604   6.917 -0.9056 -0.6168 -0.8578
   73SLPC   C34 6477   3.570   5.679   6.849  0.1609  0.2990 -0.0135
   73SLPC   H4X 6478   3.593   5.787   6.840  2.1705 -0.1004 -0.1727
   73SLPC   H4Y 6479   3.467   5.678   6.891  0.0476  0.5562 -0.2782
   73SLPC   C35 6480   3.581   5.614   6.707 -0.2794 -0.6721  0.4549
   73SLPC   H5X 6481   3.547   5.509   6.721 -2.5573 -0.2571 -1.3180
   73SLPC   H5Y 6482   3.684   5.614   6.667  0.2294  0.0134  1.7304
   73SLPC   C36 6483   3.484   5.672   6.592 -0.1509  0.2061 -0.4710
   73SLPC   H6X 6484   3.504   5.781   6.583 -0.9233  0.2493 -1.9939
   73SLPC   H6Y 6485   3.380   5.653   6.627  0.3421 -0.1688  0.8221
   73SLPC   C37 6486   3.501   5.624   6.449 -0.0740  0.0152  0.3888
   73SLPC   H7X 6487   3.452   5.525   6.437  0.9494 -0.5981  1.1110
   73SLPC   H7Y 6488   3.609   5.623   6.424 -0.4532  3.1535 -2.0416
   73SLPC   C38 6489   3.439   5.725   6.353 -0.2349 -0.0876  0.3920
   73SLPC   H8X 6490   3.467   5.831   6.375  1.0486 -0.1567 -0.7455
   73SLPC   H8Y 6491   3.329   5.733   6.369  0.1809  2.2196  3.1073
   73SLPC   C39 6492   3.484   5.696   6.209  0.3651 -0.5710 -0.0366
   73SLPC   H9X 6493   3.588   5.658   6.211  1.0309  1.1804  0.6117
   73SLPC   H9Y 6494   3.487   5.789   6.148 -0.1670  0.0402  0.8454
   73SLPC  C310 6495   3.402   5.582   6.139  0.3520  0.2139 -0.0429
   73SLPC  H10X 6496   3.294   5.603   6.124 -0.0450 -2.2699 -1.1863
   73SLPC  H10Y 6497   3.414   5.507   6.219  0.1501  0.6565  0.4060
   73SLPC  C311 6498   3.457   5.538   5.999 -0.1430 -0.4239  0.1593
   73SLPC  H11X 6499   3.419   5.436   5.974  1.1736 -0.5896 -1.2818
   73SLPC  H11Y 6500   3.566   5.522   6.011 -0.3173 -2.1677 -0.3400
   73SLPC  C312 6501   3.437   5.647   5.881  0.0363 -0.0131 -0.0149
   73SLPC  H12X 6502   3.478   5.740   5.925  0.1365  0.1009 -0.3480
   73SLPC  H12Y 6503   3.329   5.663   5.860 -0.5897 -0.5326  2.4320
   73SLPC  C313 6504   3.515   5.611   5.755 -0.6450  0.1353 -0.0827
   73SLPC  H13X 6505   3.625   5.622   5.768 -0.6676  0.0901  0.1517
   73SLPC  H13Y 6506   3.483   5.671   5.667  1.7618  0.9340 -0.4912
   73SLPC  C314 6507   3.516   5.465   5.713 -0.0321  0.2644 -0.6786
   73SLPC  H14X 6508   3.543   5.400   5.799  0.1388 -0.0341 -0.9542
   73SLPC  H14Y 6509   3.603   5.449   5.645  0.7750 -1.0275  0.6023
   73SLPC  C315 6510   3.378   5.424   5.653  0.4488 -0.4159  0.4854
   73SLPC  H15X 6511   3.351   5.510   5.589 -2.7441 -0.5648  1.4633
   73SLPC  H15Y 6512   3.310   5.415   5.741  0.9535 -0.5097  0.8746
   73SLPC  C316 6513   3.385   5.298   5.571 -0.7350 -0.4183 -0.3978
   73SLPC  H16X 6514   3.471   5.303   5.501 -0.2290 -0.8567  0.1826
   73SLPC  H16Y 6515   3.298   5.280   5.504 -0.0816 -0.5340 -1.2385
   73SLPC  C317 6516   3.379   5.174   5.661  0.3662  0.1595  0.5988
   73SLPC  H17X 6517   3.315   5.097   5.613 -0.5259  0.5557  1.1243
   73SLPC  H17Y 6518   3.336   5.197   5.761 -0.5463 -0.4732  0.3583
   73SLPC  C318 6519   3.521   5.111   5.684  0.1866 -0.4926 -0.4250
   73SLPC  H18X 6520   3.572   5.102   5.586  1.0628 -0.8822  0.0603
   73SLPC  H18Y 6521   3.507   5.016   5.739 -1.0556  1.3074  2.6562
   73SLPC  H18Z 6522   3.579   5.181   5.748 -0.9342 -0.8047  0.9868
   74SLPC     N 6523   3.317   1.082   7.938  0.4755  0.1248 -0.0456
   74SLPC   C13 6524   3.383   1.088   7.803 -0.1358  0.2656  0.1330
   74SLPC  H13A 6525   3.433   1.182   7.788 -0.8023  0.2795 -2.6653
   74SLPC  H13B 6526   3.456   1.010   7.786 -1.2309 -0.6473 -0.5641
   74SLPC  H13C 6527   3.302   1.067   7.734  0.2537  0.1398 -0.2903
   74SLPC   C14 6528   3.206   1.182   7.945  0.0464 -0.0237  0.5617
   74SLPC  H14A 6529   3.249   1.281   7.934 -0.2560  0.0128 -0.4162
   74SLPC  H14B 6530   3.130   1.160   7.871 -0.7505  2.7824  0.3907
   74SLPC  H14C 6531   3.157   1.167   8.040  2.0209 -3.0863  1.2088
   74SLPC   C15 6532   3.412   1.117   8.051  0.3715 -0.4836  0.2930
   74SLPC  H15A 6533   3.474   1.205   8.037  1.5689 -1.0256  1.8736
   74SLPC  H15B 6534   3.357   1.115   8.143 -0.4434  0.9220 -0.1424
   74SLPC  H15C 6535   3.490   1.042   8.058  0.6468 -0.1607  0.7170
   74SLPC   C12 6536   3.252   0.943   7.957  0.0586 -0.2399  0.3851
   74SLPC  H12A 6537   3.165   0.933   7.895 -0.7431  1.9977  1.0729
   74SLPC  H12B 6538   3.222   0.934   8.060 -1.6822 -3.6860 -0.2941
   74SLPC   C11 6539   3.335   0.819   7.932 -0.3848 -0.0487 -0.4795
   74SLPC  H11A 6540   3.277   0.734   7.973 -2.0934 -0.1917 -3.0115
   74SLPC  H11B 6541   3.431   0.802   7.985 -1.3808 -3.6196  0.4462
   74SLPC     P 6542   3.247   0.754   7.693  0.3567 -0.3437 -0.1366
   74SLPC   O13 6543   3.208   0.616   7.722 -0.3580  0.1492 -0.4236
   74SLPC   O14 6544   3.134   0.851   7.687 -0.3505  0.4326 -0.0342
   74SLPC   O12 6545   3.355   0.809   7.791 -0.2548 -0.1374  0.6615
   74SLPC   O11 6546   3.324   0.755   7.553 -0.3135  0.4078  0.0861
   74SLPC    C1 6547   3.413   0.862   7.527 -0.3359 -0.2723 -0.4936
   74SLPC    HA 6548   3.355   0.957   7.534  0.1261 -0.0594  0.8064
   74SLPC    HB 6549   3.497   0.866   7.600 -0.2962 -1.9759 -0.4079
   74SLPC    C2 6550   3.471   0.866   7.386 -0.1877 -0.2460  0.1458
   74SLPC    HS 6551   3.541   0.952   7.380  1.0028 -1.2577 -0.9274
   74SLPC   O21 6552   3.349   0.898   7.304  0.1163  0.2989  0.3348
   74SLPC   C21 6553   3.368   0.996   7.213 -0.2515 -0.5739  0.4521
   74SLPC   O22 6554   3.471   1.064   7.207  0.0908 -0.4473  0.2870
   74SLPC   C22 6555   3.261   0.996   7.109 -1.1055  0.0015 -0.2907
   74SLPC   H2R 6556   3.231   0.891   7.087  1.2381 -0.7939  0.0261
   74SLPC   H2S 6557   3.175   1.040   7.165 -0.3767  1.0452  0.0211
   74SLPC    C3 6558   3.546   0.737   7.339 -0.0810 -0.6595  0.4366
   74SLPC    HX 6559   3.476   0.651   7.347 -0.1623 -0.4270  2.7548
   74SLPC    HY 6560   3.629   0.720   7.411 -0.5454  1.2346  1.4758
   74SLPC   O31 6561   3.602   0.765   7.208  0.3503 -0.4952  0.0530
   74SLPC   C31 6562   3.687   0.681   7.164  0.9563  0.8351  0.8946
   74SLPC   O32 6563   3.721   0.574   7.213 -0.4783  0.6545 -0.8654
   74SLPC   C32 6564   3.745   0.728   7.029 -0.6055 -0.0892 -0.3376
   74SLPC   H2X 6565   3.754   0.647   6.953 -0.0271  0.1447 -0.5297
   74SLPC   H2Y 6566   3.850   0.749   7.058 -1.0584  1.2007  0.4738
   74SLPC   C23 6567   3.299   1.073   6.983 -0.7950 -0.0265  0.0464
   74SLPC   H3R 6568   3.386   1.027   6.931  0.4690  3.1808 -0.9674
   74SLPC   H3S 6569   3.317   1.182   6.999 -0.6920  0.4538 -2.7444
   74SLPC   C24 6570   3.193   1.068   6.870  0.1370  0.6055  0.2973
   74SLPC   H4R 6571   3.098   1.110   6.909 -1.3915  0.5628 -3.1005
   74SLPC   H4S 6572   3.153   0.971   6.834  1.8010  0.2754 -0.7402
   74SLPC   C25 6573   3.224   1.164   6.753 -0.2594  0.4413 -0.1391
   74SLPC   H5R 6574   3.255   1.264   6.788  1.8380 -0.0942 -0.3387
   74SLPC   H5S 6575   3.132   1.169   6.689 -0.5805 -2.9025 -0.1195
   74SLPC   C26 6576   3.335   1.106   6.668 -0.8083 -0.3770 -0.0167
   74SLPC   H6R 6577   3.302   1.012   6.620 -1.9135  1.3709 -2.9068
   74SLPC   H6S 6578   3.435   1.092   6.715 -0.9323  2.0706  1.1162
   74SLPC   C27 6579   3.357   1.214   6.563 -0.0449  0.2168  0.2653
   74SLPC   H7R 6580   3.416   1.296   6.609  1.5468  0.7227 -2.4972
   74SLPC   H7S 6581   3.263   1.263   6.531 -0.2256 -1.3027 -1.7245
   74SLPC   C28 6582   3.448   1.165   6.452  0.5473 -0.5325  0.0049
   74SLPC   H8R 6583   3.426   1.057   6.440  0.1661 -0.5921  1.1583
   74SLPC   H8S 6584   3.557   1.176   6.475  0.1918 -0.9365  2.0159
   74SLPC   C29 6585   3.427   1.226   6.314  1.1592  0.1680 -0.9340
   74SLPC   H9R 6586   3.435   1.336   6.314 -1.8715  0.4720 -1.2499
   74SLPC  C210 6587   3.382   1.174   6.197  0.0234  0.7554  0.1542
   74SLPC  H10R 6588   3.389   1.243   6.112  2.7479 -0.8842 -1.0895
   74SLPC  C211 6589   3.351   1.030   6.168 -0.5205  0.4387  0.4292
   74SLPC  H11R 6590   3.304   0.982   6.256  1.4065 -1.8112  0.3283
   74SLPC  H11S 6591   3.446   0.974   6.154 -1.1687 -0.8593  1.0416
   74SLPC  C212 6592   3.262   1.024   6.043 -0.3583 -0.0254  0.1335
   74SLPC  H12R 6593   3.153   1.016   6.056 -0.8210  1.3047 -2.3944
   74SLPC  C213 6594   3.307   1.031   5.916  0.2409  0.0184 -0.3296
   74SLPC  H13R 6595   3.231   1.032   5.836  0.0775  3.5307 -0.2772
   74SLPC  C214 6596   3.441   1.061   5.869 -0.4571 -0.2834 -0.3209
   74SLPC  H14R 6597   3.518   1.047   5.948 -2.2418 -0.0454  1.5389
   74SLPC  H14S 6598   3.444   1.169   5.844 -0.3134 -0.0423  0.6740
   74SLPC  C215 6599   3.481   0.987   5.739 -0.4435 -0.2466  0.1342
   74SLPC  H15R 6600   3.580   1.023   5.703 -0.3993  1.4265  1.7566
   74SLPC  H15S 6601   3.411   1.017   5.658  0.5975 -0.5954 -0.9253
   74SLPC  C216 6602   3.483   0.836   5.744 -0.1815 -0.1187  0.0585
   74SLPC  H16R 6603   3.518   0.795   5.647  2.9738  0.4303  0.8588
   74SLPC  H16S 6604   3.383   0.796   5.771  0.5992 -0.4036  2.8487
   74SLPC  C217 6605   3.569   0.778   5.856 -0.6316 -0.0585 -0.0418
   74SLPC  H17R 6606   3.568   0.667   5.852  0.6212 -0.0841  0.1196
   74SLPC  H17S 6607   3.531   0.799   5.958 -1.3052 -1.9612  0.1470
   74SLPC  C218 6608   3.713   0.825   5.840  0.4646 -0.0555 -0.2395
   74SLPC  H18R 6609   3.720   0.935   5.845 -1.2633  0.3119 -3.4736
   74SLPC  H18S 6610   3.739   0.797   5.736 -1.2797  2.2725 -1.3780
   74SLPC  H18T 6611   3.791   0.775   5.901  2.0506  0.2393 -1.9508
   74SLPC   C33 6612   3.683   0.850   6.953 -0.7110 -0.0707  0.3914
   74SLPC   H3X 6613   3.693   0.942   7.015 -1.4625 -0.6228  1.3700
   74SLPC   H3Y 6614   3.573   0.844   6.936 -0.8264  3.1688 -0.5631
   74SLPC   C34 6615   3.746   0.865   6.815 -0.3341 -0.2499  0.1778
   74SLPC   H4X 6616   3.843   0.810   6.815  1.2995  2.4203  0.9251
   74SLPC   H4Y 6617   3.780   0.969   6.799  1.0039 -0.9273 -1.7612
   74SLPC   C35 6618   3.650   0.829   6.709  1.1907  0.4136 -0.7257
   74SLPC   H5X 6619   3.556   0.885   6.727 -0.4648 -1.5100 -2.7548
   74SLPC   H5Y 6620   3.611   0.725   6.709 -0.9544  1.1076  1.7635
   74SLPC   C36 6621   3.687   0.853   6.559  0.9012 -0.0470  0.7199
   74SLPC   H6X 6622   3.709   0.957   6.530 -1.1165  0.2666  0.1737
   74SLPC   H6Y 6623   3.593   0.832   6.503  2.0592  0.4122 -1.4856
   74SLPC   C37 6624   3.795   0.771   6.501  0.4922 -0.6463 -0.2556
   74SLPC   H7X 6625   3.774   0.662   6.513 -1.5748 -0.2982 -0.2463
   74SLPC   H7Y 6626   3.897   0.789   6.540  0.2617 -1.0897  0.5825
   74SLPC   C38 6627   3.776   0.778   6.350  0.3836 -0.4936 -0.1147
   74SLPC   H8X 6628   3.820   0.875   6.321 -1.5050  0.7945  1.0933
   74SLPC   H8Y 6629   3.668   0.784   6.323  0.1877  2.9229  0.9589
   74SLPC   C39 6630   3.850   0.655   6.280  0.1576 -0.5140  0.0686
   74SLPC   H9X 6631   3.792   0.567   6.315  1.3323 -1.2666  0.2075
   74SLPC   H9Y 6632   3.950   0.647   6.328 -0.2301  1.6810  1.3859
   74SLPC  C310 6633   3.862   0.664   6.123  0.3102 -0.0441 -0.1248
   74SLPC  H10X 6634   3.905   0.764   6.100 -1.6868  1.0806  0.6843
   74SLPC  H10Y 6635   3.766   0.667   6.067  0.8130 -1.1499 -1.0834
   74SLPC  C311 6636   3.936   0.550   6.056  0.0576  0.1821  0.1873
   74SLPC  H11X 6637   4.035   0.534   6.105  0.1434  1.2465  0.3938
   74SLPC  H11Y 6638   3.961   0.579   5.951  0.9563  1.3197  0.6825
   74SLPC  C312 6639   3.856   0.417   6.055 -0.1378 -0.5892  0.1219
   74SLPC  H12X 6640   3.836   0.396   6.162  3.7371  2.9885  1.8092
   74SLPC  H12Y 6641   3.934   0.348   6.017  1.9807  1.7571 -0.0300
   74SLPC  C313 6642   3.732   0.412   5.956 -0.4439  0.3978 -0.1526
   74SLPC  H13X 6643   3.656   0.480   5.999 -1.5570  1.0103 -2.8785
   74SLPC  H13Y 6644   3.689   0.309   5.958  0.9705 -0.2173 -0.1418
   74SLPC  C314 6645   3.774   0.438   5.810 -0.0690 -0.0188 -0.7687
   74SLPC  H14X 6646   3.868   0.384   5.785  0.5827  0.7300 -0.0041
   74SLPC  H14Y 6647   3.795   0.546   5.794  0.4914 -0.3384 -2.4064
   74SLPC  C315 6648   3.663   0.390   5.721  0.5796  0.0976 -0.1178
   74SLPC  H15X 6649   3.654   0.474   5.649  0.2847  2.8450  2.8571
   74SLPC  H15Y 6650   3.569   0.391   5.781 -0.3036 -0.3672 -1.4641
   74SLPC  C316 6651   3.688   0.259   5.642 -0.4319  0.0625 -0.1210
   74SLPC  H16X 6652   3.679   0.172   5.711 -2.8972 -0.2209 -0.7352
   74SLPC  H16Y 6653   3.798   0.260   5.624 -0.1896  1.3006  1.1530
   74SLPC  C317 6654   3.605   0.240   5.520 -0.1121 -0.6399 -0.4500
   74SLPC  H17X 6655   3.648   0.158   5.458  0.8123  1.0130 -2.1048
   74SLPC  H17Y 6656   3.604   0.336   5.465 -1.6503  0.8055  1.9163
   74SLPC  C318 6657   3.460   0.213   5.564 -0.2800 -0.2887  0.2285
   74SLPC  H18X 6658   3.437   0.294   5.636  2.5464  1.3732 -0.5956
   74SLPC  H18Y 6659   3.446   0.111   5.605  1.2570  0.2328  2.1846
   74SLPC  H18Z 6660   3.396   0.232   5.474  2.4559  0.1320 -1.7602
   75SLPC     N 6661   6.180   1.735   7.872  0.4701 -0.0631 -0.3647
   75SLPC   C13 6662   6.123   1.599   7.889  0.4503 -0.3178  0.3396
   75SLPC  H13A 6663   6.031   1.595   7.833  0.6663  3.2504 -0.5525
   75SLPC  H13B 6664   6.198   1.528   7.858  0.8521 -0.0541  0.6919
   75SLPC  H13C 6665   6.095   1.583   7.992  2.0076 -0.7596  0.7222
   75SLPC   C14 6666   6.204   1.746   7.725  0.0208  0.4544  1.0950
   75SLPC  H14A 6667   6.119   1.755   7.659  1.8936 -0.1504 -1.5246
   75SLPC  H14B 6668   6.275   1.826   7.714  1.6641 -1.0745  0.0570
   75SLPC  H14C 6669   6.268   1.667   7.691 -0.6016  0.4192 -0.0236
   75SLPC   C15 6670   6.304   1.748   7.952 -0.4145  0.3911 -0.7943
   75SLPC  H15A 6671   6.365   1.659   7.952 -0.8682  0.0772 -0.2180
   75SLPC  H15B 6672   6.360   1.834   7.919 -0.2877  0.6507  0.0732
   75SLPC  H15C 6673   6.290   1.761   8.058  0.7256 -0.3777 -0.5237
   75SLPC   C12 6674   6.079   1.841   7.912 -0.2099  0.3214  0.8824
   75SLPC  H12A 6675   6.053   1.830   8.016 -0.8808  1.4828  0.8619
   75SLPC  H12B 6676   5.992   1.833   7.850 -0.2274 -0.5295  1.0096
   75SLPC   C11 6677   6.126   1.987   7.898  0.1078  0.0125  0.6962
   75SLPC  H11A 6678   6.235   1.996   7.918  0.3500  2.6831 -1.3747
   75SLPC  H11B 6679   6.076   2.052   7.974  1.1236  0.7895  0.7312
   75SLPC     P 6680   5.952   2.055   7.706  0.1721  0.1374  0.2196
   75SLPC   O13 6681   5.861   1.967   7.781  0.0851 -0.3268 -0.3864
   75SLPC   O14 6682   5.916   2.200   7.716 -0.2988  0.0355  0.2805
   75SLPC   O12 6683   6.094   2.035   7.764 -0.2751 -0.0599  0.6161
   75SLPC   O11 6684   5.970   2.009   7.557 -0.1367 -0.2277 -0.1580
   75SLPC    C1 6685   6.083   2.057   7.475  0.1184 -0.2321  0.6575
   75SLPC    HA 6686   6.175   2.082   7.532  0.4052 -2.2425  1.1562
   75SLPC    HB 6687   6.100   1.983   7.394  2.2301  0.5994  0.2844
   75SLPC    C2 6688   6.060   2.189   7.391  0.2177 -0.0701  0.1269
   75SLPC    HS 6689   6.021   2.263   7.465 -0.6795 -0.3511 -0.0514
   75SLPC   O21 6690   5.962   2.171   7.287  0.0250 -0.0231 -0.3831
   75SLPC   C21 6691   5.864   2.259   7.284 -0.6379  0.5764  1.2896
   75SLPC   O22 6692   5.862   2.367   7.343  0.0265 -0.1796  0.0129
   75SLPC   C22 6693   5.763   2.201   7.177  0.2168 -0.1527  0.8319
   75SLPC   H2R 6694   5.766   2.283   7.101 -2.2381  0.2005  1.0304
   75SLPC   H2S 6695   5.803   2.104   7.141 -0.0494 -0.5672  1.6496
   75SLPC    C3 6696   6.196   2.249   7.334  0.6477  0.2117 -0.0460
   75SLPC    HX 6697   6.242   2.170   7.271 -0.8783 -2.7805  2.3509
   75SLPC    HY 6698   6.258   2.265   7.424  0.3938 -0.1599  0.1954
   75SLPC   O31 6699   6.180   2.371   7.264 -0.3797 -0.1356 -0.0412
   75SLPC   C31 6700   6.133   2.479   7.321 -0.3209  0.0447  0.6575
   75SLPC   O32 6701   6.113   2.489   7.440 -0.1971  0.4029 -0.7197
   75SLPC   C32 6702   6.105   2.590   7.218 -0.0723 -0.0732  0.2436
   75SLPC   H2X 6703   6.199   2.633   7.176 -0.2178 -2.3849 -2.8412
   75SLPC   H2Y 6704   6.047   2.673   7.264 -0.9561 -0.3697 -0.3034
   75SLPC   C23 6705   5.614   2.216   7.217 -0.0429 -0.4095  0.2628
   75SLPC   H3R 6706   5.592   2.319   7.252  0.5410  0.8118 -2.7193
   75SLPC   H3S 6707   5.569   2.149   7.294 -0.6958  1.4995  1.6190
   75SLPC   C24 6708   5.512   2.188   7.097 -0.1840  0.0959 -0.0791
   75SLPC   H4R 6709   5.410   2.206   7.137 -0.5826 -0.7792 -0.6860
   75SLPC   H4S 6710   5.514   2.079   7.075  1.4266 -0.0862  0.8094
   75SLPC   C25 6711   5.548   2.275   6.976 -0.1801  0.5458 -0.4635
   75SLPC   H5R 6712   5.654   2.252   6.955  1.0857  2.4221  3.0511
   75SLPC   H5S 6713   5.547   2.382   7.006 -1.8025  0.5636 -0.4632
   75SLPC   C26 6714   5.454   2.262   6.858  0.6144  0.6603 -0.0370
   75SLPC   H6R 6715   5.459   2.340   6.780 -0.3255  1.3506  0.5778
   75SLPC   H6S 6716   5.355   2.271   6.907  1.3467  0.1504  1.6028
   75SLPC   C27 6717   5.460   2.118   6.808 -0.3442  0.0323  0.1947
   75SLPC   H7R 6718   5.421   2.049   6.886 -1.3531 -0.9893 -1.1559
   75SLPC   H7S 6719   5.565   2.083   6.793 -0.8305 -2.0531  1.2852
   75SLPC   C28 6720   5.374   2.082   6.684 -0.4095 -1.0568  0.5994
   75SLPC   H8R 6721   5.270   2.118   6.695 -1.1797 -2.6239 -1.1102
   75SLPC   H8S 6722   5.358   1.973   6.693 -3.8283 -0.9144 -1.8317
   75SLPC   C29 6723   5.437   2.142   6.557 -0.1118 -0.4102 -0.5433
   75SLPC   H9R 6724   5.403   2.245   6.538  0.1163 -0.0686  0.8028
   75SLPC  C210 6725   5.518   2.069   6.481  0.8218 -1.0460  0.1467
   75SLPC  H10R 6726   5.565   2.118   6.394 -0.6886 -1.4727 -0.9787
   75SLPC  C211 6727   5.559   1.928   6.502  0.4718 -0.1499  0.2564
   75SLPC  H11R 6728   5.516   1.868   6.418  0.8682 -1.4165  0.9296
   75SLPC  H11S 6729   5.508   1.886   6.591 -0.6773  2.7519  1.0634
   75SLPC  C212 6730   5.710   1.899   6.519 -0.1230 -0.4755  0.0944
   75SLPC  H12R 6731   5.744   1.906   6.624  1.7291  1.0154 -0.5560
   75SLPC  C213 6732   5.799   1.892   6.419 -1.0645  0.0951 -0.1101
   75SLPC  H13R 6733   5.903   1.878   6.450 -0.8062 -0.2854 -1.1154
   75SLPC  C214 6734   5.774   1.904   6.266 -0.3132 -0.2203  0.2982
   75SLPC  H14R 6735   5.665   1.921   6.250 -0.4555  0.0169  1.3935
   75SLPC  H14S 6736   5.805   1.806   6.224  2.0058  0.9054 -0.7638
   75SLPC  C215 6737   5.854   2.010   6.192 -0.1556  0.2109 -0.7305
   75SLPC  H15R 6738   5.963   1.989   6.194 -0.4370 -1.3185  0.8118
   75SLPC  H15S 6739   5.833   2.106   6.242  0.5724 -0.5386  1.0776
   75SLPC  C216 6740   5.822   2.005   6.049  0.1980  0.3012  0.1062
   75SLPC  H16R 6741   5.712   2.016   6.037  0.1355  0.8904  1.0705
   75SLPC  H16S 6742   5.847   1.906   6.005  1.1752  1.2629 -1.6059
   75SLPC  C217 6743   5.906   2.105   5.973 -1.1185 -0.6723 -1.1395
   75SLPC  H17R 6744   5.949   2.174   6.049  0.2415 -1.6475 -0.9691
   75SLPC  H17S 6745   5.836   2.160   5.906 -2.7341 -0.0173  0.9659
   75SLPC  C218 6746   6.015   2.042   5.891  0.2590 -0.2733 -0.2789
   75SLPC  H18R 6747   6.078   1.978   5.957 -0.2041  0.0173  0.4614
   75SLPC  H18S 6748   6.084   2.118   5.851 -0.7330 -0.3635 -2.2514
   75SLPC  H18T 6749   5.966   1.977   5.815 -0.8763 -1.9008  1.7291
   75SLPC   C33 6750   6.032   2.532   7.096  0.5461  0.2548  0.4957
   75SLPC   H3X 6751   5.925   2.515   7.120  0.2722  1.4473  0.2118
   75SLPC   H3Y 6752   6.074   2.436   7.059 -1.6686 -1.4268  2.0854
   75SLPC   C34 6753   6.029   2.627   6.977 -0.5563  0.3999  0.0851
   75SLPC   H4X 6754   6.134   2.657   6.958 -0.5289 -0.1518 -0.7041
   75SLPC   H4Y 6755   5.986   2.723   7.013  0.5375  1.1567 -0.5697
   75SLPC   C35 6756   5.958   2.572   6.846 -0.6388 -0.3550 -0.3601
   75SLPC   H5X 6757   5.852   2.559   6.876 -0.7915  1.7870  0.1863
   75SLPC   H5Y 6758   6.005   2.477   6.811 -0.4622  0.1409 -1.5138
   75SLPC   C36 6759   5.971   2.659   6.723  0.3772 -0.5227  1.1211
   75SLPC   H6X 6760   6.069   2.711   6.723  1.2159 -1.9780 -0.9835
   75SLPC   H6Y 6761   5.888   2.734   6.725  0.9325  0.1369  0.2766
   75SLPC   C37 6762   5.967   2.588   6.582 -0.3562 -0.3171 -0.1752
   75SLPC   H7X 6763   6.053   2.517   6.585 -0.3990 -0.3466  0.3173
   75SLPC   H7Y 6764   5.996   2.665   6.507  1.1963  0.4874  1.1900
   75SLPC   C38 6765   5.838   2.506   6.532  0.4222  0.0247  0.1843
   75SLPC   H8X 6766   5.754   2.578   6.520 -2.0639 -2.9439 -1.5736
   75SLPC   H8Y 6767   5.805   2.431   6.607 -1.7432 -0.6706 -1.3769
   75SLPC   C39 6768   5.850   2.452   6.384 -0.4324 -0.4711 -0.1067
   75SLPC   H9X 6769   5.879   2.345   6.380 -1.9823 -0.8678 -2.0508
   75SLPC   H9Y 6770   5.937   2.502   6.338  0.2261 -1.0881  0.4494
   75SLPC  C310 6771   5.726   2.456   6.296  0.4375  0.3701  0.5305
   75SLPC  H10X 6772   5.705   2.564   6.281  1.1934  0.3396 -0.8967
   75SLPC  H10Y 6773   5.634   2.423   6.349  0.6504 -0.7346  0.2543
   75SLPC  C311 6774   5.731   2.393   6.162 -0.2724 -0.2296  0.4424
   75SLPC  H11X 6775   5.745   2.285   6.183 -0.6401 -0.9401 -2.4540
   75SLPC  H11Y 6776   5.815   2.429   6.098 -0.4603 -2.4186 -1.1437
   75SLPC  C312 6777   5.594   2.402   6.096 -0.2831  0.2519 -0.7151
   75SLPC  H12X 6778   5.568   2.508   6.074 -1.8558  0.0668  0.0948
   75SLPC  H12Y 6779   5.514   2.388   6.172  0.1255  1.9460  0.0871
   75SLPC  C313 6780   5.578   2.303   5.985  0.3389  0.1298  0.0142
   75SLPC  H13X 6781   5.598   2.203   6.030  1.0564  0.7683  1.1548
   75SLPC  H13Y 6782   5.658   2.313   5.909  0.1433  1.9617  0.0080
   75SLPC  C314 6783   5.448   2.288   5.910  0.1491 -0.9258 -0.3233
   75SLPC  H14X 6784   5.366   2.300   5.983 -1.7073  2.4838 -2.7156
   75SLPC  H14Y 6785   5.450   2.193   5.852 -0.3619 -0.2055 -1.5650
   75SLPC  C315 6786   5.424   2.391   5.802  0.0984  0.3257 -0.4593
   75SLPC  H15X 6787   5.482   2.367   5.710  1.9244  0.0840  0.7023
   75SLPC  H15Y 6788   5.453   2.487   5.849  1.1634  0.4531 -1.3370
   75SLPC  C316 6789   5.276   2.423   5.780 -0.2114  0.0562 -0.6112
   75SLPC  H16X 6790   5.223   2.453   5.873 -0.3787  1.5740 -1.1683
   75SLPC  H16Y 6791   5.224   2.335   5.737 -2.1068  0.4219  0.7902
   75SLPC  C317 6792   5.248   2.545   5.683 -0.1048 -0.4476  0.0173
   75SLPC  H17X 6793   5.305   2.530   5.589  0.1151 -0.6756  0.1850
   75SLPC  H17Y 6794   5.298   2.632   5.730 -1.4840 -0.9671  2.6417
   75SLPC  C318 6795   5.104   2.581   5.668 -0.1434  1.0514  1.1732
   75SLPC  H18X 6796   5.103   2.657   5.588  0.8145  0.1029  0.2305
   75SLPC  H18Y 6797   5.065   2.614   5.767  1.8034  1.8566  1.7161
   75SLPC  H18Z 6798   5.046   2.490   5.640  0.7607  0.6150  0.6705
   76SLPC     N 6799   0.997   4.071   7.764  0.4841  0.0072 -0.0362
   76SLPC   C13 6800   0.979   4.170   7.879 -1.0744 -0.8176 -0.3055
   76SLPC  H13A 6801   1.062   4.235   7.902 -1.8202 -0.2504  0.8235
   76SLPC  H13B 6802   0.896   4.239   7.871  0.2684  1.1608  1.7072
   76SLPC  H13C 6803   0.972   4.109   7.968  2.1683  1.2551  1.5790
   76SLPC   C14 6804   1.086   4.136   7.663  0.1982  0.0826  0.1341
   76SLPC  H14A 6805   1.084   4.081   7.571 -1.6699 -0.8878  0.7100
   76SLPC  H14B 6806   1.077   4.243   7.646 -0.9427  0.3277  1.9777
   76SLPC  H14C 6807   1.186   4.123   7.702 -0.3333 -1.5795  1.0176
   76SLPC   C15 6808   0.863   4.050   7.708  0.6289  0.1608 -0.2029
   76SLPC  H15A 6809   0.875   3.979   7.628  1.1783 -1.2342  1.0754
   76SLPC  H15B 6810   0.805   3.996   7.782 -1.0309 -2.0267 -2.9001
   76SLPC  H15C 6811   0.811   4.136   7.669  0.0077 -0.4090 -0.6518
   76SLPC   C12 6812   1.056   3.945   7.817  0.6449  0.1050 -0.0856
   76SLPC  H12A 6813   1.004   3.936   7.911 -1.0408 -0.0681 -0.9906
   76SLPC  H12B 6814   1.161   3.969   7.829  0.4156  2.3312 -1.8642
   76SLPC   C11 6815   1.048   3.812   7.745 -0.6106 -0.1872  0.2737
   76SLPC  H11A 6816   0.941   3.786   7.737 -0.6735  0.5869 -2.2857
   76SLPC  H11B 6817   1.102   3.732   7.800  2.1253  0.4744 -1.2417
   76SLPC     P 6818   1.252   3.821   7.575 -0.0095 -0.3796 -0.0563
   76SLPC   O13 6819   1.283   3.939   7.488 -0.1067  0.0943 -0.0475
   76SLPC   O14 6820   1.337   3.790   7.695  0.3419  0.4177 -0.4861
   76SLPC   O12 6821   1.102   3.822   7.613 -0.3373  0.0012  0.2204
   76SLPC   O11 6822   1.256   3.699   7.483 -0.2213  0.8798 -0.5093
   76SLPC    C1 6823   1.227   3.565   7.517  0.4601  0.1175 -0.2143
   76SLPC    HA 6824   1.320   3.517   7.555  1.7359  3.0927  0.7251
   76SLPC    HB 6825   1.159   3.568   7.605  0.6536  4.7153  0.0202
   76SLPC    C2 6826   1.150   3.489   7.411  0.3610  0.4277  1.1105
   76SLPC    HS 6827   1.141   3.386   7.450  0.9459  0.0113  0.1779
   76SLPC   O21 6828   1.208   3.494   7.278  0.2885 -0.3853  0.6921
   76SLPC   C21 6829   1.313   3.421   7.251  0.2563 -0.5003  1.3515
   76SLPC   O22 6830   1.387   3.373   7.337  0.0285 -0.2980  0.5531
   76SLPC   C22 6831   1.341   3.419   7.100 -0.4950  0.2879  0.2246
   76SLPC   H2R 6832   1.262   3.355   7.057  0.9099 -0.1036 -1.9548
   76SLPC   H2S 6833   1.331   3.524   7.063  0.7055  0.5629  0.6229
   76SLPC    C3 6834   1.009   3.554   7.392 -0.8570 -0.1779 -0.5157
   76SLPC    HX 6835   1.029   3.660   7.365 -0.0114 -0.2701 -0.2968
   76SLPC    HY 6836   0.954   3.536   7.487  0.3292 -3.7005 -0.3712
   76SLPC   O31 6837   0.933   3.493   7.282 -0.1419 -0.4046 -0.1281
   76SLPC   C31 6838   0.815   3.548   7.266  0.2387 -0.0549  0.6023
   76SLPC   O32 6839   0.774   3.634   7.340  0.6136  0.6875  0.0205
   76SLPC   C32 6840   0.739   3.478   7.153 -0.0826 -0.5088  0.0027
   76SLPC   H2X 6841   0.684   3.397   7.204 -0.0180  0.8838  2.4400
   76SLPC   H2Y 6842   0.807   3.434   7.077 -1.3354 -0.2246 -1.3260
   76SLPC   C23 6843   1.484   3.368   7.069 -0.0829 -0.3825  0.2919
   76SLPC   H3R 6844   1.496   3.273   7.126 -1.7927 -0.7696  0.0433
   76SLPC   H3S 6845   1.569   3.436   7.092  0.8341 -0.6753 -1.9858
   76SLPC   C24 6846   1.513   3.333   6.920  0.0710  0.5282 -0.2340
   76SLPC   H4R 6847   1.445   3.252   6.888  3.8470 -2.1164 -2.3466
   76SLPC   H4S 6848   1.612   3.283   6.914 -0.1553  0.2290 -3.5786
   76SLPC   C25 6849   1.497   3.451   6.827  0.3790 -0.3653  0.5260
   76SLPC   H5R 6850   1.577   3.526   6.846 -0.3576  0.8829 -0.9683
   76SLPC   H5S 6851   1.400   3.502   6.847 -0.1415  0.1421 -2.7090
   76SLPC   C26 6852   1.489   3.421   6.669  0.4612  0.3113 -0.4052
   76SLPC   H6R 6853   1.490   3.519   6.616  0.3098 -0.3527 -1.6551
   76SLPC   H6S 6854   1.399   3.365   6.637 -0.5137  2.2256 -1.2134
   76SLPC   C27 6855   1.618   3.346   6.612 -0.5081 -0.2223  0.3711
   76SLPC   H7R 6856   1.605   3.239   6.637  0.4704 -0.7210 -1.1712
   76SLPC   H7S 6857   1.714   3.373   6.661 -1.2021 -1.0220  2.2957
   76SLPC   C28 6858   1.630   3.355   6.458  0.6451  1.3008 -0.4011
   76SLPC   H8R 6859   1.609   3.455   6.417 -1.1906  0.5504 -1.4204
   76SLPC   H8S 6860   1.536   3.305   6.426  0.4576  0.6326  1.0920
   76SLPC   C29 6861   1.754   3.304   6.400 -0.6666 -0.1728  0.2107
   76SLPC   H9R 6862   1.835   3.300   6.473 -2.0801  1.4522  1.9704
   76SLPC  C210 6863   1.770   3.266   6.273 -0.4263 -0.3489 -0.2495
   76SLPC  H10R 6864   1.871   3.244   6.237 -0.7250 -3.5988  0.5845
   76SLPC  C211 6865   1.664   3.267   6.164 -0.4054  0.1714 -0.2191
   76SLPC  H11R 6866   1.573   3.215   6.202 -0.1087 -0.4131 -0.3115
   76SLPC  H11S 6867   1.698   3.198   6.085  1.6068  0.9225 -0.0728
   76SLPC  C212 6868   1.620   3.396   6.107  0.0412 -0.1237 -0.4138
   76SLPC  H12R 6869   1.623   3.486   6.171  1.3000  0.0060 -0.6440
   76SLPC  C213 6870   1.588   3.426   5.978 -0.0769 -0.0444 -0.3451
   76SLPC  H13R 6871   1.544   3.521   5.944  0.2176 -0.0818 -0.8443
   76SLPC  C214 6872   1.596   3.317   5.871  0.3317 -0.4434  0.1986
   76SLPC  H14R 6873   1.497   3.317   5.821 -0.7278  0.4273  2.1808
   76SLPC  H14S 6874   1.603   3.219   5.922  0.5865 -0.6012 -0.1348
   76SLPC  C215 6875   1.720   3.335   5.771 -0.3054  0.4142  0.0717
   76SLPC  H15R 6876   1.811   3.342   5.835  1.0721 -0.5449 -1.6974
   76SLPC  H15S 6877   1.715   3.414   5.694 -2.7271 -0.2677 -0.5605
   76SLPC  C216 6878   1.745   3.206   5.694  0.2103  0.7393 -0.7766
   76SLPC  H16R 6879   1.670   3.127   5.718  0.9180  0.0789 -0.6888
   76SLPC  H16S 6880   1.838   3.149   5.712 -1.1105 -1.4446 -0.3719
   76SLPC  C217 6881   1.739   3.230   5.538 -0.0359 -0.0016 -0.2338
   76SLPC  H17R 6882   1.827   3.284   5.497  0.5298 -2.3514 -2.3718
   76SLPC  H17S 6883   1.648   3.288   5.511 -0.9262 -1.3577 -0.2579
   76SLPC  C218 6884   1.738   3.098   5.457  0.7518  0.2135  0.0940
   76SLPC  H18R 6885   1.829   3.035   5.475  0.1188 -0.3369  1.5634
   76SLPC  H18S 6886   1.746   3.124   5.350  0.5325 -1.1673 -0.2816
   76SLPC  H18T 6887   1.648   3.036   5.475 -0.5236  1.4095 -1.8471
   76SLPC   C33 6888   0.628   3.564   7.080  0.3095 -0.2570  0.2311
   76SLPC   H3X 6889   0.688   3.639   7.026  0.0171  0.7929  1.3089
   76SLPC   H3Y 6890   0.562   3.611   7.156 -1.4601 -1.3219 -0.5937
   76SLPC   C34 6891   0.554   3.474   6.978 -0.3192 -0.8270 -0.3709
   76SLPC   H4X 6892   0.472   3.536   6.935  1.3602 -0.0066 -2.6128
   76SLPC   H4Y 6893   0.494   3.394   7.025 -0.2203  0.1025  1.4528
   76SLPC   C35 6894   0.638   3.418   6.864  0.0083 -0.9300 -0.2284
   76SLPC   H5X 6895   0.726   3.360   6.899 -1.1420 -1.5540  1.8119
   76SLPC   H5Y 6896   0.668   3.509   6.808 -0.3822  0.1742  1.3023
   76SLPC   C36 6897   0.563   3.318   6.767  0.2037 -0.5195 -0.7324
   76SLPC   H6X 6898   0.462   3.355   6.739  0.7800 -0.1646 -2.4455
   76SLPC   H6Y 6899   0.549   3.217   6.810  0.3243 -0.3855 -0.3756
   76SLPC   C37 6900   0.637   3.289   6.631 -0.2335 -0.7072  0.8054
   76SLPC   H7X 6901   0.581   3.212   6.572 -0.5963  1.6874 -2.2168
   76SLPC   H7Y 6902   0.738   3.244   6.645 -1.5629 -3.6788  1.7275
   76SLPC   C38 6903   0.645   3.408   6.538 -0.1407 -0.0753  0.2476
   76SLPC   H8X 6904   0.750   3.444   6.545 -0.2468  0.3385 -0.2499
   76SLPC   H8Y 6905   0.587   3.489   6.587  0.6301 -0.1411  1.3198
   76SLPC   C39 6906   0.607   3.370   6.399  0.1956  0.9052 -0.5797
   76SLPC   H9X 6907   0.496   3.367   6.400  0.1814  0.3211  1.2517
   76SLPC   H9Y 6908   0.640   3.269   6.365 -0.9440  0.4808 -0.4707
   76SLPC  C310 6909   0.637   3.473   6.290  0.4506 -0.1036 -1.2635
   76SLPC  H10X 6910   0.748   3.474   6.282  0.4366  1.1932 -1.4904
   76SLPC  H10Y 6911   0.609   3.573   6.328  0.1680 -0.4305 -0.6015
   76SLPC  C311 6912   0.575   3.445   6.155  0.0112 -0.2831 -0.0258
   76SLPC  H11X 6913   0.471   3.485   6.149 -0.4744 -1.6275 -0.9863
   76SLPC  H11Y 6914   0.577   3.335   6.144 -0.2435 -0.1730 -1.4208
   76SLPC  C312 6915   0.648   3.494   6.029 -0.9735 -0.4574 -0.2835
   76SLPC  H12X 6916   0.588   3.449   5.947  0.3893 -0.8119 -1.1314
   76SLPC  H12Y 6917   0.748   3.445   6.025 -0.9269 -0.3379 -0.7145
   76SLPC  C313 6918   0.665   3.643   6.026 -0.8203  0.5905  0.0557
   76SLPC  H13X 6919   0.728   3.665   5.937  0.7669  2.3130  1.5141
   76SLPC  H13Y 6920   0.723   3.670   6.117 -2.7686 -0.0699  1.5461
   76SLPC  C314 6921   0.528   3.719   6.016  0.0264  0.0645 -0.1727
   76SLPC  H14X 6922   0.477   3.702   6.113 -1.3064 -0.5036 -0.9445
   76SLPC  H14Y 6923   0.461   3.673   5.941 -0.1910  1.9190 -1.1657
   76SLPC  C315 6924   0.538   3.869   5.983  0.1073  0.8164  0.5750
   76SLPC  H15X 6925   0.441   3.924   5.980 -0.5159 -0.2794 -1.1317
   76SLPC  H15Y 6926   0.577   3.872   5.879 -0.8724  1.7545  0.2195
   76SLPC  C316 6927   0.632   3.958   6.061 -0.3783  0.0875 -0.2665
   76SLPC  H16X 6928   0.631   4.060   6.018 -0.4530  0.0860 -0.2690
   76SLPC  H16Y 6929   0.733   3.913   6.071 -0.5946 -0.0616  1.7307
   76SLPC  C317 6930   0.595   3.972   6.206  0.4672 -0.0184 -0.0085
   76SLPC  H17X 6931   0.613   3.877   6.261  2.3983  1.3260  1.8599
   76SLPC  H17Y 6932   0.489   4.001   6.217  0.1893 -0.0923 -2.1338
   76SLPC  C318 6933   0.688   4.075   6.277 -0.1507 -0.1945 -0.7432
   76SLPC  H18X 6934   0.648   4.086   6.380  1.0125  0.6145 -0.3669
   76SLPC  H18Y 6935   0.676   4.172   6.224 -2.1510 -0.2554 -0.4831
   76SLPC  H18Z 6936   0.795   4.046   6.269  0.6332  1.2580  2.7774
   77SLPC     N 6937   0.200   3.861   7.656  0.3613 -0.3967  0.1930
   77SLPC   C13 6938   0.126   3.799   7.765  0.1305  0.3352  0.0615
   77SLPC  H13A 6939   0.109   3.693   7.752  0.7449  0.2510 -0.0759
   77SLPC  H13B 6940   0.182   3.800   7.858  0.4939 -2.0382 -0.0688
   77SLPC  H13C 6941   0.034   3.853   7.784  0.3680  0.6495  0.3421
   77SLPC   C14 6942   0.130   3.837   7.520  0.2554  0.1463  0.3037
   77SLPC  H14A 6943   0.128   3.729   7.510 -1.3650 -0.0190  1.9774
   77SLPC  H14B 6944   0.026   3.865   7.530  0.3895  0.1929  1.7901
   77SLPC  H14C 6945   0.183   3.888   7.440 -0.7838  2.0829  0.7804
   77SLPC   C15 6946   0.345   3.826   7.648 -0.3287  0.0932 -0.6177
   77SLPC  H15A 6947   0.380   3.828   7.546  0.3918 -1.2263 -0.4243
   77SLPC  H15B 6948   0.408   3.893   7.706 -0.4584  0.8968 -1.3959
   77SLPC  H15C 6949   0.353   3.727   7.690 -2.4939  0.5150  0.9903
   77SLPC   C12 6950   0.203   4.012   7.678  0.2650  0.8341 -0.2859
   77SLPC  H12A 6951   0.102   4.048   7.664 -0.8583 -1.2833  1.6921
   77SLPC  H12B 6952   0.259   4.053   7.596 -0.4893 -0.5576 -1.5626
   77SLPC   C11 6953   0.247   4.076   7.819  0.0844  0.3579  0.1209
   77SLPC  H11A 6954   0.164   4.047   7.887  1.0688 -0.3524  1.0582
   77SLPC  H11B 6955   0.253   4.187   7.818 -4.3106  0.7421 -1.5439
   77SLPC     P 6956   0.508   4.089   7.840  0.1991 -0.4470 -0.7532
   77SLPC   O13 6957   0.500   4.227   7.901  0.4737  0.6072  0.1321
   77SLPC   O14 6958   0.606   3.994   7.894 -0.0452 -0.4462 -0.4816
   77SLPC   O12 6959   0.369   4.021   7.863 -0.4548  0.1637 -0.1788
   77SLPC   O11 6960   0.521   4.095   7.684  0.1196  0.1635 -0.2459
   77SLPC    C1 6961   0.516   4.222   7.617 -0.0605  0.1935 -0.0088
   77SLPC    HA 6962   0.428   4.281   7.650 -1.2366 -1.8822  0.7696
   77SLPC    HB 6963   0.615   4.272   7.627  0.2210 -0.0578 -1.3218
   77SLPC    C2 6964   0.516   4.199   7.462  0.3947 -0.1970  0.4943
   77SLPC    HS 6965   0.564   4.284   7.409  2.5476 -0.1796  2.2974
   77SLPC   O21 6966   0.375   4.175   7.421  0.0271 -0.1441 -0.6874
   77SLPC   C21 6967   0.303   4.285   7.395 -0.4930  0.4182  0.2655
   77SLPC   O22 6968   0.349   4.401   7.395  0.4574  0.1141  0.1638
   77SLPC   C22 6969   0.165   4.266   7.332  0.0629  0.1141 -0.7401
   77SLPC   H2R 6970   0.094   4.311   7.405  3.8399  0.9250  2.8338
   77SLPC   H2S 6971   0.161   4.325   7.239  0.0788  0.9152 -0.2440
   77SLPC    C3 6972   0.589   4.066   7.430 -0.0576  0.7987 -0.4487
   77SLPC    HX 6973   0.549   3.987   7.497 -0.5362 -1.2481 -2.9735
   77SLPC    HY 6974   0.698   4.083   7.448 -0.1866  0.6028  0.5885
   77SLPC   O31 6975   0.576   4.028   7.298 -0.1217 -0.2491  0.7159
   77SLPC   C31 6976   0.499   3.928   7.259  0.5616 -0.0759 -0.1701
   77SLPC   O32 6977   0.444   3.844   7.333 -0.0970 -0.1777 -0.1268
   77SLPC   C32 6978   0.476   3.941   7.103 -0.2544  0.3841  0.4914
   77SLPC   H2X 6979   0.572   3.904   7.063 -0.5407  1.0433 -0.8512
   77SLPC   H2Y 6980   0.453   4.047   7.078 -1.1689  0.0078 -0.3220
   77SLPC   C23 6981   0.129   4.118   7.302 -0.1751 -0.1482 -0.0709
   77SLPC   H3R 6982   0.083   4.074   7.393  0.2575 -2.8678 -1.0757
   77SLPC   H3S 6983   0.222   4.065   7.273 -0.0036 -0.6889  1.3822
   77SLPC   C24 6984   0.023   4.096   7.198  0.3520 -0.0764  1.0231
   77SLPC   H4R 6985  -0.063   4.159   7.229 -0.2560  0.5367 -1.6217
   77SLPC   H4S 6986  -0.023   3.996   7.180  0.9492 -0.1368 -0.2715
   77SLPC   C25 6987   0.061   4.142   7.051 -0.5165  0.2973 -0.1721
   77SLPC   H5R 6988   0.172   4.131   7.048  0.0638  2.4272  4.6205
   77SLPC   H5S 6989   0.044   4.251   7.040 -1.6738  0.1624  0.1425
   77SLPC   C26 6990  -0.013   4.069   6.935 -0.2982 -0.5291  0.2728
   77SLPC   H6R 6991  -0.123   4.080   6.941 -0.0619  3.1944 -0.0090
   77SLPC   H6S 6992   0.023   3.964   6.938 -0.7293 -0.6935 -0.1013
   77SLPC   C27 6993   0.029   4.120   6.796 -0.5593 -0.0425 -0.3834
   77SLPC   H7R 6994   0.138   4.096   6.790 -0.5390  0.3217 -1.9349
   77SLPC   H7S 6995   0.019   4.230   6.785  1.3696  0.4147  1.6026
   77SLPC   C28 6996  -0.034   4.051   6.674  0.1204 -0.0495 -0.8068
   77SLPC   H8R 6997  -0.140   4.084   6.675  0.3709  0.7999  1.1001
   77SLPC   H8S 6998  -0.033   3.941   6.688 -0.6579 -0.1328 -1.3415
   77SLPC   C29 6999   0.032   4.098   6.556  0.0851 -0.2525  0.0448
   77SLPC   H9R 7000   0.137   4.128   6.567  0.5145 -1.8867  0.7512
   77SLPC  C210 7001  -0.031   4.091   6.442 -0.2486 -0.0361  0.4273
   77SLPC  H10R 7002   0.027   4.125   6.355 -0.8405 -3.0243 -1.2980
   77SLPC  C211 7003  -0.171   4.069   6.414 -0.3394  1.4016  0.4030
   77SLPC  H11R 7004  -0.236   4.156   6.434 -2.8054 -0.6464  1.8857
   77SLPC  H11S 7005  -0.216   4.000   6.489  1.4429  0.1167  0.3463
   77SLPC  C212 7006  -0.194   4.012   6.272  0.1649  0.1327 -0.2177
   77SLPC  H12R 7007  -0.226   3.907   6.269  1.1072 -0.2525  1.8737
   77SLPC  C213 7008  -0.186   4.080   6.158 -0.0270  0.3484 -0.2156
   77SLPC  H13R 7009  -0.189   4.021   6.066 -0.9639  1.0193 -0.6229
   77SLPC  C214 7010  -0.152   4.223   6.133  0.2259  0.1623 -0.0178
   77SLPC  H14R 7011  -0.065   4.238   6.065  1.9193  0.2728  2.0770
   77SLPC  H14S 7012  -0.122   4.269   6.229 -1.0541 -2.1943  1.6153
   77SLPC  C215 7013  -0.274   4.308   6.090 -0.0969  0.4922  0.2068
   77SLPC  H15R 7014  -0.235   4.412   6.081 -1.8303  1.0789 -0.8786
   77SLPC  H15S 7015  -0.351   4.305   6.170 -0.9477  0.1961 -0.6187
   77SLPC  C216 7016  -0.344   4.269   5.959  0.3606  0.1505  0.4083
   77SLPC  H16R 7017  -0.445   4.314   5.959 -0.3284 -1.2780 -1.6873
   77SLPC  H16S 7018  -0.350   4.159   5.941  1.9925  0.0004  0.5676
   77SLPC  C217 7019  -0.278   4.332   5.842 -0.2815  0.5050  0.6478
   77SLPC  H17R 7020  -0.245   4.436   5.862  0.4834  1.1742 -3.2189
   77SLPC  H17S 7021  -0.362   4.329   5.769 -0.3148  2.0204  0.5786
   77SLPC  C218 7022  -0.156   4.262   5.767 -0.0766 -0.3952 -0.2805
   77SLPC  H18R 7023  -0.069   4.249   5.834  0.2417  0.6475 -0.4670
   77SLPC  H18S 7024  -0.125   4.330   5.685 -0.5975  0.5650  0.2916
   77SLPC  H18T 7025  -0.186   4.161   5.732  0.1091 -0.2756 -0.7847
   77SLPC   C33 7026   0.359   3.854   7.058 -0.4788  0.0152  0.4699
   77SLPC   H3X 7027   0.260   3.876   7.104 -0.3328  3.2509 -0.4831
   77SLPC   H3Y 7028   0.380   3.747   7.074 -1.3315 -0.2621 -0.1806
   77SLPC   C34 7029   0.351   3.858   6.905  0.6118  0.0371 -0.1134
   77SLPC   H4X 7030   0.451   3.831   6.863  1.6028 -0.2083  2.2321
   77SLPC   H4Y 7031   0.344   3.964   6.874  2.5726  0.3903  0.4479
   77SLPC   C35 7032   0.255   3.754   6.854 -0.2047 -0.1166  0.3914
   77SLPC   H5X 7033   0.158   3.758   6.907  0.7525 -1.3795  2.3498
   77SLPC   H5Y 7034   0.298   3.652   6.860  1.3490  0.4655 -0.1788
   77SLPC   C36 7035   0.227   3.775   6.703  0.6158 -0.2521  0.1009
   77SLPC   H6X 7036   0.193   3.880   6.690  1.3713  0.0968  0.8552
   77SLPC   H6Y 7037   0.149   3.708   6.662  1.0525 -0.6668 -0.0542
   77SLPC   C37 7038   0.354   3.749   6.620 -0.1513 -0.1906  0.4190
   77SLPC   H7X 7039   0.371   3.640   6.618  1.5833 -0.0636  3.4552
   77SLPC   H7Y 7040   0.446   3.793   6.664  0.5270  0.9418 -1.9673
   77SLPC   C38 7041   0.344   3.812   6.482  0.2998  0.0580  0.1657
   77SLPC   H8X 7042   0.440   3.805   6.427  0.5537  0.3108  0.5677
   77SLPC   H8Y 7043   0.311   3.917   6.496  0.3873  0.1004  0.0550
   77SLPC   C39 7044   0.251   3.736   6.391  0.0648  1.2205 -0.3007
   77SLPC   H9X 7045   0.152   3.712   6.436  0.9210  0.5241  1.2884
   77SLPC   H9Y 7046   0.290   3.635   6.367 -0.3323  1.1886 -0.8356
   77SLPC  C310 7047   0.231   3.806   6.256 -0.9063  0.1375  0.0701
   77SLPC  H10X 7048   0.333   3.831   6.217 -0.3827  1.0029  1.8711
   77SLPC  H10Y 7049   0.183   3.905   6.271 -1.3257 -0.0212 -0.2245
   77SLPC  C311 7050   0.143   3.731   6.149 -0.1925 -0.0973  0.2840
   77SLPC  H11X 7051   0.050   3.698   6.198 -2.3340  3.7420 -0.7772
   77SLPC  H11Y 7052   0.191   3.645   6.099  0.7217  0.9701 -0.7505
   77SLPC  C312 7053   0.094   3.834   6.045  0.4603 -0.1645  0.2445
   77SLPC  H12X 7054   0.171   3.891   5.988 -0.4731  0.6663 -0.2409
   77SLPC  H12Y 7055   0.023   3.914   6.075  1.1650  1.4295 -2.0536
   77SLPC  C313 7056   0.003   3.764   5.935 -0.1689  0.0739 -0.3081
   77SLPC  H13X 7057  -0.081   3.709   5.983  1.0119  0.0558  1.8433
   77SLPC  H13Y 7058   0.065   3.677   5.906 -0.9615 -0.8076  0.5584
   77SLPC  C314 7059  -0.045   3.847   5.818 -0.0477  0.8733  0.1312
   77SLPC  H14X 7060   0.040   3.885   5.756 -1.3959  1.8706 -1.1715
   77SLPC  H14Y 7061  -0.113   3.930   5.845 -3.5375 -1.6333 -0.3795
   77SLPC  C315 7062  -0.120   3.750   5.718  0.3299  0.0014 -0.1347
   77SLPC  H15X 7063  -0.195   3.699   5.783 -0.9802  1.7353 -0.2058
   77SLPC  H15Y 7064  -0.053   3.680   5.664 -1.7946 -1.1185 -1.4738
   77SLPC  C316 7065  -0.198   3.828   5.609  0.6324 -0.5995 -0.4616
   77SLPC  H16X 7066  -0.134   3.895   5.547  0.6188 -1.0396 -0.9612
   77SLPC  H16Y 7067  -0.272   3.902   5.646  0.1718 -0.1947 -2.0896
   77SLPC  C317 7068  -0.284   3.738   5.519  0.0258  0.2996 -0.7822
   77SLPC  H17X 7069  -0.375   3.705   5.573  0.1724 -0.4618 -0.9922
   77SLPC  H17Y 7070  -0.223   3.646   5.511  0.4797  0.5258 -0.0152
   77SLPC  C318 7071  -0.313   3.795   5.379  0.5208 -0.4212 -0.3388
   77SLPC  H18X 7072  -0.218   3.821   5.326 -1.0800  1.3021 -2.5522
   77SLPC  H18Y 7073  -0.370   3.889   5.394  0.0040 -0.6565 -0.8009
   77SLPC  H18Z 7074  -0.362   3.718   5.316 -0.2279  0.8046 -1.3121
   78SLPC     N 7075   3.025   5.372   8.059  0.8912  0.3784  0.4083
   78SLPC   C13 7076   3.171   5.389   8.040  0.2039 -0.3848  0.3382
   78SLPC  H13A 7077   3.205   5.363   7.941  0.4053 -3.8274  1.1884
   78SLPC  H13B 7078   3.182   5.496   8.049 -2.2454 -0.0249 -0.3024
   78SLPC  H13C 7079   3.231   5.332   8.109  1.6320  1.2257  0.5060
   78SLPC   C14 7080   3.004   5.356   8.208  0.1508  0.3182 -0.0818
   78SLPC  H14A 7081   3.050   5.442   8.255 -1.4505  1.2763 -0.2023
   78SLPC  H14B 7082   2.898   5.350   8.224  0.3297  0.4950  1.2361
   78SLPC  H14C 7083   3.059   5.272   8.247  0.0128  1.0018  1.6845
   78SLPC   C15 7084   2.978   5.241   7.993 -0.7158  0.0849  0.3747
   78SLPC  H15A 7085   3.003   5.247   7.888  2.7182 -0.4787  1.0430
   78SLPC  H15B 7086   3.027   5.154   8.035  1.1350  0.0716 -1.6447
   78SLPC  H15C 7087   2.873   5.219   8.008 -1.2516  0.0493 -2.8477
   78SLPC   C12 7088   2.950   5.485   7.997  0.1709  1.0306 -0.5066
   78SLPC  H12A 7089   2.991   5.572   8.045  1.0478 -1.5105  3.9020
   78SLPC  H12B 7090   2.845   5.471   8.015  0.5117 -0.8445  0.1913
   78SLPC   C11 7091   2.969   5.515   7.842  0.0006  0.3372  0.2854
   78SLPC  H11A 7092   3.078   5.516   7.818  0.0896 -0.6424  0.6086
   78SLPC  H11B 7093   2.925   5.616   7.827 -2.0794 -0.8494 -2.3383
   78SLPC     P 7094   2.764   5.433   7.708  0.0484  0.0619  0.3668
   78SLPC   O13 7095   2.735   5.326   7.606 -0.7061  0.2804 -0.2750
   78SLPC   O14 7096   2.681   5.435   7.832  0.3202  0.1003 -0.3750
   78SLPC   O12 7097   2.917   5.416   7.758 -0.0860 -0.2247  0.1387
   78SLPC   O11 7098   2.761   5.578   7.642 -0.3491 -0.1414 -0.1081
   78SLPC    C1 7099   2.814   5.594   7.515 -0.4527 -1.1078  0.7523
   78SLPC    HA 7100   2.865   5.693   7.515 -1.1112 -0.7416 -1.1132
   78SLPC    HB 7101   2.890   5.519   7.486  2.1411  1.3292  0.8100
   78SLPC    C2 7102   2.711   5.599   7.398  0.3515  0.6149 -0.0616
   78SLPC    HS 7103   2.673   5.496   7.385  2.2164 -0.2181  0.6469
   78SLPC   O21 7104   2.783   5.651   7.283 -0.2007 -0.1374 -0.0229
   78SLPC   C21 7105   2.818   5.559   7.195  0.0461 -0.0981  0.2511
   78SLPC   O22 7106   2.822   5.441   7.209  0.0393  0.2493 -0.5210
   78SLPC   C22 7107   2.862   5.643   7.071 -0.6929 -0.0900 -0.3115
   78SLPC   H2R 7108   2.761   5.677   7.037 -0.6934  1.6133  1.2552
   78SLPC   H2S 7109   2.926   5.725   7.110 -1.0543 -0.8838  2.0876
   78SLPC    C3 7110   2.591   5.693   7.430 -0.1304  0.3936 -0.4787
   78SLPC    HX 7111   2.633   5.796   7.444  0.2344  0.2413 -0.4393
   78SLPC    HY 7112   2.533   5.674   7.523 -1.1929  1.2586 -0.9428
   78SLPC   O31 7113   2.502   5.682   7.324 -0.4619 -0.6427  0.5872
   78SLPC   C31 7114   2.464   5.794   7.257 -0.3801 -0.2438 -0.1639
   78SLPC   O32 7115   2.510   5.904   7.273  0.4977  0.4740 -0.1710
   78SLPC   C32 7116   2.354   5.772   7.161  0.0112 -0.4347  0.9585
   78SLPC   H2X 7117   2.282   5.852   7.189 -0.7715 -0.7621 -0.0381
   78SLPC   H2Y 7118   2.304   5.674   7.172 -0.0944 -0.7979 -1.9892
   78SLPC   C23 7119   2.938   5.571   6.959  0.1415  0.4218  0.0057
   78SLPC   H3R 7120   2.870   5.505   6.901  1.0818 -2.7444  2.2441
   78SLPC   H3S 7121   3.020   5.508   7.000 -2.1282 -1.6320  1.6340
   78SLPC   C24 7122   2.991   5.679   6.867 -0.9194 -0.8925 -0.1714
   78SLPC   H4R 7123   3.061   5.744   6.924 -1.0347 -2.5044  1.9012
   78SLPC   H4S 7124   2.905   5.737   6.826  0.8464 -0.2116 -3.2324
   78SLPC   C25 7125   3.075   5.630   6.751 -0.5509 -0.2964 -0.6152
   78SLPC   H5R 7126   3.171   5.597   6.796 -0.1879  2.3667  0.7742
   78SLPC   H5S 7127   3.102   5.719   6.691  0.1725 -1.2851 -1.8024
   78SLPC   C26 7128   3.015   5.520   6.661  0.2146 -0.4315 -0.0587
   78SLPC   H6R 7129   3.003   5.419   6.705 -1.2314  0.4605  1.7162
   78SLPC   H6S 7130   3.100   5.502   6.592  1.2858 -0.2546  1.1537
   78SLPC   C27 7131   2.888   5.567   6.601  0.4320 -0.3513  0.4372
   78SLPC   H7R 7132   2.818   5.613   6.674 -1.2173 -1.4036 -0.4144
   78SLPC   H7S 7133   2.834   5.481   6.556 -1.3143 -1.2035  3.8041
   78SLPC   C28 7134   2.918   5.671   6.489 -0.1720  0.2361  0.7754
   78SLPC   H8R 7135   2.976   5.757   6.528  1.8823 -0.3446 -0.8271
   78SLPC   H8S 7136   2.820   5.712   6.457 -0.3083  0.7604  1.8326
   78SLPC   C29 7137   2.998   5.621   6.375 -0.4200 -0.3705 -0.1875
   78SLPC   H9R 7138   3.102   5.607   6.409 -0.6811  1.4257  1.5264
   78SLPC  C210 7139   2.966   5.614   6.243 -0.0483 -0.7759 -0.0661
   78SLPC  H10R 7140   3.043   5.583   6.171 -2.3266 -2.0715 -2.0735
   78SLPC  C211 7141   2.832   5.652   6.176  0.2983 -0.3151 -0.6333
   78SLPC  H11R 7142   2.750   5.689   6.241  1.3393 -0.5536  0.8468
   78SLPC  H11S 7143   2.791   5.564   6.121  0.5788 -0.9558  0.1660
   78SLPC  C212 7144   2.858   5.769   6.076  0.5091 -0.3505 -0.3660
   78SLPC  H12R 7145   2.898   5.862   6.119 -1.3386  0.6070 -0.6329
   78SLPC  C213 7146   2.844   5.760   5.939  0.9383  0.0214 -0.5716
   78SLPC  H13R 7147   2.889   5.844   5.884  0.1073  1.2483  0.5570
   78SLPC  C214 7148   2.814   5.644   5.841  0.4524 -0.9415 -0.6762
   78SLPC  H14R 7149   2.712   5.654   5.798 -0.4199  0.7188  1.5714
   78SLPC  H14S 7150   2.807   5.552   5.903  1.8251 -1.2743 -0.9749
   78SLPC  C215 7151   2.920   5.615   5.734  0.5118 -0.7955 -0.5107
   78SLPC  H15R 7152   2.920   5.511   5.697  0.1336 -0.5524 -1.2068
   78SLPC  H15S 7153   3.022   5.634   5.775  0.6146 -0.4364 -0.9261
   78SLPC  C216 7154   2.920   5.713   5.617  0.8303 -0.2768 -0.3945
   78SLPC  H16R 7155   2.918   5.816   5.660 -3.4556 -0.4101  0.1533
   78SLPC  H16S 7156   2.833   5.698   5.550 -0.3089  0.6591  0.8230
   78SLPC  C217 7157   3.041   5.696   5.529  0.0818  0.3900  0.1943
   78SLPC  H17R 7158   3.028   5.593   5.491  0.5402  1.7864 -4.3465
   78SLPC  H17S 7159   3.131   5.708   5.593  0.0365 -0.4337  0.4122
   78SLPC  C218 7160   3.047   5.795   5.410  0.5652  0.5461 -0.5795
   78SLPC  H18R 7161   3.029   5.898   5.448 -0.5294 -0.2648  1.1776
   78SLPC  H18S 7162   2.978   5.760   5.330  0.1808 -2.1038  0.7932
   78SLPC  H18T 7163   3.147   5.788   5.363  0.9171 -0.5028  0.2856
   78SLPC   C33 7164   2.393   5.788   7.012  0.1549  0.2332  0.0303
   78SLPC   H3X 7165   2.466   5.870   6.993 -1.0211  1.0034 -1.3464
   78SLPC   H3Y 7166   2.302   5.811   6.953 -2.9373 -2.2888  3.3619
   78SLPC   C34 7167   2.465   5.662   6.958  0.4046 -0.2912  0.1494
   78SLPC   H4X 7168   2.399   5.573   6.960  0.2137 -0.2077 -1.5087
   78SLPC   H4Y 7169   2.546   5.633   7.029 -1.2009  0.1824  2.2615
   78SLPC   C35 7170   2.524   5.673   6.815  0.1614  0.1503 -0.0210
   78SLPC   H5X 7171   2.588   5.585   6.792  0.2966  0.8906 -2.8628
   78SLPC   H5Y 7172   2.587   5.764   6.818  0.2247  0.0912  0.6830
   78SLPC   C36 7173   2.420   5.681   6.702 -0.1820 -0.2388 -0.0381
   78SLPC   H6X 7174   2.358   5.771   6.723  0.2519  0.0693 -0.0812
   78SLPC   H6Y 7175   2.349   5.597   6.721  0.8282 -0.8468  1.1646
   78SLPC   C37 7176   2.468   5.687   6.554  0.3283  0.2993  0.7809
   78SLPC   H7X 7177   2.563   5.629   6.552  0.7438  0.9910 -0.4666
   78SLPC   H7Y 7178   2.504   5.789   6.528  0.2872  0.1890  0.2860
   78SLPC   C38 7179   2.359   5.646   6.450 -0.1648  0.2907  0.5602
   78SLPC   H8X 7180   2.289   5.731   6.439  0.4778  0.8588  0.7477
   78SLPC   H8Y 7181   2.306   5.557   6.489 -0.4308 -0.2417 -0.9368
   78SLPC   C39 7182   2.414   5.610   6.306 -0.5841  0.1185 -0.3853
   78SLPC   H9X 7183   2.415   5.501   6.289 -0.5734 -0.1280  1.0476
   78SLPC   H9Y 7184   2.517   5.652   6.301 -0.3296 -0.2360  1.2061
   78SLPC  C310 7185   2.333   5.684   6.195 -0.2628  0.1551 -0.0419
   78SLPC  H10X 7186   2.373   5.788   6.198 -0.9501  0.3982  1.7391
   78SLPC  H10Y 7187   2.225   5.672   6.215 -0.2937 -2.2683 -1.2791
   78SLPC  C311 7188   2.362   5.632   6.052 -0.1272 -0.2234 -0.1924
   78SLPC  H11X 7189   2.359   5.521   6.056 -0.6496 -0.1794  1.0845
   78SLPC  H11Y 7190   2.467   5.657   6.025 -0.1683  0.2645  0.0743
   78SLPC  C312 7191   2.251   5.681   5.958 -0.0100  0.0860 -0.0481
   78SLPC  H12X 7192   2.252   5.792   5.958 -0.3880  0.0891 -0.0423
   78SLPC  H12Y 7193   2.150   5.648   5.990 -0.1401 -1.0734 -1.5592
   78SLPC  C313 7194   2.267   5.647   5.815  0.0924 -0.6371 -0.2546
   78SLPC  H13X 7195   2.277   5.539   5.790 -0.0875 -0.2677 -2.0278
   78SLPC  H13Y 7196   2.361   5.695   5.781  1.2800 -2.0230  0.9189
   78SLPC  C314 7197   2.152   5.708   5.741  0.6469  0.2952 -0.1179
   78SLPC  H14X 7198   2.162   5.816   5.716 -3.2260  0.5210 -1.3344
   78SLPC  H14Y 7199   2.055   5.688   5.793 -0.1207  0.8519 -1.2861
   78SLPC  C315 7200   2.142   5.643   5.602  0.3081 -0.6927 -0.0931
   78SLPC  H15X 7201   2.153   5.532   5.601  0.9126 -0.6463  0.3643
   78SLPC  H15Y 7202   2.227   5.670   5.535  1.1065 -2.0317  0.3323
   78SLPC  C316 7203   1.994   5.645   5.548  0.4848 -0.4219  0.1476
   78SLPC  H16X 7204   1.923   5.620   5.630  0.8478 -0.9328  0.3053
   78SLPC  H16Y 7205   1.987   5.564   5.473  1.9514 -0.3735 -0.0740
   78SLPC  C317 7206   1.952   5.774   5.484 -0.0718 -0.9454  0.7814
   78SLPC  H17X 7207   2.024   5.793   5.401 -1.2616 -3.0294 -0.8185
   78SLPC  H17Y 7208   1.963   5.851   5.564  1.7830 -1.1415  0.7475
   78SLPC  C318 7209   1.808   5.776   5.436  0.0655  0.0412  0.4118
   78SLPC  H18X 7210   1.782   5.691   5.370 -2.0073  2.0383 -1.5425
   78SLPC  H18Y 7211   1.809   5.855   5.358  0.9392 -0.9887 -0.6652
   78SLPC  H18Z 7212   1.722   5.784   5.506  0.1986 -0.3499  0.6212
   79SLPC     N 7213   6.622   4.811   7.960 -0.0609  0.2636  0.2216
   79SLPC   C13 7214   6.616   4.857   7.820 -0.3999  0.5065  0.0823
   79SLPC  H13A 7215   6.662   4.952   7.802  1.3146 -0.6156 -1.8495
   79SLPC  H13B 7216   6.658   4.781   7.756 -0.9342  1.6171 -1.6662
   79SLPC  H13C 7217   6.516   4.871   7.782  0.2846  1.7491 -1.3542
   79SLPC   C14 7218   6.534   4.687   7.993 -0.9492 -0.0939 -0.7525
   79SLPC  H14A 7219   6.429   4.702   7.975 -1.2768  0.3995  1.3398
   79SLPC  H14B 7220   6.571   4.602   7.937  1.2325  1.3833 -1.6749
   79SLPC  H14C 7221   6.543   4.672   8.099 -0.5206  0.7150 -0.6658
   79SLPC   C15 7222   6.571   4.931   8.038  0.3977 -0.1810 -0.0653
   79SLPC  H15A 7223   6.626   5.020   8.015 -2.0982  1.3392 -0.4980
   79SLPC  H15B 7224   6.467   4.952   8.020  0.0103 -0.9150  1.1368
   79SLPC  H15C 7225   6.577   4.905   8.143  0.3785 -0.3263 -0.0994
   79SLPC   C12 7226   6.769   4.776   8.001  0.8653 -0.0073  1.2836
   79SLPC  H12A 7227   6.764   4.770   8.108  0.7402 -0.4165  1.2548
   79SLPC  H12B 7228   6.828   4.859   7.965 -0.7485  0.4292 -0.5372
   79SLPC   C11 7229   6.826   4.644   7.948  0.9207 -0.1221  0.5186
   79SLPC  H11A 7230   6.761   4.571   8.000  0.9119 -1.4995 -1.3376
   79SLPC  H11B 7231   6.931   4.623   7.981  0.7272 -0.3603  1.0005
   79SLPC     P 7232   6.750   4.504   7.744  0.1952  0.3638  0.1102
   79SLPC   O13 7233   6.825   4.385   7.786  0.3213 -0.3322  0.7157
   79SLPC   O14 7234   6.608   4.507   7.769  0.0457 -0.1631  0.7311
   79SLPC   O12 7235   6.814   4.633   7.807 -0.4803  0.1960  0.5837
   79SLPC   O11 7236   6.758   4.527   7.590 -0.0392  0.1329  0.3998
   79SLPC    C1 7237   6.662   4.484   7.490  0.7488 -0.0781 -0.3328
   79SLPC    HA 7238   6.712   4.399   7.439  1.6174 -1.3646  2.4596
   79SLPC    HB 7239   6.564   4.446   7.528  0.2175  1.5860  0.0127
   79SLPC    C2 7240   6.625   4.593   7.396 -0.3003  0.0601  0.4752
   79SLPC    HS 7241   6.562   4.551   7.315  1.0127 -2.6072  0.7058
   79SLPC   O21 7242   6.731   4.664   7.344  0.1200 -0.0498 -0.2306
   79SLPC   C21 7243   6.794   4.603   7.250  0.2824 -0.2095 -0.2036
   79SLPC   O22 7244   6.762   4.496   7.203 -0.5361 -0.0276 -0.3565
   79SLPC   C22 7245   6.896   4.703   7.192 -0.1908  0.2270  0.7863
   79SLPC   H2R 7246   6.838   4.792   7.161  0.7325  0.9022  0.9626
   79SLPC   H2S 7247   6.957   4.746   7.274  1.6761  0.8286 -0.8117
   79SLPC    C3 7248   6.542   4.692   7.475  0.9179 -0.0214 -0.2470
   79SLPC    HX 7249   6.607   4.729   7.558  3.1146 -0.5997 -1.6433
   79SLPC    HY 7250   6.466   4.626   7.521  3.0567 -0.6651  2.6474
   79SLPC   O31 7251   6.486   4.799   7.390  0.0926  0.2969  0.1573
   79SLPC   C31 7252   6.532   4.915   7.425 -0.2410 -0.5600 -0.3709
   79SLPC   O32 7253   6.607   4.948   7.516  0.0522 -0.1904  0.4624
   79SLPC   C32 7254   6.471   5.024   7.331 -0.5020 -0.0054 -0.8167
   79SLPC   H2X 7255   6.380   5.072   7.374  1.7576  2.8148  1.1708
   79SLPC   H2Y 7256   6.445   4.966   7.240  0.1419 -2.2432  0.3432
   79SLPC   C23 7257   6.989   4.644   7.083 -0.2769 -1.0515  0.5739
   79SLPC   H3R 7258   7.029   4.544   7.109 -1.3030 -2.5358 -2.9614
   79SLPC   H3S 7259   7.070   4.716   7.058  0.8160 -3.1843 -2.5662
   79SLPC   C24 7260   6.916   4.634   6.946  0.2906  0.3641 -0.0972
   79SLPC   H4R 7261   6.881   4.736   6.918 -2.0031 -0.2903  0.1911
   79SLPC   H4S 7262   6.825   4.572   6.959 -0.0084  0.6008 -0.9628
   79SLPC   C25 7263   6.993   4.562   6.830 -0.2329 -0.3776 -0.2134
   79SLPC   H5R 7264   6.980   4.452   6.847 -0.7942 -0.4726 -1.1971
   79SLPC   H5S 7265   7.100   4.589   6.834 -0.2407 -0.3752 -0.0129
   79SLPC   C26 7266   6.955   4.629   6.698 -0.8624  0.0696 -0.0953
   79SLPC   H6R 7267   6.975   4.739   6.694 -2.3071  0.3114 -1.7722
   79SLPC   H6S 7268   6.844   4.627   6.700 -0.8490 -0.5149  0.0703
   79SLPC   C27 7269   6.997   4.563   6.566 -0.0926 -0.2916  0.0328
   79SLPC   H7R 7270   6.955   4.460   6.574 -0.5852 -0.1986 -1.1527
   79SLPC   H7S 7271   7.107   4.551   6.554 -0.2100  0.0323 -1.5273
   79SLPC   C28 7272   6.938   4.627   6.441 -0.0639  0.4952  0.5702
   79SLPC   H8R 7273   6.987   4.723   6.413 -0.9373  0.7766 -0.0719
   79SLPC   H8S 7274   6.833   4.650   6.471 -0.2494  0.3560  0.0287
   79SLPC   C29 7275   6.933   4.536   6.322 -0.4004 -0.4596  0.1142
   79SLPC   H9R 7276   6.925   4.430   6.350  0.3884 -0.1915  1.4138
   79SLPC  C210 7277   6.932   4.578   6.194  0.2981 -0.0147 -1.0355
   79SLPC  H10R 7278   6.926   4.500   6.117  0.3236 -1.2536  0.1851
   79SLPC  C211 7279   6.942   4.719   6.133 -0.4292  0.5564 -0.6492
   79SLPC  H11R 7280   7.039   4.750   6.090 -0.1167  0.5088  0.0140
   79SLPC  H11S 7281   6.909   4.795   6.208  0.2895  0.0966  0.1473
   79SLPC  C212 7282   6.848   4.727   6.019  0.0753  0.5425  0.3806
   79SLPC  H12R 7283   6.741   4.746   6.041 -0.3042 -0.5572 -0.4331
   79SLPC  C213 7284   6.873   4.687   5.897  0.1146 -0.1242 -0.5304
   79SLPC  H13R 7285   6.800   4.699   5.816  0.5294 -1.6832 -1.1712
   79SLPC  C214 7286   7.001   4.629   5.851 -0.8265 -0.0262  0.4391
   79SLPC  H14R 7287   7.003   4.521   5.876 -0.0126 -0.1962 -0.3055
   79SLPC  H14S 7288   7.091   4.675   5.896 -0.6323 -0.4508  0.4889
   79SLPC  C215 7289   7.018   4.631   5.701  0.0825  0.0652 -0.3326
   79SLPC  H15R 7290   6.918   4.609   5.656  0.2477  0.2343 -0.7914
   79SLPC  H15S 7291   7.086   4.558   5.652 -0.3220  0.4428 -1.4989
   79SLPC  C216 7292   7.053   4.770   5.661 -0.1404  0.7016 -0.0705
   79SLPC  H16R 7293   7.099   4.826   5.746 -0.1527 -0.2431  0.5764
   79SLPC  H16S 7294   6.961   4.828   5.643  0.0400  1.7107  1.9409
   79SLPC  C217 7295   7.158   4.786   5.552  0.4237 -0.3577  0.2702
   79SLPC  H17R 7296   7.174   4.890   5.515 -0.2743 -0.8912 -1.6473
   79SLPC  H17S 7297   7.130   4.721   5.466 -3.4027  0.8167  0.4302
   79SLPC  C218 7298   7.300   4.750   5.608  0.1977  0.2084 -0.3334
   79SLPC  H18R 7299   7.349   4.830   5.666 -0.5382  0.1680  0.3662
   79SLPC  H18S 7300   7.370   4.727   5.525 -1.5197 -1.3540 -1.4490
   79SLPC  H18T 7301   7.298   4.661   5.674  0.9080  1.5149  1.5175
   79SLPC   C33 7302   6.583   5.134   7.300 -0.2194 -0.1647  0.6639
   79SLPC   H3X 7303   6.638   5.182   7.384 -0.3397  2.8979 -0.8857
   79SLPC   H3Y 7304   6.527   5.212   7.245  1.0847 -1.7660 -3.3235
   79SLPC   C34 7305   6.684   5.079   7.192  0.1351 -0.0248  0.0620
   79SLPC   H4X 7306   6.702   4.970   7.194 -0.3701 -0.0960  0.6691
   79SLPC   H4Y 7307   6.782   5.133   7.200 -1.2949  2.4619  2.7486
   79SLPC   C35 7308   6.625   5.113   7.051  0.6596  0.4275 -0.0856
   79SLPC   H5X 7309   6.627   5.223   7.042  0.9095  0.3759 -0.6673
   79SLPC   H5Y 7310   6.524   5.066   7.055  0.7826  0.0931 -0.7547
   79SLPC   C36 7311   6.712   5.045   6.943  0.5289  0.1206 -0.1776
   79SLPC   H6X 7312   6.712   4.937   6.968  0.1880  0.4909  1.5815
   79SLPC   H6Y 7313   6.818   5.068   6.965  0.1626  1.2470  0.5109
   79SLPC   C37 7314   6.686   5.083   6.799 -0.1486 -0.0187  0.1262
   79SLPC   H7X 7315   6.707   5.192   6.795 -3.1663  0.6180 -0.6541
   79SLPC   H7Y 7316   6.579   5.063   6.775 -0.1508 -0.1386  0.2362
   79SLPC   C38 7317   6.772   5.002   6.701  0.6062  0.5926 -0.3829
   79SLPC   H8X 7318   6.764   4.893   6.718  1.6987  0.6278  0.5282
   79SLPC   H8Y 7319   6.879   5.029   6.718  0.5537  0.4567  0.1697
   79SLPC   C39 7320   6.738   5.037   6.561 -0.0611 -0.6071  0.5124
   79SLPC   H9X 7321   6.771   5.143   6.553  1.1776 -1.0557 -0.7602
   79SLPC   H9Y 7322   6.627   5.049   6.557 -0.4797 -1.9303  4.2362
   79SLPC  C310 7323   6.799   4.956   6.447 -0.1348  0.4470  0.1535
   79SLPC  H10X 7324   6.770   4.849   6.450  0.5822  0.2299 -0.2611
   79SLPC  H10Y 7325   6.908   4.944   6.466  0.0809  0.2227 -1.1691
   79SLPC  C311 7326   6.771   5.018   6.315 -0.2253 -0.5137  0.3931
   79SLPC  H11X 7327   6.808   4.951   6.234 -0.3748 -0.2039  0.0682
   79SLPC  H11Y 7328   6.810   5.121   6.302 -1.3857  0.3792  3.2565
   79SLPC  C312 7329   6.623   5.036   6.289  0.9445 -0.7625  0.5268
   79SLPC  H12X 7330   6.564   5.097   6.361  0.2501 -2.1801  1.2150
   79SLPC  H12Y 7331   6.582   4.934   6.303  1.2528 -0.8134  1.0514
   79SLPC  C313 7332   6.590   5.098   6.148 -0.6869 -0.2409 -0.1008
   79SLPC  H13X 7333   6.641   5.197   6.143 -0.8116  0.0821  2.9575
   79SLPC  H13Y 7334   6.479   5.104   6.153 -0.6673  0.1647 -0.1067
   79SLPC  C314 7335   6.628   5.005   6.032  0.0103 -0.2476 -0.0939
   79SLPC  H14X 7336   6.568   4.914   6.050 -0.0897 -0.2461 -0.4094
   79SLPC  H14Y 7337   6.736   4.979   6.038 -0.2993 -1.6787 -0.3541
   79SLPC  C315 7338   6.603   5.075   5.892  0.2670 -0.1612  0.4620
   79SLPC  H15X 7339   6.651   5.174   5.901 -2.2524  1.0429  1.7091
   79SLPC  H15Y 7340   6.494   5.096   5.883  0.7185  1.4452 -3.8965
   79SLPC  C316 7341   6.636   4.989   5.766  0.4279  0.0223 -0.2687
   79SLPC  H16X 7342   6.747   4.976   5.759  0.1416 -2.8114 -0.8208
   79SLPC  H16Y 7343   6.608   5.058   5.684  0.8214  0.5243  0.0070
   79SLPC  C317 7344   6.557   4.856   5.760 -0.5646  0.2041  0.0505
   79SLPC  H17X 7345   6.449   4.879   5.755 -0.3357  1.1912 -3.9481
   79SLPC  H17Y 7346   6.572   4.792   5.849  0.3753  1.6283  0.9703
   79SLPC  C318 7347   6.593   4.780   5.637 -0.1813 -0.3966  0.1517
   79SLPC  H18X 7348   6.702   4.780   5.620  0.2372  0.7700  2.3784
   79SLPC  H18Y 7349   6.545   4.811   5.542  0.2930 -0.5622 -0.1403
   79SLPC  H18Z 7350   6.559   4.674   5.638  0.2472 -0.5807  2.5321
   80SLPC     N 7351   6.020   6.424   7.612  0.2200  0.5889 -0.1660
   80SLPC   C13 7352   6.105   6.534   7.659  0.2844 -0.3802 -0.3743
   80SLPC  H13A 7353   6.193   6.493   7.706  0.9888  1.5777  0.1211
   80SLPC  H13B 7354   6.143   6.589   7.575 -1.0210 -0.5462 -1.1047
   80SLPC  H13C 7355   6.063   6.601   7.734  1.5348  0.2659 -0.2331
   80SLPC   C14 7356   5.909   6.487   7.524  0.9276  0.4435 -0.3801
   80SLPC  H14A 7357   5.945   6.527   7.430  0.1601  1.3735 -0.2865
   80SLPC  H14B 7358   5.840   6.408   7.500  1.9520 -0.9486  1.0422
   80SLPC  H14C 7359   5.848   6.560   7.574  0.0452  0.4581 -1.4351
   80SLPC   C15 7360   5.959   6.358   7.729 -0.7266 -0.1061 -0.6939
   80SLPC  H15A 7361   5.920   6.434   7.794 -0.1315 -0.5276  0.1732
   80SLPC  H15B 7362   5.869   6.303   7.706  0.5662 -3.5180  1.6242
   80SLPC  H15C 7363   6.033   6.302   7.785  0.8295 -1.2197 -3.6460
   80SLPC   C12 7364   6.091   6.323   7.524 -0.5504 -0.0093 -0.1368
   80SLPC  H12A 7365   6.013   6.258   7.489 -2.1345 -0.6611  4.1013
   80SLPC  H12B 7366   6.140   6.251   7.588 -0.6287 -0.7805 -0.9239
   80SLPC   C11 7367   6.198   6.360   7.414 -0.1774 -0.6959 -0.3392
   80SLPC  H11A 7368   6.142   6.417   7.337 -0.9605 -0.0967  0.6506
   80SLPC  H11B 7369   6.234   6.262   7.377 -1.6761 -1.0148 -1.0256
   80SLPC     P 7370   6.376   6.542   7.394 -0.2214 -0.3714 -0.1984
   80SLPC   O13 7371   6.289   6.665   7.391  0.2511  0.1028  0.3124
   80SLPC   O14 7372   6.513   6.554   7.439 -0.2106 -0.0677  0.4595
   80SLPC   O12 7373   6.307   6.429   7.473 -0.1622  0.6275 -0.1312
   80SLPC   O11 7374   6.368   6.492   7.244 -0.0883  0.1956 -0.0060
   80SLPC    C1 7375   6.479   6.499   7.151  0.4776 -0.0689  0.1371
   80SLPC    HA 7376   6.576   6.477   7.201  0.3413  0.5995  0.7050
   80SLPC    HB 7377   6.476   6.405   7.091 -0.7633 -0.7693  1.2393
   80SLPC    C2 7378   6.485   6.623   7.062  0.1330 -0.9429 -0.3643
   80SLPC    HS 7379   6.479   6.716   7.122 -1.0624 -0.3603 -1.3283
   80SLPC   O21 7380   6.386   6.609   6.964  0.1303 -0.7305 -0.8830
   80SLPC   C21 7381   6.317   6.721   6.937 -0.3899  0.1861  0.1230
   80SLPC   O22 7382   6.326   6.825   6.997  0.3163  0.4558  0.3525
   80SLPC   C22 7383   6.237   6.697   6.806 -0.6584 -0.0506 -0.2825
   80SLPC   H2R 7384   6.296   6.626   6.744 -0.6794 -1.1331  0.8895
   80SLPC   H2S 7385   6.144   6.644   6.836 -0.9748 -0.1399 -1.3737
   80SLPC    C3 7386   6.623   6.629   6.985  0.3085  0.8643  0.3292
   80SLPC    HX 7387   6.637   6.531   6.934  0.9527  1.5089 -0.7453
   80SLPC    HY 7388   6.706   6.625   7.059 -0.4105 -1.7122  1.1184
   80SLPC   O31 7389   6.632   6.726   6.877 -0.7519 -0.2436 -0.0346
   80SLPC   C31 7390   6.648   6.842   6.922 -0.6558  0.2849 -1.1520
   80SLPC   O32 7391   6.683   6.873   7.035 -0.0171 -0.0739  0.2182
   80SLPC   C32 7392   6.630   6.940   6.802 -0.0459 -0.5018 -0.2973
   80SLPC   H2X 7393   6.532   6.927   6.753 -0.1835 -0.0113 -0.1590
   80SLPC   H2Y 7394   6.707   6.907   6.728  0.4350  0.9031 -0.4656
   80SLPC   C23 7395   6.208   6.827   6.733 -0.3901 -0.3241  0.5125
   80SLPC   H3R 7396   6.301   6.881   6.704 -1.3108  1.4704  0.7903
   80SLPC   H3S 7397   6.177   6.899   6.811 -0.8121 -0.7512  0.7462
   80SLPC   C24 7398   6.098   6.818   6.629 -0.2341  0.0143  0.1183
   80SLPC   H4R 7399   6.066   6.921   6.600 -2.5977 -0.8748 -0.7029
   80SLPC   H4S 7400   6.005   6.772   6.667  1.4499 -3.2416  0.6495
   80SLPC   C25 7401   6.134   6.732   6.508 -0.8894  0.2300  0.5001
   80SLPC   H5R 7402   6.045   6.716   6.443  0.3309  0.4109 -1.3021
   80SLPC   H5S 7403   6.167   6.633   6.546  1.3890  0.6800 -0.1231
   80SLPC   C26 7404   6.258   6.774   6.421  0.1453 -0.2389 -0.0432
   80SLPC   H6R 7405   6.285   6.703   6.340 -2.0509 -0.8347 -0.3211
   80SLPC   H6S 7406   6.340   6.777   6.495  0.3827  3.1755 -0.2649
   80SLPC   C27 7407   6.260   6.911   6.351  0.5306  0.0929 -0.0038
   80SLPC   H7R 7408   6.230   6.989   6.424  0.9819 -0.3454  0.6641
   80SLPC   H7S 7409   6.202   6.908   6.257  1.4619 -1.3021 -0.5790
   80SLPC   C28 7410   6.394   6.945   6.292 -0.1655 -0.1822  0.3235
   80SLPC   H8R 7411   6.378   7.024   6.215  1.9133  0.7794  0.8143
   80SLPC   H8S 7412   6.443   6.854   6.252 -0.4585  0.2319 -1.0391
   80SLPC   C29 7413   6.493   7.001   6.388  0.2267 -0.4536 -0.6451
   80SLPC   H9R 7414   6.435   7.048   6.470  0.9581  0.2939 -0.5426
   80SLPC  C210 7415   6.627   6.992   6.385 -0.1530  0.2879  0.0732
   80SLPC  H10R 7416   6.694   7.053   6.447  1.2008 -0.7297 -0.3252
   80SLPC  C211 7417   6.696   6.927   6.265 -0.0575  0.5456 -0.0991
   80SLPC  H11R 7418   6.800   6.965   6.258 -0.5093  2.2707  1.5526
   80SLPC  H11S 7419   6.650   6.940   6.165  2.8749 -1.5746 -1.8832
   80SLPC  C212 7420   6.702   6.773   6.271 -0.9755  0.0931 -0.7582
   80SLPC  H12R 7421   6.631   6.732   6.345 -0.0143  1.0065  0.7458
   80SLPC  C213 7422   6.790   6.693   6.201 -0.5587 -0.2984  0.5621
   80SLPC  H13R 7423   6.802   6.591   6.241  1.7687 -0.3778 -0.1850
   80SLPC  C214 7424   6.897   6.742   6.106  0.8353  0.3845  0.6758
   80SLPC  H14R 7425   6.988   6.769   6.162  1.5158  2.3199 -1.2132
   80SLPC  H14S 7426   6.852   6.833   6.060 -1.6738 -1.0311  0.1499
   80SLPC  C215 7427   6.938   6.643   6.002 -0.4876 -0.0644  0.5110
   80SLPC  H15R 7428   6.939   6.541   6.047 -0.8510 -0.0232  0.6130
   80SLPC  H15S 7429   7.043   6.660   5.970 -0.4579  1.3974  1.3347
   80SLPC  C216 7430   6.851   6.641   5.878 -0.0273  0.2042 -0.1475
   80SLPC  H16R 7431   6.746   6.613   5.902  0.5409 -3.6111 -1.3219
   80SLPC  H16S 7432   6.882   6.566   5.802  1.0578 -0.2253  0.6899
   80SLPC  C217 7433   6.848   6.779   5.801 -0.3533 -0.3742  0.0327
   80SLPC  H17R 7434   6.802   6.857   5.864  1.0680  0.2268  0.3576
   80SLPC  H17S 7435   6.790   6.765   5.706  2.6606 -3.3682 -1.5947
   80SLPC  C218 7436   6.986   6.832   5.755 -0.2494 -0.4304 -0.2600
   80SLPC  H18R 7437   6.989   6.939   5.725  1.0380 -0.1472  0.7834
   80SLPC  H18S 7438   7.026   6.776   5.668  0.2886 -0.7361  0.1812
   80SLPC  H18T 7439   7.059   6.839   5.838 -0.4586  2.9120 -0.2237
   80SLPC   C33 7440   6.664   7.081   6.834 -0.7194 -0.2053 -0.0299
   80SLPC   H3X 7441   6.678   7.126   6.733  2.4813 -4.8910 -2.0693
   80SLPC   H3Y 7442   6.765   7.078   6.880 -0.2724 -1.7698 -1.0180
   80SLPC   C34 7443   6.573   7.166   6.927  0.6898  0.0401 -0.0956
   80SLPC   H4X 7444   6.640   7.232   6.986 -2.4367  1.5342  2.0888
   80SLPC   H4Y 7445   6.526   7.101   7.004  1.1587  0.7601  0.8038
   80SLPC   C35 7446   6.471   7.252   6.855 -0.0750 -1.2124  0.1293
   80SLPC   H5X 7447   6.396   7.276   6.934 -0.4712 -2.0375  0.0158
   80SLPC   H5Y 7448   6.424   7.192   6.775 -2.7678 -1.8382  2.0407
   80SLPC   C36 7449   6.524   7.393   6.796 -0.2281 -0.0292 -0.1346
   80SLPC   H6X 7450   6.591   7.450   6.864  0.1048  1.0025 -1.2849
   80SLPC   H6Y 7451   6.447   7.473   6.794  0.7442  1.0559  1.9984
   80SLPC   C37 7452   6.585   7.382   6.646  0.3703  0.1824  0.3771
   80SLPC   H7X 7453   6.514   7.314   6.595 -0.0582  1.1838 -0.3880
   80SLPC   H7Y 7454   6.683   7.330   6.657 -0.1772 -0.8721  0.3207
   80SLPC   C38 7455   6.586   7.517   6.584 -0.1485  0.0552 -0.2298
   80SLPC   H8X 7456   6.639   7.596   6.641  0.4368 -1.2065  1.0244
   80SLPC   H8Y 7457   6.478   7.543   6.587 -0.0385  0.4209  1.3127
   80SLPC   C39 7458   6.644   7.532   6.440  0.7964  0.0971 -0.4025
   80SLPC   H9X 7459   6.755   7.539   6.442  0.7665  0.7419 -0.6573
   80SLPC   H9Y 7460   6.600   7.629   6.409 -0.5406 -0.5188 -0.4942
   80SLPC  C310 7461   6.603   7.420   6.345 -0.2886 -0.0918 -0.3633
   80SLPC  H10X 7462   6.492   7.412   6.338 -0.6604  3.0015  0.5604
   80SLPC  H10Y 7463   6.635   7.321   6.383  0.0811  0.7146  1.4833
   80SLPC  C311 7464   6.666   7.434   6.203  0.1743  1.0252  0.1271
   80SLPC  H11X 7465   6.636   7.347   6.142 -0.4436  1.3190  0.0146
   80SLPC  H11Y 7466   6.776   7.424   6.217  0.1075 -2.4940 -1.0286
   80SLPC  C312 7467   6.636   7.562   6.125 -0.4738 -0.3582 -0.2172
   80SLPC  H12X 7468   6.651   7.641   6.202 -0.3359 -1.0979  0.5235
   80SLPC  H12Y 7469   6.527   7.549   6.113 -0.8136 -0.0688  2.1609
   80SLPC  C313 7470   6.704   7.574   5.992  0.1614 -0.0151  1.2835
   80SLPC  H13X 7471   6.811   7.547   6.006  0.2490 -0.3251  0.0868
   80SLPC  H13Y 7472   6.709   7.678   5.953  0.1710 -0.7268 -0.7661
   80SLPC  C314 7473   6.641   7.487   5.885 -0.1163  0.0830 -0.4876
   80SLPC  H14X 7474   6.593   7.394   5.923  1.3928 -0.8807 -0.8317
   80SLPC  H14Y 7475   6.728   7.436   5.837  1.8960  2.6743  0.1285
   80SLPC  C315 7476   6.548   7.552   5.796  0.4376 -0.0653  0.6456
   80SLPC  H15X 7477   6.602   7.637   5.748 -1.5306  1.0437  0.2720
   80SLPC  H15Y 7478   6.458   7.589   5.849 -0.8704 -1.5400 -0.4499
   80SLPC  C316 7479   6.504   7.458   5.688 -0.4334  0.8635 -0.0384
   80SLPC  H16X 7480   6.468   7.364   5.734  0.6365 -0.1046 -1.0964
   80SLPC  H16Y 7481   6.596   7.440   5.628  0.0631 -0.2286  0.9915
   80SLPC  C317 7482   6.387   7.500   5.597 -0.2903 -0.2017 -0.1703
   80SLPC  H17X 7483   6.394   7.601   5.553 -0.4671 -0.4756 -0.8422
   80SLPC  H17Y 7484   6.305   7.496   5.672  0.4549  0.3769  0.6996
   80SLPC  C318 7485   6.355   7.408   5.483 -0.5247  0.0343  0.2431
   80SLPC  H18X 7486   6.443   7.394   5.416  0.5667  2.6381  1.0083
   80SLPC  H18Y 7487   6.280   7.459   5.418  0.7127  1.5667 -0.0457
   80SLPC  H18Z 7488   6.301   7.314   5.505 -0.3390 -0.0029  0.5373
   81SLPC     N 7489   2.559   0.768   2.924 -0.8670 -0.3415  0.2404
   81SLPC   C13 7490   2.612   0.858   2.818  0.4451 -0.0074 -0.0871
   81SLPC  H13A 7491   2.529   0.918   2.785  0.7770  1.4827  1.6365
   81SLPC  H13B 7492   2.690   0.928   2.845  0.3459  0.3443 -0.6925
   81SLPC  H13C 7493   2.642   0.790   2.739  1.7781 -0.7659  1.0244
   81SLPC   C14 7494   2.440   0.689   2.877 -0.2848  0.2374 -0.2727
   81SLPC  H14A 7495   2.485   0.624   2.804 -2.2762 -1.7135  0.1129
   81SLPC  H14B 7496   2.394   0.625   2.951 -2.1384  1.6690 -0.1094
   81SLPC  H14C 7497   2.364   0.751   2.832  1.2199  1.3217 -1.4191
   81SLPC   C15 7498   2.516   0.860   3.039  0.5991 -0.3263 -0.5594
   81SLPC  H15A 7499   2.473   0.799   3.117 -2.3962 -0.1579 -1.9138
   81SLPC  H15B 7500   2.599   0.919   3.075  0.6952  0.9520 -2.6502
   81SLPC  H15C 7501   2.442   0.930   3.002 -0.6992 -0.6620  1.2784
   81SLPC   C12 7502   2.671   0.676   2.972  0.1312  0.6208  0.1087
   81SLPC  H12A 7503   2.753   0.735   3.010  2.0608 -2.7514  1.6397
   81SLPC  H12B 7504   2.711   0.621   2.888  0.3456 -1.2494  1.3682
   81SLPC   C11 7505   2.647   0.587   3.101  0.7220 -0.9911  0.2583
   81SLPC  H11A 7506   2.703   0.492   3.089  3.2914 -0.0294  3.1343
   81SLPC  H11B 7507   2.543   0.553   3.119 -0.1098  1.3037  0.1043
   81SLPC     P 7508   2.842   0.681   3.250  0.4615 -0.4596 -0.1491
   81SLPC   O13 7509   2.904   0.739   3.134 -0.7751 -0.3439  0.7920
   81SLPC   O14 7510   2.854   0.755   3.378  0.3487  0.9859  0.0144
   81SLPC   O12 7511   2.688   0.669   3.217 -0.3410 -0.3039 -0.1655
   81SLPC   O11 7512   2.899   0.540   3.262 -0.3903  0.5146  0.1074
   81SLPC    C1 7513   2.834   0.443   3.347  0.7078 -0.2026  0.1272
   81SLPC    HA 7514   2.725   0.436   3.328  0.2189  2.1786  1.5893
   81SLPC    HB 7515   2.873   0.346   3.310 -1.8796 -0.9458 -0.8775
   81SLPC    C2 7516   2.858   0.459   3.497  0.2659 -0.1877  0.0441
   81SLPC    HS 7517   2.826   0.558   3.534 -0.0033  0.2422 -1.2850
   81SLPC   O21 7518   2.999   0.431   3.517  0.0306  0.1349 -0.3460
   81SLPC   C21 7519   3.036   0.472   3.639 -0.1564  0.3872 -0.0046
   81SLPC   O22 7520   2.958   0.533   3.711 -0.1230 -0.1887  0.0260
   81SLPC   C22 7521   3.178   0.424   3.688 -0.5148  0.2655  1.2398
   81SLPC   H2R 7522   3.173   0.315   3.671  2.2623  0.5206 -2.3296
   81SLPC   H2S 7523   3.259   0.473   3.631  0.6222 -0.4834  2.1502
   81SLPC    C3 7524   2.777   0.353   3.576 -0.2573 -0.1753 -0.9015
   81SLPC    HX 7525   2.669   0.381   3.569  0.5631  3.2184 -1.6749
   81SLPC    HY 7526   2.790   0.371   3.685 -1.1976 -0.7930 -0.6731
   81SLPC   O31 7527   2.807   0.220   3.527 -0.2203 -0.1894  0.0898
   81SLPC   C31 7528   2.873   0.140   3.608  0.1041 -0.4525 -0.3161
   81SLPC   O32 7529   2.902   0.176   3.725 -0.7582 -0.1578  0.0518
   81SLPC   C32 7530   2.882   0.001   3.544 -0.0655 -0.5945  0.0181
   81SLPC   H2X 7531   2.905   0.008   3.436  2.2929  1.2800  0.5661
   81SLPC   H2Y 7532   2.779  -0.041   3.549 -1.5894  2.5291 -1.4994
   81SLPC   C23 7533   3.214   0.453   3.835 -0.2834  1.1910 -0.1415
   81SLPC   H3R 7534   3.192   0.557   3.867 -0.0653  0.7660  1.4809
   81SLPC   H3S 7535   3.323   0.439   3.855 -0.3007 -0.0468 -0.8095
   81SLPC   C24 7536   3.131   0.355   3.921  0.4306 -0.4090  0.5358
   81SLPC   H4R 7537   3.136   0.247   3.898 -2.4688 -0.7860  1.2912
   81SLPC   H4S 7538   3.021   0.375   3.927  0.6389  0.6990  1.0351
   81SLPC   C25 7539   3.182   0.362   4.066 -0.1301  0.0104  0.7723
   81SLPC   H5R 7540   3.179   0.464   4.110  1.0046  1.2743 -1.8942
   81SLPC   H5S 7541   3.291   0.341   4.074 -0.1121 -0.8599 -1.1714
   81SLPC   C26 7542   3.117   0.265   4.164  0.2973 -0.5809 -0.2815
   81SLPC   H6R 7543   3.135   0.169   4.111  2.3821 -0.0952 -0.5501
   81SLPC   H6S 7544   3.008   0.286   4.168  0.8000  2.3288  1.5286
   81SLPC   C27 7545   3.176   0.265   4.307 -0.7811 -0.2807 -0.3703
   81SLPC   H7R 7546   3.281   0.246   4.277 -0.9336 -2.1284  0.1443
   81SLPC   H7S 7547   3.128   0.177   4.355  0.9770 -0.8708  0.3858
   81SLPC   C28 7548   3.161   0.398   4.381 -0.3693  0.7580  0.6838
   81SLPC   H8R 7549   3.063   0.410   4.431 -0.3998 -0.9675  1.1091
   81SLPC   H8S 7550   3.146   0.479   4.306 -1.0259 -0.4355 -0.5220
   81SLPC   C29 7551   3.271   0.413   4.479  0.8872  0.4194 -0.1201
   81SLPC   H9R 7552   3.371   0.420   4.434  1.3706  2.5071  1.1148
   81SLPC  C210 7553   3.253   0.425   4.614  0.1605  0.3208  0.1452
   81SLPC  H10R 7554   3.335   0.447   4.684  0.0393  0.7589  0.1530
   81SLPC  C211 7555   3.127   0.424   4.692 -0.4612  0.4964 -0.3376
   81SLPC  H11R 7556   3.053   0.360   4.639  0.0930 -0.5192  0.0875
   81SLPC  H11S 7557   3.082   0.525   4.692  0.9050  1.1155  0.0916
   81SLPC  C212 7558   3.144   0.372   4.831 -0.7463  0.1277  0.4095
   81SLPC  H12R 7559   3.141   0.262   4.841 -2.4385 -0.0229 -1.2730
   81SLPC  C213 7560   3.143   0.449   4.937 -0.5479  0.4121 -0.0692
   81SLPC  H13R 7561   3.161   0.404   5.035  3.2679  0.4496 -0.6021
   81SLPC  C214 7562   3.136   0.599   4.939  0.9112 -0.1737 -0.6485
   81SLPC  H14R 7563   3.099   0.649   4.847 -3.3447 -0.3720  0.7245
   81SLPC  H14S 7564   3.233   0.638   4.975 -0.6319  1.6752  1.8158
   81SLPC  C215 7565   3.028   0.633   5.056 -0.4592 -1.0052 -0.3889
   81SLPC  H15R 7566   3.015   0.743   5.070 -0.0655 -0.7266 -1.9330
   81SLPC  H15S 7567   3.060   0.597   5.156  0.4399  1.2000  0.1851
   81SLPC  C216 7568   2.891   0.572   5.033 -0.4068 -0.0355 -0.4539
   81SLPC  H16R 7569   2.895   0.461   5.032 -0.8239 -0.0780  1.0125
   81SLPC  H16S 7570   2.860   0.606   4.932 -2.6516 -1.2750 -0.2591
   81SLPC  C217 7571   2.786   0.625   5.142  0.2316 -0.2188  1.0196
   81SLPC  H17R 7572   2.692   0.570   5.121  0.7728 -0.4681 -0.9939
   81SLPC  H17S 7573   2.774   0.735   5.133  2.1570  0.0413  1.3244
   81SLPC  C218 7574   2.824   0.604   5.289  0.7080 -0.5728  0.5370
   81SLPC  H18R 7575   2.850   0.496   5.292 -1.5969 -1.3172 -2.3627
   81SLPC  H18S 7576   2.740   0.617   5.360 -1.7035 -0.3738 -2.1873
   81SLPC  H18T 7577   2.918   0.654   5.323  0.7769  0.7925 -1.4540
   81SLPC   C33 7578   2.979  -0.095   3.616  0.1210  0.7406  0.8067
   81SLPC   H3X 7579   2.969  -0.192   3.563  0.1092  0.5833  1.0944
   81SLPC   H3Y 7580   2.955  -0.104   3.724  0.9607  2.2518  1.1417
   81SLPC   C34 7581   3.132  -0.060   3.595  0.3245 -0.5817  0.4097
   81SLPC   H4X 7582   3.143   0.047   3.622 -1.2053 -0.1921 -0.4255
   81SLPC   H4Y 7583   3.161  -0.085   3.491  0.7227 -0.7942  0.5682
   81SLPC   C35 7584   3.227  -0.142   3.682  0.1803 -0.5639 -0.7445
   81SLPC   H5X 7585   3.328  -0.129   3.638 -0.5511  0.2407 -2.2636
   81SLPC   H5Y 7586   3.199  -0.249   3.669  1.1120 -0.9775  0.4367
   81SLPC   C36 7587   3.226  -0.103   3.834 -0.4436 -0.4151  0.4067
   81SLPC   H6X 7588   3.125  -0.113   3.880 -0.0791 -0.4675  1.2140
   81SLPC   H6Y 7589   3.246   0.006   3.834 -0.3301 -0.4330  0.9147
   81SLPC   C37 7590   3.318  -0.178   3.923  0.2749 -0.3754 -0.3511
   81SLPC   H7X 7591   3.423  -0.158   3.893  0.0116  1.2856 -0.2834
   81SLPC   H7Y 7592   3.300  -0.287   3.917 -3.1456  0.1562 -2.2177
   81SLPC   C38 7593   3.292  -0.133   4.064 -0.8542 -0.5106 -0.2666
   81SLPC   H8X 7594   3.193  -0.172   4.096 -2.6862  1.0563 -3.4852
   81SLPC   H8Y 7595   3.282  -0.023   4.056 -1.1067 -0.4303  0.9505
   81SLPC   C39 7596   3.399  -0.159   4.168  0.7296  0.1170 -0.3135
   81SLPC   H9X 7597   3.500  -0.123   4.138  1.0381 -0.8606 -0.4976
   81SLPC   H9Y 7598   3.419  -0.269   4.171 -1.3606 -0.3911 -2.1193
   81SLPC  C310 7599   3.359  -0.108   4.305  0.2002  0.0685 -0.0645
   81SLPC  H10X 7600   3.268  -0.162   4.337  0.0199  0.3396 -0.1184
   81SLPC  H10Y 7601   3.355   0.003   4.301 -0.2466  0.0214 -1.9506
   81SLPC  C311 7602   3.459  -0.132   4.419 -0.1155 -0.7969 -0.2654
   81SLPC  H11X 7603   3.557  -0.086   4.391 -1.2670  2.5398  0.6696
   81SLPC  H11Y 7604   3.467  -0.241   4.436 -2.4737 -1.0196 -0.2790
   81SLPC  C312 7605   3.420  -0.068   4.554  0.4636  0.0695  0.4893
   81SLPC  H12X 7606   3.406   0.040   4.533  2.3949 -0.0370 -1.7615
   81SLPC  H12Y 7607   3.513  -0.088   4.612  2.2478  0.1677 -2.1330
   81SLPC  C313 7608   3.299  -0.135   4.618  0.3139 -0.2879 -0.2182
   81SLPC  H13X 7609   3.313  -0.239   4.655 -1.5592 -0.2367  0.7638
   81SLPC  H13Y 7610   3.215  -0.138   4.545 -0.0567 -0.8217  0.2210
   81SLPC  C314 7611   3.274  -0.053   4.748  0.0006 -0.4443 -0.2552
   81SLPC  H14X 7612   3.253   0.055   4.732  0.9755  0.7274  4.7289
   81SLPC  H14Y 7613   3.363  -0.051   4.814 -1.5500  0.3587  1.9453
   81SLPC  C315 7614   3.162  -0.102   4.841  0.9109  0.6449 -0.1790
   81SLPC  H15X 7615   3.161  -0.213   4.853 -0.0407  0.9042  3.1162
   81SLPC  H15Y 7616   3.062  -0.087   4.796  0.0006  1.9594  2.1511
   81SLPC  C316 7617   3.164  -0.042   4.980 -0.4941 -0.1122  0.4869
   81SLPC  H16X 7618   3.148   0.068   4.974 -2.4162 -0.3742  0.0531
   81SLPC  H16Y 7619   3.259  -0.055   5.036 -0.9340  0.8216  1.4762
   81SLPC  C317 7620   3.048  -0.106   5.061 -0.1904  0.1054 -0.1066
   81SLPC  H17X 7621   3.036  -0.217   5.063 -0.0755  0.0634 -0.9947
   81SLPC  H17Y 7622   2.953  -0.073   5.013 -1.3385  0.8652  2.5489
   81SLPC  C318 7623   3.049  -0.048   5.203  0.2598  0.1391  0.0112
   81SLPC  H18X 7624   2.990  -0.110   5.274 -1.5926  0.4341 -1.1840
   81SLPC  H18Y 7625   3.002   0.053   5.193 -3.0949 -1.3497 -0.3924
   81SLPC  H18Z 7626   3.154  -0.036   5.237  1.0852  0.2598 -2.3996
   82SLPC     N 7627   0.830   6.094   2.947 -0.0458 -0.4680 -0.3593
   82SLPC   C13 7628   0.769   5.966   2.892 -0.3397 -0.2359 -0.0936
   82SLPC  H13A 7629   0.825   5.879   2.924  0.0124 -0.4311 -1.2258
   82SLPC  H13B 7630   0.671   5.958   2.938 -0.1363  2.8455  1.0797
   82SLPC  H13C 7631   0.774   5.966   2.785 -1.0193  0.8208 -0.1348
   82SLPC   C14 7632   0.744   6.214   2.917 -0.1929 -0.1467 -0.3517
   82SLPC  H14A 7633   0.792   6.308   2.941 -2.2338  1.2176 -1.2959
   82SLPC  H14B 7634   0.711   6.222   2.814 -2.0356  0.2430  0.2431
   82SLPC  H14C 7635   0.650   6.208   2.969 -1.2932  1.6830 -1.9651
   82SLPC   C15 7636   0.968   6.105   2.878  0.0417  0.1932  0.7880
   82SLPC  H15A 7637   0.954   6.096   2.772 -0.4754  0.1019  0.8582
   82SLPC  H15B 7638   1.004   6.203   2.908 -0.7039  0.7230  0.0087
   82SLPC  H15C 7639   1.031   6.023   2.906 -2.9793 -2.5289  0.1863
   82SLPC   C12 7640   0.844   6.079   3.098  0.4851  0.4100  0.3310
   82SLPC  H12A 7641   0.745   6.053   3.133 -0.7783  0.7988 -2.5785
   82SLPC  H12B 7642   0.870   6.177   3.136  2.0263 -0.2713  1.1148
   82SLPC   C11 7643   0.948   5.982   3.156  0.5976  0.1270 -0.4821
   82SLPC  H11A 7644   0.930   5.878   3.121  2.2507 -0.7754  1.1017
   82SLPC  H11B 7645   0.927   5.981   3.265  0.0345 -0.6887 -0.5895
   82SLPC     P 7646   1.151   6.138   3.205 -0.0377  0.2319  0.3797
   82SLPC   O13 7647   1.273   6.185   3.135  0.1484  0.1112  0.0398
   82SLPC   O14 7648   1.048   6.243   3.224  0.1104  0.1726 -0.2406
   82SLPC   O12 7649   1.078   6.025   3.121 -0.4688  0.1778 -0.5443
   82SLPC   O11 7650   1.184   6.062   3.337  0.2212 -0.6554 -0.3418
   82SLPC    C1 7651   1.252   6.133   3.442  0.2324 -0.0989 -0.5627
   82SLPC    HA 7652   1.358   6.148   3.411  0.0392  0.1980 -1.0871
   82SLPC    HB 7653   1.214   6.235   3.464  4.5842  1.4974  0.7344
   82SLPC    C2 7654   1.246   6.058   3.578 -0.7900 -0.0569 -0.2652
   82SLPC    HS 7655   1.303   6.110   3.658 -1.4690 -2.5799  2.0116
   82SLPC   O21 7656   1.279   5.916   3.572 -0.2416 -0.3602 -0.1787
   82SLPC   C21 7657   1.405   5.881   3.539 -0.5739  0.6527 -0.1950
   82SLPC   O22 7658   1.499   5.958   3.539  0.8031 -0.3579  0.2283
   82SLPC   C22 7659   1.421   5.728   3.540 -0.1139  0.9113 -0.1088
   82SLPC   H2R 7660   1.358   5.684   3.459  1.1745  1.3362 -1.3809
   82SLPC   H2S 7661   1.525   5.695   3.518 -0.3351 -1.4760  1.9358
   82SLPC    C3 7662   1.102   6.068   3.631 -0.0125 -0.0527  0.2615
   82SLPC    HX 7663   1.031   6.021   3.558 -0.2575 -1.0561  1.1199
   82SLPC    HY 7664   1.074   6.175   3.643  1.2164  0.4287 -0.9390
   82SLPC   O31 7665   1.079   5.992   3.747  0.1488  0.1491 -0.6924
   82SLPC   C31 7666   1.104   6.053   3.864 -0.0017  0.3891  0.1997
   82SLPC   O32 7667   1.104   6.169   3.886 -0.0495 -0.6447  0.2740
   82SLPC   C32 7668   1.149   5.951   3.971 -0.5329 -0.1066 -0.4751
   82SLPC   H2X 7669   1.260   5.941   3.966 -0.6020 -0.6361 -1.0228
   82SLPC   H2Y 7670   1.101   5.855   3.943  0.2571 -0.1015 -1.9401
   82SLPC   C23 7671   1.393   5.676   3.681  0.1084  0.0874  0.4689
   82SLPC   H3R 7672   1.424   5.570   3.688 -0.3531 -0.0120  1.2286
   82SLPC   H3S 7673   1.285   5.688   3.707  0.1038  2.7006 -0.4909
   82SLPC   C24 7674   1.486   5.747   3.778  0.5775 -0.2627 -0.0701
   82SLPC   H4R 7675   1.450   5.851   3.790 -3.7945 -1.3259 -1.8311
   82SLPC   H4S 7676   1.582   5.752   3.723  0.0701 -1.1847 -1.0886
   82SLPC   C25 7677   1.496   5.666   3.910 -0.1546  0.7822  0.2618
   82SLPC   H5R 7678   1.507   5.556   3.901  1.1657  0.6353  2.6522
   82SLPC   H5S 7679   1.403   5.670   3.971  1.6105 -1.2742  3.4188
   82SLPC   C26 7680   1.611   5.721   3.998  0.3891  0.6695 -0.2271
   82SLPC   H6R 7681   1.585   5.827   4.021 -0.9084  0.4917 -0.7716
   82SLPC   H6S 7682   1.704   5.717   3.937 -0.5773  3.2694 -2.1051
   82SLPC   C27 7683   1.615   5.626   4.119 -0.1373  0.5240 -0.1048
   82SLPC   H7R 7684   1.613   5.523   4.077  0.9384  0.1641  0.6668
   82SLPC   H7S 7685   1.520   5.631   4.176  0.4794 -0.5544  1.0710
   82SLPC   C28 7686   1.745   5.638   4.201  0.0936  0.1151 -0.5337
   82SLPC   H8R 7687   1.827   5.634   4.127 -0.9687 -1.2014 -1.6856
   82SLPC   H8S 7688   1.756   5.549   4.266  1.3433 -0.2269 -1.1841
   82SLPC   C29 7689   1.744   5.774   4.272  0.6115  1.0191  0.1341
   82SLPC   H9R 7690   1.776   5.855   4.205 -0.8682  2.3885  1.0134
   82SLPC  C210 7691   1.719   5.788   4.398 -0.0391 -0.0701 -0.3918
   82SLPC  H10R 7692   1.738   5.887   4.443 -0.5869  0.1959 -0.7295
   82SLPC  C211 7693   1.667   5.679   4.484 -0.2113  0.9241 -0.8040
   82SLPC  H11R 7694   1.645   5.588   4.425  2.4621  0.7665 -1.7205
   82SLPC  H11S 7695   1.564   5.714   4.504  0.4689  3.2147 -0.9437
   82SLPC  C212 7696   1.752   5.650   4.606 -0.4629 -0.1233  0.3232
   82SLPC  H12R 7697   1.769   5.737   4.671 -1.2851 -0.7873  1.4411
   82SLPC  C213 7698   1.798   5.532   4.647 -0.4146  0.3213 -0.1752
   82SLPC  H13R 7699   1.851   5.527   4.743  0.6219  0.2788 -0.7303
   82SLPC  C214 7700   1.788   5.400   4.576  0.0132  0.6914  0.1121
   82SLPC  H14R 7701   1.869   5.332   4.610 -1.1314 -0.0517  1.4624
   82SLPC  H14S 7702   1.807   5.416   4.468  1.9889  0.9084  0.4488
   82SLPC  C215 7703   1.655   5.323   4.617  0.1255 -0.3686  0.0113
   82SLPC  H15R 7704   1.650   5.218   4.581  0.2102 -0.3974  0.0842
   82SLPC  H15S 7705   1.575   5.378   4.563  2.0997 -0.0333 -2.8094
   82SLPC  C216 7706   1.625   5.313   4.773  0.3762 -0.7551 -0.4424
   82SLPC  H16R 7707   1.540   5.247   4.803 -0.2790  0.6635  0.9771
   82SLPC  H16S 7708   1.606   5.418   4.804  0.2449 -0.0222 -2.8281
   82SLPC  C217 7709   1.741   5.249   4.861 -0.0274  0.1729 -0.4411
   82SLPC  H17R 7710   1.721   5.263   4.969  0.8845 -0.3875 -0.1848
   82SLPC  H17S 7711   1.836   5.297   4.828 -0.1020  0.7010  0.1016
   82SLPC  C218 7712   1.761   5.097   4.822  0.1728 -0.0990 -0.1588
   82SLPC  H18R 7713   1.670   5.054   4.870 -0.6097  0.6508 -0.9267
   82SLPC  H18S 7714   1.849   5.041   4.861  0.3464 -1.6926 -2.5995
   82SLPC  H18T 7715   1.760   5.084   4.712  1.1182  1.6345 -0.4075
   82SLPC   C33 7716   1.107   5.998   4.118 -0.1897  0.1575  0.0875
   82SLPC   H3X 7717   1.003   5.968   4.140 -0.6362 -0.2869 -2.4125
   82SLPC   H3Y 7718   1.124   6.108   4.118 -0.4651  0.2087  0.8937
   82SLPC   C34 7719   1.204   5.947   4.222  0.1723 -0.5082 -0.0949
   82SLPC   H4X 7720   1.311   5.946   4.190  0.1887 -1.6824 -0.0679
   82SLPC   H4Y 7721   1.177   5.841   4.242  1.5858 -1.1738 -1.4912
   82SLPC   C35 7722   1.212   6.016   4.362  0.2569 -0.0818  0.0372
   82SLPC   H5X 7723   1.113   6.009   4.411  0.9228 -2.3129  1.1664
   82SLPC   H5Y 7724   1.234   6.121   4.333  0.7390 -0.1926 -0.0080
   82SLPC   C36 7725   1.320   5.963   4.461  0.6954  0.2743  0.3534
   82SLPC   H6X 7726   1.418   5.992   4.416  0.0259 -0.2965 -1.5523
   82SLPC   H6Y 7727   1.315   5.852   4.460 -0.5239  0.3117 -1.3820
   82SLPC   C37 7728   1.311   6.011   4.607  0.5033 -0.0636  0.6617
   82SLPC   H7X 7729   1.222   5.966   4.656  2.6941 -3.1901  2.1660
   82SLPC   H7Y 7730   1.305   6.121   4.610  1.2856 -0.0008  0.2988
   82SLPC   C38 7731   1.427   5.946   4.689  0.2140  0.0627  1.0273
   82SLPC   H8X 7732   1.512   5.932   4.619  1.3855  0.3987  2.3660
   82SLPC   H8Y 7733   1.386   5.844   4.706 -0.5498  0.1022 -0.3990
   82SLPC   C39 7734   1.485   6.011   4.813 -0.3385 -0.0218  0.0524
   82SLPC   H9X 7735   1.400   6.007   4.885 -0.9868 -0.8628 -0.7296
   82SLPC   H9Y 7736   1.506   6.118   4.794 -0.9017  0.3959  1.6418
   82SLPC  C310 7737   1.611   5.931   4.863  0.5492 -0.0976  0.2903
   82SLPC  H10X 7738   1.699   5.937   4.794 -0.2396  1.6509 -0.6186
   82SLPC  H10Y 7739   1.583   5.825   4.878 -1.1498  0.1971 -0.6686
   82SLPC  C311 7740   1.660   5.988   5.000 -0.3091 -0.7822 -0.3442
   82SLPC  H11X 7741   1.579   5.960   5.071 -0.1640 -3.3669 -1.1010
   82SLPC  H11Y 7742   1.667   6.098   4.987  1.6018 -1.0441 -1.9325
   82SLPC  C312 7743   1.796   5.927   5.042 -0.2473 -0.4458 -0.0829
   82SLPC  H12X 7744   1.840   5.985   5.126  0.6671 -1.6563  0.2947
   82SLPC  H12Y 7745   1.867   5.950   4.959 -0.3623  0.7628  0.1319
   82SLPC  C313 7746   1.788   5.776   5.063  0.0785 -0.2116  0.3011
   82SLPC  H13X 7747   1.726   5.736   4.980 -0.9092  1.1358  0.3485
   82SLPC  H13Y 7748   1.736   5.777   5.162  1.7449  2.0752  1.2432
   82SLPC  C314 7749   1.920   5.698   5.076 -1.0325  0.7385 -0.3012
   82SLPC  H14X 7750   1.982   5.751   5.151  0.3152  2.5719 -2.5723
   82SLPC  H14Y 7751   1.968   5.703   4.976  2.5068  0.1684  1.1970
   82SLPC  C315 7752   1.897   5.552   5.109 -0.0444 -0.6366 -0.0864
   82SLPC  H15X 7753   1.833   5.496   5.038 -2.3657 -0.6925  1.9493
   82SLPC  H15Y 7754   1.833   5.522   5.195  0.4067  1.0263  0.8757
   82SLPC  C316 7755   2.028   5.471   5.136  0.1144  0.0294 -0.0516
   82SLPC  H16X 7756   2.083   5.504   5.227  0.9474  1.7251 -1.1190
   82SLPC  H16Y 7757   2.095   5.498   5.052 -0.0170 -1.0768 -0.5256
   82SLPC  C317 7758   2.020   5.322   5.127 -0.5850 -0.0331  0.0785
   82SLPC  H17X 7759   2.121   5.287   5.158 -0.3976  1.9572  1.9062
   82SLPC  H17Y 7760   1.998   5.288   5.023 -0.1280 -1.0489  0.2989
   82SLPC  C318 7761   1.910   5.268   5.225 -0.3951  0.0421  0.6559
   82SLPC  H18X 7762   1.930   5.321   5.320  1.7168  1.5002 -0.5262
   82SLPC  H18Y 7763   1.919   5.158   5.237  0.1563  0.0401  0.2846
   82SLPC  H18Z 7764   1.806   5.289   5.191 -0.0891 -0.9196 -1.0121
   83SLPC     N 7765   5.556   5.456   3.120 -0.3938 -0.0284  0.0702
   83SLPC   C13 7766   5.603   5.586   3.055  0.4164  0.1742 -0.0847
   83SLPC  H13A 7767   5.542   5.610   2.969 -0.8802 -0.7218  0.5561
   83SLPC  H13B 7768   5.608   5.665   3.128  0.4290 -0.4547  0.6104
   83SLPC  H13C 7769   5.703   5.567   3.019 -0.3328 -0.7116 -1.8036
   83SLPC   C14 7770   5.672   5.417   3.210  0.5923 -0.2982 -0.5373
   83SLPC  H14A 7771   5.764   5.410   3.154 -0.2436  0.6211 -2.0851
   83SLPC  H14B 7772   5.688   5.484   3.294  1.9047 -3.0906  1.6183
   83SLPC  H14C 7773   5.654   5.316   3.245 -1.5094  0.1614 -0.1586
   83SLPC   C15 7774   5.536   5.355   3.012  0.2494 -0.5151  0.3891
   83SLPC  H15A 7775   5.508   5.256   3.047  0.3537  0.5187  3.6979
   83SLPC  H15B 7776   5.477   5.386   2.927 -0.7101  0.2199  1.3028
   83SLPC  H15C 7777   5.632   5.338   2.965 -0.4676  1.6767 -2.1247
   83SLPC   C12 7778   5.430   5.470   3.200  0.0858 -0.0375 -0.0891
   83SLPC  H12A 7779   5.418   5.373   3.248  2.0381 -0.1480  0.2683
   83SLPC  H12B 7780   5.350   5.487   3.130  0.9733  1.2416 -0.8206
   83SLPC   C11 7781   5.437   5.586   3.307 -0.4218  0.7441  0.4372
   83SLPC  H11A 7782   5.518   5.568   3.381 -0.2605 -0.8275 -0.0757
   83SLPC  H11B 7783   5.345   5.581   3.368 -1.9862  1.3666 -1.7282
   83SLPC     P 7784   5.429   5.845   3.339 -0.3466 -0.4247 -0.2061
   83SLPC   O13 7785   5.523   5.948   3.307  0.0769  0.2962  0.3183
   83SLPC   O14 7786   5.288   5.888   3.330  0.0061 -0.2119  0.2948
   83SLPC   O12 7787   5.459   5.717   3.255  0.2325  0.4596 -0.7155
   83SLPC   O11 7788   5.461   5.796   3.485 -0.4216 -0.1847 -0.3234
   83SLPC    C1 7789   5.440   5.881   3.594 -0.8699  0.5443 -0.0159
   83SLPC    HA 7790   5.537   5.873   3.647  0.3959  0.0778 -2.2737
   83SLPC    HB 7791   5.418   5.986   3.565 -2.3669 -0.1378 -1.5505
   83SLPC    C2 7792   5.324   5.826   3.684  0.4540  0.1035  0.6147
   83SLPC    HS 7793   5.348   5.719   3.698 -5.0492 -1.5625 -0.2642
   83SLPC   O21 7794   5.199   5.846   3.604  0.4252 -0.5336  0.6301
   83SLPC   C21 7795   5.145   5.735   3.554 -0.4102  0.0134  0.7500
   83SLPC   O22 7796   5.187   5.622   3.568  0.0359 -0.4972 -0.2059
   83SLPC   C22 7797   5.009   5.767   3.488  0.4092  0.6119  0.3581
   83SLPC   H2R 7798   5.025   5.834   3.401 -0.0185 -2.1238 -1.9942
   83SLPC   H2S 7799   4.967   5.675   3.440 -0.6761  1.2782 -0.0167
   83SLPC    C3 7800   5.300   5.909   3.809 -0.7508  0.9177  0.1354
   83SLPC    HX 7801   5.259   6.004   3.770 -1.9622  0.0629 -0.7341
   83SLPC    HY 7802   5.397   5.933   3.857 -1.4910  2.2190  1.0401
   83SLPC   O31 7803   5.207   5.837   3.898 -0.2405 -0.6698 -0.5186
   83SLPC   C31 7804   5.186   5.903   4.006  0.1825  0.4926 -0.2914
   83SLPC   O32 7805   5.225   6.014   4.025 -0.4289  0.3887 -0.2972
   83SLPC   C32 7806   5.069   5.831   4.080 -0.4361 -0.0509  0.2352
   83SLPC   H2X 7807   5.066   5.728   4.038 -1.3512 -0.3911  1.1086
   83SLPC   H2Y 7808   4.978   5.886   4.046 -0.2318  1.2664  1.7220
   83SLPC   C23 7809   4.910   5.809   3.603  0.3770 -0.3917 -0.2584
   83SLPC   H3R 7810   4.921   5.759   3.701 -0.7371  1.2226  0.7566
   83SLPC   H3S 7811   4.809   5.777   3.568 -1.6405  3.8251  0.8859
   83SLPC   C24 7812   4.907   5.953   3.627  0.1710  0.4672  0.0607
   83SLPC   H4R 7813   4.914   6.000   3.527  0.8351  1.9329  0.7686
   83SLPC   H4S 7814   4.996   5.982   3.686 -0.2920 -0.5372  1.3235
   83SLPC   C25 7815   4.780   6.016   3.698  0.3686  0.2234 -0.7795
   83SLPC   H5R 7816   4.684   5.991   3.647 -0.4063 -0.2804  0.8550
   83SLPC   H5S 7817   4.792   6.126   3.707 -0.0756  0.2057  0.0985
   83SLPC   C26 7818   4.756   5.970   3.843  0.1410 -0.0229  0.0095
   83SLPC   H6R 7819   4.851   5.984   3.899 -0.2648 -1.5331  1.1477
   83SLPC   H6S 7820   4.746   5.860   3.838  0.4439 -0.0076 -3.6510
   83SLPC   C27 7821   4.638   6.036   3.917 -0.0233  0.4131 -0.1828
   83SLPC   H7R 7822   4.545   5.989   3.878  0.5455 -0.1413 -0.8931
   83SLPC   H7S 7823   4.636   6.143   3.888 -0.3358  0.8981  1.5063
   83SLPC   C28 7824   4.640   6.004   4.069 -0.9131 -0.1553 -0.0371
   83SLPC   H8R 7825   4.739   6.040   4.105 -1.0270 -0.8717  1.0682
   83SLPC   H8S 7826   4.646   5.893   4.080 -0.8767 -0.1049  0.4766
   83SLPC   C29 7827   4.528   6.069   4.145  0.7539 -0.0915  0.2618
   83SLPC   H9R 7828   4.450   6.111   4.079 -1.2911 -3.7902  0.0229
   83SLPC  C210 7829   4.498   6.059   4.276 -0.3461  0.2202  0.1820
   83SLPC  H10R 7830   4.418   6.126   4.309 -0.1121  0.1770  0.8550
   83SLPC  C211 7831   4.607   6.025   4.379 -0.4148  0.3246 -0.1453
   83SLPC  H11R 7832   4.628   6.112   4.444  1.1923  0.3454 -0.6536
   83SLPC  H11S 7833   4.705   6.002   4.333  0.4037  0.2745  1.5648
   83SLPC  C212 7834   4.569   5.913   4.471  0.7622 -0.7787 -0.0028
   83SLPC  H12R 7835   4.547   5.817   4.423  2.5610 -0.8524 -0.7693
   83SLPC  C213 7836   4.557   5.918   4.606  0.2800 -0.3670  0.3678
   83SLPC  H13R 7837   4.531   5.819   4.646  2.6791 -0.3863  2.0830
   83SLPC  C214 7838   4.584   6.035   4.701  0.1455  0.5709  0.1739
   83SLPC  H14R 7839   4.485   6.061   4.743 -0.5666 -1.6573  0.0222
   83SLPC  H14S 7840   4.630   6.117   4.641 -0.0823  0.7380  0.2289
   83SLPC  C215 7841   4.672   6.005   4.818  0.0437  0.5498  0.1948
   83SLPC  H15R 7842   4.772   6.012   4.771 -0.3624 -0.2514 -0.8160
   83SLPC  H15S 7843   4.654   5.900   4.851 -1.2924  0.6134 -0.2456
   83SLPC  C216 7844   4.667   6.100   4.939 -0.3742  0.7574 -0.1817
   83SLPC  H16R 7845   4.571   6.087   4.993  0.6843 -0.9403  1.4342
   83SLPC  H16S 7846   4.676   6.202   4.895 -3.6345 -0.0019 -2.9835
   83SLPC  C217 7847   4.790   6.072   5.032 -0.0505 -1.1058  0.4702
   83SLPC  H17R 7848   4.873   6.078   4.958  0.2607 -1.3523  0.7952
   83SLPC  H17S 7849   4.786   5.969   5.074 -0.7676 -1.4092 -0.3256
   83SLPC  C218 7850   4.789   6.184   5.137  0.1474 -0.0059 -0.5777
   83SLPC  H18R 7851   4.787   6.279   5.079 -1.7733 -0.6010 -1.5752
   83SLPC  H18S 7852   4.867   6.177   5.216 -1.9861 -1.0846  1.5759
   83SLPC  H18T 7853   4.693   6.188   5.193  0.2929  0.8868 -0.3837
   83SLPC   C33 7854   5.085   5.835   4.233  0.7205  0.2530 -0.2909
   83SLPC   H3X 7855   5.081   5.942   4.264  1.8619 -0.1665  1.4929
   83SLPC   H3Y 7856   5.183   5.799   4.272  0.4561  0.9490  1.0632
   83SLPC   C34 7857   4.980   5.742   4.291 -0.2192 -0.0850  0.9304
   83SLPC   H4X 7858   5.024   5.642   4.304  1.0217  0.5744  2.0407
   83SLPC   H4Y 7859   4.887   5.735   4.230 -1.6488  1.1121  2.8372
   83SLPC   C35 7860   4.944   5.801   4.428 -0.7004 -0.2901 -0.1447
   83SLPC   H5X 7861   4.900   5.903   4.422  2.2010  1.0256 -1.0609
   83SLPC   H5Y 7862   5.032   5.818   4.495  0.4731 -0.3140 -1.6247
   83SLPC   C36 7863   4.858   5.713   4.505  0.3350  0.0922 -0.1693
   83SLPC   H6X 7864   4.880   5.610   4.471 -1.7488 -0.2091 -0.7374
   83SLPC   H6Y 7865   4.751   5.728   4.481 -0.3124 -3.5132 -0.1444
   83SLPC   C37 7866   4.893   5.715   4.662  0.4886  0.1342  0.4531
   83SLPC   H7X 7867   4.879   5.812   4.714  0.4410 -0.5661  1.7889
   83SLPC   H7Y 7868   4.998   5.678   4.665  1.0424  1.6115 -0.0767
   83SLPC   C38 7869   4.798   5.627   4.739 -0.0133 -0.3474  0.1908
   83SLPC   H8X 7870   4.808   5.525   4.695 -1.3770 -0.5347  0.2972
   83SLPC   H8Y 7871   4.694   5.660   4.720 -0.1528 -1.3429 -0.9144
   83SLPC   C39 7872   4.821   5.628   4.889  0.0171 -0.6166 -0.6619
   83SLPC   H9X 7873   4.809   5.734   4.918  0.5644 -0.5104 -0.8171
   83SLPC   H9Y 7874   4.927   5.613   4.919  0.4072  1.3935 -0.9157
   83SLPC  C310 7875   4.738   5.535   4.978  0.2039 -0.0666  0.3483
   83SLPC  H10X 7876   4.799   5.498   5.064  0.1909 -1.8439 -0.3475
   83SLPC  H10Y 7877   4.701   5.442   4.928  0.8195 -0.6764  0.9950
   83SLPC  C311 7878   4.637   5.615   5.061 -0.0532 -0.3440  0.2023
   83SLPC  H11X 7879   4.566   5.672   4.997  1.4904  0.4393 -0.8724
   83SLPC  H11Y 7880   4.685   5.691   5.126 -3.2200  0.4912  1.7456
   83SLPC  C312 7881   4.554   5.536   5.164 -0.4301 -0.4271  0.9545
   83SLPC  H12X 7882   4.497   5.602   5.234  0.1152 -1.8398  2.8152
   83SLPC  H12Y 7883   4.627   5.481   5.227  1.1552 -0.0517 -0.4634
   83SLPC  C313 7884   4.467   5.432   5.109  0.0383  0.5556 -0.2464
   83SLPC  H13X 7885   4.532   5.357   5.058 -0.0542 -0.5927  1.2536
   83SLPC  H13Y 7886   4.391   5.471   5.038 -2.0929  0.7812  2.0581
   83SLPC  C314 7887   4.372   5.360   5.203  0.2149  0.5820 -0.3782
   83SLPC  H14X 7888   4.295   5.310   5.141  0.9126  0.5991 -1.2814
   83SLPC  H14Y 7889   4.338   5.437   5.275  2.9390  0.5801  1.0426
   83SLPC  C315 7890   4.431   5.256   5.299 -0.2121 -0.0392 -0.0297
   83SLPC  H15X 7891   4.509   5.292   5.369 -1.1431  0.0993  0.9658
   83SLPC  H15Y 7892   4.487   5.182   5.237  1.8389 -0.7602  2.5222
   83SLPC  C316 7893   4.326   5.192   5.392  0.0460 -0.5132  0.0957
   83SLPC  H16X 7894   4.246   5.153   5.326  0.8801 -0.7517 -0.7894
   83SLPC  H16Y 7895   4.281   5.275   5.450  0.6514 -0.9520  1.2379
   83SLPC  C317 7896   4.368   5.101   5.508  0.2173 -0.1224  0.3109
   83SLPC  H17X 7897   4.444   5.157   5.567 -0.6260  1.9822 -0.4972
   83SLPC  H17Y 7898   4.385   5.002   5.461 -2.0981 -0.1525 -0.6079
   83SLPC  C318 7899   4.257   5.078   5.611  0.1078  0.7546 -0.3221
   83SLPC  H18X 7900   4.172   5.025   5.562 -0.5017 -0.1871  1.6460
   83SLPC  H18Y 7901   4.209   5.170   5.650 -2.9333 -1.5279  1.7752
   83SLPC  H18Z 7902   4.297   5.011   5.690  1.4413  2.1070  0.2085
   84SLPC     N 7903   6.492   5.234   3.084 -0.8946  0.2656 -0.3140
   84SLPC   C13 7904   6.539   5.341   2.987 -0.5566 -0.2334 -0.1656
   84SLPC  H13A 7905   6.646   5.350   2.983 -0.5703  1.4695  1.6954
   84SLPC  H13B 7906   6.523   5.304   2.887  0.1230 -1.2596  0.0952
   84SLPC  H13C 7907   6.483   5.431   3.010  1.2177  1.0725 -0.7557
   84SLPC   C14 7908   6.519   5.276   3.221  0.2333  0.5677 -0.5220
   84SLPC  H14A 7909   6.617   5.313   3.247 -0.6364  1.7510  1.2960
   84SLPC  H14B 7910   6.456   5.361   3.243  0.1168  0.4448 -0.3716
   84SLPC  H14C 7911   6.479   5.201   3.289 -2.4515  1.4893 -0.9759
   84SLPC   C15 7912   6.587   5.116   3.067  0.5060  0.3947  0.2525
   84SLPC  H15A 7913   6.678   5.148   3.116  0.2133  1.0604  0.3832
   84SLPC  H15B 7914   6.544   5.029   3.115  1.7474 -0.3900 -0.0150
   84SLPC  H15C 7915   6.617   5.098   2.965  2.0535  2.6510  0.2166
   84SLPC   C12 7916   6.349   5.192   3.062 -0.2127 -0.3752 -0.6361
   84SLPC  H12A 7917   6.332   5.185   2.955 -0.1855  4.1728 -1.1522
   84SLPC  H12B 7918   6.284   5.275   3.086  0.6894 -0.2936  1.8319
   84SLPC   C11 7919   6.291   5.079   3.155  0.0328 -0.3824  0.4012
   84SLPC  H11A 7920   6.345   4.987   3.124  1.9646  1.6057 -2.5869
   84SLPC  H11B 7921   6.186   5.056   3.126 -0.1814 -0.4462  1.1982
   84SLPC     P 7922   6.181   5.152   3.374  0.0254 -0.2021  0.5593
   84SLPC   O13 7923   6.166   5.297   3.349  0.5289 -0.4806  0.3140
   84SLPC   O14 7924   6.063   5.066   3.343  0.0792  0.1907 -0.4167
   84SLPC   O12 7925   6.307   5.104   3.292 -0.0711  0.4862 -0.1672
   84SLPC   O11 7926   6.221   5.130   3.526  0.4347  0.4179  0.4167
   84SLPC    C1 7927   6.357   5.164   3.572  0.1246 -0.5124 -0.4660
   84SLPC    HA 7928   6.421   5.077   3.544 -0.3424 -1.6015  1.6303
   84SLPC    HB 7929   6.399   5.259   3.534  1.7932 -0.6692  0.8858
   84SLPC    C2 7930   6.363   5.195   3.722  0.4419 -0.1159 -0.0168
   84SLPC    HS 7931   6.470   5.215   3.746  1.7580 -2.7491 -2.9185
   84SLPC   O21 7932   6.314   5.088   3.815 -0.4830  0.2679 -0.1411
   84SLPC   C21 7933   6.373   4.971   3.805  0.1106 -0.2884 -0.3220
   84SLPC   O22 7934   6.468   4.941   3.730  0.0681  0.3048  0.0143
   84SLPC   C22 7935   6.322   4.877   3.913  0.0334 -0.0947  0.1647
   84SLPC   H2R 7936   6.239   4.817   3.869 -0.4879  0.9241 -0.2715
   84SLPC   H2S 7937   6.406   4.822   3.960  1.0448  1.4740  0.2484
   84SLPC    C3 7938   6.282   5.318   3.761  0.1449 -0.3885 -0.3651
   84SLPC    HX 7939   6.175   5.288   3.763  1.1282 -4.3344  0.7496
   84SLPC    HY 7940   6.296   5.404   3.692  0.4950  2.0709  2.5141
   84SLPC   O31 7941   6.307   5.368   3.891 -0.8878  0.4651 -0.9629
   84SLPC   C31 7942   6.417   5.442   3.892 -0.4019  0.2933 -1.2327
   84SLPC   O32 7943   6.487   5.465   3.797 -0.0127  0.5734  0.5982
   84SLPC   C32 7944   6.452   5.473   4.042 -0.1874  0.4480  0.7881
   84SLPC   H2X 7945   6.456   5.379   4.101 -0.1524 -0.0337  0.0218
   84SLPC   H2Y 7946   6.370   5.539   4.079 -2.0253 -1.9589  1.2582
   84SLPC   C23 7947   6.276   4.967   4.036  0.3372 -0.4264 -0.1370
   84SLPC   H3R 7948   6.216   4.893   4.094  1.1620 -0.6160  0.4785
   84SLPC   H3S 7949   6.198   5.038   3.999  0.5693 -0.6996 -1.1853
   84SLPC   C24 7950   6.394   5.032   4.109 -0.5390 -0.1528 -0.0779
   84SLPC   H4R 7951   6.419   5.125   4.053 -0.4298 -0.2041 -0.1136
   84SLPC   H4S 7952   6.492   4.981   4.118  0.8623  2.5748  1.5461
   84SLPC   C25 7953   6.352   5.089   4.249 -0.1081  0.0670  1.0241
   84SLPC   H5R 7954   6.313   5.005   4.311 -1.9461 -0.0721 -0.2536
   84SLPC   H5S 7955   6.271   5.164   4.238  0.2861  0.5941  1.6278
   84SLPC   C26 7956   6.465   5.157   4.321 -0.0136 -0.4292 -0.2317
   84SLPC   H6R 7957   6.510   5.230   4.251  2.0706 -1.7370 -0.3249
   84SLPC   H6S 7958   6.543   5.083   4.350  0.8259  1.1721  1.8573
   84SLPC   C27 7959   6.412   5.229   4.446  0.6132  0.7241  0.9515
   84SLPC   H7R 7960   6.338   5.157   4.489  2.2357 -1.4460  0.2888
   84SLPC   H7S 7961   6.350   5.319   4.426  1.5155  1.7515  2.5485
   84SLPC   C28 7962   6.520   5.273   4.543  0.5433  0.1325 -0.1519
   84SLPC   H8R 7963   6.588   5.185   4.551  1.6258  0.9916  0.4357
   84SLPC   H8S 7964   6.474   5.302   4.640  0.1166 -1.0709  0.0182
   84SLPC   C29 7965   6.604   5.384   4.497 -0.6823 -0.2882  0.5990
   84SLPC   H9R 7966   6.593   5.416   4.392 -0.8084 -0.6190  0.5117
   84SLPC  C210 7967   6.687   5.459   4.575  0.3358  0.0224  0.1186
   84SLPC  H10R 7968   6.740   5.545   4.533  1.5569 -0.3692  0.8306
   84SLPC  C211 7969   6.715   5.428   4.719 -0.3272  0.1001  0.9669
   84SLPC  H11R 7970   6.824   5.407   4.715 -0.4413 -1.4454  3.5745
   84SLPC  H11S 7971   6.671   5.331   4.749  0.5592 -1.4124 -2.1984
   84SLPC  C212 7972   6.680   5.552   4.801 -0.0168 -0.0476  0.1379
   84SLPC  H12R 7973   6.670   5.641   4.738 -1.4135 -1.7713 -2.2396
   84SLPC  C213 7974   6.668   5.553   4.933  0.5389 -0.6961 -0.8962
   84SLPC  H13R 7975   6.646   5.651   4.978 -3.7161 -0.8754 -2.1635
   84SLPC  C214 7976   6.696   5.448   5.030 -0.0089  0.6046 -0.3017
   84SLPC  H14R 7977   6.745   5.358   4.985  2.4170  0.7269  1.8743
   84SLPC  H14S 7978   6.614   5.398   5.087  2.5805 -4.1927 -0.2363
   84SLPC  C215 7979   6.806   5.488   5.127  0.3623  0.2578 -0.1055
   84SLPC  H15R 7980   6.804   5.403   5.198  0.2564  0.8131  0.5661
   84SLPC  H15S 7981   6.793   5.582   5.186  0.0554 -0.8572  1.6687
   84SLPC  C216 7982   6.947   5.488   5.062  0.2022  0.4672  0.5732
   84SLPC  H16R 7983   6.939   5.543   4.965 -0.0159 -0.5396 -0.0001
   84SLPC  H16S 7984   6.977   5.384   5.036 -1.6792  0.1596 -0.6605
   84SLPC  C217 7985   7.053   5.549   5.153 -0.7879  0.5386 -0.2962
   84SLPC  H17R 7986   7.030   5.656   5.167  0.6250  0.6510  1.4626
   84SLPC  H17S 7987   7.149   5.544   5.097 -1.6583 -0.7710 -1.7768
   84SLPC  C218 7988   7.075   5.492   5.288 -0.1462  0.7914  0.8534
   84SLPC  H18R 7989   6.994   5.480   5.362 -0.9560  1.3458  0.0748
   84SLPC  H18S 7990   7.149   5.556   5.341  1.2444 -0.2515  0.2370
   84SLPC  H18T 7991   7.118   5.391   5.266  4.3181  2.6519 -0.1785
   84SLPC   C33 7992   6.587   5.548   4.055 -0.2217  0.4629  0.2733
   84SLPC   H3X 7993   6.645   5.554   3.961 -0.1460 -0.2560  0.2718
   84SLPC   H3Y 7994   6.649   5.476   4.114  2.2323 -0.5580 -3.2426
   84SLPC   C34 7995   6.573   5.681   4.128 -0.7869  0.2708 -0.0964
   84SLPC   H4X 7996   6.493   5.741   4.079  0.7999  0.9569 -1.9691
   84SLPC   H4Y 7997   6.661   5.744   4.105 -0.8520  0.1551 -0.6925
   84SLPC   C35 7998   6.559   5.677   4.280 -0.2420  0.0703 -0.8777
   84SLPC   H5X 7999   6.652   5.630   4.320 -1.8878 -3.6123 -0.9885
   84SLPC   H5Y 8000   6.481   5.608   4.317  1.2756 -0.5431  1.3441
   84SLPC   C36 8001   6.554   5.822   4.333 -0.0028 -0.0963  0.3361
   84SLPC   H6X 8002   6.489   5.887   4.271 -0.3940 -0.6841  0.1204
   84SLPC   H6Y 8003   6.659   5.856   4.317  0.6233 -0.5117  3.1573
   84SLPC   C37 8004   6.531   5.833   4.484 -0.6264 -0.2123  0.2052
   84SLPC   H7X 8005   6.593   5.757   4.536 -1.1451 -0.2113  0.8438
   84SLPC   H7Y 8006   6.427   5.810   4.516 -1.3289  0.5127 -1.4452
   84SLPC   C38 8007   6.566   5.974   4.540 -0.6253 -0.1338 -0.6148
   84SLPC   H8X 8008   6.504   6.053   4.493  0.8715  0.0142 -2.4859
   84SLPC   H8Y 8009   6.663   6.003   4.493 -1.0415  2.4995 -0.0214
   84SLPC   C39 8010   6.560   5.979   4.697 -0.4235  0.0399  0.3033
   84SLPC   H9X 8011   6.585   5.876   4.732 -2.2669 -0.8495 -0.8530
   84SLPC   H9Y 8012   6.452   5.994   4.717  0.0449  1.7288  1.8513
   84SLPC  C310 8013   6.650   6.078   4.765  0.3704 -0.3672  0.0433
   84SLPC  H10X 8014   6.633   6.178   4.722 -1.0857 -0.9079 -0.7084
   84SLPC  H10Y 8015   6.760   6.061   4.759  0.9005  2.5946  0.0776
   84SLPC  C311 8016   6.616   6.109   4.913 -0.6009 -0.0313  0.4954
   84SLPC  H11X 8017   6.519   6.162   4.922 -1.4619 -1.6181  1.0420
   84SLPC  H11Y 8018   6.703   6.167   4.951 -0.3162  1.1149 -1.7102
   84SLPC  C312 8019   6.598   5.990   4.999  0.5680 -0.0098 -0.3119
   84SLPC  H12X 8020   6.691   5.931   4.981  0.7183  0.4306 -1.0248
   84SLPC  H12Y 8021   6.509   5.932   4.966  1.2754 -1.4195  0.1767
   84SLPC  C313 8022   6.561   6.018   5.147 -0.2672  0.2379  0.1289
   84SLPC  H13X 8023   6.490   6.103   5.152  1.1284  1.3760  1.2190
   84SLPC  H13Y 8024   6.654   6.058   5.192  1.6895 -1.3836 -2.1447
   84SLPC  C314 8025   6.516   5.886   5.214  0.2403  0.1687  0.1348
   84SLPC  H14X 8026   6.448   5.825   5.151  1.3200  0.0946 -0.9818
   84SLPC  H14Y 8027   6.456   5.903   5.306 -0.1465  2.9021 -0.5516
   84SLPC  C315 8028   6.636   5.792   5.246  0.5610 -0.4090  0.4212
   84SLPC  H15X 8029   6.688   5.771   5.150 -2.3783 -0.7491 -1.2213
   84SLPC  H15Y 8030   6.591   5.696   5.279 -0.0952 -0.8963 -1.7068
   84SLPC  C316 8031   6.732   5.841   5.353  0.0940 -0.5551  0.2391
   84SLPC  H16X 8032   6.780   5.935   5.319 -0.6320 -0.2455  0.0529
   84SLPC  H16Y 8033   6.815   5.766   5.351 -0.8463 -1.6142 -0.0254
   84SLPC  C317 8034   6.686   5.865   5.491  1.2068 -0.2791 -0.2911
   84SLPC  H17X 8035   6.605   5.941   5.488  1.4818  0.0945  1.0770
   84SLPC  H17Y 8036   6.764   5.916   5.552 -0.2091 -0.5665  1.8559
   84SLPC  C318 8037   6.645   5.741   5.575  0.4142 -0.1311  0.0722
   84SLPC  H18X 8038   6.706   5.649   5.563 -0.1133 -0.4704 -0.0558
   84SLPC  H18Y 8039   6.542   5.710   5.545 -0.0794  0.6582  0.9087
   84SLPC  H18Z 8040   6.639   5.765   5.684  0.0360 -2.1004  0.5266
   85SLPC     N 8041   3.775   0.261   2.528  0.2796  0.4741 -0.9989
   85SLPC   C13 8042   3.646   0.198   2.467  0.1621 -0.5329 -1.0530
   85SLPC  H13A 8043   3.628   0.102   2.512 -1.0517  0.6916  1.2493
   85SLPC  H13B 8044   3.556   0.255   2.485  0.5693 -0.7234  2.1395
   85SLPC  H13C 8045   3.666   0.188   2.361  1.4735  0.2092 -0.8991
   85SLPC   C14 8046   3.796   0.393   2.466  0.3703  0.9035 -0.5928
   85SLPC  H14A 8047   3.795   0.383   2.358 -1.6994 -0.9684 -0.4736
   85SLPC  H14B 8048   3.713   0.459   2.487  1.2736  2.4479 -1.7030
   85SLPC  H14C 8049   3.889   0.433   2.504  0.3811  1.2297 -0.9500
   85SLPC   C15 8050   3.890   0.166   2.489  0.1199 -1.1008 -0.3482
   85SLPC  H15A 8051   3.984   0.201   2.530 -0.7958  2.7835 -1.1645
   85SLPC  H15B 8052   3.880   0.061   2.515  2.0331 -1.6072 -1.4578
   85SLPC  H15C 8053   3.900   0.174   2.382  0.6477  1.1439 -0.1771
   85SLPC   C12 8054   3.768   0.278   2.684 -0.4542  0.1749 -0.1426
   85SLPC  H12A 8055   3.717   0.196   2.733 -0.9425  0.1468 -0.6946
   85SLPC  H12B 8056   3.709   0.364   2.712  0.3329  1.6995 -2.8126
   85SLPC   C11 8057   3.911   0.285   2.760 -0.3685 -0.6773 -0.4116
   85SLPC  H11A 8058   3.962   0.192   2.728  1.5979  0.7836 -1.8431
   85SLPC  H11B 8059   3.889   0.288   2.868 -0.8601 -1.3125 -0.4894
   85SLPC     P 8060   4.007   0.533   2.808  0.0235 -0.4521 -0.7075
   85SLPC   O13 8061   4.126   0.612   2.769  0.5081  0.7468  0.0824
   85SLPC   O14 8062   3.877   0.611   2.816 -0.0873  0.5864  0.4458
   85SLPC   O12 8063   3.992   0.399   2.721  0.1096  0.0560  0.2107
   85SLPC   O11 8064   4.027   0.471   2.950  0.0785 -0.2884 -0.2003
   85SLPC    C1 8065   4.141   0.391   2.984 -0.2288  0.0949 -0.1188
   85SLPC    HA 8066   4.134   0.293   2.932 -0.1532  0.4372 -0.7846
   85SLPC    HB 8067   4.231   0.435   2.936  0.6874 -2.0733 -0.5073
   85SLPC    C2 8068   4.158   0.361   3.137 -0.2791  0.3212  0.0777
   85SLPC    HS 8069   4.111   0.261   3.153  2.0861 -1.0672 -1.0516
   85SLPC   O21 8070   4.111   0.465   3.217 -0.3644  0.1246  0.0928
   85SLPC   C21 8071   4.046   0.425   3.325  0.2355 -0.0768 -0.6569
   85SLPC   O22 8072   4.035   0.305   3.357  0.3112 -0.2670 -0.1116
   85SLPC   C22 8073   4.036   0.546   3.423  0.5017 -0.3016 -0.0861
   85SLPC   H2R 8074   4.136   0.571   3.466  0.2632  4.1152 -1.5787
   85SLPC   H2S 8075   4.001   0.638   3.372 -2.3713 -0.2274  1.7697
   85SLPC    C3 8076   4.311   0.332   3.158 -0.6459  0.3350 -0.4137
   85SLPC    HX 8077   4.365   0.429   3.157  0.6589 -0.3530  0.5222
   85SLPC    HY 8078   4.326   0.262   3.073  1.5439 -1.8180  1.5826
   85SLPC   O31 8079   4.326   0.263   3.284 -0.2161 -0.0453 -0.2553
   85SLPC   C31 8080   4.376   0.140   3.287  0.6049  0.0951 -0.2579
   85SLPC   O32 8081   4.422   0.076   3.192  0.1182 -0.3163  0.0342
   85SLPC   C32 8082   4.367   0.089   3.437 -0.3877  0.8326  0.0100
   85SLPC   H2X 8083   4.462   0.034   3.458 -1.5662 -1.6359 -0.7310
   85SLPC   H2Y 8084   4.304  -0.003   3.440 -1.1706  1.3248 -0.8053
   85SLPC   C23 8085   3.943   0.513   3.538  0.4111  0.2575  0.4032
   85SLPC   H3R 8086   3.975   0.423   3.596  1.3049  0.6837  0.5959
   85SLPC   H3S 8087   3.852   0.480   3.483  1.5847 -0.4489 -1.1952
   85SLPC   C24 8088   3.927   0.640   3.618 -0.0643 -0.2081  0.1008
   85SLPC   H4R 8089   3.848   0.617   3.693  0.0241 -3.5500 -0.6380
   85SLPC   H4S 8090   3.895   0.726   3.557  1.1373 -1.3619 -2.2932
   85SLPC   C25 8091   4.049   0.681   3.696 -0.9182  0.1719 -0.5068
   85SLPC   H5R 8092   4.144   0.690   3.640 -1.4572 -1.9459 -1.8492
   85SLPC   H5S 8093   4.029   0.782   3.739  0.2076 -0.4554  1.6287
   85SLPC   C26 8094   4.083   0.592   3.814 -0.3950  0.1189 -0.2631
   85SLPC   H6R 8095   4.188   0.605   3.845 -0.2221 -1.1418 -0.2646
   85SLPC   H6S 8096   4.079   0.483   3.790 -1.8775  0.3232 -1.0706
   85SLPC   C27 8097   3.986   0.616   3.937  0.1664  0.7808 -0.3996
   85SLPC   H7R 8098   3.980   0.516   3.984  2.3616  0.6333 -0.2980
   85SLPC   H7S 8099   3.894   0.647   3.884 -1.3217 -3.0977 -0.4308
   85SLPC   C28 8100   4.033   0.722   4.038  0.0537  0.6812  0.5760
   85SLPC   H8R 8101   3.957   0.755   4.113  2.1303  2.5647  2.0303
   85SLPC   H8S 8102   4.063   0.818   3.990  0.3635 -0.4183 -1.5087
   85SLPC   C29 8103   4.154   0.680   4.122  0.6732 -0.3548 -0.8486
   85SLPC   H9R 8104   4.249   0.665   4.068  0.2964 -0.4512 -1.4891
   85SLPC  C210 8105   4.164   0.653   4.259 -0.0408 -0.2093  0.0854
   85SLPC  H10R 8106   4.264   0.632   4.300  1.5071  1.2735 -2.6234
   85SLPC  C211 8107   4.059   0.669   4.368  0.5023  0.1582  0.0306
   85SLPC  H11R 8108   4.099   0.609   4.452 -0.7527 -2.2057 -0.9729
   85SLPC  H11S 8109   3.965   0.620   4.335 -0.3138  1.2557  0.6447
   85SLPC  C212 8110   4.028   0.808   4.411 -0.5217 -0.5046  0.1471
   85SLPC  H12R 8111   4.082   0.883   4.351  0.8626 -1.0777  0.6412
   85SLPC  C213 8112   3.980   0.850   4.528 -0.3150  0.4589 -0.0040
   85SLPC  H13R 8113   3.969   0.956   4.553 -1.5749  0.3367  0.0201
   85SLPC  C214 8114   3.921   0.753   4.626  0.2808 -0.2265  0.9128
   85SLPC  H14R 8115   3.876   0.665   4.576  0.1053  1.0586 -1.3560
   85SLPC  H14S 8116   3.820   0.776   4.665 -1.0537 -2.3656 -1.0527
   85SLPC  C215 8117   4.021   0.714   4.732  0.1031 -0.4993  0.5255
   85SLPC  H15R 8118   4.055   0.809   4.780  0.5642 -1.9491  3.2698
   85SLPC  H15S 8119   4.108   0.675   4.676 -0.3190 -0.2183 -0.3533
   85SLPC  C216 8120   3.960   0.619   4.840  0.0413  0.5040 -0.6991
   85SLPC  H16R 8121   4.054   0.575   4.882 -1.0374  0.2044  1.5927
   85SLPC  H16S 8122   3.906   0.545   4.778 -1.0600  1.2648 -0.6683
   85SLPC  C217 8123   3.878   0.689   4.946 -0.0123 -0.0952  0.0662
   85SLPC  H17R 8124   3.809   0.767   4.907 -0.7021 -0.9801 -0.5058
   85SLPC  H17S 8125   3.943   0.732   5.026 -1.1951 -1.6712  1.9673
   85SLPC  C218 8126   3.790   0.593   5.025  0.1485 -0.0347 -0.4916
   85SLPC  H18R 8127   3.697   0.556   4.976  0.1496 -0.7672  0.0456
   85SLPC  H18S 8128   3.758   0.653   5.113 -1.0110  0.3593 -1.1607
   85SLPC  H18T 8129   3.842   0.497   5.047 -1.8333 -1.1935 -0.6577
   85SLPC   C33 8130   4.347   0.192   3.548 -0.1514 -0.3875  1.4357
   85SLPC   H3X 8131   4.253   0.246   3.522  0.3144 -0.5844 -0.8352
   85SLPC   H3Y 8132   4.439   0.255   3.552 -0.2832 -0.1341  0.5970
   85SLPC   C34 8133   4.325   0.123   3.683  0.0397  0.1331  0.1493
   85SLPC   H4X 8134   4.406   0.051   3.704 -1.5477 -1.8875 -0.2601
   85SLPC   H4Y 8135   4.231   0.063   3.681  0.9483 -1.3261 -1.3833
   85SLPC   C35 8136   4.316   0.225   3.798 -0.6464 -0.3274  0.2924
   85SLPC   H5X 8137   4.238   0.303   3.786  0.0378  0.2666 -0.3874
   85SLPC   H5Y 8138   4.413   0.278   3.804  0.5373 -2.0707 -1.7896
   85SLPC   C36 8139   4.282   0.153   3.935  0.2590 -0.2409  0.3110
   85SLPC   H6X 8140   4.354   0.074   3.964 -1.0681 -1.4566  0.3736
   85SLPC   H6Y 8141   4.186   0.097   3.927  0.5138 -1.0304  2.3718
   85SLPC   C37 8142   4.274   0.248   4.048  0.0526 -0.0422 -0.7938
   85SLPC   H7X 8143   4.185   0.312   4.030 -1.7835 -2.5104 -0.9815
   85SLPC   H7Y 8144   4.371   0.303   4.051 -0.3763  0.7178 -0.6086
   85SLPC   C38 8145   4.258   0.169   4.178  0.2138  0.0192  0.0189
   85SLPC   H8X 8146   4.351   0.108   4.183 -0.2926 -0.8092 -0.4562
   85SLPC   H8Y 8147   4.167   0.105   4.172  0.5818 -0.3286 -3.4534
   85SLPC   C39 8148   4.256   0.263   4.287 -0.2550 -0.0330  0.8909
   85SLPC   H9X 8149   4.192   0.348   4.258  0.7610  0.8872  1.2729
   85SLPC   H9Y 8150   4.354   0.313   4.301  0.1295 -0.2756 -0.7255
   85SLPC  C310 8151   4.209   0.204   4.420  0.7445 -0.0537 -0.7584
   85SLPC  H10X 8152   4.283   0.123   4.441  0.3914  0.1474  1.5479
   85SLPC  H10Y 8153   4.113   0.155   4.394  0.3331  0.3948 -0.0985
   85SLPC  C311 8154   4.192   0.299   4.538  0.5238 -0.4784 -0.3089
   85SLPC  H11X 8155   4.107   0.367   4.514  1.1596  0.5606  0.3118
   85SLPC  H11Y 8156   4.288   0.356   4.535 -0.5356  1.3994 -0.4457
   85SLPC  C312 8157   4.171   0.220   4.668  0.3879  0.1000 -0.4511
   85SLPC  H12X 8158   4.258   0.152   4.679  2.8658  2.4200 -3.3730
   85SLPC  H12Y 8159   4.088   0.149   4.648 -0.3748 -0.3719  3.6018
   85SLPC  C313 8160   4.143   0.305   4.792  0.1847 -0.3310 -0.1489
   85SLPC  H13X 8161   4.061   0.379   4.775 -0.6634 -1.0870  0.5219
   85SLPC  H13Y 8162   4.235   0.349   4.835 -0.2948  0.4695  0.0860
   85SLPC  C314 8163   4.076   0.215   4.897 -0.9263  0.3814 -0.1687
   85SLPC  H14X 8164   4.133   0.120   4.902  1.6801  1.7995 -1.1238
   85SLPC  H14Y 8165   3.972   0.194   4.863 -0.3026 -0.5271 -1.5721
   85SLPC  C315 8166   4.068   0.275   5.039 -0.7240 -0.3816  0.6501
   85SLPC  H15X 8167   4.017   0.374   5.047 -1.6609 -0.9100  1.5411
   85SLPC  H15Y 8168   4.174   0.289   5.071 -0.2882  0.0281 -0.8799
   85SLPC  C316 8169   3.993   0.172   5.129 -0.4346  0.2924  0.1876
   85SLPC  H16X 8170   4.021   0.069   5.099  1.4602  0.5425  0.9361
   85SLPC  H16Y 8171   3.890   0.196   5.094  0.4264  2.7163 -0.9459
   85SLPC  C317 8172   3.998   0.207   5.275 -0.2036 -0.0889  0.7181
   85SLPC  H17X 8173   4.107   0.218   5.297 -0.1701  2.3670 -0.3072
   85SLPC  H17Y 8174   3.972   0.123   5.343  4.2141 -2.1445  0.2341
   85SLPC  C318 8175   3.916   0.338   5.302 -0.1081 -0.4923 -0.4958
   85SLPC  H18X 8176   3.910   0.340   5.413  0.6838 -0.6669 -0.4441
   85SLPC  H18Y 8177   3.813   0.328   5.261  0.2582  0.0042 -1.5692
   85SLPC  H18Z 8178   3.973   0.425   5.261  0.0352 -0.2037  0.2928
   86SLPC     N 8179   6.330   4.644   3.333 -0.0033  0.4739 -0.1209
   86SLPC   C13 8180   6.327   4.793   3.327  0.5204  0.3622 -0.2861
   86SLPC  H13A 8181   6.415   4.824   3.273 -0.1890  3.1409  0.0069
   86SLPC  H13B 8182   6.236   4.829   3.282  0.0994 -0.0617  0.2173
   86SLPC  H13C 8183   6.343   4.839   3.424 -3.3835 -0.0844  0.7228
   86SLPC   C14 8184   6.326   4.592   3.190 -0.5483 -0.6053  0.1573
   86SLPC  H14A 8185   6.310   4.485   3.183 -0.5082 -0.4848 -3.6740
   86SLPC  H14B 8186   6.243   4.640   3.140 -0.8739 -2.1783 -0.8946
   86SLPC  H14C 8187   6.419   4.617   3.142 -1.2466 -2.7761 -2.5845
   86SLPC   C15 8188   6.204   4.611   3.409 -0.1351  0.3077  0.0713
   86SLPC  H15A 8189   6.196   4.673   3.497  2.2120  4.2582 -2.2034
   86SLPC  H15B 8190   6.122   4.630   3.340  0.7067 -0.5278 -1.1992
   86SLPC  H15C 8191   6.210   4.506   3.430  1.7725  0.2092 -0.8323
   86SLPC   C12 8192   6.451   4.593   3.392  0.2766 -0.1208  0.4070
   86SLPC  H12A 8193   6.539   4.651   3.367 -0.5637  0.6167 -0.9255
   86SLPC  H12B 8194   6.470   4.489   3.372 -1.1011 -0.3070 -0.0565
   86SLPC   C11 8195   6.460   4.606   3.546 -0.0871  0.4449  0.2611
   86SLPC  H11A 8196   6.372   4.565   3.601  1.6041 -2.8106  0.7805
   86SLPC  H11B 8197   6.463   4.713   3.574  1.2879 -0.3410  3.5798
   86SLPC     P 8198   6.725   4.588   3.572  0.1305 -0.1754  0.1608
   86SLPC   O13 8199   6.788   4.487   3.486 -0.5491  0.1729 -0.2148
   86SLPC   O14 8200   6.711   4.724   3.515 -0.6969  0.0970  0.3455
   86SLPC   O12 8201   6.578   4.540   3.599  0.0237  0.3493  0.4668
   86SLPC   O11 8202   6.790   4.578   3.716 -0.7847  0.2424  0.3022
   86SLPC    C1 8203   6.839   4.459   3.771  0.4647  0.3885 -0.6677
   86SLPC    HA 8204   6.783   4.370   3.735 -0.0378  0.2504  0.4156
   86SLPC    HB 8205   6.947   4.441   3.749  0.8493  0.6152  0.8864
   86SLPC    C2 8206   6.804   4.462   3.925  0.1038  0.1787  0.4846
   86SLPC    HS 8207   6.822   4.361   3.965  2.5894 -0.2672 -1.5210
   86SLPC   O21 8208   6.681   4.521   3.955  0.2081  0.7839  0.5101
   86SLPC   C21 8209   6.572   4.436   3.927 -0.2921 -0.6805 -0.2854
   86SLPC   O22 8210   6.580   4.322   3.887 -0.2773 -0.6444 -0.3377
   86SLPC   C22 8211   6.449   4.503   3.967 -0.4011 -0.0104  0.5604
   86SLPC   H2R 8212   6.427   4.580   3.890 -0.2038  0.1170  0.6312
   86SLPC   H2S 8213   6.363   4.433   3.962 -0.8390  0.5882 -1.8338
   86SLPC    C3 8214   6.920   4.550   3.989 -0.2817  0.3667 -0.6271
   86SLPC    HX 8215   6.940   4.637   3.923 -1.0661  0.9550 -0.1089
   86SLPC    HY 8216   7.012   4.487   3.983  0.0166  0.6286  0.9531
   86SLPC   O31 8217   6.902   4.576   4.132  0.0929  0.1611 -0.0523
   86SLPC   C31 8218   6.876   4.698   4.165 -0.3213 -0.0930 -0.5856
   86SLPC   O32 8219   6.886   4.797   4.093  0.0605  0.0344  0.0731
   86SLPC   C32 8220   6.849   4.707   4.314  0.4607  0.3365 -0.5704
   86SLPC   H2X 8221   6.933   4.651   4.360  0.0350 -1.0069 -1.3751
   86SLPC   H2Y 8222   6.757   4.650   4.340  0.8661  0.6777  1.8511
   86SLPC   C23 8223   6.463   4.555   4.118  0.8888 -0.0107 -0.1293
   86SLPC   H3R 8224   6.369   4.613   4.135 -1.0276 -2.8280 -0.5085
   86SLPC   H3S 8225   6.549   4.624   4.128  0.6662  0.3643 -0.7099
   86SLPC   C24 8226   6.481   4.438   4.219 -0.4006 -0.1557 -0.2484
   86SLPC   H4R 8227   6.557   4.363   4.190 -0.5998 -0.4265 -0.0691
   86SLPC   H4S 8228   6.382   4.389   4.227 -1.7427  2.4911  0.7003
   86SLPC   C25 8229   6.507   4.476   4.368  0.8459  0.6166  0.9491
   86SLPC   H5R 8230   6.613   4.507   4.371  1.3923 -0.8327 -1.2718
   86SLPC   H5S 8231   6.495   4.384   4.430 -0.8497 -1.4529 -2.1741
   86SLPC   C26 8232   6.423   4.600   4.434 -0.3969  0.1699  0.1111
   86SLPC   H6R 8233   6.458   4.691   4.381  0.3961  0.6702  1.4418
   86SLPC   H6S 8234   6.463   4.603   4.538  0.2180 -0.5863 -0.0932
   86SLPC   C27 8235   6.270   4.580   4.448 -0.4573  0.2708  0.4643
   86SLPC   H7R 8236   6.242   4.479   4.484  2.5994 -1.0517 -0.5320
   86SLPC   H7S 8237   6.227   4.566   4.346  0.1550 -1.0234  0.3609
   86SLPC   C28 8238   6.209   4.687   4.545  0.1715 -0.5862  0.1241
   86SLPC   H8R 8239   6.282   4.707   4.626 -1.0250  1.2180  0.8076
   86SLPC   H8S 8240   6.119   4.643   4.593 -0.8314 -0.3323 -1.4545
   86SLPC   C29 8241   6.164   4.806   4.470  0.0384  0.6681  0.1671
   86SLPC   H9R 8242   6.171   4.817   4.361  2.2021  1.6854  0.3579
   86SLPC  C210 8243   6.142   4.919   4.536  1.0553 -0.2950 -0.3510
   86SLPC  H10R 8244   6.120   5.002   4.467  1.2046 -2.0805 -2.6373
   86SLPC  C211 8245   6.153   4.950   4.688  0.2228 -0.5517  1.1202
   86SLPC  H11R 8246   6.255   4.983   4.714  0.9983 -1.6767 -0.3264
   86SLPC  H11S 8247   6.147   4.855   4.746 -4.2468 -0.2000  1.5834
   86SLPC  C212 8248   6.049   5.054   4.726  0.4596 -0.0758  0.9700
   86SLPC  H12R 8249   6.051   5.153   4.677  0.2287 -0.5979 -0.1313
   86SLPC  C213 8250   5.952   5.035   4.820 -0.6271 -0.1371  0.2228
   86SLPC  H13R 8251   5.888   5.123   4.839  0.3275  1.2567 -2.4254
   86SLPC  C214 8252   5.931   4.926   4.920  0.3102 -0.0760 -0.0118
   86SLPC  H14R 8253   5.962   4.973   5.016  0.0498  0.8551 -0.3691
   86SLPC  H14S 8254   6.005   4.845   4.902  1.1280  0.3682  1.1973
   86SLPC  C215 8255   5.784   4.873   4.914 -0.0328 -0.2675 -0.1263
   86SLPC  H15R 8256   5.752   4.846   4.812 -0.3132  1.3771 -0.5068
   86SLPC  H15S 8257   5.717   4.954   4.950 -0.4041 -0.9605  0.7923
   86SLPC  C216 8258   5.753   4.749   4.989  0.9811  0.1454 -0.0436
   86SLPC  H16R 8259   5.795   4.664   4.931  1.1165 -0.5243  1.0003
   86SLPC  H16S 8260   5.644   4.726   4.987  1.0361 -0.2755  1.0601
   86SLPC  C217 8261   5.791   4.753   5.139 -0.1144  0.2344  0.8080
   86SLPC  H17R 8262   5.771   4.856   5.177 -2.2146 -0.1853  0.9218
   86SLPC  H17S 8263   5.902   4.743   5.149 -0.2923  0.2650  3.4569
   86SLPC  C218 8264   5.720   4.645   5.214 -0.5042 -0.1249 -0.7995
   86SLPC  H18R 8265   5.730   4.667   5.322  0.9806 -0.8696 -0.7517
   86SLPC  H18S 8266   5.777   4.550   5.206 -0.0757 -0.1299  1.5769
   86SLPC  H18T 8267   5.613   4.634   5.186 -1.4275  0.3204  2.2738
   86SLPC   C33 8268   6.839   4.850   4.375  0.2990 -0.0410  0.3560
   86SLPC   H3X 8269   6.751   4.895   4.325  2.1365  0.6032 -2.5301
   86SLPC   H3Y 8270   6.923   4.917   4.348 -0.1254  0.3069 -0.1138
   86SLPC   C34 8271   6.816   4.847   4.531 -0.2799  0.1206 -0.2653
   86SLPC   H4X 8272   6.891   4.777   4.574 -0.5293  0.2687  0.4305
   86SLPC   H4Y 8273   6.714   4.807   4.549 -0.6150  0.2292 -1.8090
   86SLPC   C35 8274   6.835   4.989   4.594  0.3372 -0.1365 -0.2758
   86SLPC   H5X 8275   6.772   5.066   4.544 -0.1426 -1.6734 -2.1907
   86SLPC   H5Y 8276   6.937   5.024   4.570 -0.1656  0.4976 -1.6033
   86SLPC   C36 8277   6.803   5.004   4.744  0.3007 -0.2727 -0.4121
   86SLPC   H6X 8278   6.844   5.102   4.777 -1.0644  0.1499  0.0928
   86SLPC   H6Y 8279   6.870   4.935   4.799  2.0052  0.9486 -0.8618
   86SLPC   C37 8280   6.651   4.989   4.769  0.7561  0.1062  0.4595
   86SLPC   H7X 8281   6.637   4.879   4.761  0.6805  0.2430 -1.8501
   86SLPC   H7Y 8282   6.598   5.035   4.683  1.1655  1.0138  0.6840
   86SLPC   C38 8283   6.599   5.063   4.899 -0.1840  0.6917 -0.3870
   86SLPC   H8X 8284   6.637   5.165   4.878 -0.9526  0.8025 -1.2784
   86SLPC   H8Y 8285   6.652   5.012   4.983  3.0800  0.7070 -2.2706
   86SLPC   C39 8286   6.442   5.052   4.914 -0.1915 -1.1339  0.2416
   86SLPC   H9X 8287   6.404   4.952   4.884 -4.9277  0.6837 -0.5401
   86SLPC   H9Y 8288   6.408   5.129   4.842  0.1364  0.1712  1.4269
   86SLPC  C310 8289   6.376   5.092   5.045  0.2925 -0.3800  0.4488
   86SLPC  H10X 8290   6.266   5.084   5.030  0.5985 -4.6479 -1.0863
   86SLPC  H10Y 8291   6.405   5.195   5.073 -2.1760 -0.2064  2.7139
   86SLPC  C311 8292   6.422   4.997   5.161 -0.3784  0.0192 -0.1457
   86SLPC  H11X 8293   6.371   5.033   5.253  1.7399  0.4143  0.9329
   86SLPC  H11Y 8294   6.530   5.014   5.179 -0.0863 -1.1702 -0.6844
   86SLPC  C312 8295   6.407   4.843   5.132  0.1616  0.2438 -0.0828
   86SLPC  H12X 8296   6.495   4.814   5.071 -0.2318  1.0580 -1.0670
   86SLPC  H12Y 8297   6.309   4.825   5.081 -0.7793  1.7377  1.1049
   86SLPC  C313 8298   6.412   4.774   5.274 -0.5007 -0.1532  0.5887
   86SLPC  H13X 8299   6.322   4.795   5.335 -1.6331  0.0827 -1.0945
   86SLPC  H13Y 8300   6.502   4.813   5.326  0.1660  0.8889 -1.2425
   86SLPC  C314 8301   6.431   4.624   5.272 -0.6940  0.3019 -0.6258
   86SLPC  H14X 8302   6.538   4.603   5.250  0.4453  2.6236  2.0165
   86SLPC  H14Y 8303   6.371   4.576   5.192  0.8834 -1.2345 -0.9492
   86SLPC  C315 8304   6.386   4.560   5.409 -0.3172 -0.0401  0.2851
   86SLPC  H15X 8305   6.286   4.600   5.436 -0.2355 -1.3716  2.8789
   86SLPC  H15Y 8306   6.454   4.597   5.488 -1.9479  0.0745  1.6808
   86SLPC  C316 8307   6.386   4.410   5.412 -0.3136  0.5102  0.1619
   86SLPC  H16X 8308   6.319   4.364   5.335  0.5148  0.1632 -0.3683
   86SLPC  H16Y 8309   6.368   4.391   5.520 -0.0064  1.5261  0.4042
   86SLPC  C317 8310   6.514   4.343   5.375 -0.6584 -0.9780  1.1517
   86SLPC  H17X 8311   6.592   4.387   5.441  1.0695  0.4994 -1.6653
   86SLPC  H17Y 8312   6.543   4.374   5.272  1.1416  1.8645  2.3898
   86SLPC  C318 8313   6.531   4.191   5.391  0.4434  0.1420  0.5960
   86SLPC  H18X 8314   6.528   4.162   5.499  2.3980 -1.2566  0.3311
   86SLPC  H18Y 8315   6.628   4.147   5.357  0.8868 -0.4658  2.5144
   86SLPC  H18Z 8316   6.453   4.132   5.338  0.7533 -0.0748  0.3727
   87SLPC     N 8317   4.007   3.377   3.082  0.7929  0.5525  0.0063
   87SLPC   C13 8318   3.889   3.398   2.993 -0.5839  0.6644  0.4402
   87SLPC  H13A 8319   3.799   3.395   3.053  0.2540 -1.5364  1.7095
   87SLPC  H13B 8320   3.886   3.498   2.953  0.1818  1.4597  2.2804
   87SLPC  H13C 8321   3.878   3.314   2.926 -0.7927  1.4153 -0.4961
   87SLPC   C14 8322   4.127   3.395   2.985  0.0316 -0.1457  0.4702
   87SLPC  H14A 8323   4.217   3.373   3.041 -1.3216 -3.6565  1.5103
   87SLPC  H14B 8324   4.126   3.327   2.902  4.8296 -0.0434  0.0757
   87SLPC  H14C 8325   4.114   3.492   2.938 -4.2440 -0.8171 -0.1113
   87SLPC   C15 8326   4.006   3.242   3.144 -0.1019  0.6252 -0.5069
   87SLPC  H15A 8327   4.004   3.160   3.074 -2.3585  0.2466 -0.0735
   87SLPC  H15B 8328   4.096   3.232   3.203 -0.8078  1.2166  0.7302
   87SLPC  H15C 8329   3.916   3.236   3.205  1.2370  1.6114  1.6938
   87SLPC   C12 8330   4.008   3.498   3.174 -0.2213 -0.0446 -0.2689
   87SLPC  H12A 8331   3.981   3.586   3.118 -0.3263  2.2116  3.0573
   87SLPC  H12B 8332   4.105   3.506   3.220 -0.5230  1.8548  0.1322
   87SLPC   C11 8333   3.901   3.501   3.283  0.1015 -0.3354 -1.2138
   87SLPC  H11A 8334   3.922   3.575   3.363  1.3222  1.1682 -2.8568
   87SLPC  H11B 8335   3.912   3.405   3.337  0.0456  1.8164  3.0180
   87SLPC     P 8336   3.710   3.652   3.184 -0.1963  0.1694  0.0602
   87SLPC   O13 8337   3.817   3.750   3.198 -0.0026  0.0432  0.7799
   87SLPC   O14 8338   3.635   3.652   3.056  0.0453  0.0947 -0.6028
   87SLPC   O12 8339   3.771   3.509   3.225 -0.6748 -0.1054 -0.5621
   87SLPC   O11 8340   3.607   3.684   3.301 -0.0653  0.1940 -0.1396
   87SLPC    C1 8341   3.528   3.569   3.354 -0.1625  0.1786  0.0007
   87SLPC    HA 8342   3.460   3.527   3.277 -2.1878 -2.4174  2.9301
   87SLPC    HB 8343   3.587   3.483   3.391 -2.4150 -1.1746  0.6479
   87SLPC    C2 8344   3.430   3.609   3.475 -0.1367  0.3586  0.1342
   87SLPC    HS 8345   3.362   3.688   3.438 -1.2998 -0.6377  0.0995
   87SLPC   O21 8346   3.527   3.656   3.574  0.0232  0.1379 -0.0507
   87SLPC   C21 8347   3.472   3.753   3.644 -0.4905  0.1453 -1.3385
   87SLPC   O22 8348   3.366   3.809   3.623 -0.1938  0.0782  0.4212
   87SLPC   C22 8349   3.565   3.791   3.764  0.5797  0.4564 -0.2677
   87SLPC   H2R 8350   3.590   3.699   3.821  0.6166  1.8578  2.1381
   87SLPC   H2S 8351   3.656   3.828   3.712 -0.3242 -2.2855 -4.2762
   87SLPC    C3 8352   3.349   3.487   3.528 -0.2801 -0.4980  0.7355
   87SLPC    HX 8353   3.421   3.408   3.557  0.6734  0.3209  0.6571
   87SLPC    HY 8354   3.292   3.458   3.437  1.0876  1.5048 -0.8597
   87SLPC   O31 8355   3.263   3.518   3.645  0.0356 -0.1847  1.1745
   87SLPC   C31 8356   3.151   3.592   3.610  0.9601  0.5767 -0.1628
   87SLPC   O32 8357   3.125   3.631   3.499  0.6290 -0.4065 -0.1968
   87SLPC   C32 8358   3.048   3.595   3.720 -0.2069  0.1705 -0.6152
   87SLPC   H2X 8359   3.099   3.615   3.816 -0.2386 -0.4027 -0.4732
   87SLPC   H2Y 8360   3.005   3.495   3.742  1.0661  0.2263  2.5311
   87SLPC   C23 8361   3.497   3.893   3.858  0.4438 -0.2948 -0.2778
   87SLPC   H3R 8362   3.401   3.846   3.886 -0.4542  1.6552  0.0596
   87SLPC   H3S 8363   3.454   3.988   3.820 -0.6548 -0.0793  1.4342
   87SLPC   C24 8364   3.588   3.942   3.975 -0.3415  0.1114  0.5530
   87SLPC   H4R 8365   3.529   4.020   4.027 -1.1633 -0.8366  1.0789
   87SLPC   H4S 8366   3.683   3.983   3.934  0.5709 -1.9527  0.4689
   87SLPC   C25 8367   3.616   3.829   4.073  0.7183 -0.5084  0.1774
   87SLPC   H5R 8368   3.711   3.854   4.124  2.6308  1.0274 -3.7594
   87SLPC   H5S 8369   3.625   3.728   4.029 -0.5705 -0.7617  0.4505
   87SLPC   C26 8370   3.506   3.811   4.184 -0.5077  0.3536  0.3828
   87SLPC   H6R 8371   3.407   3.803   4.134 -1.3343  2.6195  1.5264
   87SLPC   H6S 8372   3.509   3.899   4.252  0.4636  1.1872 -0.7151
   87SLPC   C27 8373   3.512   3.684   4.270 -0.0757 -0.0458  0.9000
   87SLPC   H7R 8374   3.471   3.596   4.215  1.6763 -0.9122  0.9095
   87SLPC   H7S 8375   3.436   3.695   4.350  0.0196  0.1187  0.9674
   87SLPC   C28 8376   3.644   3.660   4.350  0.3146 -0.7027  0.0316
   87SLPC   H8R 8377   3.644   3.738   4.429 -1.0302 -2.6761  2.0974
   87SLPC   H8S 8378   3.735   3.682   4.289  1.5371 -0.7288  1.7621
   87SLPC   C29 8379   3.648   3.532   4.418  0.0959 -0.1632  0.3480
   87SLPC   H9R 8380   3.668   3.443   4.356 -1.9446 -0.3585 -0.0978
   87SLPC  C210 8381   3.620   3.509   4.555 -0.9753 -0.0730  0.0672
   87SLPC  H10R 8382   3.638   3.415   4.609  0.5117  0.0419 -0.1646
   87SLPC  C211 8383   3.592   3.612   4.660 -0.0812  0.5016  0.3041
   87SLPC  H11R 8384   3.549   3.704   4.616  0.1190  0.6921  0.5052
   87SLPC  H11S 8385   3.691   3.641   4.700  0.5225 -1.9621  0.7993
   87SLPC  C212 8386   3.494   3.570   4.760  0.2795 -0.2175  0.3380
   87SLPC  H12R 8387   3.420   3.500   4.720 -0.4901  1.2974 -1.0086
   87SLPC  C213 8388   3.491   3.600   4.893  0.3293 -0.5470 -0.2196
   87SLPC  H13R 8389   3.417   3.558   4.963  2.7635 -1.8797  1.7215
   87SLPC  C214 8390   3.592   3.686   4.967 -0.1735  0.2577 -0.0468
   87SLPC  H14R 8391   3.687   3.699   4.910 -0.4831  1.6511 -0.2563
   87SLPC  H14S 8392   3.621   3.634   5.061  1.7005  3.4318  1.2897
   87SLPC  C215 8393   3.524   3.816   5.001 -0.5002  0.2473 -0.2150
   87SLPC  H15R 8394   3.447   3.788   5.075 -0.6735 -0.9653 -0.8400
   87SLPC  H15S 8395   3.491   3.870   4.909  0.3561 -0.0949 -0.7399
   87SLPC  C216 8396   3.622   3.905   5.074 -0.3613  0.3583  0.1782
   87SLPC  H16R 8397   3.707   3.924   5.005 -0.5627 -1.9968 -0.8242
   87SLPC  H16S 8398   3.656   3.853   5.167 -0.6162 -1.1976 -0.5631
   87SLPC  C217 8399   3.571   4.041   5.114 -0.5851  0.6041  0.1596
   87SLPC  H17R 8400   3.478   4.026   5.172  0.5773  0.1490  1.9930
   87SLPC  H17S 8401   3.552   4.097   5.020  0.4357 -1.9004 -1.6625
   87SLPC  C218 8402   3.663   4.118   5.204 -0.3752 -0.1231  0.0245
   87SLPC  H18R 8403   3.705   4.063   5.291 -1.6935  1.5105  1.7807
   87SLPC  H18S 8404   3.613   4.209   5.245 -1.9839 -0.3645 -1.3228
   87SLPC  H18T 8405   3.749   4.152   5.143  0.3170 -1.7371  0.0617
   87SLPC   C33 8406   2.923   3.684   3.696  0.1664  0.3847 -0.5341
   87SLPC   H3X 8407   2.844   3.654   3.769  1.7405 -0.8569  0.7278
   87SLPC   H3Y 8408   2.880   3.669   3.595  2.1614  2.2071 -1.7321
   87SLPC   C34 8409   2.949   3.834   3.727  0.3768  0.4433 -0.0838
   87SLPC   H4X 8410   2.848   3.880   3.725 -0.1978 -0.7197  1.0182
   87SLPC   H4Y 8411   3.009   3.879   3.644  1.3039  1.5780  1.1687
   87SLPC   C35 8412   3.024   3.868   3.860  0.3654 -0.6238  0.1653
   87SLPC   H5X 8413   3.121   3.814   3.869 -0.4900 -1.9967  1.6526
   87SLPC   H5Y 8414   2.959   3.838   3.945  1.3705  0.1252  1.2380
   87SLPC   C36 8415   3.052   4.015   3.872  0.0377 -0.4209 -0.3235
   87SLPC   H6X 8416   2.968   4.073   3.914  2.0950  0.6112  2.7129
   87SLPC   H6Y 8417   3.070   4.059   3.771 -2.7399  0.9981 -0.2829
   87SLPC   C37 8418   3.173   4.065   3.957 -0.1283 -0.2346  0.9636
   87SLPC   H7X 8419   3.179   4.176   3.950  0.6413 -0.3749 -1.2844
   87SLPC   H7Y 8420   3.264   4.019   3.913  0.0158 -1.0535  2.0625
   87SLPC   C38 8421   3.164   4.025   4.103  0.1588 -0.4833  0.3268
   87SLPC   H8X 8422   3.181   3.915   4.111 -0.3590 -0.5760  0.1349
   87SLPC   H8Y 8423   3.059   4.042   4.133 -0.1735 -0.4088 -0.8603
   87SLPC   C39 8424   3.250   4.099   4.205 -0.1710 -0.2073  0.2479
   87SLPC   H9X 8425   3.220   4.206   4.207 -1.4365 -0.5472  0.4311
   87SLPC   H9Y 8426   3.356   4.094   4.172  0.3491  1.5106  1.5242
   87SLPC  C310 8427   3.235   4.054   4.350  0.5322 -0.5913  0.7097
   87SLPC  H10X 8428   3.307   4.116   4.407  0.0537  1.2155 -0.5447
   87SLPC  H10Y 8429   3.264   3.948   4.366 -1.1744 -1.1063  0.6081
   87SLPC  C311 8430   3.099   4.099   4.410 -0.3096 -0.7130  0.5629
   87SLPC  H11X 8431   3.020   4.044   4.354  0.1294  0.0279 -0.8217
   87SLPC  H11Y 8432   3.080   4.208   4.396  0.4834 -0.5865  0.4465
   87SLPC  C312 8433   3.093   4.072   4.561  0.5276 -0.1265 -0.9091
   87SLPC  H12X 8434   2.983   4.084   4.574  0.8347  1.0096  1.2175
   87SLPC  H12Y 8435   3.148   4.151   4.617  2.3853 -0.9721 -1.4824
   87SLPC  C313 8436   3.138   3.932   4.606  0.1802 -0.2578  0.8099
   87SLPC  H13X 8437   3.245   3.931   4.575 -0.1378 -2.5842 -0.4152
   87SLPC  H13Y 8438   3.083   3.855   4.549 -0.0192  1.4824 -1.5247
   87SLPC  C314 8439   3.126   3.903   4.750  0.0491 -0.6189 -0.3697
   87SLPC  H14X 8440   3.170   3.805   4.779  0.6731  0.3774  2.3267
   87SLPC  H14Y 8441   3.016   3.896   4.768  0.0883 -1.9744 -0.5237
   87SLPC  C315 8442   3.177   4.022   4.835 -0.1046  0.4638  0.1292
   87SLPC  H15X 8443   3.103   4.105   4.831 -2.7169 -1.6959  0.7494
   87SLPC  H15Y 8444   3.275   4.065   4.805  0.0529  1.1626  1.5529
   87SLPC  C316 8445   3.190   3.982   4.983 -0.3694 -0.4477 -0.2022
   87SLPC  H16X 8446   3.250   4.060   5.033  0.5962 -0.5637 -1.1339
   87SLPC  H16Y 8447   3.248   3.889   5.001 -0.3070 -0.3193  0.2564
   87SLPC  C317 8448   3.058   3.962   5.055  0.3765  0.4214 -0.1828
   87SLPC  H17X 8449   3.005   3.880   5.002 -1.2421  1.5176 -0.3304
   87SLPC  H17Y 8450   3.003   4.054   5.027  0.4991  0.6811  0.4032
   87SLPC  C318 8451   3.053   3.939   5.206 -0.5588 -0.4395  0.3206
   87SLPC  H18X 8452   3.081   4.025   5.270 -2.8600 -0.3902  1.3677
   87SLPC  H18Y 8453   3.109   3.847   5.233  0.2032 -0.2817 -0.6943
   87SLPC  H18Z 8454   2.948   3.916   5.234 -0.3760 -2.1404 -0.2947
   88SLPC     N 8455   6.356   2.253   3.091  0.3218  0.4279  0.1610
   88SLPC   C13 8456   6.466   2.160   3.043 -0.2402 -0.2528 -0.3219
   88SLPC  H13A 8457   6.448   2.056   3.067 -0.4346 -0.3056 -0.6930
   88SLPC  H13B 8458   6.483   2.155   2.936 -2.6609  0.3608 -0.7810
   88SLPC  H13C 8459   6.553   2.190   3.100  0.2125 -0.5752 -0.8258
   88SLPC   C14 8460   6.231   2.199   3.027  0.8651 -0.4005  0.4388
   88SLPC  H14A 8461   6.197   2.103   3.064  0.8284  0.2845  2.2384
   88SLPC  H14B 8462   6.148   2.263   3.051 -1.0748 -1.8806 -1.8049
   88SLPC  H14C 8463   6.232   2.193   2.919 -0.7998 -1.8939  0.4599
   88SLPC   C15 8464   6.388   2.383   3.029  0.3015 -0.0618  0.1837
   88SLPC  H15A 8465   6.313   2.453   3.063 -0.7274 -0.9547 -0.2168
   88SLPC  H15B 8466   6.483   2.424   3.061 -0.6606 -0.3032  3.8309
   88SLPC  H15C 8467   6.379   2.381   2.922  1.3379  1.2562  0.0473
   88SLPC   C12 8468   6.343   2.246   3.242 -0.2049 -0.3297 -0.5310
   88SLPC  H12A 8469   6.301   2.156   3.283 -1.8559  1.3399  1.7339
   88SLPC  H12B 8470   6.277   2.328   3.266 -0.8002 -0.7157 -0.8376
   88SLPC   C11 8471   6.469   2.268   3.326 -0.3893 -0.4088 -0.2609
   88SLPC  H11A 8472   6.545   2.197   3.287  2.2575 -0.1494  3.8015
   88SLPC  H11B 8473   6.460   2.258   3.436  2.8805 -1.6034  0.0052
   88SLPC     P 8474   6.480   2.519   3.378  0.1980  0.3463  0.1347
   88SLPC   O13 8475   6.543   2.641   3.322 -0.3018 -0.2231  0.0859
   88SLPC   O14 8476   6.330   2.514   3.392 -0.4360 -0.5833 -0.3523
   88SLPC   O12 8477   6.528   2.392   3.298 -0.6211 -0.4101  0.3476
   88SLPC   O11 8478   6.546   2.495   3.520  0.1172 -0.2642  0.4406
   88SLPC    C1 8479   6.686   2.459   3.538  0.0608 -0.4465  0.0590
   88SLPC    HA 8480   6.727   2.417   3.444 -1.4623 -1.3833 -0.2211
   88SLPC    HB 8481   6.743   2.548   3.573  1.1817 -0.0063 -2.6632
   88SLPC    C2 8482   6.689   2.338   3.635 -0.5532  0.2908  0.0436
   88SLPC    HS 8483   6.613   2.267   3.599  0.2738  0.4699 -2.2226
   88SLPC   O21 8484   6.653   2.391   3.766  0.6003 -0.3971  0.8099
   88SLPC   C21 8485   6.656   2.309   3.864  0.6479 -0.3626  0.5320
   88SLPC   O22 8486   6.656   2.187   3.854 -0.6920  0.6690 -0.4426
   88SLPC   C22 8487   6.668   2.391   3.993  0.0376  0.6196  0.3523
   88SLPC   H2R 8488   6.768   2.441   3.990  0.3125  0.0424 -1.0163
   88SLPC   H2S 8489   6.587   2.467   3.994  0.8955  1.6813 -1.8796
   88SLPC    C3 8490   6.833   2.270   3.637 -0.0720 -0.2714  0.3864
   88SLPC    HX 8491   6.878   2.280   3.536  1.4014 -0.7095  0.9720
   88SLPC    HY 8492   6.815   2.161   3.652  0.1850 -0.4350 -0.4316
   88SLPC   O31 8493   6.925   2.321   3.731 -0.1292  0.0777  0.2775
   88SLPC   C31 8494   7.043   2.247   3.739  0.5750 -0.1092  0.0110
   88SLPC   O32 8495   7.062   2.145   3.673 -0.5718 -0.3267 -0.3747
   88SLPC   C32 8496   7.153   2.316   3.816  0.3022 -0.1767  0.8532
   88SLPC   H2X 8497   7.187   2.405   3.759  0.3575 -0.6084  0.2044
   88SLPC   H2Y 8498   7.242   2.251   3.802 -0.2027 -0.9736  1.2752
   88SLPC   C23 8499   6.669   2.290   4.110 -0.3705  0.8593 -0.2174
   88SLPC   H3R 8500   6.765   2.236   4.101 -0.2045  1.2582 -1.0332
   88SLPC   H3S 8501   6.583   2.220   4.107  1.4893 -1.6926  2.1701
   88SLPC   C24 8502   6.648   2.353   4.241  0.1206  0.3436 -0.9643
   88SLPC   H4R 8503   6.549   2.403   4.250 -0.2096 -0.7029  2.3070
   88SLPC   H4S 8504   6.720   2.436   4.259 -0.3874  1.2560 -2.8370
   88SLPC   C25 8505   6.661   2.252   4.361  0.6304 -0.1293 -0.1502
   88SLPC   H5R 8506   6.742   2.178   4.339 -0.5533 -2.4371  2.5900
   88SLPC   H5S 8507   6.569   2.191   4.369  0.5369  0.0264 -0.0239
   88SLPC   C26 8508   6.684   2.324   4.496  0.0355 -0.0717 -0.3486
   88SLPC   H6R 8509   6.768   2.395   4.481  0.0151  0.0464  0.0869
   88SLPC   H6S 8510   6.725   2.244   4.561  2.9888  1.5083 -0.0911
   88SLPC   C27 8511   6.574   2.406   4.556  0.4837 -0.9205 -0.0274
   88SLPC   H7R 8512   6.504   2.349   4.620 -0.2279  3.2780  3.4082
   88SLPC   H7S 8513   6.516   2.459   4.477  0.8226  0.6853  0.7631
   88SLPC   C28 8514   6.622   2.515   4.656 -0.0629  0.0421  0.4841
   88SLPC   H8R 8515   6.697   2.581   4.606  0.3849  2.3046  3.8252
   88SLPC   H8S 8516   6.672   2.458   4.737  0.8900 -3.1100 -2.1120
   88SLPC   C29 8517   6.498   2.604   4.695  0.1507  0.3928 -0.0560
   88SLPC   H9R 8518   6.423   2.616   4.615  0.2702  0.2677 -0.1866
   88SLPC  C210 8519   6.484   2.657   4.815  0.1858  0.2894  0.0969
   88SLPC  H10R 8520   6.394   2.717   4.835 -0.1311 -0.4197  0.8737
   88SLPC  C211 8521   6.587   2.661   4.922 -0.0466  0.2612  0.0730
   88SLPC  H11R 8522   6.574   2.752   4.985  1.6181  0.7578 -0.2502
   88SLPC  H11S 8523   6.687   2.664   4.872 -0.1846 -2.4835 -0.5107
   88SLPC  C212 8524   6.586   2.540   5.006  0.1779 -0.4790  0.2098
   88SLPC  H12R 8525   6.553   2.449   4.954  0.3333 -0.6742  0.4563
   88SLPC  C213 8526   6.612   2.538   5.139 -0.2529 -0.2880  0.8240
   88SLPC  H13R 8527   6.588   2.443   5.190 -1.5760 -1.2746 -1.4627
   88SLPC  C214 8528   6.639   2.651   5.236  0.6731  0.4745  0.3518
   88SLPC  H14R 8529   6.617   2.747   5.184 -0.1501  0.1896  0.1637
   88SLPC  H14S 8530   6.749   2.648   5.253  0.3332  0.1708  2.8226
   88SLPC  C215 8531   6.550   2.641   5.360  0.1266  0.5858 -0.4208
   88SLPC  H15R 8532   6.573   2.553   5.424 -1.7635  0.6293  0.3831
   88SLPC  H15S 8533   6.443   2.659   5.337  0.2549  0.6717 -0.9709
   88SLPC  C216 8534   6.582   2.764   5.456 -0.3395 -0.6266 -0.0223
   88SLPC  H16R 8535   6.594   2.864   5.410 -0.6849  0.1582  1.5183
   88SLPC  H16S 8536   6.681   2.731   5.495 -0.4829  0.5237  1.4442
   88SLPC  C217 8537   6.483   2.761   5.570 -0.6021 -0.1196 -0.0288
   88SLPC  H17R 8538   6.456   2.654   5.579 -0.5296 -0.2351 -1.0437
   88SLPC  H17S 8539   6.392   2.824   5.561 -0.0171  0.8167  0.4603
   88SLPC  C218 8540   6.550   2.795   5.701  0.0133  0.2198 -0.4815
   88SLPC  H18R 8541   6.596   2.896   5.702  0.2343  0.1191  0.2648
   88SLPC  H18S 8542   6.619   2.714   5.734 -0.6174 -0.3092 -0.4519
   88SLPC  H18T 8543   6.464   2.791   5.771 -0.6155 -1.8880 -1.2797
   88SLPC   C33 8544   7.118   2.330   3.964 -0.5409  0.7084 -0.4916
   88SLPC   H3X 8545   7.023   2.385   3.981 -0.9603  0.7840 -2.8101
   88SLPC   H3Y 8546   7.201   2.377   4.021  1.2185 -2.7579  0.0848
   88SLPC   C34 8547   7.098   2.189   4.030 -0.5136 -0.5281  0.7448
   88SLPC   H4X 8548   7.190   2.134   4.000 -1.4414 -2.4614  1.3237
   88SLPC   H4Y 8549   7.004   2.148   3.988 -0.8896  0.6101  0.4127
   88SLPC   C35 8550   7.098   2.204   4.183  0.2115  0.1257 -0.5741
   88SLPC   H5X 8551   7.005   2.254   4.220  1.8672  0.9029  2.9594
   88SLPC   H5Y 8552   7.186   2.262   4.218  1.4197 -0.8572 -1.8889
   88SLPC   C36 8553   7.095   2.073   4.262 -0.1260  0.0496 -0.2510
   88SLPC   H6X 8554   7.182   2.017   4.222 -0.5332 -0.3183 -0.6338
   88SLPC   H6Y 8555   7.000   2.018   4.244 -0.0204  0.7649 -3.9108
   88SLPC   C37 8556   7.117   2.083   4.410 -0.6018  0.0828 -0.4095
   88SLPC   H7X 8557   7.214   2.133   4.429 -1.0882  0.6200  0.7556
   88SLPC   H7Y 8558   7.123   1.981   4.454  1.7546 -0.4966 -1.8958
   88SLPC   C38 8559   7.013   2.152   4.494 -0.1748  0.2804 -0.0613
   88SLPC   H8X 8560   6.913   2.106   4.481  0.2291 -0.7563  0.4075
   88SLPC   H8Y 8561   7.004   2.261   4.477  0.8674  0.4144  0.1808
   88SLPC   C39 8562   7.060   2.134   4.642  0.3342  0.1729  0.1684
   88SLPC   H9X 8563   7.147   2.200   4.660 -0.1674  0.6095  1.0771
   88SLPC   H9Y 8564   7.092   2.030   4.668  1.5274  0.0886 -1.5005
   88SLPC  C310 8565   6.944   2.166   4.747 -0.1448  0.5751  0.8350
   88SLPC  H10X 8566   6.859   2.096   4.733  1.0100 -0.3088 -3.2307
   88SLPC  H10Y 8567   6.918   2.272   4.723  1.4568  0.8023 -0.0474
   88SLPC  C311 8568   6.989   2.155   4.894 -0.1995  0.2537  0.0747
   88SLPC  H11X 8569   7.067   2.228   4.925 -0.0904  0.8093 -1.4037
   88SLPC  H11Y 8570   7.036   2.057   4.918  0.2773  0.6724  0.8905
   88SLPC  C312 8571   6.868   2.183   4.989 -0.2538  0.2568 -0.2689
   88SLPC  H12X 8572   6.796   2.098   4.990 -0.9228  0.8166  0.4569
   88SLPC  H12Y 8573   6.824   2.283   4.966  0.7804  0.7839 -0.0080
   88SLPC  C313 8574   6.931   2.205   5.129  0.8602 -0.0255 -0.0209
   88SLPC  H13X 8575   6.994   2.297   5.131  0.6458  0.1198  1.4006
   88SLPC  H13Y 8576   6.985   2.116   5.167 -0.9499 -0.8451  0.7392
   88SLPC  C314 8577   6.826   2.226   5.239  0.4592 -0.5148 -0.3496
   88SLPC  H14X 8578   6.743   2.153   5.226 -0.1456  0.5577 -3.4253
   88SLPC  H14Y 8579   6.780   2.324   5.214  1.6294  0.4343  1.0456
   88SLPC  C315 8580   6.873   2.240   5.382  0.4847 -0.1612 -0.2823
   88SLPC  H15X 8581   6.952   2.312   5.411 -0.5794  1.8304 -2.0368
   88SLPC  H15Y 8582   6.896   2.138   5.419 -0.6190 -0.6421 -0.8559
   88SLPC  C316 8583   6.748   2.290   5.467 -0.1051 -0.6870 -0.3117
   88SLPC  H16X 8584   6.653   2.247   5.427 -1.2790  0.8793  0.6396
   88SLPC  H16Y 8585   6.733   2.400   5.457  2.0175 -0.1275  1.7388
   88SLPC  C317 8586   6.765   2.239   5.607  0.0239  0.4650  0.2706
   88SLPC  H17X 8587   6.870   2.246   5.642 -0.5748 -0.6177  2.4595
   88SLPC  H17Y 8588   6.739   2.131   5.615 -0.3424  0.5043 -0.3217
   88SLPC  C318 8589   6.668   2.303   5.702  0.0224  0.5717 -0.1951
   88SLPC  H18X 8590   6.681   2.278   5.809 -0.6421 -0.5375 -0.3518
   88SLPC  H18Y 8591   6.567   2.278   5.665 -0.4269  2.6534 -0.4833
   88SLPC  H18Z 8592   6.683   2.411   5.680  3.5973  0.1036 -0.8004
   89SAPE     N 8593   3.920   2.835   7.546  0.3493 -0.3338  0.0815
   89SAPE   HN1 8594   3.996   2.851   7.477 -0.8427 -1.7243 -1.6727
   89SAPE   HN2 8595   3.927   2.737   7.581 -0.1768  0.5506  2.8892
   89SAPE   HN3 8596   3.830   2.853   7.496  0.7924  1.3061 -0.1884
   89SAPE   C12 8597   3.932   2.925   7.668  0.4591 -0.5469  0.5180
   89SAPE  H12A 8598   3.999   3.009   7.640 -0.7846  0.4152  0.3780
   89SAPE  H12B 8599   3.982   2.866   7.748  0.6349 -1.4287 -0.2257
   89SAPE   C11 8600   3.798   2.996   7.711  0.2552  0.9498  0.2016
   89SAPE  H11A 8601   3.770   3.081   7.646  0.7826  1.6432  0.8649
   89SAPE  H11B 8602   3.820   3.030   7.815 -0.6266 -1.1499  1.1360
   89SAPE     P 8603   3.557   2.922   7.755 -0.5319 -0.2756 -0.1189
   89SAPE   O13 8604   3.481   2.801   7.726 -0.5492  0.2912 -0.3952
   89SAPE   O14 8605   3.539   2.987   7.893 -0.4376 -0.6837  0.0627
   89SAPE   O12 8606   3.705   2.887   7.718  0.2198  0.1648  0.7651
   89SAPE   O11 8607   3.513   3.035   7.652  0.0272 -0.6190  0.5272
   89SAPE    C1 8608   3.393   3.020   7.567  0.1877  0.1588  1.2398
   89SAPE    HA 8609   3.326   2.938   7.601  0.7286 -1.0648 -0.4566
   89SAPE    HB 8610   3.333   3.113   7.559  0.5932  0.3347 -0.0172
   89SAPE    C2 8611   3.442   2.972   7.428 -1.0842  0.0367 -0.1519
   89SAPE    HS 8612   3.503   2.880   7.442  0.8584  1.2813 -0.0821
   89SAPE   O21 8613   3.520   3.081   7.370 -0.5422 -0.6022 -0.3154
   89SAPE   C21 8614   3.649   3.068   7.360 -0.1867 -0.2238 -0.3259
   89SAPE   O22 8615   3.714   2.977   7.404  0.1401  0.2817  0.2265
   89SAPE   C22 8616   3.705   3.192   7.288 -0.1285 -0.0728  0.4678
   89SAPE   H2R 8617   3.693   3.158   7.183  0.2626 -2.1605  1.0533
   89SAPE   H2S 8618   3.631   3.273   7.305  0.6264  1.2361 -2.0292
   89SAPE    C3 8619   3.322   2.938   7.336  0.1044  0.1335  0.8895
   89SAPE    HX 8620   3.249   3.019   7.358  2.6161  2.5240  0.8839
   89SAPE    HY 8621   3.282   2.839   7.367 -0.2782  0.1559  0.4815
   89SAPE   O31 8622   3.356   2.929   7.199 -0.4852  0.1148 -0.1885
   89SAPE   C31 8623   3.262   2.867   7.121 -0.3496 -0.0137 -0.2810
   89SAPE   O32 8624   3.151   2.835   7.162  0.1083  0.6084  0.3546
   89SAPE   C32 8625   3.323   2.824   6.985  0.1160  0.1571  0.7761
   89SAPE   H2X 8626   3.365   2.724   7.008  1.4965  0.7360  0.8836
   89SAPE   H2Y 8627   3.411   2.891   6.970 -0.7334  1.9458  3.1816
   89SAPE   C23 8628   3.840   3.229   7.339  0.2539  0.5898 -0.0223
   89SAPE   H3R 8629   3.911   3.144   7.335  0.9776  1.0888  1.5641
   89SAPE   H3S 8630   3.846   3.254   7.447 -0.6240 -0.1740  0.2126
   89SAPE   C24 8631   3.897   3.345   7.253 -0.1387  0.3857 -0.0485
   89SAPE   H4R 8632   3.997   3.370   7.297  1.3515 -1.3667 -2.2375
   89SAPE   H4S 8633   3.833   3.433   7.277 -1.8384 -0.8355  0.0003
   89SAPE   C25 8634   3.899   3.321   7.107 -0.0136 -0.2561  0.1087
   89SAPE   H5R 8635   3.993   3.281   7.069  0.5305  1.0378  0.0534
   89SAPE   C26 8636   3.807   3.363   7.017  0.1548  0.4056  0.1639
   89SAPE   H6R 8637   3.828   3.334   6.913 -0.4984  1.4065 -0.2632
   89SAPE   C27 8638   3.689   3.452   7.035  0.4472 -0.6646 -0.0536
   89SAPE   H7R 8639   3.677   3.476   7.143  0.7876  3.3478 -0.7540
   89SAPE   H7S 8640   3.600   3.406   6.988 -0.5515  1.8865 -0.8278
   89SAPE   C28 8641   3.708   3.592   6.977  0.1021  0.3131 -0.1248
   89SAPE   H8R 8642   3.752   3.662   7.049 -1.4814  1.1059  0.1210
   89SAPE   C29 8643   3.697   3.629   6.846  0.4685  0.5344  0.2867
   89SAPE   H9R 8644   3.723   3.733   6.825 -1.4283  1.1518  0.7830
   89SAPE  C210 8645   3.661   3.543   6.723  0.5546  0.1219  0.0215
   89SAPE  H10R 8646   3.588   3.464   6.752 -1.5184  1.8536 -0.2112
   89SAPE  H10S 8647   3.756   3.500   6.683  1.3878  2.2758 -0.4308
   89SAPE  C211 8648   3.591   3.630   6.624  0.5045  0.7672 -0.6722
   89SAPE  H11R 8649   3.519   3.704   6.663  0.5474  0.4976 -0.0635
   89SAPE  C212 8650   3.597   3.630   6.491  0.1563 -0.2771 -0.6134
   89SAPE  H12R 8651   3.531   3.698   6.435  0.1145 -0.3154 -0.6111
   89SAPE  C213 8652   3.673   3.532   6.403 -0.0547  0.1990 -0.2621
   89SAPE  H13R 8653   3.710   3.450   6.468  0.8683 -0.6595 -1.8123
   89SAPE  H13S 8654   3.762   3.584   6.361  0.7293  0.7563  1.9308
   89SAPE  C214 8655   3.582   3.460   6.302  0.2705 -0.4499 -0.0508
   89SAPE  H14R 8656   3.504   3.393   6.340 -0.8284  0.4040 -0.7564
   89SAPE  C215 8657   3.582   3.483   6.168 -0.8572  0.0624 -0.6954
   89SAPE  H15R 8658   3.523   3.410   6.110 -0.8366 -2.4290  2.1303
   89SAPE  C216 8659   3.681   3.568   6.097  0.1321 -0.2753  0.4964
   89SAPE  H16R 8660   3.764   3.611   6.156  1.3084  0.7632 -1.7751
   89SAPE  H16S 8661   3.633   3.654   6.045  0.4236  0.7019  1.7816
   89SAPE  C217 8662   3.747   3.481   5.988  0.1321  0.5189 -0.5907
   89SAPE  H17R 8663   3.810   3.548   5.926  3.5571 -1.9947 -0.1555
   89SAPE  H17S 8664   3.664   3.440   5.926 -0.8987  0.4727  0.7629
   89SAPE  C218 8665   3.845   3.385   6.051 -0.1038 -0.1696  0.0719
   89SAPE  H18R 8666   3.792   3.302   6.101  1.7245 -1.3953  0.0655
   89SAPE  H18S 8667   3.909   3.444   6.119 -0.2268  1.1639 -0.9150
   89SAPE  C219 8668   3.930   3.311   5.947 -0.2344  0.7037 -0.3152
   89SAPE  H19R 8669   3.995   3.235   5.997 -0.2085 -1.2626 -3.0959
   89SAPE  H19S 8670   3.998   3.383   5.896  1.0347  0.1025  0.4640
   89SAPE  C220 8671   3.852   3.234   5.840  0.2685 -0.2954  0.0182
   89SAPE  H20R 8672   3.805   3.297   5.761  0.8854 -0.8623 -0.8150
   89SAPE  H20S 8673   3.787   3.163   5.893  2.3325 -1.1785  1.4861
   89SAPE  H20T 8674   3.923   3.169   5.785  0.8381  0.3917 -0.0738
   89SAPE   C33 8675   3.230   2.824   6.867  0.8048 -0.3033  0.1775
   89SAPE   H3X 8676   3.184   2.924   6.861 -1.8405 -1.4387  0.4111
   89SAPE   H3Y 8677   3.142   2.757   6.874  0.2993  0.5283  2.6259
   89SAPE   C34 8678   3.308   2.791   6.734 -0.3699 -0.6973 -0.1659
   89SAPE   H4X 8679   3.358   2.694   6.755  0.7626  0.1668  1.3294
   89SAPE   H4Y 8680   3.383   2.867   6.702 -2.4086  1.2745 -0.4655
   89SAPE   C35 8681   3.222   2.765   6.618  0.1273  0.1540 -0.0861
   89SAPE   H5X 8682   3.153   2.678   6.631  1.6018 -0.9977  0.3036
   89SAPE   H5Y 8683   3.273   2.735   6.523 -0.2902  2.6888 -1.1793
   89SAPE   C36 8684   3.150   2.893   6.567  0.2602  0.6518  0.5930
   89SAPE   H6X 8685   3.222   2.971   6.535 -0.0293  0.4479 -0.5984
   89SAPE   H6Y 8686   3.080   2.929   6.647  0.7969  0.7322  1.0332
   89SAPE   C37 8687   3.053   2.865   6.445 -0.1447  0.3015 -0.0533
   89SAPE   H7X 8688   2.959   2.921   6.464  1.4649  3.1982 -0.1882
   89SAPE   H7Y 8689   3.032   2.756   6.454  2.4076 -0.2003  0.6018
   89SAPE   C38 8690   3.106   2.890   6.301  0.1037  0.7052 -0.3389
   89SAPE   H8X 8691   3.178   2.805   6.295 -1.6962 -1.0486  1.0317
   89SAPE   H8Y 8692   3.146   2.992   6.289  2.2007 -0.0824 -0.4079
   89SAPE   C39 8693   2.998   2.848   6.198 -0.2605  0.2337  0.5090
   89SAPE   H9X 8694   2.904   2.906   6.215 -0.9715 -0.9512  0.7301
   89SAPE   H9Y 8695   2.990   2.738   6.202 -0.6712  0.1925 -1.0171
   89SAPE  C310 8696   3.027   2.886   6.053  0.5602  0.0405  0.5799
   89SAPE  H10X 8697   3.125   2.838   6.034 -1.1163 -2.7329 -1.8883
   89SAPE  H10Y 8698   3.042   2.994   6.031 -0.6344  0.1881  0.4058
   89SAPE  C311 8699   2.923   2.834   5.947  0.0509 -0.5027 -0.1443
   89SAPE  H11X 8700   2.827   2.888   5.937  1.1655  1.3950 -1.3065
   89SAPE  H11Y 8701   2.905   2.727   5.970 -1.3359 -0.2250  0.1762
   89SAPE  C312 8702   2.987   2.832   5.806  0.3800 -0.2567  0.1545
   89SAPE  H12X 8703   2.967   2.734   5.757 -0.1623  0.1551 -0.4569
   89SAPE  H12Y 8704   3.097   2.838   5.815  0.5251 -0.8716 -0.9654
   89SAPE  C313 8705   2.936   2.942   5.703 -0.8824  0.2882 -0.1791
   89SAPE  H13X 8706   2.929   3.038   5.760  2.8086  1.4559 -1.3338
   89SAPE  H13Y 8707   2.838   2.918   5.657 -0.8086  1.7297 -1.1797
   89SAPE  C314 8708   3.044   2.968   5.596  0.7975 -0.4946 -0.0266
   89SAPE  H14X 8709   3.144   2.954   5.643  0.5064 -1.2173  0.4029
   89SAPE  H14Y 8710   3.028   3.065   5.544  0.1651 -0.8430 -0.4857
   89SAPE  C315 8711   3.038   2.865   5.480  0.6459  0.4973  0.2450
   89SAPE  H15X 8712   2.936   2.880   5.438 -0.0428  0.0230  1.6702
   89SAPE  H15Y 8713   3.042   2.757   5.508 -0.0241  0.7201  1.2608
   89SAPE  C316 8714   3.132   2.888   5.358  0.4180 -0.6820 -0.6256
   89SAPE  H16X 8715   3.148   2.796   5.299 -0.8310 -0.2241 -1.7372
   89SAPE  H16Y 8716   3.226   2.932   5.397 -0.0649 -0.4877  0.3478
   89SAPE  C317 8717   3.059   2.977   5.251 -0.3358 -0.5714  0.1806
   89SAPE  H17X 8718   3.010   3.059   5.307  0.0907  1.1754 -1.8674
   89SAPE  H17Y 8719   2.973   2.917   5.213  0.1698 -0.6270 -0.9408
   89SAPE  C318 8720   3.153   3.030   5.141  0.1065  0.4616 -0.0558
   89SAPE  H18X 8721   3.091   3.063   5.054 -2.2642 -5.5190 -1.1393
   89SAPE  H18Y 8722   3.209   2.942   5.102  0.8890  0.9881 -0.1449
   89SAPE  H18Z 8723   3.226   3.106   5.177 -0.5803  0.1391  2.1548
   90SAPE     N 8724   4.836   1.274   7.348 -0.3152  0.7590  0.1833
   90SAPE   HN1 8725   4.893   1.298   7.265 -0.8344  0.1264 -0.3654
   90SAPE   HN2 8726   4.888   1.190   7.381 -1.5222  0.5962  1.7677
   90SAPE   HN3 8727   4.740   1.242   7.324 -0.6767  3.3994 -2.5184
   90SAPE   C12 8728   4.833   1.390   7.441  0.2425  0.0775  0.1407
   90SAPE  H12A 8729   4.815   1.349   7.542 -1.4508  1.5306  0.4737
   90SAPE  H12B 8730   4.748   1.451   7.404 -1.8303 -2.8135 -0.2016
   90SAPE   C11 8731   4.970   1.461   7.442 -0.5194 -0.8465  0.4229
   90SAPE  H11A 8732   5.043   1.393   7.492  0.6679  0.4844  0.5974
   90SAPE  H11B 8733   4.956   1.555   7.500  2.0689  0.5812 -1.0754
   90SAPE     P 8734   5.166   1.539   7.272 -0.0125 -0.1524  0.2930
   90SAPE   O13 8735   5.256   1.498   7.383 -0.4346 -0.0650  0.0941
   90SAPE   O14 8736   5.195   1.481   7.136  0.3691  0.7922 -0.7848
   90SAPE   O12 8737   5.015   1.502   7.309  0.5016 -0.1483  0.0651
   90SAPE   O11 8738   5.168   1.695   7.266 -0.3761 -0.0160  0.7151
   90SAPE    C1 8739   5.046   1.775   7.295  1.0266 -0.6105  0.0785
   90SAPE    HA 8740   4.978   1.725   7.367 -0.3777 -1.9184 -2.0396
   90SAPE    HB 8741   5.069   1.869   7.351  2.6945 -1.1078  0.2771
   90SAPE    C2 8742   4.966   1.815   7.166 -0.2366  0.5843 -0.1555
   90SAPE    HS 8743   4.899   1.896   7.200  4.7722  4.0954  2.6730
   90SAPE   O21 8744   4.900   1.696   7.102  0.0810  0.2391  0.0928
   90SAPE   C21 8745   4.781   1.670   7.158  0.4825  0.0413  0.5039
   90SAPE   O22 8746   4.724   1.740   7.236  0.5984 -1.3472  0.2457
   90SAPE   C22 8747   4.737   1.538   7.119 -0.5703  0.2479  0.2078
   90SAPE   H2R 8748   4.822   1.468   7.130 -0.9660  0.0598  2.8419
   90SAPE   H2S 8749   4.655   1.504   7.186  0.4402 -0.1200  1.2925
   90SAPE    C3 8750   5.072   1.882   7.075 -0.7869 -0.0112  0.3098
   90SAPE    HX 8751   5.139   1.810   7.024 -0.1400  0.3626  0.6192
   90SAPE    HY 8752   5.140   1.931   7.148  0.5526 -3.5468  1.6480
   90SAPE   O31 8753   5.002   1.977   6.983  0.2418  0.0183  0.7786
   90SAPE   C31 8754   5.053   2.093   6.975  1.1760  0.5961 -0.3797
   90SAPE   O32 8755   5.146   2.136   7.037 -0.0313 -0.3306  0.6191
   90SAPE   C32 8756   4.958   2.180   6.886 -0.7481  1.1483  0.4116
   90SAPE   H2X 8757   4.870   2.219   6.942 -1.9779  0.9814 -1.3210
   90SAPE   H2Y 8758   4.931   2.117   6.798  1.0536  0.1911  0.5124
   90SAPE   C23 8759   4.686   1.526   6.972  0.3215  0.2219  0.2598
   90SAPE   H3R 8760   4.679   1.420   6.938  3.1966  0.5681 -1.7420
   90SAPE   H3S 8761   4.759   1.581   6.908  1.2786 -1.0400  0.2334
   90SAPE   C24 8762   4.548   1.591   6.942 -0.1624  0.0876 -0.9842
   90SAPE   H4R 8763   4.512   1.586   6.837 -1.3269 -1.7344 -0.5545
   90SAPE   H4S 8764   4.551   1.697   6.975  1.3702 -0.7302  1.7563
   90SAPE   C25 8765   4.448   1.522   7.028 -0.0684 -0.4354 -1.0872
   90SAPE   H5R 8766   4.444   1.556   7.133 -0.8385  0.3870 -1.3669
   90SAPE   C26 8767   4.371   1.422   6.985  0.2593  0.6802  0.5538
   90SAPE   H6R 8768   4.297   1.379   7.054  0.4367  0.3888  0.5650
   90SAPE   C27 8769   4.380   1.357   6.850 -0.0111  0.5689 -0.0704
   90SAPE   H7R 8770   4.356   1.251   6.871 -0.2563  0.5440 -0.4804
   90SAPE   H7S 8771   4.485   1.355   6.814  0.9962  1.6207  2.5173
   90SAPE   C28 8772   4.292   1.398   6.743 -0.7659 -0.8475  0.2833
   90SAPE   H8R 8773   4.187   1.394   6.774 -1.0063 -1.0777 -0.5252
   90SAPE   C29 8774   4.327   1.449   6.627  0.6328 -0.3632 -0.6378
   90SAPE   H9R 8775   4.244   1.474   6.559 -0.8195 -0.7947  0.8896
   90SAPE  C210 8776   4.464   1.467   6.569  0.3944  0.1321  0.6707
   90SAPE  H10R 8777   4.533   1.466   6.656  1.8551 -0.1274 -0.4700
   90SAPE  H10S 8778   4.480   1.565   6.519  0.4627 -0.6700 -0.9457
   90SAPE  C211 8779   4.504   1.345   6.489 -0.6679  0.3272  0.3238
   90SAPE  H11R 8780   4.553   1.262   6.542 -0.2858  0.9178  0.9157
   90SAPE  C212 8781   4.523   1.335   6.352  0.4943 -0.6446  0.1335
   90SAPE  H12R 8782   4.555   1.236   6.318  1.3581 -0.3010 -0.0674
   90SAPE  C213 8783   4.455   1.433   6.256  0.1781  0.3614  0.0454
   90SAPE  H13R 8784   4.406   1.517   6.309  2.5867  1.2343  1.0101
   90SAPE  H13S 8785   4.377   1.374   6.203  1.8434 -0.3814 -1.6792
   90SAPE  C214 8786   4.549   1.494   6.157  0.3390 -0.0694 -0.2917
   90SAPE  H14R 8787   4.657   1.492   6.178  0.1410 -2.1814  0.7636
   90SAPE  C215 8788   4.507   1.550   6.041 -0.0713 -0.4869  0.3637
   90SAPE  H15R 8789   4.588   1.600   5.986  0.9449 -2.5872 -0.1445
   90SAPE  C216 8790   4.369   1.563   5.978  0.1306  0.2483 -0.4630
   90SAPE  H16R 8791   4.292   1.528   6.050  0.1706 -1.4039 -1.1807
   90SAPE  H16S 8792   4.366   1.503   5.884 -1.8651  2.0801 -1.6603
   90SAPE  C217 8793   4.324   1.703   5.937  0.1396 -0.1237 -0.2680
   90SAPE  H17R 8794   4.317   1.774   6.023 -0.0724  0.3757 -0.6884
   90SAPE  H17S 8795   4.224   1.698   5.889 -0.1717  1.1455  0.1871
   90SAPE  C218 8796   4.422   1.769   5.825  0.7266  0.1017  0.2974
   90SAPE  H18R 8797   4.504   1.817   5.883  0.4735 -0.8625  1.4988
   90SAPE  H18S 8798   4.362   1.841   5.765 -0.2441 -0.5800  0.4335
   90SAPE  C219 8799   4.477   1.680   5.707  0.2365  0.2132 -0.0034
   90SAPE  H19R 8800   4.388   1.646   5.651 -0.4095  1.8655 -0.0061
   90SAPE  H19S 8801   4.531   1.590   5.744  0.2625  0.7632  1.3536
   90SAPE  C220 8802   4.554   1.763   5.600 -0.2368  0.0538  0.8571
   90SAPE  H20R 8803   4.565   1.697   5.512  1.2307  1.0116  0.2909
   90SAPE  H20S 8804   4.651   1.782   5.650 -0.3219  0.8053  0.7379
   90SAPE  H20T 8805   4.510   1.861   5.575  1.4504  0.3157 -1.3150
   90SAPE   C33 8806   5.046   2.294   6.828 -0.3332 -0.2073 -0.6975
   90SAPE   H3X 8807   5.149   2.254   6.817 -0.2820 -0.9745  1.9054
   90SAPE   H3Y 8808   5.048   2.380   6.898 -0.0468  0.1869 -1.1823
   90SAPE   C34 8809   4.991   2.360   6.694 -0.9740  0.0274 -0.6351
   90SAPE   H4X 8810   4.892   2.410   6.704  0.7446  4.0877 -1.8617
   90SAPE   H4Y 8811   4.983   2.273   6.626  2.5529 -0.7625 -0.2356
   90SAPE   C35 8812   5.093   2.461   6.643  0.2882  0.5084 -0.5269
   90SAPE   H5X 8813   5.192   2.412   6.640 -0.3289 -0.7697 -1.3980
   90SAPE   H5Y 8814   5.095   2.546   6.714 -0.8514  0.1515 -0.0474
   90SAPE   C36 8815   5.061   2.507   6.504  0.2447  0.0963 -0.1054
   90SAPE   H6X 8816   5.118   2.601   6.492  0.7599 -0.4571 -2.6248
   90SAPE   H6Y 8817   4.952   2.526   6.497  0.4420  1.1278 -0.4360
   90SAPE   C37 8818   5.099   2.399   6.400 -0.2627 -1.3962  0.3927
   90SAPE   H7X 8819   5.047   2.301   6.408 -3.4408  0.2710  2.3880
   90SAPE   H7Y 8820   5.209   2.387   6.413  0.2467  1.0134 -1.0779
   90SAPE   C38 8821   5.076   2.454   6.255  0.4259 -0.4818 -0.9302
   90SAPE   H8X 8822   5.165   2.436   6.192  1.7848 -0.4540  0.8854
   90SAPE   H8Y 8823   5.061   2.563   6.272  0.2019 -0.9313  2.5937
   90SAPE   C39 8824   4.960   2.398   6.176  0.6511 -0.0760 -0.1160
   90SAPE   H9X 8825   4.866   2.405   6.234  1.9791  0.6941  2.0632
   90SAPE   H9Y 8826   4.974   2.289   6.163 -2.1142 -0.2049 -3.3100
   90SAPE  C310 8827   4.947   2.460   6.040  0.3758 -0.2907  0.0337
   90SAPE  H10X 8828   5.020   2.426   5.964 -1.9395 -0.1465 -2.3970
   90SAPE  H10Y 8829   4.948   2.571   6.049 -2.1458 -0.2597  0.6868
   90SAPE  C311 8830   4.810   2.421   5.977 -0.5765 -0.1564  0.2351
   90SAPE  H11X 8831   4.740   2.474   6.044  0.3634 -0.2784  1.3519
   90SAPE  H11Y 8832   4.789   2.313   5.993 -1.2500  0.2586  2.3906
   90SAPE  C312 8833   4.790   2.475   5.837 -0.1645  0.1067  0.5349
   90SAPE  H12X 8834   4.865   2.433   5.766 -0.8646 -1.6843  0.8059
   90SAPE  H12Y 8835   4.805   2.583   5.815  3.1017 -0.7249 -2.2465
   90SAPE  C313 8836   4.650   2.434   5.772  0.0702  0.3643 -0.3072
   90SAPE  H13X 8837   4.575   2.461   5.849  1.2132 -0.6654  1.2159
   90SAPE  H13Y 8838   4.658   2.324   5.764  0.0057  0.2524  1.0210
   90SAPE  C314 8839   4.633   2.491   5.631  0.0716 -0.1654  0.3581
   90SAPE  H14X 8840   4.639   2.601   5.621 -2.3943  0.0177  0.2562
   90SAPE  H14Y 8841   4.530   2.470   5.594  0.2123  0.4008 -0.3884
   90SAPE  C315 8842   4.732   2.432   5.537  0.2215  0.2050 -0.4483
   90SAPE  H15X 8843   4.725   2.321   5.543 -0.2722  0.2354 -0.3773
   90SAPE  H15Y 8844   4.835   2.472   5.544  1.2489 -2.5361  1.7655
   90SAPE  C316 8845   4.680   2.471   5.395  0.0739  0.3179  0.6449
   90SAPE  H16X 8846   4.750   2.439   5.314 -0.2869 -1.5997  1.0384
   90SAPE  H16Y 8847   4.671   2.581   5.383 -0.4729  0.4743  2.3154
   90SAPE  C317 8848   4.545   2.416   5.338 -0.6310 -0.2989 -0.6197
   90SAPE  H17X 8849   4.535   2.428   5.228 -1.9882  1.2515 -0.3559
   90SAPE  H17Y 8850   4.467   2.469   5.396  2.2353  3.0599  0.5020
   90SAPE  C318 8851   4.536   2.267   5.362  0.3762  0.6268  0.0474
   90SAPE  H18X 8852   4.621   2.217   5.313 -0.6987 -1.7539  0.4690
   90SAPE  H18Y 8853   4.450   2.222   5.309  0.3681  0.4717  0.1902
   90SAPE  H18Z 8854   4.537   2.240   5.470 -2.7327 -0.9817 -0.2215
   91SAPE     N 8855   4.689   4.399   7.610 -0.2308  0.0644  0.6671
   91SAPE   HN1 8856   4.677   4.464   7.530  0.1454 -0.3701  0.2569
   91SAPE   HN2 8857   4.739   4.312   7.584  0.7265  0.2388  1.7890
   91SAPE   HN3 8858   4.596   4.376   7.652 -0.8693 -0.3000 -0.8900
   91SAPE   C12 8859   4.767   4.469   7.711  0.1321 -1.0534 -0.1923
   91SAPE  H12A 8860   4.870   4.488   7.673  0.3865 -1.3068  0.3373
   91SAPE  H12B 8861   4.780   4.412   7.806 -3.6986  0.8469  1.6766
   91SAPE   C11 8862   4.705   4.603   7.751  0.2926 -0.5972  0.4930
   91SAPE  H11A 8863   4.780   4.645   7.821 -0.3994  0.4161  0.6577
   91SAPE  H11B 8864   4.615   4.602   7.816  0.5283  1.1641  0.9227
   91SAPE     P 8865   4.746   4.838   7.637  0.1720 -0.2272 -0.0538
   91SAPE   O13 8866   4.716   4.903   7.769 -0.2839  0.2031  0.1659
   91SAPE   O14 8867   4.890   4.844   7.604 -0.1849  0.9449 -0.4782
   91SAPE   O12 8868   4.682   4.694   7.643  0.0072 -0.3741  0.3991
   91SAPE   O11 8869   4.655   4.907   7.525  0.1793  0.1751  0.5159
   91SAPE    C1 8870   4.516   4.888   7.522 -0.8655 -0.3891 -0.5869
   91SAPE    HA 8871   4.465   4.911   7.619 -2.5031 -3.0265 -0.7257
   91SAPE    HB 8872   4.469   4.962   7.454 -0.7377  0.4912  0.2607
   91SAPE    C2 8873   4.470   4.755   7.464 -0.0761 -0.7256 -0.3579
   91SAPE    HS 8874   4.504   4.671   7.529 -1.5687 -2.7825 -2.0916
   91SAPE   O21 8875   4.519   4.745   7.326 -0.7128  0.0352 -0.0753
   91SAPE   C21 8876   4.602   4.633   7.308 -0.2395  0.0654  0.6413
   91SAPE   O22 8877   4.628   4.549   7.393 -0.0805 -0.9034  0.3123
   91SAPE   C22 8878   4.665   4.628   7.171 -0.2428 -0.6156  0.4102
   91SAPE   H2R 8879   4.647   4.727   7.124 -3.2658 -0.9032  0.8232
   91SAPE   H2S 8880   4.773   4.612   7.193 -0.1495  0.1399  0.5416
   91SAPE    C3 8881   4.317   4.744   7.463  0.8564  0.2528 -0.4201
   91SAPE    HX 8882   4.278   4.746   7.566  2.8028 -1.6766  0.4358
   91SAPE    HY 8883   4.292   4.639   7.439 -0.0840  0.1261  1.0212
   91SAPE   O31 8884   4.244   4.835   7.378 -0.0412 -0.0366 -0.1069
   91SAPE   C31 8885   4.204   4.786   7.261  0.2361 -0.5897  0.3735
   91SAPE   O32 8886   4.250   4.689   7.205  0.8660  0.1852 -0.8496
   91SAPE   C32 8887   4.104   4.883   7.188 -0.2876 -0.3587  0.3882
   91SAPE   H2X 8888   4.158   4.978   7.170  0.0764 -0.9963 -2.2224
   91SAPE   H2Y 8889   4.022   4.925   7.250  0.0281  0.1017  0.5010
   91SAPE   C23 8890   4.622   4.508   7.078 -0.4807 -0.8633 -0.5889
   91SAPE   H3R 8891   4.512   4.510   7.061 -0.3150 -1.0432 -1.7537
   91SAPE   H3S 8892   4.642   4.414   7.135 -2.8722 -0.9298  0.2672
   91SAPE   C24 8893   4.693   4.514   6.952 -0.2625 -0.0997  0.0859
   91SAPE   H4R 8894   4.694   4.411   6.909 -1.3249 -0.5272  1.0450
   91SAPE   H4S 8895   4.803   4.524   6.966 -0.1890 -1.4186  0.5929
   91SAPE   C25 8896   4.643   4.620   6.857 -0.7206 -0.2071  0.1405
   91SAPE   H5R 8897   4.617   4.722   6.887  0.2941  0.2993 -0.6409
   91SAPE   C26 8898   4.622   4.600   6.727  0.3380 -0.4278 -0.1813
   91SAPE   H6R 8899   4.587   4.683   6.663 -0.8799 -1.6471 -1.1512
   91SAPE   C27 8900   4.658   4.472   6.650 -0.1854  0.5374 -0.3527
   91SAPE   H7R 8901   4.626   4.381   6.704  1.6550 -0.4059 -0.7860
   91SAPE   H7S 8902   4.769   4.474   6.650 -0.1723  2.0460  0.9370
   91SAPE   C28 8903   4.621   4.458   6.503  0.1887 -0.2600 -0.2001
   91SAPE   H8R 8904   4.551   4.375   6.483  1.5842 -1.2050 -1.3464
   91SAPE   C29 8905   4.654   4.535   6.395 -0.3421  0.2484  0.3591
   91SAPE   H9R 8906   4.598   4.513   6.303 -0.3357 -0.1444  0.4459
   91SAPE  C210 8907   4.735   4.662   6.416 -0.7849  0.3141 -0.5141
   91SAPE  H10R 8908   4.843   4.654   6.388 -0.4703 -0.1511  0.7458
   91SAPE  H10S 8909   4.753   4.696   6.520  0.2713 -0.6812 -0.3384
   91SAPE  C211 8910   4.666   4.768   6.339  0.4532  0.1149  0.5702
   91SAPE  H11R 8911   4.610   4.845   6.395 -1.5301 -0.9423  0.1604
   91SAPE  C212 8912   4.666   4.792   6.206 -0.0947  0.3286  0.0562
   91SAPE  H12R 8913   4.592   4.868   6.177  0.4258  0.8784  0.1309
   91SAPE  C213 8914   4.725   4.701   6.106  0.3948 -0.1226  0.4742
   91SAPE  H13R 8915   4.806   4.641   6.153  0.1751  0.0431  1.0766
   91SAPE  H13S 8916   4.780   4.763   6.032  1.2594  1.4237  2.3483
   91SAPE  C214 8917   4.627   4.599   6.045 -0.9045 -0.4705  0.7620
   91SAPE  H14R 8918   4.523   4.633   6.058 -1.0083 -1.2125  2.1551
   91SAPE  C215 8919   4.652   4.476   5.991  0.0211 -0.8804  0.6238
   91SAPE  H15R 8920   4.572   4.433   5.930 -0.3944 -1.9879  1.8972
   91SAPE  C216 8921   4.779   4.404   5.964  0.0573 -0.6484 -0.3757
   91SAPE  H16R 8922   4.765   4.295   5.985 -1.5705 -0.6477 -1.3020
   91SAPE  H16S 8923   4.857   4.436   6.036  0.6828  2.5661 -2.2793
   91SAPE  C217 8924   4.833   4.409   5.821 -0.6560  0.0988 -0.7025
   91SAPE  H17R 8925   4.934   4.363   5.821 -0.3991  0.6512 -0.1718
   91SAPE  H17S 8926   4.841   4.518   5.800  0.6560  0.0588 -0.5213
   91SAPE  C218 8927   4.746   4.337   5.711 -0.4682 -0.1409 -0.2100
   91SAPE  H18R 8928   4.643   4.377   5.716 -0.3573  0.0387  3.9822
   91SAPE  H18S 8929   4.734   4.237   5.759 -0.2868  1.1663  2.7898
   91SAPE  C219 8930   4.799   4.345   5.566 -0.4285 -0.0723  0.2038
   91SAPE  H19R 8931   4.904   4.310   5.575 -0.0608  1.3134  1.7211
   91SAPE  H19S 8932   4.808   4.449   5.529  0.3481  0.1000  0.8623
   91SAPE  C220 8933   4.716   4.262   5.468 -0.3382  0.3279  0.2116
   91SAPE  H20R 8934   4.725   4.157   5.502 -0.8830 -0.3951 -1.7281
   91SAPE  H20S 8935   4.763   4.270   5.367  2.0526 -1.6656  1.0831
   91SAPE  H20T 8936   4.607   4.281   5.474 -0.3763 -0.0915  0.9928
   91SAPE   C33 8937   4.059   4.848   7.039  0.1233 -0.1947 -0.0531
   91SAPE   H3X 8938   3.990   4.761   7.038 -0.4392  0.2406  0.1395
   91SAPE   H3Y 8939   4.156   4.834   6.986 -1.1421  0.8611 -2.8820
   91SAPE   C34 8940   4.002   4.968   6.953  0.2224  0.6063  0.1168
   91SAPE   H4X 8941   4.052   5.065   6.978 -0.3283  0.6627  1.0741
   91SAPE   H4Y 8942   3.895   4.985   6.977  0.0159  0.5223 -0.7097
   91SAPE   C35 8943   4.036   4.965   6.806  0.0148  0.3342 -0.1746
   91SAPE   H5X 8944   3.986   4.875   6.765  0.3405  0.9457 -1.9958
   91SAPE   H5Y 8945   4.146   4.956   6.792  0.3220  1.9322  0.9266
   91SAPE   C36 8946   3.969   5.065   6.707 -0.2238 -0.0247 -0.5134
   91SAPE   H6X 8947   4.019   5.164   6.713 -1.7950  0.7113  1.9701
   91SAPE   H6Y 8948   3.864   5.066   6.742 -0.5417 -2.0180 -1.2814
   91SAPE   C37 8949   3.988   5.009   6.573  0.3609 -0.0448  0.8928
   91SAPE   H7X 8950   3.948   4.906   6.566 -0.0803  0.2238 -2.7889
   91SAPE   H7Y 8951   4.091   4.993   6.533  0.4123 -0.1612  1.0737
   91SAPE   C38 8952   3.911   5.087   6.471  0.9483 -0.4730 -0.4084
   91SAPE   H8X 8953   3.966   5.183   6.476 -0.8266  0.6884 -2.1561
   91SAPE   H8Y 8954   3.806   5.107   6.500  0.9705  2.4001 -1.9706
   91SAPE   C39 8955   3.923   5.037   6.322 -0.3458 -0.2043 -1.0211
   91SAPE   H9X 8956   3.837   4.967   6.310 -0.5719  0.0294 -0.7814
   91SAPE   H9Y 8957   4.015   4.988   6.285 -0.5667 -0.3084 -1.4420
   91SAPE  C310 8958   3.911   5.156   6.228  0.1479  0.3552  0.2260
   91SAPE  H10X 8959   3.986   5.238   6.232  2.0008 -1.3017  2.1156
   91SAPE  H10Y 8960   3.810   5.190   6.260 -1.1073 -2.0661 -0.8638
   91SAPE  C311 8961   3.885   5.114   6.078 -0.0501 -0.1982 -0.7277
   91SAPE  H11X 8962   3.791   5.055   6.089 -0.4213  0.8026  2.6495
   91SAPE  H11Y 8963   3.965   5.059   6.025  0.6731  1.1375 -1.0527
   91SAPE  C312 8964   3.845   5.238   5.998 -1.1911 -0.2362  0.1583
   91SAPE  H12X 8965   3.785   5.306   6.062 -0.5706  0.5236 -0.0494
   91SAPE  H12Y 8966   3.773   5.217   5.916 -3.3542 -0.0537  1.9546
   91SAPE  C313 8967   3.970   5.310   5.934 -0.4715 -0.3831 -0.1477
   91SAPE  H13X 8968   4.043   5.238   5.893 -0.3619  0.5165 -1.6020
   91SAPE  H13Y 8969   4.014   5.369   6.017 -0.4234  0.4808 -0.7606
   91SAPE  C314 8970   3.933   5.418   5.828  0.5066  0.9886  0.2716
   91SAPE  H14X 8971   4.008   5.500   5.821 -0.2933  1.6499 -0.7596
   91SAPE  H14Y 8972   3.836   5.465   5.854  0.4565  0.6631  0.6724
   91SAPE  C315 8973   3.939   5.364   5.685 -0.6138 -0.4541  0.8670
   91SAPE  H15X 8974   3.864   5.283   5.672  1.0494 -1.6027 -3.2768
   91SAPE  H15Y 8975   4.040   5.321   5.668  0.0934  2.0138 -2.0651
   91SAPE  C316 8976   3.918   5.480   5.586  0.1329 -0.9244  0.0878
   91SAPE  H16X 8977   4.003   5.550   5.603 -0.4595  0.1955 -1.4035
   91SAPE  H16Y 8978   3.822   5.534   5.596  0.8818  1.0448 -2.2815
   91SAPE  C317 8979   3.930   5.422   5.450  0.4411  0.5626  0.2923
   91SAPE  H17X 8980   4.036   5.392   5.434  0.4754  0.5922  0.4746
   91SAPE  H17Y 8981   3.905   5.498   5.372 -2.2462 -0.8140 -0.3180
   91SAPE  C318 8982   3.843   5.302   5.407  0.3197  0.1366 -0.2460
   91SAPE  H18X 8983   3.737   5.333   5.410 -0.3021 -1.9022  1.5493
   91SAPE  H18Y 8984   3.862   5.218   5.477 -1.5680  0.7765  1.0939
   91SAPE  H18Z 8985   3.849   5.274   5.299 -1.3522  2.2038 -0.9486
   92SAPE     N 8986   3.124   3.557   7.802  0.0605 -0.4925 -0.5344
   92SAPE   HN1 8987   3.111   3.466   7.753  1.6321 -0.9364 -0.1859
   92SAPE   HN2 8988   3.211   3.561   7.859  0.9747  0.3608 -1.9240
   92SAPE   HN3 8989   3.045   3.568   7.868  0.8351  1.9446  0.0935
   92SAPE   C12 8990   3.118   3.659   7.699 -0.7158  0.7967  0.8157
   92SAPE  H12A 8991   3.192   3.639   7.618 -2.7369 -1.8293 -0.5262
   92SAPE  H12B 8992   3.131   3.766   7.725 -1.0560  1.6007 -1.9335
   92SAPE   C11 8993   2.984   3.654   7.630 -0.0807 -0.3608 -0.4051
   92SAPE  H11A 8994   2.967   3.558   7.576 -0.7957 -0.1435 -0.5734
   92SAPE  H11B 8995   2.981   3.731   7.550  0.0926 -1.6421 -1.6890
   92SAPE     P 8996   2.762   3.766   7.707 -0.2031 -0.1098 -0.0195
   92SAPE   O13 8997   2.657   3.727   7.804  0.0020 -0.1416  0.8321
   92SAPE   O14 8998   2.808   3.906   7.705  0.9651 -0.6308 -0.9374
   92SAPE   O12 8999   2.882   3.665   7.728  0.1617  0.1016 -0.1371
   92SAPE   O11 9000   2.719   3.731   7.563  0.0002  0.1543 -0.7783
   92SAPE    C1 9001   2.597   3.760   7.509  0.6640  0.5517 -0.1063
   92SAPE    HA 9002   2.516   3.714   7.570  0.4598  0.7376 -0.2354
   92SAPE    HB 9003   2.577   3.869   7.516 -0.7619  0.2646  0.7557
   92SAPE    C2 9004   2.589   3.714   7.366 -0.1869 -0.7021  1.0787
   92SAPE    HS 9005   2.606   3.604   7.370  0.5352 -0.6103  0.7412
   92SAPE   O21 9006   2.688   3.782   7.283  0.2545  0.7797  0.0040
   92SAPE   C21 9007   2.804   3.736   7.272 -0.4949 -0.5238 -0.1617
   92SAPE   O22 9008   2.850   3.629   7.314 -0.4662  0.3053 -0.1568
   92SAPE   C22 9009   2.893   3.831   7.195 -1.0210 -0.0612  0.2817
   92SAPE   H2R 9010   2.895   3.937   7.229  2.9585  0.1458 -0.0927
   92SAPE   H2S 9011   2.994   3.793   7.221 -0.0769  1.9014 -0.2881
   92SAPE    C3 9012   2.442   3.733   7.305  0.2042  0.2961 -0.0506
   92SAPE    HX 9013   2.423   3.843   7.306 -1.1001  0.0869  1.0664
   92SAPE    HY 9014   2.377   3.686   7.381  1.2947 -0.8246  0.2250
   92SAPE   O31 9015   2.435   3.681   7.169  0.2503 -0.5308  0.1534
   92SAPE   C31 9016   2.374   3.568   7.147 -0.4017 -1.1406 -0.3113
   92SAPE   O32 9017   2.312   3.505   7.228  0.5138  0.0805  0.1922
   92SAPE   C32 9018   2.404   3.520   7.005  0.1511 -0.1540 -0.6686
   92SAPE   H2X 9019   2.306   3.534   6.954 -0.5545  2.5195  1.1812
   92SAPE   H2Y 9020   2.441   3.416   7.011  0.6671  0.0844  0.5128
   92SAPE   C23 9021   2.876   3.820   7.047 -0.2110  0.2244 -0.2107
   92SAPE   H3R 9022   2.774   3.852   7.017 -1.3061 -1.5861  1.3400
   92SAPE   H3S 9023   2.879   3.718   7.004  3.1712  0.5720 -1.1297
   92SAPE   C24 9024   2.966   3.907   6.962 -0.7296  0.4110  0.5545
   92SAPE   H4R 9025   3.074   3.887   6.978  0.1848  1.0070 -3.5962
   92SAPE   H4S 9026   2.942   4.010   6.995 -1.2361  0.2508  0.6984
   92SAPE   C25 9027   2.945   3.884   6.810 -0.3047 -0.0877 -0.3797
   92SAPE   H5R 9028   2.958   3.776   6.790  0.3203 -0.3880  1.4895
   92SAPE   C26 9029   2.879   3.948   6.718  0.0266 -0.4758  0.3599
   92SAPE   H6R 9030   2.867   3.901   6.619  1.8171 -2.1078  0.8604
   92SAPE   C27 9031   2.833   4.094   6.718 -0.8037 -0.4133 -0.0107
   92SAPE   H7R 9032   2.907   4.144   6.652 -1.0758  0.8977  0.6444
   92SAPE   H7S 9033   2.838   4.143   6.817 -0.7711  1.4711 -0.9023
   92SAPE   C28 9034   2.699   4.105   6.665 -0.0627  0.3040 -0.0923
   92SAPE   H8R 9035   2.615   4.087   6.733 -1.5138  1.5312 -1.4746
   92SAPE   C29 9036   2.660   4.155   6.547 -0.6568 -0.6462 -0.2665
   92SAPE   H9R 9037   2.553   4.153   6.525 -1.0002 -0.3104  1.2155
   92SAPE  C210 9038   2.753   4.208   6.447  0.2685 -0.4390 -1.0994
   92SAPE  H10R 9039   2.784   4.117   6.391  4.2828 -1.0030  1.6028
   92SAPE  H10S 9040   2.850   4.245   6.488  0.9287 -0.7541 -2.3095
   92SAPE  C211 9041   2.705   4.313   6.353  0.0335 -0.3440  1.0423
   92SAPE  H11R 9042   2.644   4.392   6.401  0.3560 -0.4898  1.6949
   92SAPE  C212 9043   2.701   4.324   6.219  0.9932 -0.1687 -0.5291
   92SAPE  H12R 9044   2.663   4.416   6.174  0.0745  0.1630  0.8471
   92SAPE  C213 9045   2.758   4.229   6.124 -0.0256  0.1980  0.4663
   92SAPE  H13R 9046   2.700   4.134   6.131  0.7191 -0.2178  1.2080
   92SAPE  H13S 9047   2.863   4.208   6.154 -0.2874  0.0650  1.3122
   92SAPE  C214 9048   2.741   4.274   5.978 -0.8105 -0.4886 -0.2652
   92SAPE  H14R 9049   2.643   4.322   5.968  0.1085  2.4278  2.7816
   92SAPE  C215 9050   2.824   4.257   5.874 -0.8342  0.0682 -0.0008
   92SAPE  H15R 9051   2.776   4.285   5.779 -0.0313  3.5167  0.4722
   92SAPE  C216 9052   2.952   4.180   5.864  0.3699  0.8003  0.0324
   92SAPE  H16R 9053   2.986   4.146   5.964 -1.9263  0.8513  0.8841
   92SAPE  H16S 9054   3.029   4.234   5.804  0.5873  1.1604  0.6341
   92SAPE  C217 9055   2.920   4.045   5.782  0.5331  0.0990 -0.2372
   92SAPE  H17R 9056   2.848   4.064   5.700  0.6137  0.1372 -0.3005
   92SAPE  H17S 9057   2.857   3.978   5.844 -1.2060  1.4675 -0.4670
   92SAPE  C218 9058   3.052   3.969   5.741  0.6261 -0.1396  0.4906
   92SAPE  H18R 9059   3.038   3.859   5.752 -0.6318  0.1330  1.9060
   92SAPE  H18S 9060   3.132   3.986   5.816  0.9022  2.1632 -0.2462
   92SAPE  C219 9061   3.088   3.999   5.597 -0.1150 -0.5219 -0.0278
   92SAPE  H19R 9062   3.130   4.102   5.593  0.7730 -0.5933  3.8587
   92SAPE  H19S 9063   2.997   3.987   5.535 -0.6931 -1.6215  0.9963
   92SAPE  C220 9064   3.202   3.912   5.537  0.4514  0.4364 -0.2074
   92SAPE  H20R 9065   3.212   3.923   5.427 -0.8304  0.2119 -0.3624
   92SAPE  H20S 9066   3.181   3.804   5.554  0.4012  0.4039 -0.4648
   92SAPE  H20T 9067   3.293   3.924   5.600  0.8441 -1.5744 -0.3316
   92SAPE   C33 9068   2.519   3.591   6.924 -0.1835 -0.2819  0.2313
   92SAPE   H3X 9069   2.617   3.568   6.970  0.3861 -2.6429 -1.9344
   92SAPE   H3Y 9070   2.492   3.698   6.928  0.9387  0.2523 -3.1496
   92SAPE   C34 9071   2.519   3.565   6.771  0.0176  0.5075  0.3201
   92SAPE   H4X 9072   2.419   3.605   6.742 -0.2015 -0.4000 -0.2270
   92SAPE   H4Y 9073   2.524   3.455   6.758  2.5801  0.4437  1.2967
   92SAPE   C35 9074   2.626   3.636   6.684 -0.4268  0.1926 -0.5062
   92SAPE   H5X 9075   2.729   3.602   6.707 -0.0321 -0.6051 -3.1146
   92SAPE   H5Y 9076   2.620   3.744   6.712 -1.0450  0.5273 -1.8427
   92SAPE   C36 9077   2.596   3.620   6.533  0.3725 -0.0938  0.0142
   92SAPE   H6X 9078   2.488   3.640   6.522  0.8548  1.3628 -2.9187
   92SAPE   H6Y 9079   2.614   3.516   6.498 -0.0028 -0.0218 -0.3971
   92SAPE   C37 9080   2.669   3.722   6.447 -0.1212  0.1088  0.2795
   92SAPE   H7X 9081   2.779   3.717   6.461 -0.0219  0.9883 -0.1368
   92SAPE   H7Y 9082   2.641   3.825   6.480  3.3339  0.4304  2.8484
   92SAPE   C38 9083   2.658   3.711   6.291  0.5949 -0.3335 -0.2746
   92SAPE   H8X 9084   2.554   3.745   6.273  0.0617 -2.0210 -0.5333
   92SAPE   H8Y 9085   2.663   3.603   6.269 -2.7653 -0.7578  0.4781
   92SAPE   C39 9086   2.744   3.801   6.215 -0.6173 -0.7103  0.4199
   92SAPE   H9X 9087   2.852   3.779   6.233 -0.1438  0.7942 -0.3834
   92SAPE   H9Y 9088   2.717   3.904   6.247 -0.0189 -0.1160 -0.9117
   92SAPE  C310 9089   2.718   3.795   6.066  0.1827  0.4010  0.4410
   92SAPE  H10X 9090   2.781   3.876   6.023 -0.2735  1.3752  1.5430
   92SAPE  H10Y 9091   2.612   3.814   6.041  0.2486 -0.3052 -0.4215
   92SAPE  C311 9092   2.753   3.658   5.992  0.2129 -0.7350  0.7138
   92SAPE  H11X 9093   2.698   3.576   6.044 -0.4379 -0.2854  0.7581
   92SAPE  H11Y 9094   2.862   3.637   6.000 -0.0920 -2.4434  0.8488
   92SAPE  C312 9095   2.705   3.652   5.847 -0.4806 -0.5615 -0.0940
   92SAPE  H12X 9096   2.706   3.546   5.813 -2.2209 -0.3297 -0.9980
   92SAPE  H12Y 9097   2.776   3.703   5.779  0.0357 -1.7177 -0.4358
   92SAPE  C313 9098   2.568   3.718   5.801  0.2301 -0.2330  0.2816
   92SAPE  H13X 9099   2.584   3.826   5.824 -0.9938  0.0192  0.0274
   92SAPE  H13Y 9100   2.481   3.682   5.861  0.0092  1.2432  0.9067
   92SAPE  C314 9101   2.540   3.695   5.650  0.4769  0.3952 -0.5131
   92SAPE  H14X 9102   2.542   3.585   5.634  2.4250  0.2162  0.6375
   92SAPE  H14Y 9103   2.621   3.749   5.597 -0.0774  2.2558  0.4423
   92SAPE  C315 9104   2.398   3.751   5.614 -0.1320  0.1176 -0.7371
   92SAPE  H15X 9105   2.403   3.862   5.610 -1.9385  0.3236  1.1182
   92SAPE  H15Y 9106   2.321   3.728   5.691 -0.5522 -1.4826 -1.5888
   92SAPE  C316 9107   2.344   3.684   5.479  0.4563  0.0279 -0.1300
   92SAPE  H16X 9108   2.349   3.577   5.509 -2.1118  0.3620  1.8844
   92SAPE  H16Y 9109   2.401   3.704   5.386  1.3155 -0.7195  0.2201
   92SAPE  C317 9110   2.202   3.733   5.445  0.6423  0.1297 -0.0070
   92SAPE  H17X 9111   2.148   3.710   5.539 -0.0440 -0.4373 -0.5341
   92SAPE  H17Y 9112   2.144   3.675   5.370  1.0066  0.3672 -0.4785
   92SAPE  C318 9113   2.190   3.879   5.431  0.5828 -0.4845  0.4584
   92SAPE  H18X 9114   2.092   3.900   5.384  0.6984 -2.3386 -0.7293
   92SAPE  H18Y 9115   2.267   3.913   5.359  0.0168 -0.9882 -0.4040
   92SAPE  H18Z 9116   2.200   3.945   5.520  2.1687 -0.4343  0.2827
   93SAPE     N 9117   0.476   1.366   7.651 -0.7726 -0.2843  0.3895
   93SAPE   HN1 9118   0.380   1.326   7.651 -1.7815  1.9813  0.9241
   93SAPE   HN2 9119   0.450   1.464   7.630 -0.0791 -0.2942 -0.5499
   93SAPE   HN3 9120   0.539   1.322   7.581 -2.6728 -1.9715 -0.3848
   93SAPE   C12 9121   0.540   1.352   7.791  0.4794 -0.5980 -0.1335
   93SAPE  H12A 9122   0.564   1.244   7.803  1.0100 -0.2987  2.1319
   93SAPE  H12B 9123   0.466   1.387   7.866  0.0513  3.5366 -2.2168
   93SAPE   C11 9124   0.680   1.418   7.813 -0.5908  0.4857  1.0226
   93SAPE  H11A 9125   0.762   1.369   7.756 -0.8464  0.3336  0.7792
   93SAPE  H11B 9126   0.699   1.384   7.917 -0.3367  0.2492  0.9000
   93SAPE     P 9127   0.796   1.657   7.794 -0.2500 -0.0164 -0.1102
   93SAPE   O13 9128   0.741   1.790   7.781  0.1781 -0.5535  0.7250
   93SAPE   O14 9129   0.869   1.629   7.917  0.1621  1.0843 -0.5447
   93SAPE   O12 9130   0.672   1.558   7.797  0.3214 -0.5021  0.2556
   93SAPE   O11 9131   0.872   1.617   7.663  0.4087  0.2049  0.6101
   93SAPE    C1 9132   0.785   1.578   7.553 -0.1275  0.7054 -0.1728
   93SAPE    HA 9133   0.798   1.472   7.522 -0.3034  0.0742  1.7623
   93SAPE    HB 9134   0.679   1.607   7.564 -1.3893 -2.6367 -2.2718
   93SAPE    C2 9135   0.806   1.676   7.437  0.4531  0.4635  0.4462
   93SAPE    HS 9136   0.725   1.649   7.366  0.6640  0.2940  0.2702
   93SAPE   O21 9137   0.932   1.669   7.379 -0.2263 -0.6833  1.1658
   93SAPE   C21 9138   0.965   1.556   7.314 -0.8961 -0.6634 -0.1478
   93SAPE   O22 9139   0.885   1.476   7.272 -0.1426 -0.0969  0.0832
   93SAPE   C22 9140   1.113   1.560   7.274 -0.0636 -0.0417  0.1143
   93SAPE   H2R 9141   1.181   1.521   7.353 -0.2905  2.8209  1.8806
   93SAPE   H2S 9142   1.120   1.480   7.198 -0.6837 -2.3075  2.3169
   93SAPE    C3 9143   0.780   1.817   7.478  0.1665 -0.9911  0.0349
   93SAPE    HX 9144   0.847   1.855   7.559 -0.1691  1.3175 -0.6773
   93SAPE    HY 9145   0.677   1.818   7.519  0.1645  0.4545  0.0687
   93SAPE   O31 9146   0.777   1.915   7.369 -0.2558 -0.4184 -0.2609
   93SAPE   C31 9147   0.895   1.958   7.333 -0.7378  0.3317 -0.0424
   93SAPE   O32 9148   1.004   1.938   7.391 -0.7559 -0.2828 -0.3474
   93SAPE   C32 9149   0.870   2.035   7.204 -0.1133 -0.9378  0.1087
   93SAPE   H2X 9150   0.879   2.143   7.230 -1.5871 -0.5463 -0.8647
   93SAPE   H2Y 9151   0.765   2.016   7.174 -0.0614 -0.8920 -0.1084
   93SAPE   C23 9152   1.181   1.690   7.231 -0.8679  0.0632  0.1418
   93SAPE   H3R 9153   1.185   1.770   7.309  2.1455  0.0254  0.1492
   93SAPE   H3S 9154   1.133   1.724   7.137  1.8002  1.8983 -0.6814
   93SAPE   C24 9155   1.331   1.695   7.189  0.1006 -0.6706 -0.8879
   93SAPE   H4R 9156   1.380   1.669   7.285 -0.5037  3.1897  0.6539
   93SAPE   H4S 9157   1.359   1.802   7.181 -0.8225 -0.0709  2.5023
   93SAPE   C25 9158   1.376   1.600   7.090  0.3402  0.4975  0.4518
   93SAPE   H5R 9159   1.373   1.496   7.127  0.2765  0.5336  0.5474
   93SAPE   C26 9160   1.438   1.636   6.973 -0.0679 -0.4729  0.2338
   93SAPE   H6R 9161   1.447   1.559   6.896 -0.5199 -2.0094  1.6511
   93SAPE   C27 9162   1.467   1.773   6.922 -0.4660  0.3500  0.5435
   93SAPE   H7R 9163   1.575   1.788   6.901  0.4723 -3.4415  1.8951
   93SAPE   H7S 9164   1.458   1.862   6.988  0.4886  2.3614 -1.8787
   93SAPE   C28 9165   1.397   1.806   6.792  0.1689 -0.2064 -0.1993
   93SAPE   H8R 9166   1.296   1.843   6.815  1.4882  0.7305  5.3450
   93SAPE   C29 9167   1.447   1.804   6.667  0.2465 -0.2838  0.8292
   93SAPE   H9R 9168   1.388   1.854   6.589  0.5909  0.6215  1.1375
   93SAPE  C210 9169   1.576   1.746   6.625 -0.4959  0.4957 -0.1445
   93SAPE  H10R 9170   1.548   1.642   6.599 -0.9562  1.0464 -1.9957
   93SAPE  H10S 9171   1.658   1.735   6.699 -0.1348 -0.7362 -0.6954
   93SAPE  C211 9172   1.624   1.803   6.501 -0.0711  0.1682 -0.6180
   93SAPE  H11R 9173   1.631   1.912   6.510  1.8424  0.0877 -0.6201
   93SAPE  C212 9174   1.638   1.747   6.381  1.2509 -0.1945  0.5330
   93SAPE  H12R 9175   1.666   1.805   6.292 -0.9957 -0.3821 -0.3413
   93SAPE  C213 9176   1.626   1.596   6.342 -0.7429 -0.0542 -0.0800
   93SAPE  H13R 9177   1.618   1.536   6.435  0.7960 -1.6849 -0.9454
   93SAPE  H13S 9178   1.719   1.575   6.285 -0.9593 -1.7697  0.1442
   93SAPE  C214 9179   1.493   1.589   6.263  0.5925 -0.4066 -0.2501
   93SAPE  H14R 9180   1.401   1.614   6.317  1.1032 -1.1099  0.9882
   93SAPE  C215 9181   1.487   1.567   6.131 -0.0353 -0.2840 -0.7149
   93SAPE  H15R 9182   1.388   1.590   6.089 -0.6017  1.0645  1.2616
   93SAPE  C216 9183   1.608   1.539   6.042 -0.2062 -0.3383  0.0288
   93SAPE  H16R 9184   1.698   1.506   6.099  2.3769  3.8518 -1.2359
   93SAPE  H16S 9185   1.634   1.634   5.992  0.4701  0.2651  1.4637
   93SAPE  C217 9186   1.574   1.427   5.944 -0.4632 -0.0243 -0.0538
   93SAPE  H17R 9187   1.471   1.445   5.908 -1.6366 -1.5770  2.2546
   93SAPE  H17S 9188   1.567   1.337   6.009  0.7853 -0.6079 -0.6945
   93SAPE  C218 9189   1.673   1.408   5.832  0.6217  0.4583  0.0981
   93SAPE  H18R 9190   1.689   1.504   5.777 -2.0889  1.0597  0.1912
   93SAPE  H18S 9191   1.628   1.344   5.753 -0.0659 -0.9520  1.5921
   93SAPE  C219 9192   1.797   1.338   5.882 -0.4942  0.1749 -0.0269
   93SAPE  H19R 9193   1.765   1.256   5.949  0.5842  0.4151  0.8113
   93SAPE  H19S 9194   1.854   1.409   5.946 -0.5106  0.9055 -0.8017
   93SAPE  C220 9195   1.893   1.291   5.768  0.1317  0.5014 -0.0976
   93SAPE  H20R 9196   1.981   1.243   5.816 -0.3595 -0.9309 -0.5715
   93SAPE  H20S 9197   1.939   1.372   5.707 -0.8023  0.8810 -0.3265
   93SAPE  H20T 9198   1.845   1.210   5.709  0.9952 -0.3132  0.3051
   93SAPE   C33 9199   0.971   2.012   7.097 -0.5618  0.8511  0.2405
   93SAPE   H3X 9200   0.969   1.904   7.069 -0.1054  0.9686 -0.2439
   93SAPE   H3Y 9201   1.070   2.043   7.136  0.0593  1.7038 -1.9053
   93SAPE   C34 9202   0.942   2.086   6.963  0.1177 -0.0683 -0.5442
   93SAPE   H4X 9203   0.953   2.194   6.982  2.1720 -0.3202 -0.1233
   93SAPE   H4Y 9204   0.838   2.053   6.938  1.3040 -4.1292 -0.8632
   93SAPE   C35 9205   1.031   2.048   6.844 -0.1031 -0.0023  0.5928
   93SAPE   H5X 9206   1.016   1.944   6.807  0.5479  0.1336 -0.0639
   93SAPE   H5Y 9207   1.138   2.071   6.865  0.8138 -2.2443 -1.1814
   93SAPE   C36 9208   1.001   2.135   6.716  0.1756 -0.0965 -0.5093
   93SAPE   H6X 9209   1.019   2.243   6.735 -1.2019 -0.1495  1.2923
   93SAPE   H6Y 9210   0.892   2.138   6.696  0.0937  0.1058 -0.0347
   93SAPE   C37 9211   1.072   2.083   6.586  0.1471  0.0314 -0.4207
   93SAPE   H7X 9212   1.058   1.973   6.578  0.9272  0.0559 -2.7472
   93SAPE   H7Y 9213   1.181   2.097   6.599 -0.2064  1.3950  1.5920
   93SAPE   C38 9214   1.016   2.159   6.459  0.4820 -0.0844  0.0881
   93SAPE   H8X 9215   1.037   2.268   6.469 -1.3919  0.2734  0.5554
   93SAPE   H8Y 9216   0.907   2.136   6.459 -0.1310  2.1008  2.9483
   93SAPE   C39 9217   1.071   2.109   6.318 -0.6326 -0.1627 -0.2637
   93SAPE   H9X 9218   1.021   2.158   6.232  3.0852  2.5916 -1.0867
   93SAPE   H9Y 9219   1.047   2.001   6.314  1.9184 -0.7680 -3.8101
   93SAPE  C310 9220   1.220   2.120   6.296 -0.1299 -0.1821 -0.1618
   93SAPE  H10X 9221   1.275   2.074   6.381  1.1040  0.2079 -0.7319
   93SAPE  H10Y 9222   1.262   2.222   6.294  0.9932 -0.5770 -3.4980
   93SAPE  C311 9223   1.252   2.063   6.167  0.0467  0.4417 -0.9079
   93SAPE  H11X 9224   1.236   1.953   6.169  0.3271  0.3851  1.5287
   93SAPE  H11Y 9225   1.361   2.079   6.153  0.2775  0.6875  0.9145
   93SAPE  C312 9226   1.178   2.124   6.044  0.1143 -0.0205  0.0176
   93SAPE  H12X 9227   1.161   2.230   6.072  1.9054  0.3130 -0.0208
   93SAPE  H12Y 9228   1.082   2.075   6.020  0.6045 -0.4893 -1.0444
   93SAPE  C313 9229   1.268   2.126   5.922 -0.0702  0.1986  0.0931
   93SAPE  H13X 9230   1.347   2.201   5.947 -0.9135  0.8927  0.7202
   93SAPE  H13Y 9231   1.215   2.162   5.832  1.3601  1.3654 -0.3298
   93SAPE  C314 9232   1.321   1.988   5.869 -0.1555  1.4787 -0.0537
   93SAPE  H14X 9233   1.232   1.922   5.873  0.3110  0.6621 -2.0135
   93SAPE  H14Y 9234   1.397   1.953   5.942 -0.5792 -0.7342 -0.5916
   93SAPE  C315 9235   1.359   1.990   5.724 -0.1661  0.3485 -0.2258
   93SAPE  H15X 9236   1.266   2.018   5.671 -0.3528  1.6304  0.7167
   93SAPE  H15Y 9237   1.392   1.885   5.707  0.6716  0.5119  0.3239
   93SAPE  C316 9238   1.471   2.093   5.684  0.0312  0.1628  0.5769
   93SAPE  H16X 9239   1.563   2.063   5.739 -0.1259 -0.5461  0.4603
   93SAPE  H16Y 9240   1.451   2.196   5.722  0.2262  0.2745  0.3797
   93SAPE  C317 9241   1.489   2.105   5.530  0.3723 -0.0311 -0.2135
   93SAPE  H17X 9242   1.388   2.118   5.486 -0.2408 -0.5209  0.9907
   93SAPE  H17Y 9243   1.536   2.008   5.501  0.7229  0.2768 -0.6839
   93SAPE  C318 9244   1.576   2.225   5.490 -0.9315  0.2782 -0.0968
   93SAPE  H18X 9245   1.577   2.217   5.379 -0.3113 -0.2515 -0.0620
   93SAPE  H18Y 9246   1.682   2.205   5.519 -1.3736  0.5647  1.8186
   93SAPE  H18Z 9247   1.542   2.327   5.517 -0.4142  0.5160 -0.3292
   94SAPE     N 9248   6.724   5.544   7.934 -0.0095 -0.0538 -0.1702
   94SAPE   HN1 9249   6.693   5.497   8.022 -1.0775 -0.6455 -0.8525
   94SAPE   HN2 9250   6.808   5.497   7.894  1.7138  2.3510  0.3976
   94SAPE   HN3 9251   6.766   5.632   7.971  4.1445 -2.1773  0.8520
   94SAPE   C12 9252   6.621   5.554   7.824 -0.4935 -0.3340  0.2470
   94SAPE  H12A 9253   6.522   5.553   7.875 -0.0479  1.5506  1.2572
   94SAPE  H12B 9254   6.639   5.461   7.766 -3.2619 -0.2087 -0.9845
   94SAPE   C11 9255   6.650   5.681   7.746 -0.2436  0.6203  0.6448
   94SAPE  H11A 9256   6.562   5.692   7.679 -0.8934  0.0738  1.3789
   94SAPE  H11B 9257   6.742   5.667   7.686  0.7820  1.8180  1.8495
   94SAPE     P 9258   6.564   5.904   7.857  0.1700 -0.0080  0.1020
   94SAPE   O13 9259   6.477   5.855   7.966  1.0353  0.7191 -0.4201
   94SAPE   O14 9260   6.624   6.040   7.883 -0.3369 -0.1391  0.0389
   94SAPE   O12 9261   6.678   5.793   7.830 -0.3602 -0.2591 -0.4852
   94SAPE   O11 9262   6.494   5.921   7.714  0.0281  0.4217 -0.2402
   94SAPE    C1 9263   6.360   5.905   7.680  0.1751 -0.1500 -0.5698
   94SAPE    HA 9264   6.298   5.912   7.772  0.2202 -1.0971 -0.4547
   94SAPE    HB 9265   6.342   5.992   7.614  1.4371  1.6591  1.3334
   94SAPE    C2 9266   6.333   5.783   7.589 -0.3274  0.0515  0.3931
   94SAPE    HS 9267   6.333   5.693   7.654 -3.0674 -0.5108 -0.2665
   94SAPE   O21 9268   6.447   5.767   7.497  0.1048 -0.1504  0.2550
   94SAPE   C21 9269   6.446   5.697   7.389 -0.2211 -0.0506  0.6198
   94SAPE   O22 9270   6.362   5.627   7.341 -0.4149  0.0294  0.1758
   94SAPE   C22 9271   6.578   5.727   7.310  0.5939  0.2452 -0.7657
   94SAPE   H2R 9272   6.585   5.837   7.297 -2.0713  0.5439 -0.1715
   94SAPE   H2S 9273   6.674   5.699   7.360 -0.9723 -0.4544  2.0855
   94SAPE    C3 9274   6.198   5.790   7.519 -0.4119  0.7333 -0.2652
   94SAPE    HX 9275   6.120   5.820   7.592 -2.8586  2.2980 -3.3500
   94SAPE    HY 9276   6.186   5.683   7.492  1.5443  0.6891 -1.1679
   94SAPE   O31 9277   6.194   5.856   7.393  0.2943 -0.4172  0.6237
   94SAPE   C31 9278   6.064   5.871   7.354  0.2571 -0.1570 -0.4345
   94SAPE   O32 9279   5.960   5.850   7.415 -0.2641 -0.1523  0.2788
   94SAPE   C32 9280   6.055   5.916   7.213 -0.3761  0.0482  0.8794
   94SAPE   H2X 9281   6.106   6.014   7.203  0.4327 -0.5421 -1.2238
   94SAPE   H2Y 9282   5.948   5.934   7.188 -0.4485  0.0082  1.1579
   94SAPE   C23 9283   6.563   5.666   7.165 -0.1493  0.8401 -0.1074
   94SAPE   H3R 9284   6.645   5.711   7.106  0.0429 -0.2334 -0.6681
   94SAPE   H3S 9285   6.471   5.684   7.105  0.4990 -2.9948 -2.6122
   94SAPE   C24 9286   6.586   5.510   7.165  0.2418 -0.2000  0.8000
   94SAPE   H4R 9287   6.554   5.476   7.065 -1.4033 -1.5126  1.7216
   94SAPE   H4S 9288   6.526   5.458   7.243  2.9146 -3.1545  1.1238
   94SAPE   C25 9289   6.725   5.472   7.194 -0.4249 -0.2944 -0.5220
   94SAPE   H5R 9290   6.751   5.478   7.301 -2.4021 -0.9490  0.0451
   94SAPE   C26 9291   6.819   5.450   7.101 -0.1872  0.0878  0.9496
   94SAPE   H6R 9292   6.913   5.413   7.144 -0.0145 -1.5665 -0.7416
   94SAPE   C27 9293   6.824   5.455   6.951  0.3422 -0.4432 -0.1909
   94SAPE   H7R 9294   6.723   5.455   6.905 -0.0552  1.2786  0.6196
   94SAPE   H7S 9295   6.870   5.364   6.906 -0.5292 -0.4689 -1.0700
   94SAPE   C28 9296   6.892   5.584   6.897 -0.2124  0.3818  0.7224
   94SAPE   H8R 9297   6.887   5.680   6.951  0.5358  1.2027 -0.6150
   94SAPE   C29 9298   6.970   5.582   6.790 -0.2941  0.0401 -0.3929
   94SAPE   H9R 9299   7.026   5.676   6.775 -1.0105  0.4956 -0.2606
   94SAPE  C210 9300   7.002   5.469   6.695 -0.4594  0.5564 -0.3097
   94SAPE  H10R 9301   6.909   5.410   6.684 -2.4468  3.1489  1.2311
   94SAPE  H10S 9302   7.075   5.403   6.745 -0.9151  0.5692  0.3854
   94SAPE  C211 9303   7.064   5.497   6.563 -0.0023 -0.2763  0.0918
   94SAPE  H11R 9304   7.092   5.602   6.543 -0.9968 -0.3670 -2.0812
   94SAPE  C212 9305   7.098   5.420   6.457 -0.5685 -0.2455  0.2287
   94SAPE  H12R 9306   7.145   5.473   6.373 -0.0317 -0.4329  0.4115
   94SAPE  C213 9307   7.079   5.273   6.438  0.5232  0.6079  0.3475
   94SAPE  H13R 9308   7.015   5.264   6.348 -0.3103 -1.1602  1.0644
   94SAPE  H13S 9309   7.016   5.231   6.520 -0.7878  2.0336  0.1133
   94SAPE  C214 9310   7.209   5.191   6.429  0.2429 -0.8411 -0.0437
   94SAPE  H14R 9311   7.275   5.213   6.514  0.1339  2.9998 -0.7493
   94SAPE  C215 9312   7.242   5.087   6.360 -0.7579 -0.3294 -0.5843
   94SAPE  H15R 9313   7.346   5.054   6.370 -0.5906  0.4107  0.1499
   94SAPE  C216 9314   7.157   5.017   6.263  1.0469 -0.1773  0.4818
   94SAPE  H16R 9315   7.055   5.063   6.266  2.0550  2.5743 -2.0532
   94SAPE  H16S 9316   7.149   4.907   6.271 -2.1245 -0.0501  0.4699
   94SAPE  C217 9317   7.215   5.049   6.128 -0.2125 -0.1441  0.1159
   94SAPE  H17R 9318   7.304   4.987   6.109 -0.7703 -0.5405 -1.2997
   94SAPE  H17S 9319   7.241   5.157   6.122 -0.2280 -0.0422  1.5619
   94SAPE  C218 9320   7.117   5.026   6.014 -0.7771 -0.2248 -0.0889
   94SAPE  H18R 9321   7.021   4.982   6.049  0.1349 -3.4552 -1.3058
   94SAPE  H18S 9322   7.168   4.957   5.943  0.7366 -1.0231  1.6763
   94SAPE  C219 9323   7.079   5.157   5.939 -0.6762  0.4534 -0.8966
   94SAPE  H19R 9324   7.007   5.137   5.856 -2.7749  3.0033  0.1370
   94SAPE  H19S 9325   7.169   5.203   5.894  0.1605  0.5102  0.7543
   94SAPE  C220 9326   6.998   5.255   6.029 -0.3801  0.4632  0.8483
   94SAPE  H20R 9327   6.898   5.222   6.066 -0.3144  2.1170  2.7003
   94SAPE  H20S 9328   6.977   5.351   5.978 -0.9676  1.3819  2.7198
   94SAPE  H20T 9329   7.056   5.282   6.120  1.6016  1.0773 -0.5329
   94SAPE   C33 9330   6.124   5.808   7.120 -0.1564  0.3984  0.3640
   94SAPE   H3X 9331   6.226   5.782   7.156 -0.4845  0.4766  1.3770
   94SAPE   H3Y 9332   6.131   5.855   7.019  0.2056 -0.5923 -0.0865
   94SAPE   C34 9333   6.026   5.695   7.101 -0.0008 -0.2133 -0.0080
   94SAPE   H4X 9334   5.988   5.658   7.199 -0.4953 -1.7400 -0.7477
   94SAPE   H4Y 9335   6.075   5.609   7.050  0.1427 -1.2565  1.8055
   94SAPE   C35 9336   5.898   5.735   7.021 -0.3043 -0.1313 -0.0650
   94SAPE   H5X 9337   5.918   5.755   6.914 -0.3980 -1.1630 -0.2881
   94SAPE   H5Y 9338   5.856   5.827   7.066  0.7284 -0.9642  2.8669
   94SAPE   C36 9339   5.786   5.625   7.022 -0.3066  0.3491 -0.1770
   94SAPE   H6X 9340   5.696   5.683   6.993  0.1565  0.8124 -0.7012
   94SAPE   H6Y 9341   5.770   5.586   7.125 -1.5691  1.5460  0.1121
   94SAPE   C37 9342   5.803   5.507   6.928  0.3115  0.5526 -0.2762
   94SAPE   H7X 9343   5.720   5.436   6.950  0.5909  0.4175  0.3630
   94SAPE   H7Y 9344   5.892   5.448   6.958 -0.9232 -2.0948 -1.4724
   94SAPE   C38 9345   5.815   5.525   6.778 -0.6279 -0.4150 -0.1783
   94SAPE   H8X 9346   5.911   5.575   6.752 -0.3410 -0.7248  0.2766
   94SAPE   H8Y 9347   5.735   5.584   6.729  0.0084 -0.0383 -0.7891
   94SAPE   C39 9348   5.814   5.384   6.703 -0.2076 -0.4906  0.4281
   94SAPE   H9X 9349   5.729   5.316   6.724 -0.3230 -0.7290 -0.7910
   94SAPE   H9Y 9350   5.913   5.336   6.720  0.3837 -0.0970 -1.6411
   94SAPE  C310 9351   5.807   5.415   6.551  0.2987  0.3607  0.0658
   94SAPE  H10X 9352   5.732   5.488   6.513  1.1233  0.0679 -2.3250
   94SAPE  H10Y 9353   5.779   5.325   6.492  0.4621  1.2819 -1.4771
   94SAPE  C311 9354   5.938   5.466   6.480  0.5966  0.2452  0.3379
   94SAPE  H11X 9355   6.028   5.414   6.520  1.5379  1.8887  0.4336
   94SAPE  H11Y 9356   5.956   5.568   6.520 -0.1963 -0.1746  1.8148
   94SAPE  C312 9357   5.917   5.472   6.332 -0.7704 -1.0371 -0.2224
   94SAPE  H12X 9358   5.854   5.560   6.305 -1.1637 -0.6699  1.7352
   94SAPE  H12Y 9359   5.875   5.378   6.291  0.5169 -1.7372  0.0332
   94SAPE  C313 9360   6.058   5.480   6.260  0.0819 -0.3973 -0.3448
   94SAPE  H13X 9361   6.102   5.380   6.277 -1.4024 -0.8885  0.8006
   94SAPE  H13Y 9362   6.130   5.555   6.300 -1.4600  0.6060  0.6450
   94SAPE  C314 9363   6.060   5.505   6.112 -0.4074 -0.5512 -1.3595
   94SAPE  H14X 9364   6.158   5.467   6.074 -0.3983 -1.3318 -0.5698
   94SAPE  H14Y 9365   6.060   5.614   6.088  0.4061 -0.5884 -1.5683
   94SAPE  C315 9366   5.937   5.441   6.045 -0.5178 -0.7846 -0.1461
   94SAPE  H15X 9367   5.844   5.476   6.094  0.7462  1.5162  0.7489
   94SAPE  H15Y 9368   5.941   5.330   6.055 -1.2560 -0.9485 -1.4861
   94SAPE  C316 9369   5.917   5.479   5.898  0.1522  0.6414 -0.1194
   94SAPE  H16X 9370   5.987   5.427   5.829  0.4880  2.9640 -1.6703
   94SAPE  H16Y 9371   5.946   5.586   5.884  0.7436  0.3211 -1.5734
   94SAPE  C317 9372   5.775   5.453   5.850 -0.2426 -0.4699  0.3246
   94SAPE  H17X 9373   5.709   5.507   5.922 -1.8855 -1.2730 -0.5463
   94SAPE  H17Y 9374   5.762   5.344   5.833  0.4933 -0.1517 -2.9445
   94SAPE  C318 9375   5.747   5.529   5.719 -0.6634 -0.0695 -0.2282
   94SAPE  H18X 9376   5.652   5.501   5.668  0.6966 -1.6699 -2.0003
   94SAPE  H18Y 9377   5.826   5.503   5.646  1.4290  1.7919  1.2369
   94SAPE  H18Z 9378   5.747   5.640   5.721  0.7663  0.0077 -1.8005
   95SAPE     N 9379   4.716   3.059   7.569 -0.2726 -0.2211 -0.3229
   95SAPE   HN1 9380   4.811   3.085   7.604  0.1560  0.8919 -2.1313
   95SAPE   HN2 9381   4.674   3.129   7.504 -1.5395 -0.6912 -0.0278
   95SAPE   HN3 9382   4.639   3.040   7.636 -1.1818  1.0544 -0.9683
   95SAPE   C12 9383   4.738   2.931   7.493 -0.3745 -0.0266  0.7385
   95SAPE  H12A 9384   4.730   2.838   7.553 -1.2330 -0.1948  0.3797
   95SAPE  H12B 9385   4.841   2.940   7.452 -1.3522 -0.9751 -2.2149
   95SAPE   C11 9386   4.638   2.930   7.375  0.7716  0.3289  0.0352
   95SAPE  H11A 9387   4.543   2.906   7.427  1.0305  0.5486  0.6274
   95SAPE  H11B 9388   4.649   2.840   7.312 -0.9703  0.7150 -0.8880
   95SAPE     P 9389   4.752   3.105   7.206  0.4281 -0.2810 -0.2211
   95SAPE   O13 9390   4.748   3.253   7.218 -0.1919  0.3976 -0.0343
   95SAPE   O14 9391   4.884   3.049   7.240 -0.3649 -0.0771 -0.1329
   95SAPE   O12 9392   4.632   3.057   7.301 -0.4053 -0.0889  0.0932
   95SAPE   O11 9393   4.688   3.046   7.076  0.4029  0.8384  0.4416
   95SAPE    C1 9394   4.554   3.097   7.037 -0.6522  0.5517  0.3618
   95SAPE    HA 9395   4.530   3.200   7.069  0.5293  0.9613 -0.0387
   95SAPE    HB 9396   4.548   3.091   6.926  1.2817 -2.0864  0.3088
   95SAPE    C2 9397   4.441   3.007   7.086 -0.2967  0.5262 -0.0692
   95SAPE    HS 9398   4.430   3.007   7.197  1.0554 -0.5066  0.0887
   95SAPE   O21 9399   4.462   2.868   7.045 -0.1147  0.3738 -0.4476
   95SAPE   C21 9400   4.382   2.777   7.114 -0.0701  0.3364  0.2134
   95SAPE   O22 9401   4.314   2.808   7.208  0.5572 -0.2947  0.2438
   95SAPE   C22 9402   4.414   2.629   7.063 -0.0213 -0.2064  0.1482
   95SAPE   H2R 9403   4.437   2.640   6.955 -1.7184 -0.3809 -0.2465
   95SAPE   H2S 9404   4.508   2.602   7.116  0.2230  0.0309 -0.1603
   95SAPE    C3 9405   4.304   3.050   7.020  0.1702 -0.1681  0.3680
   95SAPE    HX 9406   4.279   3.153   7.055 -0.2462  0.0962 -0.6596
   95SAPE    HY 9407   4.221   2.991   7.066  1.3455  0.3016  3.3491
   95SAPE   O31 9408   4.319   3.047   6.880 -0.0610 -0.4307  0.0217
   95SAPE   C31 9409   4.201   3.056   6.812 -0.7673 -0.4756  0.0093
   95SAPE   O32 9410   4.094   3.080   6.860  0.6047 -0.0038 -0.2882
   95SAPE   C32 9411   4.229   3.036   6.659  0.3219  0.1595 -0.2111
   95SAPE   H2X 9412   4.287   2.941   6.651  1.2264  0.7617 -0.9382
   95SAPE   H2Y 9413   4.287   3.123   6.624 -0.7942 -0.2290 -3.3225
   95SAPE   C23 9414   4.302   2.515   7.078 -0.0731 -0.5366 -0.0434
   95SAPE   H3R 9415   4.247   2.526   7.174  1.9231  0.2077  1.0789
   95SAPE   H3S 9416   4.379   2.434   7.087  1.0725  0.4126 -1.0069
   95SAPE   C24 9417   4.208   2.492   6.962  0.2501 -0.2680  0.5764
   95SAPE   H4R 9418   4.133   2.412   6.980  0.5563 -0.6317  0.2502
   95SAPE   H4S 9419   4.270   2.476   6.871  0.8600 -1.6926  1.2077
   95SAPE   C25 9420   4.119   2.613   6.953  0.2039 -0.6569  0.8904
   95SAPE   H5R 9421   4.062   2.643   7.042 -2.0256 -0.1090 -0.6264
   95SAPE   C26 9422   4.105   2.683   6.838 -0.6460  1.2013 -0.1586
   95SAPE   H6R 9423   4.047   2.777   6.847  0.3843  1.7953  0.4399
   95SAPE   C27 9424   4.180   2.669   6.708  0.2037  0.2445 -0.2443
   95SAPE   H7R 9425   4.290   2.679   6.724  0.3730  2.7432 -2.2632
   95SAPE   H7S 9426   4.150   2.755   6.644 -1.6767  0.3509  0.7161
   95SAPE   C28 9427   4.148   2.542   6.642  0.1355 -1.0013 -0.2213
   95SAPE   H8R 9428   4.135   2.454   6.707 -0.9503 -0.9759 -0.3974
   95SAPE   C29 9429   4.125   2.538   6.510  0.0437 -0.1505  0.0696
   95SAPE   H9R 9430   4.103   2.445   6.455  2.4691  0.1748 -1.6467
   95SAPE  C210 9431   4.134   2.647   6.402  0.3759  0.9223 -0.3181
   95SAPE  H10R 9432   4.083   2.739   6.438 -1.8582 -0.0524 -0.8376
   95SAPE  H10S 9433   4.065   2.619   6.319  2.0730  0.0256 -1.4985
   95SAPE  C211 9434   4.275   2.673   6.355 -0.1468 -1.1439  0.3431
   95SAPE  H11R 9435   4.344   2.692   6.438 -2.2304  0.6160  1.8107
   95SAPE  C212 9436   4.313   2.682   6.222  0.0407  0.2207 -0.5424
   95SAPE  H12R 9437   4.415   2.722   6.210  1.4484 -2.5274  1.1100
   95SAPE  C213 9438   4.231   2.670   6.098 -1.0480 -0.0440 -0.2071
   95SAPE  H13R 9439   4.179   2.765   6.071  0.8314  0.3854 -2.6848
   95SAPE  H13S 9440   4.166   2.581   6.086  1.9356 -2.4441  0.2203
   95SAPE  C214 9441   4.329   2.653   5.982  0.1617 -0.1478 -0.4798
   95SAPE  H14R 9442   4.413   2.583   5.988  0.0918 -0.3032 -1.2122
   95SAPE  C215 9443   4.319   2.711   5.868  0.6410 -0.0688 -0.1614
   95SAPE  H15R 9444   4.377   2.672   5.783  0.1185  0.9803 -1.0185
   95SAPE  C216 9445   4.209   2.800   5.820 -0.0019 -0.0752 -0.3596
   95SAPE  H16R 9446   4.203   2.884   5.892  1.1241 -2.1396  2.3025
   95SAPE  H16S 9447   4.119   2.736   5.832  0.7742 -0.8756  1.5747
   95SAPE  C217 9448   4.195   2.861   5.685  0.7652 -0.5679 -0.3330
   95SAPE  H17R 9449   4.182   2.783   5.607  1.2069 -1.1762  0.1952
   95SAPE  H17S 9450   4.282   2.925   5.662 -1.1143  2.7750  0.9995
   95SAPE  C218 9451   4.074   2.954   5.679 -0.0324 -0.6091  0.3221
   95SAPE  H18R 9452   4.105   3.052   5.722 -1.0536  0.1398 -0.5939
   95SAPE  H18S 9453   3.987   2.911   5.732 -0.1165 -1.2768 -0.3503
   95SAPE  C219 9454   4.042   2.993   5.532 -0.3024 -0.7147 -0.4099
   95SAPE  H19R 9455   4.028   2.900   5.472  0.1934  0.2151 -2.0361
   95SAPE  H19S 9456   4.121   3.054   5.484  1.1197 -1.0562  1.3681
   95SAPE  C220 9457   3.915   3.079   5.529  0.2781 -0.4261  0.2403
   95SAPE  H20R 9458   3.844   3.038   5.604 -1.3750  0.5877 -0.7349
   95SAPE  H20S 9459   3.865   3.057   5.432 -1.9538 -2.5621  1.7561
   95SAPE  H20T 9460   3.934   3.185   5.556 -0.4847 -0.5131  1.1655
   95SAPE   C33 9461   4.105   3.049   6.570 -0.8888  0.0343 -0.3080
   95SAPE   H3X 9462   4.034   3.131   6.593 -1.4156 -0.4935  0.0008
   95SAPE   H3Y 9463   4.036   2.962   6.575 -2.2880  1.1477  0.8742
   95SAPE   C34 9464   4.145   3.038   6.426  0.0974  0.2703 -0.5843
   95SAPE   H4X 9465   4.208   2.948   6.414 -0.3752 -0.0898 -0.4021
   95SAPE   H4Y 9466   4.202   3.130   6.397 -0.9765  0.6046 -1.7721
   95SAPE   C35 9467   4.021   3.015   6.348  0.9423  1.0927 -0.2754
   95SAPE   H5X 9468   3.951   3.098   6.369 -0.9778 -0.2230 -1.1232
   95SAPE   H5Y 9469   3.969   2.918   6.364  2.2849 -0.2200 -3.1422
   95SAPE   C36 9470   4.036   3.024   6.195 -1.1546  0.4267  0.6367
   95SAPE   H6X 9471   4.105   2.942   6.168 -2.2652 -1.1421  2.3387
   95SAPE   H6Y 9472   4.065   3.128   6.168 -2.8629  0.6737 -0.3740
   95SAPE   C37 9473   3.903   3.000   6.126  0.1504  0.2119 -0.2450
   95SAPE   H7X 9474   3.916   3.036   6.021 -0.3958  0.9296 -0.0671
   95SAPE   H7Y 9475   3.826   3.061   6.177  1.4298 -0.4810  2.7113
   95SAPE   C38 9476   3.848   2.851   6.131 -0.0398  0.3056  0.5490
   95SAPE   H8X 9477   3.824   2.820   6.235 -0.0062 -0.9504  0.1951
   95SAPE   H8Y 9478   3.932   2.782   6.105 -1.1805 -1.6245  1.7718
   95SAPE   C39 9479   3.733   2.818   6.036  0.8323 -0.6894 -0.4340
   95SAPE   H9X 9480   3.653   2.892   6.057 -0.6923 -2.0776 -1.1273
   95SAPE   H9Y 9481   3.688   2.720   6.064  2.2327 -1.9789 -2.3987
   95SAPE  C310 9482   3.771   2.823   5.887  0.0833 -0.7512  0.1175
   95SAPE  H10X 9483   3.857   2.753   5.872  1.0260  0.5856 -0.9271
   95SAPE  H10Y 9484   3.800   2.929   5.875 -0.5586 -0.7516 -1.6726
   95SAPE  C311 9485   3.652   2.773   5.808 -0.3683  0.4813  0.5285
   95SAPE  H11X 9486   3.562   2.837   5.818  0.1489  1.1926  0.7614
   95SAPE  H11Y 9487   3.632   2.671   5.847 -1.4529  0.1425 -0.8671
   95SAPE  C312 9488   3.692   2.752   5.661 -0.8050  0.7836 -0.4194
   95SAPE  H12X 9489   3.719   2.852   5.622  0.1637  1.5553  2.0603
   95SAPE  H12Y 9490   3.605   2.734   5.594 -1.1242  1.6454 -0.2495
   95SAPE  C313 9491   3.795   2.642   5.625 -1.1939 -0.0005  0.1594
   95SAPE  H13X 9492   3.764   2.546   5.671  3.0784 -1.2588  0.7930
   95SAPE  H13Y 9493   3.898   2.660   5.661 -1.2818 -0.3319  0.5780
   95SAPE  C314 9494   3.804   2.618   5.467  0.3546 -0.0480 -0.1752
   95SAPE  H14X 9495   3.842   2.718   5.436 -0.1914  0.6128  1.1798
   95SAPE  H14Y 9496   3.699   2.610   5.430 -0.2463  1.1107  1.1600
   95SAPE  C315 9497   3.889   2.507   5.414 -0.4132  0.5946  0.1858
   95SAPE  H15X 9498   3.832   2.412   5.421  0.4937  0.1019  1.2882
   95SAPE  H15Y 9499   3.971   2.500   5.489 -0.9643  1.7939  0.9487
   95SAPE  C316 9500   3.959   2.521   5.275  0.5416 -0.8231 -0.1118
   95SAPE  H16X 9501   4.007   2.620   5.261 -0.3957 -0.6338 -2.5310
   95SAPE  H16Y 9502   3.885   2.513   5.193  0.7400  4.4165 -1.1915
   95SAPE  C317 9503   4.065   2.412   5.262 -0.4774  0.5027  0.0187
   95SAPE  H17X 9504   4.023   2.309   5.272  0.1706  0.1861 -0.4450
   95SAPE  H17Y 9505   4.133   2.431   5.347 -1.9889  0.3974  1.3042
   95SAPE  C318 9506   4.141   2.408   5.125  0.5188  0.1167  0.4024
   95SAPE  H18X 9507   4.155   2.512   5.089 -1.8695  0.2294 -0.3388
   95SAPE  H18Y 9508   4.070   2.359   5.055 -1.1599  0.4946  1.7531
   95SAPE  H18Z 9509   4.244   2.367   5.129  0.4031 -0.4545 -1.5134
   96SAPE     N 9510   5.250   6.569   7.113  0.8090 -0.4319  0.1687
   96SAPE   HN1 9511   5.228   6.493   7.180 -1.0721 -1.4559 -1.4817
   96SAPE   HN2 9512   5.317   6.634   7.158 -1.7971  2.7365 -0.1733
   96SAPE   HN3 9513   5.162   6.623   7.101  1.6646  1.1047  0.4827
   96SAPE   C12 9514   5.298   6.514   6.979  0.4089 -0.5158  0.2231
   96SAPE  H12A 9515   5.391   6.454   6.980  0.7550 -0.1526 -2.5348
   96SAPE  H12B 9516   5.316   6.605   6.918  0.6532 -0.9137 -0.3058
   96SAPE   C11 9517   5.184   6.434   6.919 -0.2770  0.2186  0.0527
   96SAPE  H11A 9518   5.229   6.396   6.825  2.2445 -0.6564  1.4910
   96SAPE  H11B 9519   5.092   6.493   6.901  0.5406  1.4437 -0.2038
   96SAPE     P 9520   5.017   6.258   7.042 -0.4093 -0.3203 -0.3321
   96SAPE   O13 9521   5.033   6.155   7.145  0.1577 -0.1490 -0.8800
   96SAPE   O14 9522   4.922   6.372   7.078 -0.3674 -0.1077  0.1653
   96SAPE   O12 9523   5.158   6.328   7.012  0.4018  0.5963  0.1539
   96SAPE   O11 9524   4.969   6.192   6.900  0.4046 -0.2822  0.1358
   96SAPE    C1 9525   5.049   6.097   6.835  0.5483  0.3514 -1.1362
   96SAPE    HA 9526   5.147   6.083   6.886 -0.8371  1.1099  2.0395
   96SAPE    HB 9527   4.985   6.008   6.817 -2.2570  1.8008  0.7570
   96SAPE    C2 9528   5.075   6.150   6.692  0.1588 -0.1401  0.3576
   96SAPE    HS 9529   5.147   6.234   6.703 -1.8834  1.6917  0.2184
   96SAPE   O21 9530   4.956   6.206   6.637 -0.2509  1.1658 -0.1842
   96SAPE   C21 9531   4.959   6.320   6.574 -0.7167  0.0791 -0.5823
   96SAPE   O22 9532   5.061   6.385   6.551  0.1941 -0.3199  0.0059
   96SAPE   C22 9533   4.822   6.358   6.542 -0.0544 -1.3629  0.1562
   96SAPE   H2R 9534   4.820   6.354   6.431  1.0951  2.6992 -0.1593
   96SAPE   H2S 9535   4.757   6.277   6.582  0.1601 -1.3993  0.4299
   96SAPE    C3 9536   5.125   6.049   6.580 -0.3511  0.3443  0.5994
   96SAPE    HX 9537   5.038   5.984   6.559 -1.2225  2.5415 -3.5018
   96SAPE    HY 9538   5.207   5.988   6.625 -0.3539  1.2436  1.8841
   96SAPE   O31 9539   5.151   6.103   6.451  0.2617 -0.0331  0.1265
   96SAPE   C31 9540   5.266   6.177   6.453 -0.4593  0.5167  0.5174
   96SAPE   O32 9541   5.356   6.153   6.529 -0.2528  0.3246 -0.1181
   96SAPE   C32 9542   5.272   6.282   6.349  0.4689  0.3402 -0.4398
   96SAPE   H2X 9543   5.231   6.378   6.386 -4.1091 -1.4120 -0.2673
   96SAPE   H2Y 9544   5.206   6.254   6.265  0.0478  1.6839 -0.5677
   96SAPE   C23 9545   4.797   6.506   6.578  0.1096 -0.7320  0.3315
   96SAPE   H3R 9546   4.694   6.538   6.554  0.2443 -0.8338 -0.3989
   96SAPE   H3S 9547   4.859   6.569   6.511  0.6133 -2.6926 -1.1469
   96SAPE   C24 9548   4.830   6.547   6.723  0.0550 -0.6556 -0.0952
   96SAPE   H4R 9549   4.939   6.567   6.722 -0.2486  1.1309 -1.1557
   96SAPE   H4S 9550   4.824   6.460   6.792 -0.2687  0.4437  1.3206
   96SAPE   C25 9551   4.759   6.665   6.777 -0.3210  0.5216  0.1910
   96SAPE   H5R 9552   4.667   6.644   6.833 -0.9372 -2.4949 -1.7211
   96SAPE   C26 9553   4.810   6.791   6.766 -0.1722 -0.2801  0.4142
   96SAPE   H6R 9554   4.753   6.879   6.802  1.8067  1.5892 -0.7906
   96SAPE   C27 9555   4.934   6.830   6.686 -0.0474 -0.4925  0.6099
   96SAPE   H7R 9556   4.945   6.772   6.592  0.8909 -0.2760  0.5760
   96SAPE   H7S 9557   5.027   6.812   6.745 -0.3903 -1.4801  0.8652
   96SAPE   C28 9558   4.921   6.979   6.654  0.2237 -1.0927  0.7136
   96SAPE   H8R 9559   4.897   7.044   6.740 -0.7860  0.8770 -0.9517
   96SAPE   C29 9560   4.962   7.046   6.543 -0.4029  0.6326 -0.2023
   96SAPE   H9R 9561   4.944   7.155   6.553  0.5108  0.6495  1.6792
   96SAPE  C210 9562   5.014   6.992   6.411  0.2096  0.2139  0.1730
   96SAPE  H10R 9563   4.976   7.059   6.331  1.1744  0.7610  0.1496
   96SAPE  H10S 9564   4.968   6.891   6.407 -0.4805  0.3569  2.7046
   96SAPE  C211 9565   5.163   6.986   6.414  0.3127 -0.3438  1.3076
   96SAPE  H11R 9566   5.227   7.069   6.445  0.0843 -0.5429  2.3814
   96SAPE  C212 9567   5.236   6.891   6.357  0.7946  0.3298  0.6673
   96SAPE  H12R 9568   5.346   6.892   6.352  0.7553 -1.1144 -1.4490
   96SAPE  C213 9569   5.182   6.774   6.274 -0.6900  0.7778  0.2186
   96SAPE  H13R 9570   5.104   6.797   6.198 -0.8500 -2.6997 -0.8874
   96SAPE  H13S 9571   5.117   6.722   6.347 -0.1760  0.6388  0.5851
   96SAPE  C214 9572   5.287   6.680   6.222  0.1796 -0.2035 -0.0992
   96SAPE  H14R 9573   5.295   6.590   6.285  3.3411 -0.7147 -1.0007
   96SAPE  C215 9574   5.374   6.700   6.119 -0.1652  0.6211  0.4170
   96SAPE  H15R 9575   5.439   6.616   6.089  3.2172  2.2086  2.5793
   96SAPE  C216 9576   5.377   6.821   6.025  0.0666  1.0402 -0.3474
   96SAPE  H16R 9577   5.480   6.861   6.030  1.2390 -1.7036 -0.7817
   96SAPE  H16S 9578   5.301   6.896   6.057 -0.6748  0.2002 -0.0761
   96SAPE  C217 9579   5.327   6.786   5.885  0.0139 -0.7559 -0.7335
   96SAPE  H17R 9580   5.220   6.759   5.888 -0.6551  1.6919  0.0725
   96SAPE  H17S 9581   5.385   6.705   5.836  1.6489  0.2054 -0.4696
   96SAPE  C218 9582   5.346   6.910   5.795  0.5493  0.4731 -0.4487
   96SAPE  H18R 9583   5.455   6.933   5.791  1.3080 -2.3539  1.1625
   96SAPE  H18S 9584   5.296   6.992   5.850  1.0996  0.6138 -0.1505
   96SAPE  C219 9585   5.284   6.894   5.659 -0.3183  0.5076  0.0298
   96SAPE  H19R 9586   5.175   6.878   5.666 -0.0950 -1.1174  0.1421
   96SAPE  H19S 9587   5.328   6.803   5.613 -2.0701 -1.0490  1.3106
   96SAPE  C220 9588   5.305   7.022   5.570  0.1768 -0.3576  0.5295
   96SAPE  H20R 9589   5.410   7.052   5.554 -0.7473  2.5677 -0.8080
   96SAPE  H20S 9590   5.248   7.110   5.608  2.4689  1.9232 -0.9965
   96SAPE  H20T 9591   5.252   7.006   5.474  1.6991 -0.8103 -0.2623
   96SAPE   C33 9592   5.410   6.316   6.288  0.7472  0.3771  0.0443
   96SAPE   H3X 9593   5.480   6.317   6.374 -0.7243 -1.0835  1.3414
   96SAPE   H3Y 9594   5.414   6.419   6.249  1.1632  0.4661  0.3163
   96SAPE   C34 9595   5.454   6.226   6.177  0.5840  0.1071 -0.6135
   96SAPE   H4X 9596   5.378   6.236   6.096  1.1469  2.4639 -0.9236
   96SAPE   H4Y 9597   5.462   6.120   6.208 -2.8807 -0.5915 -1.6978
   96SAPE   C35 9598   5.592   6.265   6.123 -0.1435 -0.2341  0.3287
   96SAPE   H5X 9599   5.610   6.192   6.042 -3.4138 -1.3295  0.4527
   96SAPE   H5Y 9600   5.669   6.260   6.203  0.0185  1.5868  0.3345
   96SAPE   C36 9601   5.597   6.400   6.055  0.9240 -0.1682  0.6428
   96SAPE   H6X 9602   5.696   6.434   6.019 -0.0602  0.4395 -1.6589
   96SAPE   H6Y 9603   5.575   6.479   6.130  0.0325  2.1006 -1.8597
   96SAPE   C37 9604   5.497   6.424   5.942 -0.3238 -0.1332  0.5772
   96SAPE   H7X 9605   5.496   6.531   5.912 -1.4775 -0.0723  0.7860
   96SAPE   H7Y 9606   5.394   6.406   5.979 -0.4966 -0.1029  0.1158
   96SAPE   C38 9607   5.533   6.343   5.818 -0.4202  0.4737 -0.5032
   96SAPE   H8X 9608   5.511   6.237   5.842 -1.3156  0.8894  0.6138
   96SAPE   H8Y 9609   5.639   6.341   5.786  0.3373  1.3486  1.7276
   96SAPE   C39 9610   5.447   6.374   5.696 -0.0784  0.6901 -0.3044
   96SAPE   H9X 9611   5.452   6.481   5.664 -1.1610  0.9059  0.2004
   96SAPE   H9Y 9612   5.338   6.354   5.704  0.3949 -2.6648 -0.8733
   96SAPE  C310 9613   5.492   6.286   5.580 -0.0166  0.4419 -0.4223
   96SAPE  H10X 9614   5.441   6.188   5.575 -1.3171  1.0829 -0.0593
   96SAPE  H10Y 9615   5.598   6.261   5.602  0.4528  1.0394 -1.8769
   96SAPE  C311 9616   5.494   6.363   5.449  0.2768  0.0205  0.2732
   96SAPE  H11X 9617   5.560   6.452   5.455  0.9410 -0.5503  2.0420
   96SAPE  H11Y 9618   5.394   6.409   5.431  1.2127  1.9328 -0.2529
   96SAPE  C312 9619   5.542   6.275   5.337  0.4441 -0.0681  0.1875
   96SAPE  H12X 9620   5.637   6.221   5.358  1.2214  1.0640 -0.3046
   96SAPE  H12Y 9621   5.548   6.341   5.248 -1.3476  1.5801  1.1972
   96SAPE  C313 9622   5.446   6.167   5.301 -0.3734 -0.4632 -0.1299
   96SAPE  H13X 9623   5.411   6.104   5.386 -2.3954  1.8049  0.8115
   96SAPE  H13Y 9624   5.484   6.098   5.222 -1.3964  1.8004 -2.7596
   96SAPE  C314 9625   5.311   6.220   5.234  0.0003 -0.5572  0.1757
   96SAPE  H14X 9626   5.350   6.305   5.174  0.5499 -1.1814 -0.3662
   96SAPE  H14Y 9627   5.238   6.263   5.305  0.5681  2.4942 -0.9324
   96SAPE  C315 9628   5.238   6.119   5.154  0.4562  0.0511  0.0862
   96SAPE  H15X 9629   5.309   6.049   5.106 -2.1640 -0.9216 -2.6879
   96SAPE  H15Y 9630   5.182   6.165   5.070  1.7231 -0.8498 -1.3076
   96SAPE  C316 9631   5.135   6.033   5.231  0.0759 -0.2019  0.2659
   96SAPE  H16X 9632   5.055   6.095   5.278  2.0307  2.7884 -0.0504
   96SAPE  H16Y 9633   5.192   5.985   5.312  0.0878 -0.9272 -0.1640
   96SAPE  C317 9634   5.080   5.920   5.142 -0.1056 -0.0467  0.4013
   96SAPE  H17X 9635   5.156   5.856   5.091  0.8003  1.1610  0.1787
   96SAPE  H17Y 9636   5.026   5.969   5.059 -1.5810  0.9632  1.9172
   96SAPE  C318 9637   4.977   5.837   5.214 -0.3037  0.8188  0.3089
   96SAPE  H18X 9638   4.931   5.769   5.139 -2.1073  1.1716  1.0548
   96SAPE  H18Y 9639   4.904   5.906   5.261  0.8591  1.6838  0.8943
   96SAPE  H18Z 9640   5.021   5.791   5.306  0.8494  1.0713 -0.0984
   97SAPE     N 9641   0.094   2.400   7.506 -0.6503  0.6030 -0.0258
   97SAPE   HN1 9642   0.077   2.477   7.574 -0.2544  0.9037 -0.2656
   97SAPE   HN2 9643   0.130   2.450   7.422 -0.7504 -0.0301 -0.4501
   97SAPE   HN3 9644   0.002   2.359   7.479  0.0143  0.6964 -2.6098
   97SAPE   C12 9645   0.198   2.312   7.555 -0.1732  0.6638 -0.5202
   97SAPE  H12A 9646   0.264   2.370   7.623  0.0280 -0.4785  0.2816
   97SAPE  H12B 9647   0.248   2.272   7.465  0.7383 -1.4948  0.8689
   97SAPE   C11 9648   0.150   2.187   7.631 -0.6696 -0.4342 -0.0492
   97SAPE  H11A 9649   0.123   2.218   7.735  0.2423 -2.6982  0.9176
   97SAPE  H11B 9650   0.239   2.125   7.654 -0.4211  0.1967  0.7602
   97SAPE     P 9651  -0.085   2.104   7.603 -0.0294  0.6569  0.1450
   97SAPE   O13 9652  -0.108   2.081   7.750 -0.0869 -0.6679 -0.5356
   97SAPE   O14 9653  -0.137   2.230   7.543 -0.3898  0.5143 -0.1429
   97SAPE   O12 9654   0.059   2.099   7.557 -0.9845 -0.1019 -0.3628
   97SAPE   O11 9655  -0.168   1.992   7.530  0.3724  0.6381  0.3983
   97SAPE    C1 9656  -0.116   1.941   7.408  0.7245 -0.0513  0.2706
   97SAPE    HA 9657  -0.015   1.899   7.429  0.1708 -0.4190  2.4603
   97SAPE    HB 9658  -0.184   1.856   7.383  2.5120 -1.1863 -1.0099
   97SAPE    C2 9659  -0.089   2.041   7.286 -0.1761 -0.2526 -0.0777
   97SAPE    HS 9660   0.003   2.097   7.315  1.2769 -2.5765  0.0200
   97SAPE   O21 9661  -0.211   2.123   7.269 -0.6200  0.0205  0.0015
   97SAPE   C21 9662  -0.193   2.252   7.265 -0.3866 -0.6506 -0.4134
   97SAPE   O22 9663  -0.089   2.315   7.267  0.6849 -0.1655  0.0367
   97SAPE   C22 9664  -0.331   2.313   7.244 -0.4864  0.6580 -0.2038
   97SAPE   H2R 9665  -0.395   2.247   7.183 -1.2415  0.9192  0.2892
   97SAPE   H2S 9666  -0.373   2.326   7.346 -1.3007  3.4279 -0.8092
   97SAPE    C3 9667  -0.047   1.960   7.161 -0.8549  0.4409 -0.3203
   97SAPE    HX 9668  -0.128   1.884   7.151  0.4282 -1.2386  1.2531
   97SAPE    HY 9669   0.044   1.897   7.172 -0.2152  1.1620 -1.3145
   97SAPE   O31 9670  -0.036   2.038   7.040 -0.6887 -0.6855 -0.2770
   97SAPE   C31 9671   0.083   2.094   7.020  0.1264 -0.2148  0.8964
   97SAPE   O32 9672   0.180   2.086   7.088 -0.3775 -0.0815  0.3866
   97SAPE   C32 9673   0.077   2.165   6.882 -0.1821 -1.2557  0.5319
   97SAPE   H2X 9674  -0.010   2.233   6.886  0.1720 -0.6778 -0.8557
   97SAPE   H2Y 9675   0.060   2.085   6.806  2.8143 -0.1790 -1.4492
   97SAPE   C23 9676  -0.322   2.456   7.175 -0.1131  0.4400 -0.7394
   97SAPE   H3R 9677  -0.251   2.511   7.241  1.2791 -1.1648 -0.8252
   97SAPE   H3S 9678  -0.424   2.501   7.177 -0.1777  0.3329 -1.3706
   97SAPE   C24 9679  -0.282   2.453   7.022  0.5684  0.0293  0.1851
   97SAPE   H4R 9680  -0.181   2.408   7.015  0.4869 -0.2724  0.8681
   97SAPE   H4S 9681  -0.298   2.559   6.994 -1.3136  0.3188  2.0744
   97SAPE   C25 9682  -0.371   2.369   6.933  0.8316 -0.2175 -0.2165
   97SAPE   H5R 9683  -0.378   2.263   6.963  0.1713 -0.1221 -0.0141
   97SAPE   C26 9684  -0.436   2.414   6.821  0.5974  0.3948 -0.4054
   97SAPE   H6R 9685  -0.507   2.340   6.780  1.5214  0.0375 -1.3901
   97SAPE   C27 9686  -0.447   2.546   6.758  0.4970 -0.4311 -0.0309
   97SAPE   H7R 9687  -0.355   2.582   6.708  1.9104  1.2460  3.4093
   97SAPE   H7S 9688  -0.463   2.617   6.843  0.9190  3.0376 -2.6100
   97SAPE   C28 9689  -0.569   2.574   6.680 -0.2261  0.2396 -0.6613
   97SAPE   H8R 9690  -0.663   2.550   6.732 -1.4653  1.8450 -2.0567
   97SAPE   C29 9691  -0.579   2.635   6.560 -0.1722 -0.1672  0.1417
   97SAPE   H9R 9692  -0.681   2.642   6.519 -0.5466 -1.7589  0.7320
   97SAPE  C210 9693  -0.471   2.680   6.469 -0.2287 -0.6146 -0.1800
   97SAPE  H10R 9694  -0.371   2.660   6.513  0.0351 -0.5226 -0.7271
   97SAPE  H10S 9695  -0.480   2.791   6.467  0.3553 -0.3329  4.0085
   97SAPE  C211 9696  -0.490   2.613   6.327  0.9205  0.5801  0.1657
   97SAPE  H11R 9697  -0.592   2.589   6.294  1.2897  2.2262 -2.5092
   97SAPE  C212 9698  -0.393   2.583   6.237 -0.4861 -0.0619 -0.0859
   97SAPE  H12R 9699  -0.421   2.551   6.136 -3.5572  1.9480 -0.0011
   97SAPE  C213 9700  -0.246   2.614   6.263 -0.5898 -0.4286 -0.2295
   97SAPE  H13R 9701  -0.232   2.640   6.370 -0.1804  0.8987 -0.5817
   97SAPE  H13S 9702  -0.214   2.711   6.219 -0.4005 -0.2150  0.3820
   97SAPE  C214 9703  -0.165   2.484   6.234 -0.3754  0.2727  0.1930
   97SAPE  H14R 9704  -0.167   2.411   6.317  0.9241  0.5542  0.4986
   97SAPE  C215 9705  -0.090   2.471   6.131 -0.2181  0.0876  0.5761
   97SAPE  H15R 9706  -0.041   2.373   6.122  0.9105  0.7522 -1.1264
   97SAPE  C216 9707  -0.077   2.553   6.011 -0.3154  0.6523  0.4936
   97SAPE  H16R 9708  -0.038   2.655   6.033  2.7182 -0.0676 -1.0207
   97SAPE  H16S 9709  -0.175   2.567   5.962 -0.4713  2.2865  1.2129
   97SAPE  C217 9710   0.032   2.509   5.913 -0.2344 -0.0379 -0.4004
   97SAPE  H17R 9711   0.002   2.419   5.854 -2.0831  1.1990 -1.4663
   97SAPE  H17S 9712   0.131   2.500   5.961  0.6026  1.9226 -1.6477
   97SAPE  C218 9713   0.041   2.616   5.799  0.2854 -0.4891 -0.5230
   97SAPE  H18R 9714   0.090   2.709   5.836 -1.4780 -0.3377  1.6261
   97SAPE  H18S 9715  -0.060   2.651   5.770  0.3012  1.8842  1.8561
   97SAPE  C219 9716   0.096   2.550   5.670 -0.4141 -0.6525  0.0776
   97SAPE  H19R 9717   0.063   2.603   5.578  2.4327 -0.1089 -0.7053
   97SAPE  H19S 9718   0.072   2.442   5.657 -2.3547 -0.1555 -1.0096
   97SAPE  C220 9719   0.253   2.558   5.653  0.3406 -0.1169 -0.3333
   97SAPE  H20R 9720   0.293   2.662   5.645 -0.6907  0.2057 -1.4496
   97SAPE  H20S 9721   0.292   2.510   5.562  2.0629  0.9237 -0.1905
   97SAPE  H20T 9722   0.296   2.507   5.742 -3.6276  0.1920  2.0055
   97SAPE   C33 9723   0.207   2.230   6.843 -0.4112  0.3443  0.7695
   97SAPE   H3X 9724   0.295   2.165   6.865  0.2381 -0.3083 -3.0952
   97SAPE   H3Y 9725   0.218   2.332   6.886 -0.6252 -0.6756  3.4326
   97SAPE   C34 9726   0.221   2.245   6.693  0.3853 -0.2973 -0.3074
   97SAPE   H4X 9727   0.132   2.295   6.649  0.0959 -1.0193 -0.5542
   97SAPE   H4Y 9728   0.215   2.150   6.636  0.1185  0.2339 -1.1843
   97SAPE   C35 9729   0.343   2.331   6.658 -0.0479  0.0868  0.4210
   97SAPE   H5X 9730   0.442   2.286   6.685 -0.7010 -1.6734  0.0454
   97SAPE   H5Y 9731   0.343   2.424   6.719 -0.0477 -0.2487  0.9401
   97SAPE   C36 9732   0.347   2.367   6.508  0.3818  0.3674 -0.3984
   97SAPE   H6X 9733   0.418   2.450   6.489  0.3059  0.5463  0.0942
   97SAPE   H6Y 9734   0.249   2.405   6.471  0.1428  0.0603 -0.0747
   97SAPE   C37 9735   0.379   2.249   6.425 -0.3234 -0.0406  0.0688
   97SAPE   H7X 9736   0.293   2.178   6.433 -1.8306  1.7498  0.3946
   97SAPE   H7Y 9737   0.467   2.205   6.477 -0.6177 -1.0890 -0.2848
   97SAPE   C38 9738   0.396   2.279   6.277 -0.7038  0.2879  0.1108
   97SAPE   H8X 9739   0.457   2.192   6.246  0.4594  0.3363  2.0872
   97SAPE   H8Y 9740   0.462   2.367   6.261 -0.1608 -0.0657  0.3713
   97SAPE   C39 9741   0.264   2.299   6.198  0.1649 -0.4098 -0.5624
   97SAPE   H9X 9742   0.235   2.404   6.220 -0.3580 -0.7432  0.3908
   97SAPE   H9Y 9743   0.190   2.222   6.229  1.3110 -2.3039 -2.2418
   97SAPE  C310 9744   0.278   2.270   6.047 -0.1990  0.9855 -0.2472
   97SAPE  H10X 9745   0.366   2.317   5.998  0.6505  0.2445  0.5264
   97SAPE  H10Y 9746   0.188   2.316   6.001 -1.5146 -0.1564  1.0606
   97SAPE  C311 9747   0.281   2.118   6.020  0.5475 -0.7669 -0.0211
   97SAPE  H11X 9748   0.205   2.072   6.086  0.5196 -1.2378 -0.3725
   97SAPE  H11Y 9749   0.380   2.072   6.043  0.0334 -0.9801  1.9306
   97SAPE  C312 9750   0.241   2.096   5.878  0.6592 -0.5474  0.5441
   97SAPE  H12X 9751   0.159   2.167   5.853  1.2955  0.5697  1.5408
   97SAPE  H12Y 9752   0.212   1.989   5.875 -0.7997 -0.2191  1.7080
   97SAPE  C313 9753   0.350   2.142   5.784 -0.7468 -0.0040 -0.1139
   97SAPE  H13X 9754   0.448   2.092   5.804 -0.6241  0.2038 -0.1914
   97SAPE  H13Y 9755   0.374   2.250   5.796 -0.7036  0.0299 -0.4856
   97SAPE  C314 9756   0.327   2.124   5.628  0.6118  0.8732 -0.2080
   97SAPE  H14X 9757   0.419   2.166   5.582  1.4671 -0.0375  0.6401
   97SAPE  H14Y 9758   0.240   2.186   5.597 -0.6974 -0.6387  0.2681
   97SAPE  C315 9759   0.326   1.978   5.578 -0.3681 -0.5474  0.0387
   97SAPE  H15X 9760   0.233   1.926   5.610  0.1287 -1.0979  0.6117
   97SAPE  H15Y 9761   0.409   1.920   5.622 -0.0817  1.4766  2.3771
   97SAPE  C316 9762   0.320   1.960   5.423  0.5125  0.8771 -0.1290
   97SAPE  H16X 9763   0.222   1.979   5.375  0.6718  2.0837 -0.0145
   97SAPE  H16Y 9764   0.344   1.853   5.405  3.3698  1.2379  1.0028
   97SAPE  C317 9765   0.418   2.054   5.355  0.6743  0.4422 -0.0902
   97SAPE  H17X 9766   0.518   2.031   5.396  0.6140 -1.4739 -0.8990
   97SAPE  H17Y 9767   0.382   2.158   5.368  1.3617  0.6800 -0.0536
   97SAPE  C318 9768   0.441   2.024   5.204 -0.0045 -0.3911 -0.2758
   97SAPE  H18X 9769   0.342   1.998   5.162  0.1699  0.1897 -1.0611
   97SAPE  H18Y 9770   0.506   1.936   5.183  1.0825  0.1988  0.4857
   97SAPE  H18Z 9771   0.474   2.120   5.160  1.6167 -0.2006  1.2185
   98SAPE     N 9772   4.587   0.688   7.356  0.5447  0.1832  0.0917
   98SAPE   HN1 9773   4.666   0.668   7.420  1.4849  0.5279 -0.9352
   98SAPE   HN2 9774   4.513   0.735   7.412 -0.7770 -0.5545 -0.9742
   98SAPE   HN3 9775   4.534   0.604   7.325 -1.4122  1.6447 -0.8187
   98SAPE   C12 9776   4.648   0.764   7.244  0.8697 -0.4985 -0.5649
   98SAPE  H12A 9777   4.576   0.793   7.164  2.1288 -0.0992 -1.5883
   98SAPE  H12B 9778   4.725   0.702   7.195  0.5086  0.2069 -2.1087
   98SAPE   C11 9779   4.712   0.892   7.304  0.3310 -0.2690 -0.5185
   98SAPE  H11A 9780   4.631   0.954   7.346 -0.8313  0.4067 -3.5461
   98SAPE  H11B 9781   4.750   0.953   7.219 -2.0474  2.6695  0.3846
   98SAPE     P 9782   4.964   0.902   7.385  0.0585 -0.7432  0.3801
   98SAPE   O13 9783   4.977   1.044   7.416  0.0431 -0.6242  0.3828
   98SAPE   O14 9784   5.059   0.815   7.458 -0.1597 -0.3530 -0.9486
   98SAPE   O12 9785   4.815   0.858   7.402 -0.2098 -0.0305  0.4338
   98SAPE   O11 9786   4.984   0.885   7.226 -0.1987  0.2277 -0.3579
   98SAPE    C1 9787   5.090   0.816   7.169 -0.7041 -0.1399 -0.0741
   98SAPE    HA 9788   5.186   0.847   7.217 -0.9033 -1.1358  1.0045
   98SAPE    HB 9789   5.086   0.712   7.205 -0.8783 -0.0475  0.1734
   98SAPE    C2 9790   5.105   0.799   7.017  0.0907  0.1112 -0.2340
   98SAPE    HS 9791   5.156   0.889   6.976 -0.7756  0.0372 -1.5455
   98SAPE   O21 9792   4.975   0.765   6.961 -0.3779 -0.2144  0.6273
   98SAPE   C21 9793   4.904   0.874   6.928  0.4455 -0.4058 -0.3440
   98SAPE   O22 9794   4.941   0.989   6.933  0.0107  0.4230  0.0287
   98SAPE   C22 9795   4.762   0.824   6.898 -0.2090 -1.0321  0.0935
   98SAPE   H2R 9796   4.761   0.772   6.800  0.9488 -0.6095 -0.1524
   98SAPE   H2S 9797   4.742   0.749   6.978 -4.7948  1.1732  1.3459
   98SAPE    C3 9798   5.203   0.684   6.988  0.7253  1.4065 -0.1454
   98SAPE    HX 9799   5.159   0.592   7.034 -0.4331  2.3452  0.6984
   98SAPE    HY 9800   5.296   0.707   7.043  0.8352 -2.2845  1.4766
   98SAPE   O31 9801   5.214   0.668   6.846 -0.0055 -0.0124  0.0449
   98SAPE   C31 9802   5.121   0.598   6.783 -0.5471  0.4670 -0.2638
   98SAPE   O32 9803   5.046   0.515   6.834 -0.4270 -0.6652 -0.1591
   98SAPE   C32 9804   5.128   0.620   6.634 -0.3343  0.3763 -0.5897
   98SAPE   H2X 9805   5.141   0.729   6.619 -0.5274  0.3516 -0.9365
   98SAPE   H2Y 9806   5.030   0.597   6.587 -2.1568  1.7198  2.2784
   98SAPE   C23 9807   4.652   0.929   6.894  0.5599  0.2387  0.4142
   98SAPE   H3R 9808   4.676   1.016   6.958  1.1467  1.9859 -2.0184
   98SAPE   H3S 9809   4.567   0.873   6.938  0.4327 -0.1695 -0.3289
   98SAPE   C24 9810   4.604   0.977   6.754 -0.1331  0.0104  0.1253
   98SAPE   H4R 9811   4.524   1.051   6.778  1.7683  2.2607 -0.0593
   98SAPE   H4S 9812   4.567   0.886   6.703 -1.8419 -0.5015  2.1515
   98SAPE   C25 9813   4.716   1.053   6.682  0.0707  0.5209 -0.0040
   98SAPE   H5R 9814   4.751   1.138   6.742 -2.3049  0.3735  1.7309
   98SAPE   C26 9815   4.768   1.023   6.564 -0.7943 -0.4266  0.6428
   98SAPE   H6R 9816   4.845   1.086   6.515 -1.4677 -1.0733 -1.3488
   98SAPE   C27 9817   4.737   0.899   6.479  0.2180 -0.0213 -0.2644
   98SAPE   H7R 9818   4.674   0.831   6.541  1.9326 -0.5540  0.9810
   98SAPE   H7S 9819   4.827   0.835   6.471  0.1421 -0.3116  0.9323
   98SAPE   C28 9820   4.680   0.938   6.346 -0.5003 -0.1585  0.1416
   98SAPE   H8R 9821   4.570   0.947   6.343 -0.4142  1.6199  0.9081
   98SAPE   C29 9822   4.745   0.960   6.231  0.5105  0.8741 -0.3613
   98SAPE   H9R 9823   4.698   1.007   6.144  0.7865  0.0005 -1.0070
   98SAPE  C210 9824   4.895   0.939   6.218 -0.0035 -0.1267  0.5716
   98SAPE  H10R 9825   4.906   0.834   6.186  4.4311  0.0015  1.0489
   98SAPE  H10S 9826   4.948   0.926   6.315  1.2929  0.3030 -0.0631
   98SAPE  C211 9827   4.956   1.037   6.115  0.1214 -0.0731 -0.1690
   98SAPE  H11R 9828   4.997   1.128   6.161  2.0273 -1.1177  0.2929
   98SAPE  C212 9829   4.977   1.021   5.986  0.0440 -0.0075  0.3865
   98SAPE  H12R 9830   5.021   1.106   5.932 -0.5847  0.4033  0.5083
   98SAPE  C213 9831   4.958   0.888   5.913  0.1794  0.2871 -0.2116
   98SAPE  H13R 9832   4.878   0.829   5.962 -0.8620  0.1263 -2.0366
   98SAPE  H13S 9833   5.050   0.826   5.925  0.5544  0.7441 -0.6698
   98SAPE  C214 9834   4.902   0.898   5.772  0.2884  0.8152  1.3493
   98SAPE  H14R 9835   4.936   0.987   5.717  1.7341 -1.4873 -1.7730
   98SAPE  C215 9836   4.833   0.799   5.704 -0.5276 -0.2262 -0.0565
   98SAPE  H15R 9837   4.795   0.825   5.604 -1.3881 -3.0491 -0.5481
   98SAPE  C216 9838   4.792   0.660   5.759  0.1054 -0.0935 -0.5504
   98SAPE  H16R 9839   4.718   0.677   5.841 -1.1928 -0.8151 -1.5400
   98SAPE  H16S 9840   4.879   0.609   5.805  1.7017  2.0270 -1.0310
   98SAPE  C217 9841   4.730   0.564   5.658 -0.3776  0.6898  0.9830
   98SAPE  H17R 9842   4.639   0.608   5.612 -2.0267 -1.9418  1.5245
   98SAPE  H17S 9843   4.702   0.475   5.718 -0.7895 -0.3994 -0.7475
   98SAPE  C218 9844   4.820   0.533   5.537  0.3965 -0.0757 -0.2655
   98SAPE  H18R 9845   4.910   0.492   5.588 -1.4226 -3.5260  0.4506
   98SAPE  H18S 9846   4.841   0.626   5.479 -0.8459  0.2600 -0.1985
   98SAPE  C219 9847   4.754   0.419   5.454 -0.8034  0.7932 -0.1964
   98SAPE  H19R 9848   4.679   0.471   5.391 -0.1614 -0.0551 -1.7125
   98SAPE  H19S 9849   4.707   0.343   5.519 -1.9734  1.7190  0.0862
   98SAPE  C220 9850   4.845   0.364   5.341 -0.6041  0.4287  0.2087
   98SAPE  H20R 9851   4.900   0.444   5.288 -1.3939  0.6323 -0.3267
   98SAPE  H20S 9852   4.784   0.292   5.282 -1.4665  0.0935  1.4618
   98SAPE  H20T 9853   4.919   0.299   5.391 -0.2557 -0.5007 -1.4266
   98SAPE   C33 9854   5.232   0.519   6.581 -0.0552  0.3811 -0.2114
   98SAPE   H3X 9855   5.175   0.424   6.594  0.8957 -0.1949 -0.1769
   98SAPE   H3Y 9856   5.324   0.537   6.640  2.0811  2.7550 -3.9058
   98SAPE   C34 9857   5.270   0.534   6.429  0.5614 -0.5639 -0.2157
   98SAPE   H4X 9858   5.183   0.541   6.360  2.2243  0.8447 -2.3216
   98SAPE   H4Y 9859   5.340   0.451   6.407  1.3981  0.2101 -0.5507
   98SAPE   C35 9860   5.340   0.673   6.388 -0.3680  0.1160  0.5095
   98SAPE   H5X 9861   5.432   0.674   6.451  0.5082  1.7969 -0.7227
   98SAPE   H5Y 9862   5.279   0.758   6.424 -0.3048 -0.5844  2.4236
   98SAPE   C36 9863   5.392   0.664   6.247  0.6812 -0.1626 -0.8049
   98SAPE   H6X 9864   5.379   0.558   6.216 -2.3864  0.0646 -0.6236
   98SAPE   H6Y 9865   5.501   0.679   6.262  0.2433  2.3667  0.2819
   98SAPE   C37 9866   5.338   0.770   6.151  0.3172  0.2298  0.2188
   98SAPE   H7X 9867   5.322   0.869   6.199 -2.9810  0.0836 -0.3449
   98SAPE   H7Y 9868   5.234   0.735   6.131  0.7342  0.2347 -2.3676
   98SAPE   C38 9869   5.421   0.768   6.020  0.7599  0.4718  0.2923
   98SAPE   H8X 9870   5.403   0.679   5.956 -3.4865  1.1765  0.2289
   98SAPE   H8Y 9871   5.530   0.770   6.042  0.9288  0.6345 -0.4924
   98SAPE   C39 9872   5.394   0.902   5.941  0.0086 -0.1225 -0.3065
   98SAPE   H9X 9873   5.418   0.986   6.010  0.0880  0.1793 -0.7009
   98SAPE   H9Y 9874   5.291   0.914   5.901  0.3984  2.3739 -0.7655
   98SAPE  C310 9875   5.492   0.911   5.826 -0.5390  0.0283  0.0595
   98SAPE  H10X 9876   5.484   0.810   5.779 -0.6574 -0.7028  1.6095
   98SAPE  H10Y 9877   5.599   0.921   5.854 -0.5368  1.9824 -0.5185
   98SAPE  C311 9878   5.473   1.026   5.720  0.1224 -0.3228  0.6504
   98SAPE  H11X 9879   5.468   1.123   5.774 -0.5807 -0.5647  1.0255
   98SAPE  H11Y 9880   5.376   1.014   5.666 -0.3470  0.7235  1.2294
   98SAPE  C312 9881   5.589   1.039   5.617 -0.6388 -0.0190  0.1418
   98SAPE  H12X 9882   5.687   1.069   5.662  1.2334 -3.7447 -1.0711
   98SAPE  H12Y 9883   5.565   1.121   5.547 -1.1324  1.8710  2.3818
   98SAPE  C313 9884   5.613   0.914   5.524 -0.2609 -0.5094 -0.0549
   98SAPE  H13X 9885   5.519   0.862   5.498 -0.2916 -0.6299  0.3005
   98SAPE  H13Y 9886   5.669   0.839   5.583  0.5671 -1.1523 -1.5882
   98SAPE  C314 9887   5.696   0.947   5.400 -0.3575  0.2294 -0.4052
   98SAPE  H14X 9888   5.800   0.976   5.423 -0.7483  1.0410  0.4241
   98SAPE  H14Y 9889   5.659   1.044   5.358  0.7382  0.3767 -1.0615
   98SAPE  C315 9890   5.694   0.836   5.291  1.1476  0.2262  0.3986
   98SAPE  H15X 9891   5.586   0.814   5.275  0.7501  0.9153  1.9210
   98SAPE  H15Y 9892   5.747   0.748   5.333 -0.6787 -0.1119  2.1378
   98SAPE  C316 9893   5.767   0.871   5.155 -0.2042  0.2747 -0.1282
   98SAPE  H16X 9894   5.871   0.831   5.159 -0.9647 -1.8042 -0.3425
   98SAPE  H16Y 9895   5.782   0.981   5.159 -0.2571  0.3645 -1.8431
   98SAPE  C317 9896   5.687   0.828   5.041 -0.4177 -0.1392  0.3784
   98SAPE  H17X 9897   5.584   0.870   5.044 -0.5863 -0.5490  0.4687
   98SAPE  H17Y 9898   5.679   0.718   5.060 -2.3526  0.0441  0.9063
   98SAPE  C318 9899   5.750   0.866   4.905 -0.1032 -0.5504  0.3656
   98SAPE  H18X 9900   5.853   0.823   4.904  0.9479  1.6401  2.7646
   98SAPE  H18Y 9901   5.770   0.975   4.895  0.4150 -0.7257 -0.6224
   98SAPE  H18Z 9902   5.688   0.832   4.820  0.5626 -0.7793 -0.0427
   99SAPE     N 9903   6.010   0.444   7.620  0.2556  0.3242  0.4439
   99SAPE   HN1 9904   6.013   0.469   7.519 -0.2271 -1.3419 -0.0092
   99SAPE   HN2 9905   6.041   0.344   7.622  1.0751  0.4307 -2.5387
   99SAPE   HN3 9906   5.909   0.455   7.639  0.1765 -1.0274  0.9144
   99SAPE   C12 9907   6.105   0.526   7.698 -0.5085  0.2926 -0.0182
   99SAPE  H12A 9908   6.213   0.522   7.668  0.4372 -0.5804  3.1142
   99SAPE  H12B 9909   6.118   0.487   7.801  0.5878  0.4563 -0.0764
   99SAPE   C11 9910   6.053   0.665   7.705 -0.3904 -0.6072  0.0169
   99SAPE  H11A 9911   6.123   0.726   7.766 -0.5868 -0.6404  0.2760
   99SAPE  H11B 9912   5.956   0.674   7.758 -0.9606 -1.0861 -0.9153
   99SAPE     P 9913   6.101   0.842   7.516  0.1765 -0.3512  0.2612
   99SAPE   O13 9914   6.067   0.965   7.600 -0.2253  0.0881 -1.0062
   99SAPE   O14 9915   6.245   0.822   7.489  0.2526 -0.7789  0.0477
   99SAPE   O12 9916   6.030   0.707   7.567  0.1397 -0.1761 -0.2452
   99SAPE   O11 9917   6.035   0.869   7.376  0.0745  0.1936  0.4020
   99SAPE    C1 9918   5.899   0.824   7.365 -0.2762  0.2418 -0.2872
   99SAPE    HA 9919   5.890   0.715   7.383  1.8619  0.2950  1.3973
   99SAPE    HB 9920   5.833   0.881   7.434  0.8498  0.7386  0.4089
   99SAPE    C2 9921   5.855   0.842   7.218  0.5251  0.6048  0.2013
   99SAPE    HS 9922   5.759   0.791   7.196  0.0100  0.9699  1.5208
   99SAPE   O21 9923   5.957   0.801   7.123 -0.3089  0.1657  0.0008
   99SAPE   C21 9924   5.981   0.670   7.128 -0.1362 -0.4309 -0.1251
   99SAPE   O22 9925   5.927   0.588   7.202 -0.3197 -0.2386 -0.0874
   99SAPE   C22 9926   6.098   0.645   7.040  0.0855 -0.2643 -0.1693
   99SAPE   H2R 9927   6.110   0.535   7.033  0.5283 -0.1168 -2.3106
   99SAPE   H2S 9928   6.069   0.673   6.937  0.5548 -0.6284 -0.3993
   99SAPE    C3 9929   5.830   0.993   7.183 -0.0300  0.3131  0.6054
   99SAPE    HX 9930   5.922   1.049   7.208  1.2419 -0.2009 -2.4744
   99SAPE    HY 9931   5.749   1.023   7.254 -1.0908 -0.6323 -0.1535
   99SAPE   O31 9932   5.778   1.026   7.050 -0.3479 -0.0341 -0.1750
   99SAPE   C31 9933   5.870   1.092   6.972 -0.0276 -0.0894  0.9690
   99SAPE   O32 9934   5.992   1.086   6.977 -0.4351  0.4419 -0.2491
   99SAPE   C32 9935   5.793   1.160   6.856 -0.5542 -0.2692  0.1199
   99SAPE   H2X 9936   5.762   1.257   6.899 -1.0116  0.4055 -1.6528
   99SAPE   H2Y 9937   5.701   1.104   6.828  0.1297 -1.0498 -0.6327
   99SAPE   C23 9938   6.224   0.719   7.082 -0.6531  0.0875 -0.4045
   99SAPE   H3R 9939   6.245   0.697   7.189 -2.5050 -0.9995 -0.2205
   99SAPE   H3S 9940   6.199   0.826   7.064 -0.1760  0.2823  0.0722
   99SAPE   C24 9941   6.355   0.700   7.005 -0.4363 -0.1493  0.2046
   99SAPE   H4R 9942   6.326   0.724   6.901 -1.3101  2.2034  0.9064
   99SAPE   H4S 9943   6.395   0.599   7.026 -0.4931 -0.3198 -0.4888
   99SAPE   C25 9944   6.457   0.804   7.043 -0.2247  0.5620 -0.2040
   99SAPE   H5R 9945   6.479   0.797   7.150 -2.6004  1.9300  0.4331
   99SAPE   C26 9946   6.494   0.912   6.977  0.6617 -0.1925  0.1198
   99SAPE   H6R 9947   6.571   0.977   7.022 -0.3015 -0.3536  2.1077
   99SAPE   C27 9948   6.462   0.953   6.833 -0.2973 -0.1191 -0.2776
   99SAPE   H7R 9949   6.471   0.869   6.761  0.3689 -1.2259  1.0294
   99SAPE   H7S 9950   6.538   1.029   6.804  0.2060  0.9262  3.2736
   99SAPE   C28 9951   6.321   1.011   6.821 -0.4162  0.8224 -0.0615
   99SAPE   H8R 9952   6.256   0.996   6.908  0.1307 -0.9389  0.0728
   99SAPE   C29 9953   6.264   1.034   6.706  0.3740 -0.1871 -0.7899
   99SAPE   H9R 9954   6.159   1.068   6.703  0.1420 -0.9588 -2.8198
   99SAPE  C210 9955   6.325   1.036   6.572 -0.3900  0.1044  0.4474
   99SAPE  H10R 9956   6.339   0.932   6.536 -0.1775  0.3863 -0.3122
   99SAPE  H10S 9957   6.422   1.089   6.578 -1.1924  2.2966 -2.9179
   99SAPE  C211 9958   6.242   1.109   6.464 -0.2649  0.8349 -0.0691
   99SAPE  H11R 9959   6.221   1.213   6.493 -1.9990  1.4538 -3.1000
   99SAPE  C212 9960   6.218   1.062   6.333  0.3210 -0.0718 -0.0508
   99SAPE  H12R 9961   6.155   1.127   6.270  1.5558  1.0761 -0.1522
   99SAPE  C213 9962   6.235   0.925   6.268 -0.0854  0.0255  0.0401
   99SAPE  H13R 9963   6.143   0.892   6.215  0.0176 -0.1780 -0.0137
   99SAPE  H13S 9964   6.262   0.848   6.344  0.3466 -1.4934 -1.5956
   99SAPE  C214 9965   6.340   0.903   6.157  0.4838 -0.2979 -0.1828
   99SAPE  H14R 9966   6.420   0.836   6.191 -0.1788 -0.6820  0.6536
   99SAPE  C215 9967   6.351   0.973   6.045 -0.2190 -0.2808  0.0175
   99SAPE  H15R 9968   6.433   0.951   5.975  0.3166 -2.1794  1.1549
   99SAPE  C216 9969   6.251   1.072   5.990  0.2594 -0.1010  0.2193
   99SAPE  H16R 9970   6.285   1.177   6.000 -2.3574  0.7371  0.8450
   99SAPE  H16S 9971   6.154   1.067   6.043  0.2520  0.8728  0.3004
   99SAPE  C217 9972   6.223   1.054   5.832 -0.8279  0.4725  0.0992
   99SAPE  H17R 9973   6.315   1.053   5.770  0.3952  0.0936  1.8325
   99SAPE  H17S 9974   6.162   1.138   5.792 -0.7249 -0.7639 -2.9140
   99SAPE  C218 9975   6.144   0.926   5.807  0.6554  0.5058 -0.0793
   99SAPE  H18R 9976   6.065   0.915   5.885 -0.3904 -1.8240 -1.3576
   99SAPE  H18S 9977   6.206   0.835   5.822  1.6853  1.4065  1.3659
   99SAPE  C219 9978   6.081   0.904   5.669 -0.3223 -0.1965 -0.4431
   99SAPE  H19R 9979   6.149   0.898   5.582  0.1741 -2.1772  0.0293
   99SAPE  H19S 9980   6.031   1.002   5.649  1.7449  0.7197 -1.4061
   99SAPE  C220 9981   5.974   0.792   5.661  0.4478 -0.0559  0.0536
   99SAPE  H20R 9982   6.019   0.695   5.689  2.8516  2.1477  4.9975
   99SAPE  H20S 9983   5.916   0.795   5.566  1.3753 -1.2380 -0.5673
   99SAPE  H20T 9984   5.911   0.815   5.749  1.4325 -1.3044  1.1077
   99SAPE   C33 9985   5.890   1.182   6.736  0.3394  0.2475 -0.2194
   99SAPE   H3X 9986   5.908   1.081   6.693 -2.3853 -1.2183  1.7721
   99SAPE   H3Y 9987   5.989   1.224   6.763  0.5643 -0.2872 -0.1848
   99SAPE   C34 9988   5.814   1.259   6.623 -0.3613  0.4354  0.5943
   99SAPE   H4X 9989   5.715   1.213   6.606 -0.5984  0.8901  0.7549
   99SAPE   H4Y 9990   5.879   1.247   6.533 -2.6715 -1.2870 -0.9702
   99SAPE   C35 9991   5.793   1.399   6.669 -0.1312 -0.5855 -0.1508
   99SAPE   H5X 9992   5.897   1.439   6.678 -0.8973  1.9246 -1.3988
   99SAPE   H5Y 9993   5.746   1.408   6.769 -1.8400  0.7278 -1.0133
   99SAPE   C36 9994   5.718   1.474   6.555  0.0798 -0.1750 -0.3531
   99SAPE   H6X 9995   5.764   1.455   6.455 -0.4828 -0.9076 -0.4863
   99SAPE   H6Y 9996   5.723   1.584   6.568 -1.5101 -0.1449  0.2554
   99SAPE   C37 9997   5.566   1.431   6.542 -0.5632 -0.0300 -0.6659
   99SAPE   H7X 9998   5.512   1.410   6.636  0.1815 -0.2125 -0.2657
   99SAPE   H7Y 9999   5.561   1.328   6.503  0.1262  0.0681 -1.0414
   99SAPE   C3810000   5.484   1.537   6.464 -0.0410  0.5405 -0.5379
   99SAPE   H8X10001   5.469   1.632   6.518  0.4060 -0.4137  1.3580
   99SAPE   H8Y10002   5.379   1.500   6.456 -0.4046  1.5807 -0.6862
   99SAPE   C3910003   5.537   1.563   6.322 -0.5929  0.6684 -0.2416
   99SAPE   H9X10004   5.554   1.460   6.284 -0.8404  0.2342  0.7827
   99SAPE   H9Y10005   5.629   1.624   6.337  0.7190 -1.3024  0.1507
   99SAPE  C31010006   5.442   1.633   6.232  0.2450 -0.2233  0.3091
   99SAPE  H10X10007   5.436   1.740   6.262 -0.8457 -0.3470  0.5693
   99SAPE  H10Y10008   5.341   1.587   6.231  0.6671 -1.1619 -0.0174
   99SAPE  C31110009   5.498   1.634   6.086 -0.9949 -0.3780  0.3203
   99SAPE  H11X10010   5.505   1.533   6.041 -2.2432 -0.7663  0.9381
   99SAPE  H11Y10011   5.603   1.669   6.080 -0.8092 -1.0915 -1.0569
   99SAPE  C31210012   5.413   1.726   5.998 -0.4167  0.7235  0.0368
   99SAPE  H12X10013   5.394   1.828   6.037  1.2970  0.4201  1.8571
   99SAPE  H12Y10014   5.313   1.678   6.000  1.0776 -2.9547 -1.7785
   99SAPE  C31310015   5.484   1.731   5.858  0.6948  0.2186 -0.2424
   99SAPE  H13X10016   5.441   1.651   5.793  1.6329  0.3165 -1.0008
   99SAPE  H13Y10017   5.588   1.701   5.883  0.7268  0.4811 -0.0552
   99SAPE  C31410018   5.473   1.872   5.803 -0.0223  0.2088 -0.5647
   99SAPE  H14X10019   5.520   1.937   5.880  2.1568 -1.7017 -0.1943
   99SAPE  H14Y10020   5.367   1.903   5.796 -1.0983 -2.9612  0.1250
   99SAPE  C31510021   5.540   1.887   5.668 -0.2962 -0.3314  0.2753
   99SAPE  H15X10022   5.522   1.797   5.605  2.7610  0.1609 -1.5091
   99SAPE  H15Y10023   5.650   1.897   5.673 -0.3657  1.0804 -0.2624
   99SAPE  C31610024   5.498   2.013   5.606  1.1244 -0.2871  0.2488
   99SAPE  H16X10025   5.553   2.102   5.644 -1.8874  1.5022  0.7567
   99SAPE  H16Y10026   5.390   2.032   5.616  1.4757  0.8068  2.7019
   99SAPE  C31710027   5.533   2.023   5.460 -0.6894 -0.3001  0.4201
   99SAPE  H17X10028   5.488   1.940   5.400  0.1702 -0.7774  0.4206
   99SAPE  H17Y10029   5.644   2.016   5.455 -0.6679 -0.1268  0.6814
   99SAPE  C31810030   5.495   2.155   5.390 -0.1101 -0.5353 -0.5048
   99SAPE  H18X10031   5.553   2.235   5.441 -1.8203  1.3607 -1.3998
   99SAPE  H18Y10032   5.384   2.162   5.390 -0.0708  0.2681 -0.3294
   99SAPE  H18Z10033   5.522   2.157   5.282  1.4465  2.3166 -0.1699
  100SAPE     N10034   3.607   2.152   8.003  0.5434 -0.0613  0.1193
  100SAPE   HN110035   3.591   2.227   8.073 -0.9457  0.1338 -0.4031
  100SAPE   HN210036   3.513   2.110   7.992  0.4386  0.0592  0.5419
  100SAPE   HN310037   3.655   2.069   8.043 -1.0884 -1.0422  0.1564
  100SAPE   C1210038   3.647   2.200   7.864 -0.6159  0.3556 -0.2961
  100SAPE  H12A10039   3.745   2.250   7.877 -0.7282  0.8244 -1.2027
  100SAPE  H12B10040   3.577   2.278   7.830  1.2563  2.0643 -0.4135
  100SAPE   C1110041   3.660   2.072   7.769  0.5490 -0.0874  0.3383
  100SAPE  H11A10042   3.716   2.104   7.678  0.4429 -1.3943 -0.2176
  100SAPE  H11B10043   3.557   2.033   7.760  0.9861 -1.8390  2.1832
  100SAPE     P10044   3.868   1.911   7.784  0.2153  0.0624 -0.1804
  100SAPE   O1310045   3.972   2.005   7.828 -0.3344  0.3626  0.1502
  100SAPE   O1410046   3.888   1.775   7.830 -0.4703  0.4030  0.1254
  100SAPE   O1210047   3.729   1.963   7.834 -0.0561  0.3951 -0.3171
  100SAPE   O1110048   3.854   1.914   7.631 -0.8129 -0.4729  0.2799
  100SAPE    C110049   3.780   1.808   7.562  0.3643  0.0989 -0.5543
  100SAPE    HA10050   3.829   1.709   7.578  1.2932  0.4193 -1.3253
  100SAPE    HB10051   3.680   1.798   7.610 -0.2593 -0.1336 -1.8491
  100SAPE    C210052   3.759   1.833   7.414  0.2277 -0.7755  0.1280
  100SAPE    HS10053   3.687   1.763   7.367 -0.8013  1.5206 -1.9081
  100SAPE   O2110054   3.882   1.828   7.345  0.0317 -0.3663  0.4590
  100SAPE   C2110055   3.898   1.755   7.235  0.0551 -0.8021 -0.3536
  100SAPE   O2210056   3.820   1.677   7.181 -0.6700  0.6063 -0.2315
  100SAPE   C2210057   4.038   1.780   7.182 -0.6999 -0.1040 -1.3823
  100SAPE   H2R10058   4.013   1.861   7.111 -2.4798  0.4340 -0.2206
  100SAPE   H2S10059   4.101   1.803   7.271 -1.5154 -3.2498  0.1969
  100SAPE    C310060   3.687   1.970   7.401 -0.2583 -0.8355 -0.4357
  100SAPE    HX10061   3.760   2.038   7.448  0.7532 -0.6040 -2.2596
  100SAPE    HY10062   3.596   1.952   7.463  1.1491 -3.2382  1.1046
  100SAPE   O3110063   3.649   2.006   7.264  0.1962 -0.8167  0.3295
  100SAPE   C3110064   3.549   1.939   7.209  0.3037 -0.6378  0.5100
  100SAPE   O3210065   3.495   1.846   7.268 -0.0755 -1.0845  0.3237
  100SAPE   C3210066   3.493   1.982   7.076 -0.1114 -0.0725 -0.1082
  100SAPE   H2X10067   3.457   2.087   7.085  1.5619  0.7203 -1.9382
  100SAPE   H2Y10068   3.397   1.930   7.060  0.2953 -0.5576 -1.0840
  100SAPE   C2310069   4.113   1.660   7.115  0.1982  0.3265  0.7161
  100SAPE   H3R10070   4.082   1.559   7.150  1.9804 -0.1130  1.1840
  100SAPE   H3S10071   4.221   1.661   7.143  0.8408  0.0562 -1.5282
  100SAPE   C2410072   4.115   1.679   6.962  0.2849 -0.0026 -0.3932
  100SAPE   H4R10073   4.009   1.693   6.930 -0.2788  1.1506  1.7457
  100SAPE   H4S10074   4.145   1.586   6.909 -1.6170 -1.7189  1.3327
  100SAPE   C2510075   4.200   1.789   6.922 -0.0999 -0.0752 -0.2901
  100SAPE   H5R10076   4.306   1.763   6.935 -0.6827 -2.7378 -0.1946
  100SAPE   C2610077   4.165   1.898   6.852 -0.1908 -0.0798  0.2185
  100SAPE   H6R10078   4.242   1.972   6.827  1.5760 -1.0763  2.2809
  100SAPE   C2710079   4.025   1.946   6.827 -0.5645 -0.2848 -0.5815
  100SAPE   H7R10080   3.961   1.913   6.912  1.1065 -0.9412  0.4736
  100SAPE   H7S10081   3.989   1.880   6.745 -1.1142 -0.3321 -0.3091
  100SAPE   C2810082   4.003   2.089   6.786 -0.5408 -0.5312 -0.0014
  100SAPE   H8R10083   3.963   2.147   6.870 -2.8297 -1.5945 -0.2803
  100SAPE   C2910084   4.013   2.142   6.658  0.4207 -0.4978  0.2853
  100SAPE   H9R10085   4.003   2.250   6.641 -1.3245 -1.0751 -3.6680
  100SAPE  C21010086   4.064   2.061   6.541  0.2600 -0.0150  0.8971
  100SAPE  H10R10087   3.982   2.020   6.479  0.5049  0.3859  0.3009
  100SAPE  H10S10088   4.125   1.973   6.570  0.1782  0.2544  1.9380
  100SAPE  C21110089   4.151   2.146   6.449  0.2276  0.4715 -0.0127
  100SAPE  H11R10090   4.257   2.149   6.478 -0.0236 -0.4220  1.0769
  100SAPE  C21210091   4.108   2.201   6.338 -0.8867 -0.0611 -0.8597
  100SAPE  H12R10092   4.175   2.273   6.288 -1.7470  1.4514  0.0783
  100SAPE  C21310093   3.972   2.200   6.268 -0.3196 -0.3786  0.0339
  100SAPE  H13R10094   3.891   2.160   6.332  0.7389 -0.0521  1.6392
  100SAPE  H13S10095   3.966   2.130   6.182 -0.5291  1.1902 -1.2694
  100SAPE  C21410096   3.928   2.337   6.225  0.5301  0.8895 -0.1817
  100SAPE  H14R10097   3.897   2.401   6.310  2.1299 -0.0372  1.1578
  100SAPE  C21510098   3.926   2.387   6.099 -0.5687  0.2071 -0.0180
  100SAPE  H15R10099   3.909   2.494   6.081 -0.4769  0.3437  0.6692
  100SAPE  C21610100   3.952   2.313   5.973  0.9753  0.4030  0.5278
  100SAPE  H16R10101   3.900   2.366   5.890  1.3648 -0.2633 -0.1657
  100SAPE  H16S10102   3.916   2.208   5.971  2.2352 -0.0519 -1.1958
  100SAPE  C21710103   4.094   2.291   5.929 -0.1959  0.0583  0.4750
  100SAPE  H17R10104   4.097   2.195   5.874 -0.9371  1.3532 -1.9672
  100SAPE  H17S10105   4.173   2.277   6.006  1.4504  0.5634 -1.0447
  100SAPE  C21810106   4.146   2.377   5.815 -0.1499  0.1095  0.6373
  100SAPE  H18R10107   4.139   2.480   5.857 -2.1848  0.5347 -0.6061
  100SAPE  H18S10108   4.084   2.389   5.724 -0.1371  2.5571  0.8878
  100SAPE  C21910109   4.290   2.341   5.772  0.6791 -0.0205 -0.6054
  100SAPE  H19R10110   4.358   2.337   5.861  2.4692 -0.2305 -1.9335
  100SAPE  H19S10111   4.333   2.429   5.721  0.4894  0.8852  0.7297
  100SAPE  C22010112   4.290   2.211   5.690 -0.3461  0.7991  0.0964
  100SAPE  H20R10113   4.399   2.198   5.673 -0.5586  0.0365 -0.7730
  100SAPE  H20S10114   4.243   2.231   5.591 -0.5721  1.6471  0.3641
  100SAPE  H20T10115   4.247   2.124   5.744 -1.4036  2.2432  1.7082
  100SAPE   C3310116   3.588   1.975   6.953 -0.1980  0.2178 -0.6251
  100SAPE   H3X10117   3.583   1.873   6.909 -1.0778  0.3862 -0.9378
  100SAPE   H3Y10118   3.688   2.012   6.984  0.1523  0.8705 -2.3826
  100SAPE   C3410119   3.538   2.065   6.835 -0.3716 -0.2020  0.2775
  100SAPE   H4X10120   3.558   2.172   6.860 -3.3484  0.3248  0.7682
  100SAPE   H4Y10121   3.429   2.053   6.820 -0.2211 -1.4336  0.0659
  100SAPE   C3510122   3.608   2.023   6.695  0.5290 -0.6289  0.2176
  100SAPE   H5X10123   3.616   1.913   6.681  1.5659 -0.5819  0.3287
  100SAPE   H5Y10124   3.711   2.062   6.711  0.0813  1.3514 -1.3088
  100SAPE   C3610125   3.547   2.099   6.581 -1.0121 -0.1972  0.3205
  100SAPE   H6X10126   3.551   2.206   6.609  0.7992 -0.3447  0.7224
  100SAPE   H6Y10127   3.440   2.074   6.564 -1.1405  1.0003 -0.7628
  100SAPE   C3710128   3.609   2.069   6.447 -0.4097  0.3155 -0.0771
  100SAPE   H7X10129   3.637   1.962   6.435  0.5769  0.4930  0.5010
  100SAPE   H7Y10130   3.706   2.122   6.440  0.6581 -1.5372 -0.1849
  100SAPE   C3810131   3.516   2.101   6.335  0.1786 -0.6760 -0.0902
  100SAPE   H8X10132   3.459   2.195   6.348 -0.9701 -1.6016  2.0368
  100SAPE   H8Y10133   3.429   2.032   6.342 -0.8574  0.3249 -2.1952
  100SAPE   C3910134   3.593   2.099   6.206 -0.8279  0.2292  0.4642
  100SAPE   H9X10135   3.656   2.009   6.225  0.3716  1.0804  0.6443
  100SAPE   H9Y10136   3.668   2.180   6.196 -0.5327 -0.0005  0.7792
  100SAPE  C31010137   3.514   2.074   6.079 -0.0664 -0.5840  0.6416
  100SAPE  H10X10138   3.423   2.138   6.084  0.2639 -0.0636  0.0769
  100SAPE  H10Y10139   3.485   1.967   6.073 -0.8805 -0.4046  1.1860
  100SAPE  C31110140   3.589   2.107   5.957 -0.5916 -0.5652  1.1296
  100SAPE  H11X10141   3.670   2.032   5.949 -1.0721 -1.2382  2.2238
  100SAPE  H11Y10142   3.618   2.213   5.974 -2.5200  0.8739 -3.1444
  100SAPE  C31210143   3.514   2.113   5.819 -0.3673  0.5056 -0.1763
  100SAPE  H12X10144   3.428   2.183   5.820 -0.6740  0.1902 -1.5892
  100SAPE  H12Y10145   3.487   2.006   5.809  0.4249  0.3103 -0.2932
  100SAPE  C31310146   3.602   2.155   5.707  0.2167  0.1764 -0.3937
  100SAPE  H13X10147   3.697   2.098   5.713  1.4807  2.2794  2.3366
  100SAPE  H13Y10148   3.630   2.263   5.712  1.3366 -0.1682  2.3960
  100SAPE  C31410149   3.553   2.130   5.563 -0.4183  0.3855  0.4940
  100SAPE  H14X10150   3.477   2.210   5.547  0.6753  1.6750  1.4717
  100SAPE  H14Y10151   3.512   2.027   5.556 -0.3290  0.3210  0.8537
  100SAPE  C31510152   3.656   2.158   5.454 -0.3611 -0.0679  0.1948
  100SAPE  H15X10153   3.721   2.068   5.457  0.1206  0.2924  1.9745
  100SAPE  H15Y10154   3.722   2.242   5.487 -1.9926  1.4211 -0.1988
  100SAPE  C31610155   3.601   2.181   5.314 -0.0443 -0.1681  0.4664
  100SAPE  H16X10156   3.516   2.253   5.312 -0.9667 -1.2357  0.1306
  100SAPE  H16Y10157   3.561   2.081   5.288  1.2199 -0.2459 -1.3593
  100SAPE  C31710158   3.701   2.222   5.206 -0.1503  0.7830  0.2449
  100SAPE  H17X10159   3.779   2.144   5.194 -0.1805  0.4141  2.1083
  100SAPE  H17Y10160   3.748   2.320   5.229  1.2961 -0.0048  0.7814
  100SAPE  C31810161   3.627   2.232   5.068 -0.5266  0.1236  0.5771
  100SAPE  H18X10162   3.698   2.239   4.983 -0.7813 -1.4071  0.2120
  100SAPE  H18Y10163   3.554   2.316   5.073 -2.7696 -1.7893  3.0242
  100SAPE  H18Z10164   3.568   2.143   5.038 -2.0866  2.0847 -2.7918
  101SAPE     N10165   0.211   0.130   7.314  0.5807  0.0653 -0.6294
  101SAPE   HN110166   0.299   0.105   7.364 -0.7409 -1.5424  1.0784
  101SAPE   HN210167   0.170   0.042   7.275  3.5405 -1.6214 -0.2914
  101SAPE   HN310168   0.233   0.193   7.235 -0.3283 -0.8750 -1.6619
  101SAPE   C1210169   0.104   0.198   7.390 -0.0423  0.7367 -0.3443
  101SAPE  H12A10170   0.156   0.232   7.482 -2.7284 -0.9708  1.9746
  101SAPE  H12B10171   0.034   0.118   7.425 -0.1969  0.9337 -0.2023
  101SAPE   C1110172   0.050   0.319   7.317  0.9668  0.3915  0.1882
  101SAPE  H11A10173  -0.019   0.380   7.379  0.3093  1.3765 -1.4701
  101SAPE  H11B10174  -0.019   0.286   7.237  1.2779  3.0613 -1.2809
  101SAPE     P10175   0.233   0.500   7.345 -0.0986 -0.0921  0.2341
  101SAPE   O1310176   0.131   0.608   7.368  0.0610  0.1870  0.2977
  101SAPE   O1410177   0.307   0.441   7.459 -0.5541  0.2475 -0.1205
  101SAPE   O1210178   0.158   0.393   7.257 -0.4236  0.1536 -0.5592
  101SAPE   O1110179   0.336   0.558   7.236  0.6830 -0.4299 -0.0355
  101SAPE    C110180   0.320   0.541   7.096 -0.5730 -0.3583  0.2956
  101SAPE    HA10181   0.229   0.491   7.057  1.2140 -0.9972 -3.4658
  101SAPE    HB10182   0.326   0.639   7.044 -0.7793 -0.3961  0.1970
  101SAPE    C210183   0.437   0.454   7.034 -0.5906 -0.1251  0.5241
  101SAPE    HS10184   0.529   0.504   7.071 -0.8108 -0.6810  1.8828
  101SAPE   O2110185   0.441   0.455   6.888 -0.1403 -0.1145 -0.7052
  101SAPE   C2110186   0.557   0.414   6.841  0.2587 -0.1312 -0.6412
  101SAPE   O2210187   0.657   0.395   6.910 -0.1763 -0.3469 -0.7173
  101SAPE   C2210188   0.544   0.394   6.696  0.2943  0.4320 -0.4015
  101SAPE   H2R10189   0.599   0.299   6.683 -0.6331 -0.0018 -1.3240
  101SAPE   H2S10190   0.436   0.374   6.677  0.7635 -0.8938 -1.9016
  101SAPE    C310191   0.444   0.307   7.099  0.0588  0.4693 -0.2862
  101SAPE    HX10192   0.439   0.326   7.209 -0.1811 -1.2027  0.0181
  101SAPE    HY10193   0.540   0.255   7.077  0.6719  1.0746  0.7966
  101SAPE   O3110194   0.327   0.229   7.068 -0.3656 -0.3860  0.0779
  101SAPE   C3110195   0.334   0.165   6.956  0.4927  0.8209  0.4242
  101SAPE   O3210196   0.426   0.149   6.880 -0.2204  0.0371 -0.0233
  101SAPE   C3210197   0.195   0.088   6.925 -0.2895  0.3182  0.6610
  101SAPE   H2X10198   0.120   0.163   6.959  0.2825  1.4081 -0.3767
  101SAPE   H2Y10199   0.191   0.000   6.992  1.5823  0.6553  1.2791
  101SAPE   C2310200   0.612   0.505   6.615  0.4862 -0.1738  0.2972
  101SAPE   H3R10201   0.719   0.514   6.640  0.5258  3.8991 -0.5325
  101SAPE   H3S10202   0.561   0.599   6.648  2.4064  0.9697  0.1317
  101SAPE   C2410203   0.593   0.488   6.459  0.0104 -0.1462 -0.3397
  101SAPE   H4R10204   0.492   0.445   6.439 -0.8420  1.6994 -0.2452
  101SAPE   H4S10205   0.662   0.415   6.413  0.9712  0.9080 -0.6079
  101SAPE   C2510206   0.612   0.621   6.386 -0.3673  0.2721  0.0197
  101SAPE   H5R10207   0.540   0.701   6.410  0.5402  1.1018  0.0212
  101SAPE   C2610208   0.713   0.649   6.300  0.5582  0.6316  0.3804
  101SAPE   H6R10209   0.704   0.751   6.260  2.4593  1.3535  1.6430
  101SAPE   C2710210   0.825   0.571   6.250 -0.2852 -0.0531  0.4527
  101SAPE   H7R10211   0.800   0.475   6.199 -2.5119  1.2732 -1.0883
  101SAPE   H7S10212   0.893   0.530   6.327  0.1396  1.7370  1.0756
  101SAPE   C2810213   0.904   0.650   6.142  0.8375 -0.8066  0.5448
  101SAPE   H8R10214   0.854   0.744   6.116 -0.2082 -0.5839  3.0924
  101SAPE   C2910215   1.024   0.608   6.084 -0.5206  0.1749  0.2965
  101SAPE   H9R10216   1.060   0.687   6.017  0.5389 -0.3856  0.1978
  101SAPE  C21010217   1.107   0.494   6.129  0.5110 -0.8693  0.2986
  101SAPE  H10R10218   1.082   0.399   6.076 -0.6224 -0.0450 -0.6955
  101SAPE  H10S10219   1.091   0.477   6.238  0.7358 -0.2379  0.4307
  101SAPE  C21110220   1.251   0.515   6.113 -0.3121 -0.8098 -0.1255
  101SAPE  H11R10221   1.297   0.538   6.210  0.3254  0.5430 -0.7230
  101SAPE  C21210222   1.321   0.516   6.003 -0.4463  0.3931  1.0144
  101SAPE  H12R10223   1.430   0.531   6.017  0.0205 -1.4634 -0.2616
  101SAPE  C21310224   1.265   0.470   5.869  0.4994 -0.5407 -0.1587
  101SAPE  H13R10225   1.261   0.559   5.802 -1.5527 -0.1007  0.4647
  101SAPE  H13S10226   1.158   0.444   5.883  0.7402 -1.0141  0.8617
  101SAPE  C21410227   1.339   0.358   5.800  0.1026  0.0875 -0.7000
  101SAPE  H14R10228   1.425   0.313   5.851 -0.1198  0.0679 -0.3387
  101SAPE  C21510229   1.302   0.297   5.685  0.4769 -0.7406 -0.4098
  101SAPE  H15R10230   1.376   0.222   5.650 -0.6196 -0.8227 -2.7643
  101SAPE  C21610231   1.178   0.322   5.594  0.0755 -0.0960 -0.2372
  101SAPE  H16R10232   1.223   0.358   5.499  1.0155 -0.8106 -0.0833
  101SAPE  H16S10233   1.126   0.412   5.634  0.8192  0.0203  0.5037
  101SAPE  C21710234   1.084   0.205   5.573  0.1372 -0.1062 -0.9107
  101SAPE  H17R10235   1.135   0.118   5.525  0.3880 -0.8302  0.6264
  101SAPE  H17S10236   1.002   0.237   5.505 -0.8941 -1.2896 -0.2634
  101SAPE  C21810237   1.023   0.169   5.709  0.0414  0.2613  0.3525
  101SAPE  H18R10238   0.944   0.238   5.746 -1.0140 -0.7684  0.0750
  101SAPE  H18S10239   1.111   0.160   5.777  0.5210 -0.0453 -0.2970
  101SAPE  C21910240   0.930   0.047   5.689  0.5075 -0.1634  0.1952
  101SAPE  H19R10241   0.892   0.012   5.788 -5.0382  2.2476 -0.7103
  101SAPE  H19S10242   0.993  -0.032   5.644 -0.3928 -0.3252 -0.8259
  101SAPE  C22010243   0.802   0.071   5.614 -1.1017  0.7447  0.1228
  101SAPE  H20R10244   0.732   0.137   5.668 -0.5681  0.1270  1.6355
  101SAPE  H20S10245   0.747  -0.025   5.598  0.0139  0.1182 -0.0842
  101SAPE  H20T10246   0.817   0.127   5.519  0.2946 -0.5234 -0.4573
  101SAPE   C3310247   0.158   0.056   6.774 -0.3336 -0.0547  0.4300
  101SAPE   H3X10248   0.064  -0.001   6.759 -0.3350  0.0250  0.1234
  101SAPE   H3Y10249   0.238  -0.008   6.731 -0.7627 -0.1833 -0.1951
  101SAPE   C3410250   0.163   0.189   6.683 -0.2120  0.4831  0.1361
  101SAPE   H4X10251   0.223   0.264   6.739  0.0050 -0.1891  0.8187
  101SAPE   H4Y10252   0.058   0.227   6.686 -0.5916 -0.4598 -0.6534
  101SAPE   C3510253   0.207   0.146   6.544  0.0611 -0.7836  0.7139
  101SAPE   H5X10254   0.145   0.060   6.510  0.4357 -0.4172 -0.9818
  101SAPE   H5Y10255   0.315   0.121   6.549  0.8932  2.0574 -0.8626
  101SAPE   C3610256   0.190   0.253   6.434 -0.1141 -0.7742 -0.1564
  101SAPE   H6X10257   0.228   0.353   6.464 -2.4978  0.1643 -0.0464
  101SAPE   H6Y10258   0.080   0.267   6.420 -0.0100  2.1613  1.1441
  101SAPE   C3710259   0.244   0.209   6.299 -0.1534  0.3945  0.3535
  101SAPE   H7X10260   0.201   0.272   6.218 -2.2871 -2.2667 -0.7082
  101SAPE   H7Y10261   0.216   0.103   6.284  0.5765  0.3486 -0.7029
  101SAPE   C3810262   0.391   0.222   6.278 -0.4606 -0.0657  0.1976
  101SAPE   H8X10263   0.448   0.178   6.362  0.7511 -0.9018 -1.0139
  101SAPE   H8Y10264   0.410   0.331   6.281 -2.2043  0.2410  2.1021
  101SAPE   C3910265   0.437   0.174   6.139 -0.2453 -0.9325  0.4229
  101SAPE   H9X10266   0.373   0.240   6.077  0.8782 -0.1731  0.0358
  101SAPE   H9Y10267   0.418   0.065   6.128  0.7003 -1.2002  1.2849
  101SAPE  C31010268   0.585   0.205   6.108 -0.2225  0.3096 -0.0916
  101SAPE  H10X10269   0.643   0.138   6.176  0.1204  2.8972  2.3355
  101SAPE  H10Y10270   0.610   0.307   6.143 -0.0754 -0.8145  3.5686
  101SAPE  C31110271   0.627   0.199   5.964  0.8588  0.0214 -0.3920
  101SAPE  H11X10272   0.583   0.104   5.925 -0.2387  0.8568 -1.2328
  101SAPE  H11Y10273   0.738   0.207   5.961  0.9621 -0.3895  1.2737
  101SAPE  C31210274   0.578   0.310   5.881 -0.7730  0.4366 -0.2434
  101SAPE  H12X10275   0.471   0.339   5.895 -0.7194  0.8357 -0.6375
  101SAPE  H12Y10276   0.573   0.273   5.776  0.6711  1.4331 -0.6903
  101SAPE  C31310277   0.670   0.440   5.881  0.2877 -0.2651 -0.7216
  101SAPE  H13X10278   0.777   0.422   5.857  0.6918 -1.7387  1.8858
  101SAPE  H13Y10279   0.680   0.469   5.988  0.7202  1.2569 -1.1459
  101SAPE  C31410280   0.606   0.544   5.786  0.3314 -0.6559 -0.6737
  101SAPE  H14X10281   0.498   0.551   5.812  0.5067 -0.2898 -0.0005
  101SAPE  H14Y10282   0.611   0.508   5.682  1.0121  0.9903 -1.2521
  101SAPE  C31510283   0.688   0.677   5.799  0.0435  0.7677  0.8534
  101SAPE  H15X10284   0.706   0.690   5.908 -0.5137  1.8222  0.8353
  101SAPE  H15Y10285   0.624   0.758   5.759  0.7032  1.5663  1.3782
  101SAPE  C31610286   0.829   0.699   5.730  0.0653  0.0612 -0.5698
  101SAPE  H16X10287   0.843   0.649   5.632  1.2367 -2.1223  0.6063
  101SAPE  H16Y10288   0.901   0.629   5.779  1.5133  0.9581 -1.3516
  101SAPE  C31710289   0.869   0.849   5.720 -0.2915 -0.2484 -0.3370
  101SAPE  H17X10290   0.800   0.904   5.651  0.6608  0.2579 -0.9135
  101SAPE  H17Y10291   0.972   0.856   5.679  1.3804  1.3382  3.6711
  101SAPE  C31810292   0.883   0.918   5.856 -0.7499  0.2021  0.1108
  101SAPE  H18X10293   0.932   1.018   5.851  1.3662 -0.5741  2.8447
  101SAPE  H18Y10294   0.938   0.854   5.927 -0.0167  0.2870 -0.3668
  101SAPE  H18Z10295   0.788   0.938   5.909 -0.7940 -2.5437  1.2042
  102SAPE     N10296   0.728   5.795   7.633  0.5519 -0.6229  0.0204
  102SAPE   HN110297   0.634   5.825   7.665 -0.6263 -4.3609  0.6596
  102SAPE   HN210298   0.766   5.737   7.711  1.0806  0.9804  0.9993
  102SAPE   HN310299   0.790   5.877   7.618  0.4025 -0.1851  1.6209
  102SAPE   C1210300   0.714   5.733   7.500  0.1688  0.2297 -0.8350
  102SAPE  H12A10301   0.806   5.673   7.483 -1.0767 -2.0799  0.0211
  102SAPE  H12B10302   0.697   5.803   7.415 -1.9541 -0.6103 -1.1584
  102SAPE   C1110303   0.601   5.635   7.503  0.1418  0.3304 -0.5935
  102SAPE  H11A10304   0.638   5.547   7.560 -2.3191  0.7777  1.9394
  102SAPE  H11B10305   0.578   5.600   7.400 -0.9123  0.2733 -0.3466
  102SAPE     P10306   0.354   5.596   7.552  0.0907  0.3832  0.2917
  102SAPE   O1310307   0.300   5.570   7.683 -0.3231  0.1492 -0.5752
  102SAPE   O1410308   0.275   5.688   7.467 -0.1719 -0.1915  0.3718
  102SAPE   O1210309   0.490   5.671   7.583 -0.1663 -0.4610 -0.0633
  102SAPE   O1110310   0.388   5.456   7.458 -0.1698  0.2458  0.0687
  102SAPE    C110311   0.281   5.357   7.441 -0.0165  0.8814  0.3403
  102SAPE    HA10312   0.287   5.274   7.515 -1.4729 -1.3949 -1.9111
  102SAPE    HB10313   0.181   5.398   7.469 -1.0753 -2.3260  1.7311
  102SAPE    C210314   0.285   5.300   7.297  0.1449  0.2871  0.4448
  102SAPE    HS10315   0.378   5.238   7.293  1.5123  2.1985 -4.0108
  102SAPE   O2110316   0.294   5.417   7.205 -0.1085  0.1450 -0.1463
  102SAPE   C2110317   0.419   5.450   7.171  0.0730 -0.0820  0.4047
  102SAPE   O2210318   0.524   5.391   7.187 -0.0110  0.4958  0.0496
  102SAPE   C2210319   0.420   5.582   7.090  0.6761 -0.5522 -0.0365
  102SAPE   H2R10320   0.355   5.553   7.005 -0.9240 -0.6598  1.1995
  102SAPE   H2S10321   0.368   5.660   7.149  1.1288 -1.1261  1.1525
  102SAPE    C310322   0.163   5.210   7.263  0.0946 -0.1029  0.1284
  102SAPE    HX10323   0.070   5.259   7.298 -1.4636 -2.3680 -0.6526
  102SAPE    HY10324   0.167   5.116   7.324 -0.2601 -1.4441 -1.8358
  102SAPE   O3110325   0.167   5.176   7.124  0.1509 -0.5678 -0.0771
  102SAPE   C3110326   0.262   5.093   7.085  0.5690 -1.3992  0.8693
  102SAPE   O3210327   0.335   5.029   7.158 -0.2604  0.0157 -0.6430
  102SAPE   C3210328   0.267   5.083   6.931  0.2441 -0.1419  0.7343
  102SAPE   H2X10329   0.296   5.184   6.894  0.3957 -0.5451 -0.2842
  102SAPE   H2Y10330   0.165   5.055   6.897  0.6401  0.0789 -0.7079
  102SAPE   C2310331   0.567   5.622   7.040 -0.6086 -0.2400 -0.3327
  102SAPE   H3R10332   0.615   5.538   6.985  0.9885  0.6197 -0.3134
  102SAPE   H3S10333   0.627   5.646   7.131  1.9483  0.9345 -2.1912
  102SAPE   C2410334   0.580   5.746   6.951  0.8190  0.0547  0.0897
  102SAPE   H4R10335   0.684   5.784   6.944  0.3011  1.4835 -0.1876
  102SAPE   H4S10336   0.517   5.829   6.988 -0.2443 -0.4541 -0.5185
  102SAPE   C2510337   0.540   5.715   6.813 -0.7029  0.6874 -0.3816
  102SAPE   H5R10338   0.602   5.630   6.783 -2.2798 -1.2883  1.6586
  102SAPE   C2610339   0.461   5.779   6.729 -0.4200  0.6763 -0.1990
  102SAPE   H6R10340   0.445   5.734   6.630  0.7490  1.7848 -0.9196
  102SAPE   C2710341   0.378   5.905   6.757 -0.5294 -0.1213  0.1192
  102SAPE   H7R10342   0.319   5.882   6.848  0.5830  1.4188  1.2771
  102SAPE   H7S10343   0.319   5.935   6.667  0.6451 -0.2917 -0.7319
  102SAPE   C2810344   0.462   6.020   6.808  0.0569 -0.1202  0.2035
  102SAPE   H8R10345   0.548   5.990   6.869 -0.4984  1.3446  1.7589
  102SAPE   C2910346   0.470   6.147   6.759  0.3520  0.0295 -0.7870
  102SAPE   H9R10347   0.546   6.207   6.811  1.3526 -1.5236 -0.3972
  102SAPE  C21010348   0.393   6.215   6.645 -0.5336  0.4673  0.6223
  102SAPE  H10R10349   0.421   6.176   6.545 -4.3929 -0.8238 -0.1529
  102SAPE  H10S10350   0.427   6.320   6.634 -1.6119  0.6609 -1.3565
  102SAPE  C21110351   0.241   6.205   6.655  0.4600 -0.4870  0.0822
  102SAPE  H11R10352   0.188   6.230   6.748 -1.9552  2.1929 -1.8143
  102SAPE  C21210353   0.166   6.190   6.546  0.4872  0.3750  0.5529
  102SAPE  H12R10354   0.056   6.188   6.554  0.5293  0.0031  1.1449
  102SAPE  C21310355   0.215   6.166   6.404 -0.4393 -0.5826  0.2784
  102SAPE  H13R10356   0.270   6.070   6.416  0.4649 -0.4424 -2.2581
  102SAPE  H13S10357   0.287   6.248   6.384  0.2909 -0.9145  1.4391
  102SAPE  C21410358   0.113   6.163   6.291 -0.5513 -0.4852  0.3266
  102SAPE  H14R10359   0.018   6.116   6.321  0.1192 -1.0542  1.6503
  102SAPE  C21510360   0.116   6.227   6.175  0.2499 -0.0274  0.0226
  102SAPE  H15R10361   0.026   6.212   6.113 -1.0484 -0.0503  1.8357
  102SAPE  C21610362   0.226   6.305   6.115 -0.4570 -0.2523 -0.0680
  102SAPE  H16R10363   0.321   6.256   6.145 -0.9760 -1.4890 -0.3899
  102SAPE  H16S10364   0.220   6.412   6.145 -3.3405 -0.3123 -0.1593
  102SAPE  C21710365   0.228   6.316   5.961 -0.9717  0.3693 -0.1549
  102SAPE  H17R10366   0.326   6.363   5.939 -0.4747 -0.5414  0.0734
  102SAPE  H17S10367   0.145   6.384   5.934 -0.5468  1.2542  0.7155
  102SAPE  C21810368   0.232   6.180   5.890 -0.2120  0.0246  0.6323
  102SAPE  H18R10369   0.133   6.139   5.923 -0.6190 -0.7523 -1.4321
  102SAPE  H18S10370   0.317   6.119   5.927  1.7519  0.8534 -2.2255
  102SAPE  C21910371   0.235   6.188   5.734 -0.1327  0.7483 -1.1093
  102SAPE  H19R10372   0.260   6.088   5.693  0.6095  0.9810 -1.2330
  102SAPE  H19S10373   0.315   6.262   5.713  0.3935 -0.1860 -2.5649
  102SAPE  C22010374   0.096   6.229   5.678  0.5789 -0.0445 -0.4839
  102SAPE  H20R10375   0.023   6.157   5.719  0.3798  0.1990 -0.4090
  102SAPE  H20S10376   0.096   6.215   5.568 -1.9503 -0.0737 -0.5373
  102SAPE  H20T10377   0.059   6.329   5.710  0.7877 -0.1881  0.2285
  102SAPE   C3310378   0.362   4.971   6.883  0.0555  0.3127 -0.8264
  102SAPE   H3X10379   0.363   4.886   6.954 -1.3715  1.8030  1.0952
  102SAPE   H3Y10380   0.461   5.023   6.877  0.5097 -0.5156 -0.6630
  102SAPE   C3410381   0.336   4.920   6.740 -0.9364  0.1602 -0.5531
  102SAPE   H4X10382   0.330   5.010   6.676  0.8358  0.4370 -0.3962
  102SAPE   H4Y10383   0.237   4.873   6.725 -0.4633 -0.4469 -1.9046
  102SAPE   C3510384   0.453   4.836   6.683 -0.3666 -0.9813  0.6641
  102SAPE   H5X10385   0.460   4.748   6.750 -0.9808 -0.4390  1.4517
  102SAPE   H5Y10386   0.545   4.898   6.688 -1.1609  0.4506 -1.2104
  102SAPE   C3610387   0.427   4.789   6.534  0.5138 -0.1854  0.6727
  102SAPE   H6X10388   0.381   4.875   6.481  1.4590 -0.2399 -0.2888
  102SAPE   H6Y10389   0.363   4.699   6.539  0.4808 -0.2283 -0.2620
  102SAPE   C3710390   0.549   4.736   6.445 -0.1589 -0.5002  0.8707
  102SAPE   H7X10391   0.585   4.645   6.498 -0.0884 -1.6848 -1.1319
  102SAPE   H7Y10392   0.625   4.814   6.424 -1.0192 -0.5008 -2.9520
  102SAPE   C3810393   0.494   4.699   6.310  0.6622  0.1027 -0.0968
  102SAPE   H8X10394   0.434   4.784   6.272  0.4795  0.5562  1.1803
  102SAPE   H8Y10395   0.429   4.613   6.335  0.7570 -0.2962 -1.1502
  102SAPE   C3910396   0.613   4.654   6.222  0.0825 -0.4344  0.6943
  102SAPE   H9X10397   0.655   4.560   6.263  0.2651 -1.7646 -2.3226
  102SAPE   H9Y10398   0.685   4.733   6.192 -0.9248  0.6920  1.1017
  102SAPE  C31010399   0.559   4.608   6.085 -0.2873  0.5669  0.8819
  102SAPE  H10X10400   0.526   4.701   6.034  1.7710  0.3184 -1.0646
  102SAPE  H10Y10401   0.472   4.539   6.095 -0.1137  0.4337  1.5396
  102SAPE  C31110402   0.661   4.526   6.011  0.4095 -0.0043 -0.4315
  102SAPE  H11X10403   0.687   4.431   6.063  1.4189  0.8305  0.6594
  102SAPE  H11Y10404   0.753   4.586   6.005  1.5868 -0.8708  4.3895
  102SAPE  C31210405   0.615   4.492   5.873 -0.1403 -0.6408  0.0210
  102SAPE  H12X10406   0.598   4.588   5.819 -0.3537  0.1469  1.4386
  102SAPE  H12Y10407   0.519   4.437   5.878  0.3827 -1.5264  0.6417
  102SAPE  C31310408   0.705   4.397   5.800  0.2300 -1.0703  0.5775
  102SAPE  H13X10409   0.706   4.301   5.855 -0.0846  0.1686  2.8505
  102SAPE  H13Y10410   0.808   4.440   5.790 -0.5872  0.7999 -0.4193
  102SAPE  C31410411   0.650   4.370   5.658  0.3143  0.7159  0.0244
  102SAPE  H14X10412   0.633   4.466   5.605 -2.4460  1.1992  1.5754
  102SAPE  H14Y10413   0.556   4.311   5.665  1.3875 -1.1635 -0.7044
  102SAPE  C31510414   0.737   4.281   5.570 -0.1818  0.2428  0.2531
  102SAPE  H15X10415   0.744   4.179   5.614  0.4377  0.2684  0.2202
  102SAPE  H15Y10416   0.843   4.316   5.569 -0.3144  0.7853  1.7721
  102SAPE  C31610417   0.665   4.258   5.438 -1.1032  0.7053  0.9165
  102SAPE  H16X10418   0.653   4.357   5.391  2.6035  0.6775 -0.4285
  102SAPE  H16Y10419   0.576   4.195   5.460  0.1101 -0.9834  1.2391
  102SAPE  C31710420   0.760   4.175   5.342  1.2471 -0.6367 -0.4851
  102SAPE  H17X10421   0.777   4.076   5.389 -2.2568 -1.0364  0.2158
  102SAPE  H17Y10422   0.855   4.231   5.332 -1.3546  4.2528 -0.8718
  102SAPE  C31810423   0.704   4.171   5.201  0.4595  0.6082  0.1518
  102SAPE  H18X10424   0.675   4.268   5.156 -1.3996  0.3604  0.7269
  102SAPE  H18Y10425   0.608   4.115   5.191  0.3448  1.0703 -1.8608
  102SAPE  H18Z10426   0.777   4.112   5.141  1.3262  1.4542  0.3706
  103SAPE     N10427   0.855   0.200   3.130  0.5631  0.0207 -0.6220
  103SAPE   HN110428   0.948   0.244   3.118 -0.2924  1.8189 -1.0346
  103SAPE   HN210429   0.838   0.170   3.228 -4.2630 -0.1964 -1.2527
  103SAPE   HN310430   0.863   0.107   3.083  1.3552 -1.3936  2.0744
  103SAPE   C1210431   0.740   0.288   3.093  0.5377  0.8461  0.6097
  103SAPE  H12A10432   0.689   0.237   3.008  2.6726 -0.9556  0.3008
  103SAPE  H12B10433   0.783   0.385   3.061 -0.7205  0.8321 -1.2951
  103SAPE   C1110434   0.647   0.298   3.218 -0.3307 -0.3934  0.3566
  103SAPE  H11A10435   0.585   0.389   3.217 -1.4917 -1.1357 -1.7354
  103SAPE  H11B10436   0.712   0.326   3.303  1.0875 -4.6418  0.9252
  103SAPE     P10437   0.445   0.148   3.169  0.0947  0.5935 -0.2163
  103SAPE   O1310438   0.426   0.252   3.054 -0.2446  0.6543 -0.4079
  103SAPE   O1410439   0.429   0.007   3.126  0.4515 -0.1470 -0.0033
  103SAPE   O1210440   0.585   0.166   3.249 -0.5861 -0.2359  0.2719
  103SAPE   O1110441   0.339   0.180   3.288  0.0203 -0.3859  0.2671
  103SAPE    C110442   0.342   0.080   3.396 -0.2524  0.1504 -0.6162
  103SAPE    HA10443   0.314  -0.012   3.340 -1.4794  1.1343 -1.6871
  103SAPE    HB10444   0.444   0.077   3.441 -1.8222 -1.9406  3.2171
  103SAPE    C210445   0.242   0.107   3.503 -0.2863  0.3101  0.9592
  103SAPE    HS10446   0.137   0.117   3.468 -1.4750 -1.3709  3.7076
  103SAPE   O2110447   0.281   0.229   3.569  0.5953  0.2280  0.5267
  103SAPE   C2110448   0.187   0.299   3.633 -0.3812  0.6979 -0.2471
  103SAPE   O2210449   0.072   0.267   3.644  0.2853 -0.0752 -0.2063
  103SAPE   C2210450   0.249   0.418   3.709  0.3069  0.9158  0.1834
  103SAPE   H2R10451   0.227   0.411   3.818 -2.2049 -0.4985 -0.3376
  103SAPE   H2S10452   0.359   0.419   3.701  0.4544 -2.9374 -0.0731
  103SAPE    C310453   0.227  -0.007   3.606 -0.0679 -0.0679  0.0766
  103SAPE    HX10454   0.194  -0.093   3.544  0.1183  0.0475 -0.1810
  103SAPE    HY10455   0.154   0.017   3.687 -1.2881 -0.8761 -0.7413
  103SAPE   O3110456   0.359  -0.028   3.656  0.0090 -0.7215  0.6302
  103SAPE   C3110457   0.384  -0.155   3.721  0.5384 -0.4605  0.6816
  103SAPE   O3210458   0.292  -0.227   3.750  0.0599  0.2036  0.1923
  103SAPE   C3210459   0.528  -0.184   3.738 -0.2803 -0.3941  0.3921
  103SAPE   H2X10460   0.584  -0.088   3.737  2.1889 -1.7441  0.4108
  103SAPE   H2Y10461   0.569  -0.245   3.654  0.1500 -0.0279  0.3307
  103SAPE   C2310462   0.186   0.548   3.645 -0.7852  0.4348  0.0971
  103SAPE   H3R10463   0.079   0.538   3.673 -0.2675 -0.6491  1.8975
  103SAPE   H3S10464   0.185   0.554   3.535  0.2897  0.5533  0.0822
  103SAPE   C2410465   0.235   0.675   3.705 -0.0822 -0.2303  0.0191
  103SAPE   H4R10466   0.260   0.649   3.810  1.6649  0.3383 -0.2320
  103SAPE   H4S10467   0.166   0.762   3.705 -0.2642 -0.3728 -0.1495
  103SAPE   C2510468   0.360   0.723   3.639  0.8893 -0.0532 -0.1907
  103SAPE   H5R10469   0.350   0.739   3.531  0.2008  2.0282  0.1271
  103SAPE   C2610470   0.477   0.749   3.697  0.1205  0.8981  0.0886
  103SAPE   H6R10471   0.564   0.776   3.635  1.8422 -0.6275  1.7164
  103SAPE   C2710472   0.516   0.740   3.844  0.5420 -0.9155  0.1390
  103SAPE   H7R10473   0.611   0.683   3.854  0.6104 -0.7643  0.3449
  103SAPE   H7S10474   0.444   0.676   3.901 -0.1761 -1.9399 -1.8044
  103SAPE   C2810475   0.513   0.876   3.923  0.4454 -0.1588  0.0069
  103SAPE   H8R10476   0.428   0.944   3.908  0.9408  1.2425  2.9840
  103SAPE   C2910477   0.598   0.907   4.022 -0.5445  0.1674 -0.2073
  103SAPE   H9R10478   0.592   0.997   4.085  3.3702  0.4719  0.0055
  103SAPE  C21010479   0.722   0.839   4.065 -0.4026 -0.0259  1.2952
  103SAPE  H10R10480   0.771   0.895   4.147  3.1399  1.6760 -1.6996
  103SAPE  H10S10481   0.784   0.836   3.973 -2.0241  3.4247 -0.0808
  103SAPE  C21110482   0.710   0.699   4.110  0.5372  0.3136 -0.0293
  103SAPE  H11R10483   0.724   0.629   4.026  0.5701  2.3279 -1.7759
  103SAPE  C21210484   0.730   0.647   4.234 -0.3240  0.7429  0.0518
  103SAPE  H12R10485   0.728   0.537   4.240 -1.4870  0.5999 -1.9532
  103SAPE  C21310486   0.738   0.728   4.357 -0.0507 -0.1423 -0.4384
  103SAPE  H13R10487   0.705   0.833   4.342  3.0253  0.7898 -1.5366
  103SAPE  H13S10488   0.845   0.731   4.389  0.2289  3.6056 -1.1947
  103SAPE  C21410489   0.659   0.663   4.471 -0.3762 -0.1240  0.1839
  103SAPE  H14R10490   0.577   0.600   4.433 -0.8100  0.1313  0.6731
  103SAPE  C21510491   0.663   0.686   4.604 -0.6161  0.1939  0.2344
  103SAPE  H15R10492   0.600   0.620   4.666  0.4605 -0.7892  0.3353
  103SAPE  C21610493   0.761   0.776   4.679 -0.4108 -0.3909 -0.1190
  103SAPE  H16R10494   0.701   0.834   4.752 -0.7832  1.1556 -1.5725
  103SAPE  H16S10495   0.815   0.840   4.605 -1.5230  2.2170  1.1996
  103SAPE  C21710496   0.853   0.685   4.751  0.6831  0.4504 -0.2839
  103SAPE  H17R10497   0.921   0.632   4.681  0.3424 -0.4888  0.0769
  103SAPE  H17S10498   0.800   0.614   4.818  0.9584  0.3966 -0.1217
  103SAPE  C21810499   0.949   0.760   4.848 -0.1762  0.2305  0.2948
  103SAPE  H18R10500   0.897   0.799   4.939 -2.1454 -2.6644  0.5453
  103SAPE  H18S10501   1.013   0.833   4.794  0.2789 -0.4999 -0.1615
  103SAPE  C21910502   1.055   0.675   4.917 -0.1352 -0.1322 -0.3336
  103SAPE  H19R10503   1.111   0.760   4.962  1.3384 -0.4691 -1.4203
  103SAPE  H19S10504   1.112   0.616   4.842  0.7908 -0.0221  0.2634
  103SAPE  C22010505   1.006   0.586   5.031  0.3819 -0.0175 -0.0321
  103SAPE  H20R10506   0.925   0.628   5.095  0.2397  0.9516 -0.8228
  103SAPE  H20S10507   1.094   0.565   5.095  0.5929 -2.6071 -1.0539
  103SAPE  H20T10508   0.973   0.487   4.994 -0.3716 -0.5007  1.7914
  103SAPE   C3310509   0.559  -0.248   3.872 -0.1564  0.5342  1.3763
  103SAPE   H3X10510   0.670  -0.253   3.877 -0.0666  2.5336  3.2119
  103SAPE   H3Y10511   0.515  -0.350   3.867  0.5551  0.2917 -1.0517
  103SAPE   C3410512   0.521  -0.180   3.998 -0.3209 -0.1070 -0.3927
  103SAPE   H4X10513   0.411  -0.182   4.017 -0.3506  1.8054 -0.1574
  103SAPE   H4Y10514   0.543  -0.071   4.001 -1.6941  0.1651  1.3488
  103SAPE   C3510515   0.595  -0.235   4.119 -0.3657  0.0378 -0.0380
  103SAPE   H5X10516   0.700  -0.200   4.130 -0.7100  0.9097  0.5477
  103SAPE   H5Y10517   0.597  -0.346   4.117  4.2054 -0.0552  0.6057
  103SAPE   C3610518   0.517  -0.173   4.239  0.0178 -0.5767 -0.6254
  103SAPE   H6X10519   0.415  -0.216   4.235  0.2720 -1.3156  0.2681
  103SAPE   H6Y10520   0.511  -0.062   4.236  0.3945 -0.5462 -0.3658
  103SAPE   C3710521   0.577  -0.207   4.377  0.2143 -0.4470 -0.2845
  103SAPE   H7X10522   0.680  -0.167   4.370  0.1717 -0.5140 -1.7280
  103SAPE   H7Y10523   0.588  -0.316   4.389  3.0710 -0.0766  1.4934
  103SAPE   C3810524   0.501  -0.127   4.490  0.3790  0.3869 -0.7376
  103SAPE   H8X10525   0.407  -0.185   4.498  1.2278 -1.4861 -2.9953
  103SAPE   H8Y10526   0.489  -0.021   4.461  0.0241  0.3375 -0.7672
  103SAPE   C3910527   0.587  -0.145   4.621  0.5823 -0.0973 -0.0707
  103SAPE   H9X10528   0.687  -0.096   4.614  0.1394  0.6753 -1.2762
  103SAPE   H9Y10529   0.587  -0.254   4.645 -1.3898 -0.3758 -1.1444
  103SAPE  C31010530   0.515  -0.074   4.741  0.0992 -0.3717  0.4073
  103SAPE  H10X10531   0.407  -0.098   4.735 -0.4957  1.3347  2.6661
  103SAPE  H10Y10532   0.532   0.035   4.727 -1.5821 -0.1749 -0.3279
  103SAPE  C31110533   0.566  -0.124   4.879  0.8616  0.0594 -0.4786
  103SAPE  H11X10534   0.677  -0.115   4.882  0.7858  2.7956 -2.2017
  103SAPE  H11Y10535   0.535  -0.230   4.885  2.2922 -0.4383 -1.2721
  103SAPE  C31210536   0.489  -0.042   4.984  0.7389  0.0674  0.3087
  103SAPE  H12X10537   0.380  -0.054   4.965  0.3888  0.4284  1.9382
  103SAPE  H12Y10538   0.518   0.065   4.985  1.7763 -0.2033  0.8328
  103SAPE  C31310539   0.514  -0.090   5.127  0.4442  0.4123 -0.0189
  103SAPE  H13X10540   0.617  -0.090   5.169 -0.1721 -0.5486  1.6309
  103SAPE  H13Y10541   0.466  -0.190   5.138 -1.6133  1.2609 -0.7255
  103SAPE  C31410542   0.457   0.008   5.235  0.7136  0.6047 -0.2443
  103SAPE  H14X10543   0.358   0.045   5.201  1.6412  3.1502 -0.3617
  103SAPE  H14Y10544   0.517   0.101   5.235  0.5429  0.7169 -0.7108
  103SAPE  C31510545   0.437  -0.053   5.377  0.6595 -0.4149  0.2415
  103SAPE  H15X10546   0.530  -0.109   5.399  1.6228  1.4403  1.1721
  103SAPE  H15Y10547   0.354  -0.127   5.384 -0.1996  0.6385  1.8227
  103SAPE  C31610548   0.425   0.053   5.486  1.1663  0.3523 -0.1792
  103SAPE  H16X10549   0.506   0.128   5.470 -0.0951  1.6971 -0.4697
  103SAPE  H16Y10550   0.448   0.011   5.587 -0.3720  2.5024  1.1593
  103SAPE  C31710551   0.288   0.139   5.480 -0.0105  0.1335 -0.0994
  103SAPE  H17X10552   0.218   0.060   5.516  1.7328 -1.2119  0.4528
  103SAPE  H17Y10553   0.271   0.170   5.375  1.9635 -1.6495 -1.0255
  103SAPE  C31810554   0.303   0.265   5.574 -0.6705  0.0617 -0.5555
  103SAPE  H18X10555   0.208   0.320   5.595 -1.9114 -1.0903 -2.8051
  103SAPE  H18Y10556   0.381   0.332   5.531  0.2029 -1.4818 -1.4476
  103SAPE  H18Z10557   0.351   0.232   5.668 -1.0327 -1.3368 -0.8342
  104SAPE     N10558   1.410   0.002   3.316  0.8605 -0.5615 -0.3935
  104SAPE   HN110559   1.382   0.010   3.416  0.7722 -1.1619 -0.3676
  104SAPE   HN210560   1.505  -0.042   3.317  1.3024  0.2532 -2.3352
  104SAPE   HN310561   1.417   0.102   3.290 -0.9446 -0.1828  0.4002
  104SAPE   C1210562   1.322  -0.065   3.216  0.2809  0.1039  0.1825
  104SAPE  H12A10563   1.300  -0.163   3.265  0.2890  0.1200  0.2185
  104SAPE  H12B10564   1.377  -0.090   3.123  1.7345  0.3438  0.9435
  104SAPE   C1110565   1.206   0.017   3.172 -0.2299 -0.6551  0.3882
  104SAPE  H11A10566   1.145  -0.035   3.095  0.7359 -2.0585  0.5281
  104SAPE  H11B10567   1.236   0.102   3.107 -0.2629 -0.9713 -0.0443
  104SAPE     P10568   1.028  -0.002   3.374  0.3168  0.0508 -0.2556
  104SAPE   O1310569   1.052   0.047   3.513 -0.0452 -0.1865  0.0785
  104SAPE   O1410570   0.891   0.016   3.320 -0.0311 -0.0355 -0.5186
  104SAPE   O1210571   1.132   0.070   3.277 -0.7112 -0.1148 -0.4366
  104SAPE   O1110572   1.070  -0.147   3.368 -0.0549  0.5623  0.5460
  104SAPE    C110573   1.000  -0.248   3.441 -0.1237  0.0535  0.7832
  104SAPE    HA10574   0.902  -0.214   3.481  0.2745 -0.7539  2.5779
  104SAPE    HB10575   0.968  -0.319   3.362  0.4831 -0.9559  1.4200
  104SAPE    C210576   1.094  -0.317   3.544 -0.1183 -0.2748  0.3869
  104SAPE    HS10577   1.038  -0.408   3.572 -1.1424  0.1166 -0.3176
  104SAPE   O2110578   1.107  -0.225   3.647 -1.0916  0.0165 -0.0889
  104SAPE   C2110579   1.008  -0.219   3.733  0.0816  0.9793 -0.3264
  104SAPE   O2210580   0.906  -0.289   3.732  0.0900  0.0129 -0.7482
  104SAPE   C2210581   1.038  -0.097   3.823  0.2943  0.2720 -0.6877
  104SAPE   H2R10582   1.147  -0.097   3.844  0.9333  0.6882 -3.6421
  104SAPE   H2S10583   1.013  -0.006   3.765  2.0542  0.8512 -0.6137
  104SAPE    C310584   1.232  -0.358   3.490 -0.8208  0.0043 -0.0316
  104SAPE    HX10585   1.284  -0.263   3.464 -1.2887  0.2548 -0.0668
  104SAPE    HY10586   1.208  -0.409   3.395 -0.9751 -2.9005  1.4677
  104SAPE   O3110587   1.310  -0.440   3.582 -0.1331  0.5079 -0.1053
  104SAPE   C3110588   1.380  -0.368   3.670 -0.9764  0.2730  0.2657
  104SAPE   O3210589   1.378  -0.242   3.680 -0.6434 -0.2394  0.1320
  104SAPE   C3210590   1.462  -0.460   3.758  0.4934  0.1341 -0.2393
  104SAPE   H2X10591   1.542  -0.386   3.779  1.3000 -0.7293 -0.2028
  104SAPE   H2Y10592   1.502  -0.538   3.691 -0.5243 -0.3771 -0.2764
  104SAPE   C2310593   0.972  -0.101   3.966  0.1112 -0.2263  0.6372
  104SAPE   H3R10594   0.861  -0.104   3.958  0.2846 -1.5433 -4.1583
  104SAPE   H3S10595   0.990  -0.003   4.016 -0.8359  2.1892 -3.2854
  104SAPE   C2410596   1.025  -0.215   4.055 -0.0363 -0.9505  1.1290
  104SAPE   H4R10597   1.136  -0.212   4.054 -0.0429 -0.5305  1.5098
  104SAPE   H4S10598   1.003  -0.305   3.993 -0.6423 -0.9198  1.2952
  104SAPE   C2510599   0.965  -0.232   4.190  0.5792  0.0425 -0.0109
  104SAPE   H5R10600   0.909  -0.326   4.205 -1.9770  1.6746  1.3487
  104SAPE   C2610601   0.988  -0.166   4.307  0.0054 -0.1999 -0.2182
  104SAPE   H6R10602   0.939  -0.200   4.399 -1.0802 -1.3043 -1.1807
  104SAPE   C2710603   1.087  -0.051   4.320  0.8270 -0.0036  0.1148
  104SAPE   H7R10604   1.038   0.036   4.270 -1.7306 -2.9033 -2.9471
  104SAPE   H7S10605   1.180  -0.062   4.260 -0.1410  1.4636 -1.7588
  104SAPE   C2810606   1.117  -0.039   4.470  0.1810 -0.7402 -0.1291
  104SAPE   H8R10607   1.182  -0.119   4.508 -1.8866 -2.9152 -0.9354
  104SAPE   C2910608   1.076   0.059   4.552 -0.3184  0.5605  0.3130
  104SAPE   H9R10609   1.116   0.052   4.655  0.4211  1.8623  0.1369
  104SAPE  C21010610   0.992   0.180   4.532 -0.0171 -1.0518 -0.1174
  104SAPE  H10R10611   1.005   0.220   4.429 -0.4798  0.1684  0.2834
  104SAPE  H10S10612   1.026   0.263   4.597 -0.6515 -0.6290 -0.3278
  104SAPE  C21110613   0.842   0.163   4.545  0.8570 -0.7403 -0.0644
  104SAPE  H11R10614   0.800   0.087   4.479 -0.9583 -0.6621  0.9338
  104SAPE  C21210615   0.764   0.214   4.640  0.5675 -0.2170 -0.6972
  104SAPE  H12R10616   0.657   0.189   4.634 -0.1410  1.5341  2.5322
  104SAPE  C21310617   0.809   0.298   4.759 -0.3975 -0.3447 -0.2023
  104SAPE  H13R10618   0.738   0.381   4.784 -0.5765 -0.6070  0.1670
  104SAPE  H13S10619   0.899   0.358   4.733 -1.1138 -0.3111 -2.9075
  104SAPE  C21410620   0.855   0.207   4.874  0.1352 -0.3682 -0.1509
  104SAPE  H14R10621   0.930   0.132   4.843 -1.1706 -0.3856 -3.6245
  104SAPE  C21510622   0.808   0.225   5.000  0.7000  0.4493  0.1884
  104SAPE  H15R10623   0.829   0.157   5.084 -1.7585 -0.3410  0.2344
  104SAPE  C21610624   0.712   0.325   5.050  0.9023 -0.6345  0.0967
  104SAPE  H16R10625   0.606   0.299   5.035  0.5768 -0.5496  2.0086
  104SAPE  H16S10626   0.735   0.417   4.992  3.2615  1.0912  3.4051
  104SAPE  C21710627   0.719   0.379   5.199  0.2567  0.9582 -0.9263
  104SAPE  H17R10628   0.828   0.394   5.212  0.3816  0.0426 -0.8632
  104SAPE  H17S10629   0.694   0.290   5.260  0.8963 -1.0345 -3.4203
  104SAPE  C21810630   0.628   0.501   5.225  0.0575  0.1139  0.6906
  104SAPE  H18R10631   0.520   0.488   5.202  0.2407 -0.8186  0.3309
  104SAPE  H18S10632   0.667   0.575   5.152 -0.6792  0.5708  0.7415
  104SAPE  C21910633   0.653   0.558   5.367 -0.1137 -0.5093 -0.1384
  104SAPE  H19R10634   0.763   0.576   5.364 -0.2755  1.3458  2.3398
  104SAPE  H19S10635   0.614   0.488   5.444 -4.7548  3.3256  1.5472
  104SAPE  C22010636   0.588   0.698   5.388  0.1124  0.5247  0.3188
  104SAPE  H20R10637   0.602   0.732   5.493 -1.2083  1.2445  0.2933
  104SAPE  H20S10638   0.480   0.685   5.366  0.5523 -0.7795 -1.3101
  104SAPE  H20T10639   0.625   0.769   5.311  1.3531 -1.1827 -0.7301
  104SAPE   C3310640   1.379  -0.512   3.877  0.0229  0.1725  0.3964
  104SAPE   H3X10641   1.401  -0.621   3.880  0.7620  0.2414 -1.3051
  104SAPE   H3Y10642   1.271  -0.515   3.850  0.2054  1.2576 -0.5392
  104SAPE   C3410643   1.408  -0.425   3.998  0.2485 -0.1139 -0.4384
  104SAPE   H4X10644   1.383  -0.319   3.976 -0.2390 -0.1226  0.0499
  104SAPE   H4Y10645   1.516  -0.438   4.024  0.1376 -0.5445 -0.1784
  104SAPE   C3510646   1.330  -0.472   4.113 -0.0530  0.2097 -0.5663
  104SAPE   H5X10647   1.348  -0.576   4.146 -0.6080  0.7683  1.6498
  104SAPE   H5Y10648   1.225  -0.465   4.076 -0.1991 -0.4913 -0.2898
  104SAPE   C3610649   1.371  -0.390   4.239  0.4429  0.0074 -0.3225
  104SAPE   H6X10650   1.362  -0.283   4.210 -0.2374  0.4543  1.4239
  104SAPE   H6Y10651   1.477  -0.408   4.267  0.1186  2.9304  3.6835
  104SAPE   C3710652   1.283  -0.412   4.360 -0.5805  0.7578 -0.5975
  104SAPE   H7X10653   1.251  -0.517   4.373 -0.9394  0.9485  0.0764
  104SAPE   H7Y10654   1.186  -0.364   4.336 -0.6372  0.2676 -1.4090
  104SAPE   C3810655   1.338  -0.352   4.486 -0.2104 -0.5725 -0.7582
  104SAPE   H8X10656   1.362  -0.244   4.472  0.2018 -0.4607  0.6704
  104SAPE   H8Y10657   1.430  -0.402   4.521 -1.3454 -1.8108  0.5684
  104SAPE   C3910658   1.244  -0.352   4.606 -0.5163 -0.6481  0.2517
  104SAPE   H9X10659   1.255  -0.459   4.634  0.6823 -0.4316  0.6558
  104SAPE   H9Y10660   1.140  -0.319   4.587  0.6251  1.8011 -2.6771
  104SAPE  C31010661   1.298  -0.289   4.737  0.0668 -0.1820 -0.6845
  104SAPE  H10X10662   1.215  -0.303   4.809  1.0685 -1.1861  0.3137
  104SAPE  H10Y10663   1.310  -0.179   4.740 -1.5167  0.1418  4.9727
  104SAPE  C31110664   1.425  -0.364   4.791 -0.3181 -0.2010 -0.5954
  104SAPE  H11X10665   1.507  -0.353   4.717 -0.8779  1.9223 -0.9656
  104SAPE  H11Y10666   1.407  -0.474   4.793 -0.1687 -0.2331  1.9588
  104SAPE  C31210667   1.460  -0.320   4.934 -0.5653 -0.1215 -0.2087
  104SAPE  H12X10668   1.368  -0.327   4.996 -0.6033  1.3012 -0.0671
  104SAPE  H12Y10669   1.502  -0.217   4.938  1.4684 -0.8074 -2.0032
  104SAPE  C31310670   1.570  -0.412   5.006  0.1837 -0.1345  0.8799
  104SAPE  H13X10671   1.658  -0.428   4.940 -0.9441 -0.8427 -0.5208
  104SAPE  H13Y10672   1.531  -0.516   5.008 -0.2148 -0.0193 -0.2607
  104SAPE  C31410673   1.600  -0.357   5.140 -0.8947  0.4119 -0.2100
  104SAPE  H14X10674   1.624  -0.444   5.205  1.4290  0.3653 -1.0525
  104SAPE  H14Y10675   1.516  -0.304   5.189 -0.6514  0.0670  0.6007
  104SAPE  C31510676   1.717  -0.259   5.135 -0.0293 -0.3742  0.1073
  104SAPE  H15X10677   1.688  -0.168   5.078 -3.1568 -0.3112  1.5891
  104SAPE  H15Y10678   1.796  -0.315   5.081  1.0192  0.3852  0.8237
  104SAPE  C31610679   1.779  -0.211   5.273  0.4538 -0.4508  0.2186
  104SAPE  H16X10680   1.805  -0.286   5.350  0.2342  0.1386  0.8839
  104SAPE  H16Y10681   1.694  -0.152   5.312 -0.3126 -1.4716  0.1057
  104SAPE  C31710682   1.897  -0.123   5.245 -0.0370 -0.3305 -0.4266
  104SAPE  H17X10683   1.871  -0.018   5.218 -1.0862  0.1643  2.2675
  104SAPE  H17Y10684   1.973  -0.163   5.173 -0.4966 -0.6466 -0.7379
  104SAPE  C31810685   1.991  -0.102   5.365 -0.3346  0.3320 -0.4091
  104SAPE  H18X10686   2.019  -0.202   5.405  3.1773  0.3150 -2.5165
  104SAPE  H18Y10687   1.945  -0.043   5.447  0.2112 -3.2093  2.7267
  104SAPE  H18Z10688   2.079  -0.041   5.334 -2.2273  3.1265 -0.6921
  105SAPE     N10689   3.106   4.243   2.886 -0.1675 -0.0855 -0.4188
  105SAPE   HN110690   3.196   4.235   2.938  0.3478  0.5597 -1.2074
  105SAPE   HN210691   3.033   4.191   2.940  0.5490 -1.4399 -0.7149
  105SAPE   HN310692   3.115   4.188   2.798  0.0800 -0.1539 -0.3534
  105SAPE   C1210693   3.061   4.383   2.854  0.3886  0.5023 -0.1188
  105SAPE  H12A10694   3.021   4.385   2.751  1.5601 -1.3224 -0.6503
  105SAPE  H12B10695   3.149   4.451   2.860  0.2822  0.6122  0.2272
  105SAPE   C1110696   2.959   4.431   2.951  0.6392 -0.0232  0.4863
  105SAPE  H11A10697   2.924   4.535   2.934  0.3081 -0.4726 -1.8270
  105SAPE  H11B10698   3.007   4.439   3.051  0.3113  1.6648  0.5381
  105SAPE     P10699   2.811   4.248   3.064 -0.2478 -0.1905  0.0742
  105SAPE   O1310700   2.674   4.210   3.064 -0.2190 -0.5405 -0.0418
  105SAPE   O1410701   2.908   4.138   3.050 -0.6570  0.1288 -0.0298
  105SAPE   O1210702   2.838   4.356   2.955 -0.2244  0.3962 -0.3166
  105SAPE   O1110703   2.844   4.323   3.196 -0.0046 -0.5102 -0.9481
  105SAPE    C110704   2.758   4.420   3.251 -0.0936  0.5584 -0.6625
  105SAPE    HA10705   2.817   4.514   3.265  1.5292 -0.3954 -0.7792
  105SAPE    HB10706   2.674   4.450   3.185 -2.9670 -2.6296  1.2546
  105SAPE    C210707   2.706   4.376   3.391 -0.2956  0.2002 -0.2272
  105SAPE    HS10708   2.647   4.463   3.426  0.4646  0.6428 -0.0452
  105SAPE   O2110709   2.818   4.351   3.483 -0.3987 -0.3118  0.2700
  105SAPE   C2110710   2.875   4.457   3.532 -0.4259  0.0810  0.6470
  105SAPE   O2210711   2.839   4.572   3.519  0.5197  0.0839 -0.4160
  105SAPE   C2210712   3.007   4.417   3.606  0.0102  0.2577  0.1428
  105SAPE   H2R10713   3.063   4.346   3.542 -0.9247  0.0307 -0.4388
  105SAPE   H2S10714   3.060   4.514   3.616 -1.0636  0.9519 -0.6509
  105SAPE    C310715   2.612   4.246   3.383 -0.2532 -0.3675  0.3038
  105SAPE    HX10716   2.678   4.164   3.348 -0.2278 -1.0393  1.8760
  105SAPE    HY10717   2.530   4.270   3.311  0.7694 -1.0962 -1.1656
  105SAPE   O3110718   2.547   4.220   3.510  0.1446 -0.1660 -0.2883
  105SAPE   C3110719   2.585   4.117   3.567  0.2440  0.4407  0.7184
  105SAPE   O3210720   2.671   4.040   3.526 -0.3827  0.0137  0.0128
  105SAPE   C3210721   2.499   4.097   3.698 -0.2041 -0.4135 -0.2711
  105SAPE   H2X10722   2.422   4.020   3.678 -2.1216  0.7035  2.1651
  105SAPE   H2Y10723   2.456   4.199   3.711 -0.0126 -0.5886  2.2805
  105SAPE   C2310724   2.981   4.366   3.747 -0.1249 -0.1790 -0.3885
  105SAPE   H3R10725   3.071   4.323   3.796  0.3422  1.7391  0.5421
  105SAPE   H3S10726   2.914   4.278   3.735 -1.1182  0.4700  0.3431
  105SAPE   C2410727   2.913   4.466   3.847  0.5127 -0.0075  0.0331
  105SAPE   H4R10728   2.806   4.479   3.820  0.4127 -0.3451  0.2579
  105SAPE   H4S10729   2.962   4.564   3.830 -0.0759  0.1412 -0.8590
  105SAPE   C2510730   2.921   4.417   3.991 -0.8156 -0.6376 -0.2383
  105SAPE   H5R10731   2.836   4.356   4.027 -0.3220  0.0036  2.2359
  105SAPE   C2610732   3.009   4.457   4.085  0.6083 -0.1088  0.0886
  105SAPE   H6R10733   2.986   4.423   4.187 -1.6183  1.3831  0.1569
  105SAPE   C2710734   3.133   4.536   4.077 -0.7322 -0.5678 -0.2918
  105SAPE   H7R10735   3.154   4.564   3.971  4.7685 -1.2076  0.3519
  105SAPE   H7S10736   3.225   4.478   4.101  1.3447  1.7354 -2.0845
  105SAPE   C2810737   3.123   4.656   4.172 -0.3804  0.4226 -0.1680
  105SAPE   H8R10738   3.052   4.734   4.139 -1.0605  0.5693  1.5527
  105SAPE   C2910739   3.164   4.654   4.301  0.3128  0.4163  0.8815
  105SAPE   H9R10740   3.128   4.729   4.374  0.3149  1.8941 -0.5671
  105SAPE  C21010741   3.225   4.538   4.376  0.1581  0.9005  1.3572
  105SAPE  H10R10742   3.322   4.573   4.418 -0.1017 -0.1852  2.9230
  105SAPE  H10S10743   3.266   4.459   4.309 -1.8936 -0.0585  1.1724
  105SAPE  C21110744   3.131   4.480   4.481 -0.1647  0.4385  0.0827
  105SAPE  H11R10745   3.040   4.432   4.442  0.1563  1.4346 -2.0224
  105SAPE  C21210746   3.132   4.490   4.617 -0.3404 -0.0453 -0.4359
  105SAPE  H12R10747   3.052   4.441   4.674 -1.2908  0.1662 -1.5704
  105SAPE  C21310748   3.229   4.586   4.690 -0.4663  0.2323 -0.2779
  105SAPE  H13R10749   3.176   4.617   4.782 -1.4319  1.2105 -1.1360
  105SAPE  H13S10750   3.244   4.670   4.618  1.5562 -2.2734 -3.0064
  105SAPE  C21410751   3.363   4.525   4.725  0.2077 -0.0091 -0.0435
  105SAPE  H14R10752   3.452   4.562   4.672  0.0113  0.2740 -0.1769
  105SAPE  C21510753   3.386   4.444   4.832 -0.3818  0.0037  0.2952
  105SAPE  H15R10754   3.488   4.412   4.857 -1.0077 -1.9772  0.4297
  105SAPE  C21610755   3.279   4.388   4.922 -0.0220  0.8002  0.3081
  105SAPE  H16R10756   3.322   4.293   4.960 -1.4981  0.2207  0.6013
  105SAPE  H16S10757   3.185   4.349   4.878  0.8884 -0.9204 -0.1686
  105SAPE  C21710758   3.223   4.473   5.038  0.0544 -0.0065 -0.4886
  105SAPE  H17R10759   3.141   4.536   4.999  0.9886  0.1115 -2.3909
  105SAPE  H17S10760   3.310   4.534   5.071  1.6325 -2.7882  0.8322
  105SAPE  C21810761   3.191   4.385   5.160  0.0270 -0.3046  0.3187
  105SAPE  H18R10762   3.114   4.307   5.141 -0.2464 -0.1291  0.6798
  105SAPE  H18S10763   3.139   4.455   5.229  1.8076  0.9739  0.4300
  105SAPE  C21910764   3.317   4.342   5.236 -0.4537  0.0973  0.2468
  105SAPE  H19R10765   3.382   4.429   5.258 -0.6023  0.1364  0.5374
  105SAPE  H19S10766   3.386   4.280   5.174  0.1149  1.7417 -0.8466
  105SAPE  C22010767   3.302   4.267   5.371  0.1749 -0.5797 -0.0825
  105SAPE  H20R10768   3.406   4.249   5.404 -0.1365 -1.3655  0.5132
  105SAPE  H20S10769   3.254   4.168   5.359 -0.1670 -0.6319  1.4716
  105SAPE  H20T10770   3.256   4.328   5.453 -0.4221 -0.9705 -0.1201
  105SAPE   C3310771   2.593   4.070   3.815  0.1760  0.1709  0.0117
  105SAPE   H3X10772   2.665   4.155   3.819  1.0581 -0.5867  0.6372
  105SAPE   H3Y10773   2.653   3.979   3.794  2.1281  1.3534  0.1335
  105SAPE   C3410774   2.539   4.063   3.958 -0.1224 -0.3829  0.4411
  105SAPE   H4X10775   2.488   3.964   3.967  0.9711 -1.0498 -0.4319
  105SAPE   H4Y10776   2.460   4.140   3.970 -0.3078 -0.7693  1.8269
  105SAPE   C3510777   2.640   4.064   4.074 -0.4443 -0.4169 -0.5431
  105SAPE   H5X10778   2.675   4.170   4.075 -0.1447 -0.5003 -1.6457
  105SAPE   H5Y10779   2.725   3.994   4.061  2.1511  2.2935  0.6310
  105SAPE   C3610780   2.580   4.031   4.217  0.8879 -0.0505  0.6564
  105SAPE   H6X10781   2.550   3.925   4.232 -1.2861  0.0494 -2.0264
  105SAPE   H6Y10782   2.488   4.094   4.221 -1.0834 -2.6995  0.3571
  105SAPE   C3710783   2.665   4.073   4.339 -0.2942 -0.1561 -0.2411
  105SAPE   H7X10784   2.699   4.178   4.326 -0.1358 -0.1969 -0.1525
  105SAPE   H7Y10785   2.757   4.013   4.326  0.3027  0.3523  1.3687
  105SAPE   C3810786   2.597   4.057   4.473 -0.0602  0.5440  0.1271
  105SAPE   H8X10787   2.522   3.976   4.457  1.8826 -1.3582  0.2265
  105SAPE   H8Y10788   2.542   4.149   4.502 -2.4057 -0.5198 -0.7214
  105SAPE   C3910789   2.692   4.023   4.592 -0.4468  0.5252 -0.6084
  105SAPE   H9X10790   2.740   4.115   4.631 -2.0605  0.2273  2.4241
  105SAPE   H9Y10791   2.771   3.964   4.541 -1.6491 -0.2728 -1.6243
  105SAPE  C31010792   2.616   3.956   4.702 -0.7378  0.0163 -0.5933
  105SAPE  H10X10793   2.565   3.865   4.665 -0.2073 -0.2821 -0.6081
  105SAPE  H10Y10794   2.541   4.020   4.753 -1.4007 -1.2092  0.0103
  105SAPE  C31110795   2.712   3.895   4.797  0.1684  0.9097  0.4981
  105SAPE  H11X10796   2.769   3.971   4.853  3.0380  0.1087 -1.1383
  105SAPE  H11Y10797   2.783   3.830   4.742 -2.4811 -2.8525  1.0988
  105SAPE  C31210798   2.643   3.795   4.891  0.1147  0.5773  0.5059
  105SAPE  H12X10799   2.608   3.706   4.835 -0.0232  0.0720  1.3878
  105SAPE  H12Y10800   2.554   3.840   4.939 -0.8687 -1.4092  0.6317
  105SAPE  C31310801   2.731   3.742   4.999 -0.4972  0.9573  0.1000
  105SAPE  H13X10802   2.800   3.816   5.045 -2.3008  1.6110  1.8636
  105SAPE  H13Y10803   2.810   3.686   4.944 -1.8533 -2.9386  1.7144
  105SAPE  C31410804   2.664   3.669   5.110 -0.1190  0.1687 -0.5255
  105SAPE  H14X10805   2.610   3.577   5.077  1.3910 -1.0592  0.2834
  105SAPE  H14Y10806   2.590   3.738   5.155 -2.3667 -0.4975 -2.8887
  105SAPE  C31510807   2.777   3.615   5.212  0.0154  1.2456  0.0496
  105SAPE  H15X10808   2.811   3.697   5.279  2.0357  0.6106 -0.1104
  105SAPE  H15Y10809   2.863   3.587   5.147  0.6655  3.5908 -0.1926
  105SAPE  C31610810   2.744   3.491   5.287 -0.5681  0.2451  0.8494
  105SAPE  H16X10811   2.694   3.424   5.214 -1.8871 -1.1310  2.8920
  105SAPE  H16Y10812   2.665   3.509   5.362  0.4839  0.4509  1.9467
  105SAPE  C31710813   2.868   3.411   5.338 -0.6855 -0.2199 -0.7012
  105SAPE  H17X10814   2.931   3.385   5.250 -2.3084 -1.9431 -1.4375
  105SAPE  H17Y10815   2.826   3.317   5.380 -0.8832  0.3669  0.4762
  105SAPE  C31810816   2.936   3.499   5.443 -0.0322 -0.6197  0.1542
  105SAPE  H18X10817   2.974   3.598   5.410  0.8006 -0.1734  2.2919
  105SAPE  H18Y10818   3.032   3.451   5.471  1.9818  1.4313 -2.6265
  105SAPE  H18Z10819   2.869   3.517   5.529 -0.8871  0.4544 -0.7021
  106SAPE     N10820   4.632   6.004   3.185  0.3099 -0.0922 -0.0287
  106SAPE   HN110821   4.572   6.086   3.207 -1.4299 -1.2563 -0.2596
  106SAPE   HN210822   4.680   6.022   3.095  1.0365  0.6920  0.4991
  106SAPE   HN310823   4.585   5.911   3.188  0.4366 -0.1348  1.1386
  106SAPE   C1210824   4.736   6.005   3.287 -0.1203 -0.2179 -0.1589
  106SAPE  H12A10825   4.822   5.943   3.254  0.5173  0.5801 -0.0276
  106SAPE  H12B10826   4.698   5.980   3.388  1.6010  1.7781  1.0380
  106SAPE   C1110827   4.783   6.149   3.301 -0.0056 -0.1807 -0.2356
  106SAPE  H11A10828   4.848   6.176   3.215 -0.4432  1.3111 -0.1146
  106SAPE  H11B10829   4.844   6.157   3.393 -0.5501 -0.5243  0.1618
  106SAPE     P10830   4.642   6.355   3.198  0.4632  0.3747 -0.2885
  106SAPE   O1310831   4.648   6.294   3.062  0.3083  0.2130  0.1760
  106SAPE   O1410832   4.514   6.423   3.231 -0.5191  0.0624  0.3081
  106SAPE   O1210833   4.674   6.244   3.307 -0.1474  0.2395  0.2540
  106SAPE   O1110834   4.760   6.460   3.215 -0.3931  0.2665  0.4311
  106SAPE    C110835   4.843   6.472   3.328 -0.1555 -1.1620 -0.2838
  106SAPE    HA10836   4.869   6.378   3.380  0.6673 -0.0875  1.3251
  106SAPE    HB10837   4.938   6.518   3.292 -0.8899  1.7937  1.1803
  106SAPE    C210838   4.779   6.575   3.431  0.5623 -0.2308 -0.4062
  106SAPE    HS10839   4.855   6.602   3.508 -1.2570  1.5769  0.8701
  106SAPE   O2110840   4.665   6.510   3.495 -0.1974 -0.0254 -0.0604
  106SAPE   C2110841   4.687   6.443   3.603 -0.4065  0.4958 -0.2713
  106SAPE   O2210842   4.795   6.393   3.634  0.1298  0.2947 -0.5002
  106SAPE   C2210843   4.561   6.429   3.682 -0.3779 -0.5574 -0.2497
  106SAPE   H2R10844   4.474   6.417   3.615  0.0527 -1.0248 -0.7386
  106SAPE   H2S10845   4.571   6.335   3.740  0.1567 -0.5605 -0.3428
  106SAPE    C310846   4.733   6.711   3.368 -0.3851  0.5597  0.2055
  106SAPE    HX10847   4.647   6.676   3.307  1.6825  0.2887 -2.8365
  106SAPE    HY10848   4.808   6.752   3.296 -0.9246 -0.9692 -1.2904
  106SAPE   O3110849   4.682   6.804   3.471  0.4601 -0.0934  0.3069
  106SAPE   C3110850   4.783   6.867   3.535 -0.1633 -0.0764 -0.7116
  106SAPE   O3210851   4.900   6.831   3.540 -0.1281  0.2612  0.3534
  106SAPE   C3210852   4.718   6.972   3.622 -0.6191 -0.2404  0.3087
  106SAPE   H2X10853   4.616   6.942   3.656 -0.3597  0.4648  1.7961
  106SAPE   H2Y10854   4.716   7.063   3.558  0.3540 -1.1238 -1.0035
  106SAPE   C2310855   4.533   6.547   3.779  0.2412  0.2061 -0.5255
  106SAPE   H3R10856   4.434   6.523   3.822  0.9816 -0.5190  0.8701
  106SAPE   H3S10857   4.513   6.642   3.725  0.2515  1.0193  0.8656
  106SAPE   C2410858   4.631   6.574   3.891  0.1260 -0.3727 -0.7047
  106SAPE   H4R10859   4.610   6.670   3.942  0.9177 -0.3070 -0.4918
  106SAPE   H4S10860   4.728   6.596   3.840 -0.4659 -1.2833 -2.3216
  106SAPE   C2510861   4.639   6.461   3.984 -0.1172  0.3992  0.3017
  106SAPE   H5R10862   4.722   6.392   3.964 -0.7592 -0.1397 -0.5956
  106SAPE   C2610863   4.579   6.459   4.108 -0.1609 -0.0654 -0.7730
  106SAPE   H6R10864   4.601   6.377   4.179 -0.4924 -0.8838 -1.5872
  106SAPE   C2710865   4.488   6.573   4.154  0.4959 -0.1045 -0.4857
  106SAPE   H7R10866   4.432   6.611   4.066 -1.3005  0.5634  0.8972
  106SAPE   H7S10867   4.528   6.656   4.216 -0.0121 -0.7415  0.7222
  106SAPE   C2810868   4.378   6.529   4.244 -0.6347  0.6969 -1.0232
  106SAPE   H8R10869   4.282   6.509   4.193 -2.3645  1.3399  1.7630
  106SAPE   C2910870   4.371   6.502   4.373  0.9055  0.0336 -0.2569
  106SAPE   H9R10871   4.274   6.477   4.419  0.1806  0.3015 -1.5892
  106SAPE  C21010872   4.482   6.507   4.471 -0.2408 -0.7457  0.5982
  106SAPE  H10R10873   4.455   6.596   4.532  0.8724  0.6120 -0.8050
  106SAPE  H10S10874   4.574   6.535   4.416  0.8186  1.4744  3.2938
  106SAPE  C21110875   4.497   6.385   4.555  0.4143  0.1329  0.2986
  106SAPE  H11R10876   4.473   6.289   4.506  1.2647  0.6619 -1.2282
  106SAPE  C21210877   4.518   6.396   4.685  0.2084  0.3606 -0.8152
  106SAPE  H12R10878   4.528   6.302   4.741 -0.1181  1.5126  1.3354
  106SAPE  C21310879   4.547   6.515   4.781  0.5961 -0.3490  0.2259
  106SAPE  H13R10880   4.620   6.577   4.725  1.4326 -1.5380 -0.0268
  106SAPE  H13S10881   4.594   6.475   4.873  0.3958  1.8486  1.3743
  106SAPE  C21410882   4.417   6.586   4.819  0.6146 -0.0598 -0.1983
  106SAPE  H14R10883   4.334   6.519   4.847  0.2175  0.7173  0.5337
  106SAPE  C21510884   4.386   6.714   4.804  0.1179 -0.0759 -0.1331
  106SAPE  H15R10885   4.284   6.744   4.832 -0.6204 -2.2402 -0.2738
  106SAPE  C21610886   4.487   6.814   4.757 -0.0767  0.1081  0.0325
  106SAPE  H16R10887   4.439   6.914   4.749  1.5400  0.9499  0.3795
  106SAPE  H16S10888   4.536   6.774   4.666 -0.4213 -0.2501  0.0030
  106SAPE  C21710889   4.597   6.836   4.859 -0.6030 -0.1383 -0.1904
  106SAPE  H17R10890   4.666   6.912   4.816 -1.9093  1.3995  0.3183
  106SAPE  H17S10891   4.651   6.743   4.886 -1.3101 -0.5816 -0.2515
  106SAPE  C21810892   4.551   6.890   4.997  0.3058 -0.3547  0.1040
  106SAPE  H18R10893   4.461   6.838   5.035 -0.5447  1.3101  0.4402
  106SAPE  H18S10894   4.524   6.997   4.985 -2.0856 -1.0543 -1.3424
  106SAPE  C21910895   4.647   6.878   5.114  0.1531  1.2047 -0.0609
  106SAPE  H19R10896   4.741   6.932   5.089 -0.0460  1.0243 -1.2791
  106SAPE  H19S10897   4.671   6.770   5.110  2.1975  1.6450 -0.8951
  106SAPE  C22010898   4.594   6.904   5.251 -0.1563  0.0972  0.5682
  106SAPE  H20R10899   4.511   6.832   5.269  2.0218 -2.0498  2.6593
  106SAPE  H20S10900   4.554   7.007   5.262  1.6848  1.0085 -0.6184
  106SAPE  H20T10901   4.670   6.886   5.329 -0.7878  0.4596  1.2744
  106SAPE   C3310902   4.791   7.018   3.754 -0.3143 -0.1349 -0.4979
  106SAPE   H3X10903   4.750   7.111   3.799  1.1115  0.9695 -1.4306
  106SAPE   H3Y10904   4.894   7.050   3.731 -0.8626  1.3407 -1.0119
  106SAPE   C3410905   4.779   6.902   3.851  0.0767  0.4843 -0.3487
  106SAPE   H4X10906   4.839   6.820   3.804 -0.7326 -0.6062  0.4611
  106SAPE   H4Y10907   4.677   6.859   3.860 -0.5440  2.1096  0.7236
  106SAPE   C3510908   4.812   6.931   4.005 -0.2405 -0.3604  0.1879
  106SAPE   H5X10909   4.911   6.981   4.014 -0.6604  0.3350  1.0275
  106SAPE   H5Y10910   4.811   6.833   4.058 -2.6706 -0.6465 -0.2397
  106SAPE   C3610911   4.711   7.022   4.076 -0.9721  0.1623 -0.2371
  106SAPE   H6X10912   4.609   6.979   4.085 -1.3825  1.2278  0.2978
  106SAPE   H6Y10913   4.685   7.113   4.018 -0.7103  0.0019 -0.6213
  106SAPE   C3710914   4.761   7.064   4.215 -0.1017 -0.3939  0.0373
  106SAPE   H7X10915   4.833   7.147   4.209 -1.0784  0.4371 -0.5692
  106SAPE   H7Y10916   4.821   6.980   4.255  0.2653 -0.5660 -0.8462
  106SAPE   C3810917   4.647   7.103   4.298  0.7893 -0.3224 -0.2767
  106SAPE   H8X10918   4.579   7.018   4.320  0.1815  0.0281 -0.7407
  106SAPE   H8Y10919   4.592   7.182   4.242 -0.3889 -0.4446  0.6636
  106SAPE   C3910920   4.680   7.139   4.444 -0.0257 -0.2051 -0.3622
  106SAPE   H9X10921   4.732   7.237   4.440 -0.7608  0.2191  0.1498
  106SAPE   H9Y10922   4.742   7.054   4.480 -0.3863 -0.6179 -0.7057
  106SAPE  C31010923   4.567   7.141   4.542  0.4076 -0.4383  0.1408
  106SAPE  H10X10924   4.533   7.039   4.568  0.5094  0.3601  4.1013
  106SAPE  H10Y10925   4.483   7.198   4.496  1.1201  0.5559  0.0328
  106SAPE  C31110926   4.614   7.197   4.677 -0.8460 -0.0973 -0.4814
  106SAPE  H11X10927   4.649   7.301   4.659 -1.4196 -0.0724 -1.5445
  106SAPE  H11Y10928   4.698   7.132   4.711 -1.0201 -0.6450 -1.0693
  106SAPE  C31210929   4.501   7.218   4.775  0.1906 -0.6075  0.3545
  106SAPE  H12X10930   4.450   7.122   4.797  1.0791 -1.3094 -0.5759
  106SAPE  H12Y10931   4.426   7.280   4.722 -0.3871 -0.7443  0.9981
  106SAPE  C31310932   4.544   7.276   4.918  0.5662 -0.0941  0.3930
  106SAPE  H13X10933   4.584   7.379   4.907 -1.2020  0.7050  1.0235
  106SAPE  H13Y10934   4.628   7.220   4.965  1.0102 -0.5625 -0.9156
  106SAPE  C31410935   4.429   7.296   5.022 -0.5562 -1.1284  0.6983
  106SAPE  H14X10936   4.378   7.198   5.029 -1.6336 -0.4912  2.2329
  106SAPE  H14Y10937   4.358   7.375   4.991  2.2300  1.8117  1.2282
  106SAPE  C31510938   4.491   7.345   5.152 -0.0770 -0.0155  0.1075
  106SAPE  H15X10939   4.553   7.437   5.141  0.8745 -0.7167 -0.5426
  106SAPE  H15Y10940   4.552   7.263   5.195 -2.3433 -1.0550  1.4849
  106SAPE  C31610941   4.375   7.375   5.249 -0.1377 -0.5351  1.1693
  106SAPE  H16X10942   4.427   7.413   5.339  0.7384 -2.4993  1.5364
  106SAPE  H16Y10943   4.316   7.286   5.278 -1.4589  0.0745  0.4610
  106SAPE  C31710944   4.263   7.479   5.204  0.2203 -0.4644 -0.3355
  106SAPE  H17X10945   4.185   7.475   5.282 -0.1096 -2.4708 -0.7173
  106SAPE  H17Y10946   4.219   7.446   5.107 -0.2105 -0.5881 -0.0989
  106SAPE  C31810947   4.312   7.625   5.183 -0.1958 -0.0084  0.4843
  106SAPE  H18X10948   4.355   7.639   5.081  2.3995 -0.1537  1.4756
  106SAPE  H18Y10949   4.389   7.659   5.255  1.4022  1.5131 -1.8271
  106SAPE  H18Z10950   4.225   7.693   5.199 -0.0480  0.3743 -0.2955
  107SAPE     N10951   1.181   4.784   3.692  0.1982  0.9770 -0.6235
  107SAPE   HN110952   1.155   4.831   3.603 -0.5507  2.9654  0.5851
  107SAPE   HN210953   1.165   4.852   3.769  1.3231 -1.1885  1.6349
  107SAPE   HN310954   1.283   4.769   3.680  0.4370 -2.0028  3.2350
  107SAPE   C1210955   1.098   4.656   3.706  0.3231  0.2715  0.5660
  107SAPE  H12A10956   1.131   4.617   3.804  0.4020  0.8273  0.7656
  107SAPE  H12B10957   1.131   4.588   3.624  1.5573  1.6999 -0.1756
  107SAPE   C1110958   0.951   4.693   3.696 -0.1371  0.4567 -0.2276
  107SAPE  H11A10959   0.903   4.607   3.748  0.0679  1.6898  2.1558
  107SAPE  H11B10960   0.919   4.695   3.589 -1.0412  2.5840  0.0276
  107SAPE     P10961   0.772   4.869   3.784 -0.2671 -0.0282  0.0542
  107SAPE   O1310962   0.764   4.988   3.873  0.2804  0.2998 -0.2127
  107SAPE   O1410963   0.714   4.883   3.651  0.2053 -0.3425 -0.0250
  107SAPE   O1210964   0.916   4.813   3.767 -0.8323 -0.4065  0.6187
  107SAPE   O1110965   0.692   4.757   3.858 -0.6216 -0.2957  0.3472
  107SAPE    C110966   0.734   4.698   3.984 -0.6804  0.0905 -0.3262
  107SAPE    HA10967   0.784   4.600   3.969  1.7178  0.7205  2.6030
  107SAPE    HB10968   0.808   4.758   4.040 -0.5195 -0.4841  0.0815
  107SAPE    C210969   0.615   4.675   4.074  0.4194 -0.2081 -0.5781
  107SAPE    HS10970   0.545   4.612   4.015 -0.8670  0.8037 -0.1822
  107SAPE   O2110971   0.546   4.803   4.118  0.3399  0.4123  0.0415
  107SAPE   C2110972   0.420   4.794   4.149  0.0756  0.2110  0.3903
  107SAPE   O2210973   0.348   4.693   4.136  0.4234 -0.3885  0.6489
  107SAPE   C2210974   0.376   4.920   4.225 -0.5850  0.4498 -0.0062
  107SAPE   H2R10975   0.413   5.006   4.165  0.9609 -0.5313 -0.5358
  107SAPE   H2S10976   0.265   4.925   4.227 -0.5684  0.5684  2.0361
  107SAPE    C310977   0.643   4.596   4.203  0.1021 -0.3313  0.6892
  107SAPE    HX10978   0.692   4.503   4.168 -1.1522 -0.7288 -0.0824
  107SAPE    HY10979   0.544   4.568   4.247 -0.0006  1.7206  1.9156
  107SAPE   O3110980   0.715   4.676   4.295 -0.1089 -0.3939  0.5105
  107SAPE   C3110981   0.835   4.633   4.346 -0.0781 -0.7293 -0.2397
  107SAPE   O3210982   0.889   4.535   4.309  0.4538 -0.5668 -0.4745
  107SAPE   C3210983   0.886   4.735   4.447  0.0310 -0.1650  0.1031
  107SAPE   H2X10984   0.898   4.833   4.395  2.7002  0.0456  0.9692
  107SAPE   H2Y10985   0.988   4.700   4.473  0.1172  0.8981  1.2790
  107SAPE   C2310986   0.436   4.922   4.366  0.0977 -0.0629 -0.3328
  107SAPE   H3R10987   0.424   5.028   4.399 -0.9973  0.1960 -1.5106
  107SAPE   H3S10988   0.545   4.898   4.363  0.0628 -0.6833  1.7209
  107SAPE   C2410989   0.358   4.829   4.450 -0.2628  0.4706 -0.4970
  107SAPE   H4R10990   0.372   4.730   4.402  3.0508  0.9084 -0.6819
  107SAPE   H4S10991   0.250   4.851   4.441 -0.3022  1.8222  2.3362
  107SAPE   C2510992   0.401   4.837   4.591  0.1778  1.0999  0.4371
  107SAPE   H5R10993   0.437   4.935   4.624  0.2721  1.7687 -1.5062
  107SAPE   C2610994   0.402   4.730   4.677 -0.2558  0.6563  0.1011
  107SAPE   H6R10995   0.438   4.739   4.781  1.0175  1.2163 -0.3672
  107SAPE   C2710996   0.367   4.584   4.645 -0.1519 -0.0619 -0.9935
  107SAPE   H7R10997   0.283   4.588   4.573  0.5423 -2.6751 -2.0800
  107SAPE   H7S10998   0.319   4.535   4.733  0.0761  0.2842 -0.6771
  107SAPE   C2810999   0.478   4.500   4.591 -0.2000 -0.3329  0.1493
  107SAPE   H8R11000   0.541   4.547   4.513 -0.5438 -1.1899 -0.6696
  107SAPE   C2911001   0.494   4.372   4.629 -0.1287 -0.5995  0.0711
  107SAPE   H9R11002   0.589   4.324   4.601  0.4094 -0.3746  1.4605
  107SAPE  C21011003   0.399   4.300   4.714  0.3555  0.1835 -0.2198
  107SAPE  H10R11004   0.300   4.334   4.677  0.1380  0.8079  0.8889
  107SAPE  H10S11005   0.404   4.337   4.819 -0.9658 -0.3661  0.0551
  107SAPE  C21111006   0.393   4.153   4.727 -0.2458  0.0218  0.4868
  107SAPE  H11R11007   0.443   4.110   4.639  2.4862  1.2561  1.3237
  107SAPE  C21211008   0.344   4.066   4.821  0.0043 -0.1284 -0.3602
  107SAPE  H12R11009   0.354   3.959   4.797 -1.6463 -0.5068  0.5123
  107SAPE  C21311010   0.280   4.108   4.949  0.2890  0.2714 -0.3448
  107SAPE  H13R11011   0.260   4.217   4.945 -1.1060  0.0629  0.3703
  107SAPE  H13S11012   0.350   4.079   5.030 -1.4377 -2.6738  0.2304
  107SAPE  C21411013   0.153   4.033   4.986 -0.0321  0.1905 -0.0847
  107SAPE  H14R11014   0.078   4.015   4.908 -0.6157  1.8076  0.0555
  107SAPE  C21511015   0.123   3.993   5.110 -0.5501 -0.0065  0.1883
  107SAPE  H15R11016   0.022   3.957   5.132 -1.1322  1.7969  0.6148
  107SAPE  C21611017   0.209   4.016   5.234  0.4583 -0.4853  0.4023
  107SAPE  H16R11018   0.317   4.017   5.208 -0.0265 -1.9274 -1.9769
  107SAPE  H16S11019   0.193   3.935   5.308 -1.1800 -0.5378  0.0301
  107SAPE  C21711020   0.185   4.153   5.305 -0.1182 -0.2429 -0.0670
  107SAPE  H17R11021   0.238   4.227   5.242 -0.3321 -0.8074 -0.9286
  107SAPE  H17S11022   0.243   4.159   5.399  2.2520  1.2588 -1.5300
  107SAPE  C21811023   0.039   4.186   5.336 -0.3010  1.0315  0.4237
  107SAPE  H18R11024   0.005   4.093   5.387 -1.0775 -0.3670 -2.4741
  107SAPE  H18S11025  -0.019   4.200   5.243 -1.5106 -1.0326  0.8293
  107SAPE  C21911026   0.032   4.312   5.421 -0.1246 -0.0231  0.4525
  107SAPE  H19R11027   0.067   4.282   5.522  3.0739  1.1704 -0.1898
  107SAPE  H19S11028  -0.077   4.334   5.424 -0.7908 -2.6702 -0.8204
  107SAPE  C22011029   0.116   4.429   5.375 -0.1512 -0.2496  0.3985
  107SAPE  H20R11030   0.205   4.437   5.442 -1.1670 -0.1457  1.7697
  107SAPE  H20S11031   0.070   4.529   5.390  0.6153  0.2060 -0.1907
  107SAPE  H20T11032   0.153   4.422   5.271 -0.2603 -1.1957  0.4181
  107SAPE   C3311033   0.803   4.732   4.573  0.2790  0.4781 -0.5479
  107SAPE   H3X11034   0.697   4.763   4.565  0.8280  2.1539 -2.0473
  107SAPE   H3Y11035   0.843   4.809   4.643  1.9101  0.1005 -1.0259
  107SAPE   C3411036   0.805   4.590   4.639  0.1029  0.1330  0.9718
  107SAPE   H4X11037   0.772   4.519   4.560  0.4781  1.2062 -0.1796
  107SAPE   H4Y11038   0.725   4.597   4.716 -0.7837 -2.1054  0.3312
  107SAPE   C3511039   0.926   4.540   4.714  0.0705  0.4366 -0.3691
  107SAPE   H5X11040   1.012   4.533   4.644 -0.6754 -1.1336 -1.1582
  107SAPE   H5Y11041   0.903   4.434   4.738 -1.9321  0.5871 -1.4289
  107SAPE   C3611042   0.962   4.627   4.832  0.3944 -0.1660 -0.6975
  107SAPE   H6X11043   0.869   4.651   4.887 -0.3402  0.3017 -2.0983
  107SAPE   H6Y11044   1.008   4.725   4.806  0.3316  0.2067  0.5526
  107SAPE   C3711045   1.049   4.559   4.940  0.1806  0.1693 -0.1041
  107SAPE   H7X11046   1.123   4.497   4.885  0.3844 -0.0332  0.3898
  107SAPE   H7Y11047   0.986   4.492   5.003  1.0581  0.1747  0.8125
  107SAPE   C3811048   1.130   4.654   5.028  0.3848 -0.3139 -0.2099
  107SAPE   H8X11049   1.058   4.718   5.083 -0.7014 -2.3182  0.7988
  107SAPE   H8Y11050   1.189   4.721   4.961 -1.3211  0.7890 -0.6732
  107SAPE   C3911051   1.212   4.588   5.134 -0.7456  0.1133  0.4139
  107SAPE   H9X11052   1.283   4.525   5.076 -0.8675 -0.6026  1.0326
  107SAPE   H9Y11053   1.159   4.526   5.210  1.0434 -0.7491  1.0284
  107SAPE  C31011054   1.298   4.695   5.207  0.5476  0.5291 -0.0781
  107SAPE  H10X11055   1.237   4.755   5.278  0.8290 -0.0519  0.6594
  107SAPE  H10Y11056   1.329   4.765   5.126 -1.3918  0.1987 -1.1844
  107SAPE  C31111057   1.426   4.635   5.278  0.2783  0.2214  0.8197
  107SAPE  H11X11058   1.503   4.630   5.198 -0.3034  2.0353  0.0943
  107SAPE  H11Y11059   1.413   4.542   5.337 -1.0041 -2.3815 -3.2296
  107SAPE  C31211060   1.477   4.739   5.379 -0.1958 -0.4251 -0.0750
  107SAPE  H12X11061   1.542   4.675   5.443  0.3115 -0.4842 -0.6379
  107SAPE  H12Y11062   1.388   4.772   5.436 -0.3683 -1.0346  0.0114
  107SAPE  C31311063   1.566   4.857   5.328 -0.8530  0.0829 -0.2787
  107SAPE  H13X11064   1.565   4.935   5.407  3.2878  0.0897  0.0001
  107SAPE  H13Y11065   1.509   4.894   5.241 -0.5307 -0.0434 -0.5465
  107SAPE  C31411066   1.704   4.801   5.312  0.0562 -0.2113 -0.3415
  107SAPE  H14X11067   1.704   4.697   5.272 -2.2060  0.4318 -2.2822
  107SAPE  H14Y11068   1.755   4.810   5.411  0.7357 -1.2110 -0.5892
  107SAPE  C31511069   1.789   4.886   5.220 -0.0424  0.3093 -0.1289
  107SAPE  H15X11070   1.820   4.970   5.285 -0.4771 -1.1045  1.9877
  107SAPE  H15Y11071   1.739   4.926   5.129 -1.5682  0.1266  0.5966
  107SAPE  C31611072   1.916   4.808   5.184 -0.2664 -0.4249 -0.3217
  107SAPE  H16X11073   1.885   4.710   5.143 -0.4440 -0.4015 -0.2446
  107SAPE  H16Y11074   1.968   4.792   5.280  0.3758  0.9339 -0.4187
  107SAPE  C31711075   2.010   4.877   5.090 -0.3598 -0.2236  0.0371
  107SAPE  H17X11076   2.039   4.975   5.133 -0.2059 -1.2295  2.3421
  107SAPE  H17Y11077   1.956   4.902   4.995  1.6738 -2.4557 -1.8186
  107SAPE  C31811078   2.143   4.810   5.058  0.5238  0.3079 -0.0756
  107SAPE  H18X11079   2.198   4.790   5.152  1.5919  1.5021 -0.4326
  107SAPE  H18Y11080   2.207   4.858   4.981 -0.7458 -0.3286 -1.5927
  107SAPE  H18Z11081   2.120   4.708   5.019  0.7240  0.2224  0.0317
  108SAPE     N11082   5.449   4.954   2.888  0.0783 -0.4874  0.5554
  108SAPE   HN111083   5.467   4.869   2.831  1.1396  1.1823 -1.8008
  108SAPE   HN211084   5.423   5.022   2.814  0.1724  2.2529  2.8643
  108SAPE   HN311085   5.537   4.990   2.930 -0.7335  0.8145  1.2027
  108SAPE   C1211086   5.335   4.935   2.990 -0.0932  0.2736 -0.4256
  108SAPE  H12A11087   5.349   4.828   3.017  1.6049 -0.0360 -2.3446
  108SAPE  H12B11088   5.242   4.930   2.930 -1.1834  0.1744  1.1886
  108SAPE   C1111089   5.331   5.038   3.101 -0.4785  0.2568 -0.1531
  108SAPE  H11A11090   5.432   5.050   3.147 -0.2733  2.2437 -1.0533
  108SAPE  H11B11091   5.269   5.006   3.187 -0.4399  1.4940  0.3414
  108SAPE     P11092   5.171   5.234   3.027  0.0038 -0.1346  0.7419
  108SAPE   O1311093   5.182   5.319   2.905 -0.2818  0.3882 -0.1697
  108SAPE   O1411094   5.057   5.146   3.022  0.1055  0.1139 -0.0308
  108SAPE   O1211095   5.308   5.166   3.045  0.4828 -0.4045 -0.1425
  108SAPE   O1111096   5.154   5.332   3.155  0.0388 -0.3523 -0.1289
  108SAPE    C111097   5.194   5.290   3.289  0.1829  0.2477  0.0650
  108SAPE    HA11098   5.291   5.236   3.290  0.2310  0.3253 -0.1675
  108SAPE    HB11099   5.213   5.380   3.351  0.8669  0.5219 -0.5156
  108SAPE    C211100   5.087   5.195   3.356 -0.0580  0.0357  0.1856
  108SAPE    HS11101   5.081   5.096   3.305  0.2620 -0.3647  0.9210
  108SAPE   O2111102   4.960   5.268   3.355 -0.1315 -0.0736  0.1149
  108SAPE   C2111103   4.853   5.192   3.358  0.2337 -1.1959 -0.6000
  108SAPE   O2211104   4.850   5.071   3.354  0.3113 -0.3797 -0.5847
  108SAPE   C2211105   4.735   5.288   3.359 -0.3185 -0.1969  0.0495
  108SAPE   H2R11106   4.740   5.328   3.256  1.2248  1.1133  0.5977
  108SAPE   H2S11107   4.640   5.237   3.386 -0.4097 -1.1574 -1.9517
  108SAPE    C311108   5.126   5.165   3.504  0.3054 -0.4934 -0.1875
  108SAPE    HX11109   5.126   5.261   3.561  0.5857  0.0481 -1.0896
  108SAPE    HY11110   5.235   5.145   3.508  0.7158  0.8190 -2.6652
  108SAPE   O3111111   5.044   5.070   3.575 -0.4490 -0.2282  0.3893
  108SAPE   C3111112   5.077   4.939   3.565  0.8326 -0.5005  0.3116
  108SAPE   O3211113   5.177   4.891   3.522  0.0363  0.3038  0.0981
  108SAPE   C3211114   4.960   4.870   3.628  0.7842  0.4870  0.4786
  108SAPE   H2X11115   4.890   4.853   3.543  3.9414  2.0451 -2.7047
  108SAPE   H2Y11116   4.912   4.945   3.694  0.2811  2.4328 -1.9259
  108SAPE   C2311117   4.742   5.398   3.468  0.7187 -0.4972  0.6493
  108SAPE   H3R11118   4.828   5.463   3.441  0.6678  0.0209  1.6806
  108SAPE   H3S11119   4.776   5.356   3.565  1.6245  1.3006  1.1444
  108SAPE   C2411120   4.615   5.485   3.484 -0.7529  0.4303 -0.1790
  108SAPE   H4R11121   4.572   5.507   3.384 -0.7743  1.8789  0.1177
  108SAPE   H4S11122   4.660   5.575   3.533  0.7378 -0.2490 -0.2474
  108SAPE   C2511123   4.517   5.406   3.569 -0.3380 -0.1260 -0.5832
  108SAPE   H5R11124   4.469   5.324   3.512 -0.6883  0.9421 -1.8802
  108SAPE   C2611125   4.502   5.416   3.706  0.2200 -0.2595 -0.1426
  108SAPE   H6R11126   4.422   5.355   3.751  0.3550 -0.0193  0.4230
  108SAPE   C2711127   4.566   5.517   3.794  0.2377 -0.0399 -0.4649
  108SAPE   H7R11128   4.672   5.541   3.769 -0.1773  1.3714 -0.9578
  108SAPE   H7S11129   4.577   5.471   3.895  1.7137  0.8576 -0.1762
  108SAPE   C2811130   4.484   5.642   3.805  0.1174  0.6032 -0.1246
  108SAPE   H8R11131   4.471   5.699   3.712 -0.2038  0.4621 -0.1666
  108SAPE   C2911132   4.442   5.702   3.921  0.8430 -0.3543  0.2171
  108SAPE   H9R11133   4.386   5.795   3.906  0.6088 -0.5001  0.1859
  108SAPE  C21011134   4.445   5.652   4.070  0.4002 -0.3519  1.0893
  108SAPE  H10R11135   4.376   5.566   4.084  0.6018 -1.1323 -1.9741
  108SAPE  H10S11136   4.407   5.741   4.124 -0.3307  0.8393 -1.2611
  108SAPE  C21111137   4.578   5.632   4.127 -0.2759  0.0287  0.3577
  108SAPE  H11R11138   4.661   5.658   4.060 -1.1775 -0.6451 -1.0712
  108SAPE  C21211139   4.609   5.559   4.243  0.8090  0.3382 -0.0732
  108SAPE  H12R11140   4.714   5.548   4.273  0.7959  1.1490  0.2896
  108SAPE  C21311141   4.514   5.510   4.348  0.3018 -0.6441 -0.3795
  108SAPE  H13R11142   4.411   5.539   4.316  0.3457 -0.5038 -0.3931
  108SAPE  H13S11143   4.518   5.564   4.445 -1.3435 -0.1600 -0.5456
  108SAPE  C21411144   4.514   5.361   4.366  0.4951 -0.0019 -0.7588
  108SAPE  H14R11145   4.557   5.298   4.286  1.5389  0.5669 -0.6653
  108SAPE  C21511146   4.487   5.299   4.485  0.1651  0.1004  0.2146
  108SAPE  H15R11147   4.491   5.189   4.490 -0.5502  0.1102  3.8681
  108SAPE  C21611148   4.447   5.355   4.614 -0.1008 -0.1317  0.8817
  108SAPE  H16R11149   4.342   5.328   4.638 -0.5268  0.9448  0.2854
  108SAPE  H16S11150   4.451   5.464   4.598  2.2645 -0.5066 -2.0702
  108SAPE  C21711151   4.535   5.336   4.736  0.1738 -0.2060  0.0179
  108SAPE  H17R11152   4.496   5.410   4.809 -0.7465  0.8010 -1.4350
  108SAPE  H17S11153   4.637   5.369   4.705 -0.6872  1.3315 -1.3622
  108SAPE  C21811154   4.546   5.204   4.813 -0.1576 -0.0962  0.1264
  108SAPE  H18R11155   4.557   5.202   4.923 -1.9901 -1.9995  0.3565
  108SAPE  H18S11156   4.631   5.157   4.760 -0.1446 -0.6928  0.6698
  108SAPE  C21911157   4.412   5.118   4.802  0.1780  0.0254 -0.0939
  108SAPE  H19R11158   4.377   5.094   4.700 -1.7477  0.2814  0.4784
  108SAPE  H19S11159   4.336   5.178   4.856 -1.6264 -1.4998 -0.8671
  108SAPE  C22011160   4.428   4.989   4.881 -0.5845  0.4159 -0.2710
  108SAPE  H20R11161   4.526   4.941   4.862 -1.9197 -1.8028 -2.1935
  108SAPE  H20S11162   4.357   4.914   4.838 -0.4322  0.6059 -0.8692
  108SAPE  H20T11163   4.415   5.005   4.990  0.5846  0.4449 -0.1265
  108SAPE   C3311164   4.995   4.735   3.697  0.2765 -0.6857  0.2154
  108SAPE   H3X11165   5.089   4.735   3.756  2.1797  2.6069 -2.4197
  108SAPE   H3Y11166   5.014   4.667   3.611  3.1150  0.5081 -0.2402
  108SAPE   C3411167   4.877   4.678   3.784  0.4380  0.5371  0.6462
  108SAPE   H4X11168   4.797   4.679   3.707 -0.6127 -0.2202  1.7009
  108SAPE   H4Y11169   4.832   4.744   3.862  2.1824 -0.5122  2.6523
  108SAPE   C3511170   4.888   4.539   3.843 -0.1503 -0.2731 -0.2084
  108SAPE   H5X11171   4.921   4.474   3.759  2.0264 -0.2957  0.5926
  108SAPE   H5Y11172   4.967   4.542   3.920 -0.7200  2.1291  0.3403
  108SAPE   C3611173   4.754   4.497   3.904 -0.1353  0.6598  0.6009
  108SAPE   H6X11174   4.676   4.504   3.825  0.6443 -1.5159 -0.4469
  108SAPE   H6Y11175   4.712   4.550   3.992  3.8503  0.0803  3.1176
  108SAPE   C3711176   4.767   4.352   3.944  0.1364  0.5866 -0.4909
  108SAPE   H7X11177   4.792   4.287   3.857  0.7195 -0.1744  0.2295
  108SAPE   H7Y11178   4.666   4.312   3.966 -0.7396  3.4444  1.3164
  108SAPE   C3811179   4.867   4.325   4.058  0.1558  0.7520 -0.0792
  108SAPE   H8X11180   4.843   4.400   4.137 -1.5674  1.4855 -1.2362
  108SAPE   H8Y11181   4.971   4.352   4.032  0.5695 -2.2030 -2.0046
  108SAPE   C3911182   4.863   4.187   4.126 -0.0853 -0.7032  0.0159
  108SAPE   H9X11183   4.895   4.101   4.063  0.1359  0.9030 -2.1625
  108SAPE   H9Y11184   4.759   4.160   4.156  1.0423 -1.6169  3.7138
  108SAPE  C31011185   4.951   4.177   4.255 -0.4759  0.7981  0.5259
  108SAPE  H10X11186   5.050   4.220   4.229  0.3609 -1.2275  0.0992
  108SAPE  H10Y11187   4.974   4.070   4.275 -0.6240  0.8012  0.7096
  108SAPE  C31111188   4.878   4.236   4.378 -0.2515 -0.4463  0.0337
  108SAPE  H11X11189   4.789   4.176   4.405  0.1781 -1.7419 -1.3399
  108SAPE  H11Y11190   4.852   4.344   4.372  0.2767 -0.3593 -0.9519
  108SAPE  C31211191   4.969   4.227   4.511 -0.6291  0.1953 -0.1278
  108SAPE  H12X11192   5.067   4.274   4.487 -0.1744 -1.6429 -2.3052
  108SAPE  H12Y11193   4.987   4.118   4.527 -0.7540  0.0672 -0.8177
  108SAPE  C31311194   4.908   4.277   4.635  0.1676 -0.1877  0.2993
  108SAPE  H13X11195   4.823   4.208   4.651 -0.0025 -0.0143  0.1358
  108SAPE  H13Y11196   4.866   4.379   4.622 -2.9645 -1.4208 -0.1488
  108SAPE  C31411197   5.003   4.279   4.755 -0.9475 -0.0939 -0.3930
  108SAPE  H14X11198   5.085   4.344   4.718 -0.7802 -1.3805 -2.4000
  108SAPE  H14Y11199   5.038   4.175   4.774  0.5058 -0.0514 -2.5735
  108SAPE  C31511200   4.935   4.344   4.877 -0.9945  0.1613 -0.1705
  108SAPE  H15X11201   4.838   4.291   4.892 -0.0124 -2.5347 -2.3764
  108SAPE  H15Y11202   4.911   4.449   4.849  1.5475  1.2022  1.2544
  108SAPE  C31611203   5.025   4.345   4.999  0.2999 -0.5571 -0.5084
  108SAPE  H16X11204   5.100   4.427   4.986  1.0599 -1.2789 -0.7369
  108SAPE  H16Y11205   5.084   4.252   5.014  2.0357  0.5657  0.0136
  108SAPE  C31711206   4.932   4.380   5.120  0.0298 -0.2121 -0.7379
  108SAPE  H17X11207   4.859   4.300   5.146  0.7333  0.0699  2.5814
  108SAPE  H17Y11208   4.877   4.474   5.101  1.1497  1.1912  2.2474
  108SAPE  C31811209   5.004   4.388   5.253 -0.4859 -0.5962 -0.2839
  108SAPE  H18X11210   5.114   4.391   5.236 -0.6742 -0.4450 -1.5771
  108SAPE  H18Y11211   4.985   4.296   5.312 -1.1905 -0.9139 -0.9898
  108SAPE  H18Z11212   4.974   4.467   5.325 -0.1998 -0.5155 -0.2491
  109SAPE     N11213   5.971   4.051   3.401 -0.5015 -0.2424  0.3793
  109SAPE   HN111214   5.886   4.044   3.461 -1.2380  2.0507 -0.2786
  109SAPE   HN211215   5.957   4.136   3.343  1.8300  1.5980  2.3160
  109SAPE   HN311216   5.986   3.971   3.337 -1.0370  1.3003 -1.7683
  109SAPE   C1211217   6.081   4.081   3.505  0.0853  0.4291  0.0459
  109SAPE  H12A11218   6.055   4.181   3.545 -1.1474  0.2357 -0.2313
  109SAPE  H12B11219   6.179   4.073   3.453  1.1620 -2.7007  2.2077
  109SAPE   C1111220   6.085   3.974   3.620  0.3795  1.0800  0.3264
  109SAPE  H11A11221   5.981   3.968   3.658  0.0868 -1.7642 -0.6520
  109SAPE  H11B11222   6.149   3.988   3.710 -1.4696 -3.4028  2.6759
  109SAPE     P11223   6.256   3.778   3.590 -0.1651 -0.3803  0.2630
  109SAPE   O1311224   6.273   3.663   3.500 -0.4707 -0.0257 -0.1653
  109SAPE   O1411225   6.360   3.884   3.571  0.4560  0.2024 -1.1717
  109SAPE   O1211226   6.117   3.848   3.561  0.6324  0.2544 -0.6533
  109SAPE   O1111227   6.254   3.717   3.738 -0.4165 -0.1115 -0.4810
  109SAPE    C111228   6.152   3.691   3.836 -0.3330 -0.6019  0.2835
  109SAPE    HA11229   6.128   3.780   3.899  0.8780 -0.4500  0.5395
  109SAPE    HB11230   6.061   3.678   3.773  1.1488  1.2136 -2.3932
  109SAPE    C211231   6.177   3.563   3.913 -0.4347  1.1141 -0.3284
  109SAPE    HS11232   6.210   3.481   3.844 -0.0317 -0.3050  1.4727
  109SAPE   O2111233   6.064   3.526   3.988 -0.2901 -0.4590  0.2279
  109SAPE   C2111234   6.043   3.395   4.001  0.0258  0.1258  0.5815
  109SAPE   O2211235   6.118   3.306   3.966  0.0232 -0.5969 -0.2070
  109SAPE   C2211236   5.904   3.390   4.064 -0.3641  0.0077  0.5627
  109SAPE   H2R11237   5.895   3.479   4.129  0.7634 -0.6742  1.7128
  109SAPE   H2S11238   5.827   3.380   3.984 -2.1496  0.3339  2.1592
  109SAPE    C311239   6.292   3.580   4.012 -0.0446  0.4383  0.1902
  109SAPE    HX11240   6.247   3.647   4.088  0.3335  0.0180  0.7957
  109SAPE    HY11241   6.373   3.646   3.974  0.5590  0.5842  1.6614
  109SAPE   O3111242   6.336   3.467   4.079 -0.6687  0.7120  0.3559
  109SAPE   C3111243   6.435   3.402   4.021 -0.2315 -0.1455 -0.0823
  109SAPE   O3211244   6.485   3.440   3.912  0.0795  0.2925  0.1997
  109SAPE   C3211245   6.469   3.281   4.102 -0.2538 -0.1339  0.1350
  109SAPE   H2X11246   6.571   3.262   4.062  1.1080  1.1365  2.7296
  109SAPE   H2Y11247   6.409   3.191   4.077  0.5748 -0.8096  0.5502
  109SAPE   C2311248   5.886   3.268   4.156  0.1208  0.0053  0.6051
  109SAPE   H3R11249   5.917   3.176   4.101  2.1293  1.7792 -1.4832
  109SAPE   H3S11250   5.779   3.255   4.181 -0.9873  2.5476 -2.2224
  109SAPE   C2411251   5.980   3.271   4.280 -0.0365  0.1463 -0.0248
  109SAPE   H4R11252   6.078   3.305   4.242  0.1574  0.5072  0.7878
  109SAPE   H4S11253   5.978   3.162   4.306  1.5392  0.0827 -0.1153
  109SAPE   C2511254   5.930   3.346   4.400  0.4204 -0.0805  0.3383
  109SAPE   H5R11255   5.833   3.328   4.447 -1.3063  2.9408 -1.7142
  109SAPE   C2611256   6.006   3.441   4.456  0.2293 -0.4220  0.7702
  109SAPE   H6R11257   5.967   3.494   4.544  1.2185 -1.3162  1.7820
  109SAPE   C2711258   6.149   3.489   4.423  0.1573 -0.0792 -0.2999
  109SAPE   H7R11259   6.152   3.545   4.327  1.6701 -0.5121 -0.5238
  109SAPE   H7S11260   6.215   3.400   4.424  1.7529  1.0513  0.8297
  109SAPE   C2811261   6.193   3.577   4.535 -0.1766 -0.8641 -0.7603
  109SAPE   H8R11262   6.209   3.529   4.632 -2.2937 -1.3290 -0.6100
  109SAPE   C2911263   6.233   3.707   4.523  0.2065  0.1243 -0.9157
  109SAPE   H9R11264   6.287   3.754   4.607  0.5415 -0.6491 -0.6946
  109SAPE  C21011265   6.223   3.788   4.394 -0.0323  0.3302  0.0680
  109SAPE  H10R11266   6.199   3.895   4.413 -4.2975 -0.6493  1.2257
  109SAPE  H10S11267   6.137   3.763   4.327  0.2098 -0.9488  0.2283
  109SAPE  C21111268   6.343   3.771   4.306  0.4302  0.6183 -0.6474
  109SAPE  H11R11269   6.391   3.674   4.327  1.5267  1.3634  0.4121
  109SAPE  C21211270   6.402   3.857   4.217 -0.4121  0.0412  0.0742
  109SAPE  H12R11271   6.494   3.830   4.165  1.1741  1.4036  1.9978
  109SAPE  C21311272   6.341   3.988   4.171 -0.1856 -0.0113 -0.2938
  109SAPE  H13R11273   6.424   4.047   4.127 -0.2089  0.4917  0.3069
  109SAPE  H13S11274   6.325   4.044   4.266  2.2962  0.1291  0.0981
  109SAPE  C21411275   6.210   3.984   4.090 -0.0957  0.5217  0.1992
  109SAPE  H14R11276   6.216   3.933   3.993 -1.2912  0.9783 -0.1289
  109SAPE  C21511277   6.089   4.032   4.128  0.5271 -0.4810  0.5178
  109SAPE  H15R11278   6.003   4.020   4.060  1.7047 -1.6304 -0.8391
  109SAPE  C21611279   6.069   4.108   4.258 -0.1211 -0.5592  0.4652
  109SAPE  H16R11280   6.166   4.134   4.304 -0.2477  0.1397  0.3436
  109SAPE  H16S11281   6.019   4.053   4.341  0.8301 -2.3720 -0.0959
  109SAPE  C21711282   5.995   4.246   4.239 -0.3438  0.2010  0.2328
  109SAPE  H17R11283   5.899   4.232   4.186  0.2469 -0.0836 -0.8096
  109SAPE  H17S11284   6.058   4.315   4.178  2.4480 -2.5307 -0.2188
  109SAPE  C21811285   5.969   4.306   4.368 -0.4809  0.0509 -0.3255
  109SAPE  H18R11286   5.948   4.415   4.364  0.0728  0.1720 -0.0917
  109SAPE  H18S11287   6.057   4.306   4.435 -0.8718  2.6239  0.2967
  109SAPE  C21911288   5.850   4.240   4.451 -0.0071  0.3809  0.2839
  109SAPE  H19R11289   5.819   4.138   4.418 -1.2401  0.9792 -0.4765
  109SAPE  H19S11290   5.762   4.306   4.438  0.5928  2.0426  3.7100
  109SAPE  C22011291   5.877   4.233   4.600 -0.0749  0.0802  0.4681
  109SAPE  H20R11292   5.790   4.201   4.662  0.6366 -1.2605  0.8069
  109SAPE  H20S11293   5.907   4.336   4.632  2.8063 -0.0547 -1.3876
  109SAPE  H20T11294   5.957   4.159   4.620  0.8926  1.4385  1.9273
  109SAPE   C3311295   6.481   3.280   4.256 -0.3554  0.1475  0.0876
  109SAPE   H3X11296   6.501   3.176   4.289 -1.4475 -0.0677  0.0865
  109SAPE   H3Y11297   6.384   3.307   4.303 -0.4141 -2.2276  1.4660
  109SAPE   C3411298   6.597   3.370   4.309  0.1600 -0.3433 -0.4501
  109SAPE   H4X11299   6.573   3.477   4.292  2.5511  0.2506 -0.4466
  109SAPE   H4Y11300   6.687   3.354   4.247  0.5160 -2.3546  0.5059
  109SAPE   C3511301   6.632   3.348   4.457 -0.1687  0.0312 -0.7190
  109SAPE   H5X11302   6.739   3.374   4.477 -0.4918 -0.1835  1.5970
  109SAPE   H5Y11303   6.614   3.242   4.486  0.9258  0.3635  1.4360
  109SAPE   C3611304   6.558   3.433   4.559  0.2527 -0.3968 -0.5215
  109SAPE   H6X11305   6.464   3.380   4.586  0.2891  1.0807  2.8975
  109SAPE   H6Y11306   6.536   3.539   4.533 -2.0767 -0.3744  1.2340
  109SAPE   C3711307   6.633   3.437   4.699 -0.5040 -0.1690 -0.0757
  109SAPE   H7X11308   6.742   3.433   4.680 -0.9300  1.5347 -4.0076
  109SAPE   H7Y11309   6.615   3.348   4.762  0.5110 -1.0016 -0.9381
  109SAPE   C3811310   6.590   3.553   4.778 -0.0307  0.1908  0.5561
  109SAPE   H8X11311   6.614   3.640   4.714  1.5111 -0.3247  0.3852
  109SAPE   H8Y11312   6.654   3.561   4.869  1.1726 -2.2962  0.0012
  109SAPE   C3911313   6.437   3.548   4.813 -0.3668  1.2165 -0.2627
  109SAPE   H9X11314   6.414   3.457   4.873 -1.3748  0.8671 -1.1434
  109SAPE   H9Y11315   6.399   3.539   4.709 -0.2633  1.2173 -0.3001
  109SAPE  C31011316   6.378   3.676   4.877 -0.1324  0.2604 -0.5144
  109SAPE  H10X11317   6.399   3.763   4.811 -1.8308  0.7278 -0.4966
  109SAPE  H10Y11318   6.428   3.680   4.975 -0.2837 -1.7827 -0.3199
  109SAPE  C31111319   6.225   3.678   4.899  0.4444  0.5653 -0.0297
  109SAPE  H11X11320   6.196   3.591   4.962 -0.0692  0.2851 -0.6471
  109SAPE  H11Y11321   6.179   3.674   4.798  0.6335  3.1170 -0.2972
  109SAPE  C31211322   6.180   3.799   4.986  0.4940  0.1337  0.3556
  109SAPE  H12X11323   6.223   3.888   4.935  0.0231  0.1345 -0.0407
  109SAPE  H12Y11324   6.237   3.783   5.080  2.3575  1.0105 -0.5710
  109SAPE  C31311325   6.024   3.802   5.009  0.7278 -0.0022  0.0942
  109SAPE  H13X11326   5.991   3.709   5.060  3.5992 -2.6603 -2.5096
  109SAPE  H13Y11327   5.967   3.787   4.914 -0.6285  3.6274  0.1548
  109SAPE  C31411328   5.981   3.936   5.073  0.8230 -0.6396 -0.4446
  109SAPE  H14X11329   5.990   4.024   5.006  1.3094 -1.2079 -1.1443
  109SAPE  H14Y11330   6.049   3.955   5.158  0.8674  0.4507 -0.7142
  109SAPE  C31511331   5.848   3.920   5.146  0.3566 -0.8569  0.2321
  109SAPE  H15X11332   5.836   4.013   5.207 -1.3926 -1.2636  0.5654
  109SAPE  H15Y11333   5.843   3.838   5.220 -0.7406  1.0069  2.3546
  109SAPE  C31611334   5.725   3.912   5.056 -0.5909  0.2074  0.6858
  109SAPE  H16X11335   5.720   3.825   4.987 -2.8307  0.0307  0.9992
  109SAPE  H16Y11336   5.717   4.006   4.998  0.2448  0.2422  0.6169
  109SAPE  C31711337   5.603   3.879   5.147 -0.6266  0.6231 -0.2329
  109SAPE  H17X11338   5.604   3.949   5.233  2.0792  0.3205  0.0769
  109SAPE  H17Y11339   5.621   3.778   5.188  2.3705 -0.2388 -3.1786
  109SAPE  C31811340   5.467   3.891   5.080  0.0880 -0.0498 -0.0462
  109SAPE  H18X11341   5.386   3.916   5.151 -0.3045 -0.9353 -0.1649
  109SAPE  H18Y11342   5.447   3.794   5.028  2.0637 -0.8707  0.6049
  109SAPE  H18Z11343   5.471   3.963   4.996 -3.4371 -0.9716 -1.1685
  110SAPE     N11344   2.113   1.122   2.979  0.2750  0.5543  0.1849
  110SAPE   HN111345   2.093   1.188   3.057 -0.8910 -1.2229  1.4786
  110SAPE   HN211346   2.211   1.088   2.980  0.8846  1.9600 -2.8019
  110SAPE   HN311347   2.108   1.180   2.893  1.3313  0.4834  0.0606
  110SAPE   C1211348   2.010   1.007   2.993 -0.1845 -0.4719  0.0279
  110SAPE  H12A11349   2.024   0.938   2.908  0.1678 -0.1340 -0.1885
  110SAPE  H12B11350   1.910   1.054   2.976  1.5317  2.8406 -1.8766
  110SAPE   C1111351   2.030   0.932   3.129  0.4833 -0.1441  0.4755
  110SAPE  H11A11352   1.942   0.867   3.147  0.1850  0.1981  0.2572
  110SAPE  H11B11353   2.035   1.013   3.205  1.2888 -0.6755  1.0085
  110SAPE     P11354   2.162   0.754   3.250 -0.2173 -0.0221  0.0342
  110SAPE   O1311355   2.048   0.660   3.238  0.1048 -0.3575  0.0479
  110SAPE   O1411356   2.298   0.700   3.248  0.3577 -0.5318  0.1991
  110SAPE   O1211357   2.158   0.868   3.135  0.3272  0.2960 -0.3707
  110SAPE   O1111358   2.147   0.829   3.391  0.4083 -0.0459  0.3171
  110SAPE    C111359   2.028   0.880   3.444  0.7012  0.1981 -0.0697
  110SAPE    HA11360   2.017   0.984   3.409  1.0779 -0.1620 -1.2890
  110SAPE    HB11361   1.943   0.825   3.399  1.8507  0.0583 -2.1859
  110SAPE    C211362   2.004   0.860   3.594 -0.4250  0.6455  0.2268
  110SAPE    HS11363   1.897   0.887   3.605 -0.9518  0.0795 -2.6421
  110SAPE   O2111364   2.101   0.931   3.675  0.5202  0.0054 -0.5431
  110SAPE   C2111365   2.046   0.985   3.778 -0.0339 -0.8039 -0.3561
  110SAPE   O2211366   1.930   0.985   3.814  0.4278 -0.1485 -0.1353
  110SAPE   C2211367   2.152   1.070   3.850  0.4921 -0.1463  0.1966
  110SAPE   H2R11368   2.255   1.032   3.836  0.0382 -1.5495  0.5512
  110SAPE   H2S11369   2.131   1.170   3.806  0.7822  0.2046  0.8360
  110SAPE    C311370   2.013   0.708   3.632 -0.1828  0.0722  0.4353
  110SAPE    HX11371   1.990   0.636   3.551  1.4988 -0.8836  0.7536
  110SAPE    HY11372   2.122   0.695   3.652  0.1521  0.4811 -1.0673
  110SAPE   O3111373   1.948   0.683   3.752 -0.9011  0.8174  0.1885
  110SAPE   C3111374   1.824   0.649   3.742 -0.1600  0.1563 -0.5380
  110SAPE   O3211375   1.761   0.627   3.642  0.1860  0.3519 -0.0408
  110SAPE   C3211376   1.772   0.649   3.885 -0.7511  0.3373  0.2055
  110SAPE   H2X11377   1.773   0.753   3.924 -0.1180 -0.8632  3.6985
  110SAPE   H2Y11378   1.845   0.602   3.953 -0.2354 -1.1648 -1.3046
  110SAPE   C2311379   2.116   1.081   4.000  0.0067 -0.0760 -0.4874
  110SAPE   H3R11380   2.124   0.981   4.048  2.2863  0.7746  1.0917
  110SAPE   H3S11381   2.014   1.125   4.010 -0.6099 -1.1195 -1.8889
  110SAPE   C2411382   2.215   1.167   4.081 -0.2952  0.5774  0.5325
  110SAPE   H4R11383   2.168   1.166   4.181 -1.3412 -2.8602  0.1306
  110SAPE   H4S11384   2.212   1.266   4.030  0.2987  0.6920  0.7059
  110SAPE   C2511385   2.355   1.107   4.076 -0.5053 -0.2373  0.4384
  110SAPE   H5R11386   2.404   1.091   3.979 -0.2659 -0.0516  0.5263
  110SAPE   C2611387   2.426   1.069   4.181  0.2484  0.6413 -0.0298
  110SAPE   H6R11388   2.525   1.025   4.162  0.1526  1.0092 -1.4391
  110SAPE   C2711389   2.384   1.062   4.329 -0.4379  0.0633 -0.0484
  110SAPE   H7R11390   2.474   1.022   4.381 -1.0020  1.5595  2.2310
  110SAPE   H7S11391   2.303   0.986   4.336 -0.0056 -0.3393  0.7193
  110SAPE   C2811392   2.342   1.195   4.391  0.2379 -0.1665  0.5300
  110SAPE   H8R11393   2.292   1.272   4.332 -1.5085 -0.3938  1.6485
  110SAPE   C2911394   2.369   1.236   4.515 -0.1076  0.4423 -0.1894
  110SAPE   H9R11395   2.338   1.339   4.540 -0.6940  0.3910 -0.6920
  110SAPE  C21011396   2.435   1.147   4.622 -1.3065  0.6176 -0.5529
  110SAPE  H10R11397   2.526   1.100   4.579 -3.0360 -2.7270 -0.9171
  110SAPE  H10S11398   2.363   1.066   4.645 -0.3966 -0.4886 -1.4588
  110SAPE  C21111399   2.483   1.215   4.745  0.4065  0.3246  0.1136
  110SAPE  H11R11400   2.543   1.306   4.739  2.3479 -0.9837 -1.3208
  110SAPE  C21211401   2.449   1.177   4.868  0.1710  0.4280  0.0714
  110SAPE  H12R11402   2.515   1.216   4.947 -0.9823  0.5463  0.9991
  110SAPE  C21311403   2.381   1.048   4.906  0.4210  0.0041 -0.2583
  110SAPE  H13R11404   2.305   1.005   4.837  2.0387  0.6581 -2.5698
  110SAPE  H13S11405   2.309   1.073   4.987 -0.8125 -2.5284 -0.4545
  110SAPE  C21411406   2.482   0.943   4.944 -0.3216  0.2511 -0.1315
  110SAPE  H14R11407   2.529   0.897   4.855 -1.2479  1.5015 -1.3030
  110SAPE  C21511408   2.496   0.888   5.062  0.1000 -0.5475  0.3743
  110SAPE  H15R11409   2.572   0.813   5.088 -1.0563 -1.2950  1.7463
  110SAPE  C21611410   2.425   0.941   5.180  0.0951 -0.2901  0.3911
  110SAPE  H16R11411   2.350   1.021   5.163 -0.2843 -0.6158  0.5041
  110SAPE  H16S11412   2.501   0.974   5.254  0.3874 -2.5314  1.1897
  110SAPE  C21711413   2.351   0.821   5.230  0.7887  0.3347  0.5333
  110SAPE  H17R11414   2.285   0.778   5.151  1.5682  0.5456 -0.2466
  110SAPE  H17S11415   2.289   0.860   5.313  2.5450  0.4673  1.8404
  110SAPE  C21811416   2.443   0.706   5.283  0.0535 -0.3553  0.7766
  110SAPE  H18R11417   2.521   0.746   5.352  2.5899 -0.2176 -1.9928
  110SAPE  H18S11418   2.487   0.640   5.206  0.7223 -0.8862  1.5916
  110SAPE  C21911419   2.363   0.618   5.370 -0.3721 -0.4256 -0.0737
  110SAPE  H19R11420   2.321   0.688   5.446 -1.5753  1.7707 -2.5924
  110SAPE  H19S11421   2.437   0.550   5.418  1.1885  0.8637 -0.5624
  110SAPE  C22011422   2.250   0.533   5.306 -0.0578  0.3645 -0.2553
  110SAPE  H20R11423   2.299   0.452   5.247 -0.1612  0.4100 -0.4047
  110SAPE  H20S11424   2.209   0.602   5.230  1.6456  1.5976 -0.1155
  110SAPE  H20T11425   2.179   0.499   5.384  1.6645  0.2307  1.3347
  110SAPE   C3311426   1.629   0.585   3.883 -0.1531 -0.4144 -0.2644
  110SAPE   H3X11427   1.635   0.485   3.835 -3.5442  0.0944 -2.0483
  110SAPE   H3Y11428   1.557   0.640   3.819 -2.3311 -3.3681 -0.5844
  110SAPE   C3411429   1.563   0.577   4.017  0.9598  0.7068 -0.7026
  110SAPE   H4X11430   1.461   0.537   4.003  0.9794  0.1025  0.7286
  110SAPE   H4Y11431   1.554   0.678   4.062  0.5026 -0.3817  1.7723
  110SAPE   C3511432   1.632   0.488   4.112  0.5507  0.0292 -0.3191
  110SAPE   H5X11433   1.719   0.548   4.147 -1.0470  2.9638 -1.0684
  110SAPE   H5Y11434   1.670   0.399   4.059  0.1271  0.4368 -1.3398
  110SAPE   C3611435   1.552   0.461   4.241 -0.3870 -0.0010 -0.5035
  110SAPE   H6X11436   1.448   0.426   4.220 -0.4814 -0.5530  0.7391
  110SAPE   H6Y11437   1.542   0.559   4.293  0.3987  0.3331 -0.9720
  110SAPE   C3711438   1.620   0.348   4.326  0.8260 -0.5105 -0.1429
  110SAPE   H7X11439   1.640   0.265   4.255 -0.0249 -1.1521  0.3521
  110SAPE   H7Y11440   1.543   0.304   4.393  1.5526 -1.0428  0.3546
  110SAPE   C3811441   1.743   0.408   4.396  0.1298  0.3591 -0.1398
  110SAPE   H8X11442   1.710   0.501   4.448 -1.9181 -0.1543 -0.4208
  110SAPE   H8Y11443   1.815   0.432   4.314 -0.6560  1.7127 -0.4666
  110SAPE   C3911444   1.812   0.314   4.501  0.0539  0.0789 -0.6321
  110SAPE   H9X11445   1.848   0.214   4.470  2.4644  0.3561  1.0226
  110SAPE   H9Y11446   1.740   0.288   4.582  0.9336 -1.4673 -0.3079
  110SAPE  C31011447   1.924   0.390   4.579  0.5982 -0.3504  0.5965
  110SAPE  H10X11448   2.011   0.406   4.512 -0.4873  3.3246 -0.1936
  110SAPE  H10Y11449   1.958   0.326   4.663  1.9313 -0.4920 -0.0318
  110SAPE  C31111450   1.879   0.527   4.624 -0.2000 -0.5835 -0.3317
  110SAPE  H11X11451   1.780   0.513   4.673 -0.3455 -0.1863 -0.5089
  110SAPE  H11Y11452   1.873   0.607   4.548  0.2115 -0.8565 -0.6551
  110SAPE  C31211453   1.976   0.599   4.724 -0.5824  0.8907  0.1905
  110SAPE  H12X11454   2.070   0.616   4.667 -1.8970  0.7821 -2.1207
  110SAPE  H12Y11455   1.994   0.516   4.795 -1.9894 -1.3622 -1.9105
  110SAPE  C31311456   1.913   0.715   4.787  0.2338  0.1193  0.5463
  110SAPE  H13X11457   1.825   0.677   4.842 -2.6739 -1.7453 -4.6627
  110SAPE  H13Y11458   1.869   0.780   4.708 -0.9824 -0.2315  0.9198
  110SAPE  C31411459   2.012   0.803   4.859  0.6170  0.1013 -0.2880
  110SAPE  H14X11460   1.970   0.905   4.869  1.2275  0.3171  0.1461
  110SAPE  H14Y11461   2.101   0.818   4.795  2.0218  0.6454  1.6760
  110SAPE  C31511462   2.027   0.759   5.010  0.8615 -0.3861 -0.3942
  110SAPE  H15X11463   2.106   0.823   5.055  1.5975 -1.4462 -0.1401
  110SAPE  H15Y11464   2.067   0.656   5.020 -2.1549 -1.5412  1.4165
  110SAPE  C31611465   1.904   0.757   5.093  0.0353 -0.5390 -0.6307
  110SAPE  H16X11466   1.847   0.665   5.074 -2.2913  0.2591  1.8601
  110SAPE  H16Y11467   1.839   0.844   5.069  0.8164 -0.4174 -2.4315
  110SAPE  C31711468   1.933   0.741   5.245 -0.1736 -0.2556  0.5641
  110SAPE  H17X11469   2.004   0.656   5.255 -1.1603 -1.1858  0.0006
  110SAPE  H17Y11470   1.842   0.711   5.301 -1.1857  0.6947 -0.5267
  110SAPE  C31811471   1.991   0.860   5.321  0.9336  0.1705 -0.0718
  110SAPE  H18X11472   1.907   0.932   5.331  0.6290 -0.1811 -0.0749
  110SAPE  H18Y11473   2.068   0.917   5.265  1.1341 -0.2477 -0.2283
  110SAPE  H18Z11474   2.022   0.831   5.423 -0.1450 -1.2583 -0.1223
  111SAPE     N11475   1.040   2.153   3.344  0.4968 -0.0611  0.6373
  111SAPE   HN111476   1.134   2.197   3.340  0.6479 -0.4130  0.1860
  111SAPE   HN211477   0.998   2.188   3.432 -0.8267  3.5982 -1.2144
  111SAPE   HN311478   1.047   2.049   3.344 -0.0211 -0.1105 -0.0971
  111SAPE   C1211479   0.963   2.193   3.219 -0.2534 -0.0782  0.2739
  111SAPE  H12A11480   1.015   2.142   3.135  1.1381  1.7492 -0.0361
  111SAPE  H12B11481   0.976   2.303   3.208 -1.6554  0.1285  0.4501
  111SAPE   C1111482   0.814   2.168   3.252 -0.4328 -1.2553 -0.5075
  111SAPE  H11A11483   0.754   2.201   3.165  0.3058 -1.2905 -1.0378
  111SAPE  H11B11484   0.780   2.224   3.342 -1.0987 -0.2934 -1.3396
  111SAPE     P11485   0.661   1.963   3.332  0.3306 -0.3263  0.1270
  111SAPE   O1311486   0.536   2.027   3.271 -0.0545  0.0218  0.1345
  111SAPE   O1411487   0.671   1.817   3.333 -0.1098 -0.4578 -0.7863
  111SAPE   O1211488   0.784   2.026   3.256  0.2373 -0.5169 -0.1793
  111SAPE   O1111489   0.666   2.021   3.474 -0.2929  1.1569 -0.1129
  111SAPE    C111490   0.781   2.013   3.560 -0.3993  0.8408 -0.2295
  111SAPE    HA11491   0.878   1.991   3.510  0.4099  0.8823  1.2592
  111SAPE    HB11492   0.791   2.109   3.615  0.3194  0.2383  0.7223
  111SAPE    C211493   0.767   1.906   3.679 -0.9649 -0.0681 -0.1173
  111SAPE    HS11494   0.769   1.804   3.634 -0.5756 -0.3355  0.4961
  111SAPE   O2111495   0.644   1.935   3.749 -0.2775 -0.9155 -0.2798
  111SAPE   C2111496   0.545   1.858   3.727 -0.7017 -0.6190 -0.9092
  111SAPE   O2211497   0.542   1.759   3.663  0.2905  0.5388  0.2681
  111SAPE   C2211498   0.430   1.933   3.799 -0.3282 -0.0691  0.0475
  111SAPE   H2R11499   0.458   2.036   3.832 -0.9171  0.2685 -0.4754
  111SAPE   H2S11500   0.361   1.937   3.712  0.5306  0.5996 -0.6206
  111SAPE    C311501   0.869   1.910   3.789 -0.3113  0.0664  0.1723
  111SAPE    HX11502   0.857   2.002   3.850 -3.4100 -0.7406  0.9712
  111SAPE    HY11503   0.965   1.913   3.733 -0.0874  0.9329  0.5987
  111SAPE   O3111504   0.850   1.798   3.879  0.0942 -0.3456  0.4456
  111SAPE   C3111505   0.965   1.774   3.955  0.2669 -0.0833 -0.3651
  111SAPE   O3211506   1.070   1.832   3.939 -0.0831  0.4562  0.5153
  111SAPE   C3211507   0.929   1.674   4.069  0.4174 -0.8047  0.3399
  111SAPE   H2X11508   0.881   1.586   4.022  2.8803 -1.5431 -0.9395
  111SAPE   H2Y11509   0.857   1.727   4.135 -0.3680 -0.0527 -1.0840
  111SAPE   C2311510   0.379   1.856   3.919  0.4226 -0.0395  0.6703
  111SAPE   H3R11511   0.311   1.776   3.882 -1.9328  2.1304  0.0031
  111SAPE   H3S11512   0.311   1.919   3.980 -0.5612  1.1089 -1.4767
  111SAPE   C2411513   0.490   1.785   3.997 -0.0143  0.8466 -0.3064
  111SAPE   H4R11514   0.562   1.732   3.930  1.0970  0.9258  0.7928
  111SAPE   H4S11515   0.448   1.708   4.066  0.7765  2.0844  1.6173
  111SAPE   C2511516   0.556   1.884   4.083 -0.6541 -0.8563 -0.4500
  111SAPE   H5R11517   0.627   1.944   4.024 -0.5996 -0.1044  0.3670
  111SAPE   C2611518   0.559   1.904   4.215  0.3849  0.6589  0.5796
  111SAPE   H6R11519   0.618   1.983   4.264  0.8590  0.5668  0.1665
  111SAPE   C2711520   0.472   1.831   4.315 -0.6124 -0.6639 -0.4903
  111SAPE   H7R11521   0.389   1.778   4.264  2.6041 -2.0388 -4.9484
  111SAPE   H7S11522   0.432   1.900   4.392 -2.9426 -1.8361 -0.5609
  111SAPE   C2811523   0.558   1.724   4.379  0.3509  0.4328 -0.6050
  111SAPE   H8R11524   0.534   1.622   4.343 -3.6493  1.0759 -0.1551
  111SAPE   C2911525   0.654   1.735   4.475  0.7914 -0.4512  0.3439
  111SAPE   H9R11526   0.707   1.644   4.506  0.8145 -0.6910 -0.3825
  111SAPE  C21011527   0.693   1.857   4.550  0.2365  0.0502 -0.1797
  111SAPE  H10R11528   0.677   1.944   4.482  1.9933  0.4780 -0.1019
  111SAPE  H10S11529   0.802   1.840   4.567 -0.1836 -0.7078  2.1770
  111SAPE  C21111530   0.602   1.864   4.674 -0.5541  0.5995  0.1472
  111SAPE  H11R11531   0.493   1.863   4.661 -0.5014  0.6353 -0.3176
  111SAPE  C21211532   0.643   1.860   4.805 -0.4651 -0.5521  0.4870
  111SAPE  H12R11533   0.568   1.872   4.885 -1.9548 -0.2450 -0.8912
  111SAPE  C21311534   0.788   1.873   4.847 -0.1074  0.3078  0.5911
  111SAPE  H13R11535   0.827   1.966   4.801 -0.2854 -0.5792 -1.4467
  111SAPE  H13S11536   0.839   1.788   4.797 -1.0160 -1.5509  2.6416
  111SAPE  C21411537   0.821   1.858   4.997  0.3432 -0.7166 -0.2666
  111SAPE  H14R11538   0.849   1.760   5.037  0.5952  0.3899  2.4585
  111SAPE  C21511539   0.827   1.967   5.079  0.4937  0.2231 -0.3375
  111SAPE  H15R11540   0.853   1.950   5.184  2.0919  0.1002 -0.7345
  111SAPE  C21611541   0.814   2.111   5.050 -0.0939  0.6481  0.9784
  111SAPE  H16R11542   0.760   2.166   5.130  0.0051  0.8653  0.8979
  111SAPE  H16S11543   0.763   2.125   4.952  2.5187 -1.8925 -0.9053
  111SAPE  C21711544   0.955   2.179   5.018 -0.5051  0.1962 -0.0980
  111SAPE  H17R11545   0.922   2.268   4.961  0.3568  0.7603  0.2714
  111SAPE  H17S11546   1.021   2.108   4.964 -0.7832 -1.6720  1.8688
  111SAPE  C21811547   1.019   2.237   5.141  0.1826  1.2535  0.8120
  111SAPE  H18R11548   0.942   2.284   5.206 -0.3679 -1.0357  1.8841
  111SAPE  H18S11549   1.089   2.320   5.113  2.9477 -1.1092  0.2032
  111SAPE  C21911550   1.111   2.140   5.225 -1.1116  1.0176  0.3151
  111SAPE  H19R11551   1.112   2.050   5.160 -0.7108 -0.7407  2.6548
  111SAPE  H19S11552   1.059   2.115   5.320  1.3207 -0.4825  1.3412
  111SAPE  C22011553   1.250   2.202   5.245  0.5529 -0.0151  0.5831
  111SAPE  H20R11554   1.328   2.138   5.291  0.6705 -0.1651  0.1842
  111SAPE  H20S11555   1.242   2.301   5.295  0.2440  0.6215 -0.6790
  111SAPE  H20T11556   1.294   2.224   5.145  1.2764  0.7861  1.0646
  111SAPE   C3311557   1.038   1.616   4.166  0.3979  0.1868  1.0285
  111SAPE   H3X11558   0.991   1.548   4.241  2.5778 -3.4221 -0.6474
  111SAPE   H3Y11559   1.087   1.698   4.223  0.5493  0.6487  0.2413
  111SAPE   C3411560   1.151   1.534   4.104  0.0018 -0.3615 -0.4030
  111SAPE   H4X11561   1.211   1.602   4.040  0.4466  0.9046  1.2943
  111SAPE   H4Y11562   1.111   1.453   4.039  0.7476 -1.2496  0.2177
  111SAPE   C3511563   1.246   1.467   4.202  1.0521  0.2719 -0.8088
  111SAPE   H5X11564   1.190   1.382   4.246  0.2574  0.3745 -1.5995
  111SAPE   H5Y11565   1.275   1.539   4.282  0.5727 -3.7941  3.4411
  111SAPE   C3611566   1.382   1.416   4.143 -0.3174 -0.2748 -0.2912
  111SAPE   H6X11567   1.427   1.484   4.069  0.0335  0.9954  1.0343
  111SAPE   H6Y11568   1.365   1.313   4.105 -2.0093 -1.7857  3.9019
  111SAPE   C3711569   1.499   1.404   4.250  0.4151 -0.2623 -0.3156
  111SAPE   H7X11570   1.541   1.505   4.272 -0.1900  0.0912 -0.7195
  111SAPE   H7Y11571   1.579   1.350   4.196  1.2533  0.9020 -0.2929
  111SAPE   C3811572   1.450   1.328   4.380 -0.0496 -0.1728 -0.2716
  111SAPE   H8X11573   1.372   1.257   4.345 -0.9749 -0.5172  2.3208
  111SAPE   H8Y11574   1.389   1.400   4.439  2.4446 -0.5229  3.0120
  111SAPE   C3911575   1.554   1.265   4.473  0.7117  0.3794  1.0601
  111SAPE   H9X11576   1.640   1.335   4.479  1.4935 -0.4001 -0.2916
  111SAPE   H9Y11577   1.589   1.174   4.420 -2.9844 -0.7962  0.3491
  111SAPE  C31011578   1.489   1.227   4.601  0.2062 -0.9697 -0.2944
  111SAPE  H10X11579   1.445   1.125   4.594  0.5574 -1.0877 -0.7664
  111SAPE  H10Y11580   1.409   1.300   4.628  0.3456 -0.5476 -1.0130
  111SAPE  C31111581   1.580   1.221   4.722  0.9651 -0.0756  0.2538
  111SAPE  H11X11582   1.655   1.303   4.721  0.1730  0.7490 -2.9138
  111SAPE  H11Y11583   1.640   1.129   4.706  2.1805  0.5984  0.8432
  111SAPE  C31211584   1.499   1.219   4.851  0.2620 -0.2307  0.0567
  111SAPE  H12X11585   1.426   1.135   4.845  0.4294 -0.3291 -0.6681
  111SAPE  H12Y11586   1.444   1.313   4.871  1.9188  0.1071  3.8874
  111SAPE  C31311587   1.583   1.195   4.975 -0.5867  0.0287 -0.2191
  111SAPE  H13X11588   1.678   1.250   4.959 -0.0243 -1.3613 -1.8874
  111SAPE  H13Y11589   1.622   1.092   4.970  1.6721  0.8304 -0.0379
  111SAPE  C31411590   1.515   1.224   5.106  0.1073 -0.6794 -0.1451
  111SAPE  H14X11591   1.419   1.170   5.124 -0.6242  0.8444  0.7700
  111SAPE  H14Y11592   1.480   1.327   5.083 -0.4873 -0.1894  2.5518
  111SAPE  C31511593   1.601   1.229   5.228 -0.6544  0.6563 -0.2540
  111SAPE  H15X11594   1.559   1.304   5.298  0.9519  1.0177  0.3704
  111SAPE  H15Y11595   1.695   1.282   5.201 -0.8058  2.3836  2.2780
  111SAPE  C31611596   1.616   1.089   5.292 -0.2537  0.3769 -0.0817
  111SAPE  H16X11597   1.669   1.023   5.220  0.0557 -0.1205  0.5980
  111SAPE  H16Y11598   1.513   1.051   5.306  0.3711 -1.0622  0.8667
  111SAPE  C31711599   1.688   1.096   5.430 -0.0094 -0.9345 -0.2477
  111SAPE  H17X11600   1.631   1.166   5.495  1.3580  0.5352 -0.5623
  111SAPE  H17Y11601   1.786   1.141   5.403 -0.4332  0.0111 -0.2197
  111SAPE  C31811602   1.694   0.962   5.507  0.5362 -0.7421  0.2362
  111SAPE  H18X11603   1.726   0.880   5.439  0.5749  0.1259 -0.8124
  111SAPE  H18Y11604   1.599   0.934   5.557  0.9685 -2.2733  0.2444
  111SAPE  H18Z11605   1.762   0.975   5.594 -0.6630  1.5106  0.9290
  112SAPE     N11606   3.291   2.703   2.898 -0.5990  0.1023 -0.0435
  112SAPE   HN111607   3.280   2.657   2.805 -0.6282 -3.3530  1.5164
  112SAPE   HN211608   3.259   2.802   2.891  0.9445  0.7483  1.3016
  112SAPE   HN311609   3.392   2.706   2.924 -0.9230  1.5704  1.2014
  112SAPE   C1211610   3.203   2.629   2.993 -0.7753 -0.0801  0.2533
  112SAPE  H12A11611   3.126   2.575   2.934  0.6595 -2.8707  0.7329
  112SAPE  H12B11612   3.157   2.693   3.071 -1.5936 -0.0056 -0.2766
  112SAPE   C1111613   3.283   2.524   3.069  0.5091  0.1083 -0.7408
  112SAPE  H11A11614   3.320   2.445   2.999  0.4665  0.2686 -0.9443
  112SAPE  H11B11615   3.211   2.471   3.135  0.2057 -0.3494 -1.4189
  112SAPE     P11616   3.411   2.551   3.291  0.1961 -0.1528  0.3928
  112SAPE   O1311617   3.285   2.587   3.363  0.5161 -0.0735  0.1515
  112SAPE   O1411618   3.466   2.412   3.307 -0.2520 -0.0617 -0.6871
  112SAPE   O1211619   3.396   2.580   3.139  0.4683  0.4127  0.0462
  112SAPE   O1111620   3.518   2.654   3.332 -0.3599 -0.1789  0.7981
  112SAPE    C111621   3.599   2.643   3.446 -0.5491  0.2679 -0.4511
  112SAPE    HA11622   3.630   2.539   3.468  1.9718  0.8145 -1.0567
  112SAPE    HB11623   3.693   2.703   3.437 -0.2528 -0.3655 -1.8099
  112SAPE    C211624   3.532   2.709   3.572 -0.1694  0.0809  0.4884
  112SAPE    HS11625   3.427   2.674   3.576  0.0791 -0.8296 -0.5699
  112SAPE   O2111626   3.538   2.850   3.537  0.3182  0.1360  0.1247
  112SAPE   C2111627   3.438   2.926   3.587  0.6679 -0.2299  0.4630
  112SAPE   O2211628   3.346   2.895   3.655  0.1026  0.1583 -0.5001
  112SAPE   C2211629   3.460   3.071   3.543  0.3243 -0.3743  0.0980
  112SAPE   H2R11630   3.475   3.127   3.638  0.6290  0.4131 -0.4069
  112SAPE   H2S11631   3.534   3.084   3.462 -1.3584  1.7361 -1.2445
  112SAPE    C311632   3.603   2.672   3.710  0.3612  1.4013 -0.6178
  112SAPE    HX11633   3.710   2.701   3.702  1.0566 -1.4403 -4.7387
  112SAPE    HY11634   3.592   2.562   3.710 -0.4286  1.4207 -3.1527
  112SAPE   O3111635   3.527   2.726   3.825 -0.0992  0.1784  0.3264
  112SAPE   C3111636   3.583   2.826   3.888 -0.2214 -0.6026 -0.3060
  112SAPE   O3211637   3.695   2.871   3.866 -0.2995  0.0702 -0.3430
  112SAPE   C3211638   3.491   2.860   4.003  0.0642 -0.7762 -0.5325
  112SAPE   H2X11639   3.420   2.778   4.026  0.2466 -0.3337  1.8810
  112SAPE   H2Y11640   3.443   2.955   3.973  0.2756 -0.0841  1.1942
  112SAPE   C2311641   3.331   3.136   3.479 -0.4087  0.1280  0.1018
  112SAPE   H3R11642   3.291   3.061   3.407 -3.4535  2.0924 -0.3947
  112SAPE   H3S11643   3.361   3.224   3.418 -0.8736  0.8824  0.9346
  112SAPE   C2411644   3.217   3.176   3.584 -0.0198 -0.4590 -0.3159
  112SAPE   H4R11645   3.246   3.244   3.667  2.7440 -1.0540 -0.7043
  112SAPE   H4S11646   3.182   3.084   3.635 -0.3171 -0.5226 -0.6271
  112SAPE   C2511647   3.085   3.230   3.523 -0.7845 -0.0221 -0.2714
  112SAPE   H5R11648   3.082   3.280   3.424  0.4405  0.1652 -0.2347
  112SAPE   C2611649   2.959   3.219   3.560  0.2879 -0.0900 -0.1149
  112SAPE   H6R11650   2.873   3.265   3.509 -0.3417  0.7038  1.5742
  112SAPE   C2711651   2.903   3.149   3.678 -0.3636 -0.3043 -0.9094
  112SAPE   H7R11652   2.818   3.209   3.718  1.6842  0.9812  1.8861
  112SAPE   H7S11653   2.980   3.139   3.758 -1.4786 -1.1992  0.1027
  112SAPE   C2811654   2.862   3.008   3.644 -1.0023 -0.5157  0.6679
  112SAPE   H8R11655   2.928   2.949   3.577 -0.2427  0.6581  0.3416
  112SAPE   C2911656   2.747   2.946   3.677  1.2064  0.1071 -0.7973
  112SAPE   H9R11657   2.722   2.845   3.642 -0.7138  1.0156 -2.2570
  112SAPE  C21011658   2.633   3.011   3.760 -0.4937 -0.1088 -0.4444
  112SAPE  H10R11659   2.625   3.117   3.726 -0.0301  0.3145  0.6955
  112SAPE  H10S11660   2.679   3.020   3.861  0.0922  2.6705 -0.8724
  112SAPE  C21111661   2.509   2.927   3.759 -0.0382 -0.1566  0.3666
  112SAPE  H11R11662   2.465   2.895   3.663 -0.4369  1.9642 -0.2078
  112SAPE  C21211663   2.432   2.914   3.867  0.0212 -0.1533 -0.1941
  112SAPE  H12R11664   2.339   2.856   3.856 -1.2068  1.5472  0.7950
  112SAPE  C21311665   2.449   2.983   4.001  0.1009  1.0321  0.0022
  112SAPE  H13R11666   2.369   3.059   4.013 -1.1136  0.2011 -2.1258
  112SAPE  H13S11667   2.534   3.051   4.022  0.2997  0.4248  1.2510
  112SAPE  C21411668   2.439   2.882   4.117 -0.2983 -0.0244  0.8317
  112SAPE  H14R11669   2.403   2.782   4.087 -0.4454 -0.0241  0.9989
  112SAPE  C21511670   2.477   2.903   4.246 -0.4736  0.1639  0.0701
  112SAPE  H15R11671   2.464   2.821   4.318 -1.7930  0.3529  0.0816
  112SAPE  C21611672   2.527   3.035   4.312 -0.1512 -0.0913 -0.2748
  112SAPE  H16R11673   2.524   3.118   4.237  2.6394  0.4050  0.0362
  112SAPE  H16S11674   2.638   3.034   4.325 -0.1316 -0.7393 -0.4352
  112SAPE  C21711675   2.462   3.073   4.443 -0.1918 -0.7620 -0.8556
  112SAPE  H17R11676   2.467   2.985   4.511  1.3545  0.3392  0.5440
  112SAPE  H17S11677   2.354   3.098   4.439 -0.0367  0.2512  0.6210
  112SAPE  C21811678   2.550   3.186   4.513 -0.0150 -0.0574  0.5613
  112SAPE  H18R11679   2.547   3.268   4.438 -1.2069  0.1506  0.8052
  112SAPE  H18S11680   2.654   3.148   4.518  0.7559  1.1495 -3.0355
  112SAPE  C21911681   2.502   3.231   4.652 -0.1578 -0.1494  0.2132
  112SAPE  H19R11682   2.503   3.141   4.718  0.8898 -0.4727 -0.2265
  112SAPE  H19S11683   2.395   3.261   4.645 -0.6868 -1.6481  1.3295
  112SAPE  C22011684   2.589   3.336   4.714  0.9726 -0.5264 -0.1870
  112SAPE  H20R11685   2.566   3.434   4.669  0.4265  0.1498  1.4732
  112SAPE  H20S11686   2.697   3.322   4.691  0.4289 -1.4141 -2.4551
  112SAPE  H20T11687   2.570   3.341   4.823  0.2927  0.1196 -0.3302
  112SAPE   C3311688   3.556   2.903   4.144 -0.6895  0.0539  0.3375
  112SAPE   H3X11689   3.655   2.950   4.128 -0.1374 -0.7366  1.2804
  112SAPE   H3Y11690   3.578   2.807   4.197 -0.5664 -0.0541  0.0901
  112SAPE   C3411691   3.465   2.997   4.234  0.0065 -0.1355 -0.1091
  112SAPE   H4X11692   3.373   2.949   4.274  0.1173 -1.3637 -1.2576
  112SAPE   H4Y11693   3.434   3.092   4.187 -0.6069 -0.9199 -1.3364
  112SAPE   C3511694   3.537   3.041   4.362 -0.5610  0.0834  0.2507
  112SAPE   H5X11695   3.627   3.103   4.342 -0.5147  0.2476  0.9455
  112SAPE   H5Y11696   3.564   2.950   4.422 -1.7525 -1.1438 -1.0134
  112SAPE   C3611697   3.438   3.117   4.457  0.3152  0.0668  0.2201
  112SAPE   H6X11698   3.337   3.078   4.433  0.5399 -1.0031  0.9163
  112SAPE   H6Y11699   3.438   3.224   4.430  0.0996 -0.0550 -0.2699
  112SAPE   C3711700   3.471   3.104   4.612  0.1525  0.6531 -0.1418
  112SAPE   H7X11701   3.581   3.120   4.624  0.3410 -1.2673  1.1350
  112SAPE   H7Y11702   3.455   2.998   4.639  0.9941  0.7588  0.8561
  112SAPE   C3811703   3.370   3.183   4.691 -0.0202 -0.1705 -0.4550
  112SAPE   H8X11704   3.268   3.139   4.678  0.5884 -1.7639 -0.0111
  112SAPE   H8Y11705   3.373   3.287   4.651 -0.6938  0.1295  0.2439
  112SAPE   C3911706   3.408   3.193   4.843  0.4769 -0.8382  0.9460
  112SAPE   H9X11707   3.365   3.108   4.902  0.2762 -0.7301  0.9535
  112SAPE   H9Y11708   3.348   3.281   4.872  1.4757 -0.0679  0.7286
  112SAPE  C31011709   3.555   3.232   4.887  0.4364  0.0551  0.1671
  112SAPE  H10X11710   3.599   3.304   4.814 -0.7907  0.4785 -0.1905
  112SAPE  H10Y11711   3.621   3.143   4.883 -0.2024 -0.5070  1.4915
  112SAPE  C31111712   3.565   3.291   5.022  0.4476 -0.1501  0.3601
  112SAPE  H11X11713   3.520   3.214   5.089  1.2871 -2.2052 -1.3090
  112SAPE  H11Y11714   3.504   3.384   5.025  0.5954  0.0555 -1.6956
  112SAPE  C31211715   3.709   3.325   5.056 -0.3730  0.0612  0.0472
  112SAPE  H12X11716   3.753   3.396   4.982  0.2890  1.2418  1.5043
  112SAPE  H12Y11717   3.759   3.227   5.045  0.2703  0.2217  1.2852
  112SAPE  C31311718   3.727   3.366   5.206  0.2193 -0.3942 -0.6137
  112SAPE  H13X11719   3.692   3.273   5.256  1.9313 -0.4949  0.4520
  112SAPE  H13Y11720   3.648   3.440   5.229 -0.4870 -1.6189  1.0562
  112SAPE  C31411721   3.865   3.420   5.223  0.4777 -0.2241  0.0579
  112SAPE  H14X11722   3.874   3.483   5.313  2.6616  0.0431 -0.2851
  112SAPE  H14Y11723   3.895   3.496   5.148 -0.3949  3.0120  2.7780
  112SAPE  C31511724   3.968   3.305   5.230  0.7538  0.2268  0.1941
  112SAPE  H15X11725   3.978   3.256   5.131 -1.6847 -0.2295  0.0948
  112SAPE  H15Y11726   3.916   3.241   5.304  1.2074  1.6028  1.7402
  112SAPE  C31611727   4.103   3.346   5.282  0.3591  0.0056 -0.8175
  112SAPE  H16X11728   4.145   3.260   5.339 -1.6820 -1.0018 -0.7539
  112SAPE  H16Y11729   4.099   3.431   5.354 -2.3600 -0.6858 -0.0327
  112SAPE  C31711730   4.205   3.376   5.173 -0.2039 -0.1625  0.8284
  112SAPE  H17X11731   4.289   3.429   5.223 -1.3294  1.2067  1.3440
  112SAPE  H17Y11732   4.160   3.441   5.095  0.9369 -0.3329 -0.0094
  112SAPE  C31811733   4.260   3.247   5.105 -0.0118 -0.7122 -0.1379
  112SAPE  H18X11734   4.321   3.185   5.173 -0.6005 -0.7607  0.3549
  112SAPE  H18Y11735   4.335   3.286   5.032 -0.5361 -3.2947 -2.1813
  112SAPE  H18Z11736   4.175   3.195   5.056 -0.5333 -1.6498  1.6855
  113SAPE     N11737   6.420   6.616   3.174  0.2650  0.3036  0.1501
  113SAPE   HN111738   6.340   6.554   3.195  1.5101 -1.0360  1.1617
  113SAPE   HN211739   6.455   6.586   3.081  0.1706  0.4093  0.0788
  113SAPE   HN311740   6.493   6.585   3.241  0.4852 -0.1559 -0.2984
  113SAPE   C1211741   6.398   6.763   3.180  0.7882  0.5750  1.4303
  113SAPE  H12A11742   6.333   6.794   3.096  1.5737  0.0184  0.5965
  113SAPE  H12B11743   6.499   6.801   3.155 -0.5734  1.7978 -2.9577
  113SAPE   C1111744   6.342   6.807   3.313 -0.1180  0.1505  0.1639
  113SAPE  H11A11745   6.236   6.781   3.332 -0.1454 -0.3167 -0.5836
  113SAPE  H11B11746   6.358   6.915   3.330 -0.5247  0.0435  1.3350
  113SAPE     P11747   6.419   6.715   3.552  0.0448 -0.0663  0.8707
  113SAPE   O1311748   6.327   6.599   3.564  0.1457 -0.1369  0.5487
  113SAPE   O1411749   6.554   6.703   3.617 -0.2653  0.2194 -0.1540
  113SAPE   O1211750   6.431   6.741   3.402  0.0082  0.7116 -0.1001
  113SAPE   O1111751   6.353   6.849   3.605 -0.2216 -0.5425  0.1304
  113SAPE    C111752   6.284   6.849   3.734 -0.0636 -0.3308  0.5258
  113SAPE    HA11753   6.212   6.934   3.729  0.1988 -0.0618  1.1888
  113SAPE    HB11754   6.225   6.759   3.760  0.3290 -0.9190 -0.5595
  113SAPE    C211755   6.390   6.886   3.836  0.9753 -0.4999 -0.3546
  113SAPE    HS11756   6.464   6.805   3.852  2.1225  0.1150 -2.2608
  113SAPE   O2111757   6.323   6.920   3.964  0.1853  0.0989 -1.0729
  113SAPE   C2111758   6.280   6.808   4.025 -0.1279 -0.2666 -0.3112
  113SAPE   O2211759   6.305   6.695   3.987 -0.0761 -0.1998 -0.1565
  113SAPE   C2211760   6.208   6.844   4.154  0.4473  0.0152  0.5452
  113SAPE   H2R11761   6.286   6.881   4.225  2.5508 -0.9818 -1.1057
  113SAPE   H2S11762   6.135   6.924   4.130  3.4726  2.1762 -2.3073
  113SAPE    C311763   6.476   7.009   3.793  0.1058  0.9002  0.3893
  113SAPE    HX11764   6.406   7.094   3.776  1.0580  1.4599 -0.9149
  113SAPE    HY11765   6.522   6.996   3.692 -0.9945  1.7110 -0.2435
  113SAPE   O3111766   6.576   7.039   3.893  0.5457 -0.2122 -0.3874
  113SAPE   C3111767   6.647   7.151   3.855  0.1097 -1.0960  0.5684
  113SAPE   O3211768   6.636   7.200   3.745 -0.0847 -0.6959 -0.6119
  113SAPE   C3211769   6.738   7.176   3.975 -0.1511  0.2020  0.0412
  113SAPE   H2X11770   6.797   7.084   3.992  0.5823  0.6720  0.1032
  113SAPE   H2Y11771   6.683   7.204   4.067  0.0659  0.3041  0.1390
  113SAPE   C2311772   6.129   6.719   4.212  0.0782  0.1836  0.4540
  113SAPE   H3R11773   6.191   6.638   4.254  1.4108  0.5241 -0.7775
  113SAPE   H3S11774   6.082   6.679   4.119  0.5636  1.3577 -0.3257
  113SAPE   C2411775   6.025   6.765   4.320 -1.3174  1.1016  0.1275
  113SAPE   H4R11776   5.956   6.678   4.332 -0.6069  0.1532 -2.0593
  113SAPE   H4S11777   5.964   6.850   4.282  0.4526  2.0491 -0.6938
  113SAPE   C2511778   6.100   6.808   4.450  1.4996 -0.4444 -0.3260
  113SAPE   H5R11779   6.168   6.893   4.431  1.6378 -0.5834 -0.4596
  113SAPE   C2611780   6.085   6.761   4.574 -0.2018  0.0450 -0.5913
  113SAPE   H6R11781   6.146   6.806   4.654 -0.5352 -1.1531  0.3569
  113SAPE   C2711782   6.003   6.647   4.623  0.3907  0.1601  0.5184
  113SAPE   H7R11783   6.065   6.600   4.703  1.8825 -0.1811 -0.7910
  113SAPE   H7S11784   5.993   6.569   4.545  0.8590 -0.6322  1.2338
  113SAPE   C2811785   5.853   6.687   4.661 -0.3705 -0.0921 -0.2226
  113SAPE   H8R11786   5.779   6.659   4.584  1.3569 -0.7158 -1.7555
  113SAPE   C2911787   5.813   6.750   4.778 -0.4592  0.1591 -0.2856
  113SAPE   H9R11788   5.707   6.775   4.787 -0.1153  1.9326 -0.9148
  113SAPE  C21011789   5.911   6.798   4.885  0.7062 -0.3993 -0.1500
  113SAPE  H10R11790   6.014   6.795   4.844 -0.1646  1.4135 -2.6794
  113SAPE  H10S11791   5.904   6.716   4.960  0.2397  0.2646  0.5534
  113SAPE  C21111792   5.892   6.935   4.936  0.9098  0.0969 -0.4299
  113SAPE  H11R11793   5.865   7.014   4.864 -3.3124  0.1692  0.9658
  113SAPE  C21211794   5.910   6.971   5.062 -0.0315  0.5036  0.2287
  113SAPE  H12R11795   5.902   7.079   5.086 -3.6572  0.6404 -0.9663
  113SAPE  C21311796   5.940   6.891   5.183  0.2027  0.2364 -0.4989
  113SAPE  H13R11797   5.876   6.803   5.203  1.9852 -0.5640  2.3637
  113SAPE  H13S11798   5.911   6.955   5.269 -0.1705 -1.5448  0.7517
  113SAPE  C21411799   6.091   6.853   5.202 -0.3708 -0.3450  0.4079
  113SAPE  H14R11800   6.167   6.900   5.138  1.2226 -1.2840  1.5464
  113SAPE  C21511801   6.139   6.776   5.302  0.2207  0.5267 -0.6642
  113SAPE  H15R11802   6.246   6.763   5.320  0.2052  1.5864  0.3407
  113SAPE  C21611803   6.044   6.707   5.400 -0.0700 -0.0629 -0.2811
  113SAPE  H16R11804   5.938   6.738   5.386 -0.5362 -0.2362  2.2476
  113SAPE  H16S11805   6.078   6.745   5.499 -0.3574  0.0391 -0.2190
  113SAPE  C21711806   6.055   6.555   5.395  0.4549  0.5119 -0.0336
  113SAPE  H17R11807   6.001   6.510   5.481  0.3056  1.0669  0.1733
  113SAPE  H17S11808   6.160   6.525   5.416 -0.1295 -1.4605  0.2493
  113SAPE  C21811809   6.012   6.481   5.266 -1.1429 -0.0502 -0.7904
  113SAPE  H18R11810   6.031   6.372   5.273 -1.8074 -0.1501 -0.5095
  113SAPE  H18S11811   6.076   6.513   5.180 -0.5581 -0.8052 -0.6425
  113SAPE  C21911812   5.867   6.513   5.248  0.6089  0.4100  0.5855
  113SAPE  H19R11813   5.872   6.618   5.214 -1.8902  0.0772 -1.0782
  113SAPE  H19S11814   5.801   6.506   5.337  1.0790  2.2101  1.1071
  113SAPE  C22011815   5.806   6.427   5.135  0.2090  0.4219  0.4347
  113SAPE  H20R11816   5.862   6.439   5.040  0.3333 -2.5069  0.0659
  113SAPE  H20S11817   5.701   6.451   5.108  0.0382 -1.2263 -0.4478
  113SAPE  H20T11818   5.817   6.317   5.148  1.9280  0.2165 -2.1416
  113SAPE   C3311819   6.824   7.298   3.944  0.2940  0.4658  0.4982
  113SAPE   H3X11820   6.764   7.391   3.935  0.3682  0.5209  0.5639
  113SAPE   H3Y11821   6.876   7.293   3.845  0.4878  0.1522  0.6130
  113SAPE   C3411822   6.921   7.335   4.052  0.1350 -0.0511 -0.8643
  113SAPE   H4X11823   7.014   7.275   4.045  0.0050 -0.4328  0.2828
  113SAPE   H4Y11824   6.861   7.312   4.144  1.0378  1.4222  0.1254
  113SAPE   C3511825   6.953   7.487   4.076 -0.2349 -0.4495  0.6637
  113SAPE   H5X11826   6.854   7.533   4.097 -0.4047 -0.2440 -0.5362
  113SAPE   H5Y11827   7.000   7.533   3.987 -0.0031  0.5287  1.2718
  113SAPE   C3611828   7.041   7.510   4.199  0.0926  0.5046  0.1693
  113SAPE   H6X11829   7.087   7.611   4.196  1.7909 -0.2413 -3.3311
  113SAPE   H6Y11830   7.135   7.453   4.185 -0.8549 -0.7049 -1.5587
  113SAPE   C3711831   6.970   7.498   4.334 -0.2956  0.0853  0.6179
  113SAPE   H7X11832   6.936   7.396   4.362  1.3683 -0.3362  1.2577
  113SAPE   H7Y11833   6.883   7.566   4.327  0.8270  1.5444  0.2453
  113SAPE   C3811834   7.073   7.541   4.444  0.3189 -0.6530 -0.0071
  113SAPE   H8X11835   7.147   7.458   4.441 -0.7108 -1.7771  2.4973
  113SAPE   H8Y11836   7.116   7.640   4.420 -1.4091  0.4125  1.0931
  113SAPE   C3911837   7.016   7.542   4.584 -0.0320 -0.2950 -0.0192
  113SAPE   H9X11838   7.104   7.545   4.652 -0.2801  1.3202  0.2949
  113SAPE   H9Y11839   6.971   7.441   4.589  2.5549 -1.5760 -0.8347
  113SAPE  C31011840   6.906   7.645   4.617 -0.5595 -0.2662 -0.2533
  113SAPE  H10X11841   6.830   7.639   4.535 -0.1935 -3.2609 -0.4883
  113SAPE  H10Y11842   6.955   7.743   4.629  1.2058 -1.1093 -0.2191
  113SAPE  C31111843   6.832   7.615   4.749  0.0210  0.0297  0.1004
  113SAPE  H11X11844   6.776   7.522   4.728  0.2763  0.3827 -2.3967
  113SAPE  H11Y11845   6.748   7.687   4.763 -0.2082 -0.2791  0.3231
  113SAPE  C31211846   6.934   7.599   4.857  0.4033 -0.1648  0.3913
  113SAPE  H12X11847   7.001   7.687   4.860 -1.6028  1.4078  0.3637
  113SAPE  H12Y11848   6.991   7.503   4.851 -0.2797 -0.7029  2.1012
  113SAPE  C31311849   6.869   7.595   4.997 -0.3099  0.1767 -0.1750
  113SAPE  H13X11850   6.809   7.503   5.009 -1.2954  0.9215  0.9316
  113SAPE  H13Y11851   6.805   7.685   5.003  0.2346  0.5150  0.9731
  113SAPE  C31411852   6.975   7.596   5.113  0.1730 -0.1314  0.0347
  113SAPE  H14X11853   7.013   7.700   5.107  0.4183 -0.2384 -0.2728
  113SAPE  H14Y11854   7.057   7.521   5.109 -0.9558 -1.4854  1.0278
  113SAPE  C31511855   6.900   7.594   5.251 -0.0806  0.3344  0.7840
  113SAPE  H15X11856   6.880   7.494   5.295 -1.5140  0.6255  0.8375
  113SAPE  H15Y11857   6.806   7.652   5.247  1.3268  2.7345  0.4898
  113SAPE  C31611858   6.986   7.658   5.357 -0.4591 -0.1993  0.6900
  113SAPE  H16X11859   7.008   7.766   5.340  0.8411 -0.7894 -1.8803
  113SAPE  H16Y11860   7.087   7.612   5.352 -0.0285  0.7063  0.8404
  113SAPE  C31711861   6.934   7.649   5.502 -0.2870  0.5009  0.3433
  113SAPE  H17X11862   6.825   7.671   5.510 -0.9395 -2.3788  0.6534
  113SAPE  H17Y11863   6.996   7.717   5.565 -0.3318 -0.7890  1.8590
  113SAPE  C31811864   6.966   7.518   5.564 -0.1204 -0.2336  0.1755
  113SAPE  H18X11865   7.074   7.507   5.589 -0.0396  0.5257  0.1684
  113SAPE  H18Y11866   6.953   7.425   5.505 -1.4435  0.0937 -0.0785
  113SAPE  H18Z11867   6.900   7.515   5.654  0.2439  0.2287  0.4612
  114SAPE     N11868   2.084   2.344   3.341  0.5349 -0.5765  0.3891
  114SAPE   HN111869   2.178   2.310   3.368  1.0707 -1.8379 -2.6003
  114SAPE   HN211870   2.037   2.269   3.286  0.8204 -0.6096  0.1868
  114SAPE   HN311871   2.097   2.424   3.275 -0.0841 -1.6215 -1.0705
  114SAPE   C1211872   1.999   2.378   3.457 -0.4126 -0.0670 -0.2504
  114SAPE  H12A11873   2.066   2.438   3.523 -0.4892 -0.0340 -0.2022
  114SAPE  H12B11874   1.980   2.285   3.516 -0.3431  0.0972  0.0313
  114SAPE   C1111875   1.869   2.452   3.431 -0.4667  0.2832 -0.2349
  114SAPE  H11A11876   1.888   2.556   3.394 -1.5482  0.5928  0.0573
  114SAPE  H11B11877   1.809   2.462   3.524 -0.8772  1.9843 -0.6356
  114SAPE     P11878   1.643   2.340   3.375  0.4462 -0.0099 -0.1371
  114SAPE   O1311879   1.559   2.459   3.378 -0.0793 -0.1178 -0.3821
  114SAPE   O1411880   1.615   2.236   3.285  0.2684  0.6171 -0.3479
  114SAPE   O1211881   1.787   2.382   3.336  0.1096  0.0078  0.2763
  114SAPE   O1111882   1.651   2.283   3.517  0.0926 -0.4084 -0.6009
  114SAPE    C111883   1.658   2.142   3.547  0.5587 -0.9988 -0.8878
  114SAPE    HA11884   1.601   2.081   3.474  0.6530 -1.5362 -0.5204
  114SAPE    HB11885   1.764   2.118   3.523  0.6014 -0.7782 -0.9233
  114SAPE    C211886   1.612   2.117   3.686  0.0861 -0.3385 -0.3006
  114SAPE    HS11887   1.634   2.011   3.710 -1.0067  0.0936  3.1773
  114SAPE   O2111888   1.473   2.153   3.682 -0.5633 -0.4732 -0.3161
  114SAPE   C2111889   1.391   2.100   3.775 -0.0793  0.9161 -0.1505
  114SAPE   O2211890   1.417   1.998   3.836 -0.4133  0.3213 -0.3927
  114SAPE   C2211891   1.255   2.176   3.788  0.3315  0.0420  0.5396
  114SAPE   H2R11892   1.232   2.224   3.691  2.3062  1.7458  0.8679
  114SAPE   H2S11893   1.182   2.092   3.788  1.5824 -1.1206 -1.7790
  114SAPE    C311894   1.695   2.202   3.798  0.0862  0.1133  0.5162
  114SAPE    HX11895   1.676   2.310   3.780 -0.4531 -0.2689 -1.5808
  114SAPE    HY11896   1.801   2.175   3.778 -0.2405 -2.8885  2.2574
  114SAPE   O3111897   1.660   2.173   3.938  0.7032 -0.4587 -0.4138
  114SAPE   C3111898   1.699   2.059   3.994  0.4696  0.0588  0.6499
  114SAPE   O3211899   1.772   1.975   3.940 -0.1744 -0.1634 -0.3581
  114SAPE   C3211900   1.637   2.048   4.134  0.6281 -0.7384 -0.9370
  114SAPE   H2X11901   1.530   2.061   4.107  0.3611 -2.0020 -0.5194
  114SAPE   H2Y11902   1.664   2.129   4.206 -0.6576 -1.7675  0.7966
  114SAPE   C2311903   1.243   2.280   3.905  0.6157 -0.2882 -0.2641
  114SAPE   H3R11904   1.142   2.326   3.904  0.7275 -0.0488 -1.3981
  114SAPE   H3S11905   1.314   2.362   3.879  0.7318 -0.7882 -1.5826
  114SAPE   C2411906   1.277   2.228   4.043 -0.5521 -0.5688  0.2857
  114SAPE   H4R11907   1.250   2.303   4.120  0.9419  0.7588 -0.4167
  114SAPE   H4S11908   1.387   2.215   4.049 -0.3154  1.0616 -0.0668
  114SAPE   C2511909   1.209   2.101   4.075 -0.5545 -0.1648  0.0341
  114SAPE   H5R11910   1.180   2.027   3.999  0.4990 -0.4880 -0.0695
  114SAPE   C2611911   1.186   2.061   4.197  0.1447 -0.5665 -0.4226
  114SAPE   H6R11912   1.136   1.962   4.201  1.4768 -1.2391 -0.0289
  114SAPE   C2711913   1.205   2.127   4.330 -0.1889 -0.1160 -0.7892
  114SAPE   H7R11914   1.249   2.229   4.330  0.2738 -0.1276  3.2593
  114SAPE   H7S11915   1.295   2.076   4.372 -1.2616 -0.8646  0.6768
  114SAPE   C2811916   1.093   2.127   4.432 -0.0568  0.4022  0.1029
  114SAPE   H8R11917   1.018   2.207   4.428 -0.3772  0.5693  4.4619
  114SAPE   C2911918   1.071   2.050   4.542  0.0142 -0.1183  0.0163
  114SAPE   H9R11919   0.994   2.074   4.617  1.3693 -1.7385  2.0465
  114SAPE  C21011920   1.165   1.944   4.598 -0.1515 -0.3188  0.4574
  114SAPE  H10R11921   1.141   1.931   4.705  1.5934 -0.9459  0.8019
  114SAPE  H10S11922   1.269   1.982   4.606 -0.0330 -0.2917 -0.9646
  114SAPE  C21111923   1.176   1.820   4.521 -0.0963 -0.5409  0.3020
  114SAPE  H11R11924   1.202   1.823   4.414 -2.1534 -1.2729 -0.2499
  114SAPE  C21211925   1.134   1.693   4.559 -0.4381 -0.1467  0.4448
  114SAPE  H12R11926   1.167   1.606   4.499  1.1466  1.1548 -0.6716
  114SAPE  C21311927   1.100   1.649   4.700 -0.8407  0.1543  0.0847
  114SAPE  H13R11928   1.027   1.565   4.707 -1.2834  0.6815  3.3497
  114SAPE  H13S11929   1.045   1.730   4.752  2.6713  1.6385  1.7839
  114SAPE  C21411930   1.220   1.598   4.775  0.6192 -0.0570  0.4465
  114SAPE  H14R11931   1.303   1.584   4.704  0.9056  1.5254  0.4183
  114SAPE  C21511932   1.228   1.583   4.904 -0.7617 -0.4965  0.8794
  114SAPE  H15R11933   1.313   1.528   4.948 -1.5022 -0.5442  2.3357
  114SAPE  C21611934   1.123   1.604   5.014 -0.5465 -0.0117  0.1203
  114SAPE  H16R11935   1.027   1.560   4.979 -0.2070 -0.8242  0.1706
  114SAPE  H16S11936   1.119   1.714   5.025 -0.2546  0.1212 -0.9916
  114SAPE  C21711937   1.166   1.538   5.143  0.6350 -0.4285 -0.5763
  114SAPE  H17R11938   1.267   1.579   5.163  0.5906 -0.5798 -0.0250
  114SAPE  H17S11939   1.166   1.428   5.134 -2.2762 -0.4602 -1.3612
  114SAPE  C21811940   1.075   1.570   5.261  0.3304 -0.4094  0.1474
  114SAPE  H18R11941   1.125   1.522   5.348  1.7119  1.2939  0.3565
  114SAPE  H18S11942   0.979   1.516   5.243  0.2033  0.5275 -2.3632
  114SAPE  C21911943   1.052   1.718   5.303  0.0894  0.1940 -0.1658
  114SAPE  H19R11944   1.068   1.785   5.216 -0.0794  2.7561  1.6657
  114SAPE  H19S11945   1.128   1.756   5.375  2.2339  1.6018 -2.9933
  114SAPE  C22011946   0.918   1.734   5.378 -0.2793  0.1060  1.1662
  114SAPE  H20R11947   0.902   1.842   5.396  0.7929  1.5739 -4.6208
  114SAPE  H20S11948   0.917   1.672   5.470  2.3385 -0.6499  0.7697
  114SAPE  H20T11949   0.842   1.694   5.307  0.2710  1.3554 -0.1607
  114SAPE   C3311950   1.657   1.913   4.206  0.4527 -0.4194 -0.0689
  114SAPE   H3X11951   1.767   1.908   4.219  0.5354  1.2255  0.0471
  114SAPE   H3Y11952   1.634   1.830   4.135 -1.0833 -0.5272  0.5133
  114SAPE   C3411953   1.584   1.910   4.337 -0.4125 -0.6188  0.4555
  114SAPE   H4X11954   1.477   1.935   4.319  0.4426  2.0764 -1.6450
  114SAPE   H4Y11955   1.626   1.978   4.414  0.3417 -0.5078 -0.0431
  114SAPE   C3511956   1.585   1.768   4.401 -0.2754 -0.4909  0.3311
  114SAPE   H5X11957   1.684   1.726   4.373 -0.3014 -0.7942  0.6887
  114SAPE   H5Y11958   1.499   1.711   4.360  0.9525 -3.1932  1.2776
  114SAPE   C3611959   1.581   1.769   4.555 -0.0872  0.6557  0.9008
  114SAPE   H6X11960   1.478   1.808   4.571 -1.1512 -0.8539 -1.6122
  114SAPE   H6Y11961   1.653   1.842   4.599 -0.5015  0.8274  1.3072
  114SAPE   C3711962   1.592   1.628   4.617  0.3571 -0.6268 -0.1306
  114SAPE   H7X11963   1.683   1.581   4.574 -0.5957  0.5307 -3.7235
  114SAPE   H7Y11964   1.511   1.557   4.587 -0.4045  0.6440 -1.2072
  114SAPE   C3811965   1.605   1.634   4.773 -0.2220  0.2795 -0.6163
  114SAPE   H8X11966   1.570   1.536   4.811 -1.4061  0.7177 -0.5370
  114SAPE   H8Y11967   1.541   1.712   4.819  0.0586 -0.6008  1.3708
  114SAPE   C3911968   1.755   1.646   4.811  0.3514 -0.4905  0.5498
  114SAPE   H9X11969   1.804   1.725   4.751  0.1785 -0.8759 -0.1103
  114SAPE   H9Y11970   1.805   1.551   4.784  0.0199 -0.2705 -0.9061
  114SAPE  C31011971   1.765   1.678   4.963 -0.1801 -0.8421  0.1956
  114SAPE  H10X11972   1.688   1.754   4.989 -1.7925 -2.2061 -0.4376
  114SAPE  H10Y11973   1.863   1.706   5.009  0.4462 -1.5134 -0.6881
  114SAPE  C31111974   1.719   1.558   5.050 -0.0621 -0.0608 -0.2109
  114SAPE  H11X11975   1.771   1.463   5.028  0.6812  0.3822 -0.4323
  114SAPE  H11Y11976   1.615   1.534   5.021 -0.1431  0.2674 -0.2043
  114SAPE  C31211977   1.733   1.568   5.207 -0.8823  0.3721  0.0784
  114SAPE  H12X11978   1.666   1.496   5.258 -2.4826  0.9666 -1.0985
  114SAPE  H12Y11979   1.689   1.668   5.231 -0.0636  0.8468 -0.3404
  114SAPE  C31311980   1.875   1.562   5.272  0.3977 -0.1996 -0.7139
  114SAPE  H13X11981   1.946   1.631   5.222  0.1339 -2.1300 -4.1320
  114SAPE  H13Y11982   1.913   1.457   5.268 -2.3911 -1.5897  3.0990
  114SAPE  C31411983   1.876   1.608   5.423 -0.2648  0.2475 -0.1628
  114SAPE  H14X11984   1.815   1.529   5.473 -3.1885  1.0125 -2.2358
  114SAPE  H14Y11985   1.823   1.705   5.434  0.5846  0.6515  0.4342
  114SAPE  C31511986   2.015   1.623   5.484  0.0353  0.1816 -0.6415
  114SAPE  H15X11987   2.079   1.694   5.427 -0.0827  1.3532  0.6427
  114SAPE  H15Y11988   2.064   1.523   5.478 -0.6766 -0.1059 -2.2122
  114SAPE  C31611989   2.015   1.666   5.631 -0.0231  0.1111  0.3199
  114SAPE  H16X11990   1.945   1.604   5.692 -0.9247  0.7409 -0.0460
  114SAPE  H16Y11991   1.978   1.770   5.636 -1.2570 -0.1100 -2.4452
  114SAPE  C31711992   2.155   1.656   5.691 -0.0463 -0.2418  0.4077
  114SAPE  H17X11993   2.178   1.550   5.716 -0.1645  0.0079  1.6592
  114SAPE  H17Y11994   2.141   1.706   5.789 -2.5425  0.5048 -0.2574
  114SAPE  C31811995   2.265   1.725   5.609  0.3035  0.2216  0.4580
  114SAPE  H18X11996   2.218   1.804   5.547 -0.1841 -0.4129 -0.0061
  114SAPE  H18Y11997   2.325   1.652   5.550  1.2331 -1.7425  3.6143
  114SAPE  H18Z11998   2.330   1.780   5.679 -0.0574  0.2048  0.8125
  115SAPE     N11999   5.559   3.313   3.386 -0.1221  0.1255  0.1361
  115SAPE   HN112000   5.484   3.369   3.340 -0.0089  0.5001  0.4140
  115SAPE   HN212001   5.647   3.366   3.375 -0.4217  0.9490  1.5096
  115SAPE   HN312002   5.567   3.225   3.330 -0.3357  0.2282 -0.0619
  115SAPE   C1212003   5.507   3.294   3.525 -0.2755  0.5024 -0.3128
  115SAPE  H12A12004   5.470   3.393   3.560 -0.4235  0.7137 -1.0447
  115SAPE  H12B12005   5.592   3.269   3.592 -1.1773  0.4720  0.8615
  115SAPE   C1112006   5.391   3.192   3.530  0.5754 -0.6142  0.0940
  115SAPE  H11A12007   5.363   3.173   3.635  0.8154  2.1748  0.7565
  115SAPE  H11B12008   5.436   3.102   3.484  1.4625  1.0165 -2.4882
  115SAPE     P12009   5.169   3.142   3.398  0.3440  0.7173  0.4950
  115SAPE   O1312010   5.038   3.204   3.397 -0.5544  0.2570  0.3012
  115SAPE   O1412011   5.220   3.101   3.264  0.1123  0.2392 -0.6118
  115SAPE   O1212012   5.272   3.240   3.468 -0.3525  0.3621  1.1299
  115SAPE   O1112013   5.174   3.014   3.495 -0.1110  0.4173 -0.0758
  115SAPE    C112014   5.110   2.883   3.466  0.1944  0.6271  0.0708
  115SAPE    HA12015   5.001   2.881   3.485  0.3189 -2.2744  0.9003
  115SAPE    HB12016   5.116   2.863   3.356 -0.9751 -1.2015  0.2965
  115SAPE    C212017   5.179   2.765   3.550 -0.0517  0.1899 -0.3988
  115SAPE    HS12018   5.115   2.675   3.554 -1.6759  1.2621 -1.4443
  115SAPE   O2112019   5.201   2.813   3.688 -0.2322  0.5949 -0.8961
  115SAPE   C2112020   5.100   2.848   3.751 -0.0890 -0.6963 -0.0028
  115SAPE   O2212021   4.983   2.823   3.717  0.3760 -0.3247 -0.1528
  115SAPE   C2212022   5.133   2.949   3.861  0.1262 -0.5662 -0.7355
  115SAPE   H2R12023   5.243   2.969   3.863 -0.0835  0.7366 -1.1534
  115SAPE   H2S12024   5.080   3.043   3.836 -1.3656 -1.1183  0.1874
  115SAPE    C312025   5.320   2.729   3.491  0.8381 -0.3623 -0.2525
  115SAPE    HX12026   5.373   2.827   3.488 -0.9358  0.6293 -0.8540
  115SAPE    HY12027   5.313   2.691   3.387 -0.9805  0.3535 -0.4303
  115SAPE   O3112028   5.392   2.648   3.576 -0.1502  0.5860 -0.2366
  115SAPE   C3112029   5.387   2.515   3.556  0.1446  0.2039 -0.5057
  115SAPE   O3212030   5.304   2.464   3.481  0.2981  0.2985 -0.1302
  115SAPE   C3212031   5.496   2.445   3.643  0.1765 -0.4616  0.2956
  115SAPE   H2X12032   5.570   2.525   3.663 -1.6020  0.9052  1.8283
  115SAPE   H2Y12033   5.537   2.358   3.587  1.9207  1.0282 -0.8147
  115SAPE   C2312034   5.080   2.922   4.004  1.1024  0.1947  0.0428
  115SAPE   H3R12035   4.973   2.892   3.995  1.0668  0.3381 -0.0124
  115SAPE   H3S12036   5.087   3.020   4.056 -2.4382  0.7898 -0.3347
  115SAPE   C2412037   5.164   2.832   4.099  0.2669 -0.0325 -0.1433
  115SAPE   H4R12038   5.140   2.857   4.205  2.5734  2.2940 -0.0841
  115SAPE   H4S12039   5.270   2.860   4.080  0.6896  0.8040  2.8213
  115SAPE   C2512040   5.127   2.692   4.057 -0.3525  0.8741  0.3505
  115SAPE   H5R12041   5.168   2.662   3.959  0.3009 -1.7417  1.3454
  115SAPE   C2612042   5.059   2.594   4.123  0.8577  0.5391 -0.0566
  115SAPE   H6R12043   5.048   2.489   4.092  1.2680 -1.0048  4.3093
  115SAPE   C2712044   4.989   2.606   4.257  0.4824 -0.0073 -0.2384
  115SAPE   H7R12045   5.068   2.603   4.335  0.3678 -0.5295 -0.1385
  115SAPE   H7S12046   4.929   2.513   4.270 -0.5529  0.8139  1.0315
  115SAPE   C2812047   4.893   2.725   4.273  0.0620  0.7151 -0.3819
  115SAPE   H8R12048   4.881   2.796   4.190 -0.5361 -0.3381 -1.2182
  115SAPE   C2912049   4.832   2.752   4.393 -0.0307 -0.6544  0.0960
  115SAPE   H9R12050   4.767   2.841   4.394  1.2521  0.3806 -2.4367
  115SAPE  C21012051   4.827   2.684   4.524  0.0294  0.0270  0.0508
  115SAPE  H10R12052   4.886   2.590   4.522  0.0246  0.0098  0.7258
  115SAPE  H10S12053   4.724   2.650   4.548 -0.0589 -0.4617 -0.9394
  115SAPE  C21112054   4.895   2.760   4.638 -0.0281  0.1542  0.0306
  115SAPE  H11R12055   5.005   2.768   4.634  0.1865 -1.7197  0.9944
  115SAPE  C21212056   4.834   2.813   4.744 -0.4288 -0.5642 -0.5966
  115SAPE  H12R12057   4.885   2.879   4.816 -0.9923 -1.9043  1.0941
  115SAPE  C21312058   4.687   2.808   4.777 -0.0762  0.3001  0.4696
  115SAPE  H13R12059   4.630   2.778   4.686  1.3678 -2.2946  0.3286
  115SAPE  H13S12060   4.650   2.909   4.804 -1.5599  0.4547 -1.8329
  115SAPE  C21412061   4.657   2.708   4.891 -0.0711 -0.1510  0.6977
  115SAPE  H14R12062   4.715   2.614   4.896  0.6989  0.3407  1.1169
  115SAPE  C21512063   4.563   2.725   4.981  0.1494 -0.0986 -0.1065
  115SAPE  H15R12064   4.568   2.660   5.069  3.8183  0.6417  0.3637
  115SAPE  C21612065   4.473   2.841   5.000 -1.3699 -0.4103 -0.6517
  115SAPE  H16R12066   4.472   2.915   4.917  0.6551  1.4122  0.8466
  115SAPE  H16S12067   4.511   2.884   5.095  0.3134 -0.7488 -1.1555
  115SAPE  C21712068   4.323   2.797   5.023  0.2602  0.3950 -0.1489
  115SAPE  H17R12069   4.326   2.714   5.098  0.1788  1.6477  1.2819
  115SAPE  H17S12070   4.290   2.741   4.933  0.9321  0.8973 -0.7165
  115SAPE  C21812071   4.225   2.911   5.043 -0.7168  0.3193 -0.1918
  115SAPE  H18R12072   4.227   2.985   4.960 -0.5169 -0.8286 -1.2238
  115SAPE  H18S12073   4.246   2.958   5.142 -0.4227  2.1585 -1.0920
  115SAPE  C21912074   4.088   2.862   5.063  0.2052 -0.5568 -0.5092
  115SAPE  H19R12075   4.090   2.774   5.131  1.0962  0.2394  0.5547
  115SAPE  H19S12076   4.058   2.822   4.964 -0.0223  1.3284 -1.2483
  115SAPE  C22012077   3.995   2.977   5.106  0.2812 -0.2853 -0.3090
  115SAPE  H20R12078   3.886   2.954   5.113 -0.2648  1.7217 -1.5006
  115SAPE  H20S12079   4.001   3.072   5.048 -1.7876  0.5020  0.6512
  115SAPE  H20T12080   4.021   3.002   5.211 -1.9962 -0.3895  0.3376
  115SAPE   C3312081   5.445   2.385   3.777  0.4947  0.0263  0.6640
  115SAPE   H3X12082   5.496   2.287   3.791  1.2038  0.4205  0.8705
  115SAPE   H3Y12083   5.335   2.369   3.783  0.6199 -0.8706  0.7917
  115SAPE   C3412084   5.491   2.463   3.901 -1.2536 -0.3972  0.0339
  115SAPE   H4X12085   5.443   2.563   3.891 -1.4154 -0.4971 -0.2045
  115SAPE   H4Y12086   5.600   2.478   3.919 -1.3171 -0.2624  0.3074
  115SAPE   C3512087   5.423   2.419   4.035 -0.3249  0.1497  0.7704
  115SAPE   H5X12088   5.438   2.311   4.056 -0.2764  0.3381  1.7322
  115SAPE   H5Y12089   5.313   2.434   4.029 -0.3771  0.2862  1.8804
  115SAPE   C3612090   5.469   2.494   4.157  0.4432 -0.0167 -0.7805
  115SAPE   H6X12091   5.466   2.605   4.148 -0.6780 -0.0294 -0.8086
  115SAPE   H6Y12092   5.576   2.478   4.179  0.4632  0.8131 -0.2096
  115SAPE   C3712093   5.387   2.468   4.279  0.4574 -0.0124 -1.2406
  115SAPE   H7X12094   5.403   2.362   4.307 -0.9317  0.0733  0.0156
  115SAPE   H7Y12095   5.281   2.468   4.244 -0.0653 -1.7166  0.2052
  115SAPE   C3812096   5.412   2.557   4.402  0.0987  0.2122 -0.1506
  115SAPE   H8X12097   5.315   2.546   4.454  1.2378 -2.5771  1.6236
  115SAPE   H8Y12098   5.415   2.666   4.379 -1.0195  0.4425  0.7034
  115SAPE   C3912099   5.534   2.504   4.490 -0.3841 -0.0489 -0.0029
  115SAPE   H9X12100   5.631   2.498   4.436 -0.0244 -2.5534  0.7894
  115SAPE   H9Y12101   5.502   2.398   4.487 -1.6579  0.2661  1.1235
  115SAPE  C31012102   5.548   2.567   4.625 -0.2973  0.5421 -0.2078
  115SAPE  H10X12103   5.445   2.605   4.646 -0.5828 -0.9963  1.4187
  115SAPE  H10Y12104   5.616   2.654   4.616 -1.8327  1.8732  0.4412
  115SAPE  C31112105   5.592   2.460   4.726 -0.3382 -0.2352  0.0253
  115SAPE  H11X12106   5.696   2.431   4.700 -0.7539 -1.1834 -0.6609
  115SAPE  H11Y12107   5.522   2.375   4.708  1.0080 -1.7751  1.5999
  115SAPE  C31212108   5.581   2.519   4.865  0.2449  0.2046 -0.1639
  115SAPE  H12X12109   5.507   2.602   4.867  1.6205  1.4550  0.5890
  115SAPE  H12Y12110   5.674   2.565   4.904 -0.0695 -0.9965  2.1584
  115SAPE  C31312111   5.533   2.409   4.961 -0.6651 -0.5810  0.3517
  115SAPE  H13X12112   5.624   2.360   5.002 -1.1643 -2.5890 -0.8137
  115SAPE  H13Y12113   5.469   2.336   4.907  1.1498 -0.8973 -1.4865
  115SAPE  C31412114   5.461   2.477   5.080  0.3484  0.2963 -0.1794
  115SAPE  H14X12115   5.432   2.393   5.146  0.8782  0.0910 -0.2042
  115SAPE  H14Y12116   5.377   2.539   5.043 -0.0164  0.3898  0.7835
  115SAPE  C31512117   5.558   2.566   5.164 -0.1474 -0.2056  0.3764
  115SAPE  H15X12118   5.580   2.666   5.119  3.0215 -0.4982  1.0017
  115SAPE  H15Y12119   5.656   2.514   5.158 -0.8628 -1.5716  0.2701
  115SAPE  C31612120   5.517   2.580   5.310  0.5353 -0.7054  0.3126
  115SAPE  H16X12121   5.494   2.497   5.381 -1.4547  0.2119  0.8246
  115SAPE  H16Y12122   5.427   2.645   5.312  2.0571  1.5735 -1.0622
  115SAPE  C31712123   5.632   2.653   5.389 -0.1577 -0.4157 -0.0013
  115SAPE  H17X12124   5.672   2.745   5.342 -0.5896  0.7819  1.8735
  115SAPE  H17Y12125   5.719   2.584   5.398 -1.2819 -2.0897 -1.2740
  115SAPE  C31812126   5.591   2.689   5.534  0.3994  0.2418  0.5097
  115SAPE  H18X12127   5.490   2.736   5.530  0.6062  0.6488 -0.0265
  115SAPE  H18Y12128   5.661   2.765   5.574 -0.2207 -0.0518  2.2615
  115SAPE  H18Z12129   5.580   2.604   5.605  0.8547  0.9743  1.4772
  116SAPE     N12130   5.692   6.089   3.450 -0.4173 -0.2713 -0.4273
  116SAPE   HN112131   5.714   6.100   3.551  0.2396 -0.6438 -0.5296
  116SAPE   HN212132   5.675   6.184   3.410  0.5571  1.1029  2.1133
  116SAPE   HN312133   5.612   6.027   3.427 -0.1216  0.0053 -2.2878
  116SAPE   C1212134   5.817   6.026   3.400 -0.2135 -0.1265 -0.2049
  116SAPE  H12A12135   5.905   6.081   3.438  0.2589 -0.3073 -1.0030
  116SAPE  H12B12136   5.824   6.036   3.289 -0.3318  1.3724 -0.0925
  116SAPE   C1112137   5.832   5.886   3.455  0.4340 -0.7681 -0.4139
  116SAPE  H11A12138   5.742   5.825   3.432  0.9653 -1.6520 -0.2127
  116SAPE  H11B12139   5.842   5.893   3.566 -3.3414  3.5357 -0.0405
  116SAPE     P12140   6.073   5.793   3.453 -0.3294 -0.0163  0.2104
  116SAPE   O1312141   6.167   5.714   3.373 -0.1906  0.5503 -0.7763
  116SAPE   O1412142   6.119   5.927   3.498  0.3743  0.0148 -0.0032
  116SAPE   O1212143   5.932   5.808   3.384  0.5235 -0.3434 -0.2545
  116SAPE   O1112144   6.044   5.715   3.591 -0.0956 -0.2162 -0.1447
  116SAPE    C112145   6.062   5.573   3.598  0.4086  0.4993  0.4427
  116SAPE    HA12146   6.132   5.532   3.522 -0.1060  1.3174 -0.5077
  116SAPE    HB12147   6.088   5.543   3.701  1.8504  1.6434  0.4381
  116SAPE    C212148   5.923   5.505   3.569  0.2070 -0.0478 -0.5654
  116SAPE    HS12149   5.900   5.519   3.461 -1.7415  0.2276 -0.1538
  116SAPE   O2112150   5.816   5.567   3.647 -0.5073 -0.1395 -0.1044
  116SAPE   C2112151   5.690   5.524   3.630  0.4478 -0.8748 -0.4438
  116SAPE   O2212152   5.656   5.458   3.531 -0.3914  0.3339  0.7380
  116SAPE   C2212153   5.597   5.581   3.740  0.4493  0.1065 -0.4536
  116SAPE   H2R12154   5.615   5.690   3.729  0.2025  0.2482  0.4294
  116SAPE   H2S12155   5.495   5.540   3.725  0.4851 -1.0079  1.9015
  116SAPE    C312156   5.927   5.351   3.590 -0.1344 -0.3706 -0.1769
  116SAPE    HX12157   6.028   5.327   3.551  1.3395  0.5334  2.7534
  116SAPE    HY12158   5.845   5.303   3.533 -0.6051 -1.1191  1.0815
  116SAPE   O3112159   5.924   5.316   3.730 -0.3008 -0.3436 -0.0728
  116SAPE   C3112160   5.885   5.196   3.763  0.1588 -0.5180  0.1852
  116SAPE   O3212161   5.811   5.127   3.695  0.3133 -0.7510  0.4561
  116SAPE   C3212162   5.925   5.158   3.903  0.7468  0.5628  0.6236
  116SAPE   H2X12163   6.028   5.118   3.913  1.1331  1.4233  0.2552
  116SAPE   H2Y12164   5.856   5.076   3.932  1.0939  0.2694  0.6226
  116SAPE   C2312165   5.647   5.534   3.875  0.4423  0.0896  0.4243
  116SAPE   H3R12166   5.752   5.565   3.896  0.6220  0.3269 -0.7727
  116SAPE   H3S12167   5.657   5.424   3.888 -1.4825 -0.2037 -0.3117
  116SAPE   C2412168   5.566   5.595   3.990  0.1480 -0.7481 -0.0190
  116SAPE   H4R12169   5.554   5.705   3.978  0.4418 -0.2580  3.3898
  116SAPE   H4S12170   5.614   5.586   4.089  0.6536  2.0516  0.0829
  116SAPE   C2512171   5.425   5.536   3.987  0.3034  0.3953 -0.5917
  116SAPE   H5R12172   5.380   5.554   3.888 -2.0375 -2.2612 -0.1414
  116SAPE   C2612173   5.358   5.467   4.082 -0.4795  0.8902 -0.1590
  116SAPE   H6R12174   5.253   5.437   4.069  0.2464 -0.8736 -2.6979
  116SAPE   C2712175   5.421   5.414   4.209  0.6821  0.0144 -0.0531
  116SAPE   H7R12176   5.406   5.490   4.289 -3.9617 -2.0742  1.4224
  116SAPE   H7S12177   5.530   5.414   4.192  0.8396  2.5090  0.5339
  116SAPE   C2812178   5.370   5.280   4.257  0.0395 -0.0072 -0.5576
  116SAPE   H8R12179   5.422   5.198   4.205  1.0578  0.8434 -0.9229
  116SAPE   C2912180   5.261   5.257   4.334 -0.3793  0.3154 -0.5048
  116SAPE   H9R12181   5.227   5.154   4.350  0.6964 -0.0895 -0.7581
  116SAPE  C21012182   5.177   5.367   4.401 -0.2688  0.4129  0.0380
  116SAPE  H10R12183   5.092   5.387   4.333  0.5542 -2.8529 -2.2210
  116SAPE  H10S12184   5.232   5.463   4.397  1.2283 -0.4213 -0.5989
  116SAPE  C21112185   5.135   5.330   4.541  0.3255  0.8845  0.7530
  116SAPE  H11R12186   5.215   5.310   4.614 -0.8978  0.1127  1.9371
  116SAPE  C21212187   5.007   5.307   4.573  0.1268 -0.3439  0.7256
  116SAPE  H12R12188   4.981   5.292   4.679 -0.1737 -2.7431  0.3665
  116SAPE  C21312189   4.886   5.304   4.471 -0.2275  0.7614  0.1773
  116SAPE  H13R12190   4.906   5.370   4.384 -0.6869  0.7208  0.0417
  116SAPE  H13S12191   4.798   5.339   4.529 -0.5337  0.6579 -0.2236
  116SAPE  C21412192   4.847   5.159   4.426 -1.0116 -0.8314  0.8302
  116SAPE  H14R12193   4.847   5.086   4.509  2.1431 -0.2934  1.4166
  116SAPE  C21512194   4.801   5.125   4.304  0.0979  0.3960 -0.6926
  116SAPE  H15R12195   4.782   5.019   4.283  1.6526 -0.2433  0.8861
  116SAPE  C21612196   4.792   5.215   4.192 -0.3839 -0.1922 -0.1975
  116SAPE  H16R12197   4.778   5.322   4.217 -0.4555 -0.2801  0.1399
  116SAPE  H16S12198   4.698   5.184   4.142 -1.0166 -0.9904  1.4306
  116SAPE  C21712199   4.918   5.214   4.101  0.0844 -0.4721  0.4228
  116SAPE  H17R12200   4.932   5.125   4.037 -1.1463 -0.2003 -0.2491
  116SAPE  H17S12201   5.000   5.243   4.171 -0.0459 -1.1271  0.8491
  116SAPE  C21812202   4.912   5.334   3.997 -0.0578 -1.0235 -0.0895
  116SAPE  H18R12203   4.927   5.428   4.053  0.6683 -0.8898 -0.5019
  116SAPE  H18S12204   4.815   5.336   3.943  0.7754 -0.5697 -1.6478
  116SAPE  C21912205   5.014   5.317   3.887 -0.0807  0.7892  0.3308
  116SAPE  H19R12206   4.984   5.232   3.822  0.9330 -0.8383  1.8863
  116SAPE  H19S12207   5.097   5.275   3.947  0.4871 -0.5697 -1.3471
  116SAPE  C22012208   5.051   5.439   3.800  0.1544 -0.2884  0.0205
  116SAPE  H20R12209   4.959   5.457   3.740  0.4835 -0.2790 -0.4888
  116SAPE  H20S12210   5.134   5.429   3.727  0.1147  1.3008 -0.2587
  116SAPE  H20T12211   5.058   5.535   3.854  1.4110 -0.6975  0.6211
  116SAPE   C3312212   5.908   5.266   4.013  0.0790  0.5435  0.0637
  116SAPE   H3X12213   5.827   5.337   3.987 -0.9165 -0.5647  0.0747
  116SAPE   H3Y12214   6.005   5.316   4.035  0.7724 -0.1736 -1.2644
  116SAPE   C3412215   5.867   5.189   4.140  0.8082  0.6667 -0.6109
  116SAPE   H4X12216   5.939   5.106   4.155  0.0312 -0.1804 -1.4161
  116SAPE   H4Y12217   5.769   5.144   4.111  0.1986  0.1925  1.9247
  116SAPE   C3512218   5.866   5.275   4.265 -0.0413  0.2262 -0.5353
  116SAPE   H5X12219   5.849   5.379   4.230  1.5576  0.2130 -1.4379
  116SAPE   H5Y12220   5.963   5.285   4.317 -0.4262  0.0625  0.2286
  116SAPE   C3612221   5.754   5.238   4.364  0.4098 -0.6372  0.4322
  116SAPE   H6X12222   5.661   5.255   4.304 -0.7121 -1.6969  1.8171
  116SAPE   H6Y12223   5.765   5.318   4.441  2.2694  1.2755 -1.6734
  116SAPE   C3712224   5.751   5.098   4.425  0.1198  0.2960  0.1236
  116SAPE   H7X12225   5.837   5.088   4.494  0.6936 -1.4304 -0.7817
  116SAPE   H7Y12226   5.746   5.018   4.348  0.8278  0.5793 -0.2309
  116SAPE   C3812227   5.632   5.063   4.519  0.1175  0.0941  0.6044
  116SAPE   H8X12228   5.653   4.963   4.563  3.1201  0.2545 -0.2430
  116SAPE   H8Y12229   5.540   5.072   4.458  0.4200 -0.0885  0.1083
  116SAPE   C3912230   5.616   5.161   4.636  0.1893  0.0453  0.5141
  116SAPE   H9X12231   5.609   5.267   4.601  0.6854 -1.3001 -4.4380
  116SAPE   H9Y12232   5.701   5.161   4.708 -0.4902  0.3621  1.3393
  116SAPE  C31012233   5.492   5.141   4.727  0.6641  0.7491  0.1832
  116SAPE  H10X12234   5.507   5.042   4.774  0.1884 -0.6064 -2.3209
  116SAPE  H10Y12235   5.396   5.131   4.671  0.5806 -1.2097  0.6347
  116SAPE  C31112236   5.473   5.249   4.832  0.0024 -0.2765 -0.2097
  116SAPE  H11X12237   5.373   5.240   4.879 -0.7290  1.5477 -1.3011
  116SAPE  H11Y12238   5.483   5.345   4.777  2.2711 -1.7324 -2.5699
  116SAPE  C31212239   5.570   5.238   4.950 -0.0670 -0.3379 -0.1436
  116SAPE  H12X12240   5.668   5.282   4.920  0.2042  0.3506  1.6386
  116SAPE  H12Y12241   5.588   5.129   4.959 -3.2919 -0.8090  2.4752
  116SAPE  C31312242   5.526   5.301   5.076  0.4881  0.7749  0.5461
  116SAPE  H13X12243   5.425   5.258   5.097 -0.7757  3.6390  0.7156
  116SAPE  H13Y12244   5.494   5.406   5.062 -2.6207 -0.1023  0.2990
  116SAPE  C31412245   5.629   5.306   5.189 -0.3179 -0.8008  0.0324
  116SAPE  H14X12246   5.582   5.350   5.280  0.8596  0.5354  0.0299
  116SAPE  H14Y12247   5.710   5.375   5.158 -0.3504 -0.7430  0.0740
  116SAPE  C31512248   5.683   5.168   5.237  0.3319 -0.5310  0.4510
  116SAPE  H15X12249   5.757   5.125   5.167 -0.2896 -0.0476 -0.5312
  116SAPE  H15Y12250   5.596   5.099   5.235 -1.2407  1.3460 -0.0078
  116SAPE  C31612251   5.746   5.178   5.377 -0.3819 -0.2830 -0.4184
  116SAPE  H16X12252   5.687   5.238   5.449  3.1236  0.5320  2.0394
  116SAPE  H16Y12253   5.837   5.241   5.362  0.7393 -2.1985 -2.3042
  116SAPE  C31712254   5.786   5.044   5.442  0.5317  0.0501  0.0363
  116SAPE  H17X12255   5.838   5.058   5.540  1.8994 -0.1309 -0.6332
  116SAPE  H17Y12256   5.851   4.993   5.368 -0.5418 -0.5475 -0.5123
  116SAPE  C31812257   5.664   4.962   5.487  0.2088 -0.0780  0.1845
  116SAPE  H18X12258   5.692   4.855   5.477  1.0486  0.1061  0.4994
  116SAPE  H18Y12259   5.581   4.974   5.414 -1.0219 -0.5289  1.4396
  116SAPE  H18Z12260   5.623   4.985   5.588  0.1253  2.8208 -0.4249
  117SOPE     N12261   3.513   3.734   7.946 -0.0971  0.7131 -0.2077
  117SOPE   HN112262   3.498   3.636   7.915  1.9022 -0.2064  1.4859
  117SOPE   HN212263   3.542   3.726   8.046 -0.0751 -1.3706 -0.3430
  117SOPE   HN312264   3.418   3.776   7.946 -0.3004  0.3014  1.0717
  117SOPE   C1212265   3.611   3.801   7.865  0.0350 -1.2585  0.3033
  117SOPE  H12A12266   3.701   3.735   7.862  1.9377  1.1811  0.4510
  117SOPE  H12B12267   3.633   3.895   7.919  0.8598 -1.1270 -0.2419
  117SOPE   C1112268   3.547   3.818   7.729  0.3387 -0.3152  0.0301
  117SOPE  H11A12269   3.551   3.716   7.684  2.3056  0.4765 -1.7103
  117SOPE  H11B12270   3.618   3.885   7.677  0.7768 -0.2806  0.6533
  117SOPE     P12271   3.355   3.938   7.590 -0.1385  0.4110 -0.4621
  117SOPE   O1312272   3.449   4.050   7.556 -0.4281 -0.3560  0.1534
  117SOPE   O1412273   3.213   3.976   7.609 -0.1342  0.2338  0.3523
  117SOPE   O1212274   3.413   3.866   7.722  0.6913 -0.1861 -0.0668
  117SOPE   O1112275   3.375   3.823   7.483 -0.7945  0.6043  0.6421
  117SOPE    C112276   3.393   3.850   7.342 -1.1940 -0.1249 -0.4918
  117SOPE    HA12277   3.347   3.948   7.317 -1.4287  0.5166  2.1945
  117SOPE    HB12278   3.352   3.766   7.283 -0.3005 -1.3652  0.5953
  117SOPE    C212279   3.541   3.852   7.290  0.0068  0.1037 -0.1375
  117SOPE    HS12280   3.591   3.946   7.322  1.5363 -0.9187  0.5795
  117SOPE   O2112281   3.551   3.835   7.148  0.3730 -0.7252  0.2472
  117SOPE   C2112282   3.507   3.943   7.085  0.2907  0.6595 -0.3605
  117SOPE   O2212283   3.461   4.041   7.137 -0.5533  0.2829  0.5120
  117SOPE   C2212284   3.523   3.921   6.937 -0.1287  0.9949 -0.8908
  117SOPE   H2R12285   3.487   3.818   6.916 -1.7568  1.1198  1.0315
  117SOPE   H2S12286   3.632   3.926   6.915 -0.4965  0.6759 -3.0129
  117SOPE    C312287   3.628   3.739   7.344 -0.8250 -0.3864 -1.0123
  117SOPE    HX12288   3.583   3.644   7.308 -0.2739  0.4241 -4.1548
  117SOPE    HY12289   3.625   3.717   7.453 -0.2357 -2.1414 -1.3180
  117SOPE   O3112290   3.764   3.733   7.291 -0.4355  0.1712 -0.0770
  117SOPE   C3112291   3.852   3.797   7.365  0.4686  0.7992 -0.1573
  117SOPE   O3212292   3.820   3.856   7.469  0.2034 -0.7356  0.7274
  117SOPE   C3212293   3.989   3.798   7.299 -0.3416 -0.0336  0.1186
  117SOPE   H2X12294   4.003   3.697   7.256  1.8957  0.6090 -0.8244
  117SOPE   H2Y12295   4.064   3.813   7.379  0.7096  0.8841 -0.9999
  117SOPE   C2312296   3.441   4.012   6.845  0.8152  0.6669  0.3214
  117SOPE   H3R12297   3.485   4.114   6.850  2.2105  0.0406  1.5537
  117SOPE   H3S12298   3.334   4.015   6.875 -0.1420 -0.1098 -2.6274
  117SOPE   C2412299   3.413   3.962   6.705  0.0634  0.1213  0.0204
  117SOPE   H4R12300   3.499   3.921   6.649 -1.2841 -0.1663 -1.9318
  117SOPE   H4S12301   3.346   3.874   6.718  1.8330 -0.9663  2.4744
  117SOPE   C2512302   3.345   4.075   6.626  0.5513 -0.1351 -0.1727
  117SOPE   H5R12303   3.246   4.110   6.665  1.1251  1.0460  0.2688
  117SOPE   H5S12304   3.399   4.172   6.627 -1.2697  0.9639  2.0135
  117SOPE   C2612305   3.335   4.022   6.481 -0.1750  0.3701 -0.3983
  117SOPE   H6R12306   3.339   4.113   6.419 -0.7789  0.6388 -0.0461
  117SOPE   H6S12307   3.427   3.960   6.467  0.8105  1.6493  0.2219
  117SOPE   C2712308   3.218   3.925   6.463  0.3096  0.3694 -0.5575
  117SOPE   H7R12309   3.235   3.830   6.518 -0.2793  1.8232  2.3497
  117SOPE   H7S12310   3.122   3.966   6.500 -0.6376 -0.8584 -1.5637
  117SOPE   C2812311   3.202   3.888   6.321  0.0893  0.6835  0.1334
  117SOPE   H8R12312   3.126   3.810   6.299  0.8719 -0.2874  0.7781
  117SOPE   H8S12313   3.170   3.972   6.256 -0.0248  0.6933  0.2026
  117SOPE   C2912314   3.334   3.843   6.260 -0.5806  0.8117  0.3384
  117SOPE   H9112315   3.393   3.777   6.325 -2.2254  0.6971  1.7768
  117SOPE  C21012316   3.396   3.882   6.148  0.5146 -0.2782  1.5193
  117SOPE  H10112317   3.486   3.829   6.113 -0.6130 -0.2154 -1.8133
  117SOPE  C21112318   3.331   3.976   6.045 -0.5806 -0.3703 -0.2348
  117SOPE  H11R12319   3.291   4.065   6.098 -0.3206 -0.0421 -0.5823
  117SOPE  H11S12320   3.243   3.931   5.993 -0.6065  0.1820 -0.6800
  117SOPE  C21212321   3.424   4.019   5.934 -0.4559  0.0435  0.6847
  117SOPE  H12R12322   3.513   4.060   5.985 -0.3946 -1.8637  2.1922
  117SOPE  H12S12323   3.393   4.095   5.859  0.7198 -3.0525 -3.3166
  117SOPE  C21312324   3.465   3.906   5.840  0.0374 -0.5084 -0.6666
  117SOPE  H13R12325   3.373   3.871   5.788 -1.4957 -0.3028  1.7320
  117SOPE  H13S12326   3.489   3.814   5.899 -1.6679 -0.3854  0.2754
  117SOPE  C21412327   3.566   3.935   5.734 -0.1492  0.2519 -0.4478
  117SOPE  H14R12328   3.657   3.965   5.789  0.7747 -1.8729 -0.7304
  117SOPE  H14S12329   3.535   4.019   5.668  0.8864  2.3571  1.6195
  117SOPE  C21512330   3.605   3.812   5.640 -0.4538  0.0126  0.1462
  117SOPE  H15R12331   3.672   3.834   5.554 -0.2158  0.0265  0.3325
  117SOPE  H15S12332   3.512   3.769   5.597 -0.3678  0.5627 -0.6052
  117SOPE  C21612333   3.682   3.703   5.713  0.0346  0.0718 -0.1228
  117SOPE  H16R12334   3.616   3.671   5.796 -0.7080  1.4092 -0.1539
  117SOPE  H16S12335   3.767   3.754   5.762 -0.5554  0.8148  0.1581
  117SOPE  C21712336   3.733   3.586   5.622 -0.0315 -0.4998 -0.6783
  117SOPE  H17R12337   3.809   3.534   5.683  0.2128  0.0565 -0.5006
  117SOPE  H17S12338   3.781   3.632   5.533  1.4901 -1.0301 -0.1595
  117SOPE  C21812339   3.629   3.487   5.570  0.7380 -0.3681  0.3829
  117SOPE  H18R12340   3.579   3.433   5.653  0.0531 -1.2285 -0.5588
  117SOPE  H18S12341   3.688   3.419   5.505  2.0671  0.3376  0.8113
  117SOPE  H18T12342   3.559   3.543   5.503  3.4161  1.5236 -1.0035
  117SOPE   C3312343   4.011   3.906   7.189  0.2853 -0.3123 -0.4150
  117SOPE   H3X12344   4.117   3.912   7.158 -0.3275  0.7014 -2.4796
  117SOPE   H3Y12345   3.982   4.001   7.240 -3.5299 -1.8271  0.6213
  117SOPE   C3412346   3.934   3.891   7.058  0.1056 -0.6130  0.0787
  117SOPE   H4X12347   3.827   3.882   7.087 -0.7648  0.6404 -2.4474
  117SOPE   H4Y12348   3.952   3.789   7.017  1.7923 -0.1612 -0.3635
  117SOPE   C3512349   3.960   3.989   6.957  0.5583  0.1319  0.0510
  117SOPE   H5X12350   4.027   4.068   6.997 -2.1272  2.0374  1.0482
  117SOPE   H5Y12351   3.870   4.048   6.929 -0.7173 -0.8568  1.8639
  117SOPE   C3612352   4.021   3.925   6.832 -0.5295  0.8902 -0.5146
  117SOPE   H6X12353   3.974   3.829   6.800  0.6172  0.4668 -0.9908
  117SOPE   H6Y12354   4.127   3.902   6.858  0.7618  1.2667 -4.7151
  117SOPE   C3712355   4.033   4.021   6.712 -0.5661  0.1967 -0.8682
  117SOPE   H7X12356   4.117   4.090   6.735 -1.1680  0.5488  0.3381
  117SOPE   H7Y12357   3.937   4.075   6.705 -1.8572 -1.6656  1.1488
  117SOPE   C3812358   4.070   3.949   6.583  0.2395 -0.0233  0.3851
  117SOPE   H8X12359   4.132   3.858   6.600 -2.5418 -2.2903 -0.9332
  117SOPE   H8Y12360   4.138   4.015   6.525  0.8181 -0.9698 -0.0356
  117SOPE   C3912361   3.949   3.901   6.506 -0.2133  0.6328  0.4273
  117SOPE   H9X12362   3.889   3.991   6.481 -0.3670  0.0389 -1.5498
  117SOPE   H9Y12363   3.882   3.839   6.570 -2.1229  1.6601 -0.4697
  117SOPE  C31012364   3.978   3.810   6.391  0.6634  0.1460  0.1712
  117SOPE  H10X12365   3.889   3.771   6.338  1.7398 -1.8125 -0.2867
  117SOPE  H10Y12366   4.034   3.721   6.428 -0.8712 -0.8901  0.0816
  117SOPE  C31112367   4.058   3.873   6.270 -0.4483 -0.0619 -0.2811
  117SOPE  H11X12368   4.168   3.887   6.277 -0.6354  1.6799 -0.3695
  117SOPE  H11Y12369   4.012   3.974   6.264 -2.3030 -0.9477 -1.9204
  117SOPE  C31212370   4.037   3.799   6.139  0.5391  0.4116 -0.3053
  117SOPE  H12X12371   3.929   3.797   6.114  0.9462  0.4390 -2.1982
  117SOPE  H12Y12372   4.078   3.696   6.153  0.5737  0.6704  1.8769
  117SOPE  C31312373   4.094   3.871   6.012 -0.6595 -0.0526  0.3798
  117SOPE  H13X12374   4.086   3.793   5.933 -0.6479 -0.7353  1.0411
  117SOPE  H13Y12375   4.204   3.876   6.026 -0.9897 -0.3248  3.7359
  117SOPE  C31412376   4.029   4.008   5.972  0.7771 -0.0816  0.2385
  117SOPE  H14X12377   4.044   4.069   6.063  3.8908  0.6610 -0.6567
  117SOPE  H14Y12378   3.921   3.995   5.947  0.8444 -0.0945 -0.0499
  117SOPE  C31512379   4.097   4.094   5.863  0.2851  0.8042 -0.7154
  117SOPE  H15X12380   4.203   4.118   5.887 -0.1701  3.3306 -0.9570
  117SOPE  H15Y12381   4.027   4.180   5.867 -1.3034 -0.4685  0.5046
  117SOPE  C31612382   4.095   4.034   5.724 -0.3724  0.7199 -0.5230
  117SOPE  H16X12383   3.990   4.034   5.689 -0.9658  1.2117  1.1556
  117SOPE  H16Y12384   4.135   3.931   5.736  3.1692  2.0232  0.2858
  117SOPE  C31712385   4.166   4.124   5.623 -0.6581  0.0160  0.4015
  117SOPE  H17X12386   4.270   4.121   5.661 -0.2205 -1.0898 -0.8008
  117SOPE  H17Y12387   4.125   4.227   5.622  1.1377  0.7607  0.7797
  117SOPE  C31812388   4.174   4.066   5.477  0.3792 -0.1262 -0.3047
  117SOPE  H18X12389   4.079   4.013   5.455  1.1210 -1.4155 -0.4957
  117SOPE  H18Y12390   4.249   3.984   5.475 -1.6000 -2.1441  1.9654
  117SOPE  H18Z12391   4.186   4.134   5.390  1.1649 -1.1611 -1.0314
  118SOPE     N12392   2.515   5.577   7.984 -0.1078  0.2295  0.4205
  118SOPE   HN112393   2.560   5.530   7.903  1.1870  1.0633  0.6311
  118SOPE   HN212394   2.477   5.670   7.957  0.6743  0.1514 -1.0856
  118SOPE   HN312395   2.596   5.598   8.045 -0.4782  0.2537  0.9148
  118SOPE   C1212396   2.410   5.496   8.055  0.3931  0.0871 -0.1076
  118SOPE  H12A12397   2.348   5.569   8.112  1.4630 -0.5467  1.9660
  118SOPE  H12B12398   2.461   5.430   8.128 -0.6495  1.2254  1.7246
  118SOPE   C1112399   2.318   5.414   7.960  0.0737 -0.3724 -0.3058
  118SOPE  H11A12400   2.254   5.483   7.902  1.7973  1.1929 -0.4346
  118SOPE  H11B12401   2.259   5.350   8.029  1.4030 -0.8481  0.4226
  118SOPE     P12402   2.328   5.212   7.787 -0.2899 -0.1484  0.3304
  118SOPE   O1312403   2.215   5.151   7.865 -0.0980 -0.1323 -0.0077
  118SOPE   O1412404   2.438   5.123   7.749 -0.0836 -0.1222  0.6242
  118SOPE   O1212405   2.390   5.337   7.867  0.7783 -0.9564  0.4042
  118SOPE   O1112406   2.267   5.275   7.655  0.0570  0.6028  0.1006
  118SOPE    C112407   2.327   5.380   7.582 -0.0394 -0.6911 -0.4782
  118SOPE    HA12408   2.427   5.407   7.623  0.4547  1.1452 -2.6687
  118SOPE    HB12409   2.269   5.473   7.598 -2.6119 -2.3615  0.4447
  118SOPE    C212410   2.340   5.353   7.425  0.2713  0.1634  0.4981
  118SOPE    HS12411   2.368   5.449   7.376  0.2453  0.5632  1.2444
  118SOPE   O2112412   2.222   5.294   7.362  0.4529 -0.2979 -0.2020
  118SOPE   C2112413   2.120   5.384   7.340  0.2570 -0.5045 -0.2784
  118SOPE   O2212414   2.113   5.494   7.397 -0.5378 -0.5286 -0.0563
  118SOPE   C2212415   2.022   5.338   7.229 -0.2347  0.1660 -0.3664
  118SOPE   H2R12416   1.933   5.401   7.246 -0.9020 -1.3642  2.2777
  118SOPE   H2S12417   1.992   5.236   7.258 -1.3563  0.2323 -1.2388
  118SOPE    C312418   2.459   5.255   7.392 -0.2672  0.3107  0.5540
  118SOPE    HX12419   2.430   5.157   7.435 -1.4926 -1.4827 -3.8197
  118SOPE    HY12420   2.553   5.281   7.444  1.8425  2.3552 -3.7906
  118SOPE   O3112421   2.474   5.256   7.250  0.0606 -0.5477  0.4044
  118SOPE   C3112422   2.555   5.158   7.209  0.2343 -0.3945  0.2436
  118SOPE   O3212423   2.594   5.072   7.281  0.1375  0.2301  0.3166
  118SOPE   C3212424   2.566   5.168   7.056 -0.8014  0.8643 -0.3969
  118SOPE   H2X12425   2.468   5.200   7.014 -0.3084 -0.1167 -2.3872
  118SOPE   H2Y12426   2.597   5.068   7.019  0.0264  1.3432 -1.0219
  118SOPE   C2312427   2.079   5.349   7.087  0.1960 -0.0397 -0.6500
  118SOPE   H3R12428   2.174   5.292   7.084  0.7971  0.7213  1.9048
  118SOPE   H3S12429   2.109   5.454   7.070 -0.7178  0.7681  2.1696
  118SOPE   C2412430   1.985   5.304   6.977  0.0444 -0.2594 -0.3795
  118SOPE   H4R12431   1.883   5.348   6.974  0.6796  1.2314 -0.6989
  118SOPE   H4S12432   2.030   5.328   6.879  0.3036  2.1222  0.2604
  118SOPE   C2512433   1.963   5.144   6.980 -0.2869 -0.4472 -0.0217
  118SOPE   H5R12434   2.054   5.083   6.999  0.1028  0.0489 -0.2678
  118SOPE   H5S12435   1.896   5.126   7.067  0.4272  0.7583  0.8046
  118SOPE   C2612436   1.902   5.091   6.853  0.4285  0.2793 -0.3503
  118SOPE   H6R12437   1.846   5.170   6.800 -1.3917  0.0852  1.1867
  118SOPE   H6S12438   1.983   5.073   6.779 -0.4758  0.3937 -1.3853
  118SOPE   C2712439   1.798   4.980   6.870  0.0736  0.5136 -0.2156
  118SOPE   H7R12440   1.816   4.913   6.958 -0.3172  3.2358  2.0762
  118SOPE   H7S12441   1.702   5.029   6.896 -0.4127 -0.2171 -0.6059
  118SOPE   C2812442   1.784   4.887   6.742  0.6176 -0.2099 -0.0927
  118SOPE   H8R12443   1.887   4.857   6.712  1.4715  0.6953  1.7354
  118SOPE   H8S12444   1.724   4.794   6.756 -1.2647  0.8015 -1.1927
  118SOPE   C2912445   1.718   4.973   6.641  0.2524  0.2903  0.5432
  118SOPE   H9112446   1.741   5.081   6.642 -2.3268  0.9348 -0.2434
  118SOPE  C21012447   1.617   4.960   6.551 -0.1957 -0.5957  0.3936
  118SOPE  H10112448   1.583   5.041   6.485 -1.4214 -0.6304  0.9538
  118SOPE  C21112449   1.551   4.828   6.534  0.7021  0.0936  0.1479
  118SOPE  H11R12450   1.442   4.830   6.555  0.5590 -0.1613 -0.5256
  118SOPE  H11S12451   1.578   4.745   6.602 -1.0949 -1.0698 -0.4695
  118SOPE  C21212452   1.557   4.777   6.390 -0.6711  0.0466 -0.4363
  118SOPE  H12R12453   1.520   4.851   6.316  4.9210  2.5232 -1.3054
  118SOPE  H12S12454   1.505   4.680   6.375 -1.0594  0.5245 -2.4619
  118SOPE  C21312455   1.707   4.758   6.343  0.0081  0.3369  0.6688
  118SOPE  H13R12456   1.740   4.661   6.386 -2.4899  0.1039  2.2479
  118SOPE  H13S12457   1.765   4.834   6.399  0.0806 -1.4814  3.2507
  118SOPE  C21412458   1.720   4.778   6.190 -0.7357 -0.0614  0.1895
  118SOPE  H14R12459   1.817   4.768   6.137 -1.5246  0.1575 -1.3593
  118SOPE  H14S12460   1.691   4.883   6.169  1.0186  0.1861 -1.3323
  118SOPE  C21512461   1.621   4.693   6.116 -0.0455 -0.2721  0.1929
  118SOPE  H15R12462   1.515   4.711   6.145 -0.3174 -0.0618 -0.8710
  118SOPE  H15S12463   1.626   4.588   6.152  0.5728  0.1030  1.2339
  118SOPE  C21612464   1.639   4.697   5.961  0.1706 -0.0376  0.0030
  118SOPE  H16R12465   1.723   4.631   5.932 -0.8080 -1.2030 -0.2501
  118SOPE  H16S12466   1.670   4.801   5.935  1.3040 -0.6295 -1.1610
  118SOPE  C21712467   1.513   4.641   5.885 -0.0018 -0.2257  0.3768
  118SOPE  H17R12468   1.428   4.705   5.919 -0.2389  0.6343 -1.6754
  118SOPE  H17S12469   1.485   4.539   5.919 -0.4877  0.7083  3.0403
  118SOPE  C21812470   1.548   4.637   5.734 -0.3660  0.2868 -0.1782
  118SOPE  H18R12471   1.460   4.600   5.677 -0.0732  1.2771 -1.3026
  118SOPE  H18S12472   1.644   4.584   5.716 -0.9580 -0.6052 -0.7764
  118SOPE  H18T12473   1.562   4.740   5.694  1.0523  0.1952  0.0449
  118SOPE   C3312474   2.668   5.270   6.995  0.4811 -0.8934  0.4006
  118SOPE   H3X12475   2.768   5.263   7.043  0.1233 -1.6359  1.0614
  118SOPE   H3Y12476   2.628   5.368   7.027  1.9828  0.0640 -0.5364
  118SOPE   C3412477   2.681   5.267   6.843  0.4584 -0.6956 -0.0539
  118SOPE   H4X12478   2.735   5.360   6.816 -0.7961  0.2728  0.6864
  118SOPE   H4Y12479   2.577   5.274   6.805  1.4074 -0.0271 -2.7607
  118SOPE   C3512480   2.752   5.145   6.794 -0.8031  0.6709  0.1590
  118SOPE   H5X12481   2.692   5.052   6.808 -1.4600  0.8022 -1.5274
  118SOPE   H5Y12482   2.841   5.119   6.856  1.6844  1.5761 -2.7735
  118SOPE   C3612483   2.798   5.151   6.650 -0.0449 -0.8901  0.3169
  118SOPE   H6X12484   2.855   5.058   6.630  0.9210  0.0824 -1.7613
  118SOPE   H6Y12485   2.865   5.237   6.631  1.0736 -1.7593  0.2450
  118SOPE   C3712486   2.682   5.159   6.551  0.1809 -0.0558 -0.3674
  118SOPE   H7X12487   2.621   5.245   6.585 -0.3585 -1.7638  3.5126
  118SOPE   H7Y12488   2.620   5.066   6.551  0.5688 -0.3179  0.1237
  118SOPE   C3812489   2.732   5.188   6.409  0.1517  0.4973  0.0449
  118SOPE   H8X12490   2.783   5.096   6.375  0.9910  0.9608  0.0178
  118SOPE   H8Y12491   2.819   5.257   6.410  1.4511 -1.1035  0.4753
  118SOPE   C3912492   2.608   5.223   6.312 -0.4795  0.4106  0.2329
  118SOPE   H9X12493   2.563   5.319   6.344 -2.8939  0.4166 -2.6696
  118SOPE   H9Y12494   2.533   5.141   6.311 -0.5789  0.5016  0.2378
  118SOPE  C31012495   2.657   5.239   6.167  0.1941 -0.3703  0.8259
  118SOPE  H10X12496   2.669   5.138   6.123 -0.5744  0.1701 -0.6977
  118SOPE  H10Y12497   2.755   5.291   6.165 -0.4576  0.9065 -1.5106
  118SOPE  C31112498   2.552   5.308   6.083 -0.3679 -0.1025 -0.2896
  118SOPE  H11X12499   2.551   5.417   6.106 -0.8248 -0.4283  1.3307
  118SOPE  H11Y12500   2.453   5.260   6.093  0.7136 -2.0215  2.2642
  118SOPE  C31212501   2.600   5.296   5.942 -0.2950 -0.1205  0.5601
  118SOPE  H12X12502   2.591   5.200   5.887 -0.8101  1.2416 -1.8780
  118SOPE  H12Y12503   2.708   5.322   5.947 -0.4514  1.4254 -1.9936
  118SOPE  C31312504   2.534   5.391   5.840 -0.3111  0.1359 -0.5921
  118SOPE  H13X12505   2.551   5.498   5.865 -0.9598 -0.1379  1.1588
  118SOPE  H13Y12506   2.425   5.377   5.849 -0.0700 -1.3349  0.2813
  118SOPE  C31412507   2.588   5.367   5.696  0.2838 -0.4959 -0.4487
  118SOPE  H14X12508   2.587   5.258   5.672  4.8140 -0.7952 -0.1002
  118SOPE  H14Y12509   2.694   5.401   5.689 -0.3984  1.8980  0.0624
  118SOPE  C31512510   2.507   5.441   5.583  0.5697  0.0747  0.1967
  118SOPE  H15X12511   2.516   5.552   5.589  1.8286  0.0526 -0.7114
  118SOPE  H15Y12512   2.401   5.417   5.604  0.7971 -0.5984  0.5954
  118SOPE  C31612513   2.554   5.405   5.439  0.2829 -0.0948 -0.5792
  118SOPE  H16X12514   2.487   5.437   5.357 -0.7079  1.6526  0.8252
  118SOPE  H16Y12515   2.564   5.295   5.449 -2.2526 -0.1856  3.2811
  118SOPE  C31712516   2.693   5.469   5.412 -0.3083 -0.4506  0.0765
  118SOPE  H17X12517   2.770   5.421   5.475  0.1617  1.2576  0.8546
  118SOPE  H17Y12518   2.692   5.579   5.427 -1.7528 -0.4554  0.1341
  118SOPE  C31812519   2.743   5.435   5.274  0.1660  0.7371  0.1973
  118SOPE  H18X12520   2.746   5.326   5.258  0.6492  0.7735  0.0300
  118SOPE  H18Y12521   2.848   5.469   5.263 -0.6332  4.1843  1.6960
  118SOPE  H18Z12522   2.670   5.465   5.196 -2.2529 -0.7352  1.7682
  119SOPE     N12523   5.653   2.862   7.299  0.2899  0.3632 -1.2409
  119SOPE   HN112524   5.696   2.955   7.315 -3.3117  2.2065 -1.4521
  119SOPE   HN212525   5.715   2.780   7.319 -1.7550 -1.2332 -1.1309
  119SOPE   HN312526   5.629   2.860   7.198 -0.3855  1.7179 -1.1208
  119SOPE   C1212527   5.528   2.885   7.388 -0.0930  0.0046  0.4416
  119SOPE  H12A12528   5.566   2.883   7.493  0.8724 -1.0983  0.0972
  119SOPE  H12B12529   5.463   2.798   7.363  0.5636 -0.7120  1.1545
  119SOPE   C1112530   5.471   3.028   7.353 -0.1719  0.3355  0.4646
  119SOPE  H11A12531   5.379   3.048   7.413  0.9958  3.4386  1.4044
  119SOPE  H11B12532   5.436   3.028   7.248 -1.2766  0.3477  0.8084
  119SOPE     P12533   5.549   3.267   7.440 -0.4913 -0.2263 -0.0869
  119SOPE   O1312534   5.671   3.344   7.428  0.1952 -0.2150  0.5730
  119SOPE   O1412535   5.496   3.258   7.578 -0.4389 -0.2319  0.1634
  119SOPE   O1212536   5.577   3.122   7.381  0.5436 -0.2720 -0.8246
  119SOPE   O1112537   5.436   3.328   7.346  0.2622  0.9805  0.0919
  119SOPE    C112538   5.478   3.442   7.275 -0.1267 -1.1725  0.7140
  119SOPE    HA12539   5.544   3.504   7.339 -1.1009  0.1815  0.4661
  119SOPE    HB12540   5.393   3.514   7.265  0.5481 -0.3723  0.5926
  119SOPE    C212541   5.532   3.405   7.130 -0.0435  0.0190 -0.1234
  119SOPE    HS12542   5.614   3.332   7.144 -1.6419 -1.6191  1.2101
  119SOPE   O2112543   5.571   3.531   7.066 -0.1961  0.0405  0.4822
  119SOPE   C2112544   5.707   3.540   7.054  0.0123  0.3838 -0.1892
  119SOPE   O2212545   5.788   3.458   7.098 -0.1467 -0.1419  0.2744
  119SOPE   C2212546   5.740   3.669   6.982 -0.9920 -0.0511 -0.0490
  119SOPE   H2R12547   5.839   3.701   7.021 -1.8770  0.0167  2.2967
  119SOPE   H2S12548   5.668   3.744   7.021 -0.2876  0.5352  0.1498
  119SOPE    C312549   5.432   3.321   7.049  0.3462 -0.1678  0.0258
  119SOPE    HX12550   5.344   3.387   7.041 -0.2709 -0.9814 -0.0706
  119SOPE    HY12551   5.416   3.229   7.110  2.3334  0.0092  0.8820
  119SOPE   O3112552   5.488   3.272   6.920 -0.9766 -0.8127 -0.1302
  119SOPE   C3112553   5.469   3.354   6.826  0.2774 -0.7584 -0.2286
  119SOPE   O3212554   5.385   3.449   6.826 -0.1494  0.2188  0.3155
  119SOPE   C3212555   5.564   3.317   6.716 -0.4358 -0.1143  0.6545
  119SOPE   H2X12556   5.564   3.206   6.713  1.7134 -0.1332 -0.1644
  119SOPE   H2Y12557   5.671   3.344   6.725  0.3660 -3.0488  0.7649
  119SOPE   C2312558   5.754   3.651   6.821 -0.0685 -0.3375 -0.2853
  119SOPE   H3R12559   5.650   3.623   6.794  0.5033 -2.5489 -0.4474
  119SOPE   H3S12560   5.829   3.569   6.812 -0.3547 -1.0594  2.7634
  119SOPE   C2412561   5.810   3.777   6.743 -0.4022 -0.3471 -0.2476
  119SOPE   H4R12562   5.738   3.859   6.763 -0.8192 -0.8961  0.5174
  119SOPE   H4S12563   5.909   3.805   6.785 -0.1693  0.2367 -1.1538
  119SOPE   C2512564   5.820   3.756   6.584 -0.8934  0.3373 -0.0456
  119SOPE   H5R12565   5.908   3.691   6.565 -0.4443  0.9921 -0.2562
  119SOPE   H5S12566   5.722   3.709   6.563  0.6978 -3.5172  0.2788
  119SOPE   C2612567   5.842   3.894   6.513  0.2024  0.1667  0.4476
  119SOPE   H6R12568   5.766   3.962   6.557 -0.5810 -0.6872  0.4445
  119SOPE   H6S12569   5.944   3.928   6.544  0.4991 -0.0768 -0.2432
  119SOPE   C2712570   5.836   3.881   6.363  0.2251 -0.0811 -0.2832
  119SOPE   H7R12571   5.909   3.804   6.331 -0.2987  0.1362 -2.0936
  119SOPE   H7S12572   5.733   3.856   6.330 -0.0723 -1.1191  1.3094
  119SOPE   C2812573   5.870   4.007   6.280 -0.0409  0.4203 -0.0775
  119SOPE   H8R12574   5.977   4.031   6.296  0.2207 -0.8298  0.1578
  119SOPE   H8S12575   5.845   3.999   6.172  0.0224 -2.0955  0.0278
  119SOPE   C2912576   5.796   4.128   6.332  0.3060  0.5132 -0.2509
  119SOPE   H9112577   5.844   4.172   6.420 -1.8369 -1.4997  2.0657
  119SOPE  C21012578   5.681   4.182   6.287  0.0895 -0.5415  0.1635
  119SOPE  H10112579   5.632   4.266   6.339 -1.4021 -0.1027 -1.8249
  119SOPE  C21112580   5.587   4.123   6.180 -0.2547 -0.7027 -0.3911
  119SOPE  H11R12581   5.486   4.104   6.223 -0.8543  1.7098 -0.5619
  119SOPE  H11S12582   5.619   4.026   6.137 -0.9213 -0.7960 -0.6958
  119SOPE  C21212583   5.576   4.216   6.053  0.3245  0.4247 -0.2802
  119SOPE  H12R12584   5.507   4.171   5.979  0.5647  0.5632 -0.5917
  119SOPE  H12S12585   5.676   4.237   6.009  0.3141  0.8616 -0.1026
  119SOPE  C21312586   5.506   4.353   6.091  0.2342 -0.6211  0.2600
  119SOPE  H13R12587   5.569   4.401   6.168  1.0940  0.2314 -0.9518
  119SOPE  H13S12588   5.408   4.325   6.137  0.0445 -2.1857 -0.9939
  119SOPE  C21412589   5.495   4.456   5.976 -0.7669  0.4813  0.2995
  119SOPE  H14R12590   5.591   4.495   5.938 -1.4799  0.1605 -1.9841
  119SOPE  H14S12591   5.434   4.537   6.022  0.8081  1.0195  1.5276
  119SOPE  C21512592   5.425   4.405   5.847  0.1860  0.0778 -0.5296
  119SOPE  H15R12593   5.320   4.380   5.874  0.0309 -0.5202 -1.6143
  119SOPE  H15S12594   5.476   4.317   5.802  3.4158  1.6811 -0.2541
  119SOPE  C21612595   5.417   4.514   5.748 -0.2577  0.6941 -0.0180
  119SOPE  H16R12596   5.524   4.536   5.726  0.4358 -0.5195  1.9104
  119SOPE  H16S12597   5.368   4.605   5.790 -1.6598  0.9138 -1.9393
  119SOPE  C21712598   5.345   4.474   5.613  0.0061  0.0861 -0.1268
  119SOPE  H17R12599   5.386   4.384   5.562 -1.3561 -1.6366  1.6825
  119SOPE  H17S12600   5.358   4.556   5.539 -0.6538  0.4565  0.1585
  119SOPE  C21812601   5.194   4.442   5.633  0.4523 -0.6077  0.9946
  119SOPE  H18R12602   5.173   4.339   5.669  0.4913 -1.0086 -0.1022
  119SOPE  H18S12603   5.129   4.464   5.546  2.1519 -1.7465 -0.6446
  119SOPE  H18T12604   5.161   4.507   5.716  0.9153 -0.3653  0.9932
  119SOPE   C3312605   5.515   3.356   6.577  0.0579  0.1473  0.4241
  119SOPE   H3X12606   5.537   3.463   6.560  1.8117  0.1607  2.4146
  119SOPE   H3Y12607   5.405   3.342   6.567  0.1802 -0.2254 -0.5052
  119SOPE   C3412608   5.580   3.278   6.463  0.2437  0.3308 -0.0333
  119SOPE   H4X12609   5.545   3.172   6.465 -1.7453  0.9475 -0.0521
  119SOPE   H4Y12610   5.691   3.277   6.471  0.3572 -0.0933 -1.3530
  119SOPE   C3512611   5.555   3.343   6.329 -0.5684  0.0804 -0.1493
  119SOPE   H5X12612   5.576   3.452   6.321  0.3130 -0.1169 -0.6784
  119SOPE   H5Y12613   5.448   3.335   6.299 -1.2984  1.6939  1.8015
  119SOPE   C3612614   5.642   3.271   6.220  0.5291 -1.1718  0.5099
  119SOPE   H6X12615   5.631   3.163   6.246  1.7426 -1.4777 -0.1592
  119SOPE   H6Y12616   5.751   3.284   6.237  0.4035  0.8496  0.0237
  119SOPE   C3712617   5.600   3.304   6.075  0.3586  0.0292  0.3993
  119SOPE   H7X12618   5.606   3.414   6.059  0.0121  0.0693  0.5250
  119SOPE   H7Y12619   5.492   3.283   6.056  0.0371  2.4065 -0.8589
  119SOPE   C3812620   5.686   3.243   5.967 -1.0388  0.5860 -0.1529
  119SOPE   H8X12621   5.661   3.135   5.976 -3.2050  1.0506 -0.0974
  119SOPE   H8Y12622   5.794   3.266   5.984 -0.5366  0.1247 -2.3986
  119SOPE   C3912623   5.636   3.257   5.825 -0.4775  0.2698  0.0510
  119SOPE   H9X12624   5.644   3.362   5.788 -0.7817  0.8771  1.6140
  119SOPE   H9Y12625   5.535   3.212   5.819  0.3386 -1.4693 -1.5553
  119SOPE  C31012626   5.728   3.182   5.721  0.2258 -0.5968 -0.2452
  119SOPE  H10X12627   5.734   3.076   5.754 -0.0511 -0.9583 -1.2901
  119SOPE  H10Y12628   5.834   3.213   5.734 -0.8929  2.2734  4.2277
  119SOPE  C31112629   5.688   3.207   5.570  0.0124 -0.3486 -0.0975
  119SOPE  H11X12630   5.659   3.314   5.558  1.2491 -0.0818 -0.7587
  119SOPE  H11Y12631   5.600   3.139   5.559 -0.8893  0.6897  0.4385
  119SOPE  C31212632   5.811   3.186   5.486 -0.6544  0.2735  0.7007
  119SOPE  H12X12633   5.878   3.265   5.525  0.1765 -0.1565  0.1591
  119SOPE  H12Y12634   5.792   3.209   5.379  1.8871 -1.2973 -0.1829
  119SOPE  C31312635   5.880   3.047   5.504 -0.1285 -0.2525  0.2096
  119SOPE  H13X12636   5.800   2.971   5.493 -0.5672  0.0840  0.9590
  119SOPE  H13Y12637   5.913   3.040   5.610 -0.5354  0.5859  0.4055
  119SOPE  C31412638   5.997   3.016   5.413 -0.2555  0.5236 -0.0984
  119SOPE  H14X12639   6.080   3.084   5.445  0.5655 -0.2721 -0.4976
  119SOPE  H14Y12640   5.965   3.050   5.312  0.7777 -0.2565 -0.7063
  119SOPE  C31512641   6.037   2.869   5.399 -0.7973  0.5722  0.7254
  119SOPE  H15X12642   5.957   2.816   5.343  1.3266 -2.3636  0.2029
  119SOPE  H15Y12643   6.044   2.820   5.499  1.6012 -3.2417 -1.0928
  119SOPE  C31612644   6.173   2.841   5.334  0.2040 -0.0812 -0.1527
  119SOPE  H16X12645   6.175   2.731   5.325 -2.9640 -0.2553  0.1541
  119SOPE  H16Y12646   6.248   2.887   5.403 -1.3179  1.9392  0.2719
  119SOPE  C31712647   6.190   2.906   5.195  0.3235  0.1250  0.1174
  119SOPE  H17X12648   6.173   3.016   5.206 -2.3843  0.0153 -1.9676
  119SOPE  H17Y12649   6.118   2.870   5.119  1.1947  0.1359 -0.7344
  119SOPE  C31812650   6.329   2.876   5.129  0.1063  0.2164 -0.7846
  119SOPE  H18X12651   6.402   2.894   5.211 -0.6992 -3.4950  0.9706
  119SOPE  H18Y12652   6.343   2.942   5.040  0.2155 -0.0413 -0.9588
  119SOPE  H18Z12653   6.350   2.774   5.092  0.8521  0.4499 -1.0314
  120SOPE     N12654   5.900   1.342   7.469 -0.2992 -0.1316 -0.2231
  120SOPE   HN112655   5.909   1.362   7.367  2.9738 -1.0395 -0.2350
  120SOPE   HN212656   5.805   1.312   7.498 -0.5908  1.4416  0.5529
  120SOPE   HN312657   5.935   1.428   7.516  0.5004  0.4612 -1.8062
  120SOPE   C1212658   6.005   1.236   7.506 -0.7704  0.3094  0.0520
  120SOPE  H12A12659   5.978   1.144   7.450  3.6471 -0.5301 -1.0865
  120SOPE  H12B12660   6.000   1.214   7.615 -0.0890  1.0486  0.2432
  120SOPE   C1112661   6.144   1.268   7.463  0.1917 -0.0748  0.0577
  120SOPE  H11A12662   6.147   1.278   7.353  0.2660  1.0879  0.1456
  120SOPE  H11B12663   6.214   1.190   7.501  2.2950  2.8842  2.9050
  120SOPE     P12664   6.326   1.469   7.475 -0.2822 -0.1613 -0.4649
  120SOPE   O1312665   6.381   1.396   7.360  0.3670 -0.0649 -0.1559
  120SOPE   O1412666   6.414   1.491   7.594 -0.2089  0.3662  0.5434
  120SOPE   O1212667   6.194   1.396   7.519 -0.4098  0.8283 -0.0882
  120SOPE   O1112668   6.270   1.615   7.437 -0.4947 -0.1005 -0.0348
  120SOPE    C112669   6.173   1.633   7.335 -0.1881 -0.4480 -0.1345
  120SOPE    HA12670   6.113   1.719   7.373 -1.3239 -0.3148 -2.0883
  120SOPE    HB12671   6.097   1.553   7.328 -1.6494  0.5257  2.9217
  120SOPE    C212672   6.245   1.679   7.209 -0.1989 -0.3932 -0.3396
  120SOPE    HS12673   6.164   1.716   7.142 -3.6224 -1.0522  3.1053
  120SOPE   O2112674   6.305   1.558   7.152  0.3553 -0.2195  0.4695
  120SOPE   C2112675   6.221   1.472   7.083 -0.1797 -0.5420  0.1371
  120SOPE   O2212676   6.101   1.470   7.090 -0.4383  0.4841 -0.5440
  120SOPE   C2212677   6.299   1.380   6.987  0.1236  0.3604 -0.2963
  120SOPE   H2R12678   6.280   1.274   7.016  0.0710  0.4085 -0.1537
  120SOPE   H2S12679   6.407   1.398   7.006 -0.2620  0.7757  1.7898
  120SOPE    C312680   6.340   1.797   7.235 -0.2644 -0.0444  0.2038
  120SOPE    HX12681   6.436   1.765   7.280 -1.7556 -2.9542  1.6091
  120SOPE    HY12682   6.298   1.860   7.317  0.9043  0.6952  0.2522
  120SOPE   O3112683   6.368   1.886   7.124 -0.3109 -0.5801 -0.1359
  120SOPE   C3112684   6.474   1.854   7.059  0.0219 -0.1270 -0.6212
  120SOPE   O3212685   6.551   1.765   7.082  0.2873 -0.1164  0.9096
  120SOPE   C3212686   6.502   1.950   6.944  0.9936  0.8223  0.7180
  120SOPE   H2X12687   6.610   1.975   6.946  0.7174  2.2408 -0.6505
  120SOPE   H2Y12688   6.445   2.041   6.973  1.4977  0.9051  1.4654
  120SOPE   C2312689   6.262   1.391   6.840 -0.0046 -0.0853  0.8322
  120SOPE   H3R12690   6.159   1.351   6.824  1.3453 -2.6386 -2.7219
  120SOPE   H3S12691   6.324   1.309   6.798  0.9093 -0.0960  2.1350
  120SOPE   C2412692   6.280   1.527   6.768 -0.2147 -0.4681 -0.0966
  120SOPE   H4R12693   6.230   1.608   6.825 -1.1129 -0.1795 -1.2506
  120SOPE   H4S12694   6.390   1.543   6.759 -0.4685  1.5509 -0.0405
  120SOPE   C2512695   6.227   1.540   6.623  0.0696 -0.1309  0.1225
  120SOPE   H5R12696   6.273   1.455   6.569 -1.6719 -1.7935  1.1355
  120SOPE   H5S12697   6.117   1.528   6.620  0.0169  0.3451  0.0179
  120SOPE   C2612698   6.260   1.679   6.564  0.1610  0.1193 -0.8108
  120SOPE   H6R12699   6.226   1.756   6.636 -2.2914 -1.1021 -0.5756
  120SOPE   H6S12700   6.367   1.694   6.538  0.3506 -0.1277 -0.1877
  120SOPE   C2712701   6.189   1.691   6.432  1.0809  0.2367  0.1417
  120SOPE   H7R12702   6.193   1.601   6.366  1.3659 -0.9584  1.7388
  120SOPE   H7S12703   6.080   1.711   6.441  1.0937  1.1721 -1.3813
  120SOPE   C2812704   6.243   1.798   6.340 -0.3565  0.3831 -0.1656
  120SOPE   H8R12705   6.169   1.802   6.257 -0.6110 -0.1187  0.0307
  120SOPE   H8S12706   6.237   1.892   6.399  1.4968  0.7246 -0.4602
  120SOPE   C2912707   6.389   1.788   6.299  0.4292  0.0894 -0.4737
  120SOPE   H9112708   6.470   1.818   6.367  0.3774 -0.0319 -0.3571
  120SOPE  C21012709   6.431   1.768   6.171  0.9355  0.2018  0.7094
  120SOPE  H10112710   6.536   1.789   6.147  0.5735 -0.2438 -1.4095
  120SOPE  C21112711   6.336   1.723   6.060  0.2265 -0.1213 -0.1692
  120SOPE  H11R12712   6.400   1.726   5.969 -0.6354  0.6838 -0.7699
  120SOPE  H11S12713   6.262   1.806   6.057  0.4312  0.0931  0.6145
  120SOPE  C21212714   6.285   1.576   6.076  0.0525 -0.3128  0.3065
  120SOPE  H12R12715   6.211   1.576   6.159  1.2319  1.6057  1.4180
  120SOPE  H12S12716   6.368   1.508   6.103 -0.6512 -0.5138  2.0737
  120SOPE  C21312717   6.222   1.532   5.941 -0.2740  0.3257 -0.0737
  120SOPE  H13R12718   6.123   1.576   5.914 -1.1387 -1.4004  0.0931
  120SOPE  H13S12719   6.200   1.424   5.955 -1.6089  0.5513 -0.2332
  120SOPE  C21412720   6.320   1.540   5.819  0.4009  0.2124  0.0397
  120SOPE  H14R12721   6.419   1.513   5.863  0.2346 -3.3029 -1.4125
  120SOPE  H14S12722   6.327   1.640   5.773 -1.2520  0.1182 -0.4990
  120SOPE  C21512723   6.300   1.425   5.716  0.3235  0.4716 -0.3473
  120SOPE  H15R12724   6.300   1.329   5.772 -1.0812 -0.1944 -1.4164
  120SOPE  H15S12725   6.386   1.422   5.646 -0.8024 -0.7546 -1.7570
  120SOPE  C21612726   6.173   1.454   5.625  0.0185 -0.8428 -0.1199
  120SOPE  H16R12727   6.081   1.477   5.685 -0.4725 -0.3777 -1.0360
  120SOPE  H16S12728   6.154   1.361   5.568  0.0039 -0.5770 -0.5553
  120SOPE  C21712729   6.202   1.573   5.528  1.0890  0.3171  0.6778
  120SOPE  H17R12730   6.264   1.543   5.442  0.7882  0.2327  0.4902
  120SOPE  H17S12731   6.261   1.656   5.574  0.4760  0.7424  0.7178
  120SOPE  C21812732   6.071   1.635   5.463 -0.0317  0.2355  0.2665
  120SOPE  H18R12733   6.006   1.558   5.416 -1.6528 -0.1024  2.8408
  120SOPE  H18S12734   6.104   1.700   5.379  0.2014 -1.4751 -1.0144
  120SOPE  H18T12735   6.020   1.694   5.543  2.2106  1.8299  0.6189
  120SOPE   C3312736   6.464   1.886   6.809  0.0087  0.3415  0.4176
  120SOPE   H3X12737   6.354   1.869   6.811  0.0792 -0.5592 -1.5874
  120SOPE   H3Y12738   6.523   1.793   6.793  0.4034  0.6638 -0.0195
  120SOPE   C3412739   6.484   1.989   6.697 -1.0129 -0.5056  0.7066
  120SOPE   H4X12740   6.444   2.088   6.730 -0.5477  0.7830 -2.2860
  120SOPE   H4Y12741   6.426   1.944   6.615  0.2001 -3.4758  1.3567
  120SOPE   C3512742   6.628   2.006   6.641  0.0339  0.0665  0.1976
  120SOPE   H5X12743   6.670   1.907   6.616 -2.1544 -0.4372 -1.8864
  120SOPE   H5Y12744   6.691   2.051   6.721  2.4406  1.8367 -2.4830
  120SOPE   C3612745   6.631   2.093   6.512 -0.4984 -0.0533 -0.6403
  120SOPE   H6X12746   6.595   2.194   6.541  1.2251  0.6230 -0.7388
  120SOPE   H6Y12747   6.572   2.037   6.435  1.1026 -1.9482 -0.5657
  120SOPE   C3712748   6.778   2.110   6.458 -0.1489 -1.0455  0.1409
  120SOPE   H7X12749   6.849   2.122   6.542  0.3396 -2.3282 -0.0610
  120SOPE   H7Y12750   6.767   2.210   6.412  0.8559 -0.1457  1.7590
  120SOPE   C3812751   6.814   2.011   6.351 -0.2542 -0.3742 -0.1918
  120SOPE   H8X12752   6.787   1.907   6.378  3.2811 -1.6222 -0.9197
  120SOPE   H8Y12753   6.924   2.019   6.339 -0.2473  1.8241  0.8266
  120SOPE   C3912754   6.739   2.042   6.216 -0.1301  0.4685  1.0835
  120SOPE   H9X12755   6.755   2.147   6.182 -2.1057  0.0314 -1.5371
  120SOPE   H9Y12756   6.631   2.018   6.205  0.4479 -1.1784 -2.2511
  120SOPE  C31012757   6.802   1.965   6.093  0.0288  0.1426  1.1580
  120SOPE  H10X12758   6.771   1.859   6.100  2.4213 -0.6638  0.6332
  120SOPE  H10Y12759   6.913   1.962   6.094  0.0724  0.9789  0.2743
  120SOPE  C31112760   6.753   2.012   5.952 -0.2970 -0.3984 -0.6269
  120SOPE  H11X12761   6.797   2.114   5.938 -0.7583 -0.0436  0.4222
  120SOPE  H11Y12762   6.644   2.031   5.960 -0.2148 -0.0427 -0.2714
  120SOPE  C31212763   6.787   1.914   5.844 -0.1195 -0.2547 -0.6669
  120SOPE  H12X12764   6.894   1.887   5.860  0.3085 -0.6009 -3.4697
  120SOPE  H12Y12765   6.791   1.969   5.747  1.4968  2.2927  0.7299
  120SOPE  C31312766   6.701   1.785   5.836  0.2772 -1.1635 -0.0289
  120SOPE  H13X12767   6.597   1.821   5.829  0.6964 -0.3168 -4.8043
  120SOPE  H13Y12768   6.710   1.733   5.934 -0.6524  1.1403  1.3864
  120SOPE  C31412769   6.721   1.686   5.722 -0.8019 -0.4779 -0.3469
  120SOPE  H14X12770   6.653   1.600   5.742 -1.3629  0.5073  2.5541
  120SOPE  H14Y12771   6.829   1.661   5.712 -0.4066  0.1832  1.7461
  120SOPE  C31512772   6.672   1.748   5.589 -0.2178  0.2435  0.6733
  120SOPE  H15X12773   6.689   1.857   5.595  1.8401 -0.1067  2.4402
  120SOPE  H15Y12774   6.561   1.747   5.574  0.0582 -0.3259 -1.7119
  120SOPE  C31612775   6.739   1.688   5.462  0.1892 -0.1410 -1.0858
  120SOPE  H16X12776   6.713   1.581   5.451  0.7793 -0.4103  0.0782
  120SOPE  H16Y12777   6.849   1.684   5.471 -0.0012 -0.7152  2.9622
  120SOPE  C31712778   6.696   1.754   5.326  0.1086  0.2397 -0.2965
  120SOPE  H17X12779   6.586   1.745   5.310 -0.0549  0.0033  0.8344
  120SOPE  H17Y12780   6.730   1.687   5.244  0.1130  0.8886 -0.8309
  120SOPE  C31812781   6.735   1.893   5.292 -0.3325 -0.0452  0.4017
  120SOPE  H18X12782   6.694   1.961   5.370  0.9707 -0.1045  1.1671
  120SOPE  H18Y12783   6.695   1.924   5.193 -0.6780  2.4932  1.2667
  120SOPE  H18Z12784   6.846   1.885   5.288 -0.2125  1.5513 -0.3416
  121SOPE     N12785   5.821   4.358   8.083 -0.2699 -0.2750  0.3847
  121SOPE   HN112786   5.742   4.423   8.099 -0.4663 -0.9355  2.4328
  121SOPE   HN212787   5.791   4.303   8.000  4.0694  0.5319 -1.9958
  121SOPE   HN312788   5.820   4.298   8.168 -2.0607 -1.2353 -0.2696
  121SOPE   C1212789   5.961   4.411   8.053  0.1915 -0.3257 -0.3075
  121SOPE  H12A12790   6.034   4.332   8.080 -1.1655 -0.8711  2.1793
  121SOPE  H12B12791   5.965   4.501   8.118 -1.4778 -0.9712  0.7551
  121SOPE   C1112792   5.976   4.449   7.898  0.6824 -0.3628  0.0691
  121SOPE  H11A12793   5.958   4.351   7.850 -0.4397 -1.1288  1.9469
  121SOPE  H11B12794   6.079   4.488   7.881 -0.4722  1.7552 -2.8159
  121SOPE     P12795   5.895   4.689   7.814  0.0633 -0.2100 -0.3580
  121SOPE   O1312796   5.985   4.742   7.913  0.7648 -0.3854  0.0312
  121SOPE   O1412797   5.767   4.760   7.810 -0.4880  0.2740 -0.3591
  121SOPE   O1212798   5.868   4.536   7.854 -0.4787  0.1125  0.1323
  121SOPE   O1112799   5.956   4.692   7.672  0.0856 -0.0650 -0.5749
  121SOPE    C112800   5.893   4.647   7.553 -0.2992  0.4132  0.3184
  121SOPE    HA12801   5.908   4.715   7.466  1.7293 -0.5492 -0.1492
  121SOPE    HB12802   5.783   4.639   7.568 -0.5261 -1.1681 -1.7540
  121SOPE    C212803   5.931   4.502   7.505 -0.8725  0.6415 -0.0758
  121SOPE    HS12804   5.946   4.461   7.608  0.7952  1.1129 -0.1109
  121SOPE   O2112805   6.053   4.508   7.432  0.4015 -0.5824  0.1676
  121SOPE   C2112806   6.123   4.396   7.441 -0.7380  0.0016  0.4234
  121SOPE   O2212807   6.091   4.296   7.502 -0.4442  0.4424  0.0778
  121SOPE   C2212808   6.239   4.397   7.342 -0.0948 -0.5655 -0.5685
  121SOPE   H2R12809   6.286   4.498   7.345 -0.2105 -0.5265  0.2747
  121SOPE   H2S12810   6.198   4.378   7.241  1.3735  0.0440 -1.3137
  121SOPE    C312811   5.833   4.419   7.419 -0.1738  0.3848 -0.8950
  121SOPE    HX12812   5.738   4.418   7.477  1.2103 -0.7638  1.5192
  121SOPE    HY12813   5.860   4.311   7.415  0.4741  0.5579 -1.3337
  121SOPE   O3112814   5.821   4.468   7.288 -0.6178 -0.1923  0.8533
  121SOPE   C3112815   5.713   4.545   7.259 -0.7734 -0.2474  0.2234
  121SOPE   O3212816   5.627   4.581   7.335  0.4329  0.0457 -0.2489
  121SOPE   C3212817   5.717   4.595   7.112  0.3155 -0.1264 -1.0181
  121SOPE   H2X12818   5.725   4.506   7.046 -0.1380 -0.7737 -0.2084
  121SOPE   H2Y12819   5.814   4.649   7.101  0.7146 -1.0732 -2.4016
  121SOPE   C2312820   6.334   4.280   7.370 -0.6745  0.3842  0.4313
  121SOPE   H3R12821   6.287   4.183   7.397 -1.1089  1.3374  3.4835
  121SOPE   H3S12822   6.403   4.300   7.454  0.3830 -2.0630  0.2481
  121SOPE   C2412823   6.426   4.268   7.259 -0.1276 -0.2478  0.3380
  121SOPE   H4R12824   6.457   4.368   7.222 -1.4856 -0.5479 -1.7824
  121SOPE   H4S12825   6.517   4.213   7.289  0.5163  0.7720  0.2687
  121SOPE   C2512826   6.377   4.185   7.137 -0.5035 -0.1558  0.0695
  121SOPE   H5R12827   6.353   4.083   7.174 -3.3027  0.6345  0.6172
  121SOPE   H5S12828   6.277   4.223   7.109 -1.3063 -0.7508  2.0029
  121SOPE   C2612829   6.476   4.186   7.021 -0.0670 -0.7606  0.4144
  121SOPE   H6R12830   6.574   4.141   7.048  0.5970 -0.3674 -1.2142
  121SOPE   H6S12831   6.432   4.119   6.943 -0.4273  0.0538 -0.0970
  121SOPE   C2712832   6.494   4.325   6.968  0.3748  0.1809  0.1133
  121SOPE   H7R12833   6.401   4.381   6.947  0.3240  0.4399  0.9859
  121SOPE   H7S12834   6.548   4.382   7.048  0.3645 -1.3569  1.2573
  121SOPE   C2812835   6.568   4.349   6.829  0.6187  0.2024 -0.1911
  121SOPE   H8R12836   6.600   4.455   6.824 -0.4511  0.6385  1.3714
  121SOPE   H8S12837   6.656   4.281   6.823  0.9080  0.5271  0.2530
  121SOPE   C2912838   6.472   4.319   6.717  0.3546 -0.4255  0.7469
  121SOPE   H9112839   6.391   4.253   6.748  0.5045 -1.1580 -0.3483
  121SOPE  C21012840   6.472   4.358   6.593 -0.3367 -0.0317 -0.2408
  121SOPE  H10112841   6.397   4.317   6.525  0.5033 -1.2972 -0.4501
  121SOPE  C21112842   6.573   4.448   6.526 -0.0326 -0.0792 -0.4255
  121SOPE  H11R12843   6.617   4.390   6.442 -0.0651  0.0047 -0.5009
  121SOPE  H11S12844   6.662   4.467   6.589 -1.0764  2.0983  0.5279
  121SOPE  C21212845   6.518   4.581   6.462  0.8009  0.4062 -0.3744
  121SOPE  H12R12846   6.603   4.652   6.455  1.0148  0.3841  1.4345
  121SOPE  H12S12847   6.452   4.624   6.540  1.7331  0.3270  0.4704
  121SOPE  C21312848   6.448   4.549   6.324  0.1094  0.3618 -0.3680
  121SOPE  H13R12849   6.367   4.473   6.334 -0.1058  0.3534 -1.9558
  121SOPE  H13S12850   6.531   4.520   6.257  2.0148  3.1384  0.5943
  121SOPE  C21412851   6.383   4.665   6.252  0.4537 -0.9823 -0.4659
  121SOPE  H14R12852   6.464   4.733   6.217  1.1767 -1.1219  0.8672
  121SOPE  H14S12853   6.328   4.739   6.314 -0.6655 -2.7912  0.7801
  121SOPE  C21512854   6.289   4.625   6.137 -0.4277  0.6987  0.4056
  121SOPE  H15R12855   6.189   4.674   6.130 -1.2663 -1.1174 -1.7312
  121SOPE  H15S12856   6.267   4.517   6.150  0.2989  0.5758  0.6431
  121SOPE  C21612857   6.368   4.640   6.009 -0.2562  0.7220  0.2109
  121SOPE  H16R12858   6.469   4.599   6.031 -0.8136 -0.2261  1.0940
  121SOPE  H16S12859   6.388   4.746   5.983  2.3369  0.2071 -0.1474
  121SOPE  C21712860   6.312   4.562   5.886 -0.2852 -0.0572 -0.3109
  121SOPE  H17R12861   6.248   4.479   5.922  3.0085 -1.6562  2.4850
  121SOPE  H17S12862   6.401   4.511   5.843 -0.1124  0.2283 -0.2943
  121SOPE  C21812863   6.240   4.654   5.785 -0.2698  0.6302  1.2135
  121SOPE  H18R12864   6.293   4.748   5.760 -1.6226  1.0895 -0.0888
  121SOPE  H18S12865   6.139   4.668   5.829 -1.4145 -1.6645 -0.4965
  121SOPE  H18T12866   6.238   4.594   5.692  0.1807  3.4952 -0.7564
  121SOPE   C3312867   5.594   4.688   7.086 -0.2983  0.0657  0.3659
  121SOPE   H3X12868   5.608   4.782   7.144  3.6284 -0.1591  0.0756
  121SOPE   H3Y12869   5.502   4.636   7.120  0.3944 -0.5328  1.3885
  121SOPE   C3412870   5.580   4.723   6.942  0.2118  0.0069 -0.5273
  121SOPE   H4X12871   5.488   4.782   6.922  0.7004  0.3686 -1.8552
  121SOPE   H4Y12872   5.582   4.624   6.892  3.0419 -1.2490  1.8308
  121SOPE   C3512873   5.703   4.801   6.881 -0.3217  0.1863 -0.2102
  121SOPE   H5X12874   5.788   4.732   6.901 -1.0099 -1.2941 -2.1003
  121SOPE   H5Y12875   5.725   4.896   6.934  1.4789  0.4978 -1.4147
  121SOPE   C3612876   5.701   4.822   6.728  0.2384 -0.1262  0.1461
  121SOPE   H6X12877   5.646   4.742   6.674  1.5112  0.2878 -1.8728
  121SOPE   H6Y12878   5.807   4.825   6.695  1.0981 -0.4213  2.6583
  121SOPE   C3712879   5.634   4.958   6.687  0.1631 -0.1627 -0.3735
  121SOPE   H7X12880   5.679   5.038   6.749 -0.5628 -2.9087  4.1269
  121SOPE   H7Y12881   5.526   4.969   6.706 -0.4389  1.4102 -3.9083
  121SOPE   C3812882   5.656   5.011   6.546 -0.1694  0.5468 -0.2886
  121SOPE   H8X12883   5.644   4.921   6.482  0.4525 -0.7931  1.4058
  121SOPE   H8Y12884   5.758   5.055   6.539  0.3337 -0.7751 -1.9159
  121SOPE   C3912885   5.559   5.116   6.499 -0.5282 -0.9486  0.0678
  121SOPE   H9X12886   5.568   5.216   6.545 -1.0748 -0.3851 -1.0243
  121SOPE   H9Y12887   5.454   5.085   6.519 -0.2411 -2.0802 -0.1042
  121SOPE  C31012888   5.567   5.139   6.345 -0.5971  0.4193 -0.5460
  121SOPE  H10X12889   5.564   5.037   6.300  3.5205  0.5304 -1.5318
  121SOPE  H10Y12890   5.670   5.175   6.326  0.0111 -0.1268  1.4375
  121SOPE  C31112891   5.464   5.240   6.295 -0.1921 -0.6414  0.0491
  121SOPE  H11X12892   5.501   5.342   6.321  1.5852 -0.5242 -2.5469
  121SOPE  H11Y12893   5.370   5.204   6.342 -0.0757 -0.4635  0.4187
  121SOPE  C31212894   5.436   5.232   6.146  0.0549  0.7786  0.1211
  121SOPE  H12X12895   5.416   5.130   6.107  1.6273  0.9292 -1.1799
  121SOPE  H12Y12896   5.532   5.262   6.100  0.1943 -0.5179 -0.4751
  121SOPE  C31312897   5.339   5.345   6.113  0.3087 -0.2275 -0.0238
  121SOPE  H13X12898   5.398   5.435   6.142 -0.4685  1.0434 -2.1154
  121SOPE  H13Y12899   5.255   5.341   6.185  0.6147  2.7095  0.6094
  121SOPE  C31412900   5.283   5.360   5.967 -0.5593  0.2998 -0.1172
  121SOPE  H14X12901   5.211   5.444   5.959  2.4247  3.3911  2.4286
  121SOPE  H14Y12902   5.219   5.269   5.958  0.2788 -0.6233  2.4204
  121SOPE  C31512903   5.387   5.348   5.857  0.4714  0.1442  0.1102
  121SOPE  H15X12904   5.454   5.261   5.872  0.0409  0.0379  1.5514
  121SOPE  H15Y12905   5.443   5.444   5.854  0.2693  0.3554  2.0464
  121SOPE  C31612906   5.329   5.334   5.718 -0.0444  0.3640 -0.5286
  121SOPE  H16X12907   5.311   5.438   5.683  0.6297  0.7299  0.1772
  121SOPE  H16Y12908   5.233   5.281   5.732  2.0955 -3.7548  0.1933
  121SOPE  C31712909   5.419   5.270   5.617  0.1962 -0.6634  0.0612
  121SOPE  H17X12910   5.444   5.169   5.657  0.1663 -0.3473  0.8937
  121SOPE  H17Y12911   5.510   5.334   5.612 -0.4732  0.4681  1.6338
  121SOPE  C31812912   5.359   5.253   5.482  0.2411 -0.0070 -0.2089
  121SOPE  H18X12913   5.290   5.167   5.469 -1.6523  1.5921 -1.3238
  121SOPE  H18Y12914   5.435   5.242   5.402  0.9961 -0.1049  0.5107
  121SOPE  H18Z12915   5.301   5.344   5.455 -0.7496 -0.3255  0.7877
  122SOPE     N12916   0.059   5.857   7.548 -0.7687  0.4780  0.3933
  122SOPE   HN112917  -0.044   5.839   7.542 -0.4630 -1.0567 -1.1585
  122SOPE   HN212918   0.072   5.941   7.489  0.8933  1.1670  1.6866
  122SOPE   HN312919   0.113   5.777   7.510 -0.1549  0.4970  1.1909
  122SOPE   C1212920   0.121   5.867   7.687  0.2475 -0.6744 -0.0077
  122SOPE  H12A12921   0.231   5.858   7.681  0.0022 -4.1935 -1.2172
  122SOPE  H12B12922   0.088   5.775   7.739 -3.5960  0.0894 -0.7387
  122SOPE   C1112923   0.059   5.993   7.758 -0.4855  0.5858 -0.4274
  122SOPE  H11A12924   0.109   5.993   7.857 -0.3232 -3.8032 -0.3375
  122SOPE  H11B12925  -0.051   5.979   7.761 -0.3199 -0.7184  2.2181
  122SOPE     P12926   0.238   6.185   7.690 -0.4605  0.6786  0.2533
  122SOPE   O1312927   0.342   6.085   7.678 -0.4054  0.1142 -0.1088
  122SOPE   O1412928   0.247   6.275   7.809  0.0812  0.4049 -0.4923
  122SOPE   O1212929   0.094   6.118   7.691 -0.2402 -0.5075  0.4335
  122SOPE   O1112930   0.230   6.270   7.559  0.1878 -0.5911  0.5409
  122SOPE    C112931   0.109   6.339   7.531 -0.1009 -0.8105  0.0655
  122SOPE    HA12932   0.130   6.442   7.497 -0.7944 -0.3469  0.9868
  122SOPE    HB12933   0.040   6.348   7.618  2.2076  1.1483  1.8380
  122SOPE    C212934   0.028   6.260   7.418 -0.0201 -0.2532 -0.7009
  122SOPE    HS12935  -0.021   6.173   7.467  0.2805  0.2253  0.4792
  122SOPE   O2112936   0.112   6.233   7.306 -0.1664 -0.2171  0.2728
  122SOPE   C2112937   0.112   6.105   7.264 -0.5111  0.8031 -0.7099
  122SOPE   O2212938   0.046   6.015   7.316 -0.0477 -0.2225  0.2334
  122SOPE   C2212939   0.200   6.087   7.143  0.0960  0.0095  0.5549
  122SOPE   H2R12940   0.249   5.992   7.174  0.0514  0.8692  3.5378
  122SOPE   H2S12941   0.274   6.168   7.128 -0.2648  0.2541  0.0709
  122SOPE    C312942  -0.089   6.345   7.363  0.6068  0.4562  0.0841
  122SOPE    HX12943  -0.039   6.419   7.296 -0.6844 -0.2299 -1.7231
  122SOPE    HY12944  -0.145   6.401   7.440 -1.2269 -1.7774  0.4674
  122SOPE   O3112945  -0.182   6.266   7.278 -0.5838  0.3854 -0.1799
  122SOPE   C3112946  -0.277   6.214   7.351 -0.6827 -0.2598  0.0284
  122SOPE   O3212947  -0.288   6.212   7.473  0.0260  0.2161 -0.0328
  122SOPE   C3212948  -0.388   6.157   7.257  0.5631  0.4446  0.4287
  122SOPE   H2X12949  -0.466   6.236   7.250  1.4819  1.3562  0.0754
  122SOPE   H2Y12950  -0.445   6.070   7.296 -1.9944  1.5160 -0.6593
  122SOPE   C2312951   0.097   6.086   7.020  0.2885  0.2026  0.3000
  122SOPE   H3R12952   0.151   6.068   6.924 -0.9848 -2.0011 -0.0723
  122SOPE   H3S12953   0.050   6.186   7.019  0.3325  0.2234 -0.0430
  122SOPE   C2412954  -0.004   5.966   7.019 -0.1640 -0.2340  0.5976
  122SOPE   H4R12955   0.058   5.874   7.010 -0.5628 -0.3105 -2.8796
  122SOPE   H4S12956  -0.049   5.959   7.120 -1.3610 -4.0819 -0.0469
  122SOPE   C2512957  -0.102   5.982   6.902  0.1745  0.6710  0.5545
  122SOPE   H5R12958  -0.144   5.881   6.881  2.7890 -0.2552 -0.6265
  122SOPE   H5S12959  -0.184   6.050   6.931 -0.8790 -0.7143  0.9662
  122SOPE   C2612960  -0.050   6.032   6.772 -0.6069  0.0195  0.1453
  122SOPE   H6R12961  -0.046   6.143   6.782 -1.3547  0.0194  0.4794
  122SOPE   H6S12962   0.052   5.994   6.752 -0.5968  0.3451 -0.4529
  122SOPE   C2712963  -0.136   6.005   6.655 -0.3771 -0.0709 -0.0207
  122SOPE   H7R12964  -0.237   6.018   6.699 -0.2559 -0.9372  0.5553
  122SOPE   H7S12965  -0.126   6.077   6.571 -1.8583 -0.1970 -0.3365
  122SOPE   C2812966  -0.118   5.862   6.602  0.7515  0.1983 -0.1484
  122SOPE   H8R12967  -0.016   5.855   6.560  2.7179 -1.6862  4.3879
  122SOPE   H8S12968  -0.115   5.791   6.688  2.3046  2.3529  1.6693
  122SOPE   C2912969  -0.225   5.817   6.503  0.0129  0.4806  0.2937
  122SOPE   H9112970  -0.325   5.825   6.548  0.2570  1.3334  0.6980
  122SOPE  C21012971  -0.217   5.787   6.369 -1.0237 -0.5803 -0.8308
  122SOPE  H10112972  -0.310   5.784   6.310 -2.7422  0.5964  1.6230
  122SOPE  C21112973  -0.089   5.803   6.284 -0.0894 -0.0765 -0.9793
  122SOPE  H11R12974  -0.063   5.701   6.249  0.2341 -1.2571  2.3703
  122SOPE  H11S12975  -0.005   5.847   6.342  0.1896 -1.6644 -0.1339
  122SOPE  C21212976  -0.120   5.902   6.161  0.1919  0.1950  0.2147
  122SOPE  H12R12977  -0.133   6.002   6.208  1.8670 -0.3648  2.0151
  122SOPE  H12S12978  -0.213   5.878   6.106  0.7986 -1.6688 -0.0794
  122SOPE  C21312979   0.001   5.908   6.059  0.7011  0.1337  0.0811
  122SOPE  H13R12980   0.100   5.912   6.110  0.4303  0.4787  0.5927
  122SOPE  H13S12981   0.004   5.991   5.986  0.5284 -0.4962 -0.6468
  122SOPE  C21412982   0.012   5.786   5.972  0.4600 -0.2709  0.1860
  122SOPE  H14R12983  -0.087   5.770   5.926  0.1283 -0.6727  1.0152
  122SOPE  H14S12984   0.042   5.701   6.038 -0.1284 -1.7051 -1.3312
  122SOPE  C21512985   0.132   5.794   5.874 -0.1938  0.1683 -0.5488
  122SOPE  H15R12986   0.224   5.814   5.934 -0.7430 -0.0047  0.3634
  122SOPE  H15S12987   0.121   5.877   5.801 -0.6882 -1.0206 -1.8697
  122SOPE  C21612988   0.143   5.663   5.801  0.4064  0.4146 -0.4389
  122SOPE  H16R12989   0.040   5.633   5.772 -0.4301  0.7363  2.0080
  122SOPE  H16S12990   0.169   5.583   5.874 -0.3295 -2.8812 -3.4893
  122SOPE  C21712991   0.241   5.662   5.678  0.1392  0.1705 -0.5793
  122SOPE  H17R12992   0.262   5.560   5.640  3.9590 -1.0075  3.6639
  122SOPE  H17S12993   0.346   5.695   5.698  1.1598 -2.7909 -0.5644
  122SOPE  C21812994   0.187   5.748   5.561 -0.1718  0.3139  0.3354
  122SOPE  H18R12995   0.086   5.705   5.544 -0.6264  0.1418  3.0105
  122SOPE  H18S12996   0.245   5.735   5.468 -0.1302 -0.4796  0.4602
  122SOPE  H18T12997   0.172   5.854   5.590  0.5827  0.7935 -0.9500
  122SOPE   C3312998  -0.349   6.117   7.116 -0.1429  0.3797  0.0060
  122SOPE   H3X12999  -0.291   6.024   7.131 -0.7388  0.2844  1.9017
  122SOPE   H3Y13000  -0.292   6.195   7.060 -0.1371  0.5119  0.1949
  122SOPE   C3413001  -0.482   6.081   7.035 -0.3650 -0.2714 -0.3585
  122SOPE   H4X13002  -0.548   6.170   7.038  0.0683  0.0183  1.3644
  122SOPE   H4Y13003  -0.539   6.001   7.087 -0.1935 -0.3590 -0.3046
  122SOPE   C3513004  -0.460   6.036   6.883  0.3926  0.1488 -0.6492
  122SOPE   H5X13005  -0.377   5.963   6.875  1.5909  1.5935 -2.3750
  122SOPE   H5Y13006  -0.403   6.117   6.833  0.5009  1.2351  1.1276
  122SOPE   C3613007  -0.599   6.001   6.811 -0.7253  0.2058 -0.0995
  122SOPE   H6X13008  -0.648   6.100   6.813 -0.3429  0.4021  1.8453
  122SOPE   H6Y13009  -0.646   5.921   6.874  0.0384  0.8340  1.3226
  122SOPE   C3713010  -0.575   5.948   6.669 -0.9255  0.2450  0.1094
  122SOPE   H7X13011  -0.471   5.912   6.659 -1.6712 -1.4818 -2.0137
  122SOPE   H7Y13012  -0.574   6.034   6.598 -0.8089 -0.1477 -0.3639
  122SOPE   C3813013  -0.663   5.834   6.635 -0.2851 -0.2551  0.1091
  122SOPE   H8X13014  -0.770   5.864   6.641 -0.4751 -0.9614  0.4132
  122SOPE   H8Y13015  -0.643   5.752   6.708  2.9943  0.2032 -0.1372
  122SOPE   C3913016  -0.649   5.764   6.495 -0.0921 -0.6399  0.5932
  122SOPE   H9X13017  -0.722   5.681   6.486 -1.0828  0.3196 -0.4874
  122SOPE   H9Y13018  -0.549   5.717   6.485  0.3421  0.6392 -1.5522
  122SOPE  C31013019  -0.644   5.858   6.372  0.2096  0.1598 -0.4084
  122SOPE  H10X13020  -0.579   5.944   6.396 -0.1429  0.3896 -0.2634
  122SOPE  H10Y13021  -0.744   5.903   6.351  0.0554  0.0199  0.0238
  122SOPE  C31113022  -0.587   5.791   6.240  0.2720 -0.2442 -0.2892
  122SOPE  H11X13023  -0.664   5.722   6.199 -0.6960  1.6692 -1.8582
  122SOPE  H11Y13024  -0.505   5.732   6.285 -2.3029 -2.8197  1.3883
  122SOPE  C31213025  -0.564   5.904   6.137 -0.3535  0.0433 -0.3717
  122SOPE  H12X13026  -0.511   5.869   6.046 -0.4207  1.4683 -0.9879
  122SOPE  H12Y13027  -0.497   5.983   6.178 -0.6210 -0.7718  1.7794
  122SOPE  C31313028  -0.688   5.974   6.083 -0.0326 -0.3281 -0.2620
  122SOPE  H13X13029  -0.658   6.024   5.988  0.2513  0.8969  0.4503
  122SOPE  H13Y13030  -0.727   6.057   6.146  2.2972  1.2061 -0.7283
  122SOPE  C31413031  -0.818   5.890   6.060 -0.3589 -0.7377  0.0061
  122SOPE  H14X13032  -0.868   5.863   6.155  1.6632 -0.0940  1.3304
  122SOPE  H14Y13033  -0.779   5.797   6.012  3.9019  1.2290 -0.8205
  122SOPE  C31513034  -0.912   5.962   5.955  0.9300  0.5432  0.3176
  122SOPE  H15X13035  -0.856   5.968   5.860 -1.0400 -2.6427 -1.1928
  122SOPE  H15Y13036  -0.940   6.067   5.983  1.4118  0.7141  0.1622
  122SOPE  C31613037  -1.056   5.894   5.939  0.1320 -0.3736  0.9522
  122SOPE  H16X13038  -1.051   5.798   5.884  4.5529  1.0513 -1.6425
  122SOPE  H16Y13039  -1.114   5.956   5.866 -4.0901 -5.3153 -0.4589
  122SOPE  C31713040  -1.140   5.872   6.059  0.0864  0.5445 -0.4178
  122SOPE  H17X13041  -1.173   5.969   6.101  2.4941  0.7747  1.1543
  122SOPE  H17Y13042  -1.080   5.827   6.141 -2.3767 -2.3812 -0.0479
  122SOPE  C31813043  -1.257   5.784   6.036 -0.0195  0.3245 -0.0061
  122SOPE  H18X13044  -1.304   5.821   5.943  1.3406  2.1268 -0.0345
  122SOPE  H18Y13045  -1.324   5.790   6.124 -2.2687 -0.5890 -1.5800
  122SOPE  H18Z13046  -1.228   5.677   6.020  0.9757  0.3576  1.3484
  123SOPE     N13047   0.670   3.615   3.609  0.4142 -0.3299  0.0472
  123SOPE   HN113048   0.644   3.552   3.531  0.1868  0.7410 -0.7615
  123SOPE   HN213049   0.604   3.695   3.605  0.7490 -0.0167  0.6148
  123SOPE   HN313050   0.763   3.657   3.589 -0.6482  2.6447  0.8284
  123SOPE   C1213051   0.667   3.552   3.747  0.1212  0.2566 -0.8333
  123SOPE  H12A13052   0.719   3.622   3.816  0.6495  0.4046 -1.3782
  123SOPE  H12B13053   0.727   3.459   3.747  0.8843  0.7143  0.7492
  123SOPE   C1113054   0.522   3.505   3.791 -0.2681  0.1611 -0.5119
  123SOPE  H11A13055   0.467   3.595   3.824  0.5374  1.5559 -2.7652
  123SOPE  H11B13056   0.539   3.435   3.876  0.1017  1.4006  0.4583
  123SOPE     P13057   0.299   3.475   3.653 -0.0739  0.1324 -0.1083
  123SOPE   O1313058   0.246   3.365   3.571 -0.4315  0.5029 -0.2208
  123SOPE   O1413059   0.285   3.614   3.596  0.3120  0.1340 -0.1168
  123SOPE   O1213060   0.455   3.440   3.677 -0.5055 -0.7672 -0.5832
  123SOPE   O1113061   0.228   3.465   3.797  0.6414  0.1070  0.7078
  123SOPE    C113062   0.204   3.340   3.858  0.3294  0.0928  0.4498
  123SOPE    HA13063   0.287   3.315   3.928 -1.0968 -0.0773  2.1460
  123SOPE    HB13064   0.195   3.258   3.784 -0.1642  1.9169 -1.6082
  123SOPE    C213065   0.069   3.346   3.931 -0.7092  0.8291 -0.2509
  123SOPE    HS13066  -0.005   3.374   3.852  0.0742 -0.1574 -1.3674
  123SOPE   O2113067   0.083   3.449   4.031  0.5245 -0.4625 -0.2656
  123SOPE   C2113068  -0.004   3.556   4.010 -0.4342 -0.1247 -0.0460
  123SOPE   O2213069  -0.086   3.570   3.919  0.2660  0.2637 -0.1932
  123SOPE   C2213070   0.009   3.648   4.128  0.3144  0.3915 -0.2582
  123SOPE   H2R13071   0.075   3.733   4.099 -0.4327  1.3087  0.6929
  123SOPE   H2S13072   0.059   3.588   4.207  2.0632 -0.8808 -2.2198
  123SOPE    C313073   0.034   3.209   3.999 -0.4970  0.1366 -0.3019
  123SOPE    HX13074   0.032   3.135   3.916 -2.3115 -2.3129  1.7772
  123SOPE    HY13075  -0.068   3.208   4.042  0.0225  0.5147  0.9832
  123SOPE   O3113076   0.149   3.165   4.086  0.2727 -0.1360  0.5204
  123SOPE   C3113077   0.111   3.141   4.210  0.0809 -0.9823  0.1553
  123SOPE   O3213078   0.007   3.168   4.261  0.4413 -0.2466  0.0556
  123SOPE   C3213079   0.240   3.085   4.281 -0.7620 -0.0655 -0.4627
  123SOPE   H2X13080   0.323   3.152   4.251 -1.9005  1.5168 -0.2083
  123SOPE   H2Y13081   0.243   2.984   4.234 -1.3306  0.2290 -1.1618
  123SOPE   C2313082  -0.122   3.716   4.181  0.4918  0.4998 -0.1335
  123SOPE   H3R13083  -0.208   3.647   4.195  0.0451  0.3491 -3.0075
  123SOPE   H3S13084  -0.167   3.776   4.099  0.3609 -0.4346 -0.7584
  123SOPE   C2413085  -0.097   3.815   4.293 -0.9128  0.1941  0.1553
  123SOPE   H4R13086  -0.011   3.880   4.264 -3.3089  4.1762  1.2799
  123SOPE   H4S13087  -0.190   3.876   4.289 -2.6074 -2.2552  0.3905
  123SOPE   C2513088  -0.086   3.750   4.430  0.0487 -0.4113  0.3019
  123SOPE   H5R13089  -0.182   3.695   4.447  1.6645 -3.1020  1.4460
  123SOPE   H5S13090  -0.004   3.676   4.442 -1.2563 -1.6635  2.0298
  123SOPE   C2613091  -0.080   3.852   4.549  0.1604  0.7265 -0.9746
  123SOPE   H6R13092  -0.075   3.789   4.640 -1.0989  2.4734  0.3789
  123SOPE   H6S13093   0.013   3.913   4.548  1.0102 -0.4609  0.5901
  123SOPE   C2713094  -0.201   3.941   4.570 -0.2264  1.1333  0.0030
  123SOPE   H7R13095  -0.215   4.010   4.485 -0.3588 -1.1964 -1.9825
  123SOPE   H7S13096  -0.284   3.868   4.568 -0.3909  1.3305 -0.8616
  123SOPE   C2813097  -0.195   4.015   4.703  0.2638 -0.4527  0.6234
  123SOPE   H8R13098  -0.100   4.072   4.699  1.1271 -1.8185  0.7885
  123SOPE   H8S13099  -0.276   4.090   4.710  0.4975 -0.2473  1.1385
  123SOPE   C2913100  -0.210   3.926   4.821  0.3054 -0.3272 -0.2630
  123SOPE   H9113101  -0.183   3.820   4.812  3.0460  0.3561 -1.0177
  123SOPE  C21013102  -0.243   3.961   4.946  0.3337 -0.3096 -0.1461
  123SOPE  H10113103  -0.252   3.881   5.021 -0.6622  0.0978  0.1868
  123SOPE  C21113104  -0.275   4.106   4.982  0.0040 -0.2747 -0.1391
  123SOPE  H11R13105  -0.206   4.175   4.929 -0.9773 -0.4019 -1.6428
  123SOPE  H11S13106  -0.262   4.122   5.091  2.6645  0.3548 -0.4768
  123SOPE  C21213107  -0.425   4.132   4.952 -0.1706  0.4033  0.1075
  123SOPE  H12R13108  -0.491   4.105   5.037 -0.9381  1.4320 -0.1418
  123SOPE  H12S13109  -0.461   4.092   4.855  0.0602  2.4300 -0.8848
  123SOPE  C21313110  -0.447   4.286   4.937 -0.4346  0.4092 -0.3847
  123SOPE  H13R13111  -0.354   4.332   4.896  0.3535  0.9801  1.8858
  123SOPE  H13S13112  -0.467   4.339   5.032 -1.4893  0.1421 -0.4501
  123SOPE  C21413113  -0.568   4.323   4.856 -0.0632  0.6067  0.7195
  123SOPE  H14R13114  -0.543   4.285   4.755  0.4576 -0.8573  1.3611
  123SOPE  H14S13115  -0.576   4.431   4.833  0.4873  0.2291 -1.4821
  123SOPE  C21513116  -0.706   4.275   4.905  0.4376  0.2917 -0.0015
  123SOPE  H15R13117  -0.715   4.169   4.937 -1.0400  0.1602 -0.7581
  123SOPE  H15S13118  -0.782   4.290   4.825  0.4839 -0.6332 -0.2272
  123SOPE  C21613119  -0.743   4.359   5.030 -0.6183 -0.2368  0.4971
  123SOPE  H16R13120  -0.756   4.464   4.996 -4.0218 -0.8628 -0.4974
  123SOPE  H16S13121  -0.667   4.363   5.111 -2.3314  2.0245  2.1060
  123SOPE  C21713122  -0.888   4.309   5.082  0.3281  0.1781 -0.7523
  123SOPE  H17R13123  -0.919   4.386   5.157 -2.4077  0.2348 -1.8383
  123SOPE  H17S13124  -0.880   4.212   5.135 -3.3641  0.7488  1.1907
  123SOPE  C21813125  -0.995   4.302   4.981  0.7118 -0.0356 -0.1721
  123SOPE  H18R13126  -1.090   4.272   5.030  0.1848  1.5554 -0.1361
  123SOPE  H18S13127  -0.976   4.229   4.899  0.0394  0.2073 -0.5551
  123SOPE  H18T13128  -1.024   4.404   4.948 -1.4134 -0.9960 -1.4676
  123SOPE   C3313129   0.221   3.074   4.435 -0.1503  0.7872 -0.1019
  123SOPE   H3X13130   0.139   3.005   4.465 -0.1619  0.7675 -0.1789
  123SOPE   H3Y13131   0.199   3.170   4.488 -0.1316  0.8588 -0.2230
  123SOPE   C3413132   0.349   3.014   4.488  0.2928 -0.8340  0.4018
  123SOPE   H4X13133   0.419   3.096   4.459 -2.4551  0.7876 -2.1743
  123SOPE   H4Y13134   0.392   2.931   4.427 -2.0490 -2.0826  0.3585
  123SOPE   C3513135   0.359   2.991   4.635 -0.6639 -0.2080 -0.5877
  123SOPE   H5X13136   0.329   2.887   4.659  0.2031 -0.3126  0.0844
  123SOPE   H5Y13137   0.298   3.067   4.689  0.0611  1.3788 -1.9360
  123SOPE   C3613138   0.505   3.020   4.693  0.3863  0.1849  0.5409
  123SOPE   H6X13139   0.521   3.129   4.681  0.4280  0.0302 -1.0573
  123SOPE   H6Y13140   0.587   2.969   4.637 -1.5219  0.9467 -3.3140
  123SOPE   C3713141   0.505   3.000   4.845  0.5762  0.1254  0.4722
  123SOPE   H7X13142   0.489   2.892   4.868 -1.7430 -0.6768 -3.7883
  123SOPE   H7Y13143   0.425   3.059   4.894 -1.0204  0.8029 -2.6689
  123SOPE   C3813144   0.646   3.030   4.903  0.5999 -0.1287 -0.1012
  123SOPE   H8X13145   0.665   3.137   4.927  0.2626 -0.3455  1.1820
  123SOPE   H8Y13146   0.724   3.003   4.828  2.6141  2.2371  0.9592
  123SOPE   C3913147   0.678   2.949   5.031  0.4726 -0.9034 -0.3437
  123SOPE   H9X13148   0.690   2.842   5.006  2.4113 -0.2357 -2.6715
  123SOPE   H9Y13149   0.601   2.956   5.111  1.6919 -1.3619  0.9255
  123SOPE  C31013150   0.808   2.986   5.096  0.0547  0.1512  0.2911
  123SOPE  H10X13151   0.787   3.082   5.147 -1.2038 -0.9721  2.0016
  123SOPE  H10Y13152   0.889   2.998   5.020 -1.7865 -0.1402 -1.8346
  123SOPE  C31113153   0.859   2.881   5.198  0.0406  1.1367  0.1750
  123SOPE  H11X13154   0.847   2.779   5.157  0.4758  1.9647 -2.1788
  123SOPE  H11Y13155   0.791   2.897   5.285 -0.8667 -1.6455  0.0827
  123SOPE  C31213156   1.009   2.901   5.239  0.2548  0.0221  0.8073
  123SOPE  H12X13157   1.031   3.009   5.255 -0.8963  0.5423 -0.8917
  123SOPE  H12Y13158   1.065   2.865   5.150 -0.9777 -1.6240  0.6406
  123SOPE  C31313159   1.063   2.825   5.369  0.1794 -0.1927  0.1410
  123SOPE  H13X13160   1.031   2.893   5.451  0.0470  2.4757 -1.9803
  123SOPE  H13Y13161   1.174   2.831   5.363  0.3097 -0.5285  1.7537
  123SOPE  C31413162   1.027   2.679   5.377 -0.7067 -0.0636 -0.2893
  123SOPE  H14X13163   1.037   2.619   5.284  0.6421 -1.0638  0.4674
  123SOPE  H14Y13164   0.922   2.660   5.409  0.1567 -0.8631  2.3734
  123SOPE  C31513165   1.109   2.612   5.493 -0.5808 -0.4398  0.5723
  123SOPE  H15X13166   1.086   2.661   5.590  3.0003 -0.1372  1.4006
  123SOPE  H15Y13167   1.215   2.635   5.468 -0.9677 -0.8873 -1.6363
  123SOPE  C31613168   1.070   2.463   5.493  0.1123 -0.0875  0.4203
  123SOPE  H16X13169   1.106   2.426   5.394  1.8866  2.0963  0.1792
  123SOPE  H16Y13170   0.960   2.454   5.503  0.0510  0.6964  0.4931
  123SOPE  C31713171   1.133   2.383   5.610 -0.2797  0.3306 -0.5218
  123SOPE  H17X13172   1.133   2.275   5.581 -0.0973 -0.0498  0.8422
  123SOPE  H17Y13173   1.070   2.382   5.701  1.2205 -3.1852  0.6768
  123SOPE  C31813174   1.266   2.430   5.660 -0.2829 -0.0768  0.4543
  123SOPE  H18X13175   1.267   2.539   5.676  0.5058  1.0145 -4.9195
  123SOPE  H18Y13176   1.353   2.420   5.592 -0.1885 -0.8274  0.6757
  123SOPE  H18Z13177   1.293   2.381   5.756 -0.7978  0.5811  0.9367
  124SOPE     N13178   5.529   6.859   3.443 -0.0454  0.1162 -0.3074
  124SOPE   HN113179   5.519   6.759   3.417 -2.3548  0.9271 -3.1067
  124SOPE   HN213180   5.435   6.904   3.439  0.0015  0.1803 -0.7371
  124SOPE   HN313181   5.586   6.914   3.375 -0.3170 -0.2983 -0.8756
  124SOPE   C1213182   5.581   6.882   3.587  0.1734 -0.2569  0.2740
  124SOPE  H12A13183   5.518   6.818   3.652 -3.4345  0.4322 -2.2602
  124SOPE  H12B13184   5.582   6.988   3.619  3.4154  0.0398 -0.4258
  124SOPE   C1113185   5.730   6.843   3.592 -0.2265  0.0819  0.3861
  124SOPE  H11A13186   5.732   6.737   3.559  0.5844 -0.4654  2.1210
  124SOPE  H11B13187   5.776   6.852   3.692  0.2429  0.4853  0.1403
  124SOPE     P13188   5.962   6.919   3.487  0.1288 -0.3049 -0.0849
  124SOPE   O1313189   6.001   6.933   3.347  0.3118  0.4066 -0.2004
  124SOPE   O1413190   6.001   6.798   3.565 -1.0615 -0.6476  0.3707
  124SOPE   O1213191   5.807   6.916   3.497 -0.1537 -0.3024  0.3109
  124SOPE   O1113192   5.999   7.053   3.564 -0.1428 -0.2727  0.6287
  124SOPE    C113193   5.897   7.149   3.606 -0.3251  0.1285 -0.8487
  124SOPE    HA13194   5.839   7.122   3.697 -1.2959  1.2289 -1.1186
  124SOPE    HB13195   5.820   7.154   3.527  0.4171 -1.8553 -1.7627
  124SOPE    C213196   5.961   7.283   3.620  0.3831 -0.8213 -0.5178
  124SOPE    HS13197   5.984   7.317   3.517  0.5576 -0.4252 -0.3525
  124SOPE   O2113198   6.073   7.276   3.706 -0.4465  0.4300  0.0354
  124SOPE   C2113199   6.164   7.380   3.693 -0.2220  0.3543 -0.5272
  124SOPE   O2213200   6.155   7.471   3.613  0.4525 -0.2711 -0.0497
  124SOPE   C2213201   6.268   7.355   3.801  0.6006 -0.3292 -0.0892
  124SOPE   H2R13202   6.336   7.442   3.806 -1.4042  1.2370  1.6838
  124SOPE   H2S13203   6.316   7.260   3.768 -0.4492 -1.5506  1.6828
  124SOPE    C313204   5.853   7.377   3.692 -0.0793 -0.1262 -0.4362
  124SOPE    HX13205   5.756   7.358   3.643 -0.0925 -3.5371  0.6708
  124SOPE    HY13206   5.887   7.483   3.681  1.6194 -0.4647  1.0647
  124SOPE   O3113207   5.849   7.347   3.834  0.2774 -0.4954  0.7936
  124SOPE   C3113208   5.732   7.306   3.879  0.0277  0.4263  0.2610
  124SOPE   O3213209   5.626   7.299   3.818 -0.3744  0.1174 -0.2244
  124SOPE   C3213210   5.747   7.271   4.027 -0.6879  0.3193  0.7124
  124SOPE   H2X13211   5.648   7.270   4.077 -0.9178 -1.6951  0.3151
  124SOPE   H2Y13212   5.812   7.342   4.082  0.3733  0.3185 -0.4827
  124SOPE   C2313213   6.216   7.315   3.947  0.2875 -0.3081 -0.7281
  124SOPE   H3R13214   6.165   7.219   3.924  0.5627 -0.5019 -0.5306
  124SOPE   H3S13215   6.141   7.383   3.992  1.5995 -0.3034  1.6282
  124SOPE   C2413216   6.332   7.290   4.045 -0.4297 -0.5269  0.1055
  124SOPE   H4R13217   6.411   7.240   3.985  0.3817 -1.4685  1.8701
  124SOPE   H4S13218   6.382   7.386   4.071 -1.2450  0.6272 -2.3031
  124SOPE   C2513219   6.300   7.204   4.164 -0.1702 -0.2995  0.1304
  124SOPE   H5R13220   6.268   7.104   4.127  0.6158 -0.4659 -0.1294
  124SOPE   H5S13221   6.398   7.197   4.217 -0.5541  1.5149  1.1487
  124SOPE   C2613222   6.203   7.262   4.272 -0.8111 -0.3364 -0.6743
  124SOPE   H6R13223   6.232   7.361   4.312 -2.1737  0.5034 -1.6822
  124SOPE   H6S13224   6.110   7.277   4.213 -0.4464 -1.7630 -1.6691
  124SOPE   C2713225   6.166   7.174   4.392 -0.3058 -0.5620 -0.0778
  124SOPE   H7R13226   6.107   7.084   4.363 -1.5572 -0.0913  0.8945
  124SOPE   H7S13227   6.262   7.138   4.434 -1.3331 -1.0172  2.0440
  124SOPE   C2813228   6.102   7.251   4.513  0.6359  0.8168 -0.1664
  124SOPE   H8R13229   6.158   7.342   4.542  1.5695 -0.0483  0.8274
  124SOPE   H8S13230   6.000   7.289   4.490  1.0095  1.5516 -0.6511
  124SOPE   C2913231   6.087   7.155   4.632  0.2754 -0.1331  0.3937
  124SOPE   H9113232   6.008   7.079   4.623  1.0656 -1.3129  2.7766
  124SOPE  C21013233   6.134   7.176   4.752 -0.8833 -0.2029  0.2214
  124SOPE  H10113234   6.119   7.090   4.819 -3.5792 -0.1942 -0.2469
  124SOPE  C21113235   6.230   7.282   4.793 -0.4270 -0.8970 -0.0698
  124SOPE  H11R13236   6.236   7.285   4.904 -2.0048 -1.2956  0.0462
  124SOPE  H11S13237   6.200   7.383   4.760  0.2116 -0.7844 -0.3206
  124SOPE  C21213238   6.372   7.258   4.743 -0.7521  0.9714  0.1245
  124SOPE  H12R13239   6.380   7.237   4.634 -0.4396 -0.8368  0.4682
  124SOPE  H12S13240   6.428   7.176   4.794  1.3933  2.4538  0.2940
  124SOPE  C21313241   6.470   7.372   4.767  0.4464  0.3558 -0.1661
  124SOPE  H13R13242   6.571   7.334   4.742  1.3514  1.5229  1.4976
  124SOPE  H13S13243   6.477   7.389   4.877 -0.8212  1.6538 -0.2479
  124SOPE  C21413244   6.448   7.508   4.687  0.3910 -0.3264 -0.5962
  124SOPE  H14R13245   6.530   7.575   4.723 -0.9759  1.2074 -0.1873
  124SOPE  H14S13246   6.363   7.567   4.728  0.8808 -0.0992  0.1172
  124SOPE  C21513247   6.441   7.494   4.535 -0.6102  0.1873 -0.1329
  124SOPE  H15R13248   6.399   7.587   4.490 -2.2221 -0.5564 -0.2380
  124SOPE  H15S13249   6.365   7.420   4.501 -1.0859  1.4518 -1.9712
  124SOPE  C21613250   6.578   7.452   4.477  0.3787  0.5789 -0.6698
  124SOPE  H16R13251   6.606   7.360   4.534 -1.2333  1.7385  2.1981
  124SOPE  H16S13252   6.661   7.521   4.504 -0.2384  0.7943  0.7953
  124SOPE  C21713253   6.583   7.434   4.325  0.5624  1.0000  0.0637
  124SOPE  H17R13254   6.518   7.348   4.299  0.5399  1.1824 -0.5064
  124SOPE  H17S13255   6.687   7.409   4.294 -0.1785 -0.1337 -1.5970
  124SOPE  C21813256   6.556   7.561   4.241  0.2613 -0.0442  1.1662
  124SOPE  H18R13257   6.447   7.582   4.233  0.2381 -0.8411 -1.7106
  124SOPE  H18S13258   6.585   7.544   4.135 -4.4073 -2.2277 -0.0219
  124SOPE  H18T13259   6.609   7.648   4.285 -1.7336  1.4582  0.7399
  124SOPE   C3313260   5.804   7.127   4.038  0.2809 -0.2409 -0.4419
  124SOPE   H3X13261   5.900   7.121   3.983  1.6205 -0.7804  1.8054
  124SOPE   H3Y13262   5.732   7.053   3.997 -0.6304  1.2517 -1.6664
  124SOPE   C3413263   5.838   7.089   4.179 -0.4171 -0.3278 -0.0004
  124SOPE   H4X13264   5.901   7.168   4.226  1.2195 -1.8528  0.4688
  124SOPE   H4Y13265   5.890   6.992   4.164 -0.4318 -0.4661  0.7935
  124SOPE   C3513266   5.715   7.051   4.264 -0.0840  0.3126  0.1753
  124SOPE   H5X13267   5.629   7.121   4.269 -0.3255  0.3291 -2.7448
  124SOPE   H5Y13268   5.760   7.020   4.361 -1.7850 -0.9859  0.6121
  124SOPE   C3613269   5.645   6.921   4.227  0.4082 -0.3737  0.5552
  124SOPE   H6X13270   5.728   6.852   4.201  0.8636  0.5535 -0.5272
  124SOPE   H6Y13271   5.578   6.938   4.140  1.0293 -1.6297 -0.1861
  124SOPE   C3713272   5.561   6.848   4.333  0.0416 -0.6608  0.2781
  124SOPE   H7X13273   5.490   6.924   4.372  0.0890 -0.1744 -0.5438
  124SOPE   H7Y13274   5.632   6.826   4.415  1.8486 -0.9281 -1.2659
  124SOPE   C3813275   5.497   6.725   4.266 -0.8650  0.2339 -0.2252
  124SOPE   H8X13276   5.472   6.767   4.166 -2.1162  0.4178  0.1403
  124SOPE   H8Y13277   5.398   6.702   4.311 -0.4758  0.6714  0.8849
  124SOPE   C3913278   5.585   6.602   4.227  0.7914  0.1333  0.2600
  124SOPE   H9X13279   5.670   6.621   4.158  0.6513  0.6035  0.2084
  124SOPE   H9Y13280   5.512   6.539   4.173  0.6602  0.2460  0.3047
  124SOPE  C31013281   5.620   6.518   4.353 -0.3377  0.2186  0.1625
  124SOPE  H10X13282   5.668   6.583   4.429 -1.8255  0.9074  0.5549
  124SOPE  H10Y13283   5.689   6.435   4.327 -0.2818 -0.2512  1.7181
  124SOPE  C31113284   5.501   6.442   4.412  0.5613 -0.1107  0.1157
  124SOPE  H11X13285   5.461   6.386   4.325  0.8551  0.5367 -0.4469
  124SOPE  H11Y13286   5.430   6.525   4.436  2.0178  1.3294 -0.3964
  124SOPE  C31213287   5.536   6.367   4.535 -0.2649 -0.4853 -0.0448
  124SOPE  H12X13288   5.627   6.311   4.503 -0.3188  0.8819 -2.8472
  124SOPE  H12Y13289   5.456   6.293   4.555 -2.2027  0.8570 -2.3673
  124SOPE  C31313290   5.528   6.447   4.664  0.5860  0.0353  0.2575
  124SOPE  H13X13291   5.431   6.501   4.664  0.4475 -0.2015  0.8803
  124SOPE  H13Y13292   5.614   6.517   4.658 -0.7586  1.8904  1.5009
  124SOPE  C31413293   5.546   6.366   4.790 -0.9925 -0.3878 -0.0795
  124SOPE  H14X13294   5.456   6.302   4.802 -2.0943  1.3134  1.2651
  124SOPE  H14Y13295   5.538   6.424   4.885 -1.6594  0.1266 -0.4382
  124SOPE  C31513296   5.679   6.285   4.802  0.3394  0.2091 -0.2032
  124SOPE  H15X13297   5.758   6.360   4.826  1.0718 -0.8953  0.9463
  124SOPE  H15Y13298   5.708   6.242   4.704 -2.0537 -1.2817 -0.3167
  124SOPE  C31613299   5.683   6.177   4.910 -0.6522  0.6921 -0.8839
  124SOPE  H16X13300   5.616   6.193   4.998 -0.3774 -0.3916 -0.4654
  124SOPE  H16Y13301   5.785   6.166   4.951 -0.9427  1.8842  0.2449
  124SOPE  C31713302   5.622   6.045   4.865  0.9191 -0.1201 -0.3192
  124SOPE  H17X13303   5.515   6.070   4.847  0.8434 -1.0025 -1.1960
  124SOPE  H17Y13304   5.632   5.974   4.950  0.8917 -0.9794 -1.0162
  124SOPE  C31813305   5.674   5.998   4.728 -0.5908 -0.0938 -0.4178
  124SOPE  H18X13306   5.784   5.997   4.740 -0.6873  1.4866  0.9281
  124SOPE  H18Y13307   5.634   6.063   4.647 -0.9626 -0.1803 -0.3065
  124SOPE  H18Z13308   5.646   5.893   4.706  1.2992 -0.7415  0.0476
  125SOPE     N13309   5.127   1.165   3.012  0.0129  0.2796  0.2243
  125SOPE   HN113310   5.032   1.142   3.048 -1.2399 -1.0280 -3.3764
  125SOPE   HN213311   5.116   1.206   2.917  1.9097 -1.0786 -0.6585
  125SOPE   HN313312   5.188   1.080   3.007 -0.1609  0.1822 -0.3868
  125SOPE   C1213313   5.186   1.281   3.089  0.4060  0.6055 -0.2239
  125SOPE  H12A13314   5.258   1.341   3.030 -0.3346  2.6065  0.8028
  125SOPE  H12B13315   5.238   1.239   3.177 -0.7573 -1.1438 -0.3088
  125SOPE   C1113316   5.091   1.397   3.133  0.3204 -0.3953  0.1004
  125SOPE  H11A13317   5.149   1.477   3.184 -1.5611  0.0522  1.6663
  125SOPE  H11B13318   5.013   1.355   3.199 -1.1910  0.6570 -0.9412
  125SOPE     P13319   4.954   1.572   3.004 -0.1267 -0.1705 -0.2278
  125SOPE   O1313320   4.810   1.559   3.023 -0.2783  0.0241 -0.4517
  125SOPE   O1413321   4.990   1.626   2.873 -0.5292 -0.0157  0.5499
  125SOPE   O1213322   5.034   1.441   3.009 -0.3561 -0.0721 -0.0226
  125SOPE   O1113323   5.012   1.648   3.142  0.0071 -0.3143  0.2909
  125SOPE    C113324   4.973   1.787   3.152 -0.1315  0.1935  0.6268
  125SOPE    HA13325   4.867   1.812   3.178 -0.3946  2.8752 -2.4455
  125SOPE    HB13326   4.996   1.838   3.056  0.7221 -2.5842 -0.7382
  125SOPE    C213327   5.068   1.839   3.262 -0.2902 -0.0269  0.5348
  125SOPE    HS13328   5.171   1.821   3.224  0.6209 -0.6209  3.1132
  125SOPE   O2113329   5.042   1.763   3.384  0.7619 -0.4870  0.1261
  125SOPE   C2113330   5.146   1.731   3.452 -0.0862  0.1317  0.5142
  125SOPE   O2213331   5.260   1.759   3.425  0.8415 -0.2758  0.0693
  125SOPE   C2213332   5.095   1.645   3.572 -1.0082 -0.4277 -0.1117
  125SOPE   H2R13333   5.065   1.546   3.531 -1.1189  0.0479 -1.2135
  125SOPE   H2S13334   5.003   1.695   3.609 -1.7982 -1.6771 -0.3122
  125SOPE    C313335   5.048   1.994   3.287  0.0692 -0.5433  0.0789
  125SOPE    HX13336   4.938   2.004   3.281  0.0478 -1.6195 -1.9051
  125SOPE    HY13337   5.084   2.053   3.200 -2.1794  3.6194  1.6941
  125SOPE   O3113338   5.096   2.047   3.416  0.4998 -0.1577  0.4720
  125SOPE   C3113339   5.222   2.076   3.423 -0.2758 -0.5408 -0.5571
  125SOPE   O3213340   5.295   2.077   3.331  0.1348 -0.3701  0.1419
  125SOPE   C3213341   5.264   2.127   3.559  1.0162  0.2778  0.0451
  125SOPE   H2X13342   5.212   2.224   3.570  3.3510  1.7594 -1.1746
  125SOPE   H2Y13343   5.371   2.157   3.558  0.7947  1.2612  1.7005
  125SOPE   C2313344   5.211   1.602   3.666  0.3143 -0.3988  0.5701
  125SOPE   H3R13345   5.254   1.694   3.711 -1.3379  0.5826  0.2298
  125SOPE   H3S13346   5.291   1.552   3.609  0.8894 -0.0720  1.0831
  125SOPE   C2413347   5.154   1.521   3.781 -1.0575 -0.6122 -0.4781
  125SOPE   H4R13348   5.050   1.545   3.811 -1.4345 -1.4193 -1.0869
  125SOPE   H4S13349   5.147   1.416   3.745  2.4130 -1.1265 -0.0175
  125SOPE   C2513350   5.253   1.496   3.895 -0.1276  0.3186  0.0483
  125SOPE   H5R13351   5.324   1.414   3.872 -0.9559 -0.0175 -1.4033
  125SOPE   H5S13352   5.312   1.589   3.912  3.1414 -1.3423 -1.3604
  125SOPE   C2613353   5.185   1.460   4.032  0.4464  0.4777 -0.6604
  125SOPE   H6R13354   5.135   1.361   4.029 -0.2356  0.7961 -0.1065
  125SOPE   H6S13355   5.271   1.458   4.102  1.3094 -2.3121 -1.6690
  125SOPE   C2713356   5.084   1.569   4.084 -0.5642  0.7206 -0.1335
  125SOPE   H7R13357   5.144   1.661   4.066  1.7089 -0.4338  1.0754
  125SOPE   H7S13358   4.997   1.589   4.017 -0.3276 -1.4803 -1.1766
  125SOPE   C2813359   5.048   1.549   4.233 -0.3398  0.1656  0.3309
  125SOPE   H8R13360   4.979   1.462   4.244  2.1731 -2.3550 -2.0249
  125SOPE   H8S13361   5.150   1.532   4.276 -0.5515 -0.9219  0.4478
  125SOPE   C2913362   4.987   1.673   4.293  0.0316  0.1177 -0.0388
  125SOPE   H9113363   4.882   1.681   4.262 -0.8158 -0.1623  2.5374
  125SOPE  C21013364   5.031   1.746   4.392 -0.3041 -0.3281  0.0701
  125SOPE  H10113365   4.977   1.838   4.419 -0.4485 -0.0905 -0.9811
  125SOPE  C21113366   5.171   1.734   4.452  0.2408 -0.0918  0.5482
  125SOPE  H11R13367   5.221   1.829   4.423  1.5021 -0.0728  2.6073
  125SOPE  H11S13368   5.235   1.658   4.402 -0.3346  0.4322 -1.0634
  125SOPE  C21213369   5.182   1.727   4.599 -0.5766 -0.0693 -0.0449
  125SOPE  H12R13370   5.288   1.748   4.624  0.1628 -0.8469 -2.2571
  125SOPE  H12S13371   5.168   1.622   4.632 -1.3578 -0.4776 -1.5685
  125SOPE  C21313372   5.083   1.814   4.678 -0.7316  0.3663  0.2244
  125SOPE  H13R13373   4.978   1.803   4.643 -0.4566 -3.6141  0.2324
  125SOPE  H13S13374   5.104   1.923   4.666 -1.7309  0.3087 -2.7585
  125SOPE  C21413375   5.085   1.793   4.832  0.3961 -0.1495  0.0012
  125SOPE  H14R13376   5.192   1.777   4.859  0.0915 -0.4880  1.0540
  125SOPE  H14S13377   5.025   1.705   4.865  0.4828 -0.2013  0.0220
  125SOPE  C21513378   5.027   1.903   4.910  0.5864 -0.0407  0.0355
  125SOPE  H15R13379   4.920   1.924   4.887 -0.0509 -0.6363  2.2054
  125SOPE  H15S13380   5.067   2.005   4.892 -2.8995  1.3269 -0.8397
  125SOPE  C21613381   5.026   1.894   5.061 -0.7327  0.9160 -0.5194
  125SOPE  H16R13382   4.997   1.993   5.103  0.0833  1.7444 -1.8356
  125SOPE  H16S13383   5.132   1.878   5.090 -0.9877  0.8876  0.4094
  125SOPE  C21713384   4.952   1.780   5.127 -1.5310  0.1669  0.0372
  125SOPE  H17R13385   4.980   1.777   5.234 -0.0653 -3.2787 -0.3158
  125SOPE  H17S13386   4.990   1.682   5.091 -0.8083  0.4072  0.1330
  125SOPE  C21813387   4.799   1.778   5.138 -0.3756 -0.3418  0.2968
  125SOPE  H18R13388   4.754   1.875   5.170 -1.7518 -1.2838  1.3677
  125SOPE  H18S13389   4.759   1.700   5.206 -2.7732  1.4553  1.1066
  125SOPE  H18T13390   4.758   1.756   5.038 -0.7862  2.3605 -0.2194
  125SOPE   C3313391   5.234   2.021   3.658 -0.1426  0.4294  0.1205
  125SOPE   H3X13392   5.308   1.941   3.638 -0.6671 -0.0389 -0.0024
  125SOPE   H3Y13393   5.132   1.976   3.652  0.6315 -1.5426  0.9049
  125SOPE   C3413394   5.255   2.072   3.798  0.3283  0.3543 -0.1314
  125SOPE   H4X13395   5.201   2.168   3.807 -1.7837 -0.8389  0.7004
  125SOPE   H4Y13396   5.363   2.088   3.820  0.3418  0.1129 -0.0146
  125SOPE   C3513397   5.188   1.970   3.898  0.5106 -0.5438 -0.0109
  125SOPE   H5X13398   5.217   1.867   3.866 -1.1425 -0.8159 -0.7382
  125SOPE   H5Y13399   5.078   1.959   3.885  0.6132 -1.2839 -0.3577
  125SOPE   C3613400   5.221   1.999   4.044  0.6852 -0.3905 -0.3315
  125SOPE   H6X13401   5.320   2.049   4.045  1.2276 -1.4446  0.6618
  125SOPE   H6Y13402   5.215   1.914   4.115 -1.6361  1.7415  2.2227
  125SOPE   C3713403   5.124   2.098   4.103 -0.2965 -0.0089  0.1064
  125SOPE   H7X13404   5.024   2.049   4.115 -1.2459  1.2628 -2.0831
  125SOPE   H7Y13405   5.111   2.194   4.049 -0.3916  1.5575  2.7224
  125SOPE   C3813406   5.168   2.139   4.239 -0.2429  0.1343  0.4592
  125SOPE   H8X13407   5.266   2.189   4.225  0.1173 -0.1330  1.8382
  125SOPE   H8Y13408   5.201   2.049   4.294 -0.6442  0.5632  1.4307
  125SOPE   C3913409   5.060   2.215   4.314 -0.5709  0.2677 -0.4777
  125SOPE   H9X13410   4.983   2.141   4.344 -1.0667  1.4561  1.3450
  125SOPE   H9Y13411   5.006   2.292   4.254 -0.0748 -0.4267 -1.8609
  125SOPE  C31013412   5.102   2.283   4.451 -0.8883  0.3848  0.9985
  125SOPE  H10X13413   5.015   2.287   4.520  0.2962 -0.5037  2.5995
  125SOPE  H10Y13414   5.130   2.391   4.449  0.2804  0.1992  3.4503
  125SOPE  C31113415   5.220   2.215   4.526 -0.4837  0.3503  0.4455
  125SOPE  H11X13416   5.309   2.224   4.461 -0.1461  0.0065  0.8496
  125SOPE  H11Y13417   5.200   2.107   4.543  0.9925 -0.3868 -2.1151
  125SOPE  C31213418   5.255   2.286   4.652  0.6242  0.0547  0.1717
  125SOPE  H12X13419   5.301   2.383   4.623 -0.0539  0.1183 -0.7422
  125SOPE  H12Y13420   5.333   2.234   4.711 -0.2863 -1.4092  0.1280
  125SOPE  C31313421   5.147   2.305   4.760 -0.5470  0.4681  0.1050
  125SOPE  H13X13422   5.114   2.202   4.786  1.9024 -0.4554 -0.1974
  125SOPE  H13Y13423   5.060   2.360   4.716  0.8088  1.7948 -1.0169
  125SOPE  C31413424   5.182   2.374   4.886 -0.4920  0.6547  0.3386
  125SOPE  H14X13425   5.237   2.468   4.860  0.5136  0.0995  0.3908
  125SOPE  H14Y13426   5.265   2.313   4.928  1.9175  3.1158 -0.5523
  125SOPE  C31513427   5.071   2.390   4.988 -0.5864  0.4218  0.4540
  125SOPE  H15X13428   5.054   2.293   5.040  0.7762 -0.4972 -0.7290
  125SOPE  H15Y13429   4.983   2.424   4.930 -0.5617  1.9966  1.2770
  125SOPE  C31613430   5.097   2.506   5.089 -0.0298  0.3413  0.2779
  125SOPE  H16X13431   5.160   2.588   5.049  0.2433  0.6137  1.2351
  125SOPE  H16Y13432   5.160   2.474   5.175  0.8650 -0.5600 -0.6901
  125SOPE  C31713433   4.963   2.557   5.160  0.0518  0.6823 -0.2032
  125SOPE  H17X13434   4.912   2.467   5.199 -1.9751  2.4484  1.4905
  125SOPE  H17Y13435   4.887   2.587   5.084  0.4954  1.4028 -0.3751
  125SOPE  C31813436   4.976   2.659   5.275 -0.3005 -0.5534 -0.1033
  125SOPE  H18X13437   5.038   2.613   5.355 -0.9510  0.5246  1.0555
  125SOPE  H18Y13438   4.879   2.692   5.318 -0.8075  0.1718 -1.7557
  125SOPE  H18Z13439   5.042   2.742   5.240  0.2874 -0.9748 -0.0124
  126SOPE     N13440   0.220   3.808   3.459 -0.8854 -0.2929  0.0931
  126SOPE   HN113441   0.164   3.761   3.385  0.0540  1.3338 -1.7214
  126SOPE   HN213442   0.312   3.837   3.421  0.6787 -2.2811  2.0925
  126SOPE   HN313443   0.249   3.735   3.527  1.6350 -0.4012 -0.9757
  126SOPE   C1213444   0.160   3.927   3.528 -0.1069  0.6825  0.7199
  126SOPE  H12A13445   0.075   3.892   3.590  1.0295 -0.0924  1.8975
  126SOPE  H12B13446   0.118   3.992   3.449  1.0242 -2.1596 -2.4511
  126SOPE   C1113447   0.268   4.009   3.593 -0.9844 -0.2209  0.4799
  126SOPE  H11A13448   0.288   3.961   3.691  0.1838 -1.0124 -0.1277
  126SOPE  H11B13449   0.224   4.110   3.606  0.2211  0.6014 -1.4377
  126SOPE     P13450   0.532   3.994   3.591 -0.3897 -0.5878 -0.3434
  126SOPE   O1313451   0.646   4.064   3.525  0.3542 -0.5533  0.0580
  126SOPE   O1413452   0.549   3.848   3.604  0.3673 -0.3130  0.1144
  126SOPE   O1213453   0.393   4.020   3.519  0.0206 -0.0750  0.5235
  126SOPE   O1113454   0.503   4.049   3.733 -1.0116 -0.3438  0.1253
  126SOPE    C113455   0.517   4.189   3.752 -0.0889  0.3047 -0.3492
  126SOPE    HA13456   0.473   4.253   3.672 -1.9538 -0.0081  0.3787
  126SOPE    HB13457   0.626   4.211   3.764 -0.0124 -0.2145 -0.0871
  126SOPE    C213458   0.442   4.228   3.879  0.5323 -0.6341  0.0399
  126SOPE    HS13459   0.442   4.338   3.896  2.6123 -0.6703  0.4324
  126SOPE   O2113460   0.497   4.160   3.991 -0.3881  0.0039  0.1526
  126SOPE   C2113461   0.611   4.215   4.029 -0.0391  0.7774 -0.0206
  126SOPE   O2213462   0.653   4.322   3.992 -0.9202 -0.1095 -0.0302
  126SOPE   C2213463   0.671   4.134   4.142  0.1456  0.1256 -0.4743
  126SOPE   H2R13464   0.696   4.032   4.106 -0.1399  0.7803 -2.6275
  126SOPE   H2S13465   0.595   4.120   4.222  1.9385 -1.6088  1.0587
  126SOPE    C313466   0.288   4.198   3.878  0.0306 -0.1641  0.2981
  126SOPE    HX13467   0.262   4.091   3.862 -2.0954 -0.2072  3.1960
  126SOPE    HY13468   0.253   4.262   3.795  0.2989  1.9446  1.7443
  126SOPE   O3113469   0.217   4.247   3.992 -0.1597  0.1002 -0.6744
  126SOPE   C3113470   0.199   4.155   4.086 -0.0754  0.6394 -0.0962
  126SOPE   O3213471   0.245   4.036   4.078 -0.1523  0.1126 -0.7945
  126SOPE   C3213472   0.117   4.201   4.200 -0.0977  0.0871 -0.0554
  126SOPE   H2X13473   0.019   4.150   4.202 -0.2033  0.3112  1.7146
  126SOPE   H2Y13474   0.093   4.308   4.184 -2.0926 -0.3359 -0.1518
  126SOPE   C2313475   0.800   4.207   4.191  0.2639 -0.3063 -0.0767
  126SOPE   H3R13476   0.773   4.306   4.233 -2.0857 -1.9754  2.7568
  126SOPE   H3S13477   0.870   4.204   4.104  0.1376 -2.1243 -0.1510
  126SOPE   C2413478   0.870   4.121   4.299 -0.1792 -0.2049  0.6326
  126SOPE   H4R13479   0.870   4.015   4.265  0.5088  0.1107 -0.3996
  126SOPE   H4S13480   0.976   4.155   4.302 -0.1971  0.2232 -1.8752
  126SOPE   C2513481   0.791   4.121   4.429  0.1871 -1.1537 -0.7413
  126SOPE   H5R13482   0.794   4.223   4.471  0.9671 -0.8804 -1.4355
  126SOPE   H5S13483   0.686   4.088   4.412  0.5439 -1.6658 -2.0999
  126SOPE   C2613484   0.860   4.027   4.524 -0.0980  0.1001 -0.4121
  126SOPE   H6R13485   0.845   3.926   4.481 -2.0244  0.9827 -1.9599
  126SOPE   H6S13486   0.967   4.053   4.534 -0.4950  1.0455  1.9304
  126SOPE   C2713487   0.785   4.031   4.662 -0.4853  0.4110 -0.1878
  126SOPE   H7R13488   0.822   4.116   4.723 -1.1753  1.6494 -1.4399
  126SOPE   H7S13489   0.676   4.048   4.648 -0.7706 -0.5259  0.7801
  126SOPE   C2813490   0.798   3.899   4.740 -0.1281  0.3457  0.4613
  126SOPE   H8R13491   0.779   3.799   4.696  0.3781  0.2931  0.3524
  126SOPE   H8S13492   0.906   3.911   4.762 -0.1658 -1.0218  1.5136
  126SOPE   C2913493   0.719   3.914   4.869 -0.4672  0.6716 -0.2260
  126SOPE   H9113494   0.674   4.013   4.883  1.8815  1.9502 -1.1900
  126SOPE  C21013495   0.698   3.828   4.965 -0.0570 -0.4384 -0.2048
  126SOPE  H10113496   0.633   3.849   5.050 -0.1394  0.8071 -0.5582
  126SOPE  C21113497   0.756   3.693   4.959  0.2417 -0.5778 -0.4362
  126SOPE  H11R13498   0.781   3.674   5.066 -2.5125 -1.5085  0.1484
  126SOPE  H11S13499   0.855   3.705   4.911  0.8856  0.9322  1.1407
  126SOPE  C21213500   0.697   3.560   4.907  0.6020 -0.0665 -0.8611
  126SOPE  H12R13501   0.652   3.564   4.805 -1.1556 -1.4389 -0.2018
  126SOPE  H12S13502   0.620   3.525   4.979  1.2227 -0.0795 -0.1929
  126SOPE  C21313503   0.806   3.453   4.899  0.2421 -0.7385  0.0993
  126SOPE  H13R13504   0.758   3.354   4.917 -2.4724  0.7776  1.8288
  126SOPE  H13S13505   0.881   3.467   4.979 -1.1748 -0.4609  1.4088
  126SOPE  C21413506   0.895   3.476   4.773  0.3196  0.1449  0.4997
  126SOPE  H14R13507   1.003   3.457   4.791  0.4075 -0.4812 -0.5925
  126SOPE  H14S13508   0.888   3.583   4.746 -0.7065 -0.4239 -1.7367
  126SOPE  C21513509   0.851   3.396   4.648  0.0255 -0.0914  0.1403
  126SOPE  H15R13510   0.747   3.430   4.633  0.0733  0.2817  0.6264
  126SOPE  H15S13511   0.861   3.285   4.648  0.2410 -0.0937 -1.3707
  126SOPE  C21613512   0.931   3.441   4.520  0.1312  0.1315  0.3430
  126SOPE  H16R13513   1.040   3.428   4.538 -0.0714 -1.0862  0.7928
  126SOPE  H16S13514   0.919   3.551   4.507  2.8133  0.4327 -0.0700
  126SOPE  C21713515   0.884   3.363   4.403 -0.0061 -0.4178 -0.2472
  126SOPE  H17R13516   0.776   3.376   4.381  0.0199  0.9558  0.3248
  126SOPE  H17S13517   0.899   3.256   4.428  0.6612  0.5051  4.2571
  126SOPE  C21813518   0.948   3.392   4.264  0.8007 -0.4017 -0.1433
  126SOPE  H18R13519   0.921   3.494   4.231 -0.0905 -0.6139 -0.0985
  126SOPE  H18S13520   0.895   3.331   4.187 -1.1162  1.2051 -0.1709
  126SOPE  H18T13521   1.057   3.373   4.259  0.6455 -1.0237 -1.6799
  126SOPE   C3313522   0.184   4.182   4.338 -0.9215  0.1533 -0.5348
  126SOPE   H3X13523   0.282   4.234   4.345 -1.4328  1.1392 -0.5736
  126SOPE   H3Y13524   0.204   4.073   4.349  1.5993  0.7770  2.4325
  126SOPE   C3413525   0.099   4.215   4.454  0.4218 -0.3443 -0.1834
  126SOPE   H4X13526   0.155   4.188   4.546 -0.2903  2.1997  1.0522
  126SOPE   H4Y13527   0.011   4.147   4.456  1.8364 -2.2722  0.2426
  126SOPE   C3513528   0.064   4.366   4.464  0.0784 -0.3152 -0.6769
  126SOPE   H5X13529   0.023   4.394   4.365  1.8452 -2.5011 -2.1031
  126SOPE   H5Y13530   0.151   4.435   4.473 -1.1398  1.4541 -1.9155
  126SOPE   C3613531  -0.046   4.398   4.566  1.1123 -0.7366  0.5995
  126SOPE   H6X13532  -0.124   4.319   4.563 -0.1204  0.4756 -1.1441
  126SOPE   H6Y13533  -0.099   4.489   4.532  0.8474 -0.5874  1.4104
  126SOPE   C3713534   0.006   4.421   4.705 -0.7619  0.2361 -0.4594
  126SOPE   H7X13535   0.074   4.508   4.718  0.0201 -0.2600 -1.2097
  126SOPE   H7Y13536   0.065   4.334   4.741  0.8177  1.5106  0.1689
  126SOPE   C3813537  -0.118   4.447   4.792  0.9658  0.5767 -0.1691
  126SOPE   H8X13538  -0.192   4.365   4.788 -0.0501  1.0641  3.7451
  126SOPE   H8Y13539  -0.180   4.532   4.757  0.7018  0.2366 -0.5336
  126SOPE   C3913540  -0.079   4.475   4.939  0.6402  0.1649  0.2807
  126SOPE   H9X13541   0.002   4.405   4.970  2.3811  2.0393  0.1764
  126SOPE   H9Y13542  -0.166   4.452   5.004  0.7404  0.8260  0.6574
  126SOPE  C31013543  -0.035   4.619   4.967  0.2983  0.1546  0.0935
  126SOPE  H10X13544  -0.107   4.689   4.920 -0.0720 -0.9294 -0.9852
  126SOPE  H10Y13545   0.059   4.647   4.915  0.7871 -0.7910  0.4492
  126SOPE  C31113546  -0.012   4.642   5.120  0.2326 -0.4340 -0.1948
  126SOPE  H11X13547   0.095   4.627   5.144  0.1670 -0.8019 -0.1260
  126SOPE  H11Y13548  -0.078   4.580   5.184 -0.9879  1.5432  0.5718
  126SOPE  C31213549  -0.042   4.794   5.159 -0.1638  0.0102  0.9500
  126SOPE  H12X13550  -0.138   4.826   5.113 -0.9407 -1.1641  1.7010
  126SOPE  H12Y13551   0.031   4.859   5.104 -1.5420  0.5318 -0.3382
  126SOPE  C31313552  -0.037   4.820   5.308 -0.0960 -0.3172  0.7207
  126SOPE  H13X13553   0.058   4.786   5.355  0.6786 -0.1550 -0.6725
  126SOPE  H13Y13554  -0.116   4.757   5.354  0.5116 -1.1551  0.6466
  126SOPE  C31413555  -0.078   4.958   5.350  0.7032  0.3439  0.3029
  126SOPE  H14X13556  -0.094   4.949   5.460 -0.3483  0.9594  0.2133
  126SOPE  H14Y13557  -0.171   4.975   5.292  0.9651  0.9587  0.0574
  126SOPE  C31513558   0.028   5.067   5.342 -0.4460 -0.1548 -0.0968
  126SOPE  H15X13559   0.056   5.080   5.235  2.4849  1.2733  0.7309
  126SOPE  H15Y13560   0.120   5.040   5.398 -1.1748 -1.2349  0.6058
  126SOPE  C31613561  -0.027   5.200   5.388 -0.7075 -0.5752 -0.5543
  126SOPE  H16X13562  -0.130   5.210   5.349 -0.9225 -1.1529 -0.1490
  126SOPE  H16Y13563   0.042   5.285   5.365  0.0114 -0.8569  0.4719
  126SOPE  C31713564  -0.040   5.208   5.539 -0.2422  0.4240 -0.1251
  126SOPE  H17X13565   0.058   5.174   5.580 -0.1607  1.3104  0.4498
  126SOPE  H17Y13566  -0.106   5.129   5.579  1.4459 -0.2455  1.5018
  126SOPE  C31813567  -0.085   5.342   5.594  0.1840 -0.6370 -0.0414
  126SOPE  H18X13568  -0.070   5.350   5.704 -0.5942  3.1619 -0.0593
  126SOPE  H18Y13569  -0.192   5.361   5.569  0.7322 -0.6810 -2.6592
  126SOPE  H18Z13570  -0.024   5.417   5.539  0.8354 -0.9171  0.2862
  127SOPE     N13571   2.871   5.242   3.131 -0.2880 -0.7252  0.3284
  127SOPE   HN113572   2.873   5.138   3.139 -2.4680 -0.7731  0.8449
  127SOPE   HN213573   2.901   5.287   3.219 -0.6647  1.1340 -0.4488
  127SOPE   HN313574   2.776   5.284   3.128  1.4660  3.6635  0.1476
  127SOPE   C1213575   2.967   5.271   3.016 -0.6016  0.0100  0.3832
  127SOPE  H12A13576   2.938   5.212   2.926  0.4019 -0.0134  0.0522
  127SOPE  H12B13577   3.070   5.249   3.053 -0.9673 -1.1194  0.7664
  127SOPE   C1113578   2.969   5.423   2.976 -0.1341  0.1084 -0.1890
  127SOPE  H11A13579   3.053   5.439   2.905 -1.8539  1.4456 -2.0661
  127SOPE  H11B13580   2.977   5.490   3.064 -1.6041  0.6132 -0.4044
  127SOPE     P13581   2.712   5.490   2.941 -0.0696  0.1344 -0.2664
  127SOPE   O1313582   2.623   5.383   2.909  0.6444 -0.4013 -0.6238
  127SOPE   O1413583   2.681   5.627   2.891 -0.2483 -0.1896 -0.0084
  127SOPE   O1213584   2.855   5.449   2.898 -0.4020 -0.7402  0.7852
  127SOPE   O1113585   2.728   5.496   3.103  0.0105  0.1260  0.4912
  127SOPE    C113586   2.668   5.598   3.179 -0.6009 -0.5958  0.2725
  127SOPE    HA13587   2.592   5.546   3.242 -1.4368 -1.9447 -1.7543
  127SOPE    HB13588   2.613   5.675   3.121  0.0177  0.2386  0.7702
  127SOPE    C213589   2.771   5.648   3.284 -0.4428 -0.2930 -0.2823
  127SOPE    HS13590   2.877   5.647   3.251 -0.5012  2.3580 -0.7521
  127SOPE   O2113591   2.758   5.570   3.406 -0.1994 -0.0369  0.0180
  127SOPE   C2113592   2.824   5.454   3.407  0.3896 -0.2369 -0.4575
  127SOPE   O2213593   2.904   5.417   3.324  0.1578  0.3884 -0.2586
  127SOPE   C2213594   2.795   5.385   3.542  0.1068 -0.5294 -0.3167
  127SOPE   H2R13595   2.703   5.325   3.527  0.0236 -0.3414 -0.5630
  127SOPE   H2S13596   2.786   5.461   3.622  2.5901 -0.8670  0.3589
  127SOPE    C313597   2.732   5.795   3.318 -0.2612 -0.1938 -0.0442
  127SOPE    HX13598   2.621   5.803   3.314 -0.4080 -0.9304  1.8440
  127SOPE    HY13599   2.757   5.865   3.235  0.3259 -0.8009 -0.3865
  127SOPE   O3113600   2.790   5.842   3.446 -0.1548 -0.3643 -0.1296
  127SOPE   C3113601   2.694   5.854   3.538 -0.3307 -0.5467 -0.1303
  127SOPE   O3213602   2.577   5.829   3.531  0.0678 -0.0702  0.1017
  127SOPE   C3213603   2.756   5.896   3.674  0.1160  0.4827 -0.3902
  127SOPE   H2X13604   2.787   6.002   3.675 -1.1463  0.9399 -2.7624
  127SOPE   H2Y13605   2.846   5.833   3.693 -0.1758  0.4649  1.0363
  127SOPE   C2313606   2.916   5.294   3.586 -0.1549 -0.1350 -0.4542
  127SOPE   H3R13607   3.000   5.363   3.609 -1.4583  1.0070  1.1551
  127SOPE   H3S13608   2.939   5.229   3.499 -0.8842 -3.3587  1.5654
  127SOPE   C2413609   2.890   5.205   3.711  0.0021 -0.7258  1.0174
  127SOPE   H4R13610   2.876   5.278   3.793  0.4318  3.1562 -2.1021
  127SOPE   H4S13611   2.798   5.145   3.696 -1.2638  1.4784 -0.4628
  127SOPE   C2513612   3.008   5.117   3.753  0.3213 -0.4296  0.4906
  127SOPE   H5R13613   3.012   5.037   3.677  0.8881 -1.8242  1.9217
  127SOPE   H5S13614   3.102   5.176   3.749 -0.0784  0.2093  0.3556
  127SOPE   C2613615   2.995   5.042   3.882 -0.3642  0.0463 -0.1528
  127SOPE   H6R13616   2.907   4.974   3.890 -0.4284  0.3070  2.0707
  127SOPE   H6S13617   3.084   4.977   3.887 -0.8818 -0.5862  2.9452
  127SOPE   C2713618   2.992   5.135   4.012  0.3590 -0.0146  0.5998
  127SOPE   H7R13619   3.073   5.212   4.013 -0.4598  1.0862 -2.9121
  127SOPE   H7S13620   2.899   5.195   4.018  1.0749  1.0705  1.1866
  127SOPE   C2813621   3.001   5.046   4.135  0.3445  0.6280 -0.5413
  127SOPE   H8R13622   3.051   4.948   4.115  0.6332  0.9322 -1.3706
  127SOPE   H8S13623   3.050   5.096   4.221  1.1354 -1.0944  0.0545
  127SOPE   C2913624   2.857   4.996   4.173 -0.3767 -0.5099 -0.1671
  127SOPE   H9113625   2.794   4.947   4.097 -1.7811  1.1115 -0.1048
  127SOPE  C21013626   2.796   5.010   4.292 -0.2621 -0.2277 -0.2712
  127SOPE  H10113627   2.699   4.961   4.305 -0.0693 -0.6628 -0.4491
  127SOPE  C21113628   2.851   5.076   4.416  0.2191 -0.5060 -0.1382
  127SOPE  H11R13629   2.765   5.092   4.484  0.1030  1.3635 -0.6776
  127SOPE  H11S13630   2.909   5.171   4.414  1.7172 -1.3043  1.8821
  127SOPE  C21213631   2.942   4.984   4.495 -0.2205 -0.2842 -0.3803
  127SOPE  H12R13632   3.035   4.971   4.436  0.5470 -0.7545  0.8938
  127SOPE  H12S13633   2.902   4.881   4.505 -0.4033 -0.1229  0.6771
  127SOPE  C21313634   2.994   5.045   4.626 -0.1342 -0.1114  0.4938
  127SOPE  H13R13635   2.916   5.046   4.704 -0.5188  0.0100  0.1133
  127SOPE  H13S13636   3.006   5.154   4.612 -2.1610  0.0595 -0.2819
  127SOPE  C21413637   3.121   4.978   4.684  0.0346  0.1030  0.1489
  127SOPE  H14R13638   3.202   4.974   4.608  2.0857 -1.9732  2.2906
  127SOPE  H14S13639   3.099   4.871   4.699  2.5022 -0.3575  0.8558
  127SOPE  C21513640   3.162   5.037   4.819  0.6359 -0.6909  0.5171
  127SOPE  H15R13641   3.074   5.045   4.885 -1.6620  1.0465 -2.4627
  127SOPE  H15S13642   3.186   5.145   4.808  1.1061 -0.7450  0.9692
  127SOPE  C21613643   3.268   4.956   4.894  0.5794  0.3272  0.2639
  127SOPE  H16R13644   3.341   4.941   4.812  1.3181 -0.3719  1.0345
  127SOPE  H16S13645   3.236   4.857   4.932  0.4273 -0.3267 -1.4744
  127SOPE  C21713646   3.334   5.038   5.005  0.2844 -0.1744 -0.0814
  127SOPE  H17R13647   3.332   5.148   4.992 -1.3918 -0.0511  0.9833
  127SOPE  H17S13648   3.441   5.007   5.002  0.7101  1.1716  0.5494
  127SOPE  C21813649   3.264   4.995   5.132 -0.3775 -0.4965 -0.9981
  127SOPE  H18R13650   3.153   4.994   5.124 -0.3745  2.6399 -2.8881
  127SOPE  H18S13651   3.285   5.076   5.204  0.1149 -1.8590  0.4526
  127SOPE  H18T13652   3.315   4.905   5.174  1.2013  0.4029 -0.9247
  127SOPE   C3313653   2.658   5.871   3.790 -0.2098 -0.1145 -0.2283
  127SOPE   H3X13654   2.657   5.763   3.816  0.1795  0.2051  1.1533
  127SOPE   H3Y13655   2.555   5.909   3.772 -0.0868  2.3932  3.3202
  127SOPE   C3413656   2.707   5.930   3.919 -0.1553  0.1957  0.1971
  127SOPE   H4X13657   2.747   6.033   3.902  1.5064 -0.1661  1.6615
  127SOPE   H4Y13658   2.787   5.870   3.966  0.3507 -0.7272 -1.7419
  127SOPE   C3513659   2.599   5.938   4.025 -0.3357  0.4942 -0.4317
  127SOPE   H5X13660   2.553   5.837   4.021 -3.0855  1.5409  1.7926
  127SOPE   H5Y13661   2.512   5.997   3.987 -1.0851 -1.3051 -1.6604
  127SOPE   C3613662   2.644   5.971   4.165  0.5035 -0.1069  0.6702
  127SOPE   H6X13663   2.546   5.986   4.215  0.1435  0.5285 -0.2168
  127SOPE   H6Y13664   2.700   6.067   4.166 -0.8722  0.7183  1.6897
  127SOPE   C3713665   2.715   5.851   4.224 -0.2444  0.3120  0.5499
  127SOPE   H7X13666   2.795   5.821   4.153  0.1266  0.6106  0.8416
  127SOPE   H7Y13667   2.646   5.764   4.212  0.8068 -0.6106  1.0374
  127SOPE   C3813668   2.775   5.878   4.360 -0.2202 -0.1401 -0.4473
  127SOPE   H8X13669   2.844   5.965   4.351 -1.6102  1.0712  0.2194
  127SOPE   H8Y13670   2.834   5.789   4.389  0.9473  0.9988  0.8418
  127SOPE   C3913671   2.670   5.897   4.473 -0.5453  0.0982  0.0977
  127SOPE   H9X13672   2.603   5.810   4.458 -0.4818  0.4748 -2.9901
  127SOPE   H9Y13673   2.608   5.988   4.459  0.0136  0.4433 -0.1762
  127SOPE  C31013674   2.741   5.892   4.611 -0.4567 -0.3659 -0.4798
  127SOPE  H10X13675   2.798   5.986   4.628  1.4423 -1.3061 -1.3073
  127SOPE  H10Y13676   2.814   5.808   4.615  0.9460  0.8637  1.4339
  127SOPE  C31113677   2.641   5.864   4.723  0.1005 -0.8152  0.6750
  127SOPE  H11X13678   2.591   5.768   4.697  2.3740 -2.4764  2.0662
  127SOPE  H11Y13679   2.570   5.949   4.713  0.6298 -0.4007  0.4335
  127SOPE  C31213680   2.709   5.853   4.861  0.7441 -0.1575  0.2803
  127SOPE  H12X13681   2.764   5.949   4.869  0.5735  0.0064 -0.4163
  127SOPE  H12Y13682   2.770   5.761   4.852 -1.1802 -1.3805 -1.3236
  127SOPE  C31313683   2.613   5.824   4.979 -0.1202  0.3120  0.0763
  127SOPE  H13X13684   2.572   5.721   4.979 -0.7828  0.4110  4.0757
  127SOPE  H13Y13685   2.526   5.893   4.982  0.3063  0.9060 -0.7452
  127SOPE  C31413686   2.700   5.842   5.106  0.1845 -0.6723 -0.5024
  127SOPE  H14X13687   2.746   5.944   5.105  0.9559 -0.9214  1.8927
  127SOPE  H14Y13688   2.782   5.767   5.111  0.7748  0.0365  1.9995
  127SOPE  C31513689   2.624   5.814   5.238  0.1652  0.2975  0.0284
  127SOPE  H15X13690   2.700   5.770   5.306 -0.6340  0.1868  0.8777
  127SOPE  H15Y13691   2.565   5.722   5.219  0.1035  0.3403  0.0132
  127SOPE  C31613692   2.557   5.933   5.294  0.2102  0.0107 -0.0243
  127SOPE  H16X13693   2.495   5.984   5.217  1.0096 -1.7913 -1.9624
  127SOPE  H16Y13694   2.623   6.014   5.334 -1.4504  1.2830  0.2239
  127SOPE  C31713695   2.455   5.911   5.409 -0.4093  0.1697  0.1199
  127SOPE  H17X13696   2.378   5.834   5.384 -1.5992  0.7138  1.9225
  127SOPE  H17Y13697   2.403   6.006   5.432  3.5350  2.6088 -0.2335
  127SOPE  C31813698   2.524   5.859   5.537 -0.2292 -0.3835 -0.7433
  127SOPE  H18X13699   2.584   5.768   5.511 -2.0007 -2.1913  1.1250
  127SOPE  H18Y13700   2.441   5.842   5.609  1.7302  0.3655  1.7996
  127SOPE  H18Z13701   2.598   5.928   5.582  2.6706 -1.3586 -3.6544
  128SOPE     N13702   5.290   3.812   2.668 -0.4771 -0.1156 -0.3591
  128SOPE   HN113703   5.209   3.877   2.671 -0.1225  0.2773  1.7974
  128SOPE   HN213704   5.370   3.873   2.692 -0.3086  1.2867 -3.8144
  128SOPE   HN313705   5.314   3.780   2.571 -0.4568 -0.3689 -0.2721
  128SOPE   C1213706   5.275   3.693   2.768 -0.3405  0.3202  0.0139
  128SOPE  H12A13707   5.364   3.629   2.753 -0.9892 -0.6984  0.3588
  128SOPE  H12B13708   5.179   3.641   2.748  0.0267 -1.1361  1.7686
  128SOPE   C1113709   5.265   3.744   2.910  0.2743  0.0670 -0.7172
  128SOPE  H11A13710   5.251   3.657   2.978  1.8960 -0.9313 -1.6004
  128SOPE  H11B13711   5.178   3.812   2.924 -0.3839 -1.1547  1.7110
  128SOPE     P13712   5.434   3.847   3.087 -0.0657 -0.0495  0.4793
  128SOPE   O1313713   5.501   3.980   3.077 -0.3615  0.1134 -0.4294
  128SOPE   O1413714   5.511   3.736   3.143 -0.2569  0.1143 -0.4070
  128SOPE   O1213715   5.388   3.812   2.935  0.2244 -0.5605  0.1754
  128SOPE   O1113716   5.302   3.860   3.167 -0.1845  0.3861 -0.0825
  128SOPE    C113717   5.232   3.975   3.216 -0.7116  0.0576  0.4219
  128SOPE    HA13718   5.123   3.954   3.207 -0.5425 -1.6015  1.7324
  128SOPE    HB13719   5.251   4.064   3.152 -0.4852  0.0721  0.5119
  128SOPE    C213720   5.254   4.009   3.363 -0.3447 -0.9187  0.5726
  128SOPE    HS13721   5.362   4.036   3.359  0.0164 -2.3795 -1.8495
  128SOPE   O2113722   5.219   3.902   3.450 -0.4800 -0.3891  0.1944
  128SOPE   C2113723   5.321   3.836   3.507 -0.8627  0.4062  0.5988
  128SOPE   O2213724   5.441   3.854   3.486  0.3139 -0.1852 -0.4730
  128SOPE   C2213725   5.262   3.730   3.594  0.2128  0.0346  0.2809
  128SOPE   H2R13726   5.203   3.665   3.526  2.1039 -3.0027  1.3360
  128SOPE   H2S13727   5.185   3.774   3.661 -1.0343  0.6582 -1.4812
  128SOPE    C313728   5.157   4.127   3.391 -0.0797  0.3250 -0.1388
  128SOPE    HX13729   5.051   4.096   3.400 -0.6045  2.4763  2.3149
  128SOPE    HY13730   5.151   4.206   3.314 -1.8143  0.6011  0.2553
  128SOPE   O3113731   5.202   4.202   3.507  0.2607  0.4879 -0.1427
  128SOPE   C3113732   5.112   4.188   3.606 -0.2650 -0.0313  0.4925
  128SOPE   O3213733   5.002   4.131   3.608 -0.1094 -0.3019  0.0380
  128SOPE   C3213734   5.159   4.269   3.728  0.0062  0.6798  0.9224
  128SOPE   H2X13735   5.104   4.366   3.727 -0.0940  0.6214  0.1881
  128SOPE   H2Y13736   5.266   4.289   3.708 -0.7837  1.8895 -3.0931
  128SOPE   C2313737   5.365   3.640   3.663 -0.4742  0.3114 -0.4011
  128SOPE   H3R13738   5.418   3.698   3.741  2.0674 -1.4222 -0.7310
  128SOPE   H3S13739   5.442   3.615   3.587  1.8914  0.0394  1.9451
  128SOPE   C2413740   5.312   3.522   3.736  1.2161  0.0290 -0.2650
  128SOPE   H4R13741   5.225   3.562   3.792  1.6155 -1.4324  1.4894
  128SOPE   H4S13742   5.284   3.446   3.660 -2.7789  1.8251 -0.8574
  128SOPE   C2513743   5.408   3.465   3.842 -0.2210 -0.2131  0.1691
  128SOPE   H5R13744   5.489   3.408   3.793  1.6192  1.4408  1.1603
  128SOPE   H5S13745   5.461   3.544   3.900  0.6763  0.9210 -2.0496
  128SOPE   C2613746   5.333   3.373   3.941 -0.0391  0.4907  0.6045
  128SOPE   H6R13747   5.245   3.422   3.988 -0.4928 -2.7819  3.5161
  128SOPE   H6S13748   5.292   3.286   3.886 -0.8234  0.5462  1.0962
  128SOPE   C2713749   5.416   3.321   4.058  0.5145  1.0383  0.2261
  128SOPE   H7R13750   5.508   3.287   4.005  0.1218 -0.6680  0.5585
  128SOPE   H7S13751   5.448   3.397   4.133 -0.4538  0.6180  1.0855
  128SOPE   C2813752   5.357   3.187   4.121 -0.6325  0.7779  0.7202
  128SOPE   H8R13753   5.341   3.108   4.045  0.0954 -1.5558  2.8724
  128SOPE   H8S13754   5.436   3.157   4.193 -0.4577  3.3365  1.7062
  128SOPE   C2913755   5.223   3.216   4.187  0.0975  0.7275 -0.8170
  128SOPE   H9113756   5.165   3.289   4.129  0.3339  1.1761 -0.4955
  128SOPE  C21013757   5.180   3.186   4.310  0.0398 -0.1739 -0.0909
  128SOPE  H10113758   5.077   3.220   4.328 -0.5437 -0.6736 -2.2037
  128SOPE  C21113759   5.253   3.121   4.429  0.5104  0.9592  0.0471
  128SOPE  H11R13760   5.363   3.121   4.411  0.3829 -0.3190 -0.8821
  128SOPE  H11S13761   5.211   3.020   4.444  0.2169  0.8615 -1.2562
  128SOPE  C21213762   5.216   3.194   4.549  0.1811  0.6100  0.3943
  128SOPE  H12R13763   5.240   3.302   4.538  2.9440 -0.0761 -1.1265
  128SOPE  H12S13764   5.285   3.159   4.629 -1.9222 -0.6487  1.7493
  128SOPE  C21313765   5.085   3.153   4.606  0.1713 -0.0015  0.6379
  128SOPE  H13R13766   5.080   3.053   4.653 -0.3198  0.4907  1.6707
  128SOPE  H13S13767   5.020   3.149   4.516  1.9584  3.1715 -0.9714
  128SOPE  C21413768   5.022   3.252   4.706 -0.0748  0.4504  0.4266
  128SOPE  H14R13769   4.912   3.234   4.708 -0.2267  1.2907  0.0088
  128SOPE  H14S13770   5.043   3.353   4.667 -2.0249  0.6297 -0.3114
  128SOPE  C21513771   5.075   3.222   4.849  0.7391  0.4472 -0.4282
  128SOPE  H15R13772   5.183   3.247   4.840  0.4057  2.5859  0.7191
  128SOPE  H15S13773   5.051   3.116   4.870  1.2227  0.5338  0.5762
  128SOPE  C21613774   5.005   3.297   4.960 -0.0567 -0.3087  0.2475
  128SOPE  H16R13775   4.900   3.261   4.956  0.2656 -1.3854  1.1241
  128SOPE  H16S13776   5.002   3.405   4.934  0.3170 -0.6335 -1.2574
  128SOPE  C21713777   5.073   3.277   5.097  0.3236  0.4171 -0.2504
  128SOPE  H17R13778   5.088   3.172   5.130 -0.4089  0.1083 -0.8669
  128SOPE  H17S13779   5.001   3.327   5.165 -2.1036  0.3875 -2.6099
  128SOPE  C21813780   5.208   3.355   5.105 -0.3559  0.1135  0.3891
  128SOPE  H18R13781   5.200   3.462   5.079 -0.1103  0.0237 -0.0579
  128SOPE  H18S13782   5.284   3.301   5.044  0.3807  1.6577 -0.1079
  128SOPE  H18T13783   5.240   3.371   5.210 -1.6396  4.0318  0.3323
  128SOPE   C3313784   5.135   4.201   3.861  0.2102 -0.3930  0.0310
  128SOPE   H3X13785   5.028   4.170   3.861  0.1989 -0.4163 -1.2731
  128SOPE   H3Y13786   5.152   4.272   3.944  0.2699 -0.3685 -0.0018
  128SOPE   C3413787   5.246   4.089   3.881 -0.0194 -0.0005 -0.3798
  128SOPE   H4X13788   5.337   4.148   3.906  0.2997 -0.3678 -0.6615
  128SOPE   H4Y13789   5.262   4.035   3.786  0.1248  1.9482 -1.5225
  128SOPE   C3513790   5.214   3.991   3.992  0.1362  0.2040 -0.8381
  128SOPE   H5X13791   5.115   3.945   3.971 -0.2899  0.1996  1.0261
  128SOPE   H5Y13792   5.209   4.034   4.094  0.5661 -3.1494  0.7202
  128SOPE   C3613793   5.315   3.864   4.005  0.6913 -0.4219  0.0982
  128SOPE   H6X13794   5.422   3.895   4.003  0.2243  1.3005 -0.9742
  128SOPE   H6Y13795   5.302   3.792   3.921  0.1394 -1.0359  0.6982
  128SOPE   C3713796   5.279   3.781   4.132 -0.2364 -0.3271  0.4816
  128SOPE   H7X13797   5.299   3.845   4.220  1.5215  2.0400 -1.5263
  128SOPE   H7Y13798   5.348   3.695   4.149  0.6462  0.5908  1.7613
  128SOPE   C3813799   5.132   3.737   4.140  0.9294  0.2914  0.4451
  128SOPE   H8X13800   5.081   3.732   4.041  0.1739  1.4010  0.7531
  128SOPE   H8Y13801   5.074   3.812   4.199 -0.9819 -1.7057  1.2762
  128SOPE   C3913802   5.119   3.594   4.199  0.0474  0.5794  0.3881
  128SOPE   H9X13803   5.189   3.521   4.153 -0.1367  0.0743  0.8984
  128SOPE   H9Y13804   5.015   3.559   4.181  0.2524 -1.5371  2.7926
  128SOPE  C31013805   5.159   3.581   4.343 -0.7909  0.5081  0.2762
  128SOPE  H10X13806   5.269   3.592   4.349 -0.8807  0.5956  2.6990
  128SOPE  H10Y13807   5.135   3.480   4.382  1.7967 -0.0030  0.7544
  128SOPE  C31113808   5.088   3.688   4.424 -0.0659 -0.4092  0.2828
  128SOPE  H11X13809   4.988   3.715   4.383  0.0905 -0.5443 -0.1992
  128SOPE  H11Y13810   5.140   3.785   4.410 -2.3300  0.7082 -0.9945
  128SOPE  C31213811   5.066   3.647   4.568 -0.4740 -0.0451  0.4216
  128SOPE  H12X13812   5.166   3.623   4.612  0.7026 -0.6018 -2.3548
  128SOPE  H12Y13813   5.000   3.558   4.565 -1.4730  0.6552  1.1633
  128SOPE  C31313814   5.002   3.761   4.642  0.6694  0.1346  0.9260
  128SOPE  H13X13815   4.900   3.789   4.605  0.2451 -3.2443 -0.8488
  128SOPE  H13Y13816   5.055   3.858   4.632 -0.3590  0.8053  1.7810
  128SOPE  C31413817   4.989   3.742   4.789 -0.0463  0.6195  0.4645
  128SOPE  H14X13818   5.076   3.706   4.848 -0.3559  1.2149  1.2993
  128SOPE  H14Y13819   4.912   3.665   4.812  0.4694  1.0934  4.4594
  128SOPE  C31513820   4.934   3.868   4.864  0.2447  0.7090  0.0776
  128SOPE  H15X13821   4.842   3.916   4.824 -0.1689 -0.0917  0.0523
  128SOPE  H15Y13822   5.012   3.945   4.848 -0.0303  0.9669 -0.0405
  128SOPE  C31613823   4.913   3.827   5.009 -0.2945  0.2587 -0.9037
  128SOPE  H16X13824   5.008   3.784   5.047 -0.3060  1.5110  0.6484
  128SOPE  H16Y13825   4.834   3.749   4.998  0.1482 -0.3878  0.3405
  128SOPE  C31713826   4.876   3.949   5.094 -0.0993 -0.6530  0.1793
  128SOPE  H17X13827   4.779   3.993   5.061 -0.3609  0.4476  2.3049
  128SOPE  H17Y13828   4.948   4.033   5.089  0.5711 -1.2779 -1.0696
  128SOPE  C31813829   4.875   3.917   5.241  1.0585 -0.2052 -0.1330
  128SOPE  H18X13830   4.859   3.807   5.251  1.2370 -0.4822 -2.4219
  128SOPE  H18Y13831   4.800   3.981   5.292  0.3137  1.0142 -2.5990
  128SOPE  H18Z13832   4.978   3.933   5.281  0.6262  0.5646  0.7012
  129OSM      N13833   3.124   5.276   7.455  0.7953  0.1895  0.2443
  129OSM    C1513834   3.107   5.219   7.591  0.2988 -0.1761 -0.3763
  129OSM   H15A13835   3.202   5.220   7.642 -0.2072 -1.1989  0.6256
  129OSM   H15B13836   3.064   5.120   7.588 -0.7553  0.0835  2.6854
  129OSM   H15C13837   3.048   5.290   7.647  0.9936 -1.3391  1.9545
  129OSM    C1413838   2.992   5.267   7.385 -0.7610 -0.3372  0.7967
  129OSM   H14A13839   2.907   5.303   7.442 -2.0543  0.0728 -1.2727
  129OSM   H14B13840   2.958   5.171   7.350 -1.2571  0.1853 -0.1923
  129OSM   H14C13841   2.997   5.329   7.296  1.4098  0.6027  1.5086
  129OSM    C1313842   3.159   5.420   7.460 -0.4213 -0.4072  0.0129
  129OSM   H13A13843   3.252   5.438   7.513  0.7422 -1.4233 -1.6015
  129OSM   H13B13844   3.085   5.476   7.515  0.3617  0.6234  0.0446
  129OSM   H13C13845   3.176   5.466   7.364 -1.6668 -0.3252 -0.1820
  129OSM    C1213846   3.234   5.193   7.389  1.1188  0.6129  0.5381
  129OSM   H12A13847   3.247   5.216   7.284 -0.0023  0.6135  0.3796
  129OSM   H12B13848   3.198   5.091   7.381  1.3493  0.6566 -1.9944
  129OSM    C1113849   3.374   5.189   7.454  0.6920  0.5509 -0.2592
  129OSM   H11A13850   3.413   5.292   7.474 -1.3584  0.9732  2.1624
  129OSM   H11B13851   3.453   5.142   7.391  0.3144  0.0619 -0.3696
  129OSM      P13852   3.443   5.005   7.640  0.0103  0.2058  0.1185
  129OSM    O1313853   3.569   5.036   7.705  0.1197  0.3068 -0.9866
  129OSM    O1413854   3.349   4.936   7.730  0.1201 -0.2776 -0.2414
  129OSM    O1113855   3.476   4.919   7.511  0.5051  0.2820 -0.1673
  129OSM    O1213856   3.367   5.128   7.588 -0.6112 -0.4325  0.0925
  129OSM    C1S13857   3.373   4.848   7.437  0.0673 -0.4612 -0.2561
  129OSM    H1S13858   3.274   4.895   7.458  0.4517  0.1761  0.1325
  129OSM    H1T13859   3.370   4.743   7.474  0.3639  0.1323  1.5099
  129OSM     NF13860   3.295   4.798   7.201  0.0656  0.2776  0.2777
  129OSM    HNF13861   3.307   4.708   7.159 -0.0779  0.1391  0.5315
  129OSM    C2S13862   3.407   4.840   7.281 -0.2479 -0.1513 -0.7213
  129OSM    H2S13863   3.412   4.948   7.253  0.6160  0.7676  2.5245
  129OSM    C3S13864   3.545   4.771   7.249 -0.1718 -0.2240  0.4020
  129OSM    H3S13865   3.531   4.661   7.247  1.5732 -0.4761  0.6075
  129OSM     O313866   3.642   4.788   7.348 -0.1425  0.1082 -0.6231
  129OSM    HO313867   3.608   4.848   7.414  1.8779 -1.6077  2.2139
  129OSM    C4S13868   3.603   4.814   7.113 -0.4559 -0.1280 -0.1346
  129OSM    H4S13869   3.674   4.898   7.117  0.1878 -0.7114  0.9728
  129OSM    C5S13870   3.585   4.747   6.997  0.3063 -0.2491  0.0724
  129OSM    H5S13871   3.515   4.663   6.998 -0.7873  0.6421  0.9532
  129OSM    C6S13872   3.654   4.775   6.864  0.1946 -0.3694 -0.2406
  129OSM    H6S13873   3.746   4.715   6.851  2.5173  2.8031  0.2965
  129OSM    H6T13874   3.696   4.877   6.850 -0.2349 -0.3971 -1.9859
  129OSM    C7S13875   3.552   4.732   6.756  0.2983  0.0138  0.2892
  129OSM    H7S13876   3.492   4.824   6.742  0.3463 -0.1323 -0.9499
  129OSM    H7T13877   3.476   4.655   6.783  0.7087 -0.5647 -0.1852
  129OSM    C8S13878   3.607   4.711   6.607 -0.4413 -0.4070 -0.0376
  129OSM    H8S13879   3.665   4.617   6.613  0.3222  0.0077 -0.5616
  129OSM    H8T13880   3.681   4.792   6.588 -0.6892 -0.3728 -0.9432
  129OSM    C9S13881   3.502   4.705   6.504  1.1024 -0.2949 -0.3934
  129OSM    H9S13882   3.413   4.765   6.531  1.6652 -0.1436  1.2190
  129OSM    H9T13883   3.463   4.601   6.499 -1.0046  0.4736 -1.4915
  129OSM   C10S13884   3.555   4.736   6.361  0.4959  0.2722 -0.4698
  129OSM   H10S13885   3.645   4.671   6.346  0.9954  1.1107 -1.2334
  129OSM   H10T13886   3.592   4.840   6.368  0.4594  0.1973  1.0601
  129OSM   C11S13887   3.446   4.718   6.255  0.0991  0.1532 -0.1011
  129OSM   H11S13888   3.380   4.807   6.267 -0.8589 -0.7798  2.0188
  129OSM   H11T13889   3.399   4.619   6.271  1.9187 -0.8667 -0.7568
  129OSM   C12S13890   3.490   4.712   6.108 -0.1830 -0.1072  0.1951
  129OSM   H12S13891   3.401   4.697   6.043 -0.7915  1.2685  0.6780
  129OSM   H12T13892   3.562   4.628   6.099  0.8847  1.0204 -3.9905
  129OSM   C13S13893   3.578   4.831   6.060  0.1902  0.2222  0.5818
  129OSM   H13S13894   3.654   4.843   6.141 -1.2239  0.1664  1.9754
  129OSM   H13T13895   3.514   4.920   6.044 -0.0429 -0.3591 -2.0906
  129OSM   C14S13896   3.627   4.789   5.918 -0.0525  0.6579  0.0061
  129OSM   H14S13897   3.537   4.793   5.852 -0.0399  1.2910  0.0214
  129OSM   H14T13898   3.654   4.681   5.917 -2.2056  0.0330  1.2903
  129OSM   C15S13899   3.751   4.867   5.861  0.5210 -0.6839 -0.0763
  129OSM   H15S13900   3.836   4.875   5.933  1.2376  1.4431 -1.0679
  129OSM   H15T13901   3.714   4.970   5.839  0.0779 -0.9333 -0.5166
  129OSM   C16S13902   3.802   4.805   5.726  0.2711  0.2287 -0.2789
  129OSM   H16S13903   3.717   4.787   5.657  0.2406 -0.7424  0.0048
  129OSM   H16T13904   3.853   4.710   5.753 -0.4294 -0.7769 -2.3020
  129OSM   C17S13905   3.917   4.876   5.653  0.4420 -0.0531  0.3336
  129OSM   H17S13906   4.003   4.882   5.723 -0.3226 -3.7385  1.8567
  129OSM   H17T13907   3.886   4.979   5.626 -1.5201 -0.3706  1.2122
  129OSM   C18S13908   3.956   4.801   5.525  0.8373  0.2611 -0.0120
  129OSM   H18S13909   3.867   4.773   5.463 -0.1690 -0.1742  1.5693
  129OSM   H18T13910   4.004   4.706   5.556  0.1037  0.1525  0.8376
  129OSM   H18U13911   4.027   4.863   5.466  2.1289 -0.7008  0.4879
  129OSM    C1F13912   3.172   4.845   7.204 -0.6437  0.7913  0.7750
  129OSM     OF13913   3.146   4.945   7.269  1.0460 -0.5329  0.5599
  129OSM    C2F13914   3.071   4.775   7.117  0.1041  0.2368 -0.5282
  129OSM    H2F13915   3.001   4.721   7.185  1.1352  2.2242  2.3078
  129OSM    H2G13916   3.131   4.711   7.048 -0.0898 -0.8515  0.2780
  129OSM    C3F13917   2.989   4.880   7.043 -0.8726 -0.6123  0.1258
  129OSM    H3F13918   3.055   4.949   6.987 -0.5022 -0.7601  0.3778
  129OSM    H3G13919   2.944   4.942   7.124  0.5600 -0.5152  0.8791
  129OSM    C4F13920   2.867   4.818   6.968  0.3373 -0.2943  0.1044
  129OSM    H4F13921   2.780   4.886   6.979 -1.2334 -1.8372 -1.9836
  129OSM    H4G13922   2.825   4.721   7.004  2.4236 -1.0226  0.7084
  129OSM    C5F13923   2.899   4.793   6.821 -0.2013 -0.3893 -0.1597
  129OSM    H5F13924   2.994   4.736   6.816  0.0828  0.0227  0.3323
  129OSM    H5G13925   2.911   4.891   6.770  2.8266 -1.8385 -2.5013
  129OSM    C6F13926   2.791   4.716   6.749 -0.5306 -0.0928  0.0554
  129OSM    H6F13927   2.696   4.766   6.779 -0.0235  0.7886  0.2182
  129OSM    H6G13928   2.782   4.615   6.793  0.1042 -0.0306  0.3377
  129OSM    C7F13929   2.811   4.722   6.608 -0.2197 -0.1764  0.0196
  129OSM    H7F13930   2.920   4.710   6.588 -0.4073 -0.7718 -0.6696
  129OSM    H7G13931   2.776   4.815   6.558  0.4683 -1.2224 -2.5826
  129OSM    C8F13932   2.747   4.614   6.524  0.7905 -1.0312  0.0954
  129OSM    H8F13933   2.767   4.517   6.574 -0.9767 -1.8554 -0.6886
  129OSM    H8G13934   2.790   4.614   6.422  2.2798 -0.9323  0.7071
  129OSM    C9F13935   2.596   4.629   6.527  0.2686  0.0318 -0.3918
  129OSM    H9F13936   2.541   4.567   6.599 -2.0236  0.7593 -1.4515
  129OSM   C10F13937   2.519   4.714   6.454 -0.3161 -1.0609  0.0712
  129OSM   H10F13938   2.413   4.713   6.483 -0.0061  2.9367  1.9466
  129OSM   C11F13939   2.568   4.807   6.343 -0.1647  0.4789  0.2020
  129OSM   H11F13940   2.678   4.815   6.357 -0.0362 -2.3457  1.4259
  129OSM   H11G13941   2.524   4.909   6.341 -2.1210 -0.3266 -1.1805
  129OSM   C12F13942   2.556   4.761   6.197 -0.3536 -0.6265 -0.0509
  129OSM   H12F13943   2.448   4.744   6.175 -0.0474 -3.7263  0.3505
  129OSM   H12G13944   2.596   4.657   6.193  2.0563  0.2265  0.4785
  129OSM   C13F13945   2.615   4.846   6.083  0.0229  0.3399 -0.6286
  129OSM   H13F13946   2.719   4.877   6.109 -0.0712  1.1488 -1.2177
  129OSM   H13G13947   2.573   4.947   6.069  0.2660  0.4420 -0.6348
  129OSM   C14F13948   2.600   4.772   5.946  0.0207  0.2500 -0.1942
  129OSM   H14F13949   2.591   4.850   5.868 -0.0564  2.8227  2.2215
  129OSM   H14G13950   2.504   4.716   5.950 -1.1889  2.1767 -1.1276
  129OSM   C15F13951   2.715   4.678   5.909  0.2892 -0.0727 -0.0735
  129OSM   H15F13952   2.725   4.590   5.976 -1.2771  0.3251  0.7455
  129OSM   H15G13953   2.809   4.732   5.930 -0.1518  0.8719 -0.4925
  129OSM   C16F13954   2.710   4.629   5.765 -0.4297  0.0010  0.3680
  129OSM   H16F13955   2.671   4.707   5.695 -0.3733 -0.4132 -0.1289
  129OSM   H16G13956   2.630   4.552   5.753 -0.0511 -0.3095 -0.2279
  129OSM   C17F13957   2.843   4.597   5.708 -0.1104 -0.5568  0.3389
  129OSM   H17F13958   2.879   4.517   5.777 -0.8870 -0.8051  0.4592
  129OSM   H17G13959   2.904   4.689   5.724 -1.8623  0.4993  1.2309
  129OSM   C18F13960   2.845   4.546   5.561  0.7599 -0.3253 -0.1669
  129OSM   H18F13961   2.780   4.608   5.496 -1.6621 -0.8144  1.6379
  129OSM   H18G13962   2.808   4.442   5.548 -0.9738  0.5406 -2.9917
  129OSM   H18H13963   2.947   4.550   5.518  0.0993  2.1605 -1.7194
  130OSM      N13964   4.978   5.384   7.152  0.2862 -0.1849  0.4891
  130OSM    C1513965   5.110   5.374   7.082  0.1386 -0.1220 -0.1560
  130OSM   H15A13966   5.191   5.331   7.138 -0.9922  0.2600  1.8498
  130OSM   H15B13967   5.151   5.470   7.053  2.0895  0.2685  3.3970
  130OSM   H15C13968   5.096   5.315   6.992  0.0018 -0.5140  0.1187
  130OSM    C1413969   4.878   5.450   7.061  0.3701 -0.0457  0.2111
  130OSM   H14A13970   4.909   5.549   7.033 -0.2491  0.1495  0.1894
  130OSM   H14B13971   4.788   5.473   7.117  1.1824  2.3796  0.6131
  130OSM   H14C13972   4.856   5.394   6.971 -0.9920  3.0689 -1.5794
  130OSM    C1313973   4.931   5.244   7.175 -0.1359  0.5250 -0.4130
  130OSM   H13A13974   4.835   5.240   7.223  0.8202  0.1038  1.5580
  130OSM   H13B13975   4.994   5.185   7.240  0.8340  1.3031 -0.6324
  130OSM   H13C13976   4.924   5.187   7.083 -0.7390  1.1661 -0.7704
  130OSM    C1213977   4.997   5.441   7.288 -0.3604  0.0165 -0.1722
  130OSM   H12A13978   5.053   5.533   7.279  1.1932 -0.7788  0.9178
  130OSM   H12B13979   5.062   5.370   7.337 -0.4598 -0.0671 -0.1602
  130OSM    C1113980   4.873   5.475   7.363 -0.5278  0.0107 -0.0496
  130OSM   H11A13981   4.886   5.476   7.473  0.3368  0.8044 -0.1448
  130OSM   H11B13982   4.797   5.395   7.352 -1.5958  0.8309  1.2094
  130OSM      P13983   4.864   5.734   7.377 -0.1266 -0.2075  0.0628
  130OSM    O1313984   4.810   5.753   7.513 -0.0133 -0.3612 -0.3035
  130OSM    O1413985   5.011   5.738   7.360  0.1212  0.0683 -0.3313
  130OSM    O1113986   4.802   5.838   7.273 -0.4312 -0.3278 -0.3347
  130OSM    O1213987   4.812   5.592   7.317  0.1865  0.4992 -0.1428
  130OSM    C1S13988   4.828   5.831   7.135 -0.5027 -0.0725 -0.0079
  130OSM    H1S13989   4.915   5.765   7.113 -0.2389 -0.6016  2.3583
  130OSM    H1T13990   4.874   5.928   7.107  0.3384  0.4706  2.9529
  130OSM     NF13991   4.750   5.835   6.898 -0.2212  0.6577 -0.0237
  130OSM    HNF13992   4.727   5.924   6.860  0.9148  1.0892  0.2459
  130OSM    C2S13993   4.708   5.821   7.038  0.0717 -0.1235  0.7816
  130OSM    H2S13994   4.670   5.718   7.057 -0.7168 -1.3332 -5.2985
  130OSM    C3S13995   4.604   5.918   7.074 -0.7098  0.2782  0.1393
  130OSM    H3S13996   4.638   6.021   7.056 -1.2741  0.8933  2.2506
  130OSM     O313997   4.545   5.904   7.203  0.3663  0.3552 -0.8224
  130OSM    HO313998   4.601   5.850   7.259  0.1093  1.0662  0.1459
  130OSM    C4S13999   4.482   5.890   6.987 -0.2828 -0.0228 -1.0295
  130OSM    H4S14000   4.443   5.787   6.982  0.7895 -0.4609 -0.7274
  130OSM    C5S14001   4.422   5.985   6.917  0.6396  0.5759 -0.4794
  130OSM    H5S14002   4.467   6.086   6.916  0.8964  0.5235  1.4979
  130OSM    C6S14003   4.296   5.964   6.837 -0.0611 -0.4757  0.4285
  130OSM    H6S14004   4.231   6.052   6.860 -0.3195  1.0922 -4.9073
  130OSM    H6T14005   4.244   5.870   6.867 -0.8045 -0.6266 -1.2194
  130OSM    C7S14006   4.321   5.961   6.682 -0.8365  0.2095 -0.4111
  130OSM    H7S14007   4.373   6.055   6.655  0.5992 -0.6450 -0.7748
  130OSM    H7T14008   4.229   5.961   6.620 -0.4167  0.8184 -1.0399
  130OSM    C8S14009   4.416   5.845   6.640  0.2374  0.3668 -0.0120
  130OSM    H8S14010   4.349   5.757   6.647  0.9238 -0.1710 -0.0721
  130OSM    H8T14011   4.513   5.831   6.693  0.6417  0.3068 -0.7523
  130OSM    C9S14012   4.463   5.845   6.495 -0.2638  0.0090  0.6591
  130OSM    H9S14013   4.389   5.830   6.414 -0.1938  4.1694 -0.4225
  130OSM    H9T14014   4.531   5.758   6.481 -1.4694 -0.6649 -1.4079
  130OSM   C10S14015   4.548   5.972   6.474 -0.3517 -0.7925  0.8021
  130OSM   H10S14016   4.620   5.996   6.555 -0.0315 -0.6780  0.4914
  130OSM   H10T14017   4.476   6.056   6.461  2.3272  1.3551 -1.8398
  130OSM   C11S14018   4.628   5.964   6.340 -0.7627  0.1177  0.2434
  130OSM   H11S14019   4.557   5.987   6.258 -1.8550  2.1143  1.6283
  130OSM   H11T14020   4.669   5.864   6.317 -1.5290  0.0509 -0.8906
  130OSM   C12S14021   4.743   6.066   6.334  0.6984 -0.0189  0.1605
  130OSM   H12S14022   4.810   6.064   6.422  0.2023 -1.7325  0.5404
  130OSM   H12T14023   4.688   6.161   6.352 -0.6757 -0.6882 -0.3551
  130OSM   C13S14024   4.807   6.060   6.201 -0.0729 -0.7662  0.3554
  130OSM   H13S14025   4.726   6.070   6.127 -1.8509 -0.7230  2.2034
  130OSM   H13T14026   4.865   5.965   6.199 -0.0915 -0.8347  1.8767
  130OSM   C14S14027   4.916   6.168   6.183  1.0312 -0.4819 -0.1168
  130OSM   H14S14028   4.990   6.155   6.265  0.7862  0.2419  0.2265
  130OSM   H14T14029   4.869   6.268   6.194 -3.5789 -2.4168  0.1994
  130OSM   C15S14030   4.975   6.150   6.036 -0.0701  0.2556 -0.7788
  130OSM   H15S14031   4.893   6.144   5.962 -1.4326  2.7887  0.3759
  130OSM   H15T14032   5.034   6.056   6.036 -0.6425 -0.1500  1.0366
  130OSM   C16S14033   5.073   6.265   5.996  0.7161  0.2005 -0.4656
  130OSM   H16S14034   5.167   6.221   5.957  1.8349  1.5157  0.6673
  130OSM   H16T14035   5.087   6.329   6.085  2.2575 -1.9484  0.9301
  130OSM   C17S14036   5.000   6.372   5.903 -0.0664  0.4067 -0.4911
  130OSM   H17S14037   4.892   6.388   5.927 -0.1104 -0.1297 -0.3147
  130OSM   H17T14038   5.003   6.352   5.793  0.1879  4.0463 -1.2551
  130OSM   C18S14039   5.063   6.511   5.906 -0.1778  0.2401  0.2589
  130OSM   H18S14040   5.075   6.535   6.014  0.4309  1.2334 -0.0164
  130OSM   H18T14041   4.994   6.591   5.870 -0.3538  0.5468  1.2374
  130OSM   H18U14042   5.158   6.504   5.849 -1.6034 -2.8467 -1.9812
  130OSM    C1F14043   4.815   5.744   6.822  0.4844  0.3429 -0.0912
  130OSM     OF14044   4.882   5.652   6.868  0.2085  0.7327  1.0066
  130OSM    C2F14045   4.811   5.764   6.672 -0.2925  0.5576  0.9119
  130OSM    H2F14046   4.884   5.843   6.646  0.5383  0.0746  1.7183
  130OSM    H2G14047   4.711   5.795   6.633 -0.4416 -1.9268 -0.9780
  130OSM    C3F14048   4.842   5.632   6.597 -0.0348  0.2020  0.2688
  130OSM    H3F14049   4.806   5.542   6.651 -0.4636 -1.1032 -2.0899
  130OSM    H3G14050   4.953   5.624   6.601  0.0123  0.9173  0.6515
  130OSM    C4F14051   4.809   5.621   6.447  1.1745 -0.3009  0.5025
  130OSM    H4F14052   4.849   5.712   6.399 -1.0103 -0.2365 -1.4034
  130OSM    H4G14053   4.701   5.630   6.423  1.2305  1.8158  0.9072
  130OSM    C5F14054   4.880   5.500   6.379  0.0463 -0.3497 -0.4902
  130OSM    H5F14055   4.848   5.410   6.435  0.2708 -0.2078 -0.1357
  130OSM    H5G14056   4.987   5.528   6.394  0.5440 -2.4728  0.2105
  130OSM    C6F14057   4.848   5.486   6.230 -0.0013  0.1217 -0.0392
  130OSM    H6F14058   4.865   5.582   6.176 -3.9583  1.2657  0.3734
  130OSM    H6G14059   4.737   5.474   6.229 -0.3964  3.0777 -0.1047
  130OSM    C7F14060   4.930   5.373   6.157  0.1714 -0.4558 -0.1365
  130OSM    H7F14061   4.900   5.272   6.191 -1.1533  0.1055  0.4157
  130OSM    H7G14062   5.036   5.387   6.187 -0.2594 -1.1949  1.9098
  130OSM    C8F14063   4.905   5.378   5.999 -0.3707 -0.4443  0.3118
  130OSM    H8F14064   4.993   5.335   5.947 -0.7858  1.4396 -2.1329
  130OSM    H8G14065   4.900   5.484   5.969 -2.4054 -0.3175  0.9419
  130OSM    C9F14066   4.785   5.294   5.967 -0.5289  0.4392 -0.0002
  130OSM    H9F14067   4.699   5.330   6.025 -0.7028 -1.4503  0.9792
  130OSM   C10F14068   4.769   5.208   5.873 -0.1296  0.3877 -0.9632
  130OSM   H10F14069   4.671   5.161   5.882 -1.2035  2.3278 -1.8710
  130OSM   C11F14070   4.860   5.145   5.775 -0.1518 -0.5787  0.0585
  130OSM   H11F14071   4.850   5.034   5.776 -3.3069 -0.5935 -4.4166
  130OSM   H11G14072   4.969   5.158   5.794  0.4373 -2.8172 -1.3805
  130OSM   C12F14073   4.829   5.192   5.626  0.1374  0.1090  1.0037
  130OSM   H12F14074   4.721   5.181   5.605  0.3121  0.1023  0.0748
  130OSM   H12G14075   4.882   5.125   5.555 -0.8003 -1.9620  2.1887
  130OSM   C13F14076   4.874   5.337   5.588 -0.0147 -0.1875 -0.6246
  130OSM   H13F14077   4.981   5.342   5.616  0.2433  1.9706 -1.8400
  130OSM   H13G14078   4.821   5.420   5.641 -0.0969  0.2638 -1.4100
  130OSM   C14F14079   4.887   5.362   5.437  0.9721 -0.2065  0.0986
  130OSM   H14F14080   4.876   5.471   5.417  0.3109 -0.8364 -3.6059
  130OSM   H14G14081   4.795   5.331   5.384  0.4123 -0.1849  1.0345
  130OSM   C15F14082   5.015   5.302   5.369  0.5934 -0.3412  0.6566
  130OSM   H15F14083   5.035   5.201   5.410 -0.5170 -0.2279  1.5291
  130OSM   H15G14084   5.104   5.363   5.391 -0.8022  1.4958  1.4935
  130OSM   C16F14085   4.986   5.271   5.216 -0.5359 -0.3817 -0.6492
  130OSM   H16F14086   4.952   5.363   5.164  3.0614  1.2633 -0.3696
  130OSM   H16G14087   4.897   5.204   5.215 -1.8935  1.2885  1.0162
  130OSM   C17F14088   5.097   5.204   5.136 -0.6724 -0.1764  0.4608
  130OSM   H17F14089   5.130   5.108   5.182  1.5445  0.1420 -0.3441
  130OSM   H17G14090   5.193   5.259   5.144 -0.7812  0.0245  0.3855
  130OSM   C18F14091   5.081   5.189   4.983  0.7466 -0.0040 -0.3680
  130OSM   H18F14092   5.005   5.113   4.954  1.0774 -1.4930  2.3974
  130OSM   H18G14093   5.173   5.159   4.929  1.0973 -1.3626  0.9130
  130OSM   H18H14094   5.072   5.298   4.965  1.7857  0.5861  2.3029
  131OSM      N14095   4.609   0.297   7.739  0.4722  0.3658  0.5555
  131OSM    C1514096   4.595   0.151   7.763 -0.3373  0.3697 -0.1013
  131OSM   H15A14097   4.495   0.119   7.739  0.1080  0.1791 -1.7583
  131OSM   H15B14098   4.599   0.125   7.868  0.0473  0.0237 -0.1997
  131OSM   H15C14099   4.664   0.092   7.704 -0.4027 -2.7489  2.6277
  131OSM    C1414100   4.499   0.370   7.811  0.3039  0.0516 -0.2377
  131OSM   H14A14101   4.460   0.456   7.758 -0.5102  1.3620  2.3324
  131OSM   H14B14102   4.539   0.418   7.898  2.6232  0.1310 -1.2617
  131OSM   H14C14103   4.416   0.303   7.828 -0.3160  1.2964  2.0416
  131OSM    C1314104   4.743   0.347   7.785 -0.4634  0.0642  0.0594
  131OSM   H13A14105   4.759   0.336   7.891 -0.2956  0.4026  0.0689
  131OSM   H13B14106   4.766   0.446   7.751  0.8662 -0.0054  0.6884
  131OSM   H13C14107   4.828   0.293   7.746 -0.5017  0.4966 -0.6402
  131OSM    C1214108   4.579   0.314   7.586 -0.7320  0.3790 -0.0391
  131OSM   H12A14109   4.585   0.421   7.572  0.8098  0.4880  1.1747
  131OSM   H12B14110   4.477   0.289   7.561 -1.5451  3.0358  0.2942
  131OSM    C1114111   4.683   0.260   7.489 -0.1344 -0.3218  0.3705
  131OSM   H11A14112   4.648   0.279   7.385 -0.0980 -0.1821  0.3833
  131OSM   H11B14113   4.695   0.150   7.494 -1.7986 -0.5937 -0.7819
  131OSM      P14114   4.866   0.447   7.441 -0.0658  0.1503  0.2529
  131OSM    O1314115   4.776   0.556   7.479 -0.7378 -0.1331 -0.1678
  131OSM    O1414116   5.011   0.463   7.460 -0.7227  0.2770  0.1384
  131OSM    O1114117   4.836   0.417   7.287  0.0260  0.4380 -0.2279
  131OSM    O1214118   4.818   0.313   7.507 -0.2361 -0.2081 -0.2501
  131OSM    C1S14119   4.937   0.385   7.193 -0.2161  0.7661 -0.3041
  131OSM    H1S14120   5.012   0.323   7.246 -0.9689 -1.7451 -1.9822
  131OSM    H1T14121   4.983   0.472   7.140  1.7620 -0.2667 -0.3761
  131OSM     NF14122   4.990   0.265   7.001 -0.2142 -0.1805 -0.5054
  131OSM    HNF14123   5.028   0.332   6.937 -1.0788  0.6218 -0.2075
  131OSM    C2S14124   4.877   0.310   7.072  0.2286  0.0203  0.2365
  131OSM    H2S14125   4.818   0.222   7.106 -0.3316 -0.0247 -0.8075
  131OSM    C3S14126   4.779   0.415   6.995  0.5036 -0.1098 -0.3143
  131OSM    H3S14127   4.829   0.513   6.988  2.2142 -0.9801 -0.6068
  131OSM     O314128   4.657   0.432   7.066 -0.1515  0.1195 -0.1000
  131OSM    HO314129   4.683   0.410   7.156  0.1888  0.3042 -0.1512
  131OSM    C4S14130   4.737   0.362   6.857 -0.5225 -0.4319 -0.1614
  131OSM    H4S14131   4.710   0.256   6.848 -0.4847 -0.3732 -1.0033
  131OSM    C5S14132   4.722   0.446   6.755  0.0170 -0.6422 -0.6447
  131OSM    H5S14133   4.738   0.555   6.759  0.4509 -0.6466 -1.7812
  131OSM    C6S14134   4.690   0.393   6.616 -0.5035  0.4815  0.6210
  131OSM    H6S14135   4.582   0.380   6.597 -0.2344 -1.9342  0.4985
  131OSM    H6T14136   4.738   0.294   6.599 -1.4445  0.1568 -0.2045
  131OSM    C7S14137   4.749   0.501   6.520  0.3617  0.4065  0.6158
  131OSM    H7S14138   4.858   0.510   6.537  0.5892 -1.5906  0.4383
  131OSM    H7T14139   4.702   0.601   6.522  0.1883  0.3780 -0.9293
  131OSM    C8S14140   4.728   0.449   6.370  1.1404 -0.2144 -0.2933
  131OSM    H8S14141   4.621   0.468   6.348  0.5688 -0.3699  2.1092
  131OSM    H8T14142   4.726   0.338   6.369 -2.3981 -0.2908 -2.1292
  131OSM    C9S14143   4.812   0.509   6.257  0.3833  0.6532 -0.3050
  131OSM    H9S14144   4.920   0.487   6.273  0.4001 -1.0005 -2.2742
  131OSM    H9T14145   4.803   0.619   6.265  0.6279  0.6465  0.0860
  131OSM   C10S14146   4.780   0.449   6.114 -0.2017 -0.8573 -0.9756
  131OSM   H10S14147   4.842   0.499   6.037  2.4657 -0.6693  1.1465
  131OSM   H10T14148   4.672   0.467   6.093  0.0061  2.3795  0.2001
  131OSM   C11S14149   4.809   0.299   6.104  0.4491  0.1648 -0.6736
  131OSM   H11S14150   4.729   0.248   6.162  0.0477  0.9157 -0.5560
  131OSM   H11T14151   4.908   0.268   6.143 -0.0079 -0.2646  0.1895
  131OSM   C12S14152   4.797   0.242   5.960  0.5054 -0.9069  0.0365
  131OSM   H12S14153   4.840   0.311   5.884  3.4319  0.5226  2.7729
  131OSM   H12T14154   4.690   0.244   5.931  0.7741 -1.0112 -0.9911
  131OSM   C13S14155   4.847   0.094   5.948 -0.1299 -1.0012 -0.0480
  131OSM   H13S14156   4.787   0.040   6.025 -3.5296  1.3406 -0.8665
  131OSM   H13T14157   4.955   0.083   5.971  0.2242 -0.9623 -1.6187
  131OSM   C14S14158   4.828   0.033   5.803  0.5402  0.7550 -1.0335
  131OSM   H14S14159   4.869  -0.070   5.814 -0.3869  0.6392  2.7013
  131OSM   H14T14160   4.896   0.087   5.734 -0.1828  1.2260 -1.3892
  131OSM   C15S14161   4.685   0.031   5.737  0.0184  0.2217  0.8105
  131OSM   H15S14162   4.678   0.126   5.679  0.7474 -1.7620 -2.7552
  131OSM   H15T14163   4.602   0.025   5.811 -2.2450 -1.7405 -1.6964
  131OSM   C16S14164   4.668  -0.076   5.623 -0.1252  0.3895 -0.1067
  131OSM   H16S14165   4.764  -0.076   5.567 -0.5564 -0.6965 -0.8962
  131OSM   H16T14166   4.589  -0.046   5.550  0.6148  3.1418  0.1219
  131OSM   C17S14167   4.641  -0.212   5.684 -0.0171  0.1236  0.2159
  131OSM   H17S14168   4.557  -0.194   5.754  0.1159 -0.3508  0.5033
  131OSM   H17T14169   4.733  -0.243   5.738  0.3304  0.1322 -0.3671
  131OSM   C18S14170   4.603  -0.318   5.585  0.0693  0.1302  0.2050
  131OSM   H18S14171   4.578  -0.417   5.629  1.9593 -1.0944 -1.3069
  131OSM   H18T14172   4.672  -0.327   5.498  0.4370 -0.4742  0.5517
  131OSM   H18U14173   4.503  -0.285   5.551 -1.1021 -1.9338  1.3966
  131OSM    C1F14174   5.068   0.162   7.032 -0.0050 -0.0920  0.1113
  131OSM     OF14175   5.049   0.100   7.131 -0.3295  0.0978  0.5168
  131OSM    C2F14176   5.178   0.131   6.929 -0.0019  0.1503  0.1301
  131OSM    H2F14177   5.238   0.224   6.918 -0.9168  0.5811 -1.5043
  131OSM    H2G14178   5.127   0.114   6.832 -0.1279 -1.7127  0.5019
  131OSM    C3F14179   5.271   0.015   6.955  0.6411  0.6666 -0.0189
  131OSM    H3F14180   5.198  -0.066   6.973  0.0827  1.6138  2.4730
  131OSM    H3G14181   5.330   0.032   7.048 -1.6013 -0.1600  1.6417
  131OSM    C4F14182   5.357  -0.009   6.829 -0.3187 -0.2795 -0.6339
  131OSM    H4F14183   5.295  -0.046   6.745 -0.0365 -0.2001 -0.8823
  131OSM    H4G14184   5.420  -0.097   6.855 -0.7246 -0.9606 -1.8716
  131OSM    C5F14185   5.432   0.118   6.779  0.4293  0.7359 -0.8786
  131OSM    H5F14186   5.472   0.149   6.878  1.8001 -1.6683 -0.6097
  131OSM    H5G14187   5.366   0.198   6.740 -0.2509  0.4187 -0.4097
  131OSM    C6F14188   5.540   0.093   6.674 -0.8253  0.3947 -0.1977
  131OSM    H6F14189   5.495   0.042   6.586  3.2198 -0.6568 -1.9228
  131OSM    H6G14190   5.602   0.019   6.730 -1.4684 -0.9060 -1.1603
  131OSM    C7F14191   5.614   0.214   6.628 -0.6422  0.4180 -0.1724
  131OSM    H7F14192   5.723   0.196   6.637 -0.5227  1.8119  1.9418
  131OSM    H7G14193   5.596   0.293   6.705 -0.3138 -0.0085  0.3529
  131OSM    C8F14194   5.570   0.262   6.484  0.4652 -0.5296 -0.2978
  131OSM    H8F14195   5.460   0.250   6.473  0.7111 -2.1190 -1.4897
  131OSM    H8G14196   5.611   0.204   6.399 -0.9441 -0.2438 -1.2098
  131OSM    C9F14197   5.606   0.407   6.468 -0.0767 -0.4338 -0.2116
  131OSM    H9F14198   5.604   0.469   6.558  3.3361  1.9004 -1.5123
  131OSM   C10F14199   5.677   0.459   6.359 -0.1966  0.7786 -0.4292
  131OSM   H10F14200   5.716   0.562   6.354 -0.2066  0.8215  0.3239
  131OSM   C11F14201   5.708   0.382   6.234  0.2918  0.0483  0.6159
  131OSM   H11F14202   5.628   0.310   6.205  0.7079  1.1147 -3.8553
  131OSM   H11G14203   5.805   0.328   6.238 -0.3429 -1.5056 -2.1441
  131OSM   C12F14204   5.703   0.467   6.110 -0.2252 -0.1258  1.0912
  131OSM   H12F14205   5.772   0.554   6.114 -1.0404  0.6008 -0.0008
  131OSM   H12G14206   5.599   0.506   6.100 -0.2974 -0.9730 -3.1265
  131OSM   C13F14207   5.734   0.398   5.974  0.3075 -0.4096  0.0077
  131OSM   H13F14208   5.834   0.353   5.993  0.0032 -1.3703 -0.6047
  131OSM   H13G14209   5.748   0.479   5.899 -1.9844 -0.2348 -0.3106
  131OSM   C14F14210   5.638   0.290   5.923  0.0276  0.1335 -0.3162
  131OSM   H14F14211   5.627   0.208   5.997 -0.8540 -0.1850 -0.7765
  131OSM   H14G14212   5.687   0.236   5.839  0.3374 -2.8774  1.6686
  131OSM   C15F14213   5.506   0.344   5.871 -0.0702  0.0038 -0.6351
  131OSM   H15F14214   5.478   0.285   5.781  0.2612 -0.5947 -0.3557
  131OSM   H15G14215   5.517   0.446   5.829 -1.3311 -0.9528 -3.5588
  131OSM   C16F14216   5.392   0.341   5.971  0.1461  0.6918  0.2601
  131OSM   H16F14217   5.416   0.412   6.052  0.2105  0.5568  0.3597
  131OSM   H16G14218   5.388   0.241   6.020 -1.0641  0.9316  0.6781
  131OSM   C17F14219   5.257   0.387   5.912  0.5520 -0.5733  0.1870
  131OSM   H17F14220   5.225   0.296   5.857  2.6639 -1.7191  0.7423
  131OSM   H17G14221   5.277   0.470   5.841  1.6269  0.2438  1.3886
  131OSM   C18F14222   5.157   0.447   6.011 -0.2919  0.0472 -0.6528
  131OSM   H18F14223   5.079   0.507   5.960 -0.8804  0.7369  0.9887
  131OSM   H18G14224   5.196   0.512   6.092 -0.2309  1.1455 -1.5358
  131OSM   H18H14225   5.107   0.368   6.071 -0.3488 -0.6686 -1.6097
  132OSM      N14226   5.414   5.723   7.435 -0.3225 -0.0360  0.4825
  132OSM    C1514227   5.291   5.635   7.419  0.3898 -0.8614  0.1991
  132OSM   H15A14228   5.323   5.533   7.433  3.4457  0.0559  0.7029
  132OSM   H15B14229   5.256   5.655   7.319  0.8048  0.3117  0.2723
  132OSM   H15C14230   5.217   5.666   7.491  0.6474  0.2053  0.0209
  132OSM    C1414231   5.366   5.848   7.501  0.2307  0.7436  0.7040
  132OSM   H14A14232   5.337   5.837   7.604 -4.9749  3.4644 -0.1476
  132OSM   H14B14233   5.281   5.887   7.448 -0.6596 -1.4395  0.3928
  132OSM   H14C14234   5.438   5.928   7.501  0.6633  0.3577  0.6617
  132OSM    C1314235   5.510   5.655   7.523  0.1694 -0.3241 -0.0146
  132OSM   H13A14236   5.463   5.635   7.618  0.8579  0.5160  0.5259
  132OSM   H13B14237   5.602   5.711   7.536  0.4519 -0.7779 -0.0129
  132OSM   H13C14238   5.540   5.559   7.483  0.5500  0.0242 -0.5802
  132OSM    C1214239   5.469   5.754   7.293  0.0980  0.4284 -0.1294
  132OSM   H12A14240   5.391   5.803   7.235 -0.1431  0.4223  0.1868
  132OSM   H12B14241   5.481   5.656   7.249 -0.2495  0.8941 -1.3326
  132OSM    C1114242   5.598   5.838   7.265  0.2865 -0.3879 -0.5809
  132OSM   H11A14243   5.616   5.855   7.156  0.1446 -1.0644 -0.7145
  132OSM   H11B14244   5.689   5.783   7.297  0.1594  0.5866  1.5770
  132OSM      P14245   5.513   6.086   7.275 -0.4658 -0.1085  0.3646
  132OSM    O1314246   5.405   6.132   7.362  0.4822 -0.1075  0.1053
  132OSM    O1414247   5.616   6.184   7.241  0.6368  0.1559 -0.2702
  132OSM    O1114248   5.452   6.026   7.139 -0.2738 -0.4195 -0.1909
  132OSM    O1214249   5.584   5.963   7.339 -0.8736 -0.2436 -0.2699
  132OSM    C1S14250   5.403   6.097   7.036  0.0223  0.5509  0.6342
  132OSM    H1S14251   5.401   6.207   7.053 -0.4151  1.0170 -2.0401
  132OSM    H1T14252   5.306   6.050   7.012  0.5810  0.6167 -2.1271
  132OSM     NF14253   5.477   6.178   6.801  0.4767 -0.4431  0.0395
  132OSM    HNF14254   5.408   6.159   6.732  3.4662 -1.4045 -2.9562
  132OSM    C2S14255   5.490   6.077   6.906 -0.2450  0.0695  1.2211
  132OSM    H2S14256   5.593   6.094   6.943 -0.3889  1.9899  0.8192
  132OSM    C3S14257   5.481   5.934   6.855  0.6357  0.0387 -0.4004
  132OSM    H3S14258   5.389   5.931   6.792  1.2369  0.5508 -1.3199
  132OSM     O314259   5.452   5.835   6.958  0.1536 -0.5473  0.0033
  132OSM    HO314260   5.447   5.889   7.037 -0.3996  1.7375 -1.4942
  132OSM    C4S14261   5.585   5.888   6.759 -0.2395  0.3101  0.3880
  132OSM    H4S14262   5.681   5.854   6.802 -1.2801 -0.0527  2.6030
  132OSM    C5S14263   5.571   5.884   6.628  0.2588  0.2153 -0.5012
  132OSM    H5S14264   5.484   5.935   6.586 -0.2643  0.6633  1.0616
  132OSM    C6S14265   5.681   5.834   6.540  0.0472  0.2740 -0.2874
  132OSM    H6S14266   5.641   5.841   6.437  0.7423  1.3935 -0.5058
  132OSM    H6T14267   5.712   5.733   6.572 -0.7368  0.4297  1.0452
  132OSM    C7S14268   5.804   5.922   6.542 -0.6211  0.0829 -0.0284
  132OSM    H7S14269   5.880   5.855   6.496 -0.2634  0.2002  0.3815
  132OSM    H7T14270   5.837   5.931   6.648 -0.6665  2.2429 -0.1562
  132OSM    C8S14271   5.800   6.053   6.472  0.1047 -0.4430  0.5093
  132OSM    H8S14272   5.715   6.116   6.506  0.2117  0.5493 -0.9859
  132OSM    H8T14273   5.799   6.046   6.361 -1.4063 -2.4059  0.5956
  132OSM    C9S14274   5.926   6.137   6.498 -0.3707 -0.0062 -0.1328
  132OSM    H9S14275   6.011   6.067   6.508  1.2672  1.6762 -1.5921
  132OSM    H9T14276   5.909   6.196   6.591 -0.7570 -1.6408  0.8820
  132OSM   C10S14277   5.968   6.220   6.366  0.5006 -0.0759  0.4326
  132OSM   H10S14278   5.875   6.270   6.330  1.5878  1.3709 -0.4950
  132OSM   H10T14279   5.987   6.143   6.289 -4.0100 -0.9196 -0.1538
  132OSM   C11S14280   6.075   6.327   6.406  0.1605 -0.2337  0.1008
  132OSM   H11S14281   6.162   6.275   6.451 -0.6592  0.5059  2.7279
  132OSM   H11T14282   6.041   6.385   6.494 -1.2153  2.2735 -1.9499
  132OSM   C12S14283   6.105   6.429   6.298 -0.8504  0.1677  0.0656
  132OSM   H12S14284   6.171   6.509   6.336  0.4866 -1.7156  1.9639
  132OSM   H12T14285   6.010   6.473   6.261 -1.4740 -0.0431  1.3696
  132OSM   C13S14286   6.158   6.363   6.170  0.5863 -0.0450 -0.3998
  132OSM   H13S14287   6.089   6.279   6.143  0.9716 -0.2789 -0.6596
  132OSM   H13T14288   6.249   6.308   6.201 -0.3584 -1.6422 -0.3637
  132OSM   C14S14289   6.155   6.461   6.052 -0.2953 -0.6520 -0.3361
  132OSM   H14S14290   6.232   6.540   6.061 -0.4334 -0.7034  1.8690
  132OSM   H14T14291   6.061   6.516   6.073 -0.8600 -1.2063 -1.3655
  132OSM   C15S14292   6.171   6.410   5.915  0.3183 -0.0503 -0.3120
  132OSM   H15S14293   6.244   6.326   5.913  1.3366  0.8199 -0.4390
  132OSM   H15T14294   6.221   6.480   5.845  1.8484 -1.4456 -0.6795
  132OSM   C16S14295   6.038   6.368   5.841 -0.1923 -0.0599 -0.2809
  132OSM   H16S14296   5.971   6.455   5.825 -0.4479 -0.2169 -0.0805
  132OSM   H16T14297   5.980   6.297   5.904 -1.6653 -0.8399 -2.4134
  132OSM   C17S14298   6.059   6.308   5.703 -0.3765  0.7657  0.5066
  132OSM   H17S14299   6.118   6.215   5.719 -0.8990  0.6403  1.8840
  132OSM   H17T14300   6.114   6.390   5.652 -0.6201  1.3147  1.1081
  132OSM   C18S14301   5.928   6.282   5.625  0.0600 -0.1305  0.2121
  132OSM   H18S14302   5.862   6.214   5.682 -0.6392  1.2185  1.0660
  132OSM   H18T14303   5.943   6.237   5.524 -2.6839 -2.3905  0.7068
  132OSM   H18U14304   5.875   6.379   5.610 -1.4799 -1.2359 -2.0859
  132OSM    C1F14305   5.534   6.300   6.793  0.4996 -0.0040  0.4640
  132OSM     OF14306   5.592   6.350   6.886  0.0595  0.4771  0.1177
  132OSM    C2F14307   5.515   6.378   6.664  0.1995  0.5191  0.5309
  132OSM    H2F14308   5.410   6.367   6.627 -0.1281  1.9791  0.9710
  132OSM    H2G14309   5.577   6.324   6.588 -0.2094 -0.5912  0.9658
  132OSM    C3F14310   5.552   6.531   6.684 -0.5791  0.3513  0.1987
  132OSM    H3F14311   5.649   6.542   6.736 -1.3679 -0.3202  1.8884
  132OSM    H3G14312   5.471   6.586   6.737 -1.6342 -0.2218 -0.7739
  132OSM    C4F14313   5.548   6.598   6.546  0.0708  0.4353 -0.0625
  132OSM    H4F14314   5.552   6.708   6.556  0.2561  0.3376  1.0491
  132OSM    H4G14315   5.454   6.576   6.492  0.5206 -1.9919  0.0342
  132OSM    C5F14316   5.674   6.567   6.461  0.0557  0.3166 -0.1948
  132OSM    H5F14317   5.667   6.459   6.436 -0.4944  0.4862 -0.8029
  132OSM    H5G14318   5.761   6.596   6.524  0.3084  1.8578 -1.1890
  132OSM    C6F14319   5.705   6.653   6.336 -0.1988  0.2140 -0.0087
  132OSM    H6F14320   5.628   6.631   6.259  0.8498  0.1347 -1.0453
  132OSM    H6G14321   5.805   6.618   6.302  0.8515  2.7442  0.2896
  132OSM    C7F14322   5.708   6.806   6.363  0.1750  0.4381 -1.0874
  132OSM    H7F14323   5.782   6.825   6.444 -1.4360 -0.9987  0.8453
  132OSM    H7G14324   5.604   6.838   6.387 -0.1753 -1.3140 -0.0763
  132OSM    C8F14325   5.746   6.880   6.229 -0.6953 -0.1376  0.2809
  132OSM    H8F14326   5.735   6.989   6.243  1.8346  0.2435 -0.2252
  132OSM    H8G14327   5.671   6.851   6.153 -0.8531  0.0326  0.3714
  132OSM    C9F14328   5.887   6.863   6.182 -0.4620  0.3279 -0.2746
  132OSM    H9F14329   5.965   6.906   6.246  0.2808 -0.9065 -0.3182
  132OSM   C10F14330   5.932   6.792   6.079  0.3365  0.1235 -0.0646
  132OSM   H10F14331   6.038   6.812   6.056  0.0842 -0.1328 -1.5575
  132OSM   C11F14332   5.859   6.708   5.977 -0.1180 -0.4763  0.5041
  132OSM   H11F14333   5.759   6.678   6.016 -0.2513  1.0042  1.3765
  132OSM   H11G14334   5.907   6.614   5.942  1.1087 -1.0548  3.4059
  132OSM   C12F14335   5.839   6.781   5.838 -0.4520  0.3444 -0.5665
  132OSM   H12F14336   5.936   6.758   5.789 -0.5787 -1.4151 -0.0643
  132OSM   H12G14337   5.843   6.891   5.856  4.3916  0.6189 -2.0331
  132OSM   C13F14338   5.724   6.721   5.762 -0.1287 -0.1584 -0.5806
  132OSM   H13F14339   5.624   6.739   5.807 -0.9923 -0.5178 -2.2720
  132OSM   H13G14340   5.729   6.610   5.763 -1.3398 -0.3499  3.6555
  132OSM   C14F14341   5.724   6.777   5.616  0.3306 -0.0665 -0.0920
  132OSM   H14F14342   5.826   6.763   5.576  0.8531  1.7361  0.4960
  132OSM   H14G14343   5.698   6.884   5.634 -0.2200 -0.2816  0.4539
  132OSM   C15F14344   5.617   6.714   5.527  0.6501  0.2145  0.0327
  132OSM   H15F14345   5.514   6.707   5.571  0.9873  0.5131  0.8969
  132OSM   H15G14346   5.657   6.612   5.509 -0.7794 -0.3762 -0.0042
  132OSM   C16F14347   5.585   6.785   5.388 -0.0062 -0.4504 -0.3026
  132OSM   H16F14348   5.681   6.779   5.333  0.1262  1.1808 -0.3019
  132OSM   H16G14349   5.558   6.890   5.411  3.8505  0.8877 -1.0614
  132OSM   C17F14350   5.478   6.714   5.303 -0.1493  0.5541 -0.5053
  132OSM   H17F14351   5.374   6.728   5.341  0.1890  1.5209  0.1084
  132OSM   H17G14352   5.502   6.606   5.303 -2.7442 -0.0955  0.4118
  132OSM   C18F14353   5.480   6.765   5.152  0.5672 -0.4084  0.4107
  132OSM   H18F14354   5.470   6.875   5.144 -1.8055 -0.5585  0.5373
  132OSM   H18G14355   5.403   6.721   5.084  1.7776  0.2901 -1.4868
  132OSM   H18H14356   5.580   6.732   5.119  0.5869  0.2737 -0.2270
  133OSM      N14357   2.655   3.281   7.902 -0.9493  0.1274  0.3538
  133OSM    C1514358   2.751   3.170   7.933  0.3419  0.9066 -0.3261
  133OSM   H15A14359   2.706   3.098   7.999  1.2103  1.5395  0.9946
  133OSM   H15B14360   2.835   3.200   7.993  0.2721  0.0138  0.2247
  133OSM   H15C14361   2.792   3.125   7.844  0.6490  0.1711  0.1794
  133OSM    C1414362   2.533   3.234   7.836 -0.1527 -0.5480  1.0169
  133OSM   H14A14363   2.569   3.197   7.741  0.8881  0.5167  0.9742
  133OSM   H14B14364   2.456   3.310   7.826 -0.3332 -0.9070 -0.7544
  133OSM   H14C14365   2.490   3.154   7.894 -1.5529  0.1086  0.9348
  133OSM    C1314366   2.620   3.348   8.025 -0.0759  0.4720 -0.3176
  133OSM   H13A14367   2.563   3.279   8.085  2.1088  0.1428  1.4820
  133OSM   H13B14368   2.554   3.432   8.009 -1.6148 -0.8972 -1.6527
  133OSM   H13C14369   2.704   3.372   8.087 -0.9832  0.4758  0.9500
  133OSM    C1214370   2.718   3.394   7.812 -0.3237 -0.0346 -0.3306
  133OSM   H12A14371   2.806   3.432   7.863  2.0198 -1.1599 -3.2774
  133OSM   H12B14372   2.648   3.477   7.811 -0.7050 -0.3516 -1.5541
  133OSM    C1114373   2.759   3.353   7.669 -0.6840 -1.1188  0.6381
  133OSM   H11A14374   2.813   3.435   7.618 -0.9765  0.1794  2.3187
  133OSM   H11B14375   2.661   3.349   7.616 -0.8378 -0.8091  0.8942
  133OSM      P14376   2.981   3.203   7.668  0.3271  0.0134  0.5663
  133OSM    O1314377   3.047   3.335   7.673  0.1567  0.1212  0.1035
  133OSM    O1414378   2.997   3.112   7.783 -0.0877  0.0625 -0.4425
  133OSM    O1114379   3.019   3.124   7.541  0.1386  0.2962 -0.3905
  133OSM    O1214380   2.821   3.226   7.658  0.4366  0.1388 -0.3582
  133OSM    C1S14381   2.997   2.986   7.511  0.4381 -0.6551 -0.0919
  133OSM    H1S14382   2.947   2.920   7.585  1.4160 -0.3012  0.9141
  133OSM    H1T14383   3.097   2.938   7.506  0.8110 -0.0995  1.3957
  133OSM     NF14384   2.936   2.826   7.339 -0.0109 -0.1455 -0.0785
  133OSM    HNF14385   3.008   2.814   7.272  0.6915 -1.5606  0.8946
  133OSM    C2S14386   2.915   2.959   7.381  0.0694 -0.9810  0.1582
  133OSM    H2S14387   2.807   2.976   7.404 -0.0513  0.8247 -1.4654
  133OSM    C3S14388   2.952   3.080   7.276  0.1330  0.3988  0.1996
  133OSM    H3S14389   3.061   3.080   7.254 -0.3345 -0.5951 -2.4619
  133OSM     O314390   2.911   3.207   7.323 -0.6315 -0.0051  0.2774
  133OSM    HO314391   2.925   3.206   7.418 -0.1908 -0.6031  0.2119
  133OSM    C4S14392   2.873   3.056   7.150 -0.5517 -0.0463 -0.4198
  133OSM    H4S14393   2.765   3.066   7.167 -1.0192 -2.4320 -1.5501
  133OSM    C5S14394   2.928   3.036   7.026  0.0615  0.5914 -0.2775
  133OSM    H5S14395   3.037   3.019   7.032 -0.1127 -0.8840 -0.9259
  133OSM    C6S14396   2.845   3.009   6.902  0.6599  0.6031  0.6613
  133OSM    H6S14397   2.753   2.952   6.926  0.8590  0.1872  0.4364
  133OSM    H6T14398   2.909   2.947   6.836  1.1870  1.2582  0.5413
  133OSM    C7S14399   2.795   3.133   6.817  0.0965  0.4827 -0.2046
  133OSM    H7S14400   2.880   3.203   6.799  0.1258  0.5309  0.1182
  133OSM    H7T14401   2.717   3.188   6.874 -0.7807  0.5293 -1.4045
  133OSM    C8S14402   2.726   3.100   6.682  0.3031 -0.1220  0.1850
  133OSM    H8S14403   2.633   3.040   6.699  0.2884  0.2271  1.4175
  133OSM    H8T14404   2.789   3.033   6.620 -1.3974 -0.0624 -1.7041
  133OSM    C9S14405   2.690   3.232   6.604  0.2153 -0.0136 -0.8332
  133OSM    H9S14406   2.784   3.287   6.585  1.2826 -1.3616  0.2867
  133OSM    H9T14407   2.636   3.297   6.676  1.9697  0.2415  0.3069
  133OSM   C10S14408   2.602   3.207   6.473  0.4409 -0.3646 -0.4927
  133OSM   H10S14409   2.583   3.312   6.443  2.4117  0.8306  2.0625
  133OSM   H10T14410   2.515   3.143   6.496  0.1118 -0.2111 -1.2518
  133OSM   C11S14411   2.681   3.130   6.368  0.0880 -0.5458 -0.1664
  133OSM   H11S14412   2.645   3.028   6.343  1.3385 -1.6465  2.2295
  133OSM   H11T14413   2.783   3.106   6.405  0.1311 -1.7284 -1.0089
  133OSM   C12S14414   2.692   3.210   6.231 -0.1749  0.0233  0.3618
  133OSM   H12S14415   2.742   3.308   6.248 -1.1659  0.7170 -0.5872
  133OSM   H12T14416   2.593   3.236   6.189  0.3061  0.3509 -0.5959
  133OSM   C13S14417   2.776   3.137   6.129 -0.6531 -0.1229  0.3023
  133OSM   H13S14418   2.750   3.030   6.115  0.0604 -0.0336 -2.2429
  133OSM   H13T14419   2.881   3.136   6.165  0.2949  2.0537 -2.0608
  133OSM   C14S14420   2.769   3.220   5.994  0.0763  0.2189 -0.1466
  133OSM   H14S14421   2.858   3.205   5.930 -0.3645 -1.1411 -0.4681
  133OSM   H14T14422   2.757   3.329   6.014 -0.0355  0.4212 -1.2380
  133OSM   C15S14423   2.649   3.185   5.910  0.3408  0.3005 -0.0494
  133OSM   H15S14424   2.551   3.220   5.949 -0.3622 -0.2446 -1.2797
  133OSM   H15T14425   2.641   3.075   5.898 -1.4832  0.4184 -0.2529
  133OSM   C16S14426   2.664   3.239   5.770 -0.4691  1.0749  0.1249
  133OSM   H16S14427   2.758   3.205   5.720  1.0809  0.4983  3.1978
  133OSM   H16T14428   2.660   3.350   5.765  2.7772  1.4028  1.9900
  133OSM   C17S14429   2.546   3.189   5.687  0.3860  0.5842  0.0807
  133OSM   H17S14430   2.456   3.217   5.746  1.5028  2.1807  1.1055
  133OSM   H17T14431   2.543   3.078   5.689 -1.1272  0.6127  0.2789
  133OSM   C18S14432   2.531   3.243   5.541 -0.2806 -0.4880  0.3423
  133OSM   H18S14433   2.598   3.196   5.465 -1.2659  0.6002 -1.2503
  133OSM   H18T14434   2.553   3.352   5.541 -2.5584  0.0420 -1.4425
  133OSM   H18U14435   2.431   3.239   5.494  0.9049  2.3376 -2.8474
  133OSM    C1F14436   2.900   2.717   7.406  0.1147  0.0842  0.3064
  133OSM     OF14437   2.824   2.716   7.502 -0.1289  0.0118 -0.1409
  133OSM    C2F14438   2.956   2.582   7.363  0.7817 -0.0788  0.1957
  133OSM    H2F14439   2.991   2.528   7.453  3.1636  0.6007 -0.2614
  133OSM    H2G14440   3.044   2.596   7.296  0.8772 -0.1010  0.3157
  133OSM    C3F14441   2.850   2.481   7.303  0.7052 -0.1505  0.1193
  133OSM    H3F14442   2.783   2.445   7.384  1.2076  0.8491  1.0111
  133OSM    H3G14443   2.909   2.390   7.276  0.2558 -1.1892  2.4132
  133OSM    C4F14444   2.775   2.529   7.179  0.0135  0.9161 -0.0447
  133OSM    H4F14445   2.740   2.634   7.189 -0.0390  0.9154 -0.2119
  133OSM    H4G14446   2.691   2.458   7.165  1.2337 -0.3466 -1.2911
  133OSM    C5F14447   2.854   2.534   7.054 -0.2131 -0.4892 -0.3459
  133OSM    H5F14448   2.853   2.439   6.996  0.0020  1.3798 -3.6384
  133OSM    H5G14449   2.956   2.575   7.069 -0.5732 -0.1575  1.4620
  133OSM    C6F14450   2.783   2.633   6.963  0.4402 -0.3942 -0.0635
  133OSM    H6F14451   2.803   2.739   6.989  1.7339 -0.1371 -1.8545
  133OSM    H6G14452   2.674   2.617   6.977  0.6395 -1.1121  0.7078
  133OSM    C7F14453   2.825   2.624   6.812 -0.1045  0.0973 -0.3315
  133OSM    H7F14454   2.824   2.518   6.780  2.4648 -0.1423  0.1904
  133OSM    H7G14455   2.927   2.667   6.815  0.4607 -1.0483 -1.9164
  133OSM    C8F14456   2.737   2.707   6.727  0.6815  0.1086  0.4992
  133OSM    H8F14457   2.721   2.808   6.770 -0.9234  0.3664 -0.6151
  133OSM    H8G14458   2.632   2.670   6.720  0.1083  1.8261 -1.0347
  133OSM    C9F14459   2.793   2.716   6.592 -0.0909 -0.4345  0.3109
  133OSM    H9F14460   2.857   2.805   6.580 -1.1469  0.2181 -0.6899
  133OSM   C10F14461   2.752   2.653   6.484 -0.2350  0.3133  0.0855
  133OSM   H10F14462   2.801   2.690   6.393 -0.0646 -1.2779 -0.5092
  133OSM   C11F14463   2.652   2.540   6.467 -0.7081  0.0235 -0.6489
  133OSM   H11F14464   2.612   2.508   6.566  1.6378  1.9695  1.0626
  133OSM   H11G14465   2.689   2.449   6.415 -0.9518  0.5295 -1.7173
  133OSM   C12F14466   2.532   2.592   6.392 -1.1142  0.0755  0.1327
  133OSM   H12F14467   2.506   2.690   6.435  3.4988  1.6472 -0.0967
  133OSM   H12G14468   2.454   2.513   6.401 -0.4991 -0.8156 -1.7615
  133OSM   C13F14469   2.562   2.619   6.245 -0.0785  0.4668  0.3568
  133OSM   H13F14470   2.621   2.534   6.204  0.8794  2.0515 -1.7858
  133OSM   H13G14471   2.638   2.700   6.233 -1.2503  1.6575  0.7045
  133OSM   C14F14472   2.443   2.632   6.147  0.4670 -0.6110 -0.9181
  133OSM   H14F14473   2.375   2.713   6.181  0.3010 -1.2287  0.2770
  133OSM   H14G14474   2.391   2.536   6.169 -0.6500 -0.1826 -1.5923
  133OSM   C15F14475   2.485   2.628   5.996  0.2621  0.0560  0.0319
  133OSM   H15F14476   2.389   2.598   5.948 -0.8174  2.0523  0.8196
  133OSM   H15G14477   2.572   2.560   5.993 -0.2459 -0.5979 -0.0743
  133OSM   C16F14478   2.526   2.767   5.954 -0.6994  0.0707  0.1640
  133OSM   H16F14479   2.616   2.790   6.016 -0.0624 -1.3698 -0.1684
  133OSM   H16G14480   2.449   2.846   5.956  0.3827  1.1638  0.0203
  133OSM   C17F14481   2.567   2.766   5.801 -0.2456 -0.4468 -0.0313
  133OSM   H17F14482   2.668   2.722   5.790 -0.2128 -0.5691  0.7340
  133OSM   H17G14483   2.573   2.873   5.774  2.7352 -0.7097 -0.7677
  133OSM   C18F14484   2.471   2.700   5.709  0.3898 -0.3255 -0.3274
  133OSM   H18F14485   2.468   2.591   5.733  1.3119 -0.4326 -0.6349
  133OSM   H18G14486   2.515   2.723   5.610  0.7953  1.0812  0.1549
  133OSM   H18H14487   2.368   2.737   5.721  0.6878 -0.1485  2.4140
  134OSM      N14488   4.116   4.716   7.939  0.0652  0.8186 -0.4013
  134OSM    C1514489   4.092   4.733   8.089 -0.6934 -0.4459 -0.2928
  134OSM   H15A14490   4.163   4.682   8.152  0.9955  1.6347 -0.4012
  134OSM   H15B14491   3.990   4.700   8.102 -0.8523  0.7489  1.9965
  134OSM   H15C14492   4.105   4.837   8.117  1.7161  0.2881 -3.5197
  134OSM    C1414493   4.051   4.825   7.864 -0.1073 -0.3636 -0.0253
  134OSM   H14A14494   4.093   4.923   7.885  0.6065 -0.2046 -2.0185
  134OSM   H14B14495   3.944   4.823   7.877 -0.1520  0.1845 -0.3073
  134OSM   H14C14496   4.053   4.805   7.758  1.1866  1.0287 -0.3063
  134OSM    C1314497   4.267   4.720   7.908 -0.3413  0.6216  0.6942
  134OSM   H13A14498   4.323   4.633   7.941 -0.2375  1.5998  3.2218
  134OSM   H13B14499   4.314   4.813   7.933  0.7400  0.8378 -1.7613
  134OSM   H13C14500   4.272   4.726   7.800  2.3347 -1.1874  0.6030
  134OSM    C1214501   4.066   4.576   7.895 -0.2757 -0.1607  0.7439
  134OSM   H12A14502   3.961   4.573   7.919  0.1039 -1.5214  2.4639
  134OSM   H12B14503   4.120   4.505   7.956 -2.4734 -0.0254  2.9562
  134OSM    C1114504   4.073   4.544   7.745 -0.4623 -0.4890 -0.1515
  134OSM   H11A14505   4.047   4.630   7.679 -0.5362 -1.6134 -1.6265
  134OSM   H11B14506   3.999   4.464   7.724 -1.7921  0.3428  1.1247
  134OSM      P14507   4.254   4.362   7.708  0.3047 -0.2615 -0.0510
  134OSM    O1314508   4.404   4.354   7.700  0.1985  0.0296  0.1067
  134OSM    O1414509   4.192   4.288   7.819  0.0304  0.2354 -0.1983
  134OSM    O1114510   4.190   4.307   7.572  0.1543 -0.1906 -0.0994
  134OSM    O1214511   4.209   4.510   7.707 -0.4401 -0.2974 -0.1668
  134OSM    C1S14512   4.254   4.287   7.446  0.3992 -0.7506  0.1109
  134OSM    H1S14513   4.322   4.199   7.447  1.8725  0.3532  0.6559
  134OSM    H1T14514   4.321   4.372   7.423  0.4177 -0.3412  1.5500
  134OSM     NF14515   4.222   4.241   7.207  0.3299  0.5706 -1.0967
  134OSM    HNF14516   4.223   4.318   7.144  0.1623  1.1163 -0.4480
  134OSM    C2S14517   4.154   4.264   7.333  0.0152  0.1739  1.4480
  134OSM    H2S14518   4.097   4.170   7.348  1.5055 -1.6159 -2.6345
  134OSM    C3S14519   4.069   4.391   7.311 -0.1676  0.2140 -0.5574
  134OSM    H3S14520   4.143   4.460   7.266  1.6632 -1.4754 -0.2792
  134OSM     O314521   4.021   4.462   7.424 -0.2460 -0.3355 -0.3874
  134OSM    HO314522   4.073   4.433   7.498  1.0697  0.1234 -1.0922
  134OSM    C4S14523   3.970   4.382   7.198 -0.1924  0.1006 -0.3176
  134OSM    H4S14524   4.007   4.411   7.099  0.8755 -2.1641 -0.6538
  134OSM    C5S14525   3.844   4.340   7.212  0.2493  0.2338 -0.3908
  134OSM    H5S14526   3.816   4.305   7.312  4.0987  0.0963  0.7647
  134OSM    C6S14527   3.742   4.325   7.102  1.0368 -1.2469 -0.2319
  134OSM    H6S14528   3.665   4.406   7.106 -0.0272 -2.1393 -1.6169
  134OSM    H6T14529   3.699   4.223   7.115  0.7380 -0.9493  1.4572
  134OSM    C7S14530   3.802   4.347   6.965 -0.7168  0.3644 -0.5437
  134OSM    H7S14531   3.887   4.276   6.960 -1.9062 -1.3993  2.1378
  134OSM    H7T14532   3.831   4.454   6.950  0.8575 -0.1717 -1.6104
  134OSM    C8S14533   3.701   4.296   6.866  0.1571 -0.2496 -0.3214
  134OSM    H8S14534   3.604   4.351   6.873 -1.3521 -2.2046 -3.4745
  134OSM    H8T14535   3.676   4.189   6.878 -0.5664 -0.2627 -1.6936
  134OSM    C9S14536   3.755   4.328   6.723  0.4379 -0.2926 -0.5504
  134OSM    H9S14537   3.852   4.274   6.719  0.3979 -0.4615  0.5561
  134OSM    H9T14538   3.763   4.439   6.724 -1.6471 -0.0991  0.0907
  134OSM   C10S14539   3.668   4.271   6.610  0.0455 -0.3473  0.1033
  134OSM   H10S14540   3.571   4.323   6.624 -0.0549 -0.3214 -0.6446
  134OSM   H10T14541   3.655   4.162   6.630  0.9682 -0.3070  1.0287
  134OSM   C11S14542   3.720   4.313   6.473  0.1957  0.2215 -0.6630
  134OSM   H11S14543   3.830   4.296   6.481 -0.0877 -1.3918  0.1280
  134OSM   H11T14544   3.719   4.424   6.462  0.2230  0.0956 -2.1429
  134OSM   C12S14545   3.659   4.252   6.342 -0.0296 -0.0948  0.0781
  134OSM   H12S14546   3.549   4.268   6.334  0.0649  0.8444  0.5504
  134OSM   H12T14547   3.660   4.141   6.345 -1.1670 -0.0881  1.6339
  134OSM   C13S14548   3.724   4.317   6.217 -0.5388 -0.1152  0.0465
  134OSM   H13S14549   3.831   4.298   6.235 -0.6385  1.3541  2.5284
  134OSM   H13T14550   3.705   4.425   6.236  0.0071  0.5365 -2.6555
  134OSM   C14S14551   3.664   4.270   6.085  0.2007 -0.1025 -0.8647
  134OSM   H14S14552   3.554   4.287   6.089  0.5201  1.9575  0.0413
  134OSM   H14T14553   3.683   4.160   6.088  0.1545 -0.0852  0.6972
  134OSM   C15S14554   3.726   4.336   5.964  0.2776 -0.3956 -0.2238
  134OSM   H15S14555   3.835   4.341   5.982  0.2061 -0.5619  0.2845
  134OSM   H15T14556   3.692   4.442   5.963 -0.3264 -0.5879 -0.4013
  134OSM   C16S14557   3.683   4.271   5.828 -0.6426 -0.3309  0.8410
  134OSM   H16S14558   3.573   4.259   5.835 -0.3704 -2.6565  1.8673
  134OSM   H16T14559   3.729   4.171   5.814 -0.4668 -0.7299  3.6756
  134OSM   C17S14560   3.715   4.364   5.711  0.2924  0.1801 -0.1374
  134OSM   H17S14561   3.824   4.366   5.685  0.0121  2.8663 -1.4613
  134OSM   H17T14562   3.684   4.468   5.736 -0.6323 -0.1870  0.2819
  134OSM   C18S14563   3.644   4.326   5.588 -0.6706  0.0736 -0.5671
  134OSM   H18S14564   3.660   4.398   5.505 -0.6698 -0.2032 -0.8100
  134OSM   H18T14565   3.533   4.324   5.591 -0.7525  0.4962 -2.2347
  134OSM   H18U14566   3.676   4.222   5.563 -0.1288  0.6004 -2.1619
  134OSM    C1F14567   4.298   4.133   7.193 -0.3861 -0.5668  0.5191
  134OSM     OF14568   4.293   4.029   7.257 -0.4926  0.3648  0.1961
  134OSM    C2F14569   4.397   4.151   7.086  0.6073  0.5857  0.0886
  134OSM    H2F14570   4.489   4.107   7.129  0.5115 -1.5892 -1.7278
  134OSM    H2G14571   4.406   4.258   7.057  0.2278  0.9037  1.0710
  134OSM    C3F14572   4.380   4.044   6.977  0.3085 -0.0513  0.3360
  134OSM    H3F14573   4.279   4.045   6.931 -0.8123  1.7543  2.6455
  134OSM    H3G14574   4.385   3.943   7.023 -0.0499 -0.1679  0.1224
  134OSM    C4F14575   4.498   4.044   6.874  1.3540  0.5379  0.4124
  134OSM    H4F14576   4.572   3.963   6.890 -0.2431 -1.0089  0.2474
  134OSM    H4G14577   4.538   4.148   6.879 -2.6478  2.4103 -1.9914
  134OSM    C5F14578   4.430   4.038   6.732 -0.2461 -0.0830  0.2447
  134OSM    H5F14579   4.347   4.110   6.720 -0.5540 -0.0417  2.3246
  134OSM    H5G14580   4.381   3.939   6.720  0.7314 -0.5090 -0.3608
  134OSM    C6F14581   4.528   4.056   6.616  0.8480 -0.1003  0.1192
  134OSM    H6F14582   4.611   3.988   6.643  1.6539  0.1706 -1.5085
  134OSM    H6G14583   4.558   4.163   6.615 -2.6340  1.0888 -2.6372
  134OSM    C7F14584   4.474   4.021   6.470 -1.0797 -0.2959 -0.2365
  134OSM    H7F14585   4.400   4.101   6.448  0.2108  0.5913 -1.6012
  134OSM    H7G14586   4.415   3.928   6.461 -0.3221 -0.9751  1.4369
  134OSM    C8F14587   4.596   4.032   6.366  0.4216  0.0378 -0.0791
  134OSM    H8F14588   4.597   3.943   6.300  0.3673  0.0731 -0.1271
  134OSM    H8G14589   4.687   4.001   6.421  0.3524 -0.7555 -0.3995
  134OSM    C9F14590   4.618   4.149   6.280 -0.5065 -0.6545 -0.1338
  134OSM    H9F14591   4.673   4.232   6.328  0.5333 -0.8764 -0.9082
  134OSM   C10F14592   4.575   4.172   6.155  0.0480  1.1793  0.0394
  134OSM   H10F14593   4.591   4.271   6.109 -0.7026  0.3367 -2.1813
  134OSM   C11F14594   4.490   4.079   6.068 -0.2595  0.2286  0.0235
  134OSM   H11F14595   4.403   4.138   6.033  0.1399  1.0746  0.4037
  134OSM   H11G14596   4.440   3.997   6.124 -0.6931  0.2331 -0.3567
  134OSM   C12F14597   4.560   4.014   5.946  0.9142 -0.3905  0.0675
  134OSM   H12F14598   4.659   3.969   5.970  1.1346 -1.4411 -2.4768
  134OSM   H12G14599   4.577   4.086   5.863  2.9072  1.0352  1.6355
  134OSM   C13F14600   4.473   3.910   5.879  0.1233  0.3732 -0.8089
  134OSM   H13F14601   4.380   3.952   5.836 -0.3700 -0.7225 -0.8551
  134OSM   H13G14602   4.434   3.842   5.958  3.1580 -0.3700  0.1871
  134OSM   C14F14603   4.547   3.825   5.777 -0.3765 -0.1993 -0.4906
  134OSM   H14F14604   4.474   3.766   5.718  1.1863 -1.0885 -1.6310
  134OSM   H14G14605   4.618   3.756   5.827 -0.7418 -0.4374 -0.2978
  134OSM   C15F14606   4.633   3.895   5.675 -0.2383  0.6598  0.4570
  134OSM   H15F14607   4.737   3.909   5.711 -0.2788  0.8068  0.5189
  134OSM   H15G14608   4.584   3.992   5.652 -1.7106 -0.2714 -0.4577
  134OSM   C16F14609   4.639   3.829   5.531  0.0884 -0.1227 -0.6897
  134OSM   H16F14610   4.639   3.719   5.544 -2.2073  0.0036  1.0655
  134OSM   H16G14611   4.736   3.854   5.484  0.4243 -0.4644 -0.1887
  134OSM   C17F14612   4.518   3.857   5.448  0.3156 -0.2763 -0.0002
  134OSM   H17F14613   4.506   3.961   5.412 -2.2346 -1.0075 -1.5359
  134OSM   H17G14614   4.428   3.837   5.511 -0.0479 -1.9308 -0.9655
  134OSM   C18F14615   4.498   3.771   5.318  0.4818 -0.3944  0.0661
  134OSM   H18F14616   4.517   3.663   5.335 -1.0578 -0.7571 -0.3512
  134OSM   H18G14617   4.563   3.806   5.235  1.4204  2.3061  1.7876
  134OSM   H18H14618   4.394   3.771   5.280  0.5973 -0.6361 -0.2446
  135OSM      N14619   3.586   1.597   8.000 -0.0854  0.1206 -0.2974
  135OSM    C1514620   3.552   1.727   7.927 -0.1420 -0.1618  0.2320
  135OSM   H15A14621   3.583   1.811   7.988 -1.5688 -0.3423  1.2718
  135OSM   H15B14622   3.444   1.736   7.919  0.0757  1.3791 -1.9616
  135OSM   H15C14623   3.604   1.722   7.833 -2.5358 -0.0491 -1.1938
  135OSM    C1414624   3.734   1.575   7.993  1.2574 -0.5196  0.4198
  135OSM   H14A14625   3.778   1.590   7.896  1.1611  1.8594  0.6986
  135OSM   H14B14626   3.769   1.479   8.027  0.2414 -1.6599 -1.5666
  135OSM   H14C14627   3.795   1.648   8.044  2.3573  0.9991 -2.8225
  135OSM    C1314628   3.553   1.614   8.150  0.3003  0.4469  0.1328
  135OSM   H13A14629   3.589   1.536   8.215  1.8139  0.3458 -0.7874
  135OSM   H13B14630   3.445   1.619   8.161  0.3157  0.4775  0.2680
  135OSM   H13C14631   3.612   1.695   8.191  2.5384  0.2261 -2.4168
  135OSM    C1214632   3.507   1.481   7.949 -0.5251 -0.1634  0.3440
  135OSM   H12A14633   3.409   1.522   7.932  0.2808  3.1142  2.6239
  135OSM   H12B14634   3.495   1.405   8.025 -1.7440  0.1952  0.5299
  135OSM    C1114635   3.562   1.413   7.816 -0.0340  0.2116 -1.1655
  135OSM   H11A14636   3.594   1.485   7.737 -0.4504  1.2910 -0.3710
  135OSM   H11B14637   3.482   1.350   7.771 -0.7288 -0.8751  1.4519
  135OSM      P14638   3.767   1.267   7.753  0.1780 -0.1097  0.8053
  135OSM    O1314639   3.907   1.309   7.779  0.6359 -0.2132 -0.1407
  135OSM    O1414640   3.743   1.123   7.758 -0.0363  0.3815  0.0033
  135OSM    O1114641   3.714   1.319   7.615  0.3996  0.3968 -0.1271
  135OSM    O1214642   3.674   1.332   7.857  0.0301  0.1070 -0.0777
  135OSM    C1S14643   3.791   1.321   7.499 -0.2030 -0.1506  1.0919
  135OSM    H1S14644   3.849   1.227   7.485 -0.2619 -0.0575  0.2052
  135OSM    H1T14645   3.864   1.405   7.503  0.9083 -0.9708 -0.6509
  135OSM     NF14646   3.778   1.389   7.245 -0.9097  0.0229 -0.0942
  135OSM    HNF14647   3.784   1.479   7.201  1.7109 -0.3318 -0.5771
  135OSM    C2S14648   3.707   1.354   7.365  0.5205  0.1664  0.7306
  135OSM    H2S14649   3.644   1.268   7.333  4.4088 -2.2275 -1.2355
  135OSM    C3S14650   3.598   1.460   7.408  0.4803 -0.0527 -0.3301
  135OSM    H3S14651   3.650   1.542   7.463  0.0740 -0.0535  0.0562
  135OSM     O314652   3.501   1.424   7.503 -0.1639 -0.9101 -0.1681
  135OSM    HO314653   3.551   1.365   7.560  1.8311 -0.5588 -1.4533
  135OSM    C4S14654   3.537   1.510   7.290 -0.0032  0.3137 -0.1830
  135OSM    H4S14655   3.570   1.611   7.261 -3.2586  1.5857  0.1248
  135OSM    C5S14656   3.438   1.449   7.219 -0.4011 -0.2587 -0.2662
  135OSM    H5S14657   3.389   1.353   7.242  0.7125 -0.7113  0.2706
  135OSM    C6S14658   3.388   1.513   7.090  0.0946  0.0725  0.4666
  135OSM    H6S14659   3.352   1.615   7.116 -0.9061  0.4780 -2.2260
  135OSM    H6T14660   3.291   1.465   7.067 -0.0128  1.4210 -2.1989
  135OSM    C7S14661   3.466   1.534   6.963 -0.1082  0.0340 -0.5839
  135OSM    H7S14662   3.510   1.438   6.927  2.0125  0.1833  1.4073
  135OSM    H7T14663   3.557   1.596   6.968  0.0714 -0.0359 -2.4986
  135OSM    C8S14664   3.384   1.605   6.868  0.1819 -0.1851 -0.0308
  135OSM    H8S14665   3.366   1.698   6.925  0.2774  0.4301 -0.9777
  135OSM    H8T14666   3.291   1.547   6.852 -1.2235  1.7694  0.6675
  135OSM    C9S14667   3.458   1.644   6.742 -0.1236  0.2238  0.3065
  135OSM    H9S14668   3.502   1.548   6.705 -0.6524  0.8118 -1.9842
  135OSM    H9T14669   3.543   1.711   6.764  1.1285 -1.2520  0.1883
  135OSM   C10S14670   3.362   1.713   6.643 -0.0371  0.1688  0.4425
  135OSM   H10S14671   3.309   1.804   6.679  2.0349  2.2257 -1.3736
  135OSM   H10T14672   3.280   1.640   6.625  0.1615  0.4711 -1.9534
  135OSM   C11S14673   3.418   1.739   6.503  0.1094 -0.5544  0.5044
  135OSM   H11S14674   3.504   1.809   6.507  0.3711 -0.2867 -4.3111
  135OSM   H11T14675   3.342   1.788   6.439  0.9368 -0.5610 -0.5073
  135OSM   C12S14676   3.477   1.613   6.441  0.0682  0.2388 -0.7042
  135OSM   H12S14677   3.404   1.530   6.431  1.7805 -1.0442 -4.1628
  135OSM   H12T14678   3.557   1.579   6.511 -0.9588 -1.8107 -0.4580
  135OSM   C13S14679   3.543   1.635   6.307 -0.3040  0.4300  0.5010
  135OSM   H13S14680   3.596   1.545   6.267 -0.0420  0.6308  0.3906
  135OSM   H13T14681   3.611   1.723   6.302  3.1113 -1.9989  0.6577
  135OSM   C14S14682   3.442   1.659   6.202 -0.4357 -0.1257  0.0200
  135OSM   H14S14683   3.389   1.754   6.224  1.5640  1.4084 -1.4484
  135OSM   H14T14684   3.365   1.578   6.212  0.3010 -0.6080  2.9115
  135OSM   C15S14685   3.504   1.674   6.065  0.1456 -0.4463 -0.5912
  135OSM   H15S14686   3.565   1.585   6.038  0.7404  0.5220 -2.5685
  135OSM   H15T14687   3.579   1.756   6.068  1.1574 -1.3244 -1.2294
  135OSM   C16S14688   3.396   1.690   5.952  0.4500 -0.3154  0.1774
  135OSM   H16S14689   3.375   1.797   5.934 -2.2076 -0.4266  2.0826
  135OSM   H16T14690   3.300   1.660   5.998  0.0206  1.8018  0.7403
  135OSM   C17S14691   3.433   1.611   5.825  0.0054  0.7914  0.1392
  135OSM   H17S14692   3.357   1.622   5.745 -2.7801  0.6276  2.5910
  135OSM   H17T14693   3.432   1.502   5.846  1.1020  0.8717  0.7045
  135OSM   C18S14694   3.568   1.652   5.766 -0.2155  0.0836 -0.4086
  135OSM   H18S14695   3.570   1.755   5.725 -0.5242  0.1968 -0.1440
  135OSM   H18T14696   3.589   1.577   5.687 -1.1216  1.0255 -1.5717
  135OSM   H18U14697   3.642   1.656   5.849 -0.1293 -0.4989 -0.4495
  135OSM    C1F14698   3.850   1.306   7.174 -0.1559 -0.3475 -0.6371
  135OSM     OF14699   3.894   1.198   7.215  0.4004 -0.1044 -1.0514
  135OSM    C2F14700   3.880   1.355   7.031  0.2455  0.0633  0.6201
  135OSM    H2F14701   3.989   1.346   7.016  0.3190 -0.6353  1.5330
  135OSM    H2G14702   3.859   1.464   7.033  0.5905  0.1304  0.6520
  135OSM    C3F14703   3.783   1.279   6.938 -0.0155 -0.5030 -0.3491
  135OSM    H3F14704   3.689   1.253   6.991 -1.0605  2.3232 -0.6514
  135OSM    H3G14705   3.834   1.185   6.910  0.3937  0.2179 -2.1301
  135OSM    C4F14706   3.736   1.350   6.813 -0.1400 -0.0812 -0.0245
  135OSM    H4F14707   3.641   1.309   6.774  0.0627 -1.1207  0.5610
  135OSM    H4G14708   3.707   1.455   6.837 -0.9742 -0.1685 -0.5974
  135OSM    C5F14709   3.831   1.349   6.684 -0.6749  0.3050  0.4381
  135OSM    H5F14710   3.808   1.259   6.622 -0.0852  0.8605 -0.6188
  135OSM    H5G14711   3.938   1.336   6.712  0.1625  2.5479 -1.4272
  135OSM    C6F14712   3.835   1.479   6.610 -0.0928  0.3443 -0.2262
  135OSM    H6F14713   3.858   1.556   6.687 -0.3938 -0.2162  0.4404
  135OSM    H6G14714   3.739   1.510   6.564 -0.1055 -0.5090 -0.8107
  135OSM    C7F14715   3.943   1.487   6.509  0.2065  0.1579 -0.2983
  135OSM    H7F14716   3.902   1.449   6.413  0.2902 -0.2826 -0.1658
  135OSM    H7G14717   4.027   1.420   6.537 -1.0125 -0.7018  1.5810
  135OSM    C8F14718   3.990   1.635   6.491 -0.0251  0.3444  0.2993
  135OSM    H8F14719   4.031   1.674   6.587  2.3274 -1.8622  0.2972
  135OSM    H8G14720   3.894   1.687   6.469  0.2230 -0.1693 -2.2645
  135OSM    C9F14721   4.088   1.654   6.377 -0.2491 -0.1746 -0.0372
  135OSM    H9F14722   4.171   1.582   6.375 -0.1300 -0.0560  0.5650
  135OSM   C10F14723   4.064   1.721   6.263 -0.6659  0.6151  0.0499
  135OSM   H10F14724   4.131   1.706   6.177  0.3042  2.5329  0.4183
  135OSM   C11F14725   3.949   1.814   6.239 -0.6543  0.3359 -0.4041
  135OSM   H11F14726   3.993   1.916   6.244  1.3921 -0.5503  1.1965
  135OSM   H11G14727   3.858   1.813   6.303 -1.5117  2.8548 -1.4524
  135OSM   C12F14728   3.883   1.802   6.101  0.1216  0.2814  0.2445
  135OSM   H12F14729   3.787   1.858   6.101  0.2349  0.5180 -1.6859
  135OSM   H12G14730   3.871   1.693   6.080  0.8220 -0.1396  1.8406
  135OSM   C13F14731   3.980   1.854   5.995 -0.0233  0.6027 -0.0280
  135OSM   H13F14732   4.070   1.789   5.997 -0.1606  0.4028 -0.3359
  135OSM   H13G14733   4.008   1.959   6.018  1.9731 -0.0917  0.9608
  135OSM   C14F14734   3.918   1.851   5.847 -0.0835 -0.0565  0.7158
  135OSM   H14F14735   3.830   1.918   5.841 -0.2388 -0.2075  1.2382
  135OSM   H14G14736   3.876   1.751   5.826 -0.9540 -0.2815  3.1361
  135OSM   C15F14737   4.027   1.874   5.739 -0.2676 -0.6506 -0.6950
  135OSM   H15F14738   4.099   1.790   5.748  0.3633 -0.0998 -0.4443
  135OSM   H15G14739   4.077   1.971   5.757 -1.3964 -0.2711  0.5466
  135OSM   C16F14740   3.970   1.892   5.602 -0.0617  0.5550  0.1802
  135OSM   H16F14741   3.946   2.000   5.594  2.8610  1.4284  1.9083
  135OSM   H16G14742   3.881   1.825   5.593 -0.8804  1.6673 -0.1720
  135OSM   C17F14743   4.066   1.857   5.492 -0.1122 -0.7415  0.5447
  135OSM   H17F14744   4.088   1.749   5.472  0.1216 -0.4070 -1.1944
  135OSM   H17G14745   4.166   1.901   5.511  0.1444 -0.4767 -1.1976
  135OSM   C18F14746   4.023   1.915   5.357 -0.1228 -0.3682 -0.2683
  135OSM   H18F14747   4.082   1.875   5.272  0.8693  1.1992 -0.3407
  135OSM   H18G14748   4.048   2.023   5.354  1.6612 -0.7023  1.1589
  135OSM   H18H14749   3.914   1.902   5.337 -0.2093  0.8696 -0.6880
  136OSM      N14750   5.815   3.001   7.914  0.2243  0.0877 -0.1435
  136OSM    C1514751   5.817   3.131   7.992  0.4938 -0.3449 -0.1611
  136OSM   H15A14752   5.870   3.097   8.080  1.2247 -1.1190 -0.8803
  136OSM   H15B14753   5.720   3.175   8.009  1.2170  1.9034 -1.4594
  136OSM   H15C14754   5.864   3.210   7.935 -0.6036 -0.9914 -2.0255
  136OSM    C1414755   5.958   2.946   7.925 -0.1434 -0.3394  0.1395
  136OSM   H14A14756   6.024   3.024   7.889 -0.9996 -0.1453 -1.1066
  136OSM   H14B14757   5.968   2.863   7.857 -1.6696 -2.0204  1.8553
  136OSM   H14C14758   5.982   2.899   8.018 -2.3015 -0.8673  0.4835
  136OSM    C1314759   5.719   2.908   7.984  0.0119  0.2347  0.5819
  136OSM   H13A14760   5.746   2.888   8.086  1.3033 -0.6045  0.1098
  136OSM   H13B14761   5.727   2.814   7.931 -1.7642  0.8260 -0.8565
  136OSM   H13C14762   5.618   2.946   7.987  0.3533  1.1520  3.6295
  136OSM    C1214763   5.768   3.010   7.769 -0.8712 -0.5070  0.2748
  136OSM   H12A14764   5.665   3.038   7.758 -0.2065  1.3654 -1.7296
  136OSM   H12B14765   5.769   2.912   7.725  0.6390  0.8163 -2.9205
  136OSM    C1114766   5.853   3.096   7.668  0.1603 -0.3800 -0.3393
  136OSM   H11A14767   5.873   3.196   7.712  2.3537 -0.7772 -0.3481
  136OSM   H11B14768   5.793   3.122   7.578  1.0994  0.1861 -0.8119
  136OSM      P14769   6.002   2.963   7.499 -0.0914  0.0285 -0.0248
  136OSM    O1314770   6.141   2.994   7.460  0.4835  0.3702  0.2469
  136OSM    O1414771   5.951   2.825   7.512 -0.0563 -0.2621 -0.8953
  136OSM    O1114772   5.913   3.032   7.383 -0.2532 -0.3930 -0.3972
  136OSM    O1214773   5.975   3.037   7.637 -0.6563  0.3754  0.3764
  136OSM    C1S14774   5.938   3.171   7.347 -0.3415  0.6757  0.6132
  136OSM    H1S14775   6.003   3.224   7.421 -0.7660  0.3532  1.2277
  136OSM    H1T14776   5.844   3.230   7.350 -0.1205  0.9943  1.8207
  136OSM     NF14777   6.017   3.316   7.167  0.1817 -0.4106 -0.1328
  136OSM    HNF14778   5.933   3.356   7.132 -0.1197  0.0636  1.0849
  136OSM    C2S14779   5.993   3.178   7.200  0.1063  0.8725  0.5084
  136OSM    H2S14780   6.097   3.140   7.192 -0.2340  0.3342 -2.5356
  136OSM    C3S14781   5.897   3.089   7.107 -0.2435  0.6426  0.5571
  136OSM    H3S14782   5.795   3.124   7.131 -1.9353 -2.8924 -0.7905
  136OSM     O314783   5.899   2.947   7.138  0.3471  0.2212 -0.5300
  136OSM    HO314784   5.914   2.952   7.233 -0.2288  1.5002 -0.4808
  136OSM    C4S14785   5.931   3.105   6.962  0.3415 -0.3153  0.1072
  136OSM    H4S14786   6.034   3.090   6.929 -0.1990 -0.0915 -1.7640
  136OSM    C5S14787   5.855   3.152   6.864 -0.8853 -0.4385 -0.0417
  136OSM    H5S14788   5.749   3.181   6.870 -0.8002 -0.1217 -0.0217
  136OSM    C6S14789   5.915   3.165   6.729 -0.2483  0.2245 -0.0207
  136OSM    H6S14790   6.026   3.159   6.725 -0.2563 -0.8860  1.0308
  136OSM    H6T14791   5.881   3.264   6.694 -0.1023  1.1624  2.3073
  136OSM    C7S14792   5.847   3.058   6.632  0.3773  0.5143 -0.2807
  136OSM    H7S14793   5.737   3.068   6.644  0.5943  1.5757  1.1186
  136OSM    H7T14794   5.881   2.960   6.672 -1.8192  0.4503  1.6515
  136OSM    C8S14795   5.898   3.070   6.487 -0.4060  0.6951  0.2292
  136OSM    H8S14796   6.006   3.049   6.504 -0.1818  0.6381 -1.1258
  136OSM    H8T14797   5.874   3.167   6.438 -0.0109  0.3954 -0.5804
  136OSM    C9S14798   5.835   2.955   6.408  0.8577  0.2842  0.2300
  136OSM    H9S14799   5.730   2.991   6.402  0.4917 -0.2833  2.2777
  136OSM    H9T14800   5.837   2.864   6.473  0.6510 -0.3681 -0.6519
  136OSM   C10S14801   5.913   2.930   6.280  0.3011  0.1293 -0.5558
  136OSM   H10S14802   6.019   2.920   6.311  0.7646 -0.3854 -2.1839
  136OSM   H10T14803   5.908   3.027   6.226 -0.3121 -0.2455 -1.1788
  136OSM   C11S14804   5.872   2.817   6.186 -0.0804 -0.6631  0.9700
  136OSM   H11S14805   5.763   2.807   6.170 -0.1285 -0.2284  1.0198
  136OSM   H11T14806   5.909   2.721   6.229  0.2404 -0.1833  1.7913
  136OSM   C12S14807   5.928   2.844   6.049  0.4430  0.2949  0.6902
  136OSM   H12S14808   5.874   2.935   6.016  1.1455  0.0082 -1.3854
  136OSM   H12T14809   5.901   2.760   5.982 -1.8111 -0.6731  2.6975
  136OSM   C13S14810   6.082   2.862   6.031 -0.2092  0.5754  0.0519
  136OSM   H13S14811   6.141   2.788   6.089 -1.8491 -0.3322  0.6198
  136OSM   H13T14812   6.099   2.966   6.068  0.4236  0.7588 -0.7228
  136OSM   C14S14813   6.123   2.858   5.882  0.3479 -0.3465 -0.5282
  136OSM   H14S14814   6.031   2.884   5.825  0.7514  0.8107 -0.6766
  136OSM   H14T14815   6.143   2.752   5.855  0.1448 -0.1775 -1.3575
  136OSM   C15S14816   6.235   2.956   5.853 -0.6799 -0.1118  0.5397
  136OSM   H15S14817   6.285   2.930   5.757 -0.1617  2.4764  0.0122
  136OSM   H15T14818   6.314   2.941   5.929 -1.1000 -1.7864  0.6868
  136OSM   C16S14819   6.183   3.104   5.851  0.7603  0.6167  0.3874
  136OSM   H16S14820   6.137   3.127   5.949 -2.1771  0.5919 -0.8820
  136OSM   H16T14821   6.102   3.115   5.775 -1.0363  1.5763  2.3468
  136OSM   C17S14822   6.295   3.194   5.823  0.1180  0.0581 -0.1457
  136OSM   H17S14823   6.383   3.167   5.885 -0.2411  1.1654  0.8820
  136OSM   H17T14824   6.254   3.295   5.846  1.4767  0.6577 -0.2962
  136OSM   C18S14825   6.329   3.187   5.671  0.1468 -0.5860  0.4363
  136OSM   H18S14826   6.432   3.229   5.658 -0.3186 -0.0107 -1.9458
  136OSM   H18T14827   6.257   3.253   5.618 -0.2160 -1.2490  0.0939
  136OSM   H18U14828   6.330   3.084   5.630 -0.6324  0.1841 -1.6535
  136OSM    C1F14829   6.117   3.391   7.214 -0.1303  0.0323 -0.1681
  136OSM     OF14830   6.203   3.351   7.291 -0.5532  0.0370 -0.2195
  136OSM    C2F14831   6.122   3.541   7.168  0.4316  0.3501 -0.5754
  136OSM    H2F14832   6.184   3.601   7.238  0.9893 -0.5659 -0.2650
  136OSM    H2G14833   6.017   3.579   7.169 -0.3657 -1.5364 -2.8358
  136OSM    C3F14834   6.195   3.542   7.024 -0.0505  0.1876  0.2845
  136OSM    H3F14835   6.296   3.496   7.030 -0.0043  0.3305  0.6917
  136OSM    H3G14836   6.211   3.652   7.014 -0.9268  0.3672  0.7162
  136OSM    C4F14837   6.107   3.489   6.907  0.3351  0.3202 -0.3984
  136OSM    H4F14838   6.012   3.545   6.912 -0.5715 -1.2507  0.9023
  136OSM    H4G14839   6.079   3.384   6.932 -1.1796  1.6178  4.4135
  136OSM    C5F14840   6.186   3.507   6.777 -0.1451  0.5554 -0.6868
  136OSM    H5F14841   6.287   3.460   6.774 -0.6323 -0.5507 -0.0814
  136OSM    H5G14842   6.205   3.616   6.762 -1.4046  0.8862  0.0383
  136OSM    C6F14843   6.109   3.467   6.647 -0.1326 -1.4631  0.3090
  136OSM    H6F14844   6.007   3.506   6.668 -0.4964 -1.4490 -1.3278
  136OSM    H6G14845   6.107   3.357   6.638  0.9917 -1.5787  1.2099
  136OSM    C7F14846   6.165   3.536   6.521  0.4212 -0.0469  0.5987
  136OSM    H7F14847   6.274   3.557   6.525  0.6746 -0.6420 -1.6342
  136OSM    H7G14848   6.134   3.642   6.514 -0.8594 -0.3431  1.3656
  136OSM    C8F14849   6.128   3.451   6.398 -0.1680 -0.8811  0.0202
  136OSM    H8F14850   6.151   3.345   6.424 -0.9640 -0.7443  1.3822
  136OSM    H8G14851   6.194   3.482   6.314 -0.6428 -0.9703 -0.3914
  136OSM    C9F14852   5.980   3.463   6.359 -0.6149  0.4090  0.0773
  136OSM    H9F14853   5.915   3.451   6.447 -0.8571 -1.8270 -0.3511
  136OSM   C10F14854   5.930   3.451   6.232 -0.4186  0.5960  0.5453
  136OSM   H10F14855   5.823   3.468   6.212 -0.0335  1.0531 -1.3048
  136OSM   C11F14856   5.998   3.441   6.098 -0.3225 -0.5356  0.5708
  136OSM   H11F14857   5.991   3.335   6.066 -2.8682 -0.3703  0.4090
  136OSM   H11G14858   6.104   3.475   6.106 -0.8987  1.1509  1.7220
  136OSM   C12F14859   5.933   3.521   5.979  0.0802 -0.0390 -0.5218
  136OSM   H12F14860   5.823   3.507   5.972  0.0668  0.5042 -1.5461
  136OSM   H12G14861   5.967   3.476   5.883  0.1399 -0.6966 -0.2000
  136OSM   C13F14862   5.942   3.675   5.995 -0.4637 -0.2514 -0.0804
  136OSM   H13F14863   6.045   3.710   5.971 -1.1255  0.9026 -1.3643
  136OSM   H13G14864   5.919   3.705   6.099  2.1682  0.5439  0.3587
  136OSM   C14F14865   5.846   3.741   5.893 -0.2464 -0.1620  0.0002
  136OSM   H14F14866   5.749   3.702   5.931  1.4691 -3.0822  1.7091
  136OSM   H14G14867   5.870   3.708   5.789  3.1490  1.3837  0.1667
  136OSM   C15F14868   5.851   3.894   5.888  0.7761  0.1602 -0.1091
  136OSM   H15F14869   5.948   3.936   5.855 -0.1796  0.8124 -2.2628
  136OSM   H15G14870   5.822   3.927   5.991  0.5502 -1.5871  0.4103
  136OSM   C16F14871   5.737   3.949   5.788  0.3226 -0.8103 -0.3052
  136OSM   H16F14872   5.697   4.050   5.811  0.0459 -1.1441  0.7798
  136OSM   H16G14873   5.650   3.884   5.809  0.1195 -1.2199 -2.2420
  136OSM   C17F14874   5.780   3.949   5.640  0.5171  0.0486 -0.5377
  136OSM   H17F14875   5.831   3.853   5.616 -0.2542 -0.3462 -0.6320
  136OSM   H17G14876   5.858   4.028   5.641 -0.2930  0.8794  1.2649
  136OSM   C18F14877   5.666   3.987   5.550  0.4326  0.2997 -0.0127
  136OSM   H18F14878   5.706   3.991   5.447 -0.1702 -0.6253 -0.2923
  136OSM   H18G14879   5.627   4.089   5.571 -0.5621 -0.6883  3.6288
  136OSM   H18H14880   5.587   3.909   5.550  0.3787  0.3181  1.7870
  137OSM      N14881   2.191   0.906   8.242 -0.1198 -0.1885  0.3177
  137OSM    C1514882   2.159   0.769   8.300  0.6506 -0.2997 -0.4027
  137OSM   H15A14883   2.179   0.681   8.241 -2.1822 -2.1491  1.1276
  137OSM   H15B14884   2.057   0.759   8.335  0.3650  0.4893 -0.9754
  137OSM   H15C14885   2.216   0.760   8.391 -2.6705 -0.3648  1.8452
  137OSM    C1414886   2.170   1.025   8.333 -0.4532  0.2922 -0.7429
  137OSM   H14A14887   2.069   1.038   8.370 -0.7376 -0.9061 -1.0482
  137OSM   H14B14888   2.207   1.111   8.280  0.6359  0.5006  0.3115
  137OSM   H14C14889   2.240   1.016   8.415  0.8617  1.5356 -1.6984
  137OSM    C1314890   2.333   0.906   8.198 -1.2488  0.0684  0.3913
  137OSM   H13A14891   2.351   0.840   8.114  2.1674  1.8302 -0.4841
  137OSM   H13B14892   2.383   0.875   8.289 -3.4258  0.9687  1.9815
  137OSM   H13C14893   2.370   1.005   8.177 -0.1586 -0.4033 -0.0009
  137OSM    C1214894   2.095   0.924   8.123 -0.3936 -0.4513 -0.1585
  137OSM   H12A14895   1.996   0.948   8.160 -0.3745  0.6161 -0.7670
  137OSM   H12B14896   2.076   0.827   8.079  2.4414 -1.9416  1.5755
  137OSM    C1114897   2.117   1.045   8.015  0.0426 -0.2508 -0.6596
  137OSM   H11A14898   2.039   1.047   7.937  0.3956  0.0842 -1.0084
  137OSM   H11B14899   2.214   1.022   7.966  0.2501  0.9106 -0.8346
  137OSM      P14900   2.238   1.277   8.039 -0.3065  0.4815  0.1437
  137OSM    O1314901   2.189   1.410   8.080 -0.0386  0.1961 -0.5602
  137OSM    O1414902   2.369   1.226   8.092 -0.0064 -0.3870 -0.7745
  137OSM    O1114903   2.250   1.263   7.877  0.1233 -0.1658 -0.0657
  137OSM    O1214904   2.122   1.175   8.073 -0.2800 -0.2509  0.0212
  137OSM    C1S14905   2.237   1.379   7.796  0.6135  0.2154 -1.0806
  137OSM    H1S14906   2.292   1.464   7.840  0.4660 -0.3038  0.1374
  137OSM    H1T14907   2.130   1.408   7.784  0.4667 -0.0657 -0.4823
  137OSM     NF14908   2.269   1.479   7.578  0.5197 -0.2017  0.0797
  137OSM    HNF14909   2.180   1.479   7.533  0.1082  0.8689  0.8755
  137OSM    C2S14910   2.296   1.361   7.651 -0.3876 -0.4596 -0.0688
  137OSM    H2S14911   2.405   1.346   7.645 -0.3839 -0.2311 -0.6889
  137OSM    C3S14912   2.226   1.236   7.583 -0.1867 -0.7815  0.7627
  137OSM    H3S14913   2.116   1.256   7.584 -0.1943 -0.4727 -1.0913
  137OSM     O314914   2.245   1.115   7.658  0.6212 -0.2240  0.1071
  137OSM    HO314915   2.256   1.158   7.743  1.4134  1.1572 -0.6563
  137OSM    C4S14916   2.267   1.210   7.436  0.1512 -0.7387 -0.1205
  137OSM    H4S14917   2.376   1.220   7.425  0.2728 -0.4717  1.2386
  137OSM    C5S14918   2.172   1.188   7.335 -0.1389 -0.0572  0.0589
  137OSM    H5S14919   2.066   1.171   7.357  0.3191 -0.3431  2.2448
  137OSM    C6S14920   2.217   1.186   7.187 -0.0543  0.0822  0.5420
  137OSM    H6S14921   2.294   1.260   7.156 -1.5331  1.6957  0.4945
  137OSM    H6T14922   2.133   1.225   7.125 -0.4980 -2.5425 -0.6502
  137OSM    C7S14923   2.253   1.046   7.140 -0.0315  0.1261 -0.7786
  137OSM    H7S14924   2.194   0.962   7.183  2.2957 -1.0653  0.2840
  137OSM    H7T14925   2.355   1.015   7.170 -0.5247 -0.1752  0.6780
  137OSM    C8S14926   2.226   1.039   6.994 -0.5665  0.2530  1.0277
  137OSM    H8S14927   2.125   1.082   6.975 -0.3551  1.1663  1.8332
  137OSM    H8T14928   2.215   0.943   6.940 -0.5110  1.5063 -1.3365
  137OSM    C9S14929   2.333   1.109   6.909 -0.1250 -0.0937  0.7476
  137OSM    H9S14930   2.426   1.063   6.947 -0.1948 -1.5927 -0.7724
  137OSM    H9T14931   2.345   1.216   6.937  0.9149 -0.1853  0.6899
  137OSM   C10S14932   2.309   1.089   6.755 -0.7778  0.2369 -0.0055
  137OSM   H10S14933   2.218   1.146   6.729 -1.2322  0.8127  2.5769
  137OSM   H10T14934   2.288   0.981   6.738  0.5518  0.3546 -3.1297
  137OSM   C11S14935   2.426   1.133   6.676  0.5226 -0.1177 -0.1136
  137OSM   H11S14936   2.513   1.083   6.722  0.0861 -0.2907  0.5403
  137OSM   H11T14937   2.450   1.242   6.680 -1.2304  0.3040 -0.1954
  137OSM   C12S14938   2.417   1.104   6.525  0.3068 -0.3945 -0.1487
  137OSM   H12S14939   2.329   1.152   6.477 -1.4611 -0.7500  2.5089
  137OSM   H12T14940   2.404   0.995   6.504 -0.4218 -0.2973 -0.2256
  137OSM   C13S14941   2.542   1.145   6.448 -0.3384  0.4414  0.7042
  137OSM   H13S14942   2.627   1.088   6.491  1.3424  2.8848  0.8460
  137OSM   H13T14943   2.559   1.254   6.463  0.8555  0.3242  0.3268
  137OSM   C14S14944   2.528   1.128   6.291 -0.2749  0.3447 -0.9863
  137OSM   H14S14945   2.438   1.188   6.264 -1.2187 -0.2681  0.7120
  137OSM   H14T14946   2.510   1.019   6.277  1.3509 -0.2032  0.8197
  137OSM   C15S14947   2.655   1.167   6.224 -0.2158  0.3047 -0.1337
  137OSM   H15S14948   2.741   1.102   6.250  0.6460  0.5567 -2.1522
  137OSM   H15T14949   2.671   1.271   6.259 -3.1444  0.6273  0.4910
  137OSM   C16S14950   2.641   1.170   6.067  1.5786  0.7323 -0.4263
  137OSM   H16S14951   2.558   1.238   6.038 -1.6733 -2.1361  1.4860
  137OSM   H16T14952   2.612   1.068   6.036  1.5717  0.3795  0.6812
  137OSM   C17S14953   2.777   1.205   6.003 -0.6976 -0.1727  0.4246
  137OSM   H17S14954   2.858   1.142   6.044  1.0086  1.5263 -0.1954
  137OSM   H17T14955   2.804   1.312   6.018  2.5413 -0.4220 -2.2632
  137OSM   C18S14956   2.786   1.181   5.854 -0.6528  0.3347  0.7123
  137OSM   H18S14957   2.744   1.265   5.795 -0.9986  1.2152  2.1604
  137OSM   H18T14958   2.724   1.092   5.834 -0.3615  0.6830 -2.1023
  137OSM   H18U14959   2.891   1.168   5.820 -1.5662 -0.0871 -2.2312
  137OSM    C1F14960   2.330   1.600   7.591  0.2856 -0.6162  0.0653
  137OSM     OF14961   2.427   1.621   7.669  0.2664 -0.9257  0.7110
  137OSM    C2F14962   2.274   1.726   7.512 -0.1956 -0.0750  0.0514
  137OSM    H2F14963   2.233   1.811   7.571 -4.2625 -0.1727 -2.2541
  137OSM    H2G14964   2.183   1.696   7.456 -1.2165  1.9170  0.5290
  137OSM    C3F14965   2.379   1.779   7.409  0.2318  0.2804 -0.2890
  137OSM    H3F14966   2.476   1.814   7.451  0.4611  0.6345 -1.1071
  137OSM    H3G14967   2.317   1.860   7.367 -1.2350 -0.1278  0.9835
  137OSM    C4F14968   2.407   1.679   7.298 -0.0380 -0.6612  0.2807
  137OSM    H4F14969   2.332   1.597   7.295 -1.0306  0.2136  0.6387
  137OSM    H4G14970   2.500   1.623   7.321  2.7488  3.4571  0.1511
  137OSM    C5F14971   2.419   1.747   7.160 -0.2299 -0.2098 -0.3291
  137OSM    H5F14972   2.488   1.832   7.176 -0.0395  0.0181 -2.1443
  137OSM    H5G14973   2.316   1.784   7.137 -0.3842  0.5253  1.3997
  137OSM    C6F14974   2.468   1.656   7.039 -0.3377 -0.0999 -0.6616
  137OSM    H6F14975   2.394   1.580   7.005 -1.1389  0.7574 -0.8730
  137OSM    H6G14976   2.558   1.606   7.080  1.0337  3.0290  0.4921
  137OSM    C7F14977   2.523   1.739   6.919  0.0545  0.0159 -0.0600
  137OSM    H7F14978   2.594   1.819   6.949 -3.1240  2.3672  1.7549
  137OSM    H7G14979   2.436   1.798   6.883 -0.3161 -1.0926 -1.0656
  137OSM    C8F14980   2.589   1.663   6.800  0.5993 -0.6934 -0.5021
  137OSM    H8F14981   2.683   1.617   6.838  0.2426 -0.4285  0.7614
  137OSM    H8G14982   2.617   1.755   6.744  1.6883  0.0831  1.1965
  137OSM    C9F14983   2.500   1.561   6.734 -1.0102 -0.5919  0.2030
  137OSM    H9F14984   2.414   1.529   6.795 -0.1511  0.5538  2.1357
  137OSM   C10F14985   2.511   1.518   6.607  0.1900 -0.2142 -0.3462
  137OSM   H10F14986   2.442   1.439   6.573  1.2649 -1.8589  1.1129
  137OSM   C11F14987   2.621   1.544   6.514 -0.0066 -0.2123  0.8463
  137OSM   H11F14988   2.678   1.452   6.492 -2.2818 -1.5103  0.0371
  137OSM   H11G14989   2.696   1.614   6.556 -0.1780  1.9791 -2.1474
  137OSM   C12F14990   2.549   1.587   6.383  0.2671  0.4050 -0.5091
  137OSM   H12F14991   2.495   1.684   6.391  0.8419  0.6266  0.9579
  137OSM   H12G14992   2.470   1.510   6.368 -1.7215  1.5302  2.9529
  137OSM   C13F14993   2.652   1.608   6.270  0.5050 -0.2740  0.1861
  137OSM   H13F14994   2.719   1.520   6.258  1.1134  0.0217  1.2744
  137OSM   H13G14995   2.710   1.699   6.297 -1.4505  1.2128 -0.4498
  137OSM   C14F14996   2.591   1.644   6.130 -0.0404  0.8357  0.4334
  137OSM   H14F14997   2.542   1.743   6.135  0.7070  1.1812  0.9916
  137OSM   H14G14998   2.512   1.571   6.101  0.6520 -0.6155  1.9871
  137OSM   C15F14999   2.697   1.625   6.021 -0.2437 -0.7286 -0.4613
  137OSM   H15F15000   2.771   1.550   6.054  0.0004  0.3425  1.5564
  137OSM   H15G15001   2.752   1.720   6.006  0.1799 -1.1646 -1.7866
  137OSM   C16F15002   2.654   1.570   5.882  0.5277  1.1373 -0.4004
  137OSM   H16F15003   2.574   1.633   5.835 -0.4305 -0.1340 -0.5275
  137OSM   H16G15004   2.608   1.470   5.896 -0.1794  1.3419 -1.1181
  137OSM   C17F15005   2.759   1.550   5.777  0.5898 -0.7513 -0.3086
  137OSM   H17F15006   2.709   1.506   5.688 -0.4441  1.6979 -1.0235
  137OSM   H17G15007   2.823   1.466   5.810  1.5302 -0.2032 -0.7012
  137OSM   C18F15008   2.840   1.674   5.741 -0.4286  0.4987  0.0297
  137OSM   H18F15009   2.899   1.720   5.823 -0.7603  2.3674 -0.7179
  137OSM   H18G15010   2.770   1.749   5.697  0.4247  1.0227 -0.4669
  137OSM   H18H15011   2.915   1.648   5.663 -0.7547  0.9782 -0.4585
  138OSM      N15012   5.238   1.018   7.733 -0.4091 -0.0492  0.6535
  138OSM    C1515013   5.272   0.881   7.684 -0.1647  0.9257 -0.6433
  138OSM   H15A15014   5.349   0.864   7.610 -1.2350  0.2466 -1.6384
  138OSM   H15B15015   5.179   0.860   7.633  1.4701 -0.3751 -3.3037
  138OSM   H15C15016   5.286   0.812   7.766 -0.4633 -0.5898 -1.8117
  138OSM    C1415017   5.108   1.005   7.817 -0.8312 -0.6356  0.6120
  138OSM   H14A15018   5.133   0.958   7.911 -0.2612 -2.0413 -0.2005
  138OSM   H14B15019   5.024   0.956   7.769 -1.3939  0.6939  0.1807
  138OSM   H14C15020   5.064   1.102   7.834  0.2400  0.0348 -0.2731
  138OSM    C1315021   5.355   1.077   7.806 -0.6382 -0.0872  0.1324
  138OSM   H13A15022   5.342   1.181   7.831  2.1914  0.3433  0.1879
  138OSM   H13B15023   5.431   1.077   7.729 -0.3673  2.0458  0.3276
  138OSM   H13C15024   5.393   1.012   7.883  0.0379 -0.6828 -0.6809
  138OSM    C1215025   5.210   1.095   7.600 -0.4914  0.3650 -0.0552
  138OSM   H12A15026   5.177   1.194   7.628 -0.1308  1.0213 -1.7848
  138OSM   H12B15027   5.127   1.045   7.551 -1.0153 -0.5794  1.7114
  138OSM    C1115028   5.326   1.098   7.495  0.6580 -0.3069 -0.3621
  138OSM   H11A15029   5.298   1.151   7.402  0.8172 -1.5170 -1.1128
  138OSM   H11B15030   5.340   0.992   7.466  2.3958  0.2259 -1.6282
  138OSM      P15031   5.585   1.164   7.498 -0.0852 -0.5155 -0.5039
  138OSM    O1315032   5.652   1.292   7.520  0.1880  0.4373 -0.1604
  138OSM    O1415033   5.661   1.045   7.548  0.3039  0.1702  0.3386
  138OSM    O1115034   5.569   1.155   7.338  0.4216  0.2448 -0.7045
  138OSM    O1215035   5.439   1.156   7.553  0.0080  0.4189 -0.1071
  138OSM    C1S15036   5.505   1.264   7.271  0.2385 -0.1602 -0.5076
  138OSM    H1S15037   5.566   1.355   7.292 -1.7328  0.8667  1.1299
  138OSM    H1T15038   5.407   1.290   7.317  0.2693 -0.5225 -0.2259
  138OSM     NF15039   5.442   1.364   7.058 -0.3390  0.0785 -0.0866
  138OSM    HNF15040   5.346   1.379   7.034  0.2452  0.3810 -2.5805
  138OSM    C2S15041   5.481   1.239   7.121  0.3547  0.5783  0.1266
  138OSM    H2S15042   5.576   1.215   7.068  0.3316  1.4825 -0.3487
  138OSM    C3S15043   5.376   1.125   7.117  0.2805 -0.2539  0.1000
  138OSM    H3S15044   5.286   1.164   7.170 -0.4276 -1.5697 -0.1009
  138OSM     O315045   5.417   1.010   7.188 -0.1028 -0.2337  0.2313
  138OSM    HO315046   5.492   1.048   7.235  3.3297 -1.0976 -3.9601
  138OSM    C4S15047   5.352   1.095   6.969  0.0722  0.8317 -0.6736
  138OSM    H4S15048   5.262   1.150   6.938 -0.7467  0.5281  1.0495
  138OSM    C5S15049   5.419   1.009   6.892  0.4959  0.7113 -0.0593
  138OSM    H5S15050   5.500   0.952   6.940  0.1056  0.2353  0.0397
  138OSM    C6S15051   5.379   0.974   6.752  0.3170 -0.9609 -0.2556
  138OSM    H6S15052   5.316   0.883   6.762  2.4906 -2.5829 -0.6492
  138OSM    H6T15053   5.469   0.936   6.699  0.2323 -2.6951  0.7618
  138OSM    C7S15054   5.297   1.077   6.672 -0.3175 -0.5442  0.5635
  138OSM    H7S15055   5.345   1.176   6.686 -2.9359  0.7113  1.2950
  138OSM    H7T15056   5.199   1.086   6.722  0.9601 -1.7284  3.5282
  138OSM    C8S15057   5.285   1.053   6.521 -0.1409  0.1154 -0.0979
  138OSM    H8S15058   5.223   0.963   6.503  0.3681 -0.0759 -0.9538
  138OSM    H8T15059   5.380   1.017   6.477 -1.2341 -0.6932 -1.8846
  138OSM    C9S15060   5.244   1.171   6.431  0.5630  1.7349  0.4274
  138OSM    H9S15061   5.296   1.261   6.471 -0.4881  3.0183 -0.9471
  138OSM    H9T15062   5.134   1.180   6.444  0.1966  0.3947 -1.2965
  138OSM   C10S15063   5.290   1.160   6.284  0.1229 -0.0771  1.2884
  138OSM   H10S15064   5.249   1.070   6.234  1.3815 -0.5218  1.0296
  138OSM   H10T15065   5.399   1.151   6.263 -0.4628 -0.3148 -2.3989
  138OSM   C11S15066   5.242   1.282   6.201  0.6299  0.1924  0.3768
  138OSM   H11S15067   5.281   1.381   6.232  0.6534 -0.3219  2.0537
  138OSM   H11T15068   5.132   1.284   6.215  0.5456 -1.7289  0.3643
  138OSM   C12S15069   5.272   1.280   6.047  0.4839  0.3440  1.1621
  138OSM   H12S15070   5.263   1.183   5.995 -0.4482 -0.3344  2.5248
  138OSM   H12T15071   5.377   1.313   6.031  0.3818  0.2599  0.3223
  138OSM   C13S15072   5.184   1.379   5.976 -0.4724  0.5538 -0.0824
  138OSM   H13S15073   5.194   1.472   6.037  0.5459 -0.0449  0.7006
  138OSM   H13T15074   5.079   1.345   5.971 -0.5313  0.7499 -0.1753
  138OSM   C14S15075   5.232   1.418   5.836  0.3584  0.3780 -0.3644
  138OSM   H14S15076   5.276   1.324   5.796 -1.1120 -1.5970  2.3615
  138OSM   H14T15077   5.314   1.492   5.849  0.1988  0.5660 -0.4175
  138OSM   C15S15078   5.127   1.483   5.744  0.5531  0.0767 -0.5070
  138OSM   H15S15079   5.078   1.569   5.794 -0.6032 -1.4418  1.1157
  138OSM   H15T15080   5.048   1.408   5.719  1.8682 -0.9984 -1.5875
  138OSM   C16S15081   5.204   1.526   5.619 -0.3660  0.3887  0.0415
  138OSM   H16S15082   5.241   1.434   5.570 -0.8569  0.4967 -0.5453
  138OSM   H16T15083   5.291   1.588   5.648 -1.3891  3.3408 -2.5983
  138OSM   C17S15084   5.128   1.602   5.519  0.7592 -0.4245 -0.0530
  138OSM   H17S15085   5.062   1.678   5.565  0.6952  1.8302 -3.5135
  138OSM   H17T15086   5.060   1.529   5.469 -0.5491  1.4907 -1.1917
  138OSM   C18S15087   5.207   1.674   5.403 -0.4163  0.4990 -0.4260
  138OSM   H18S15088   5.263   1.763   5.438  0.5903 -0.0056 -0.7220
  138OSM   H18T15089   5.139   1.714   5.325  2.3358 -0.1703 -3.4122
  138OSM   H18U15090   5.274   1.604   5.349 -0.6234  0.7680 -1.0434
  138OSM    C1F15091   5.530   1.466   7.028  0.5458  0.0172  0.3898
  138OSM     OF15092   5.648   1.462   7.052 -0.7487 -0.3548 -0.2191
  138OSM    C2F15093   5.477   1.586   6.965 -0.1335  0.9376 -0.4347
  138OSM    H2F15094   5.372   1.601   6.998 -0.8293 -0.6581 -1.8112
  138OSM    H2G15095   5.465   1.561   6.857 -1.8000  1.1981 -0.3456
  138OSM    C3F15096   5.549   1.721   6.991  0.1033  0.4350 -0.7250
  138OSM    H3F15097   5.555   1.749   7.098 -1.4588  0.4212 -0.6099
  138OSM    H3G15098   5.491   1.812   6.963 -2.0270 -0.3448  0.8722
  138OSM    C4F15099   5.689   1.727   6.929 -0.6636 -0.4934 -0.5596
  138OSM    H4F15100   5.694   1.703   6.820  4.1611  2.1285 -1.2106
  138OSM    H4G15101   5.749   1.648   6.978 -0.3862  0.3421  0.4838
  138OSM    C5F15102   5.763   1.856   6.962 -0.2653  0.4841 -0.4166
  138OSM    H5F15103   5.742   1.901   7.061  1.8472 -1.3200  0.9564
  138OSM    H5G15104   5.727   1.940   6.899 -1.8587  1.4389  1.6708
  138OSM    C6F15105   5.917   1.850   6.949 -0.3249 -0.2640 -0.1942
  138OSM    H6F15106   5.938   1.793   6.856 -0.7669 -1.4844  0.4261
  138OSM    H6G15107   5.951   1.807   7.046  0.4156 -1.2556 -0.8604
  138OSM    C7F15108   5.985   1.986   6.954 -0.3836 -0.7251 -0.1049
  138OSM    H7F15109   6.009   2.011   7.060 -3.0966  2.0381  0.0141
  138OSM    H7G15110   5.909   2.065   6.935 -1.0648 -1.4299 -0.3367
  138OSM    C8F15111   6.111   2.001   6.866  0.2539 -0.2157 -0.7018
  138OSM    H8F15112   6.097   1.940   6.774 -0.6321  0.8784 -1.3238
  138OSM    H8G15113   6.197   1.946   6.910 -0.1836 -2.1255 -2.1047
  138OSM    C9F15114   6.149   2.141   6.831 -0.1251 -0.1763  0.5665
  138OSM    H9F15115   6.166   2.208   6.916  1.8729 -1.2858  1.1042
  138OSM   C10F15116   6.160   2.189   6.708  0.5266  0.7489 -0.0277
  138OSM   H10F15117   6.167   2.299   6.699 -0.2524  0.6255 -4.2372
  138OSM   C11F15118   6.137   2.111   6.580  0.0252 -0.4846  0.4337
  138OSM   H11F15119   6.029   2.087   6.573  0.2427 -1.1671 -1.2163
  138OSM   H11G15120   6.183   2.010   6.589 -3.5771 -2.2675  0.6426
  138OSM   C12F15121   6.168   2.190   6.451  0.2691  0.9480 -0.3559
  138OSM   H12F15122   6.116   2.288   6.442  1.0207  1.2208 -2.3297
  138OSM   H12G15123   6.109   2.131   6.377 -1.6964  0.3282  1.6046
  138OSM   C13F15124   6.317   2.215   6.414 -0.0022  0.3160 -0.2000
  138OSM   H13F15125   6.372   2.135   6.468 -0.3652  0.3451  0.2109
  138OSM   H13G15126   6.350   2.314   6.453 -0.1374 -0.5451  2.2705
  138OSM   C14F15127   6.345   2.206   6.264  0.8153  0.5898 -0.2010
  138OSM   H14F15128   6.328   2.103   6.226  0.0255  0.6712 -0.0829
  138OSM   H14G15129   6.452   2.222   6.239  0.9105 -1.0726 -1.0009
  138OSM   C15F15130   6.266   2.294   6.157 -0.4386 -0.4645 -0.3814
  138OSM   H15F15131   6.284   2.401   6.180 -0.1695 -0.1392 -1.9967
  138OSM   H15G15132   6.155   2.283   6.165 -0.2236 -1.1199  2.8630
  138OSM   C16F15133   6.314   2.272   6.014 -0.7481  0.3405 -0.9135
  138OSM   H16F15134   6.289   2.166   5.992 -2.8792  0.8284 -1.0131
  138OSM   H16G15135   6.424   2.291   6.011 -0.6830  0.6011  1.1342
  138OSM   C17F15136   6.238   2.365   5.915  0.0831  0.1714  0.5615
  138OSM   H17F15137   6.260   2.467   5.953  0.1808  0.9274 -1.4242
  138OSM   H17G15138   6.131   2.343   5.933  0.5421 -1.7157  1.1770
  138OSM   C18F15139   6.272   2.362   5.758  0.0107 -0.0308  0.0536
  138OSM   H18F15140   6.220   2.446   5.709  1.6261  1.7553  1.2385
  138OSM   H18G15141   6.219   2.275   5.714 -0.6183  1.0772 -1.4772
  138OSM   H18H15142   6.381   2.368   5.736  0.0201  0.1796  0.1575
  139OSM      N15143   2.531   1.627   8.166  0.1060  0.4892 -0.6805
  139OSM    C1515144   2.635   1.725   8.128  0.2802  0.0110 -0.2130
  139OSM   H15A15145   2.631   1.812   8.191  0.4138 -1.1461  1.4793
  139OSM   H15B15146   2.625   1.760   8.027 -1.6573  0.0447 -0.0486
  139OSM   H15C15147   2.736   1.690   8.146  0.0302 -0.0704  1.2072
  139OSM    C1415148   2.544   1.599   8.314 -0.7145  0.8066  0.0244
  139OSM   H14A15149   2.464   1.542   8.358 -0.5957  1.0223  0.5236
  139OSM   H14B15150   2.549   1.695   8.363 -1.5976 -0.4350  2.6952
  139OSM   H14C15151   2.637   1.545   8.328 -0.8921  0.4230 -0.2528
  139OSM    C1315152   2.408   1.705   8.147  0.4375  0.2848  0.4651
  139OSM   H13A15153   2.418   1.805   8.187 -0.0474  0.3920  0.3237
  139OSM   H13B15154   2.318   1.661   8.188  0.0339 -0.6165 -1.2831
  139OSM   H13C15155   2.381   1.703   8.042 -2.3644 -1.2634  1.1123
  139OSM    C1215156   2.534   1.493   8.096 -0.5830  0.6547 -0.1601
  139OSM   H12A15157   2.544   1.512   7.990 -0.7949  1.5019 -0.0343
  139OSM   H12B15158   2.439   1.444   8.110  0.6217 -1.8487 -0.0983
  139OSM    C1115159   2.644   1.388   8.139 -0.3962 -0.2882 -0.8773
  139OSM   H11A15160   2.652   1.301   8.070 -0.2156  1.0026 -2.5283
  139OSM   H11B15161   2.609   1.343   8.235 -0.7751  0.6463 -0.5653
  139OSM      P15162   2.906   1.428   8.098  0.2636  0.5580  0.0894
  139OSM    O1315163   3.000   1.535   8.122  0.2190  0.0487 -0.1019
  139OSM    O1415164   2.950   1.295   8.151  0.6558  0.1829 -0.2183
  139OSM    O1115165   2.867   1.418   7.944  0.2392  0.1277 -0.3181
  139OSM    O1215166   2.763   1.459   8.163  0.2536  0.0002  0.3426
  139OSM    C1S15167   2.826   1.530   7.869 -0.5830 -0.0639 -0.1948
  139OSM    H1S15168   2.881   1.622   7.899 -1.0459  0.0418  0.3578
  139OSM    H1T15169   2.724   1.569   7.888  0.6766  2.7254  1.6407
  139OSM     NF15170   2.813   1.612   7.637 -0.3169  0.0895 -0.2392
  139OSM    HNF15171   2.737   1.611   7.572  1.2208 -0.6094 -2.1357
  139OSM    C2S15172   2.824   1.495   7.717  0.2658  0.5148  0.7231
  139OSM    H2S15173   2.918   1.444   7.687 -1.5241 -2.1392 -0.7676
  139OSM    C3S15174   2.716   1.389   7.697  0.0986  0.6183  0.3161
  139OSM    H3S15175   2.617   1.432   7.723 -0.2517  1.4874 -2.1821
  139OSM     O315176   2.719   1.269   7.772 -0.2195 -0.8210  0.6918
  139OSM    HO315177   2.778   1.294   7.843  1.1501 -0.5204 -0.5051
  139OSM    C4S15178   2.704   1.340   7.562  0.0719 -0.0534  0.6614
  139OSM    H4S15179   2.792   1.279   7.536  2.0652  2.9924 -0.2910
  139OSM    C5S15180   2.613   1.378   7.468  0.2158 -0.0969 -0.4087
  139OSM    H5S15181   2.546   1.462   7.493  1.7080  1.4424 -1.3617
  139OSM    C6S15182   2.618   1.342   7.316 -0.1393  0.1872 -0.3337
  139OSM    H6S15183   2.522   1.370   7.268 -0.8205  0.4522  1.1506
  139OSM    H6T15184   2.625   1.232   7.303  0.6565 -0.0427  1.6985
  139OSM    C7S15185   2.737   1.414   7.250 -0.5776  0.8618 -0.1545
  139OSM    H7S15186   2.826   1.406   7.315 -1.7268  1.9287  1.6295
  139OSM    H7T15187   2.715   1.521   7.230 -0.6687  1.0148  0.7066
  139OSM    C8S15188   2.763   1.362   7.106  0.1221 -1.2084  0.5230
  139OSM    H8S15189   2.671   1.374   7.045 -0.5108  1.5912  1.8246
  139OSM    H8T15190   2.786   1.254   7.101  1.0361 -0.9828 -0.9615
  139OSM    C9S15191   2.869   1.441   7.024  0.6573  0.3036 -0.4312
  139OSM    H9S15192   2.950   1.472   7.094 -0.8910  1.1109  1.0771
  139OSM    H9T15193   2.809   1.525   6.981  1.1547  0.6382 -0.4786
  139OSM   C10S15194   2.918   1.359   6.909  0.7454 -0.6685  0.8519
  139OSM   H10S15195   2.945   1.256   6.941 -2.1452 -1.2296  1.7546
  139OSM   H10T15196   3.013   1.411   6.882  0.8715 -0.5720  1.4664
  139OSM   C11S15197   2.816   1.340   6.795 -0.0714  0.1435  0.6697
  139OSM   H11S15198   2.764   1.437   6.778 -0.1722  0.1084  0.7725
  139OSM   H11T15199   2.732   1.282   6.840  0.7038 -2.5573 -1.1095
  139OSM   C12S15200   2.861   1.288   6.663 -0.4007 -0.3712 -0.5835
  139OSM   H12S15201   2.766   1.287   6.606 -0.3886  2.3126 -0.7663
  139OSM   H12T15202   2.901   1.185   6.678  1.9786  0.3458 -1.5009
  139OSM   C13S15203   2.970   1.358   6.582 -0.4928  0.2436 -0.7193
  139OSM   H13S15204   3.067   1.347   6.635 -0.9014  2.2621  0.5950
  139OSM   H13T15205   2.950   1.468   6.585 -0.4338  0.2300  0.7145
  139OSM   C14S15206   2.975   1.311   6.440 -0.1590 -0.4207  1.0657
  139OSM   H14S15207   2.877   1.277   6.400  1.1208 -2.6905 -0.3561
  139OSM   H14T15208   3.050   1.231   6.422  1.7652  1.0567  2.0769
  139OSM   C15S15209   3.020   1.426   6.347 -0.0265 -0.0229  0.0701
  139OSM   H15S15210   3.115   1.465   6.389  0.3792  1.7082 -2.2250
  139OSM   H15T15211   2.942   1.506   6.349  1.8656  1.9194 -0.2700
  139OSM   C16S15212   3.044   1.377   6.203  0.5856  0.1238  0.0631
  139OSM   H16S15213   2.945   1.346   6.163  0.5524  0.3057  0.0020
  139OSM   H16T15214   3.105   1.285   6.199 -0.9252 -0.9042 -2.5607
  139OSM   C17S15215   3.111   1.478   6.122  0.4757 -0.1170  0.5473
  139OSM   H17S15216   3.222   1.469   6.128  0.8356  1.7570 -2.0501
  139OSM   H17T15217   3.089   1.578   6.164 -0.1499  0.0330 -0.1307
  139OSM   C18S15218   3.061   1.478   5.983  0.2175 -0.4485  0.2277
  139OSM   H18S15219   3.062   1.378   5.935 -4.5202 -1.0224  0.8923
  139OSM   H18T15220   3.113   1.547   5.913 -1.5427  0.8391  0.1335
  139OSM   H18U15221   2.957   1.515   5.978 -0.2282 -1.1429  2.7508
  139OSM    C1F15222   2.899   1.712   7.630  0.5861 -0.4145  0.1000
  139OSM     OF15223   3.004   1.714   7.691 -0.8993 -0.6850 -0.3979
  139OSM    C2F15224   2.850   1.834   7.549 -0.2130 -0.2580 -0.2248
  139OSM    H2F15225   2.739   1.834   7.559 -0.0433  0.1657  1.9837
  139OSM    H2G15226   2.867   1.827   7.439  0.3512  0.7375 -0.2126
  139OSM    C3F15227   2.917   1.962   7.592  0.0716 -0.1111  0.3226
  139OSM    H3F15228   3.026   1.957   7.573 -0.0309  1.9469 -1.2057
  139OSM    H3G15229   2.900   1.981   7.700  0.4897 -0.2923  0.4209
  139OSM    C4F15230   2.860   2.086   7.522 -0.0420 -0.1117  0.5718
  139OSM    H4F15231   2.933   2.166   7.550  1.5271 -0.1686 -2.8190
  139OSM    H4G15232   2.765   2.097   7.579  0.7645 -0.0630  1.9459
  139OSM    C5F15233   2.831   2.072   7.378  0.2534  0.5225  0.1070
  139OSM    H5F15234   2.772   2.161   7.347 -0.7066 -0.0817  0.1536
  139OSM    H5G15235   2.754   1.993   7.365  1.3117 -0.5779  0.3902
  139OSM    C6F15236   2.951   2.044   7.296 -0.3964  0.0564  0.3248
  139OSM    H6F15237   2.999   1.945   7.311  1.6273  1.0811  1.0757
  139OSM    H6G15238   3.036   2.109   7.326  0.4033 -0.6660 -0.3177
  139OSM    C7F15239   2.923   2.070   7.149 -0.2162  0.2895  0.1105
  139OSM    H7F15240   3.024   2.090   7.107 -0.6719  2.6051 -0.0457
  139OSM    H7G15241   2.867   2.166   7.141  0.8168  0.8647 -0.4446
  139OSM    C8F15242   2.858   1.952   7.080  0.1387 -0.2147 -0.0772
  139OSM    H8F15243   2.806   1.988   6.988  1.2913  0.0921 -0.6238
  139OSM    H8G15244   2.770   1.916   7.137  0.0601  1.9338  1.2379
  139OSM    C9F15245   2.946   1.832   7.047 -0.1619 -0.3730 -0.5058
  139OSM    H9F15246   2.980   1.788   7.142  0.0173 -1.9457 -1.2678
  139OSM   C10F15247   2.992   1.791   6.936  0.2892  0.2340  0.0149
  139OSM   H10F15248   3.076   1.721   6.948  1.4337  1.8763  2.4262
  139OSM   C11F15249   2.957   1.841   6.801  0.5831 -0.1024  0.3736
  139OSM   H11F15250   3.041   1.900   6.759  1.8974 -1.5219  0.9163
  139OSM   H11G15251   2.858   1.892   6.804  0.7911  0.2799  0.7598
  139OSM   C12F15252   2.945   1.726   6.705 -0.0516 -0.1713  0.6143
  139OSM   H12F15253   2.872   1.651   6.744  0.2112 -0.3566  0.7538
  139OSM   H12G15254   3.043   1.675   6.692 -1.2047 -2.0124 -1.5939
  139OSM   C13F15255   2.905   1.785   6.569  0.0403  0.8387  0.1902
  139OSM   H13F15256   2.819   1.856   6.564  1.1061  2.2560  1.0103
  139OSM   H13G15257   2.883   1.702   6.499 -0.2335  0.0400  1.2016
  139OSM   C14F15258   3.022   1.855   6.494  0.4724  0.2700 -0.5205
  139OSM   H14F15259   3.109   1.787   6.483  0.7353 -0.1142  2.9952
  139OSM   H14G15260   3.049   1.941   6.558  0.4276 -0.5609  0.6504
  139OSM   C15F15261   2.964   1.890   6.354 -0.0744 -0.3198  0.0715
  139OSM   H15F15262   2.878   1.959   6.364  0.0209 -0.3633  1.4225
  139OSM   H15G15263   2.936   1.796   6.303 -1.2161 -0.1657  0.3697
  139OSM   C16F15264   3.071   1.948   6.263  0.0556 -0.1139  1.0411
  139OSM   H16F15265   3.164   1.888   6.267  0.3980  0.4133  1.1073
  139OSM   H16G15266   3.105   2.051   6.288  2.5484 -0.1461 -1.5898
  139OSM   C17F15267   3.022   1.953   6.120 -0.2475  0.2902  0.1423
  139OSM   H17F15268   2.921   1.998   6.107 -0.2024  0.8252  1.4389
  139OSM   H17G15269   3.018   1.850   6.080 -1.6222 -0.7370  2.6731
  139OSM   C18F15270   3.120   2.036   6.036 -0.1913  0.0154  0.2927
  139OSM   H18F15271   3.101   2.033   5.926 -0.3355  3.2635  0.1379
  139OSM   H18G15272   3.224   2.008   6.064  0.1855  0.3157 -0.7296
  139OSM   H18H15273   3.113   2.142   6.067 -0.1133 -0.0255  0.4508
  140OSM      N15274   1.505   1.198   8.318  0.1892 -0.8401  0.1753
  140OSM    C1515275   1.610   1.219   8.431  0.3438 -0.1087 -0.3715
  140OSM   H15A15276   1.567   1.265   8.520  1.1439  0.0072 -0.0343
  140OSM   H15B15277   1.689   1.289   8.408  0.7440 -0.3328  0.2809
  140OSM   H15C15278   1.658   1.128   8.463  1.3422  0.9399  1.2740
  140OSM    C1415279   1.402   1.093   8.356 -0.6016  0.3833 -0.5159
  140OSM   H14A15280   1.458   1.003   8.380  0.7309  1.2028 -0.4337
  140OSM   H14B15281   1.352   1.068   8.263 -1.6899  0.8589 -0.0602
  140OSM   H14C15282   1.339   1.112   8.441  0.1284 -2.8060  0.9024
  140OSM    C1315283   1.437   1.337   8.316  0.6546  0.2028  0.0065
  140OSM   H13A15284   1.335   1.329   8.281  0.7240  1.9266 -0.6720
  140OSM   H13B15285   1.497   1.405   8.258  0.7108 -0.9030 -1.2670
  140OSM   H13C15286   1.434   1.375   8.418 -2.0665 -1.0696  0.5046
  140OSM    C1215287   1.574   1.166   8.185 -0.2173  0.2434  0.0674
  140OSM   H12A15288   1.610   1.064   8.188 -0.3879  0.1170 -1.4095
  140OSM   H12B15289   1.660   1.232   8.177 -0.2032  0.6097  2.4453
  140OSM    C1115290   1.492   1.178   8.051  0.0549 -0.0339 -0.2870
  140OSM   H11A15291   1.560   1.193   7.964 -1.0484 -1.5858 -1.4740
  140OSM   H11B15292   1.434   1.273   8.045  1.5431  0.8626 -1.0497
  140OSM      P15293   1.415   0.909   8.024 -0.5097 -0.0414  0.2593
  140OSM    O1315294   1.505   0.852   8.129 -0.0035  0.1955 -0.0099
  140OSM    O1415295   1.281   0.851   8.032 -0.5206  0.0326  0.2430
  140OSM    O1115296   1.465   0.898   7.874 -0.1842 -0.6314 -0.0808
  140OSM    O1215297   1.400   1.065   8.057 -0.3297 -0.1167  0.1668
  140OSM    C1S15298   1.395   0.953   7.766  0.1281 -0.2849 -0.4908
  140OSM    H1S15299   1.382   1.062   7.780 -1.0281 -0.6342  1.3701
  140OSM    H1T15300   1.294   0.908   7.759  1.3985 -3.5552  0.2543
  140OSM     NF15301   1.362   1.000   7.532 -0.4496 -0.1880 -0.0456
  140OSM    HNF15302   1.305   0.932   7.485  0.4846 -0.0614 -1.4197
  140OSM    C2S15303   1.454   0.929   7.629 -0.8714 -0.5238 -0.2104
  140OSM    H2S15304   1.556   0.972   7.621 -1.6147  1.4002  0.1870
  140OSM    C3S15305   1.473   0.773   7.616 -0.5484  1.0534 -0.1908
  140OSM    H3S15306   1.375   0.729   7.645 -1.4041  3.4753  0.8766
  140OSM     O315307   1.562   0.715   7.718  0.9619  0.0543  0.1308
  140OSM    HO315308   1.543   0.783   7.782 -2.5191  0.6465 -1.2985
  140OSM    C4S15309   1.526   0.738   7.483  0.4482 -0.4183  0.6331
  140OSM    H4S15310   1.459   0.679   7.418 -1.5861  0.5020  1.8080
  140OSM    C5S15311   1.650   0.766   7.442  0.1707  0.4482  0.6011
  140OSM    H5S15312   1.722   0.805   7.515  3.0383 -0.5487 -1.5175
  140OSM    C6S15313   1.708   0.733   7.304  0.4036  0.3833 -0.1291
  140OSM    H6S15314   1.631   0.673   7.251  0.5050 -0.7605  0.9714
  140OSM    H6T15315   1.807   0.682   7.306 -0.9451 -2.4474 -0.8422
  140OSM    C7S15316   1.718   0.868   7.226  0.2755  0.2829 -1.0437
  140OSM    H7S15317   1.798   0.934   7.264 -0.5664  1.5229 -1.3827
  140OSM    H7T15318   1.621   0.922   7.232  0.7512  0.9854  1.4819
  140OSM    C8S15319   1.746   0.842   7.078  0.1227  0.0560 -0.3325
  140OSM    H8S15320   1.653   0.799   7.034  0.2624  0.8468 -1.4635
  140OSM    H8T15321   1.834   0.779   7.055  0.5070  0.3934  0.2024
  140OSM    C9S15322   1.775   0.974   7.000  0.2647  0.3038 -0.0648
  140OSM    H9S15323   1.838   1.047   7.056 -0.7253  1.4320 -0.3892
  140OSM    H9T15324   1.680   1.027   6.979 -0.1688 -1.0670 -1.8189
  140OSM   C10S15325   1.847   0.963   6.866  0.5857  0.3541  0.4813
  140OSM   H10S15326   1.777   0.910   6.797 -0.2041  0.7558  0.9619
  140OSM   H10T15327   1.948   0.916   6.866  0.2897 -0.3466 -0.9991
  140OSM   C11S15328   1.882   1.106   6.796  0.2084  0.4891 -0.6810
  140OSM   H11S15329   1.966   1.162   6.844 -0.2902 -0.5543  1.5493
  140OSM   H11T15330   1.798   1.179   6.806 -1.7262 -1.7189 -0.0806
  140OSM   C12S15331   1.906   1.093   6.647  0.2779 -0.2916  0.5108
  140OSM   H12S15332   1.822   1.035   6.603  0.1686 -0.0123  0.3476
  140OSM   H12T15333   1.997   1.030   6.642 -0.9221 -2.2394  1.9768
  140OSM   C13S15334   1.919   1.227   6.583  0.2487  0.0591 -0.6194
  140OSM   H13S15335   2.002   1.285   6.631  1.3149 -1.9013 -0.0033
  140OSM   H13T15336   1.831   1.294   6.578 -0.6140 -0.7400  1.9893
  140OSM   C14S15337   1.952   1.202   6.435 -0.5691 -1.0469 -0.5460
  140OSM   H14S15338   1.878   1.136   6.386 -2.5693 -0.3853  1.4214
  140OSM   H14T15339   2.050   1.150   6.440 -0.6495 -1.3336 -1.6913
  140OSM   C15S15340   1.972   1.336   6.355  0.3652  0.0517  0.1657
  140OSM   H15S15341   2.033   1.402   6.420 -0.7601  0.8446  0.4462
  140OSM   H15T15342   1.872   1.383   6.347 -0.0543 -0.8179  0.1991
  140OSM   C16S15343   2.041   1.309   6.219 -0.0566  0.1164 -1.1596
  140OSM   H16S15344   1.974   1.241   6.162  1.7610  0.3214 -3.7114
  140OSM   H16T15345   2.136   1.253   6.232 -0.3729 -0.3623 -0.8649
  140OSM   C17S15346   2.070   1.445   6.142  0.3656  0.9382 -0.0995
  140OSM   H17S15347   1.974   1.502   6.148  1.7221  3.3535 -0.2005
  140OSM   H17T15348   2.081   1.420   6.035 -1.5063 -1.5908  0.1948
  140OSM   C18S15349   2.193   1.525   6.184 -0.0740  0.4905  0.0503
  140OSM   H18S15350   2.215   1.599   6.104  0.6124  0.6006  0.3348
  140OSM   H18T15351   2.282   1.462   6.201 -1.7917 -1.6444  1.7875
  140OSM   H18U15352   2.176   1.586   6.275 -0.5526 -1.2309  1.1427
  140OSM    C1F15353   1.365   1.130   7.509 -0.2432 -0.2862 -0.0239
  140OSM     OF15354   1.449   1.204   7.566 -0.3129 -0.3306  0.7628
  140OSM    C2F15355   1.269   1.180   7.401 -0.4759 -0.0367  0.1513
  140OSM    H2F15356   1.196   1.251   7.445  0.3396  1.1691 -0.3873
  140OSM    H2G15357   1.210   1.108   7.340 -1.3023  0.6910  0.0528
  140OSM    C3F15358   1.338   1.268   7.299 -0.1135  0.0074 -0.0889
  140OSM    H3F15359   1.401   1.349   7.342 -3.6008  0.7411  4.5115
  140OSM    H3G15360   1.265   1.314   7.229 -1.6013 -1.1401  0.6356
  140OSM    C4F15361   1.438   1.183   7.214  0.4524 -0.0334  0.0934
  140OSM    H4F15362   1.498   1.119   7.282 -0.7220 -0.2988  0.9195
  140OSM    H4G15363   1.513   1.247   7.163  2.0412 -2.0195 -0.1924
  140OSM    C5F15364   1.374   1.105   7.098  0.1469  0.1437 -0.4401
  140OSM    H5F15365   1.276   1.062   7.128  1.3862 -1.3119  1.8308
  140OSM    H5G15366   1.444   1.025   7.064  1.3599  1.7008 -1.7796
  140OSM    C6F15367   1.356   1.199   6.980  0.5435 -0.2693  0.0430
  140OSM    H6F15368   1.313   1.290   7.029  1.1785 -0.3937  0.8544
  140OSM    H6G15369   1.274   1.158   6.918 -0.2811 -2.0028  2.1553
  140OSM    C7F15370   1.470   1.228   6.892 -0.3877 -0.2331  0.4437
  140OSM    H7F15371   1.518   1.133   6.861  2.4333  1.2656 -0.1654
  140OSM    H7G15372   1.543   1.287   6.952 -0.1702 -1.5701  1.5601
  140OSM    C8F15373   1.429   1.314   6.771  0.1256 -0.6119  0.1583
  140OSM    H8F15374   1.520   1.350   6.717  2.5729 -4.3665  1.3494
  140OSM    H8G15375   1.376   1.405   6.806  1.0804 -1.0044  2.8205
  140OSM    C9F15376   1.334   1.262   6.664 -0.4055 -0.5519  0.3899
  140OSM    H9F15377   1.228   1.278   6.690  0.0361  0.5340  1.6316
  140OSM   C10F15378   1.366   1.199   6.550  0.5769 -0.1996 -1.0719
  140OSM   H10F15379   1.288   1.186   6.473 -4.7775 -0.3635  3.7250
  140OSM   C11F15380   1.508   1.172   6.503  0.5380 -0.3254 -0.5889
  140OSM   H11F15381   1.557   1.085   6.552  0.3304 -0.4277 -0.5639
  140OSM   H11G15382   1.565   1.264   6.530  1.1557 -1.0862  0.8346
  140OSM   C12F15383   1.538   1.160   6.344 -0.2444 -0.5293 -0.5515
  140OSM   H12F15384   1.635   1.212   6.328  0.0825 -1.0387 -0.2609
  140OSM   H12G15385   1.457   1.215   6.290  0.6921  0.7045 -0.7344
  140OSM   C13F15386   1.547   1.021   6.283 -0.0577 -1.1867  0.1291
  140OSM   H13F15387   1.443   0.982   6.280 -0.8495  0.8598 -1.0927
  140OSM   H13G15388   1.611   0.964   6.354 -1.4400 -1.5249  1.1512
  140OSM   C14F15389   1.615   1.037   6.146  0.3949  0.1149  0.0913
  140OSM   H14F15390   1.713   1.085   6.168  0.9332 -0.5241 -0.8121
  140OSM   H14G15391   1.566   1.110   6.079  1.0264 -0.5377 -1.1163
  140OSM   C15F15392   1.637   0.904   6.079  0.7536  0.0025  0.5480
  140OSM   H15F15393   1.540   0.879   6.032  1.5355  0.3437 -1.3662
  140OSM   H15G15394   1.661   0.825   6.153  0.9157 -0.3186  0.1580
  140OSM   C16F15395   1.748   0.907   5.965  0.2217 -0.0578 -0.0423
  140OSM   H16F15396   1.829   0.965   6.013  0.8392 -0.2041 -0.8821
  140OSM   H16G15397   1.695   0.968   5.888  0.1933 -1.0324 -0.8093
  140OSM   C17F15398   1.800   0.773   5.913  0.5554 -0.3487  0.0376
  140OSM   H17F15399   1.827   0.713   6.003  0.7329  2.8157  2.2626
  140OSM   H17G15400   1.895   0.781   5.856  0.8635  0.7615  0.6696
  140OSM   C18F15401   1.704   0.697   5.822  0.0701  0.2420 -0.0389
  140OSM   H18F15402   1.736   0.594   5.792  3.3880  1.4712 -1.1796
  140OSM   H18G15403   1.706   0.752   5.725  0.8922 -0.5274 -0.4825
  140OSM   H18H15404   1.606   0.692   5.873  0.8733  0.7385  1.6348
  141OSM      N15405   0.014   1.483   7.470  0.4081 -0.0219  0.0291
  141OSM    C1515406   0.130   1.514   7.368  0.2792 -0.0349 -0.4020
  141OSM   H15A15407   0.152   1.619   7.380 -1.0066  0.3351 -1.1062
  141OSM   H15B15408   0.093   1.498   7.268  0.0559 -0.8711 -0.1920
  141OSM   H15C15409   0.212   1.449   7.396 -1.0586 -1.9747 -0.8519
  141OSM    C1415410  -0.103   1.543   7.413  0.0975 -0.0124  0.3597
  141OSM   H14A15411  -0.097   1.524   7.307 -1.5134 -0.2421  0.2799
  141OSM   H14B15412  -0.100   1.651   7.425 -2.0026  0.3462 -1.6729
  141OSM   H14C15413  -0.188   1.500   7.463 -0.7706  0.8189 -0.3633
  141OSM    C1315414  -0.004   1.338   7.482  0.0955  0.0945 -0.0083
  141OSM   H13A15415   0.081   1.289   7.527  0.8095 -1.8066 -3.0922
  141OSM   H13B15416  -0.005   1.289   7.386  2.8999  1.2777 -0.7443
  141OSM   H13C15417  -0.083   1.311   7.550  0.1879  1.1872  0.5532
  141OSM    C1215418   0.058   1.539   7.606  0.0371 -0.8085 -0.6696
  141OSM   H12A15419   0.142   1.481   7.642 -0.5415 -1.7943 -0.8705
  141OSM   H12B15420  -0.019   1.514   7.677 -3.4578  1.9139 -3.1793
  141OSM    C1115421   0.083   1.696   7.625  0.7165 -0.3254 -0.0852
  141OSM   H11A15422   0.094   1.714   7.734  1.5227 -0.4818 -0.1371
  141OSM   H11B15423  -0.011   1.753   7.610 -0.1048 -0.9768  2.0867
  141OSM      P15424   0.335   1.742   7.585 -0.1418  0.1104 -0.1071
  141OSM    O1315425   0.367   1.818   7.709  0.2411  0.0835 -0.2428
  141OSM    O1415426   0.368   1.594   7.599  0.0901 -0.7823  0.4693
  141OSM    O1115427   0.398   1.806   7.454 -0.2193  0.2589 -0.0421
  141OSM    O1215428   0.184   1.751   7.548 -0.0478  0.6687  0.4083
  141OSM    C1S15429   0.367   1.940   7.412 -0.1091 -0.0382 -0.6518
  141OSM    H1S15430   0.407   2.016   7.482 -1.0429 -0.5129  0.4307
  141OSM    H1T15431   0.258   1.961   7.404 -0.2714 -0.9732 -1.0447
  141OSM     NF15432   0.417   2.089   7.223 -0.1359 -0.0197  0.1037
  141OSM    HNF15433   0.336   2.109   7.168 -0.3074  0.7712  0.6144
  141OSM    C2S15434   0.426   1.955   7.270 -1.1703 -0.1373 -0.5818
  141OSM    H2S15435   0.536   1.938   7.266 -1.3384 -1.1260 -2.4560
  141OSM    C3S15436   0.363   1.842   7.175  0.2655 -0.6312  0.0889
  141OSM    H3S15437   0.253   1.858   7.180  0.4065  0.3022  0.5617
  141OSM     O315438   0.390   1.709   7.219 -0.0935  0.0560  0.4175
  141OSM    HO315439   0.394   1.719   7.314  0.4580  0.6924  0.3352
  141OSM    C4S15440   0.397   1.857   7.034  0.2311  0.0361 -0.0905
  141OSM    H4S15441   0.315   1.889   6.968  1.0090 -2.6013 -2.5432
  141OSM    C5S15442   0.506   1.815   6.969  0.1397  0.3032 -0.3054
  141OSM    H5S15443   0.574   1.752   7.028 -1.6715 -2.3915 -0.8915
  141OSM    C6S15444   0.530   1.829   6.820 -0.6684 -0.4199 -0.1678
  141OSM    H6S15445   0.433   1.848   6.767 -0.5248 -0.6643 -0.5212
  141OSM    H6T15446   0.570   1.737   6.772 -1.5473  1.0162 -4.0339
  141OSM    C7S15447   0.613   1.954   6.779  0.0094  0.7840  0.4003
  141OSM    H7S15448   0.717   1.920   6.798 -0.0374 -1.7178 -2.9433
  141OSM    H7T15449   0.592   2.036   6.852 -1.5630  0.1176  0.7325
  141OSM    C8S15450   0.608   2.003   6.638  0.1041  0.4125  0.4611
  141OSM    H8S15451   0.655   2.104   6.630  0.1684  0.4050  0.7356
  141OSM    H8T15452   0.500   2.013   6.615  0.2215 -0.3196 -0.4911
  141OSM    C9S15453   0.686   1.916   6.537 -0.9347  0.4666 -0.0505
  141OSM    H9S15454   0.632   1.820   6.527 -1.6401  0.9107 -0.6107
  141OSM    H9T15455   0.784   1.891   6.583 -1.9358 -2.4045  0.7009
  141OSM   C10S15456   0.707   1.972   6.398 -0.2427 -0.4465 -0.0353
  141OSM   H10S15457   0.807   1.944   6.359 -0.3112 -0.4161 -0.2325
  141OSM   H10T15458   0.699   2.082   6.399  0.0596 -0.4141  1.7066
  141OSM   C11S15459   0.606   1.906   6.301 -0.3081 -0.2226 -0.0654
  141OSM   H11S15460   0.505   1.940   6.330 -0.1158 -0.2457  0.6344
  141OSM   H11T15461   0.603   1.795   6.312 -0.1766 -0.0253  2.5607
  141OSM   C12S15462   0.619   1.960   6.158 -0.3199  0.6221 -0.3356
  141OSM   H12S15463   0.630   2.071   6.160  0.6154  0.5809 -1.8341
  141OSM   H12T15464   0.525   1.944   6.101 -0.2876 -1.4631  0.1149
  141OSM   C13S15465   0.721   1.889   6.064  0.6039 -0.1467  0.4161
  141OSM   H13S15466   0.686   1.786   6.040  0.0504  0.0521  0.3394
  141OSM   H13T15467   0.809   1.868   6.128  0.0137 -0.6490  1.0856
  141OSM   C14S15468   0.736   1.965   5.931  0.9234  0.5249 -0.9375
  141OSM   H14S15469   0.768   2.070   5.945 -0.2419  0.7358  0.2744
  141OSM   H14T15470   0.635   1.975   5.885 -0.1434  0.5866  1.2752
  141OSM   C15S15471   0.836   1.900   5.835 -0.6903  0.3459  0.6040
  141OSM   H15S15472   0.787   1.813   5.785 -3.1852  1.7681  0.4100
  141OSM   H15T15473   0.924   1.872   5.896 -0.5051 -1.4156 -0.3814
  141OSM   C16S15474   0.888   1.996   5.723 -0.6902 -0.3999 -0.0818
  141OSM   H16S15475   0.982   1.959   5.677  0.5470  1.4391  0.8463
  141OSM   H16T15476   0.921   2.089   5.774 -0.8969  0.0459 -0.7603
  141OSM   C17S15477   0.797   2.041   5.604 -0.4800 -0.3457 -0.2664
  141OSM   H17S15478   0.707   2.078   5.658 -0.0166 -0.4101  0.5716
  141OSM   H17T15479   0.768   1.963   5.531 -0.3769  0.6052 -1.3481
  141OSM   C18S15480   0.862   2.161   5.531  0.2548 -0.4101 -0.1219
  141OSM   H18S15481   0.970   2.141   5.512  0.3438 -1.0935  0.9773
  141OSM   H18T15482   0.859   2.252   5.595  0.2063  0.7846 -1.7461
  141OSM   H18U15483   0.803   2.193   5.443  0.4565 -0.3097 -0.2223
  141OSM    C1F15484   0.496   2.183   7.263  0.4639 -1.2774  0.3260
  141OSM     OF15485   0.567   2.183   7.363 -0.1370  0.2544 -0.0708
  141OSM    C2F15486   0.485   2.305   7.176 -0.0727  0.3400  0.3650
  141OSM    H2F15487   0.385   2.352   7.190  0.6203  1.5083  1.5825
  141OSM    H2G15488   0.492   2.267   7.072  1.0806  2.3261 -0.3192
  141OSM    C3F15489   0.604   2.400   7.180 -0.4960 -0.0762  0.0928
  141OSM    H3F15490   0.697   2.347   7.152 -0.9762  0.2756 -2.3700
  141OSM    H3G15491   0.622   2.427   7.287 -1.6493 -0.8579  0.5059
  141OSM    C4F15492   0.588   2.527   7.089  0.0670  0.3881 -0.5629
  141OSM    H4F15493   0.657   2.602   7.133 -1.6140  1.6995 -0.0721
  141OSM    H4G15494   0.482   2.560   7.096  0.2496  0.8550  0.0860
  141OSM    C5F15495   0.610   2.493   6.952 -0.0622  0.5851  0.6957
  141OSM    H5F15496   0.527   2.441   6.900  0.0467  1.2734 -0.1963
  141OSM    H5G15497   0.698   2.424   6.953 -0.9909 -0.6403  0.3552
  141OSM    C6F15498   0.629   2.624   6.873 -0.0743 -0.3372  0.2858
  141OSM    H6F15499   0.726   2.670   6.902  0.5071 -1.3269 -0.0360
  141OSM    H6G15500   0.543   2.689   6.900 -0.5954 -0.2713 -1.3982
  141OSM    C7F15501   0.640   2.594   6.719 -0.2870  0.0161 -0.3537
  141OSM    H7F15502   0.547   2.541   6.686  0.2277 -0.0604 -1.7539
  141OSM    H7G15503   0.722   2.519   6.713  1.9664  2.1669  1.4615
  141OSM    C8F15504   0.668   2.705   6.620 -0.5499 -0.4072  0.5882
  141OSM    H8F15505   0.697   2.682   6.515 -0.3831  1.6546  0.1456
  141OSM    H8G15506   0.762   2.752   6.656  1.2647 -4.5208  1.7696
  141OSM    C9F15507   0.555   2.796   6.618  0.5267  0.4605 -0.4905
  141OSM    H9F15508   0.470   2.764   6.679  0.8326  2.5532  1.1750
  141OSM   C10F15509   0.552   2.905   6.542  0.3575  0.3229  0.5562
  141OSM   H10F15510   0.471   2.978   6.560 -0.4721 -0.4575  0.0638
  141OSM   C11F15511   0.659   2.943   6.437  0.1760  0.3857  0.1717
  141OSM   H11F15512   0.730   2.860   6.417 -2.1938 -1.6866 -0.1455
  141OSM   H11G15513   0.712   3.036   6.465 -0.8348  0.8233  0.7060
  141OSM   C12F15514   0.577   2.966   6.311  0.7256  0.1094 -0.2774
  141OSM   H12F15515   0.515   3.057   6.328 -0.1989 -0.6605  0.5546
  141OSM   H12G15516   0.511   2.884   6.277 -1.0196  1.4863 -0.3673
  141OSM   C13F15517   0.666   3.016   6.195  0.4602 -0.5125 -0.2478
  141OSM   H13F15518   0.719   3.110   6.223 -0.0989 -0.4601  0.6519
  141OSM   H13G15519   0.602   3.059   6.115  0.4985  1.3833  0.6911
  141OSM   C14F15520   0.759   2.905   6.134 -0.1163 -0.1380  0.1343
  141OSM   H14F15521   0.705   2.807   6.130  2.8844 -1.9695  1.2843
  141OSM   H14G15522   0.838   2.887   6.210 -2.9921 -0.1872  3.3786
  141OSM   C15F15523   0.802   2.944   5.993  0.0274 -0.7105 -0.5554
  141OSM   H15F15524   0.845   3.046   5.994  0.1265 -0.7578  0.0979
  141OSM   H15G15525   0.720   2.946   5.917 -0.9710 -0.6600  0.5050
  141OSM   C16F15526   0.907   2.846   5.941  0.5891  0.2905 -0.2733
  141OSM   H16F15527   0.861   2.746   5.951  2.0396 -0.3439  0.3500
  141OSM   H16G15528   0.995   2.851   6.009 -1.4945 -2.6842  2.9600
  141OSM   C17F15529   0.940   2.848   5.789 -0.3173  0.7962  0.9793
  141OSM   H17F15530   1.023   2.779   5.761 -0.4850  1.0593 -0.2322
  141OSM   H17G15531   0.970   2.952   5.765 -0.7151  0.9768  1.2665
  141OSM   C18F15532   0.819   2.811   5.707  0.0072 -0.3590 -0.4055
  141OSM   H18F15533   0.837   2.786   5.600  3.5375 -0.6434  0.1393
  141OSM   H18G15534   0.748   2.897   5.715  0.9028  0.5876 -2.0189
  141OSM   H18H15535   0.766   2.732   5.764  0.4378  0.1741  0.7638
  142OSM      N15536   0.752   0.238   7.783 -0.6904  0.5554  0.5793
  142OSM    C1515537   0.763   0.221   7.632 -0.2163  0.4578  0.3691
  142OSM   H15A15538   0.813   0.128   7.613 -0.6281  0.5841 -1.5404
  142OSM   H15B15539   0.815   0.304   7.586  0.0059 -0.0629 -0.3367
  142OSM   H15C15540   0.671   0.206   7.576 -1.6705  1.5073  2.3396
  142OSM    C1415541   0.676   0.361   7.804 -0.4903  0.1259 -0.0112
  142OSM   H14A15542   0.731   0.450   7.777 -1.3266  0.8506  0.6204
  142OSM   H14B15543   0.640   0.355   7.906 -0.0825 -1.8556  0.0497
  142OSM   H14C15544   0.593   0.353   7.735 -1.1781 -0.7591  0.8916
  142OSM    C1315545   0.687   0.123   7.859  0.4136 -0.9487  0.2831
  142OSM   H13A15546   0.590   0.109   7.815  0.0156  3.7435 -0.8611
  142OSM   H13B15547   0.676   0.152   7.962 -0.9648 -2.5925  0.6438
  142OSM   H13C15548   0.733   0.026   7.849 -0.5765 -1.4915  0.8018
  142OSM    C1215549   0.895   0.237   7.841 -0.0077  0.5350  0.3255
  142OSM   H12A15550   0.940   0.139   7.836 -0.5363  0.3007  0.1314
  142OSM   H12B15551   0.892   0.270   7.944 -0.1887 -1.2920  0.9359
  142OSM    C1115552   1.000   0.323   7.758  0.7405  0.3907  0.2442
  142OSM   H11A15553   1.040   0.280   7.663 -1.0929 -0.0860 -0.3497
  142OSM   H11B15554   1.090   0.319   7.823  0.3729 -1.0769  0.7014
  142OSM      P15555   0.976   0.536   7.606 -0.1344 -0.0526  0.2718
  142OSM    O1315556   0.886   0.650   7.609  0.3658 -0.0296 -0.6693
  142OSM    O1415557   1.112   0.579   7.586 -0.1932  0.1396  0.6921
  142OSM    O1115558   0.936   0.434   7.490  0.4205  0.3778 -0.3214
  142OSM    O1215559   0.966   0.455   7.737 -0.2176 -0.1406  0.1534
  142OSM    C1S15560   0.887   0.476   7.360 -0.3709 -0.1009  0.0011
  142OSM    H1S15561   0.879   0.585   7.342 -2.0726 -0.6785 -3.9190
  142OSM    H1T15562   0.792   0.424   7.333 -0.1277  0.2646 -1.6682
  142OSM     NF15563   0.948   0.464   7.120  0.3022  0.4062 -0.1189
  142OSM    HNF15564   0.929   0.389   7.056  1.1344 -0.1680  0.2912
  142OSM    C2S15565   0.990   0.420   7.249 -0.7774  0.0760  0.1087
  142OSM    H2S15566   1.088   0.466   7.272  0.2715 -1.1789 -1.6482
  142OSM    C3S15567   1.003   0.265   7.254  0.3561  0.1940 -0.6750
  142OSM    H3S15568   0.904   0.224   7.224  0.0416 -1.2536  1.9934
  142OSM     O315569   1.008   0.209   7.390 -0.0749 -0.3367  0.4434
  142OSM    HO315570   0.987   0.289   7.439  0.4206  0.7494 -1.0412
  142OSM    C4S15571   1.108   0.204   7.164  0.7998  0.6103  0.1451
  142OSM    H4S15572   1.069   0.173   7.066  0.9593 -1.3541  0.6716
  142OSM    C5S15573   1.234   0.172   7.191 -0.2042 -0.0739  0.1967
  142OSM    H5S15574   1.275   0.187   7.293 -0.0196  2.0539 -0.1420
  142OSM    C6S15575   1.320   0.106   7.079 -0.1304  0.6411  0.3052
  142OSM    H6S15576   1.366   0.015   7.122 -0.8561  0.7220  1.2952
  142OSM    H6T15577   1.402   0.178   7.056 -0.3168  0.6068 -0.5021
  142OSM    C7S15578   1.278   0.080   6.930 -0.0055 -0.2282  0.1757
  142OSM    H7S15579   1.244   0.170   6.874  1.6345 -0.3357 -1.0737
  142OSM    H7T15580   1.205  -0.003   6.939 -1.0064  0.6003 -0.1453
  142OSM    C8S15581   1.395   0.030   6.843  0.5728  0.1446  0.6353
  142OSM    H8S15582   1.435  -0.061   6.891  0.5748  0.3736  1.0690
  142OSM    H8T15583   1.483   0.098   6.840  3.3377 -3.2299 -1.1313
  142OSM    C9S15584   1.363   0.002   6.693 -0.2481  0.3852  0.4320
  142OSM    H9S15585   1.326   0.090   6.637 -0.6789 -0.2055 -0.2231
  142OSM    H9T15586   1.287  -0.079   6.693  0.3176 -0.1462  0.3559
  142OSM   C10S15587   1.488  -0.051   6.621 -0.2686  0.1215  0.0202
  142OSM   H10S15588   1.547  -0.117   6.689  4.0363  2.8777 -0.6540
  142OSM   H10T15589   1.558   0.032   6.597 -0.8765  0.5288 -0.3422
  142OSM   C11S15590   1.458  -0.122   6.489  0.0004  0.3102  0.3740
  142OSM   H11S15591   1.384  -0.058   6.438  2.1917  2.8255  0.1007
  142OSM   H11T15592   1.407  -0.219   6.508 -1.4313  1.1762  1.1098
  142OSM   C12S15593   1.572  -0.135   6.382 -0.2446 -0.1760 -0.4697
  142OSM   H12S15594   1.655  -0.183   6.439 -1.5213 -0.1916  1.4712
  142OSM   H12T15595   1.616  -0.038   6.351 -2.1944  1.1017  0.5927
  142OSM   C13S15596   1.525  -0.214   6.262  0.1342 -0.3306 -0.1429
  142OSM   H13S15597   1.436  -0.159   6.223  1.5148  1.6111 -0.7233
  142OSM   H13T15598   1.485  -0.310   6.299 -1.1473 -0.2265 -1.1892
  142OSM   C14S15599   1.629  -0.234   6.147 -0.1887  0.6534 -0.4232
  142OSM   H14S15600   1.651  -0.136   6.100 -1.3050  0.7902 -0.6753
  142OSM   H14T15601   1.588  -0.293   6.062  1.7078  0.7013 -1.4232
  142OSM   C15S15602   1.756  -0.302   6.198 -0.1376  0.3264 -0.0264
  142OSM   H15S15603   1.723  -0.397   6.245 -1.3392 -0.2858 -2.0081
  142OSM   H15T15604   1.796  -0.232   6.275  1.4979 -0.5407 -0.0394
  142OSM   C16S15605   1.876  -0.323   6.107  0.8517  0.0450 -0.3399
  142OSM   H16S15606   1.905  -0.222   6.071 -1.0245  0.3252 -1.1851
  142OSM   H16T15607   1.856  -0.384   6.016 -0.0039 -0.3382  0.0948
  142OSM   C17S15608   1.994  -0.375   6.184 -0.6415 -0.2862 -0.3446
  142OSM   H17S15609   1.955  -0.442   6.264 -1.7417  2.2169  1.3584
  142OSM   H17T15610   2.038  -0.300   6.252  0.0486 -0.0777 -1.0154
  142OSM   C18S15611   2.115  -0.430   6.107 -0.3306  0.2657 -0.2293
  142OSM   H18S15612   2.148  -0.346   6.043 -1.1576 -0.0091 -1.0502
  142OSM   H18T15613   2.089  -0.520   6.046  0.1534 -0.1192  0.1281
  142OSM   H18U15614   2.189  -0.473   6.178 -3.1127  0.2097  2.9019
  142OSM    C1F15615   0.939   0.590   7.090 -0.6563  0.5513 -0.5260
  142OSM     OF15616   0.988   0.676   7.160 -0.1056 -0.2396 -0.3135
  142OSM    C2F15617   0.861   0.629   6.968  0.5057 -0.3841  0.3814
  142OSM    H2F15618   0.752   0.613   6.985  0.2105 -0.7003 -1.5777
  142OSM    H2G15619   0.893   0.559   6.888  0.4969  0.6618 -0.5597
  142OSM    C3F15620   0.892   0.769   6.905  0.1664  0.1332  0.6714
  142OSM    H3F15621   1.002   0.788   6.908  0.5095 -1.1547 -1.5809
  142OSM    H3G15622   0.846   0.856   6.958  3.2902  2.0777  0.4779
  142OSM    C4F15623   0.841   0.767   6.761 -0.2259 -0.3023  0.6753
  142OSM    H4F15624   0.819   0.872   6.732 -2.3238 -0.8728  0.0190
  142OSM    H4G15625   0.748   0.706   6.754 -0.1145 -0.2468 -2.4982
  142OSM    C5F15626   0.941   0.709   6.656  0.6692 -0.4416 -0.0544
  142OSM    H5F15627   0.897   0.706   6.554  1.5396  0.6883 -0.4987
  142OSM    H5G15628   0.976   0.607   6.683  1.5605  0.0352  0.6442
  142OSM    C6F15629   1.063   0.808   6.638 -0.3326 -0.1512  0.0397
  142OSM    H6F15630   1.118   0.812   6.734 -0.8962 -0.6720  0.3904
  142OSM    H6G15631   1.019   0.910   6.630 -0.0475 -0.0729 -0.6348
  142OSM    C7F15632   1.148   0.767   6.518  0.0563  0.0640  1.1421
  142OSM    H7F15633   1.148   0.656   6.510 -2.2008 -0.0454  1.8259
  142OSM    H7G15634   1.250   0.805   6.536  1.4843 -3.3653  1.0477
  142OSM    C8F15635   1.096   0.813   6.384  0.9900 -0.4255  0.2635
  142OSM    H8F15636   0.995   0.772   6.365  0.7385  0.6451 -0.8582
  142OSM    H8G15637   1.162   0.761   6.312  0.6322 -1.0499  0.3841
  142OSM    C9F15638   1.096   0.960   6.364  0.4999  0.1551 -0.2537
  142OSM    H9F15639   1.054   1.032   6.436 -0.9186  1.9855 -2.7572
  142OSM   C10F15640   1.140   1.024   6.260 -0.1957  0.2505  0.2299
  142OSM   H10F15641   1.148   1.133   6.265  2.0178  0.1484 -0.2406
  142OSM   C11F15642   1.195   0.964   6.131  0.2957 -0.4870 -0.4134
  142OSM   H11F15643   1.114   0.903   6.086 -0.3848 -0.5854  0.8896
  142OSM   H11G15644   1.284   0.904   6.161 -0.3243 -2.7806 -2.8445
  142OSM   C12F15645   1.240   1.078   6.040  0.1817 -0.0511 -0.1495
  142OSM   H12F15646   1.332   1.120   6.086  0.0206 -1.0388  1.1408
  142OSM   H12G15647   1.165   1.159   6.030 -1.9490 -1.7052  1.3865
  142OSM   C13F15648   1.273   1.024   5.901  0.0792  0.4778 -0.2044
  142OSM   H13F15649   1.178   0.984   5.860 -0.5770 -0.2629  1.9206
  142OSM   H13G15650   1.338   0.935   5.912  1.3283  0.9871 -2.7167
  142OSM   C14F15651   1.339   1.125   5.800  0.0676 -0.0711  0.3217
  142OSM   H14F15652   1.432   1.160   5.848 -0.1765  0.9089  0.1085
  142OSM   H14G15653   1.279   1.218   5.785  0.8335  0.6563  1.5921
  142OSM   C15F15654   1.373   1.057   5.653  0.3254  0.2111  0.2884
  142OSM   H15F15655   1.423   0.959   5.666  2.1698  0.8658 -1.3728
  142OSM   H15G15656   1.443   1.131   5.609  1.8805 -1.1368  0.4183
  142OSM   C16F15657   1.255   1.053   5.560 -0.4262 -0.0955  0.2113
  142OSM   H16F15658   1.165   1.029   5.621  0.1871 -2.3199  0.3427
  142OSM   H16G15659   1.251   0.965   5.492  0.6752  0.1413 -0.1681
  142OSM   C17F15660   1.234   1.182   5.481 -0.6914 -0.3192  0.2670
  142OSM   H17F15661   1.317   1.202   5.410  0.9229 -1.7500  1.6670
  142OSM   H17G15662   1.231   1.267   5.554  0.6939 -0.5790  0.6457
  142OSM   C18F15663   1.109   1.178   5.400  0.1363  0.1597  0.0084
  142OSM   H18F15664   1.019   1.164   5.463 -0.0706 -0.7992 -0.4758
  142OSM   H18G15665   1.125   1.103   5.320 -2.0293  0.9423 -1.2775
  142OSM   H18H15666   1.085   1.279   5.361 -0.3937  0.6739  1.5823
  143OSM      N15667   1.377   2.075   8.078 -0.1099 -0.1091  0.3048
  143OSM    C1515668   1.311   2.164   7.975  0.5821  0.3395 -0.0523
  143OSM   H15A15669   1.216   2.124   7.944  0.8001 -0.4991  0.3299
  143OSM   H15B15670   1.371   2.180   7.887 -1.7182 -1.2202 -2.0508
  143OSM   H15C15671   1.275   2.252   8.026 -2.5749 -0.7128 -0.2265
  143OSM    C1415672   1.276   2.031   8.180 -0.0233  0.2169  0.4848
  143OSM   H14A15673   1.221   2.107   8.235 -1.9723 -2.0976  1.9244
  143OSM   H14B15674   1.308   1.953   8.246 -1.1194 -2.2700 -1.7275
  143OSM   H14C15675   1.201   1.972   8.128 -0.1312  0.6735  0.1071
  143OSM    C1315676   1.438   1.955   8.014 -0.2791  0.1049 -0.0197
  143OSM   H13A15677   1.515   1.978   7.941 -0.8333  0.0571 -0.6345
  143OSM   H13B15678   1.364   1.889   7.970  1.8124 -2.8271  0.5411
  143OSM   H13C15679   1.491   1.896   8.087  0.1945  1.5334  0.8217
  143OSM    C1215680   1.480   2.159   8.151  0.2626 -0.0543  0.2582
  143OSM   H12A15681   1.506   2.111   8.245 -0.1909 -1.4638 -0.3066
  143OSM   H12B15682   1.417   2.242   8.180  0.0934  0.0998 -0.5405
  143OSM    C1115683   1.608   2.204   8.090  0.1242  0.0357 -0.3801
  143OSM   H11A15684   1.595   2.233   7.983  0.5794 -0.0845 -0.4677
  143OSM   H11B15685   1.672   2.114   8.092 -0.4627 -0.4086 -1.1056
  143OSM      P15686   1.621   2.454   8.162  0.3655 -0.1401 -0.1881
  143OSM    O1315687   1.470   2.466   8.184  0.3883  0.3544  0.1082
  143OSM    O1415688   1.707   2.523   8.251  0.3250  0.1940 -0.4187
  143OSM    O1115689   1.656   2.507   8.018 -0.5790 -0.3432 -0.1217
  143OSM    O1215690   1.662   2.312   8.165 -0.3204  0.1945  0.2600
  143OSM    C1S15691   1.648   2.648   7.993  0.2019  0.0181 -0.1244
  143OSM    H1S15692   1.719   2.705   8.058 -1.2942 -0.3987  1.9688
  143OSM    H1T15693   1.546   2.685   8.016 -0.0785 -0.5805 -0.3957
  143OSM     NF15694   1.697   2.824   7.830  0.1638  1.2350 -0.2582
  143OSM    HNF15695   1.616   2.876   7.802 -0.4848  1.2563  1.5406
  143OSM    C2S15696   1.677   2.684   7.844  0.4786 -0.6029 -0.0374
  143OSM    H2S15697   1.776   2.640   7.822  0.0421 -1.2245 -0.8113
  143OSM    C3S15698   1.580   2.608   7.745 -0.9597  0.2295 -0.6987
  143OSM    H3S15699   1.491   2.674   7.744  0.7645  2.6817 -1.4514
  143OSM     O315700   1.531   2.483   7.792  0.0806 -0.0094 -0.6554
  143OSM    HO315701   1.561   2.472   7.883 -0.6086 -0.8055 -0.5163
  143OSM    C4S15702   1.648   2.591   7.608 -0.0803  0.3215  0.1745
  143OSM    H4S15703   1.624   2.665   7.531  0.8301  0.3114 -0.1331
  143OSM    C5S15704   1.718   2.484   7.571 -0.1122 -0.2340 -0.5399
  143OSM    H5S15705   1.739   2.402   7.642  1.2724 -0.6110 -1.3315
  143OSM    C6S15706   1.783   2.474   7.433 -0.3837  0.2484  0.1044
  143OSM    H6S15707   1.706   2.428   7.368 -2.6790  0.3538  2.5709
  143OSM    H6T15708   1.867   2.401   7.440  1.6467  2.1164 -2.4933
  143OSM    C7S15709   1.836   2.595   7.364 -0.6406  0.3711  0.5650
  143OSM    H7S15710   1.913   2.642   7.429  0.8383 -1.1691 -0.0058
  143OSM    H7T15711   1.761   2.676   7.348  1.5221  2.3032 -0.4822
  143OSM    C8S15712   1.896   2.556   7.230  0.2893  0.1295  0.4948
  143OSM    H8S15713   1.819   2.500   7.174  1.5311 -0.5479 -0.6086
  143OSM    H8T15714   1.992   2.501   7.243  0.1600 -0.1662  0.2099
  143OSM    C9S15715   1.928   2.689   7.145 -0.6465  0.2787  0.1281
  143OSM    H9S15716   1.969   2.772   7.206 -2.2470  2.2889 -1.4056
  143OSM    H9T15717   1.832   2.735   7.117 -1.3106 -0.9993  0.2322
  143OSM   C10S15718   2.005   2.667   7.018 -0.4476  0.0577  0.7518
  143OSM   H10S15719   2.111   2.636   7.031 -0.5246 -0.4376  0.2335
  143OSM   H10T15720   2.010   2.771   6.979 -3.8268 -0.1905 -0.7326
  143OSM   C11S15721   1.939   2.585   6.914 -0.2602  0.4370 -0.0951
  143OSM   H11S15722   1.838   2.624   6.890 -1.1005 -1.8029 -0.5214
  143OSM   H11T15723   1.916   2.481   6.949 -0.3560 -0.0972 -1.6486
  143OSM   C12S15724   2.023   2.571   6.788  0.8532  0.1561  0.0806
  143OSM   H12S15725   2.122   2.524   6.805  0.8987  0.2464  0.0660
  143OSM   H12T15726   2.033   2.677   6.759  0.4618  0.0024 -0.6477
  143OSM   C13S15727   1.945   2.497   6.674 -0.3116 -0.7649 -0.7365
  143OSM   H13S15728   1.850   2.553   6.665 -0.7312 -1.0193  1.4842
  143OSM   H13T15729   1.916   2.394   6.703 -0.4396 -1.3499 -2.7854
  143OSM   C14S15730   2.028   2.486   6.547 -0.0222  0.0176  0.2693
  143OSM   H14S15731   2.118   2.425   6.572 -0.6843 -0.0295  2.7973
  143OSM   H14T15732   2.049   2.585   6.502 -0.3286 -0.4462 -0.9344
  143OSM   C15S15733   1.943   2.431   6.431  0.0539  0.9721  0.2170
  143OSM   H15S15734   1.884   2.521   6.403 -0.6297  1.4064  2.7600
  143OSM   H15T15735   1.871   2.353   6.463 -0.6445  2.0921  1.4785
  143OSM   C16S15736   2.012   2.366   6.312  0.0669 -0.1475 -0.1366
  143OSM   H16S15737   1.944   2.307   6.247  0.0789  0.7732 -1.0093
  143OSM   H16T15738   2.080   2.287   6.351 -2.3901 -1.1109  2.5784
  143OSM   C17S15739   2.087   2.460   6.214  0.1828 -0.5760 -0.1469
  143OSM   H17S15740   2.158   2.517   6.278  2.2531 -0.0442 -2.7495
  143OSM   H17T15741   2.026   2.537   6.161  2.1181  0.2286 -1.3135
  143OSM   C18S15742   2.142   2.387   6.088  0.1586  0.2408  0.4430
  143OSM   H18S15743   2.059   2.349   6.025  1.1522 -1.0079 -0.1908
  143OSM   H18T15744   2.200   2.300   6.129  0.1139 -0.7300 -1.4473
  143OSM   H18U15745   2.214   2.452   6.034 -1.1613 -1.0622 -3.1839
  143OSM    C1F15746   1.799   2.892   7.886 -0.0492 -0.1140 -0.2275
  143OSM     OF15747   1.890   2.833   7.939 -0.2639  0.0494  0.9069
  143OSM    C2F15748   1.790   3.038   7.896 -0.1692 -0.1607  0.1628
  143OSM    H2F15749   1.839   3.073   7.990  1.7769 -0.5919 -0.6417
  143OSM    H2G15750   1.684   3.070   7.881 -0.5578  0.8203  3.9701
  143OSM    C3F15751   1.887   3.086   7.785  0.1253 -0.6554 -0.8346
  143OSM    H3F15752   1.992   3.057   7.807  0.7131  0.0093 -2.5416
  143OSM    H3G15753   1.870   3.196   7.783 -0.9711 -0.7380  1.3852
  143OSM    C4F15754   1.865   3.043   7.645 -0.3006 -0.5774  0.3382
  143OSM    H4F15755   1.761   3.067   7.616  0.4710  0.7296 -1.5691
  143OSM    H4G15756   1.876   2.933   7.651 -2.5215 -0.7698  3.8994
  143OSM    C5F15757   1.972   3.092   7.543 -0.0779 -0.5009  1.0389
  143OSM    H5F15758   2.063   3.030   7.556  0.8534  0.6062  0.0300
  143OSM    H5G15759   2.002   3.198   7.556 -1.2043 -0.2740  1.9824
  143OSM    C6F15760   1.926   3.068   7.396  1.0086  0.3291  0.1501
  143OSM    H6F15761   1.829   3.121   7.390  0.8538 -0.0942 -1.2097
  143OSM    H6G15762   1.916   2.958   7.386  0.6784  0.2930  0.8293
  143OSM    C7F15763   2.033   3.133   7.300 -0.4149  0.2737 -0.9435
  143OSM    H7F15764   2.118   3.062   7.305 -1.2891 -0.7620  0.2624
  143OSM    H7G15765   2.066   3.225   7.352  1.5894 -0.8204 -0.1827
  143OSM    C8F15766   1.981   3.148   7.157  0.9757 -0.2326 -0.0584
  143OSM    H8F15767   1.888   3.209   7.157 -0.0459 -1.7214 -0.8277
  143OSM    H8G15768   1.972   3.041   7.128  0.0665 -0.0145 -0.6052
  143OSM    C9F15769   2.089   3.214   7.078  0.0626 -0.2768  0.0099
  143OSM    H9F15770   2.187   3.178   7.115  1.4003  3.7693  1.0361
  143OSM   C10F15771   2.085   3.301   6.975 -0.5160  0.0760  0.1281
  143OSM   H10F15772   2.185   3.337   6.947  1.3808 -3.0296  2.2973
  143OSM   C11F15773   1.967   3.364   6.900  0.1185  0.9901 -0.4881
  143OSM   H11F15774   1.900   3.416   6.972  0.9707  0.8572  0.4362
  143OSM   H11G15775   1.911   3.272   6.872  0.7613 -0.0435  1.3972
  143OSM   C12F15776   1.994   3.432   6.774  0.1947 -0.1743 -0.4147
  143OSM   H12F15777   2.034   3.531   6.803 -3.9919  1.0950  1.8933
  143OSM   H12G15778   1.894   3.454   6.731  0.4660 -1.5763 -1.8537
  143OSM   C13F15779   2.076   3.340   6.669  0.3123 -0.0573  0.2757
  143OSM   H13F15780   2.020   3.247   6.643 -0.7497  0.6308  0.0092
  143OSM   H13G15781   2.175   3.315   6.713 -0.7057 -1.0918  2.0980
  143OSM   C14F15782   2.090   3.420   6.538  0.2227  0.2457  0.0644
  143OSM   H14F15783   2.102   3.529   6.560 -0.8420  0.6000 -1.0164
  143OSM   H14G15784   2.006   3.405   6.467  1.0129 -0.0383 -0.8301
  143OSM   C15F15785   2.225   3.395   6.465  0.4615  0.2204  0.2025
  143OSM   H15F15786   2.235   3.291   6.427 -1.7332 -0.2172  0.6478
  143OSM   H15G15787   2.302   3.403   6.545 -0.9380  0.6288  1.5588
  143OSM   C16F15788   2.216   3.488   6.346 -0.3173  0.5471  0.2429
  143OSM   H16F15789   2.215   3.596   6.369 -0.6524  0.5798  0.0731
  143OSM   H16G15790   2.127   3.476   6.281 -0.6404  1.5174  0.4949
  143OSM   C17F15791   2.339   3.465   6.258  0.4247  0.1479  0.1292
  143OSM   H17F15792   2.344   3.355   6.250  1.7738  0.1723  0.3405
  143OSM   H17G15793   2.437   3.484   6.308  1.1440 -4.4801  0.8417
  143OSM   C18F15794   2.343   3.530   6.121 -0.6267  0.8188 -0.5305
  143OSM   H18F15795   2.248   3.509   6.068  0.1330 -0.8188 -1.3125
  143OSM   H18G15796   2.430   3.495   6.062 -0.9777 -0.8543 -0.1136
  143OSM   H18H15797   2.345   3.640   6.139  2.6452  0.8468 -0.4627
  144OSM      N15798   0.610   3.036   7.854 -0.1233 -0.4214 -0.1141
  144OSM    C1515799   0.467   3.031   7.899  0.8125  0.7660  0.5348
  144OSM   H15A15800   0.449   2.932   7.938  2.4029  0.2756  0.1110
  144OSM   H15B15801   0.400   3.040   7.815 -0.4046  0.2916  1.4198
  144OSM   H15C15802   0.433   3.098   7.977 -0.8056 -0.9148  1.3444
  144OSM    C1415803   0.635   2.929   7.754  0.0329  0.3933 -0.5473
  144OSM   H14A15804   0.612   2.834   7.799 -0.1484  0.1573 -1.1264
  144OSM   H14B15805   0.737   2.923   7.719  1.2508  0.2242  2.7690
  144OSM   H14C15806   0.565   2.958   7.677 -0.9415  1.7428  0.8023
  144OSM    C1315807   0.638   3.168   7.806  0.7732  0.5625  0.8943
  144OSM   H13A15808   0.590   3.186   7.710  1.0163 -0.8459  0.4870
  144OSM   H13B15809   0.742   3.193   7.792  0.1859  2.1933 -1.1764
  144OSM   H13C15810   0.605   3.254   7.862  0.5212  2.9507 -2.5607
  144OSM    C1215811   0.702   3.003   7.973 -0.8047  0.4879 -0.4181
  144OSM   H12A15812   0.682   2.912   8.026  4.5342 -1.0817 -0.5430
  144OSM   H12B15813   0.688   3.088   8.038 -0.1163  0.5855 -0.3936
  144OSM    C1115814   0.857   2.991   7.941  0.2056  0.2558 -0.7239
  144OSM   H11A15815   0.874   2.902   7.877  1.3473 -0.7992  0.9548
  144OSM   H11B15816   0.913   2.952   8.029 -1.7091 -1.7447 -0.3036
  144OSM      P15817   1.069   3.089   7.831  0.1551 -0.4717  0.1404
  144OSM    O1315818   1.111   3.214   7.764 -0.8277  0.3947 -0.5715
  144OSM    O1415819   1.155   3.029   7.931 -0.3790 -0.5875 -0.0643
  144OSM    O1115820   1.049   2.985   7.711 -0.6288  0.2445 -0.3781
  144OSM    O1215821   0.926   3.103   7.891 -0.6205 -0.0487  0.5344
  144OSM    C1S15822   1.017   3.031   7.584  0.7603  0.8910 -0.1601
  144OSM    H1S15823   1.090   3.109   7.553  0.3203  2.0256  1.5264
  144OSM    H1T15824   0.916   3.077   7.595 -0.5307 -1.8613  0.3256
  144OSM     NF15825   0.994   2.980   7.341  0.0657 -0.6054 -0.3732
  144OSM    HNF15826   0.902   2.986   7.303  0.1745  1.8902 -0.3813
  144OSM    C2S15827   1.004   2.923   7.475 -0.6747 -0.0309  0.6822
  144OSM    H2S15828   1.098   2.864   7.471 -0.5438  0.1744  0.7093
  144OSM    C3S15829   0.894   2.811   7.513 -0.3024  0.0274  0.7849
  144OSM    H3S15830   0.797   2.867   7.511  0.4625  1.4235  1.0002
  144OSM     O315831   0.902   2.764   7.642  0.6765  0.2955  0.1494
  144OSM    HO315832   0.964   2.823   7.686 -0.3025  0.1431  1.8355
  144OSM    C4S15833   0.900   2.698   7.414  0.0146 -0.0640  0.4855
  144OSM    H4S15834   0.854   2.716   7.316  0.1600  0.4074  0.5023
  144OSM    C5S15835   0.956   2.580   7.427  0.1875 -0.4931 -0.0105
  144OSM    H5S15836   1.006   2.559   7.523  0.9508 -1.2065 -0.5532
  144OSM    C6S15837   0.954   2.461   7.331 -0.6542 -0.0399  0.0778
  144OSM    H6S15838   0.873   2.391   7.361 -1.5107  2.5800  4.7166
  144OSM    H6T15839   1.048   2.406   7.354 -2.3865 -2.7581  1.1531
  144OSM    C7S15840   0.948   2.496   7.179 -0.5182  0.4321 -0.0262
  144OSM    H7S15841   0.857   2.560   7.172 -1.2370 -0.4103  1.1637
  144OSM    H7T15842   0.949   2.413   7.106 -1.1241  1.7277 -1.5656
  144OSM    C8S15843   1.075   2.578   7.141  0.6002 -0.7750  0.7722
  144OSM    H8S15844   1.165   2.513   7.147  1.2690 -0.2555 -1.9190
  144OSM    H8T15845   1.083   2.661   7.214 -1.0063 -0.0528  0.1760
  144OSM    C9S15846   1.056   2.627   6.994  0.2932  0.5018 -0.2455
  144OSM    H9S15847   1.139   2.696   6.966  1.0727 -0.4288 -0.2527
  144OSM    H9T15848   0.965   2.683   6.961  1.2155 -0.3165 -4.8970
  144OSM   C10S15849   1.050   2.524   6.878  0.6301 -0.5749 -0.4041
  144OSM   H10S15850   0.962   2.465   6.911 -0.3290  0.6777 -0.6592
  144OSM   H10T15851   1.136   2.454   6.876 -0.0101 -1.4919  1.4399
  144OSM   C11S15852   1.027   2.592   6.746  1.1457  0.0464  0.6192
  144OSM   H11S15853   0.942   2.663   6.748 -1.0744 -2.4576  2.1450
  144OSM   H11T15854   0.983   2.516   6.676 -1.0066  0.7344  1.1464
  144OSM   C12S15855   1.155   2.657   6.693 -0.7436  0.0360  0.0127
  144OSM   H12S15856   1.242   2.589   6.690 -0.1259  0.6169  2.6132
  144OSM   H12T15857   1.184   2.729   6.772  1.0890  1.0621 -1.5141
  144OSM   C13S15858   1.133   2.733   6.562  0.4303  0.2495  0.1551
  144OSM   H13S15859   1.224   2.785   6.526  0.4234 -0.2963 -0.6627
  144OSM   H13T15860   1.055   2.803   6.600  2.2047  1.8894  0.9572
  144OSM   C14S15861   1.077   2.661   6.441 -0.6246 -0.7065 -0.3368
  144OSM   H14S15862   1.056   2.736   6.362  0.3137 -0.9312 -0.8133
  144OSM   H14T15863   0.980   2.613   6.466 -0.9857 -0.6527 -1.5923
  144OSM   C15S15864   1.171   2.566   6.379 -0.4378 -0.3543 -0.1660
  144OSM   H15S15865   1.169   2.471   6.438 -1.6586 -0.3060 -0.1119
  144OSM   H15T15866   1.276   2.601   6.375 -1.3248  2.5366 -0.0032
  144OSM   C16S15867   1.130   2.521   6.238 -0.3553 -0.1259 -0.1528
  144OSM   H16S15868   1.020   2.524   6.220 -0.3882 -0.9129 -0.1194
  144OSM   H16T15869   1.162   2.415   6.232 -2.9633 -0.9434 -1.0010
  144OSM   C17S15870   1.188   2.594   6.121 -0.1781 -0.0699 -0.2171
  144OSM   H17S15871   1.298   2.581   6.133 -0.0287 -1.6301 -2.5868
  144OSM   H17T15872   1.178   2.704   6.124  1.6269  0.1245 -0.1160
  144OSM   C18S15873   1.139   2.541   5.990  0.0336  0.1549  0.3570
  144OSM   H18S15874   1.167   2.437   5.963 -3.7956 -0.5085 -1.8183
  144OSM   H18T15875   1.162   2.602   5.899 -0.9421  2.1773  1.3914
  144OSM   H18U15876   1.028   2.541   6.004  0.0712  2.6429  1.2291
  144OSM    C1F15877   1.095   3.054   7.295  0.1662  0.9795 -0.2305
  144OSM     OF15878   1.203   3.037   7.348  0.6349 -0.1593  0.0746
  144OSM    C2F15879   1.068   3.151   7.186  0.0553 -0.0471 -0.3941
  144OSM    H2F15880   1.155   3.171   7.119  0.7659  0.1137  0.5603
  144OSM    H2G15881   1.049   3.250   7.232  0.5646  0.1521 -0.6021
  144OSM    C3F15882   0.946   3.115   7.096  0.0717  0.5664  0.9355
  144OSM    H3F15883   0.915   3.202   7.035  2.9389  2.0352  1.4182
  144OSM    H3G15884   0.856   3.101   7.160 -1.5269 -0.7109 -1.4201
  144OSM    C4F15885   0.941   2.979   7.019 -0.5031 -0.1325  0.6357
  144OSM    H4F15886   0.930   2.902   7.098  1.0523  0.0585  1.0767
  144OSM    H4G15887   1.033   2.958   6.960 -1.3843  0.9474 -1.2102
  144OSM    C5F15888   0.808   2.967   6.939 -0.3402  0.0236  0.9553
  144OSM    H5F15889   0.716   2.991   6.996 -1.1065 -2.2917  0.8023
  144OSM    H5G15890   0.802   2.861   6.906  1.6421  0.5523 -1.4423
  144OSM    C6F15891   0.804   3.049   6.808 -0.5159  0.4304  0.2341
  144OSM    H6F15892   0.793   3.150   6.853  1.6938  0.3424  1.1270
  144OSM    H6G15893   0.713   3.022   6.750  0.0164  1.7850 -1.3293
  144OSM    C7F15894   0.933   3.031   6.718 -0.7514  0.4311  0.4230
  144OSM    H7F15895   0.891   3.015   6.616 -1.5733  2.3500  0.4183
  144OSM    H7G15896   0.989   2.938   6.744 -1.0414 -0.4107 -1.7270
  144OSM    C8F15897   1.029   3.151   6.713  0.4080 -0.4428 -0.1762
  144OSM    H8F15898   1.035   3.179   6.820 -1.2272 -1.5600  0.2442
  144OSM    H8G15899   0.979   3.231   6.654  0.0564  0.2384  1.0128
  144OSM    C9F15900   1.161   3.127   6.655 -0.1416  0.0397  0.1616
  144OSM    H9F15901   1.229   3.095   6.736  0.5758  0.2318 -0.3511
  144OSM   C10F15902   1.190   3.108   6.528  0.0572  0.9347  0.1589
  144OSM   H10F15903   1.298   3.102   6.511  0.2332  0.1103  1.4319
  144OSM   C11F15904   1.109   3.133   6.408  0.3409 -0.1132 -0.2391
  144OSM   H11F15905   1.061   3.233   6.405 -0.2782 -0.3921 -0.0326
  144OSM   H11G15906   1.024   3.063   6.391  0.3294  0.5130 -3.3701
  144OSM   C12F15907   1.198   3.123   6.280 -0.6322 -0.0813 -0.1286
  144OSM   H12F15908   1.267   3.209   6.288  0.0553 -0.7529  2.1824
  144OSM   H12G15909   1.134   3.153   6.195 -0.3118  1.2507  0.0779
  144OSM   C13F15910   1.261   2.979   6.249 -0.2883 -0.9855 -0.9136
  144OSM   H13F15911   1.178   2.910   6.224 -1.8881  1.1597 -1.7837
  144OSM   H13G15912   1.319   2.932   6.332 -0.6945 -0.0768 -0.0875
  144OSM   C14F15913   1.344   2.975   6.125  0.2046 -0.3807 -0.3297
  144OSM   H14F15914   1.395   2.876   6.122 -0.1708 -0.5673 -0.6572
  144OSM   H14G15915   1.425   3.050   6.134 -0.3013  0.0650  0.5661
  144OSM   C15F15916   1.283   2.993   5.987 -0.2377  0.1684  0.4353
  144OSM   H15F15917   1.231   3.091   5.981  0.5968  0.5333 -2.1489
  144OSM   H15G15918   1.211   2.909   5.977  0.3416 -0.1795 -1.2561
  144OSM   C16F15919   1.370   2.967   5.867 -0.3534  0.7790 -0.3403
  144OSM   H16F15920   1.424   2.870   5.865 -0.2958  0.7932  0.4535
  144OSM   H16G15921   1.441   3.051   5.855 -0.1095  0.6117 -0.0907
  144OSM   C17F15922   1.286   2.953   5.740 -0.6750 -0.5052 -0.7269
  144OSM   H17F15923   1.258   3.059   5.725  0.2538  0.0165  1.0342
  144OSM   H17G15924   1.186   2.905   5.747  0.4530 -2.7941  1.2513
  144OSM   C18F15925   1.360   2.891   5.619 -0.1725  0.1657  0.5362
  144OSM   H18F15926   1.392   2.787   5.640  2.0886  0.8454  0.7354
  144OSM   H18G15927   1.454   2.946   5.596 -1.4771  1.5638 -1.8736
  144OSM   H18H15928   1.296   2.885   5.528 -0.4758 -1.0192  0.8204
  145OSM      N15929   6.856   0.022   7.855 -0.1073 -0.0471 -0.2708
  145OSM    C1515930   6.891   0.168   7.834 -0.3557  0.0567 -0.2273
  145OSM   H15A15931   6.981   0.194   7.887 -0.0974  1.7868 -1.4309
  145OSM   H15B15932   6.801   0.223   7.859 -0.8151 -0.9607  0.4440
  145OSM   H15C15933   6.908   0.188   7.729  2.0763  1.5069  0.3615
  145OSM    C1415934   6.836   0.028   8.003 -0.1582  0.4652 -0.1245
  145OSM   H14A15935   6.761   0.100   8.034  0.6819  0.2187  2.7648
  145OSM   H14B15936   6.926   0.030   8.062  1.6820 -0.2277 -2.7112
  145OSM   H14C15937   6.802  -0.069   8.036  1.7053 -0.0808  0.2638
  145OSM    C1315938   6.734  -0.005   7.781  0.3868  0.2600 -0.3707
  145OSM   H13A15939   6.648   0.057   7.804 -0.0157  0.7223 -2.8133
  145OSM   H13B15940   6.701  -0.105   7.804  1.2047  0.2973  1.0485
  145OSM   H13C15941   6.749  -0.008   7.674 -0.3090 -1.2334 -0.4442
  145OSM    C1215942   6.959  -0.073   7.829 -0.4602 -0.7032  0.4188
  145OSM   H12A15943   6.938  -0.165   7.881  0.3206  0.5931  3.2535
  145OSM   H12B15944   7.050  -0.035   7.873  0.7705 -1.2233 -1.5279
  145OSM    C1115945   6.989  -0.103   7.683 -0.0455 -0.0494 -1.0717
  145OSM   H11A15946   6.900  -0.114   7.618 -1.0265  1.0138  0.0487
  145OSM   H11B15947   7.045  -0.199   7.691 -1.6601 -1.2123 -2.6928
  145OSM      P15948   7.230   0.015   7.668  0.4107  0.0889  0.3744
  145OSM    O1315949   7.275   0.102   7.566 -0.1002 -0.5928  0.2548
  145OSM    O1415950   7.266   0.051   7.811 -0.0570  0.0254 -0.1572
  145OSM    O1115951   7.280  -0.133   7.635 -0.4272  0.0934  0.3423
  145OSM    O1215952   7.070   0.002   7.639 -0.0985 -0.3419  0.1205
  145OSM    C1S15953   7.255  -0.201   7.508 -0.0655  0.7428 -0.6089
  145OSM    H1S15954   7.153  -0.183   7.468 -1.2361 -1.1730  1.2693
  145OSM    H1T15955   7.259  -0.310   7.525 -0.4471  0.5959 -1.4442
  145OSM     NF15956   7.313  -0.273   7.290 -0.5531 -0.4932 -0.4034
  145OSM    HNF15957   7.358  -0.361   7.275 -0.1893 -0.2599 -0.7068
  145OSM    C2S15958   7.360  -0.186   7.396  0.2435 -0.2788 -0.2728
  145OSM    H2S15959   7.359  -0.081   7.360 -1.9046  0.1966  0.9922
  145OSM    C3S15960   7.501  -0.225   7.449 -0.3227 -0.3293 -0.4855
  145OSM    H3S15961   7.494  -0.332   7.475  0.8960 -0.5812 -1.1362
  145OSM     O315962   7.545  -0.166   7.578  0.9110 -0.3606  0.5173
  145OSM    HO315963   7.458  -0.143   7.612  1.0448  0.4734  0.3178
  145OSM    C4S15964   7.608  -0.218   7.343 -0.0889 -0.1057 -1.1118
  145OSM    H4S15965   7.603  -0.310   7.283 -2.1224 -0.9531  0.2745
  145OSM    C5S15966   7.683  -0.116   7.306  0.1783  0.7329 -0.6697
  145OSM    H5S15967   7.657  -0.022   7.357 -1.1510  0.7746 -1.3863
  145OSM    C6S15968   7.768  -0.107   7.190 -0.1871  0.0301 -1.1243
  145OSM    H6S15969   7.856  -0.041   7.206  0.9095 -1.2670 -1.5665
  145OSM    H6T15970   7.711  -0.045   7.117 -0.9914  2.8598  1.6649
  145OSM    C7S15971   7.822  -0.237   7.120  0.6704  0.6803  0.2340
  145OSM    H7S15972   7.739  -0.291   7.071  0.0919  0.3257  1.5488
  145OSM    H7T15973   7.853  -0.294   7.211  2.8263  2.7305  0.8766
  145OSM    C8S15974   7.945  -0.218   7.035 -0.0097 -0.0894  0.5259
  145OSM    H8S15975   8.034  -0.281   7.061 -0.5170 -1.1438 -0.2213
  145OSM    H8T15976   7.980  -0.116   7.060  1.0512  0.2728 -2.1028
  145OSM    C9S15977   7.921  -0.228   6.886 -0.0254  0.2828  0.1999
  145OSM    H9S15978   8.019  -0.189   6.849 -0.1698  1.8881  1.3855
  145OSM    H9T15979   7.836  -0.160   6.863  0.4949  0.3291 -1.7353
  145OSM   C10S15980   7.904  -0.367   6.838 -0.8187 -0.0452  0.1037
  145OSM   H10S15981   7.829  -0.425   6.896 -1.2305  0.6856  0.3138
  145OSM   H10T15982   8.003  -0.414   6.856  1.3787  3.3671 -1.9997
  145OSM   C11S15983   7.866  -0.372   6.687  0.5107  0.1807 -0.4788
  145OSM   H11S15984   7.952  -0.328   6.632  0.5770  2.0236  0.9758
  145OSM   H11T15985   7.775  -0.314   6.661 -0.4097 -1.0495 -0.0510
  145OSM   C12S15986   7.835  -0.517   6.641  0.1748 -0.1068  0.0536
  145OSM   H12S15987   7.793  -0.576   6.726 -0.5219 -0.4689 -0.5308
  145OSM   H12T15988   7.932  -0.565   6.616  0.6685 -0.1094  1.8477
  145OSM   C13S15989   7.732  -0.528   6.525  0.1312 -0.3097 -0.1388
  145OSM   H13S15990   7.773  -0.490   6.429  0.0942 -1.5900 -0.6809
  145OSM   H13T15991   7.647  -0.464   6.558  0.4686 -0.3312  0.8078
  145OSM   C14S15992   7.682  -0.666   6.489  0.2424  0.3213 -0.4116
  145OSM   H14S15993   7.643  -0.716   6.581  2.1943 -1.1507 -0.3088
  145OSM   H14T15994   7.774  -0.722   6.464  1.3942  0.2114  3.3887
  145OSM   C15S15995   7.582  -0.680   6.378  0.6192 -0.1290 -0.1151
  145OSM   H15S15996   7.487  -0.629   6.407  0.7065  0.8643 -1.4597
  145OSM   H15T15997   7.558  -0.787   6.358 -2.4812  0.1329  1.5617
  145OSM   C16S15998   7.623  -0.632   6.240 -0.3208  0.1811  0.1711
  145OSM   H16S15999   7.713  -0.691   6.211  0.8952  1.2558  1.5924
  145OSM   H16T16000   7.648  -0.525   6.257  1.6035 -0.1141 -0.4533
  145OSM   C17S16001   7.506  -0.644   6.146 -0.6361  0.4840 -0.0454
  145OSM   H17S16002   7.531  -0.584   6.056  4.8384  1.0115  1.4886
  145OSM   H17T16003   7.416  -0.604   6.199 -0.2470  0.9620  0.2639
  145OSM   C18S16004   7.477  -0.795   6.098 -0.6609  0.2466  0.2863
  145OSM   H18S16005   7.483  -0.870   6.179  1.2775 -1.1076 -1.0155
  145OSM   H18T16006   7.558  -0.832   6.032 -0.9257 -2.5611  1.4017
  145OSM   H18U16007   7.388  -0.805   6.034  1.3866  0.7322 -2.8413
  145OSM    C1F16008   7.219  -0.236   7.204  0.7892 -0.4583 -0.1510
  145OSM     OF16009   7.179  -0.117   7.197 -0.2156  0.2814  0.6058
  145OSM    C2F16010   7.155  -0.349   7.125  0.2908 -0.4275 -0.1881
  145OSM    H2F16011   7.080  -0.390   7.197  2.2031 -1.6523  1.2142
  145OSM    H2G16012   7.224  -0.428   7.088  0.3657 -0.7489  0.6102
  145OSM    C3F16013   7.074  -0.301   7.004  0.1448 -0.0005  0.4036
  145OSM    H3F16014   7.146  -0.255   6.932 -0.4272  1.7445  0.8967
  145OSM    H3G16015   7.017  -0.211   7.037  1.6328  1.2366 -0.2645
  145OSM    C4F16016   6.996  -0.411   6.934  0.4141  0.6358 -0.9799
  145OSM    H4F16017   6.921  -0.441   7.010  0.8403  0.1725 -0.7290
  145OSM    H4G16018   7.054  -0.504   6.912 -0.3557 -0.1334  0.1239
  145OSM    C5F16019   6.943  -0.370   6.800 -0.0087 -0.3832 -0.3160
  145OSM    H5F16020   7.027  -0.361   6.728 -2.2250  1.1326 -2.9343
  145OSM    H5G16021   6.903  -0.268   6.816 -0.8569 -0.8907  0.9571
  145OSM    C6F16022   6.837  -0.462   6.750 -0.4818  0.0801  0.3499
  145OSM    H6F16023   6.777  -0.494   6.838  1.4715 -0.1083  1.7039
  145OSM    H6G16024   6.878  -0.553   6.702  0.0616 -0.4729  1.7836
  145OSM    C7F16025   6.756  -0.394   6.642 -0.4037 -0.3225 -0.5095
  145OSM    H7F16026   6.829  -0.372   6.562 -2.1511  4.3312 -1.1340
  145OSM    H7G16027   6.727  -0.297   6.690  1.9651 -0.5390  1.5709
  145OSM    C8F16028   6.646  -0.481   6.579 -0.6732 -0.6562 -0.1791
  145OSM    H8F16029   6.597  -0.540   6.660 -0.0305 -0.7646  0.1372
  145OSM    H8G16030   6.692  -0.565   6.522  0.6931 -0.4241  0.5347
  145OSM    C9F16031   6.542  -0.408   6.501  0.3961  0.1577  0.5142
  145OSM    H9F16032   6.491  -0.323   6.548 -0.6703  0.5750 -1.3005
  145OSM   C10F16033   6.505  -0.433   6.370  0.0392 -0.3369 -0.2819
  145OSM   H10F16034   6.423  -0.378   6.322  1.8714  0.9496 -2.1425
  145OSM   C11F16035   6.559  -0.542   6.282  0.7867  0.3253  0.5935
  145OSM   H11F16036   6.467  -0.584   6.236  0.0469  3.1598 -0.7324
  145OSM   H11G16037   6.601  -0.626   6.340 -2.0679 -1.4005  0.3289
  145OSM   C12F16038   6.648  -0.502   6.160  0.7051  0.5385  0.2347
  145OSM   H12F16039   6.751  -0.476   6.192  0.0195  1.6910  1.6253
  145OSM   H12G16040   6.606  -0.416   6.103  0.2720  0.8059  0.9497
  145OSM   C13F16041   6.668  -0.613   6.050  0.5780  0.1531  0.3436
  145OSM   H13F16042   6.666  -0.707   6.109  0.1020 -0.1325 -0.1151
  145OSM   H13G16043   6.764  -0.592   5.997  0.0617 -1.8634 -1.5556
  145OSM   C14F16044   6.558  -0.626   5.938  0.0518  0.1916 -0.0662
  145OSM   H14F16045   6.556  -0.532   5.879 -1.4462 -0.3748 -0.9753
  145OSM   H14G16046   6.465  -0.652   5.993  0.2081 -0.0487  0.0883
  145OSM   C15F16047   6.586  -0.751   5.851 -0.1660  0.3876  0.7623
  145OSM   H15F16048   6.579  -0.842   5.914  0.7053 -0.3213 -0.1326
  145OSM   H15G16049   6.692  -0.757   5.819  0.1395  0.8562  1.6273
  145OSM   C16F16050   6.492  -0.760   5.730 -0.8403  0.8084  0.1446
  145OSM   H16F16051   6.388  -0.743   5.765 -0.5696 -0.6056  1.7646
  145OSM   H16G16052   6.501  -0.862   5.687  0.0745  0.6194  0.7509
  145OSM   C17F16053   6.527  -0.664   5.609  0.3072 -0.3851 -1.1491
  145OSM   H17F16054   6.632  -0.694   5.588  0.4450  0.1252 -1.2173
  145OSM   H17G16055   6.521  -0.557   5.638 -2.5189 -0.9711  0.8565
  145OSM   C18F16056   6.443  -0.694   5.489  0.2686  0.2676  0.9379
  145OSM   H18F16057   6.431  -0.804   5.473 -0.9296  0.4500  0.4596
  145OSM   H18G16058   6.474  -0.649   5.392 -0.6772  1.1526  1.0293
  145OSM   H18H16059   6.349  -0.636   5.499  0.4110  0.6290  0.2478
  146OSM      N16060   0.196   0.829   8.082 -0.8922 -0.5104 -0.1182
  146OSM    C1516061   0.182   0.719   7.985  0.0784 -0.6403  0.6175
  146OSM   H15A16062   0.274   0.662   7.990  2.0539  2.2617  0.3127
  146OSM   H15B16063   0.171   0.765   7.888 -1.3390 -2.5183 -0.1660
  146OSM   H15C16064   0.098   0.656   8.010  0.0837 -0.5390  0.8847
  146OSM    C1416065   0.065   0.911   8.073 -0.0058  0.2082  0.3099
  146OSM   H14A16066  -0.020   0.846   8.082 -0.6507  0.9328 -0.3951
  146OSM   H14B16067   0.054   0.976   7.987 -1.0965  2.1442  1.8311
  146OSM   H14C16068   0.064   0.982   8.155 -1.5926  0.7951 -0.1930
  146OSM    C1316069   0.197   0.782   8.222 -0.2299  0.2013  0.3604
  146OSM   H13A16070   0.276   0.712   8.243  2.1809  2.2186 -1.5015
  146OSM   H13B16071   0.102   0.734   8.244 -0.5751  1.3903  1.6480
  146OSM   H13C16072   0.214   0.870   8.283 -0.7916  2.2135 -2.1777
  146OSM    C1216073   0.308   0.929   8.054 -0.0066  0.3052 -0.0080
  146OSM   H12A16074   0.402   0.879   8.076 -1.5219 -1.7799  2.3436
  146OSM   H12B16075   0.295   1.003   8.132 -0.5498  0.5781 -0.3585
  146OSM    C1116076   0.319   0.989   7.913 -0.2651  0.5395 -0.5688
  146OSM   H11A16077   0.315   0.907   7.838 -2.0017 -1.0247  1.1518
  146OSM   H11B16078   0.421   1.028   7.892 -0.6236  1.3106 -0.9219
  146OSM      P16079   0.157   1.131   7.755 -0.4523  0.1567  0.2741
  146OSM    O1316080   0.012   1.147   7.777  0.1455 -0.3621  0.0767
  146OSM    O1416081   0.232   1.248   7.697 -0.4257  0.3015  0.0323
  146OSM    O1116082   0.185   1.008   7.665 -0.2619  0.0129 -0.3539
  146OSM    O1216083   0.223   1.088   7.896 -0.0119 -0.1476 -0.3382
  146OSM    C1S16084   0.102   0.980   7.553  0.1535  0.1752 -0.2991
  146OSM    H1S16085   0.017   1.052   7.542  1.3753  1.9778  1.4733
  146OSM    H1T16086   0.055   0.881   7.569  2.7245 -1.0106  0.2490
  146OSM     NF16087   0.099   0.882   7.344 -0.4237  0.2621 -0.0824
  146OSM    HNF16088   0.106   0.783   7.349 -1.2834  0.1020 -1.3484
  146OSM    C2S16089   0.176   0.975   7.414 -0.5062 -0.0799  0.5674
  146OSM    H2S16090   0.167   1.073   7.362 -1.0535 -0.4601 -0.0802
  146OSM    C3S16091   0.322   0.934   7.423 -0.5311  0.2891 -0.3271
  146OSM    H3S16092   0.326   0.839   7.481  2.2838  0.9641  0.7565
  146OSM     O316093   0.389   1.031   7.501  0.0547  0.9535  0.1484
  146OSM    HO316094   0.323   1.065   7.561  1.1057 -1.7206  3.0775
  146OSM    C4S16095   0.397   0.916   7.294  0.3862 -0.7752  0.2407
  146OSM    H4S16096   0.355   0.830   7.240  0.0314  0.7406 -2.0493
  146OSM    C5S16097   0.493   1.004   7.240 -0.1685  0.3558  0.3823
  146OSM    H5S16098   0.522   1.095   7.294  0.7284 -0.2739  0.9961
  146OSM    C6S16099   0.545   0.989   7.102  0.1969 -0.2215  0.3990
  146OSM    H6S16100   0.641   0.934   7.113 -0.1562 -0.7281  0.9850
  146OSM    H6T16101   0.576   1.082   7.049  0.5310 -1.2743 -1.3347
  146OSM    C7S16102   0.446   0.917   7.002  0.5484  0.1118 -0.2803
  146OSM    H7S16103   0.364   0.988   6.978  1.8063  1.1295 -1.7808
  146OSM    H7T16104   0.401   0.826   7.047  0.0833  0.5137  0.0832
  146OSM    C8S16105   0.496   0.887   6.863  0.8939  0.1867  0.2821
  146OSM    H8S16106   0.411   0.840   6.809  2.2986 -2.0395 -0.1508
  146OSM    H8T16107   0.577   0.811   6.868 -0.3746 -1.1467  1.4371
  146OSM    C9S16108   0.530   1.005   6.774  0.5671 -0.3636  1.3748
  146OSM    H9S16109   0.617   1.049   6.827 -0.0856 -0.5157  2.6181
  146OSM    H9T16110   0.452   1.084   6.780  0.1820 -0.6477  0.3572
  146OSM   C10S16111   0.559   0.968   6.628  0.1430 -0.5135 -0.3369
  146OSM   H10S16112   0.473   0.904   6.599 -0.2668 -0.0328 -0.1937
  146OSM   H10T16113   0.649   0.904   6.619  0.5051  0.0253 -0.6755
  146OSM   C11S16114   0.558   1.076   6.520 -0.3701  0.3370  0.7552
  146OSM   H11S16115   0.647   1.141   6.523 -0.3144  0.2079  2.3648
  146OSM   H11T16116   0.471   1.145   6.524  0.7492  1.8006  0.5566
  146OSM   C12S16117   0.566   1.001   6.383  0.1905 -0.1385 -0.6309
  146OSM   H12S16118   0.492   0.919   6.391  1.1521 -1.0648 -1.0119
  146OSM   H12T16119   0.655   0.935   6.374 -0.7543 -1.4061 -1.0187
  146OSM   C13S16120   0.546   1.093   6.265 -0.5448  0.0329 -0.4236
  146OSM   H13S16121   0.635   1.159   6.260  0.3124 -1.1699 -1.6073
  146OSM   H13T16122   0.449   1.148   6.272  0.4725  1.9640 -0.8734
  146OSM   C14S16123   0.537   0.999   6.140 -0.3592 -0.9023  0.1881
  146OSM   H14S16124   0.495   0.898   6.163 -2.4108 -0.4572 -1.2846
  146OSM   H14T16125   0.645   0.999   6.115  0.1454  0.2682  2.1959
  146OSM   C15S16126   0.447   1.051   6.024 -0.7392  0.7922 -0.1751
  146OSM   H15S16127   0.482   1.156   6.015 -0.2997  0.5552 -1.3769
  146OSM   H15T16128   0.344   1.072   6.061 -0.4755 -0.9668  1.7226
  146OSM   C16S16129   0.442   0.980   5.891 -0.2452  0.2510  0.2704
  146OSM   H16S16130   0.369   0.897   5.894  0.2885 -0.2622 -0.5434
  146OSM   H16T16131   0.543   0.943   5.863  0.0647  2.5673 -2.0857
  146OSM   C17S16132   0.392   1.079   5.786  0.4617  0.1416 -0.3119
  146OSM   H17S16133   0.463   1.162   5.768  0.0910  0.8638  1.3591
  146OSM   H17T16134   0.294   1.112   5.827  0.1455 -1.9274  0.7231
  146OSM   C18S16135   0.362   1.000   5.652 -0.3713 -0.2004 -0.3701
  146OSM   H18S16136   0.317   1.067   5.575 -0.1799  2.4000  1.6519
  146OSM   H18T16137   0.304   0.907   5.673 -0.8901  0.3332  0.6619
  146OSM   H18U16138   0.461   0.961   5.620 -0.2601 -1.6704  1.5701
  146OSM    C1F16139  -0.023   0.918   7.298  0.3485  0.1587 -0.3372
  146OSM     OF16140  -0.072   1.030   7.307  0.5406  0.1222  0.2117
  146OSM    C2F16141  -0.100   0.815   7.219  0.4136  0.3360 -0.3181
  146OSM    H2F16142  -0.194   0.860   7.180  0.5462  1.0126  0.1156
  146OSM    H2G16143  -0.120   0.733   7.292  2.1592 -0.1169 -0.3003
  146OSM    C3F16144  -0.022   0.748   7.108  0.1947 -0.4071  0.6044
  146OSM    H3F16145   0.057   0.683   7.152 -1.0239 -2.2208  0.2349
  146OSM    H3G16146   0.042   0.818   7.049  0.0929 -1.4998 -0.8319
  146OSM    C4F16147  -0.115   0.652   7.029  0.6327 -0.0050 -0.3312
  146OSM    H4F16148  -0.197   0.710   6.981  0.6725  0.1249 -0.2429
  146OSM    H4G16149  -0.172   0.591   7.103  0.5525  0.1959 -0.2252
  146OSM    C5F16150  -0.034   0.562   6.938  0.3434  0.6360  0.5748
  146OSM    H5F16151  -0.100   0.483   6.896  1.2738  0.1525 -0.0184
  146OSM    H5G16152   0.037   0.499   6.996  3.7591  1.3593 -2.4396
  146OSM    C6F16153   0.039   0.647   6.834  0.0986  0.3199  0.1814
  146OSM    H6F16154   0.118   0.708   6.882  0.3534 -0.1923  0.4218
  146OSM    H6G16155  -0.026   0.713   6.772 -0.7817  1.3618  2.1289
  146OSM    C7F16156   0.113   0.566   6.723  0.2849  0.9341  0.1006
  146OSM    H7F16157   0.020   0.523   6.680  0.1962  0.1036  1.1015
  146OSM    H7G16158   0.178   0.491   6.771 -1.6518  0.4571  2.1755
  146OSM    C8F16159   0.194   0.657   6.633  0.1194 -0.4998  0.3736
  146OSM    H8F16160   0.260   0.707   6.707 -0.3670  1.8491 -0.6863
  146OSM    H8G16161   0.127   0.736   6.593  0.3774  0.7303  2.2637
  146OSM    C9F16162   0.272   0.584   6.528 -0.3982  0.1958  0.7863
  146OSM    H9F16163   0.313   0.489   6.566 -1.0802  0.3755  2.0398
  146OSM   C10F16164   0.281   0.631   6.400 -0.4337  0.2681 -0.2799
  146OSM   H10F16165   0.340   0.571   6.329 -0.9737 -1.2171  0.4790
  146OSM   C11F16166   0.219   0.757   6.347  0.0172 -0.1229  1.2009
  146OSM   H11F16167   0.292   0.838   6.325 -0.6630  0.9318  2.6583
  146OSM   H11G16168   0.150   0.817   6.410  0.5284  0.5539  1.1311
  146OSM   C12F16169   0.150   0.725   6.212  0.1487 -0.5250  0.0999
  146OSM   H12F16170   0.095   0.815   6.178  0.6383 -0.4736 -0.5900
  146OSM   H12G16171   0.085   0.636   6.222  0.4187 -1.2801 -3.4120
  146OSM   C13F16172   0.258   0.698   6.102 -0.0384  0.0520 -0.3960
  146OSM   H13F16173   0.325   0.621   6.145 -0.2127 -1.5336 -2.7503
  146OSM   H13G16174   0.310   0.794   6.080 -3.4684  1.9314 -0.9932
  146OSM   C14F16175   0.216   0.638   5.970  0.1285 -0.0894 -0.4960
  146OSM   H14F16176   0.134   0.699   5.926 -0.3174 -0.8623 -0.7489
  146OSM   H14G16177   0.300   0.642   5.897 -0.1808 -0.1630 -0.8599
  146OSM   C15F16178   0.170   0.493   5.994  0.2705 -0.4472  0.0381
  146OSM   H15F16179   0.092   0.491   6.073 -0.1472 -0.1043 -0.3615
  146OSM   H15G16180   0.249   0.433   6.043  0.9283  0.3315 -0.0465
  146OSM   C16F16181   0.124   0.434   5.861 -0.6217 -0.3142 -0.2362
  146OSM   H16F16182   0.213   0.440   5.794  0.1923 -2.3393  0.6061
  146OSM   H16G16183   0.046   0.503   5.822 -1.0042 -0.7240 -0.1933
  146OSM   C17F16184   0.076   0.296   5.870 -0.1407  0.2045  0.7312
  146OSM   H17F16185   0.170   0.240   5.889  1.9502  2.9805 -0.7171
  146OSM   H17G16186   0.042   0.260   5.770  1.8777  0.1776  0.0184
  146OSM   C18F16187  -0.029   0.271   5.980  0.0218 -0.6295 -0.3125
  146OSM   H18F16188  -0.099   0.357   5.985  0.9275  0.1228 -0.3459
  146OSM   H18G16189   0.026   0.272   6.076 -0.2415 -0.1224 -0.1661
  146OSM   H18H16190  -0.071   0.169   5.967 -1.6581 -0.0530  0.3491
  147OSM      N16191   3.177   6.581   3.169  0.0017  0.5576  0.0217
  147OSM    C1516192   3.230   6.610   3.309 -0.2875 -0.0989  0.0788
  147OSM   H15A16193   3.297   6.530   3.338  2.1880  1.2706 -1.4570
  147OSM   H15B16194   3.149   6.638   3.374 -1.7927 -0.4106 -1.5785
  147OSM   H15C16195   3.296   6.696   3.312  0.4353 -0.6876  1.5976
  147OSM    C1416196   3.132   6.709   3.108  0.8409  0.5081 -0.6003
  147OSM   H14A16197   3.205   6.788   3.118  0.3435  0.9033 -0.0235
  147OSM   H14B16198   3.045   6.734   3.167  0.2114 -2.1444 -0.2436
  147OSM   H14C16199   3.116   6.707   3.002  1.4821  0.4198 -0.6995
  147OSM    C1316200   3.284   6.519   3.084 -0.4813  0.1997 -0.2780
  147OSM   H13A16201   3.300   6.414   3.104  0.9014  0.2457 -0.9922
  147OSM   H13B16202   3.384   6.560   3.091  0.8063 -2.5800 -1.0186
  147OSM   H13C16203   3.249   6.519   2.982 -0.2087 -1.5012 -0.4047
  147OSM    C1216204   3.066   6.479   3.178 -0.6011 -0.7346  0.7867
  147OSM   H12A16205   2.981   6.539   3.209 -0.4174 -0.2815  0.4345
  147OSM   H12B16206   3.081   6.400   3.249  1.3154  0.2173  1.5027
  147OSM    C1116207   3.030   6.419   3.039 -0.7924  0.6230  0.0457
  147OSM   H11A16208   3.027   6.498   2.960 -0.0166 -0.7730 -1.4472
  147OSM   H11B16209   2.927   6.380   3.052 -0.4953  0.4621  2.0956
  147OSM      P16210   3.098   6.166   3.008 -0.4266  0.1847  0.2906
  147OSM    O1316211   2.975   6.126   3.080 -0.2047  0.1489 -0.0869
  147OSM    O1416212   3.116   6.121   2.870  0.4006 -0.7674  0.2994
  147OSM    O1116213   3.218   6.100   3.088  0.0916 -0.0324 -0.0297
  147OSM    O1216214   3.121   6.321   2.999 -0.2137  0.0838 -0.1220
  147OSM    C1S16215   3.259   6.146   3.218  0.0285 -0.0108  0.1648
  147OSM    H1S16216   3.239   6.252   3.242 -1.7881 -1.0815  4.3832
  147OSM    H1T16217   3.368   6.130   3.225  0.1520  0.3516 -0.7984
  147OSM     NF16218   3.207   6.125   3.467  0.0472  0.5362  0.4378
  147OSM    HNF16219   3.265   6.077   3.533 -1.1735  0.6628  1.6599
  147OSM    C2S16220   3.195   6.059   3.333  0.0259  0.3808 -0.8665
  147OSM    H2S16221   3.087   6.067   3.307 -0.1884 -1.6742 -0.7297
  147OSM    C3S16222   3.235   5.910   3.325 -0.0906 -0.4978 -0.1617
  147OSM    H3S16223   3.343   5.905   3.350  0.4063  0.7468 -1.8495
  147OSM     O316224   3.239   5.869   3.187  0.7487  0.5192 -0.0762
  147OSM    HO316225   3.237   5.947   3.131  0.4225 -1.2759 -2.7457
  147OSM    C4S16226   3.151   5.815   3.408 -0.2850 -0.3608 -0.0558
  147OSM    H4S16227   3.048   5.806   3.371 -0.1638 -0.4824 -0.3636
  147OSM    C5S16228   3.191   5.751   3.524 -0.5972  0.9393  0.0389
  147OSM    H5S16229   3.290   5.767   3.569 -0.2336 -0.3063 -0.2910
  147OSM    C6S16230   3.097   5.673   3.615 -0.1858  0.2757  0.6565
  147OSM    H6S16231   3.106   5.564   3.597 -1.1419  0.1512  0.9070
  147OSM    H6T16232   2.996   5.706   3.584  1.4018  2.5659 -2.8275
  147OSM    C7S16233   3.113   5.693   3.763  0.5413 -0.2907  0.3397
  147OSM    H7S16234   3.220   5.679   3.787  1.0296  4.1953  1.7113
  147OSM    H7T16235   3.059   5.615   3.821  0.0157 -0.4618 -0.3735
  147OSM    C8S16236   3.094   5.834   3.813 -1.0325 -1.3375 -0.1312
  147OSM    H8S16237   2.992   5.852   3.855 -0.5561  1.2589  0.0988
  147OSM    H8T16238   3.118   5.908   3.734  0.2498 -1.1937  0.3800
  147OSM    C9S16239   3.183   5.853   3.935  0.0835  0.0101 -0.1783
  147OSM    H9S16240   3.290   5.826   3.921  0.4883  1.3737  0.1367
  147OSM    H9T16241   3.160   5.774   4.011  0.4550  1.2274  1.2500
  147OSM   C10S16242   3.195   5.995   3.988  0.2024 -0.1080  0.7458
  147OSM   H10S16243   3.096   6.031   4.024 -0.5897 -0.5624 -0.8864
  147OSM   H10T16244   3.244   6.056   3.909 -0.8696 -1.8774 -1.3980
  147OSM   C11S16245   3.287   5.986   4.113  0.8050  0.2289  0.2979
  147OSM   H11S16246   3.309   6.092   4.140  0.0127  0.7966 -1.1587
  147OSM   H11T16247   3.380   5.930   4.088  0.2732 -1.8883  2.6880
  147OSM   C12S16248   3.225   5.908   4.232  0.1349  0.1649 -0.0308
  147OSM   H12S16249   3.259   5.803   4.220  0.5646  0.2564  0.3596
  147OSM   H12T16250   3.115   5.918   4.216  0.3224 -0.1660 -1.7665
  147OSM   C13S16251   3.260   5.956   4.371  0.4007 -0.4088  0.0621
  147OSM   H13S16252   3.237   6.065   4.370  0.4875 -0.3825  0.6652
  147OSM   H13T16253   3.367   5.935   4.389  0.2999 -0.4807  0.5975
  147OSM   C14S16254   3.168   5.894   4.479  0.2724  0.5367  0.1630
  147OSM   H14S16255   3.195   5.787   4.465 -3.0105 -0.1749 -1.9207
  147OSM   H14T16256   3.062   5.886   4.445  0.2596 -2.9960  0.6538
  147OSM   C15S16257   3.194   5.937   4.623 -1.0248  0.5747  0.0933
  147OSM   H15S16258   3.126   6.018   4.657 -1.5636 -0.0073  0.4378
  147OSM   H15T16259   3.294   5.984   4.617 -2.2102  3.1381 -1.2628
  147OSM   C16S16260   3.195   5.817   4.723  0.2161 -0.5063 -0.5710
  147OSM   H16S16261   3.240   5.848   4.819 -1.9732  1.5651 -0.1068
  147OSM   H16T16262   3.251   5.735   4.675  0.5754 -0.3391 -0.4409
  147OSM   C17S16263   3.052   5.757   4.750 -0.2669  0.0239 -0.6307
  147OSM   H17S16264   3.040   5.676   4.675  1.2892  0.3053 -1.2126
  147OSM   H17T16265   2.974   5.834   4.730 -1.3428 -0.6281  0.8456
  147OSM   C18S16266   3.042   5.705   4.890  0.1973 -0.3400  0.1444
  147OSM   H18S16267   2.944   5.654   4.901 -0.8819  1.6413  0.1364
  147OSM   H18T16268   3.076   5.773   4.971  0.6212  1.7588 -1.7074
  147OSM   H18U16269   3.112   5.618   4.894 -0.4894 -0.8923  0.3380
  147OSM    C1F16270   3.147   6.241   3.491  0.3324 -0.1549 -0.3128
  147OSM     OF16271   3.056   6.280   3.417 -0.2561 -0.3960  0.1536
  147OSM    C2F16272   3.199   6.314   3.606 -0.5484  0.7474  0.8363
  147OSM    H2F16273   3.262   6.394   3.561  0.6490 -0.7961 -0.3531
  147OSM    H2G16274   3.276   6.251   3.655  1.0804  1.4010 -0.7626
  147OSM    C3F16275   3.097   6.380   3.699  0.6606  0.0924  0.4048
  147OSM    H3F16276   3.016   6.412   3.631  0.4655  0.0868  0.6319
  147OSM    H3G16277   3.133   6.465   3.762 -1.6946 -0.0808  2.1235
  147OSM    C4F16278   3.044   6.280   3.797 -0.1769 -0.0683 -0.2694
  147OSM    H4F16279   3.127   6.243   3.861  0.9482 -0.0210 -1.6451
  147OSM    H4G16280   2.989   6.196   3.752  2.2073 -2.2390  0.6248
  147OSM    C5F16281   2.929   6.331   3.885  0.1564 -0.0906  0.3462
  147OSM    H5F16282   2.880   6.238   3.922 -0.6632 -1.0590 -2.9080
  147OSM    H5G16283   2.861   6.390   3.821 -1.1276 -1.4956  0.3549
  147OSM    C6F16284   2.973   6.426   4.003  1.2589  0.3104  0.5482
  147OSM    H6F16285   2.880   6.461   4.052  0.6275 -0.4948 -0.0607
  147OSM    H6G16286   3.013   6.518   3.955  2.0414 -1.2120 -1.8852
  147OSM    C7F16287   3.072   6.375   4.109  0.4245  0.2448 -0.3391
  147OSM    H7F16288   3.083   6.453   4.187  1.0171 -1.1690  1.0243
  147OSM    H7G16289   3.171   6.357   4.061 -0.2729 -2.4555 -0.9254
  147OSM    C8F16290   3.023   6.248   4.178  0.4832  0.1925 -0.4878
  147OSM    H8F16291   3.109   6.205   4.235  0.8088  1.4025 -0.0393
  147OSM    H8G16292   2.985   6.174   4.105  0.8375 -0.9241  0.4279
  147OSM    C9F16293   2.918   6.276   4.282  0.7790 -0.6451  0.6048
  147OSM    H9F16294   2.820   6.238   4.253  0.8845 -2.3557  2.3273
  147OSM   C10F16295   2.934   6.327   4.408  0.4671 -0.2203 -0.5049
  147OSM   H10F16296   2.850   6.328   4.479  0.6937 -0.3714 -0.2307
  147OSM   C11F16297   3.060   6.373   4.472 -0.3390  0.2428 -0.4075
  147OSM   H11F16298   3.111   6.448   4.409  1.2212 -0.3218  0.1415
  147OSM   H11G16299   3.128   6.287   4.491 -1.2048 -0.6216 -1.1344
  147OSM   C12F16300   3.043   6.425   4.623 -0.3654  0.4548 -0.5757
  147OSM   H12F16301   2.945   6.477   4.630  0.7699  2.4766  1.4771
  147OSM   H12G16302   3.123   6.496   4.651 -0.3943 -0.1177  1.0174
  147OSM   C13F16303   3.039   6.304   4.723  0.0838  0.0605  0.5504
  147OSM   H13F16304   3.139   6.257   4.716 -0.2714 -0.6978  0.3898
  147OSM   H13G16305   2.972   6.229   4.676  2.8138 -1.3881 -1.2877
  147OSM   C14F16306   2.988   6.334   4.863  0.2409 -0.0853  0.1776
  147OSM   H14F16307   2.893   6.391   4.853 -0.2803 -0.9302  0.1865
  147OSM   H14G16308   3.055   6.407   4.914 -2.2429  1.3977  1.5081
  147OSM   C15F16309   2.947   6.202   4.944 -0.6936 -0.3150 -0.0333
  147OSM   H15F16310   2.865   6.151   4.890 -0.2954  0.1472 -1.0982
  147OSM   H15G16311   2.905   6.232   5.043 -2.8278  0.1639 -1.0354
  147OSM   C16F16312   3.074   6.109   4.982 -0.3462 -0.3042 -0.6632
  147OSM   H16F16313   3.117   6.079   4.884  1.7166  0.0671  0.0727
  147OSM   H16G16314   3.023   6.027   5.037  1.9986  0.2055  2.5879
  147OSM   C17F16315   3.171   6.187   5.076 -0.1919  0.1808  0.0336
  147OSM   H17F16316   3.104   6.228   5.155 -0.9421  0.2303 -0.6214
  147OSM   H17G16317   3.217   6.270   5.018 -0.8238  0.6044  0.1218
  147OSM   C18F16318   3.274   6.086   5.122  0.1349 -0.7518 -0.6514
  147OSM   H18F16319   3.371   6.115   5.077  1.1402  0.4714  2.0689
  147OSM   H18G16320   3.241   5.983   5.097 -1.1403 -1.0686  1.9343
  147OSM   H18H16321   3.290   6.097   5.232  1.2392  0.5067 -0.9200
  148OSM      N16322   1.665   5.928   2.663 -0.7368  0.1829 -0.2534
  148OSM    C1516323   1.795   5.848   2.652  0.3490 -0.1223 -0.4111
  148OSM   H15A16324   1.853   5.845   2.743  0.1266  0.7948 -0.2346
  148OSM   H15B16325   1.849   5.886   2.566  0.5116 -0.5917 -0.5183
  148OSM   H15C16326   1.760   5.748   2.634 -2.4049  0.9719 -1.6483
  148OSM    C1416327   1.701   6.069   2.703 -0.3869  0.2593 -0.6201
  148OSM   H14A16328   1.619   6.137   2.718 -0.2642  0.4439 -0.7934
  148OSM   H14B16329   1.761   6.108   2.622  1.0211 -2.2262 -0.9083
  148OSM   H14C16330   1.756   6.069   2.797 -0.3989  1.5904 -0.5948
  148OSM    C1316331   1.590   5.929   2.535 -0.0033 -0.2162 -0.3103
  148OSM   H13A16332   1.505   5.993   2.554 -0.8688 -0.9484 -1.5816
  148OSM   H13B16333   1.550   5.833   2.506 -1.5675  0.2748  0.1197
  148OSM   H13C16334   1.660   5.964   2.461  1.4582 -0.4823  0.8994
  148OSM    C1216335   1.575   5.866   2.768  0.7635  0.2498 -0.0826
  148OSM   H12A16336   1.492   5.932   2.786  0.1763 -0.0145 -1.7184
  148OSM   H12B16337   1.626   5.858   2.863  1.5895 -3.7104 -0.6695
  148OSM    C1116338   1.514   5.729   2.726  0.4781 -0.1825 -0.1632
  148OSM   H11A16339   1.448   5.749   2.639  1.8889  1.5861 -0.9022
  148OSM   H11B16340   1.447   5.692   2.805 -0.1631  0.5864 -0.3341
  148OSM      P16341   1.598   5.484   2.747 -0.4590 -0.1178  0.1337
  148OSM    O1316342   1.485   5.417   2.680  0.2188  0.2075 -0.0044
  148OSM    O1416343   1.725   5.413   2.743 -0.7887 -0.4011  0.1579
  148OSM    O1116344   1.565   5.502   2.904  0.1511 -0.2411 -0.2691
  148OSM    O1216345   1.616   5.633   2.696 -0.3268 -0.5886 -0.3123
  148OSM    C1S16346   1.652   5.568   2.999 -0.2607  0.0972  0.1425
  148OSM    H1S16347   1.653   5.678   2.990  0.3721 -0.0264 -1.7003
  148OSM    H1T16348   1.759   5.541   2.984  0.0881  1.6478 -0.3099
  148OSM     NF16349   1.701   5.598   3.233  0.6737  0.1822 -0.1203
  148OSM    HNF16350   1.775   5.549   3.276  0.0227  1.0096  2.0781
  148OSM    C2S16351   1.609   5.531   3.142 -0.3817 -1.3147 -0.2840
  148OSM    H2S16352   1.510   5.573   3.168 -0.5386 -0.9376 -1.4096
  148OSM    C3S16353   1.605   5.375   3.154  0.4758 -0.9203  0.6507
  148OSM    H3S16354   1.711   5.349   3.132  0.4944 -0.5520  0.2752
  148OSM     O316355   1.522   5.309   3.056  0.3369 -0.4948  0.0671
  148OSM    HO316356   1.502   5.380   2.994 -1.9348 -1.2338 -0.1238
  148OSM    C4S16357   1.574   5.331   3.297 -0.0554 -0.3678  0.5431
  148OSM    H4S16358   1.667   5.328   3.355  0.2327  1.1158  0.2122
  148OSM    C5S16359   1.455   5.332   3.358 -0.9658 -0.1719  0.3428
  148OSM    H5S16360   1.372   5.374   3.300  0.5428  2.6213  0.0679
  148OSM    C6S16361   1.419   5.305   3.499 -0.5061  0.2480 -0.4086
  148OSM    H6S16362   1.354   5.216   3.490 -0.9035  0.6686 -2.0130
  148OSM    H6T16363   1.363   5.394   3.536  1.6895  1.1711  0.9433
  148OSM    C7S16364   1.540   5.270   3.591 -0.3149 -0.4894 -0.3345
  148OSM    H7S16365   1.603   5.361   3.590  1.0236 -1.3463 -2.8155
  148OSM    H7T16366   1.599   5.183   3.557  0.6812 -0.7272  1.8569
  148OSM    C8S16367   1.480   5.232   3.727 -0.2420  0.0178  0.2690
  148OSM    H8S16368   1.427   5.135   3.723 -0.2467  0.0373 -0.1652
  148OSM    H8T16369   1.418   5.320   3.755  1.1111  0.8462  0.7837
  148OSM    C9S16370   1.596   5.232   3.830 -0.0615  0.3858 -0.4816
  148OSM    H9S16371   1.637   5.335   3.820  1.0862  0.0284  0.3483
  148OSM    H9T16372   1.680   5.162   3.809  1.0705  1.2596  0.9622
  148OSM   C10S16373   1.531   5.192   3.964 -0.1812  0.2041  0.2969
  148OSM   H10S16374   1.500   5.086   3.971  0.6652 -0.0733  0.0235
  148OSM   H10T16375   1.444   5.256   3.988 -1.3903 -0.9350 -0.9169
  148OSM   C11S16376   1.633   5.214   4.083  0.7382  0.2074  0.0441
  148OSM   H11S16377   1.690   5.306   4.056 -1.0001  1.9550  1.9448
  148OSM   H11T16378   1.713   5.138   4.070  2.2255  1.8951 -1.2222
  148OSM   C12S16379   1.579   5.228   4.222  0.4261 -0.6560  0.1351
  148OSM   H12S16380   1.476   5.271   4.226  0.2663 -1.1124  2.8711
  148OSM   H12T16381   1.644   5.299   4.277 -1.0419  2.6814 -2.0633
  148OSM   C13S16382   1.584   5.093   4.295 -0.4830  0.4681  0.5640
  148OSM   H13S16383   1.551   5.006   4.235 -1.5429  1.4447 -0.3049
  148OSM   H13T16384   1.525   5.081   4.389 -0.6397 -0.0563  0.3987
  148OSM   C14S16385   1.732   5.058   4.339 -0.0655 -0.2423 -0.1418
  148OSM   H14S16386   1.779   5.139   4.399 -0.4471  0.6683 -1.0347
  148OSM   H14T16387   1.794   5.054   4.247 -0.2197 -0.3982 -0.2388
  148OSM   C15S16388   1.739   4.925   4.423  0.4975 -0.1240  0.1625
  148OSM   H15S16389   1.690   4.840   4.371 -0.7459  1.0107 -0.6009
  148OSM   H15T16390   1.685   4.946   4.518 -2.4991 -0.9030 -1.2658
  148OSM   C16S16391   1.881   4.889   4.468  0.9830 -0.2493  0.1535
  148OSM   H16S16392   1.903   4.970   4.540 -1.6763  0.3036  0.4707
  148OSM   H16T16393   1.951   4.905   4.384  0.3086 -1.2481 -0.6286
  148OSM   C17S16394   1.901   4.758   4.543 -0.4861  0.5243  0.0182
  148OSM   H17S16395   1.927   4.674   4.475 -0.2119  1.0155 -0.4848
  148OSM   H17T16396   1.802   4.738   4.589 -1.1443  3.0822 -0.1783
  148OSM   C18S16397   2.007   4.768   4.655  0.7729 -0.1702 -0.4868
  148OSM   H18S16398   1.987   4.848   4.729 -0.2971 -0.6162 -0.2635
  148OSM   H18T16399   2.103   4.796   4.608  1.4007  3.2284  2.4298
  148OSM   H18U16400   2.008   4.668   4.705 -1.7672  0.8103  1.8090
  148OSM    C1F16401   1.702   5.729   3.254  0.2116  1.1435  0.2981
  148OSM     OF16402   1.619   5.805   3.209  0.3666 -0.6239  0.2100
  148OSM    C2F16403   1.806   5.769   3.362 -0.4050  0.2081  0.1883
  148OSM    H2F16404   1.758   5.857   3.411  1.2262  2.8732 -2.6284
  148OSM    H2G16405   1.906   5.802   3.324  1.1189 -2.3922  1.6377
  148OSM    C3F16406   1.833   5.647   3.460  0.4097 -0.2326 -0.2348
  148OSM    H3F16407   1.883   5.563   3.408 -1.5025 -0.9367 -1.0230
  148OSM    H3G16408   1.733   5.609   3.493  0.3037 -0.4168 -0.7579
  148OSM    C4F16409   1.889   5.697   3.597 -0.3097  0.7413  0.1727
  148OSM    H4F16410   1.838   5.784   3.642  0.1064  0.1673  1.8021
  148OSM    H4G16411   1.990   5.736   3.574  0.4837 -0.1895  1.9355
  148OSM    C5F16412   1.913   5.603   3.715  0.2229  0.2689  0.1136
  148OSM    H5F16413   1.969   5.516   3.675  1.2336 -0.0584  2.1465
  148OSM    H5G16414   1.812   5.568   3.744  1.3050 -2.0498  1.2938
  148OSM    C6F16415   1.998   5.662   3.827 -0.2859  0.5020 -0.5509
  148OSM    H6F16416   1.993   5.589   3.911 -1.1681  1.8353  0.6004
  148OSM    H6G16417   1.959   5.756   3.872 -1.0216  1.3860 -2.8904
  148OSM    C7F16418   2.150   5.682   3.796 -0.0473 -0.1609  0.3639
  148OSM    H7F16419   2.152   5.751   3.708 -1.5260 -0.5008  0.0469
  148OSM    H7G16420   2.190   5.584   3.764 -1.8327 -0.4378 -1.1725
  148OSM    C8F16421   2.230   5.723   3.918 -0.5265 -0.5293  0.2855
  148OSM    H8F16422   2.337   5.729   3.891 -0.9843  1.1784 -1.3053
  148OSM    H8G16423   2.202   5.646   3.994  0.1010  0.7101  1.8275
  148OSM    C9F16424   2.199   5.858   3.953  0.4452 -0.2200 -0.6008
  148OSM    H9F16425   2.179   5.928   3.871 -0.3237  0.4655  0.1603
  148OSM   C10F16426   2.188   5.904   4.082 -0.1342  0.5668 -0.1869
  148OSM   H10F16427   2.147   6.006   4.094 -0.0291  0.9539 -2.6633
  148OSM   C11F16428   2.211   5.829   4.204 -0.9575 -0.2883 -0.1965
  148OSM   H11F16429   2.312   5.854   4.245 -0.6186 -0.5784 -0.8481
  148OSM   H11G16430   2.203   5.719   4.188 -3.0873 -0.6539  2.6032
  148OSM   C12F16431   2.110   5.855   4.321 -0.5286  0.0225  0.4907
  148OSM   H12F16432   2.017   5.801   4.294 -0.6285  0.5931 -0.3644
  148OSM   H12G16433   2.085   5.964   4.326  1.1511  0.6490 -2.1812
  148OSM   C13F16434   2.154   5.808   4.459 -0.1856 -0.0194  0.2319
  148OSM   H13F16435   2.251   5.858   4.480  0.9721 -1.9091 -0.3325
  148OSM   H13G16436   2.184   5.702   4.460  1.2214  0.2131 -3.1906
  148OSM   C14F16437   2.061   5.837   4.570  0.6507 -0.4348 -0.0903
  148OSM   H14F16438   2.027   5.740   4.612 -0.4037 -0.5922 -1.2360
  148OSM   H14G16439   1.976   5.893   4.526  0.6758 -0.3840 -0.0737
  148OSM   C15F16440   2.117   5.912   4.687 -0.8239  0.1580 -0.0810
  148OSM   H15F16441   2.040   5.949   4.757  0.5531  2.1240  0.4891
  148OSM   H15G16442   2.174   5.998   4.644  0.3212 -0.0905  0.8900
  148OSM   C16F16443   2.209   5.831   4.780 -0.1444  0.3202  0.0028
  148OSM   H16F16444   2.312   5.848   4.742 -0.8129  2.4882 -1.0221
  148OSM   H16G16445   2.187   5.722   4.777  1.5439 -0.0356 -0.1587
  148OSM   C17F16446   2.201   5.875   4.926 -0.7164  0.0882 -0.3164
  148OSM   H17F16447   2.105   5.915   4.963 -1.4333  0.9921 -2.9061
  148OSM   H17G16448   2.259   5.970   4.927  1.1264 -0.9930  0.4854
  148OSM   C18F16449   2.279   5.784   5.025 -0.4925  0.4488  0.1153
  148OSM   H18F16450   2.373   5.742   4.983 -0.5987  0.8529 -0.5440
  148OSM   H18G16451   2.223   5.700   5.071 -0.6981  0.5295  0.0168
  148OSM   H18H16452   2.318   5.853   5.103 -1.3847  0.8609  0.2143
  149OSM      N16453   4.680   3.351   3.006 -0.4532 -0.2095 -0.1535
  149OSM    C1516454   4.614   3.413   2.886 -0.4290  0.1306  0.1781
  149OSM   H15A16455   4.507   3.407   2.882 -0.7960  3.1889 -5.5619
  149OSM   H15B16456   4.664   3.377   2.797 -0.4424  1.0874 -0.2283
  149OSM   H15C16457   4.644   3.517   2.883  1.7112 -0.4523 -1.9311
  149OSM    C1416458   4.600   3.391   3.129  0.9347  0.0384  1.1425
  149OSM   H14A16459   4.498   3.360   3.116  0.8356  0.4254  1.0043
  149OSM   H14B16460   4.595   3.498   3.131 -0.4824 -0.0222  2.6901
  149OSM   H14C16461   4.645   3.358   3.222 -0.2678 -0.1606  1.6731
  149OSM    C1316462   4.689   3.202   2.995  0.5986 -0.2999 -0.6248
  149OSM   H13A16463   4.768   3.165   2.931  0.2708 -1.5245 -0.3493
  149OSM   H13B16464   4.599   3.160   2.952  1.4298 -1.1091 -1.6277
  149OSM   H13C16465   4.699   3.163   3.094  0.6721  1.1677 -0.0250
  149OSM    C1216466   4.819   3.408   3.028  0.4114 -0.5079 -0.5708
  149OSM   H12A16467   4.879   3.405   2.938 -0.4138  0.8664 -1.1900
  149OSM   H12B16468   4.868   3.345   3.101 -1.2080 -0.5223  0.5450
  149OSM    C1116469   4.823   3.558   3.068  0.1545 -0.2938  0.1201
  149OSM   H11A16470   4.931   3.581   3.082  0.3401 -0.9509 -0.1808
  149OSM   H11B16471   4.771   3.570   3.166 -2.1903  1.2720 -1.2165
  149OSM      P16472   4.748   3.805   2.984 -0.0414  0.3368 -0.4382
  149OSM    O1316473   4.868   3.873   2.928  0.1214 -0.2775  0.7394
  149OSM    O1416474   4.616   3.854   2.933 -0.5037  0.1471 -0.3981
  149OSM    O1116475   4.744   3.819   3.144  0.8618  1.1097  0.3095
  149OSM    O1216476   4.769   3.642   2.964 -0.1797 -0.2988  0.0829
  149OSM    C1S16477   4.759   3.941   3.209 -0.0706 -0.4608  0.4765
  149OSM    H1S16478   4.688   4.016   3.168 -0.6360 -2.2796 -2.0951
  149OSM    H1T16479   4.862   3.978   3.188  0.6420 -1.2565  2.3051
  149OSM     NF16480   4.774   4.066   3.433  0.1092  0.1494  0.1274
  149OSM    HNF16481   4.854   4.074   3.492  0.9795  2.4399 -1.2592
  149OSM    C2S16482   4.762   3.934   3.365 -0.1796 -0.1480 -0.8250
  149OSM    H2S16483   4.670   3.883   3.400  0.2610  0.1246  0.8212
  149OSM    C3S16484   4.879   3.845   3.411 -0.1974  0.0902 -0.0492
  149OSM    H3S16485   4.976   3.892   3.382  0.1955 -1.4566 -1.4467
  149OSM     O316486   4.886   3.714   3.364 -0.1429  0.3754  0.3139
  149OSM    HO316487   4.824   3.712   3.291  0.0455  2.1754  0.0496
  149OSM    C4S16488   4.877   3.845   3.564 -0.1413 -0.8066  0.1075
  149OSM    H4S16489   4.955   3.910   3.605 -1.9731  1.0167  0.8635
  149OSM    C5S16490   4.809   3.756   3.641  0.2009 -1.1313  0.0188
  149OSM    H5S16491   4.732   3.691   3.598  0.0923 -0.0120 -1.6052
  149OSM    C6S16492   4.832   3.738   3.788  0.3212 -0.3600 -0.1319
  149OSM    H6S16493   4.915   3.799   3.831  0.0341 -0.1409  0.1200
  149OSM    H6T16494   4.864   3.632   3.791 -1.6113 -1.0515 -1.6390
  149OSM    C7S16495   4.721   3.749   3.891  0.8294  0.2799  0.5376
  149OSM    H7S16496   4.663   3.654   3.892  0.4283  0.5141  1.6199
  149OSM    H7T16497   4.635   3.816   3.866  0.8292  0.4921  1.0915
  149OSM    C8S16498   4.771   3.801   4.027 -0.4005 -0.3873 -0.2063
  149OSM    H8S16499   4.805   3.904   4.001  0.1126 -0.1995  1.1261
  149OSM    H8T16500   4.852   3.730   4.050 -1.6727 -2.2138 -1.0986
  149OSM    C9S16501   4.665   3.798   4.135 -0.4233  0.7958  0.2287
  149OSM    H9S16502   4.626   3.696   4.154 -0.6090  0.0345 -3.3798
  149OSM    H9T16503   4.578   3.844   4.083 -0.6467 -0.6813 -0.7839
  149OSM   C10S16504   4.698   3.855   4.270 -0.2203 -0.3883 -0.3513
  149OSM   H10S16505   4.728   3.961   4.278  1.3186 -0.9045  1.6164
  149OSM   H10T16506   4.789   3.795   4.292  0.4298  0.6756 -0.0725
  149OSM   C11S16507   4.608   3.808   4.385  0.3918  0.0492  0.0501
  149OSM   H11S16508   4.654   3.838   4.481 -1.8961 -1.3917  1.7141
  149OSM   H11T16509   4.596   3.697   4.383 -0.9561  0.1561  1.0987
  149OSM   C12S16510   4.469   3.871   4.382 -0.5330 -0.2923  0.3278
  149OSM   H12S16511   4.408   3.821   4.303  0.1354  1.9640 -1.7575
  149OSM   H12T16512   4.481   3.975   4.347  1.5753 -0.4754  0.3554
  149OSM   C13S16513   4.398   3.872   4.508  0.2145 -0.0383 -0.1924
  149OSM   H13S16514   4.416   3.782   4.570  1.7434  0.1124 -0.3933
  149OSM   H13T16515   4.290   3.863   4.482  0.4638 -0.1533 -1.2594
  149OSM   C14S16516   4.412   4.004   4.592 -0.1997  0.3246  0.5263
  149OSM   H14S16517   4.381   4.095   4.537  1.8220 -0.0225 -1.3097
  149OSM   H14T16518   4.518   4.024   4.618 -0.2897  2.7008 -0.6814
  149OSM   C15S16519   4.324   3.983   4.718  0.6158 -0.8369 -0.3498
  149OSM   H15S16520   4.350   3.901   4.788  1.0984  0.0255  0.5094
  149OSM   H15T16521   4.221   3.958   4.684  1.0179 -1.2197 -1.3440
  149OSM   C16S16522   4.337   4.119   4.794  0.4083 -0.7100  0.4093
  149OSM   H16S16523   4.251   4.124   4.865 -0.1992 -1.1980 -0.2756
  149OSM   H16T16524   4.329   4.203   4.722 -1.2507 -2.3461 -1.4258
  149OSM   C17S16525   4.464   4.139   4.868  0.0450  0.0582  0.6563
  149OSM   H17S16526   4.460   4.241   4.912  0.0380 -0.2789  1.4586
  149OSM   H17T16527   4.553   4.146   4.803 -1.0116  0.4948 -0.7963
  149OSM   C18S16528   4.484   4.033   4.977  1.0064 -0.1745 -0.1309
  149OSM   H18S16529   4.566   4.064   5.045  0.8207 -0.9913  0.4799
  149OSM   H18T16530   4.517   3.943   4.922  0.6607 -1.9181  2.3357
  149OSM   H18U16531   4.385   4.016   5.025  0.9056  2.0511  0.5919
  149OSM    C1F16532   4.697   4.170   3.429 -0.0397 -0.5702  0.1636
  149OSM     OF16533   4.624   4.192   3.327 -0.4238  0.1353  0.4799
  149OSM    C2F16534   4.689   4.257   3.552 -0.1667 -0.5633 -0.4449
  149OSM    H2F16535   4.769   4.334   3.546  0.9047 -1.6832 -1.1008
  149OSM    H2G16536   4.708   4.187   3.636  0.6802 -0.8190 -0.8309
  149OSM    C3F16537   4.547   4.325   3.560  0.3532 -0.4050  0.1739
  149OSM    H3F16538   4.542   4.398   3.477 -0.0885  1.0344  1.4314
  149OSM    H3G16539   4.551   4.384   3.653  1.6264 -1.7704  1.0289
  149OSM    C4F16540   4.414   4.242   3.563  0.1678  0.4836  0.2933
  149OSM    H4F16541   4.410   4.163   3.484  1.6231 -0.6574  1.2961
  149OSM    H4G16542   4.325   4.307   3.564 -0.2574 -0.0831  1.8751
  149OSM    C5F16543   4.408   4.163   3.687  0.5821 -0.3004  0.3509
  149OSM    H5F16544   4.380   4.231   3.770  3.5477  1.6918 -0.1112
  149OSM    H5G16545   4.511   4.133   3.716  1.9882  2.9114 -0.9278
  149OSM    C6F16546   4.324   4.034   3.668  0.1916 -0.2294  0.1022
  149OSM    H6F16547   4.382   3.968   3.599 -0.4124 -2.2619  1.4310
  149OSM    H6G16548   4.228   4.064   3.621 -0.8792 -1.5053  1.3634
  149OSM    C7F16549   4.292   3.961   3.798 -0.7658 -0.3363  0.6481
  149OSM    H7F16550   4.230   4.027   3.862  1.6200  2.5059  0.2719
  149OSM    H7G16551   4.393   3.948   3.843  0.2685  1.2253 -1.0993
  149OSM    C8F16552   4.226   3.817   3.792 -1.0062  0.0106  0.3011
  149OSM    H8F16553   4.251   3.766   3.888 -1.3575 -1.2196 -0.2322
  149OSM    H8G16554   4.281   3.758   3.716 -1.2287  0.5162 -0.2569
  149OSM    C9F16555   4.086   3.813   3.763 -0.0522 -1.0332 -0.1036
  149OSM    H9F16556   4.056   3.807   3.657  3.0047  0.5645 -1.1966
  149OSM   C10F16557   3.980   3.803   3.843  0.6937  0.8893 -0.3660
  149OSM   H10F16558   3.879   3.809   3.799  0.6177  0.7222 -0.2183
  149OSM   C11F16559   3.983   3.789   3.991  0.6739 -0.4673 -0.1622
  149OSM   H11F16560   4.044   3.699   4.014  0.2492 -0.8179 -0.3771
  149OSM   H11G16561   3.882   3.764   4.032  0.4020 -0.3309 -0.7408
  149OSM   C12F16562   4.021   3.918   4.063 -0.3738 -0.1531 -0.6601
  149OSM   H12F16563   3.972   4.003   4.010  0.2060  0.8243  0.3162
  149OSM   H12G16564   4.127   3.939   4.037 -0.2910  0.9656  0.4350
  149OSM   C13F16565   3.990   3.932   4.210  0.3564  0.6102 -1.0063
  149OSM   H13F16566   4.055   3.862   4.267 -1.6454 -1.1111 -0.7481
  149OSM   H13G16567   3.889   3.892   4.230  0.1219  1.3610 -0.6509
  149OSM   C14F16568   4.005   4.070   4.270  0.0782 -0.6947  0.4988
  149OSM   H14F16569   3.988   4.084   4.378  0.4947  4.7795  0.1550
  149OSM   H14G16570   3.930   4.124   4.208  0.5422 -0.3702  0.2105
  149OSM   C15F16571   4.153   4.125   4.236 -0.4946 -0.3742  0.1359
  149OSM   H15F16572   4.164   4.154   4.129  1.6986  0.4839  0.5568
  149OSM   H15G16573   4.223   4.044   4.265  0.6924 -0.2535 -2.1158
  149OSM   C16F16574   4.178   4.257   4.324 -0.0391 -0.6546 -0.5254
  149OSM   H16F16575   4.183   4.232   4.432 -0.4568 -0.3318 -0.4295
  149OSM   H16G16576   4.091   4.324   4.310 -0.0932 -0.7320 -0.5619
  149OSM   C17F16577   4.304   4.333   4.283 -0.4494 -0.6229 -0.1771
  149OSM   H17F16578   4.317   4.432   4.331  2.2520 -2.0881  2.4330
  149OSM   H17G16579   4.293   4.359   4.176  1.2564 -1.3196 -0.5540
  149OSM   C18F16580   4.442   4.264   4.306 -0.2146  0.1895 -0.2064
  149OSM   H18F16581   4.519   4.336   4.342 -1.2833  0.6527  1.2578
  149OSM   H18G16582   4.472   4.231   4.204  0.5760 -1.0626  0.4091
  149OSM   H18H16583   4.426   4.175   4.370 -1.6433 -0.9450 -2.0480
  150OSM      N16584   0.057   6.309   3.145  0.1910  0.0633 -0.2136
  150OSM    C1516585  -0.065   6.394   3.146 -0.0523 -0.2932 -0.1591
  150OSM   H15A16586  -0.043   6.494   3.112  2.3185 -1.3791 -2.1831
  150OSM   H15B16587  -0.103   6.394   3.247  0.1711  0.8998 -0.0592
  150OSM   H15C16588  -0.145   6.359   3.083 -0.3912  1.3780 -0.7076
  150OSM    C1416589   0.014   6.180   3.209 -0.3864  0.2249  0.1484
  150OSM   H14A16590  -0.022   6.194   3.310  3.1623 -0.7808  1.7062
  150OSM   H14B16591   0.103   6.122   3.227 -1.0013 -0.6710  0.3636
  150OSM   H14C16592  -0.075   6.140   3.162 -0.2366 -1.3931  1.1892
  150OSM    C1316593   0.089   6.285   3.000 -0.0284 -0.0708  0.8000
  150OSM   H13A16594   0.113   6.379   2.953 -0.5430 -0.3846 -0.1120
  150OSM   H13B16595   0.009   6.238   2.945  1.0399  0.9050 -1.7585
  150OSM   H13C16596   0.172   6.216   3.001 -0.4620 -0.6646  3.7482
  150OSM    C1216597   0.164   6.385   3.227 -0.1486  0.4675  0.1793
  150OSM   H12A16598   0.119   6.427   3.315  1.0048 -1.3794  1.7158
  150OSM   H12B16599   0.197   6.464   3.160 -2.5227  1.5401  0.1923
  150OSM    C1116600   0.289   6.310   3.286 -0.0360  0.5179 -0.3912
  150OSM   H11A16601   0.256   6.238   3.364  0.8047 -0.3941 -0.8637
  150OSM   H11B16602   0.342   6.391   3.340  1.8068 -0.3503 -0.8157
  150OSM      P16603   0.394   6.097   3.160 -0.0321 -0.1506  0.2229
  150OSM    O1316604   0.292   6.051   3.061  0.0059 -0.2200  0.6593
  150OSM    O1416605   0.532   6.078   3.120 -0.6620 -0.2002  0.3886
  150OSM    O1116606   0.370   6.033   3.297  0.2839 -0.3546 -0.0618
  150OSM    O1216607   0.372   6.246   3.188  0.2156 -0.6221  0.0153
  150OSM    C1S16608   0.467   6.007   3.390 -0.0001 -0.5928  0.0917
  150OSM    H1S16609   0.520   6.103   3.409  1.9833 -1.8610  1.4164
  150OSM    H1T16610   0.547   5.941   3.350  0.2038 -0.3784  0.1451
  150OSM     NF16611   0.492   5.972   3.644  0.5918 -0.3906  0.5447
  150OSM    HNF16612   0.554   5.898   3.670  1.9403 -0.4636 -2.4514
  150OSM    C2S16613   0.410   5.949   3.523  0.4121  0.2123  0.5022
  150OSM    H2S16614   0.313   6.000   3.539 -2.1012 -2.5108 -3.9000
  150OSM    C3S16615   0.369   5.793   3.498  0.0319  0.1684  0.2024
  150OSM    H3S16616   0.463   5.735   3.504  0.6913  1.2977  1.4398
  150OSM     O316617   0.308   5.771   3.369 -0.2878 -0.1813  0.2535
  150OSM    HO316618   0.325   5.849   3.316  1.6544 -2.4099 -2.7560
  150OSM    C4S16619   0.278   5.735   3.601 -0.1594  0.3351  0.4924
  150OSM    H4S16620   0.171   5.734   3.575  0.0054 -0.4312 -0.2009
  150OSM    C5S16621   0.322   5.672   3.712 -0.3302  1.0477 -0.2919
  150OSM    H5S16622   0.430   5.656   3.727 -0.3624 -0.4351 -1.4931
  150OSM    C6S16623   0.230   5.604   3.817  0.3718 -0.0770 -0.1524
  150OSM    H6S16624   0.270   5.504   3.844  0.0370 -0.8574 -2.3395
  150OSM    H6T16625   0.127   5.589   3.779 -0.5364 -0.5018  2.2987
  150OSM    C7S16626   0.204   5.696   3.935  0.2502 -0.0282 -1.3578
  150OSM    H7S16627   0.165   5.792   3.893 -0.7608 -0.7281 -2.0439
  150OSM    H7T16628   0.292   5.717   4.001  1.4631  0.9589 -3.1986
  150OSM    C8S16629   0.111   5.632   4.035  0.0317  0.3414 -1.6677
  150OSM    H8S16630   0.161   5.543   4.079  1.5381  3.0857  2.8995
  150OSM    H8T16631   0.016   5.602   3.987  0.6382 -2.0720 -1.4843
  150OSM    C9S16632   0.067   5.709   4.165  1.1845  0.4487 -0.0991
  150OSM    H9S16633  -0.014   5.656   4.219  0.7760  2.4152  1.3039
  150OSM    H9T16634   0.015   5.804   4.140 -3.0809 -0.8281  2.8092
  150OSM   C10S16635   0.169   5.738   4.275  0.6691  0.3499  0.6005
  150OSM   H10S16636   0.243   5.814   4.242  1.8262 -1.0432 -0.0857
  150OSM   H10T16637   0.230   5.649   4.302  1.9462  0.6149 -1.2178
  150OSM   C11S16638   0.101   5.778   4.411  0.0268  0.3632  0.1388
  150OSM   H11S16639   0.032   5.697   4.442 -1.6188  1.7251  0.2396
  150OSM   H11T16640   0.040   5.867   4.381  0.1113 -0.1505 -1.6614
  150OSM   C12S16641   0.193   5.809   4.527 -0.7136 -0.4709  0.1758
  150OSM   H12S16642   0.239   5.908   4.509  0.3666 -0.8844  0.5379
  150OSM   H12T16643   0.274   5.734   4.517  1.1708  1.7620 -2.6932
  150OSM   C13S16644   0.125   5.804   4.670  0.0876 -0.0757  0.9764
  150OSM   H13S16645   0.107   5.704   4.716 -0.1933  0.4919  2.1336
  150OSM   H13T16646   0.024   5.849   4.661  0.7013  1.1963  0.1570
  150OSM   C14S16647   0.195   5.884   4.778  0.7373 -0.2354 -1.1217
  150OSM   H14S16648   0.216   5.986   4.739 -1.6797  0.3310 -1.0798
  150OSM   H14T16649   0.300   5.851   4.793  0.9026  0.7076 -0.1105
  150OSM   C15S16650   0.124   5.878   4.914 -0.4945 -0.2689  0.4062
  150OSM   H15S16651   0.077   5.779   4.927 -1.7274 -0.2049 -2.6691
  150OSM   H15T16652   0.043   5.953   4.898 -1.7017 -2.0537 -2.5155
  150OSM   C16S16653   0.197   5.946   5.030  0.3473 -0.5325 -0.0510
  150OSM   H16S16654   0.223   6.050   5.003 -0.3029 -0.2580  0.3493
  150OSM   H16T16655   0.288   5.885   5.049  2.0729  2.2979  1.2759
  150OSM   C17S16656   0.112   5.955   5.165 -0.8815  0.5881  0.6801
  150OSM   H17S16657   0.070   5.853   5.177 -2.0230  0.9984  0.2992
  150OSM   H17T16658   0.020   6.012   5.141 -2.3715 -1.2263  1.7943
  150OSM   C18S16659   0.183   5.999   5.292 -0.0588 -0.1212 -0.3740
  150OSM   H18S16660   0.264   5.926   5.309  0.9944  1.1585  0.2178
  150OSM   H18T16661   0.118   5.996   5.382 -1.4678  1.3584 -1.2796
  150OSM   H18U16662   0.242   6.092   5.279  0.2166 -0.4905 -2.1177
  150OSM    C1F16663   0.515   6.097   3.683 -0.0506  0.1014 -0.4819
  150OSM     OF16664   0.465   6.196   3.635  0.1397 -0.4608 -0.3649
  150OSM    C2F16665   0.607   6.116   3.799 -0.3699  0.6983 -0.3731
  150OSM    H2F16666   0.699   6.054   3.788 -0.9643  0.0351 -1.9254
  150OSM    H2G16667   0.564   6.086   3.897 -2.5127  2.3315 -0.7393
  150OSM    C3F16668   0.631   6.269   3.812 -0.1299  0.1319 -0.9268
  150OSM    H3F16669   0.536   6.324   3.827 -0.4323 -0.8571  1.2362
  150OSM    H3G16670   0.660   6.302   3.710 -0.6915  0.5642 -0.9474
  150OSM    C4F16671   0.738   6.300   3.925  0.5675 -0.8002 -0.0759
  150OSM    H4F16672   0.753   6.408   3.947 -1.2395 -0.6539  0.6338
  150OSM    H4G16673   0.837   6.269   3.885  1.6219  3.3206 -1.1966
  150OSM    C5F16674   0.721   6.226   4.057 -0.3913  0.0700  0.2086
  150OSM    H5F16675   0.733   6.116   4.060  1.3983  0.2585  1.6258
  150OSM    H5G16676   0.615   6.236   4.086 -0.0973  0.3363  1.2272
  150OSM    C6F16677   0.811   6.279   4.169  0.4587 -0.4117  0.1048
  150OSM    H6F16678   0.771   6.381   4.187 -0.8683 -0.3004 -2.7645
  150OSM    H6G16679   0.915   6.288   4.131 -0.1689  0.7143 -1.4733
  150OSM    C7F16680   0.798   6.193   4.297 -0.2130  0.0752  0.4651
  150OSM    H7F16681   0.832   6.090   4.274  0.1221  0.0389  1.1007
  150OSM    H7G16682   0.690   6.195   4.324  0.0625 -0.0684  1.6475
  150OSM    C8F16683   0.878   6.244   4.417  0.3499 -0.2773  0.1922
  150OSM    H8F16684   0.979   6.269   4.377  1.2475 -0.5807  2.1403
  150OSM    H8G16685   0.900   6.160   4.486  1.0104  0.4039  0.8328
  150OSM    C9F16686   0.804   6.360   4.484  0.3970 -0.9641  0.2638
  150OSM    H9F16687   0.757   6.436   4.420  1.0734 -1.7061 -1.1741
  150OSM   C10F16688   0.785   6.384   4.615  0.2679  0.1023  0.0794
  150OSM   H10F16689   0.717   6.469   4.635  1.0357  1.0309 -1.1212
  150OSM   C11F16690   0.838   6.311   4.736  0.3693  0.2954  0.8125
  150OSM   H11F16691   0.899   6.220   4.721  0.7700  0.5484  0.8933
  150OSM   H11G16692   0.750   6.280   4.795 -0.8300  2.3498  0.2081
  150OSM   C12F16693   0.913   6.413   4.825 -0.2500  0.1907  0.2470
  150OSM   H12F16694   0.856   6.505   4.850  1.0467  1.0677  0.0987
  150OSM   H12G16695   1.007   6.439   4.772  0.4023 -2.3509  0.0130
  150OSM   C13F16696   0.951   6.358   4.963 -0.1427 -0.1222 -0.3050
  150OSM   H13F16697   0.859   6.327   5.017 -1.2946 -0.4053 -2.3258
  150OSM   H13G16698   1.011   6.436   5.016 -0.5433  0.1754 -0.2832
  150OSM   C14F16699   1.045   6.229   4.958 -0.0069  0.6023  0.4256
  150OSM   H14F16700   1.111   6.258   4.873 -0.5226 -0.0052 -0.1919
  150OSM   H14G16701   0.986   6.137   4.942  0.5145 -0.2681  3.0410
  150OSM   C15F16702   1.128   6.179   5.081 -0.5259 -0.1866 -0.3182
  150OSM   H15F16703   1.186   6.091   5.042 -2.6367 -1.2536 -1.1980
  150OSM   H15G16704   1.073   6.138   5.168  1.4283  0.4475  1.3096
  150OSM   C16F16705   1.230   6.284   5.138  0.4614  0.1049 -0.4994
  150OSM   H16F16706   1.151   6.358   5.165  0.5176  0.4603 -1.2844
  150OSM   H16G16707   1.291   6.305   5.048 -0.4687  0.1126 -1.1413
  150OSM   C17F16708   1.296   6.238   5.270  0.6018 -0.1316 -0.1435
  150OSM   H17F16709   1.365   6.155   5.245  0.5184  0.5365 -2.9497
  150OSM   H17G16710   1.211   6.205   5.333 -1.3566  0.5048 -2.2861
  150OSM   C18F16711   1.367   6.347   5.359  0.3571  0.3003  0.4068
  150OSM   H18F16712   1.466   6.356   5.311  0.6267 -1.4916  0.5702
  150OSM   H18G16713   1.383   6.308   5.461  1.3023 -1.1197 -0.2421
  150OSM   H18H16714   1.309   6.441   5.367  1.4540  0.9717  0.6011
  151OSM      N16715   0.752   4.800   3.286 -0.0469  0.7387 -0.0083
  151OSM    C1516716   0.736   4.668   3.353  0.3098  0.1519 -0.3681
  151OSM   H15A16717   0.682   4.674   3.446  0.3556  1.7676 -0.4143
  151OSM   H15B16718   0.835   4.631   3.373  0.2419 -0.4391 -1.0964
  151OSM   H15C16719   0.684   4.597   3.290 -2.0341  1.0031  0.4759
  151OSM    C1416720   0.816   4.779   3.154  0.2432  0.6068  0.3353
  151OSM   H14A16721   0.815   4.873   3.101 -1.0187  0.6496  0.3951
  151OSM   H14B16722   0.763   4.702   3.100  0.0826  0.6717  0.4005
  151OSM   H14C16723   0.917   4.742   3.159 -0.5328 -1.6660  0.2608
  151OSM    C1316724   0.618   4.859   3.255 -0.3362 -0.3166  0.4981
  151OSM   H13A16725   0.563   4.809   3.176  0.9518  1.4590 -1.6499
  151OSM   H13B16726   0.631   4.961   3.221  0.2720 -1.0313 -1.5761
  151OSM   H13C16727   0.551   4.842   3.338 -1.7579 -4.6928 -1.2208
  151OSM    C1216728   0.832   4.893   3.372 -0.0016  0.5651 -0.4837
  151OSM   H12A16729   0.925   4.840   3.383  1.0819  2.5242  0.3200
  151OSM   H12B16730   0.787   4.894   3.470  1.4944 -1.4159  0.3123
  151OSM    C1116731   0.863   5.026   3.322  0.0524  0.0877 -0.0496
  151OSM   H11A16732   0.771   5.080   3.288 -0.4777 -0.5603  0.3325
  151OSM   H11B16733   0.936   5.020   3.239  0.6320 -2.7425  0.5542
  151OSM      P16734   1.077   5.096   3.452 -0.5070  0.0688 -0.0875
  151OSM    O1316735   1.127   4.959   3.482 -0.4966 -0.1172 -0.3071
  151OSM    O1416736   1.142   5.171   3.338  0.2911 -0.4250 -0.7263
  151OSM    O1116737   1.085   5.189   3.577 -0.5276 -0.4332 -0.1463
  151OSM    O1216738   0.922   5.101   3.432 -0.0055 -0.1109  0.5380
  151OSM    C1S16739   1.019   5.158   3.703 -0.0855  0.1740  0.2535
  151OSM    H1S16740   1.010   5.049   3.725  0.0069 -0.0267 -0.6498
  151OSM    H1T16741   0.921   5.210   3.710  0.9056  2.1003  0.5450
  151OSM     NF16742   1.078   5.156   3.942 -0.7642  0.0105  0.1857
  151OSM    HNF16743   1.002   5.190   3.997  0.0744  0.6479  0.9603
  151OSM    C2S16744   1.106   5.226   3.814 -0.1419 -0.0558 -0.0974
  151OSM    H2S16745   1.207   5.199   3.778  0.3510  1.4340  0.0950
  151OSM    C3S16746   1.090   5.374   3.814  0.2508 -0.5776 -0.4881
  151OSM    H3S16747   0.987   5.392   3.851  1.6715  1.3368  2.9523
  151OSM     O316748   1.117   5.429   3.692  0.1771  0.0700  0.0310
  151OSM    HO316749   1.135   5.353   3.637 -1.2536 -0.7378  0.6193
  151OSM    C4S16750   1.187   5.432   3.917 -0.3156  0.1887 -0.2812
  151OSM    H4S16751   1.289   5.434   3.874 -0.4412  1.1155 -0.5448
  151OSM    C5S16752   1.151   5.475   4.042 -0.1932  0.2493 -0.0896
  151OSM    H5S16753   1.044   5.470   4.070 -0.2134 -0.3173 -0.2509
  151OSM    C6S16754   1.250   5.525   4.142  0.0911 -0.8891  0.0942
  151OSM    H6S16755   1.254   5.636   4.134 -0.8774 -0.9268 -1.3215
  151OSM    H6T16756   1.346   5.478   4.113 -1.2483 -4.0850  0.4423
  151OSM    C7S16757   1.216   5.481   4.284 -0.9143  0.4545  0.3569
  151OSM    H7S16758   1.243   5.374   4.297  1.1608  0.8068 -0.6188
  151OSM    H7T16759   1.109   5.501   4.305 -0.6020  2.2445  0.4025
  151OSM    C8S16760   1.293   5.555   4.390 -0.2676 -0.4761 -0.3861
  151OSM    H8S16761   1.238   5.652   4.392  0.0458 -0.3015 -0.2167
  151OSM    H8T16762   1.396   5.577   4.354 -0.0425  0.7219  0.8898
  151OSM    C9S16763   1.282   5.475   4.522 -1.4295 -0.1055  0.7656
  151OSM    H9S16764   1.354   5.391   4.518 -1.5329 -0.1426 -1.3861
  151OSM    H9T16765   1.177   5.441   4.536 -0.4343 -2.4898  3.2872
  151OSM   C10S16766   1.312   5.567   4.642 -0.1856  0.2987  0.1277
  151OSM   H10S16767   1.254   5.662   4.638 -1.5546 -0.5330 -0.4015
  151OSM   H10T16768   1.419   5.596   4.635 -0.2072  0.6091  1.0088
  151OSM   C11S16769   1.288   5.500   4.776  0.1785  0.6115  0.3094
  151OSM   H11S16770   1.334   5.400   4.781  0.0745  0.5797  0.6406
  151OSM   H11T16771   1.179   5.480   4.787  0.3320  0.7699  2.4783
  151OSM   C12S16772   1.333   5.573   4.903 -0.4838 -0.2997 -0.2665
  151OSM   H12S16773   1.433   5.618   4.883  0.2360 -2.1146 -0.9370
  151OSM   H12T16774   1.341   5.504   4.990 -1.1819  0.6264  0.5572
  151OSM   C13S16775   1.225   5.678   4.940  0.2657 -0.5905 -0.2329
  151OSM   H13S16776   1.121   5.640   4.931  0.2660 -0.3975 -1.1534
  151OSM   H13T16777   1.227   5.749   4.855  2.2471  1.0921  1.1256
  151OSM   C14S16778   1.247   5.742   5.069  0.6090 -0.0578  0.5387
  151OSM   H14S16779   1.226   5.851   5.059  0.6663 -0.0857  0.0881
  151OSM   H14T16780   1.353   5.749   5.100  0.6224 -1.2483  0.8145
  151OSM   C15S16781   1.149   5.698   5.176  0.3986  0.4382 -0.1148
  151OSM   H15S16782   1.174   5.597   5.216  1.7869  0.9921  0.4509
  151OSM   H15T16783   1.048   5.696   5.128  0.8324  1.6881 -1.1319
  151OSM   C16S16784   1.143   5.800   5.288 -0.5371  0.2228  0.3705
  151OSM   H16S16785   1.068   5.765   5.363 -0.6359 -0.6376 -0.1107
  151OSM   H16T16786   1.109   5.895   5.242 -2.0767 -1.7016 -2.7570
  151OSM   C17S16787   1.283   5.825   5.361 -0.5046  0.7472 -0.2731
  151OSM   H17S16788   1.307   5.933   5.364  0.1991  0.5816  0.0714
  151OSM   H17T16789   1.366   5.769   5.313  0.3897  1.1659  0.7365
  151OSM   C18S16790   1.276   5.768   5.506  0.1678 -0.2977  0.2211
  151OSM   H18S16791   1.378   5.764   5.550 -0.3359 -2.2921  1.3088
  151OSM   H18T16792   1.230   5.667   5.504 -1.6443  0.5095 -0.9196
  151OSM   H18U16793   1.219   5.841   5.567 -0.9986 -0.4317 -0.6820
  151OSM    C1F16794   1.129   5.039   3.964 -0.2604  0.1293 -0.7516
  151OSM     OF16795   1.207   5.005   3.877 -0.4516  0.3354  0.2289
  151OSM    C2F16796   1.099   4.957   4.082 -0.8258 -0.4392 -0.1882
  151OSM    H2F16797   1.046   4.861   4.061 -1.3605  0.0030 -0.8948
  151OSM    H2G16798   1.040   5.006   4.163  0.6039  0.2406  0.4733
  151OSM    C3F16799   1.231   4.935   4.163  0.4010 -0.3444  1.1594
  151OSM    H3F16800   1.274   5.037   4.172  0.1110  0.1467 -2.1239
  151OSM    H3G16801   1.310   4.883   4.104  0.3895  0.9371 -0.0158
  151OSM    C4F16802   1.221   4.858   4.295  0.3736  0.1988 -1.0825
  151OSM    H4F16803   1.168   4.760   4.285 -0.6480  0.5718  0.3107
  151OSM    H4G16804   1.155   4.920   4.360  1.0655 -0.9646  0.8193
  151OSM    C5F16805   1.356   4.830   4.375  0.9299  0.6140 -0.6804
  151OSM    H5F16806   1.390   4.933   4.400 -1.2378  1.1387  0.3259
  151OSM    H5G16807   1.430   4.772   4.316  0.2013 -1.5537  0.4549
  151OSM    C6F16808   1.335   4.752   4.512  0.1642 -0.1002  0.5808
  151OSM    H6F16809   1.295   4.652   4.487 -0.1298  0.2599 -0.4590
  151OSM    H6G16810   1.262   4.811   4.571 -1.6527 -0.8904 -0.7867
  151OSM    C7F16811   1.459   4.740   4.602 -0.5897  0.1853  0.8892
  151OSM    H7F16812   1.516   4.835   4.595 -0.2025  0.0020  1.4721
  151OSM    H7G16813   1.515   4.656   4.555 -2.2436 -0.0455 -0.7771
  151OSM    C8F16814   1.425   4.711   4.750  0.0033  0.3886  0.0610
  151OSM    H8F16815   1.368   4.620   4.775 -1.0480  0.8727 -0.5096
  151OSM    H8G16816   1.357   4.791   4.788 -0.6347  1.0302 -2.2670
  151OSM    C9F16817   1.549   4.727   4.834 -0.8606 -0.9723  0.5863
  151OSM    H9F16818   1.599   4.825   4.829 -2.4689  0.2185  4.1200
  151OSM   C10F16819   1.615   4.637   4.901 -0.1662 -0.7642  0.2626
  151OSM   H10F16820   1.699   4.677   4.961  0.4966 -0.0320 -1.0985
  151OSM   C11F16821   1.569   4.493   4.927  1.1241 -0.1185  0.1602
  151OSM   H11F16822   1.459   4.495   4.936  1.0631 -0.3438 -0.4740
  151OSM   H11G16823   1.605   4.452   5.024 -0.7440 -0.5144  0.7147
  151OSM   C12F16824   1.617   4.396   4.814  0.5003  0.3161 -0.7554
  151OSM   H12F16825   1.564   4.436   4.725  1.1482  0.0559 -1.2664
  151OSM   H12G16826   1.587   4.292   4.837  0.8368  0.7487  1.9807
  151OSM   C13F16827   1.766   4.406   4.781 -0.3716  0.0625 -0.2528
  151OSM   H13F16828   1.813   4.374   4.876 -0.9175  0.6003  0.2051
  151OSM   H13G16829   1.807   4.507   4.761  1.8066 -0.3182  1.8476
  151OSM   C14F16830   1.802   4.313   4.662 -0.3780  0.1559  0.1494
  151OSM   H14F16831   1.761   4.214   4.692 -0.3597  0.1349  0.1039
  151OSM   H14G16832   1.913   4.311   4.655 -0.4219  0.6208 -0.7648
  151OSM   C15F16833   1.749   4.366   4.529  0.0192  0.4909  0.4224
  151OSM   H15F16834   1.767   4.475   4.518 -1.2520  0.6995  0.2775
  151OSM   H15G16835   1.638   4.357   4.530  0.1129 -0.7960  1.0748
  151OSM   C16F16836   1.808   4.292   4.412  0.6179 -0.6129  0.1440
  151OSM   H16F16837   1.777   4.186   4.420  2.2599 -1.3897 -2.4377
  151OSM   H16G16838   1.917   4.315   4.410  0.3550  0.7101 -0.7130
  151OSM   C17F16839   1.744   4.321   4.274 -0.2526  0.6465 -0.5457
  151OSM   H17F16840   1.784   4.415   4.230  0.0904  1.0453  0.5703
  151OSM   H17G16841   1.637   4.340   4.295 -0.8718 -3.0262  0.4251
  151OSM   C18F16842   1.765   4.212   4.167  0.8837 -0.4491  0.3530
  151OSM   H18F16843   1.678   4.204   4.098  1.1395 -0.5446  0.0350
  151OSM   H18G16844   1.776   4.120   4.228  1.2544 -1.0559 -0.6053
  151OSM   H18H16845   1.858   4.229   4.107  1.4827  1.6442  1.7539
  152OSM      N16846   2.283   5.490   2.720 -0.1282 -0.0890 -0.1811
  152OSM    C1516847   2.226   5.625   2.692  0.6184  0.1113  0.2778
  152OSM   H15A16848   2.296   5.700   2.725 -0.0682  0.0873  1.8655
  152OSM   H15B16849   2.125   5.636   2.730 -0.3084 -0.8570 -1.7396
  152OSM   H15C16850   2.211   5.633   2.585 -1.7174  1.3726  0.6187
  152OSM    C1416851   2.212   5.380   2.647 -0.0385  0.1746  0.5054
  152OSM   H14A16852   2.108   5.363   2.671 -0.8855  1.5574 -1.8682
  152OSM   H14B16853   2.251   5.281   2.667  0.3131  0.1589 -0.2148
  152OSM   H14C16854   2.212   5.406   2.542 -2.9435  2.9470  1.0618
  152OSM    C1316855   2.427   5.483   2.676 -0.1013 -0.0172  0.6082
  152OSM   H13A16856   2.439   5.462   2.571 -1.0874 -0.1712  0.5171
  152OSM   H13B16857   2.480   5.414   2.739  1.3703  0.2334 -0.3210
  152OSM   H13C16858   2.471   5.580   2.692 -0.6650  0.7686 -2.1628
  152OSM    C1216859   2.279   5.465   2.872  1.1504 -0.2375 -0.0876
  152OSM   H12A16860   2.329   5.374   2.901  3.1588  0.5602 -0.8677
  152OSM   H12B16861   2.175   5.469   2.900  1.0175  1.8475 -0.7018
  152OSM    C1116862   2.333   5.569   2.969 -0.7658 -0.6128  0.2556
  152OSM   H11A16863   2.438   5.599   2.944 -0.8740  0.0995  0.6172
  152OSM   H11B16864   2.337   5.523   3.070  2.2317  1.6809  1.3362
  152OSM      P16865   2.111   5.682   3.042  0.0337  0.4560  0.0862
  152OSM    O1316866   2.039   5.812   3.019  0.0602  0.5444 -0.3818
  152OSM    O1416867   2.026   5.568   3.001 -0.4400  0.1636 -0.0960
  152OSM    O1116868   2.145   5.654   3.188  0.6290  0.4966  0.3658
  152OSM    O1216869   2.251   5.686   2.968 -0.5236  0.2654 -0.6261
  152OSM    C1S16870   2.229   5.748   3.258 -0.6026  0.0740 -0.2584
  152OSM    H1S16871   2.171   5.843   3.261  0.6605  0.9134 -1.2197
  152OSM    H1T16872   2.326   5.763   3.207  1.0531 -0.5153  2.5246
  152OSM     NF16873   2.315   5.815   3.485 -0.7608  0.1508  0.3299
  152OSM    HNF16874   2.410   5.805   3.514 -0.9899  0.2656  1.1534
  152OSM    C2S16875   2.256   5.707   3.408  0.0002 -0.4974 -0.9626
  152OSM    H2S16876   2.168   5.690   3.473  0.1106  0.5765 -0.5115
  152OSM    C3S16877   2.343   5.577   3.412 -0.4372 -0.3675  0.7746
  152OSM    H3S16878   2.447   5.613   3.395 -0.1430 -1.0221  1.1851
  152OSM     O316879   2.304   5.478   3.315  0.5189  0.0884  0.0398
  152OSM    HO316880   2.232   5.525   3.272  0.1290  0.6781  1.2808
  152OSM    C4S16881   2.342   5.514   3.542 -0.2365  0.3107  0.3597
  152OSM    H4S16882   2.245   5.478   3.578 -0.7298  0.5560 -0.6968
  152OSM    C5S16883   2.448   5.492   3.625  0.0563  0.2970 -0.0297
  152OSM    H5S16884   2.549   5.505   3.584 -0.5244  1.1161 -1.2848
  152OSM    C6S16885   2.445   5.414   3.757 -0.8067 -0.1215  0.4580
  152OSM    H6S16886   2.479   5.311   3.730 -0.6269  0.0735 -0.0712
  152OSM    H6T16887   2.342   5.408   3.798 -0.5631  0.5493  1.1884
  152OSM    C7S16888   2.550   5.472   3.847  0.5790  0.0432  0.6660
  152OSM    H7S16889   2.525   5.571   3.891  0.4059 -0.5737  2.0150
  152OSM    H7T16890   2.639   5.483   3.781 -0.9093  0.5742 -1.3309
  152OSM    C8S16891   2.586   5.383   3.968 -0.5419  0.2985  0.3629
  152OSM    H8S16892   2.653   5.301   3.937 -0.3006  0.2203  1.0725
  152OSM    H8T16893   2.486   5.340   3.992 -1.0356  1.1103 -0.1636
  152OSM    C9S16894   2.635   5.456   4.090 -0.0436  0.1143  0.4225
  152OSM    H9S16895   2.551   5.493   4.153  0.6155  0.7543  0.9493
  152OSM    H9T16896   2.692   5.549   4.069 -1.3338  1.2102  1.5600
  152OSM   C10S16897   2.729   5.376   4.182  0.0752 -0.2431 -0.0560
  152OSM   H10S16898   2.818   5.345   4.124  0.6234  0.8963  0.1584
  152OSM   H10T16899   2.676   5.282   4.210  0.0419  0.3157  1.8920
  152OSM   C11S16900   2.772   5.458   4.304 -0.7774 -0.3252  0.0398
  152OSM   H11S16901   2.815   5.555   4.272  0.1783 -0.4530  0.9005
  152OSM   H11T16902   2.858   5.404   4.348  0.6479  0.4939 -1.6014
  152OSM   C12S16903   2.654   5.481   4.392  0.2208 -0.5740 -0.9508
  152OSM   H12S16904   2.597   5.386   4.400  1.4659 -1.3373 -0.9032
  152OSM   H12T16905   2.597   5.570   4.357  1.2095 -0.2081 -1.7083
  152OSM   C13S16906   2.700   5.518   4.532 -0.2326 -0.6429 -0.0734
  152OSM   H13S16907   2.612   5.569   4.578  0.4914  1.9613 -1.3320
  152OSM   H13T16908   2.784   5.591   4.530  0.9596 -1.9611  0.2330
  152OSM   C14S16909   2.748   5.399   4.614 -0.0924  0.2317  0.5414
  152OSM   H14S16910   2.831   5.348   4.560 -0.5727  0.0535 -0.0364
  152OSM   H14T16911   2.676   5.314   4.627 -0.6908  0.5017 -0.8056
  152OSM   C15S16912   2.813   5.448   4.744  0.4629 -0.0623  0.0154
  152OSM   H15S16913   2.739   5.505   4.804  2.0304 -0.0747  2.0383
  152OSM   H15T16914   2.891   5.520   4.711  0.2205 -0.7588 -2.2775
  152OSM   C16S16915   2.878   5.340   4.824  1.4157 -0.0040  0.3816
  152OSM   H16S16916   2.983   5.334   4.790  1.6382  0.3322  0.9882
  152OSM   H16T16917   2.824   5.244   4.808 -0.2706  1.1119 -0.9860
  152OSM   C17S16918   2.884   5.371   4.979  0.0079 -0.5604  0.0973
  152OSM   H17S16919   2.796   5.328   5.030 -1.1910  1.2036 -0.3604
  152OSM   H17T16920   2.878   5.481   4.997 -0.0423 -0.1457 -2.1727
  152OSM   C18S16921   3.009   5.315   5.049  0.4609 -0.4150  0.2500
  152OSM   H18S16922   3.091   5.380   5.013 -0.4066  1.5953  1.6906
  152OSM   H18T16923   3.025   5.208   5.023  1.9405 -0.4718  1.2965
  152OSM   H18U16924   3.005   5.320   5.160 -0.3708  1.0480  0.1816
  152OSM    C1F16925   2.255   5.934   3.507 -0.2848  0.2610 -0.7389
  152OSM     OF16926   2.146   5.961   3.454 -0.2627 -0.3313 -0.0429
  152OSM    C2F16927   2.336   6.044   3.588  0.1250  0.0717  0.4695
  152OSM    H2F16928   2.429   6.078   3.537  1.8870 -0.7653  2.9454
  152OSM    H2G16929   2.360   5.983   3.677  1.0082  0.1036  0.2570
  152OSM    C3F16930   2.254   6.165   3.637  0.0276  0.0313  0.0387
  152OSM    H3F16931   2.143   6.154   3.634  0.0061 -0.9789  2.2629
  152OSM    H3G16932   2.270   6.252   3.570  0.2760  0.4478  0.6342
  152OSM    C4F16933   2.291   6.203   3.778 -0.2593 -0.3763  0.2686
  152OSM    H4F16934   2.402   6.197   3.782  0.0001 -0.2511 -3.2306
  152OSM    H4G16935   2.267   6.128   3.856  2.0631 -2.4608 -0.8764
  152OSM    C5F16936   2.250   6.348   3.822  0.1142 -0.0232 -0.1204
  152OSM    H5F16937   2.139   6.337   3.820  0.2028 -1.4609  1.1397
  152OSM    H5G16938   2.266   6.422   3.740 -0.7067 -1.4952 -1.6872
  152OSM    C6F16939   2.279   6.391   3.971  0.6992 -0.1146  0.6086
  152OSM    H6F16940   2.236   6.318   4.044 -0.3307 -1.0629 -0.9047
  152OSM    H6G16941   2.224   6.484   3.997  0.0443 -0.3359  0.0292
  152OSM    C7F16942   2.425   6.421   3.999  0.2138  0.4373  0.3058
  152OSM    H7F16943   2.446   6.521   3.956 -1.9252  0.4062 -0.9580
  152OSM    H7G16944   2.493   6.355   3.942 -0.3702  0.9333 -1.0204
  152OSM    C8F16945   2.474   6.411   4.146 -0.4933 -0.0744  0.3147
  152OSM    H8F16946   2.491   6.305   4.173  0.5801 -0.4555 -1.6707
  152OSM    H8G16947   2.391   6.447   4.210 -1.4786  1.4289 -1.6680
  152OSM    C9F16948   2.600   6.489   4.170 -0.6067  0.2950  0.2112
  152OSM    H9F16949   2.665   6.473   4.082 -0.2154 -1.2093  0.7456
  152OSM   C10F16950   2.627   6.571   4.272 -0.3987 -0.0364  0.5006
  152OSM   H10F16951   2.717   6.634   4.279  0.3300 -1.1409  1.4834
  152OSM   C11F16952   2.549   6.583   4.395  0.2451 -0.0321 -0.3598
  152OSM   H11F16953   2.444   6.547   4.386 -0.7940  2.3369  1.3426
  152OSM   H11G16954   2.546   6.687   4.434  2.1988 -0.4342  1.0187
  152OSM   C12F16955   2.601   6.499   4.511  0.7705  0.4240  0.4053
  152OSM   H12F16956   2.551   6.543   4.600 -1.5194  0.3486 -0.7716
  152OSM   H12G16957   2.711   6.493   4.527  0.8280 -0.3674 -0.2133
  152OSM   C13F16958   2.559   6.346   4.521 -0.0615 -0.2058  0.4067
  152OSM   H13F16959   2.627   6.306   4.444  0.0121  2.2107 -0.8891
  152OSM   H13G16960   2.453   6.332   4.490 -0.5552  0.1540  1.8389
  152OSM   C14F16961   2.578   6.290   4.654 -0.1110 -0.0606 -0.5238
  152OSM   H14F16962   2.669   6.322   4.709 -1.6997 -0.3073  2.4433
  152OSM   H14G16963   2.582   6.179   4.642  0.9049 -0.0956  0.0388
  152OSM   C15F16964   2.457   6.300   4.755  0.2893  0.2098  0.3091
  152OSM   H15F16965   2.368   6.266   4.697 -0.7057  1.6701  0.9127
  152OSM   H15G16966   2.426   6.406   4.766  0.3666  0.3896 -1.0251
  152OSM   C16F16967   2.467   6.231   4.895  0.5838 -0.1704 -0.2826
  152OSM   H16F16968   2.480   6.121   4.895  3.5235  0.0943  0.4669
  152OSM   H16G16969   2.373   6.251   4.951  0.5242  0.8984 -0.7349
  152OSM   C17F16970   2.581   6.294   4.982 -0.2212  0.0759  0.1909
  152OSM   H17F16971   2.612   6.382   4.922 -0.4025 -0.4748 -0.7296
  152OSM   H17G16972   2.653   6.209   4.980  0.8342  0.9477 -0.3172
  152OSM   C18F16973   2.543   6.325   5.119 -0.5176 -0.1264 -0.4303
  152OSM   H18F16974   2.522   6.235   5.181 -2.1423 -0.4734 -1.4190
  152OSM   H18G16975   2.452   6.387   5.131 -0.3341 -0.0830  0.9196
  152OSM   H18H16976   2.625   6.384   5.166 -0.6775 -0.2278 -0.0216
  153OSM      N16977   5.363   0.045   2.875  0.3387 -0.5903  0.0059
  153OSM    C1516978   5.515   0.081   2.890 -0.3469 -0.2916 -0.2446
  153OSM   H15A16979   5.568  -0.006   2.926  1.4367  0.7940 -0.1312
  153OSM   H15B16980   5.541   0.163   2.955  1.3215 -0.8160 -0.2166
  153OSM   H15C16981   5.533   0.105   2.786 -2.7999 -1.6091 -1.0629
  153OSM    C1416982   5.287   0.180   2.867  0.5278  0.3140 -0.8765
  153OSM   H14A16983   5.183   0.156   2.851  0.1602 -0.2317  1.9450
  153OSM   H14B16984   5.327   0.230   2.779  0.5137 -1.2470 -1.7978
  153OSM   H14C16985   5.295   0.241   2.955 -3.7317 -2.1511  1.5270
  153OSM    C1316986   5.346  -0.043   2.752  0.1057 -0.3567 -0.3650
  153OSM   H13A16987   5.240  -0.051   2.736  0.1282 -1.8074  0.0387
  153OSM   H13B16988   5.389  -0.139   2.778 -2.4573 -0.8119  2.8264
  153OSM   H13C16989   5.398   0.004   2.670  0.0071  2.0239  0.8552
  153OSM    C1216990   5.308  -0.028   2.999 -0.0311  0.4932 -0.2556
  153OSM   H12A16991   5.371  -0.115   3.008  0.1592  0.3380 -2.5985
  153OSM   H12B16992   5.207  -0.063   2.985  1.0230 -2.1032 -2.1553
  153OSM    C1116993   5.311   0.049   3.130 -0.1192  0.8944 -0.0348
  153OSM   H11A16994   5.415   0.083   3.153  0.7437 -2.4157  1.5793
  153OSM   H11B16995   5.279  -0.019   3.212 -1.8305  0.7900 -0.7631
  153OSM      P16996   5.073   0.162   3.135 -0.2857  0.3649 -0.0107
  153OSM    O1316997   5.016   0.280   3.068  0.2970 -0.3287  0.0916
  153OSM    O1416998   5.027   0.033   3.088 -0.6005 -0.2019 -0.3465
  153OSM    O1116999   5.059   0.162   3.292  0.4817  0.0604 -0.2370
  153OSM    O1217000   5.229   0.166   3.127  0.1172  0.2099 -0.0130
  153OSM    C1S17001   5.077   0.290   3.361  0.4078  0.0336  0.4050
  153OSM    H1S17002   4.983   0.349   3.350  0.6595  0.2414 -0.8111
  153OSM    H1T17003   5.162   0.350   3.321 -0.5149  2.0749  1.3295
  153OSM     NF17004   5.102   0.405   3.583  0.1644 -0.4832  0.2202
  153OSM    HNF17005   5.184   0.435   3.632  0.9566 -2.9659  0.5769
  153OSM    C2S17006   5.106   0.276   3.514  0.0851  0.1753 -0.0900
  153OSM    H2S17007   5.028   0.206   3.550 -1.9580  1.4130 -1.8524
  153OSM    C3S17008   5.247   0.207   3.526 -0.1769  0.5096  0.3917
  153OSM    H3S17009   5.329   0.276   3.497 -0.2907  0.7423  0.6169
  153OSM     O317010   5.284   0.099   3.439 -0.0540 -0.6044 -0.1707
  153OSM    HO317011   5.204   0.097   3.387  0.1042  2.2339 -0.6649
  153OSM    C4S17012   5.287   0.170   3.664 -0.3541 -0.2506  0.0630
  153OSM    H4S17013   5.326   0.254   3.723  1.5779  0.7899 -2.5457
  153OSM    C5S17014   5.270   0.057   3.736  0.2540 -0.2916  0.2556
  153OSM    H5S17015   5.205  -0.020   3.692 -0.7170  1.5361 -1.7028
  153OSM    C6S17016   5.300   0.035   3.884  0.2303 -0.0698  0.2046
  153OSM    H6S17017   5.404   0.071   3.902  0.5824 -1.4492  1.0303
  153OSM    H6T17018   5.308  -0.072   3.912  0.9115 -0.1973 -0.4234
  153OSM    C7S17019   5.208   0.113   3.972 -0.7627 -0.4048 -0.2447
  153OSM    H7S17020   5.105   0.105   3.931 -0.9249  2.6616 -0.7162
  153OSM    H7T17021   5.238   0.220   3.978  1.9179 -1.1844  2.1127
  153OSM    C8S17022   5.217   0.068   4.118  0.2913  0.1824  0.8020
  153OSM    H8S17023   5.324   0.057   4.146  1.4463 -1.4604 -3.5284
  153OSM    H8T17024   5.173  -0.034   4.118 -0.4863  0.5087  0.5757
  153OSM    C9S17025   5.132   0.158   4.211  0.1696  1.0672 -0.0376
  153OSM    H9S17026   5.026   0.135   4.186  0.1267 -0.9527  1.6967
  153OSM    H9T17027   5.152   0.264   4.187 -1.3431  0.9597 -2.0827
  153OSM   C10S17028   5.160   0.117   4.354 -0.3294  0.0400 -0.1260
  153OSM   H10S17029   5.266   0.141   4.376 -0.7059  1.0039  0.7438
  153OSM   H10T17030   5.158   0.006   4.361 -0.1247  0.0241 -0.3140
  153OSM   C11S17031   5.076   0.203   4.454 -0.2052  0.1831  0.4002
  153OSM   H11S17032   4.968   0.176   4.447  0.0494 -0.6337 -0.6774
  153OSM   H11T17033   5.090   0.311   4.432 -2.9887  0.2978 -1.2628
  153OSM   C12S17034   5.116   0.181   4.595 -0.4492  0.3009 -0.0051
  153OSM   H12S17035   5.222   0.212   4.605 -0.2554  0.1226 -1.3559
  153OSM   H12T17036   5.105   0.076   4.628 -0.7654  1.1953  3.0792
  153OSM   C13S17037   5.023   0.257   4.699  0.1751 -0.4472  0.0152
  153OSM   H13S17038   4.916   0.226   4.688  0.2519 -2.2700  3.2814
  153OSM   H13T17039   5.017   0.367   4.689  1.5517 -0.4681 -1.4544
  153OSM   C14S17040   5.065   0.216   4.842  0.5345  0.4823  0.3266
  153OSM   H14S17041   5.073   0.105   4.843  0.3895  0.4729  1.0723
  153OSM   H14T17042   4.989   0.249   4.916  0.4088 -1.6346  1.2211
  153OSM   C15S17043   5.201   0.275   4.878 -0.3982 -0.1936 -0.4252
  153OSM   H15S17044   5.188   0.376   4.923  0.6631 -0.4472  0.4787
  153OSM   H15T17045   5.262   0.290   4.786 -0.7484 -0.1647 -0.6553
  153OSM   C16S17046   5.276   0.194   4.973  0.1503 -0.1769 -0.7711
  153OSM   H16S17047   5.379   0.236   4.977  0.0418  0.1014  3.1054
  153OSM   H16T17048   5.283   0.091   4.932  0.2481 -0.0880 -0.9768
  153OSM   C17S17049   5.213   0.186   5.118 -0.2618  0.3162  0.1968
  153OSM   H17S17050   5.273   0.131   5.193 -1.5676  0.2082  1.1938
  153OSM   H17T17051   5.122   0.124   5.099  0.6869 -0.4768 -2.0608
  153OSM   C18S17052   5.178   0.322   5.179 -0.0004 -0.2922 -0.6313
  153OSM   H18S17053   5.257   0.398   5.162 -1.6136  1.1674 -1.8763
  153OSM   H18T17054   5.173   0.312   5.289  0.8380  1.7536 -0.3661
  153OSM   H18U17055   5.084   0.369   5.144 -0.2726  1.9087  2.6591
  153OSM    C1F17056   4.986   0.468   3.606  0.3952 -0.8186 -0.1906
  153OSM     OF17057   4.886   0.430   3.539 -0.4968 -0.7016 -0.5918
  153OSM    C2F17058   4.982   0.576   3.703 -0.3982 -0.3266 -0.2054
  153OSM    H2F17059   4.952   0.670   3.653 -0.6419  0.0628  0.6434
  153OSM    H2G17060   5.085   0.587   3.744 -0.6595  0.7639  0.1910
  153OSM    C3F17061   4.869   0.559   3.805  0.0477 -0.5099  0.4583
  153OSM    H3F17062   4.773   0.530   3.756 -0.9394  0.1271  1.9376
  153OSM    H3G17063   4.847   0.657   3.853 -0.6087 -0.2025 -0.4441
  153OSM    C4F17064   4.897   0.445   3.905  0.3694 -0.1924 -0.4678
  153OSM    H4F17065   4.917   0.348   3.855 -2.9152 -1.0201 -0.3591
  153OSM    H4G17066   4.806   0.428   3.966  0.7523  1.4152  0.6231
  153OSM    C5F17067   5.022   0.467   3.998  0.0353 -0.9490  0.4741
  153OSM    H5F17068   5.111   0.481   3.932 -1.2001 -1.0695 -1.2693
  153OSM    H5G17069   5.055   0.374   4.049  0.2221 -1.2373 -0.1620
  153OSM    C6F17070   5.015   0.578   4.097 -0.3232  0.2390 -0.0919
  153OSM    H6F17071   4.935   0.539   4.163  1.5577 -3.3649  0.3224
  153OSM    H6G17072   4.983   0.671   4.045 -0.9036 -0.0713 -0.2960
  153OSM    C7F17073   5.132   0.599   4.195  0.0598  0.0922 -0.7643
  153OSM    H7F17074   5.214   0.643   4.136  1.4213  0.7372  1.4744
  153OSM    H7G17075   5.166   0.498   4.227 -0.9126 -0.4117 -1.2677
  153OSM    C8F17076   5.083   0.680   4.315 -0.4738 -0.7223  0.9270
  153OSM    H8F17077   5.030   0.760   4.260 -0.4297 -1.4386 -0.1724
  153OSM    H8G17078   5.172   0.736   4.351 -0.4681 -0.2215  0.1398
  153OSM    C9F17079   5.004   0.617   4.429  0.9280 -0.2313 -0.3210
  153OSM    H9F17080   4.909   0.565   4.407 -0.3780  0.8362  2.2994
  153OSM   C10F17081   5.035   0.632   4.553  0.2948  0.8934 -0.2369
  153OSM   H10F17082   4.964   0.595   4.628  2.2295 -0.2894  1.1196
  153OSM   C11F17083   5.159   0.702   4.600  0.2179  0.3177  0.6887
  153OSM   H11F17084   5.130   0.808   4.610  0.1152  0.2452  1.1942
  153OSM   H11G17085   5.244   0.688   4.529 -0.8453  0.7814 -0.7258
  153OSM   C12F17086   5.212   0.636   4.732  0.8883  0.0327  0.2131
  153OSM   H12F17087   5.205   0.526   4.720 -1.0406  0.2196 -0.7675
  153OSM   H12G17088   5.140   0.665   4.813  2.1423 -1.6504  2.0218
  153OSM   C13F17089   5.341   0.698   4.789 -0.4890 -0.2373  0.3926
  153OSM   H13F17090   5.325   0.808   4.783  0.6285 -0.0703  0.1679
  153OSM   H13G17091   5.425   0.667   4.723 -1.3750 -1.7773 -0.0532
  153OSM   C14F17092   5.374   0.643   4.930  0.0871 -0.1330  0.2864
  153OSM   H14F17093   5.477   0.677   4.952  0.6002  0.3731 -2.5229
  153OSM   H14G17094   5.374   0.533   4.913 -1.3036 -0.1587  0.3193
  153OSM   C15F17095   5.263   0.665   5.040 -0.4684  0.0031 -0.5511
  153OSM   H15F17096   5.196   0.577   5.033 -0.8918  0.2175  0.5652
  153OSM   H15G17097   5.203   0.754   5.009 -1.4762 -0.3656  0.2958
  153OSM   C16F17098   5.319   0.698   5.181 -0.2868 -0.1038 -0.4708
  153OSM   H16F17099   5.383   0.789   5.174 -1.2893  0.6624 -0.0034
  153OSM   H16G17100   5.378   0.608   5.209  0.4761  0.7540  0.8305
  153OSM   C17F17101   5.208   0.729   5.283 -0.1533 -0.5461 -0.3694
  153OSM   H17F17102   5.150   0.635   5.298 -0.9456  0.1438  0.9810
  153OSM   H17G17103   5.134   0.799   5.240  1.3285  0.8998 -0.6786
  153OSM   C18F17104   5.252   0.777   5.424  0.0755 -0.3327  0.5813
  153OSM   H18F17105   5.165   0.832   5.463 -2.3892 -2.8350 -1.0311
  153OSM   H18G17106   5.340   0.845   5.417  0.7788 -1.3530 -1.1660
  153OSM   H18H17107   5.282   0.695   5.493  0.2401  0.5774  1.6218
  154OSM      N17108   4.837   2.520   2.862 -0.2561 -0.6799 -0.0163
  154OSM    C1517109   4.762   2.637   2.809 -0.4623  0.6454  0.6987
  154OSM   H15A17110   4.791   2.728   2.860  3.5243  0.8484 -1.5320
  154OSM   H15B17111   4.654   2.628   2.813 -0.4544  0.2294  0.0591
  154OSM   H15C17112   4.789   2.649   2.705  0.5387 -0.9319  0.7506
  154OSM    C1417113   4.822   2.387   2.794  0.3264 -0.3634 -0.5758
  154OSM   H14A17114   4.852   2.396   2.690 -0.7930 -0.1118 -0.8825
  154OSM   H14B17115   4.722   2.348   2.797  0.0486  0.3742 -0.2845
  154OSM   H14C17116   4.892   2.316   2.837  1.5277  0.6558 -0.7990
  154OSM    C1317117   4.986   2.551   2.834 -0.7093  1.0490  1.0599
  154OSM   H13A17118   5.004   2.656   2.848  1.4383  1.2141 -1.9872
  154OSM   H13B17119   5.013   2.531   2.731  0.7038 -2.3742  1.9321
  154OSM   H13C17120   5.054   2.491   2.893 -0.8172 -0.5260 -0.3517
  154OSM    C1217121   4.809   2.503   3.010  0.0169 -0.0509  0.1363
  154OSM   H12A17122   4.858   2.422   3.060  1.0543 -0.5370 -1.5748
  154OSM   H12B17123   4.705   2.482   3.028  0.0428  0.9409  1.5583
  154OSM    C1117124   4.837   2.630   3.105 -0.0045  0.2600  0.2735
  154OSM   H11A17125   4.947   2.648   3.104  0.2075 -0.4559  2.9894
  154OSM   H11B17126   4.826   2.597   3.211 -1.8588  0.0748  0.0523
  154OSM      P17127   4.609   2.752   3.143 -0.0156  0.3727 -0.1115
  154OSM    O1317128   4.555   2.888   3.124  0.2279  0.4149  0.2233
  154OSM    O1417129   4.526   2.634   3.102  0.4187  0.3476 -0.2867
  154OSM    O1117130   4.641   2.720   3.303 -0.0227 -0.2479  0.2863
  154OSM    O1217131   4.756   2.740   3.073  0.1932  0.1047 -0.4217
  154OSM    C1S17132   4.729   2.804   3.379 -0.3087  0.2437  0.1661
  154OSM    H1S17133   4.739   2.902   3.326  0.9104 -0.1547 -0.3726
  154OSM    H1T17134   4.830   2.759   3.380 -0.2335  0.3100 -1.3584
  154OSM     NF17135   4.744   2.927   3.586  0.1395 -0.0215 -0.2797
  154OSM    HNF17136   4.813   2.890   3.648 -0.5186 -1.0613 -0.1473
  154OSM    C2S17137   4.669   2.818   3.519 -0.1604 -0.3844 -0.0855
  154OSM    H2S17138   4.567   2.858   3.504  0.7708  1.7308 -1.1946
  154OSM    C3S17139   4.658   2.683   3.598 -0.7448  0.6303  0.0211
  154OSM    H3S17140   4.761   2.643   3.612 -0.4750  1.7618  1.6193
  154OSM     O317141   4.589   2.581   3.530 -0.3354  0.5625 -0.2020
  154OSM    HO317142   4.590   2.608   3.438 -1.5941  2.8282  0.3831
  154OSM    C4S17143   4.596   2.696   3.735  0.0659 -0.6899 -0.4196
  154OSM    H4S17144   4.489   2.720   3.733  0.2072 -0.0620 -0.6472
  154OSM    C5S17145   4.670   2.682   3.850  0.1378 -0.5018 -0.0008
  154OSM    H5S17146   4.780   2.682   3.842  0.3188 -5.0893  0.1381
  154OSM    C6S17147   4.626   2.691   3.996 -0.3036 -0.3295 -0.6642
  154OSM    H6S17148   4.704   2.747   4.052 -1.2218  0.0702  0.2527
  154OSM    H6T17149   4.632   2.594   4.050  0.3252 -0.1401 -0.3779
  154OSM    C7S17150   4.491   2.762   4.020 -0.7254 -0.3347 -0.5580
  154OSM    H7S17151   4.421   2.704   3.957  0.7149 -1.7266 -0.9325
  154OSM    H7T17152   4.494   2.870   3.993 -1.5144  0.0907  0.9395
  154OSM    C8S17153   4.440   2.754   4.159  0.0243 -0.3819 -0.3732
  154OSM    H8S17154   4.497   2.822   4.226  1.0425  0.2329 -1.8317
  154OSM    H8T17155   4.454   2.647   4.187 -1.7197 -0.7188 -0.6704
  154OSM    C9S17156   4.288   2.772   4.163  0.0903  0.0012  0.0291
  154OSM    H9S17157   4.243   2.735   4.257  0.4099 -0.4995 -0.0142
  154OSM    H9T17158   4.223   2.734   4.081 -0.4415 -0.8160  0.8173
  154OSM   C10S17159   4.256   2.926   4.163 -1.0401  0.5589  0.2723
  154OSM   H10S17160   4.249   2.962   4.058 -0.8626 -2.1458 -0.7390
  154OSM   H10T17161   4.331   2.991   4.213  1.4456  0.1398 -2.6281
  154OSM   C11S17162   4.106   2.959   4.199 -0.1303  0.3580 -0.6931
  154OSM   H11S17163   4.082   2.930   4.303 -0.7601 -0.7225 -1.1178
  154OSM   H11T17164   4.036   2.912   4.126  0.5988  0.7332 -1.6489
  154OSM   C12S17165   4.076   3.115   4.203  0.0708  0.2133 -0.6517
  154OSM   H12S17166   4.104   3.159   4.105 -2.0382 -0.2601 -1.5329
  154OSM   H12T17167   4.144   3.165   4.275 -2.2451  0.9374  1.1929
  154OSM   C13S17168   3.934   3.167   4.244 -0.7251  1.4724  0.6375
  154OSM   H13S17169   3.873   3.114   4.168  0.3668  1.1974 -0.0755
  154OSM   H13T17170   3.925   3.277   4.236 -2.3324  1.3338  0.3494
  154OSM   C14S17171   3.894   3.125   4.384 -0.8718  0.1476 -0.0592
  154OSM   H14S17172   3.896   3.014   4.392 -1.6133 -0.1514 -3.0456
  154OSM   H14T17173   3.791   3.161   4.405 -0.7821  0.6111 -0.4052
  154OSM   C15S17174   3.990   3.182   4.490  0.8185 -0.1965  0.4805
  154OSM   H15S17175   3.975   3.292   4.489 -0.2127 -0.3203 -1.2478
  154OSM   H15T17176   4.098   3.160   4.478  0.5396 -0.4253 -2.0656
  154OSM   C16S17177   3.942   3.129   4.630 -0.4236 -0.2510  0.5405
  154OSM   H16S17178   3.974   3.025   4.652  0.7532 -0.1348 -0.5326
  154OSM   H16T17179   3.831   3.142   4.628 -0.6844 -1.8454  2.0408
  154OSM   C17S17180   3.993   3.230   4.735  0.0124  0.4015 -1.1774
  154OSM   H17S17181   3.958   3.206   4.838  2.3908 -1.4623 -0.7251
  154OSM   H17T17182   3.964   3.335   4.714  0.6719  0.1947 -3.3824
  154OSM   C18S17183   4.145   3.237   4.741  0.1684 -0.4307 -0.4127
  154OSM   H18S17184   4.176   3.295   4.830 -1.5830  1.4669 -0.9590
  154OSM   H18T17185   4.195   3.277   4.650 -0.7552 -0.2786 -0.8717
  154OSM   H18U17186   4.182   3.133   4.752 -1.6814 -1.0517  0.4394
  154OSM    C1F17187   4.737   3.054   3.565 -0.0427  0.8431  0.0579
  154OSM     OF17188   4.663   3.107   3.484 -0.2854 -0.0211  0.1222
  154OSM    C2F17189   4.833   3.142   3.645 -0.4931 -0.1729 -0.2603
  154OSM    H2F17190   4.872   3.228   3.587  0.9137 -0.5958  0.0192
  154OSM    H2G17191   4.920   3.074   3.659 -0.1262 -0.6510 -3.8363
  154OSM    C3F17192   4.779   3.198   3.784 -0.6291  0.9291  0.1235
  154OSM    H3F17193   4.771   3.123   3.865  0.7561 -0.7571 -1.2104
  154OSM    H3G17194   4.683   3.252   3.773 -0.8975  0.1160 -2.2840
  154OSM    C4F17195   4.880   3.296   3.842 -0.4263 -0.1823  0.4445
  154OSM    H4F17196   4.882   3.387   3.778  1.3532  0.4106  1.2903
  154OSM    H4G17197   4.988   3.270   3.841 -0.4829 -0.4364 -0.4061
  154OSM    C5F17198   4.841   3.352   3.989 -0.0265  0.3718  0.1018
  154OSM    H5F17199   4.762   3.429   3.982 -0.7166 -0.3590 -0.2702
  154OSM    H5G17200   4.931   3.402   4.031  2.1561 -1.3720 -2.1429
  154OSM    C6F17201   4.784   3.240   4.088 -0.2950  0.4589 -0.1542
  154OSM    H6F17202   4.854   3.154   4.084 -1.7673 -0.7854 -0.0314
  154OSM    H6G17203   4.689   3.214   4.037 -0.4848  2.0492 -0.6700
  154OSM    C7F17204   4.752   3.302   4.223  0.0419  0.1837 -0.0549
  154OSM    H7F17205   4.654   3.355   4.229  0.5430  1.3070 -1.2605
  154OSM    H7G17206   4.834   3.370   4.254  2.4856 -2.0811 -1.1105
  154OSM    C8F17207   4.728   3.199   4.337 -0.1710 -0.1792  0.8019
  154OSM    H8F17208   4.752   3.245   4.435  0.8600 -2.0359  1.4727
  154OSM    H8G17209   4.807   3.121   4.334  1.4823  1.4467 -0.2120
  154OSM    C9F17210   4.593   3.126   4.336 -0.7090  0.3292 -0.0732
  154OSM    H9F17211   4.604   3.036   4.274  2.8185  1.9589 -2.1416
  154OSM   C10F17212   4.487   3.150   4.406 -0.2383  0.0637  0.2361
  154OSM   H10F17213   4.391   3.099   4.385 -0.7259 -0.1001  2.5888
  154OSM   C11F17214   4.470   3.270   4.485 -0.2285 -0.1164  0.1197
  154OSM   H11F17215   4.375   3.324   4.467  0.0272 -0.1360 -1.3553
  154OSM   H11G17216   4.544   3.351   4.465 -1.4676  1.5883  1.9814
  154OSM   C12F17217   4.486   3.253   4.634  0.1815 -0.2204 -0.3082
  154OSM   H12F17218   4.587   3.213   4.656  1.4915  3.1719  0.3963
  154OSM   H12G17219   4.416   3.172   4.663 -0.7969  0.3446 -1.0284
  154OSM   C13F17220   4.459   3.382   4.710  0.4110 -0.5206  0.3729
  154OSM   H13F17221   4.450   3.364   4.820 -0.6379  0.2499  0.4316
  154OSM   H13G17222   4.365   3.421   4.666  0.8405 -0.8711 -0.9014
  154OSM   C14F17223   4.554   3.497   4.678  0.1957  0.3722  0.6447
  154OSM   H14F17224   4.551   3.532   4.572 -0.6298 -0.2411  0.4554
  154OSM   H14G17225   4.659   3.467   4.700  0.8413  1.7937 -0.3227
  154OSM   C15F17226   4.527   3.612   4.775  0.6558 -0.1185  0.3352
  154OSM   H15F17227   4.432   3.661   4.743  0.9431  0.2460  0.0163
  154OSM   H15G17228   4.600   3.693   4.753  0.1258  0.5479  1.0011
  154OSM   C16F17229   4.529   3.590   4.923  0.7539  0.7754  0.0614
  154OSM   H16F17230   4.438   3.540   4.963  0.3574  2.0050  0.7555
  154OSM   H16G17231   4.525   3.694   4.962 -0.5987  0.6428  0.3299
  154OSM   C17F17232   4.647   3.508   4.975  0.1578 -0.6558 -0.0208
  154OSM   H17F17233   4.734   3.529   4.909 -1.1230  0.1040 -1.5037
  154OSM   H17G17234   4.608   3.404   4.975 -2.6162  0.3094 -0.4747
  154OSM   C18F17235   4.677   3.538   5.122 -0.2336  0.0116  0.7252
  154OSM   H18F17236   4.699   3.646   5.138  1.8530 -0.3401  0.4004
  154OSM   H18G17237   4.765   3.483   5.162 -0.3719 -2.3085 -1.9160
  154OSM   H18H17238   4.587   3.520   5.185  0.8704 -0.0524  2.3539
  155OSM      N17239   0.617   2.623   3.408 -0.2201  0.3818 -0.0231
  155OSM    C1517240   0.608   2.767   3.384  0.0725 -0.3775 -0.1722
  155OSM   H15A17241   0.649   2.783   3.286 -0.6355 -1.3145 -0.6468
  155OSM   H15B17242   0.661   2.830   3.454  0.0362  1.2136 -1.5210
  155OSM   H15C17243   0.504   2.795   3.393  0.2630 -0.3815  3.5336
  155OSM    C1417244   0.572   2.605   3.543  0.3377  0.5103  0.4467
  155OSM   H14A17245   0.468   2.635   3.553 -0.3505 -1.5029 -0.1228
  155OSM   H14B17246   0.632   2.662   3.612  0.9857 -1.5662  1.7192
  155OSM   H14C17247   0.575   2.502   3.578 -1.9636 -0.6876 -2.4351
  155OSM    C1317248   0.531   2.548   3.314 -0.2168 -0.3546  0.2248
  155OSM   H13A17249   0.577   2.554   3.217  1.3623 -0.1502  0.9553
  155OSM   H13B17250   0.438   2.603   3.304  0.2125  0.1108 -1.4076
  155OSM   H13C17251   0.514   2.449   3.354  0.0740  0.1499  1.6847
  155OSM    C1217252   0.769   2.577   3.403  0.6283  0.4272 -0.9367
  155OSM   H12A17253   0.781   2.487   3.461 -1.9103  1.6701  1.8121
  155OSM   H12B17254   0.835   2.640   3.461  2.4349  2.1425 -4.4944
  155OSM    C1117255   0.854   2.577   3.271 -0.0780 -0.1735 -0.3518
  155OSM   H11A17256   0.808   2.513   3.193  1.4424 -0.3592 -1.1457
  155OSM   H11B17257   0.955   2.536   3.292  0.4762  1.3645  0.1655
  155OSM      P17258   0.985   2.796   3.235  0.1654 -0.0245 -0.0188
  155OSM    O1317259   1.091   2.753   3.143  0.2785  0.1684 -0.4371
  155OSM    O1417260   0.941   2.931   3.217 -0.1876 -0.0912 -0.0060
  155OSM    O1117261   1.046   2.768   3.382 -0.2097 -0.6372  0.3622
  155OSM    O1217262   0.864   2.706   3.215 -0.0017  0.4741 -0.1098
  155OSM    C1S17263   1.188   2.770   3.396  0.2734  0.1816  0.2588
  155OSM    H1S17264   1.231   2.862   3.352  0.6603 -0.6235 -1.1134
  155OSM    H1T17265   1.233   2.687   3.337 -0.6724  0.3489 -0.7184
  155OSM     NF17266   1.374   2.760   3.568  0.4264 -0.4162  0.1576
  155OSM    HNF17267   1.423   2.677   3.594  2.5490  0.4121 -0.9348
  155OSM    C2S17268   1.231   2.748   3.543 -0.1844  0.0089  0.0058
  155OSM    H2S17269   1.178   2.835   3.588 -0.6138  0.5502 -1.4738
  155OSM    C3S17270   1.170   2.618   3.598 -0.6401  0.0553  0.0890
  155OSM    H3S17271   1.231   2.532   3.562  0.2750  1.2425 -1.3061
  155OSM     O317272   1.036   2.597   3.567  0.5498  0.5122  0.1226
  155OSM    HO317273   1.016   2.659   3.497  1.0625  0.3104 -0.2123
  155OSM    C4S17274   1.188   2.612   3.749  0.1206 -0.0498  0.4867
  155OSM    H4S17275   1.273   2.549   3.778  0.0359  0.2924  1.5093
  155OSM    C5S17276   1.114   2.673   3.840  0.2279 -0.0202 -0.3616
  155OSM    H5S17277   1.017   2.712   3.805 -0.8931 -1.4914  0.9567
  155OSM    C6S17278   1.126   2.662   3.989  0.4129 -0.5981  0.4646
  155OSM    H6S17279   1.062   2.574   4.014  1.4339 -2.0785 -1.8353
  155OSM    H6T17280   1.086   2.755   4.034 -3.1704 -2.4730  1.5477
  155OSM    C7S17281   1.264   2.639   4.047 -0.6062  0.5194  0.2353
  155OSM    H7S17282   1.340   2.703   3.997  0.0233 -2.0778 -2.4724
  155OSM    H7T17283   1.294   2.540   4.005  2.0524  0.5209  1.8891
  155OSM    C8S17284   1.282   2.634   4.197 -0.0368 -0.2803  0.1657
  155OSM    H8S17285   1.275   2.741   4.227  0.3443 -0.2634  0.1981
  155OSM    H8T17286   1.389   2.610   4.210  0.2289  0.9472  0.3891
  155OSM    C9S17287   1.180   2.553   4.267 -0.3393  0.0683 -0.9623
  155OSM    H9S17288   1.145   2.464   4.211 -2.0495  1.0859 -1.5824
  155OSM    H9T17289   1.090   2.613   4.292  0.0170  0.5505 -0.8280
  155OSM   C10S17290   1.237   2.503   4.404 -0.7729 -0.1025  0.1259
  155OSM   H10S17291   1.345   2.476   4.401 -0.5785  0.4654  1.5320
  155OSM   H10T17292   1.184   2.408   4.428  0.9212 -0.8821  0.9071
  155OSM   C11S17293   1.214   2.596   4.525 -0.1872 -0.5482  0.2596
  155OSM   H11S17294   1.110   2.634   4.515 -0.5662 -1.8318 -1.1924
  155OSM   H11T17295   1.288   2.675   4.503 -0.9014  0.5971  1.8496
  155OSM   C12S17296   1.262   2.531   4.652  0.5718 -0.2035  0.3808
  155OSM   H12S17297   1.371   2.518   4.634  0.2750 -0.2106 -1.6410
  155OSM   H12T17298   1.203   2.441   4.679 -1.9789  1.1379 -0.4480
  155OSM   C13S17299   1.255   2.639   4.759  0.4127 -0.5118 -0.1383
  155OSM   H13S17300   1.149   2.662   4.783  0.8041  2.1593 -0.6154
  155OSM   H13T17301   1.302   2.730   4.716 -2.8119 -0.3185 -3.8143
  155OSM   C14S17302   1.323   2.595   4.886 -0.2675  0.1313 -0.3546
  155OSM   H14S17303   1.431   2.573   4.870 -0.1122  0.3601  0.3644
  155OSM   H14T17304   1.275   2.496   4.904 -1.7373  1.1331  1.5488
  155OSM   C15S17305   1.300   2.703   4.989  0.2369  0.0991 -0.2689
  155OSM   H15S17306   1.192   2.730   4.982  0.6124  1.4373 -1.2007
  155OSM   H15T17307   1.362   2.791   4.965  1.7201 -0.4879  1.2736
  155OSM   C16S17308   1.327   2.647   5.128  0.3610 -0.2628 -0.0289
  155OSM   H16S17309   1.242   2.580   5.152  0.5950 -0.5525  0.0038
  155OSM   H16T17310   1.324   2.730   5.201 -3.0591 -0.3284  0.0708
  155OSM   C17S17311   1.464   2.584   5.149 -0.7314 -0.1978  0.1888
  155OSM   H17S17312   1.536   2.650   5.097 -3.6217  3.2697  0.1500
  155OSM   H17T17313   1.452   2.479   5.113  0.7797 -0.9057  1.6191
  155OSM   C18S17314   1.508   2.591   5.295 -0.2282 -0.0099  1.1335
  155OSM   H18S17315   1.499   2.690   5.345 -5.1714 -0.6360  1.9800
  155OSM   H18T17316   1.609   2.546   5.312 -0.4000  0.1271  2.6605
  155OSM   H18U17317   1.445   2.523   5.357 -0.3666 -0.8623  0.0870
  155OSM    C1F17318   1.443   2.872   3.553 -0.2319  0.0479  0.4671
  155OSM     OF17319   1.391   2.975   3.502  0.1246 -0.4759  0.1166
  155OSM    C2F17320   1.585   2.875   3.602  0.0378  0.4020  0.6755
  155OSM    H2F17321   1.641   2.953   3.546  0.0136  0.7101  1.0748
  155OSM    H2G17322   1.636   2.780   3.577  0.1202  0.5750  0.1787
  155OSM    C3F17323   1.585   2.912   3.747  0.0178  0.4687  0.4315
  155OSM    H3F17324   1.532   3.007   3.769 -0.4722  0.8449 -2.0361
  155OSM    H3G17325   1.691   2.935   3.771 -0.1979  2.3839 -0.2897
  155OSM    C4F17326   1.546   2.802   3.840  0.0151  0.2401 -0.2757
  155OSM    H4F17327   1.440   2.773   3.822 -1.0424  2.4269  1.7982
  155OSM    H4G17328   1.556   2.837   3.945  0.7559 -1.2813  0.1862
  155OSM    C5F17329   1.646   2.684   3.835  0.2451  0.3325 -0.1874
  155OSM    H5F17330   1.749   2.724   3.838 -0.3140  1.8494 -0.0567
  155OSM    H5G17331   1.642   2.630   3.738 -3.5760  0.3535 -0.2100
  155OSM    C6F17332   1.632   2.573   3.938 -0.2555  0.4264  0.2293
  155OSM    H6F17333   1.715   2.502   3.916 -1.4932 -1.3293  0.9761
  155OSM    H6G17334   1.533   2.523   3.938  0.2008 -0.5081 -0.3921
  155OSM    C7F17335   1.658   2.609   4.088  0.1337 -0.0767 -0.2722
  155OSM    H7F17336   1.594   2.696   4.114 -0.9494 -1.4186  1.7386
  155OSM    H7G17337   1.759   2.652   4.105  0.8082 -1.2110 -1.2544
  155OSM    C8F17338   1.623   2.494   4.183 -0.3125 -0.2167  0.3200
  155OSM    H8F17339   1.534   2.437   4.146  0.6536  0.0630 -2.7220
  155OSM    H8G17340   1.608   2.554   4.275  4.3471 -0.7764  1.6929
  155OSM    C9F17341   1.731   2.390   4.211 -0.6512 -0.0695 -0.7447
  155OSM    H9F17342   1.784   2.369   4.117 -0.1098 -0.6661 -0.3164
  155OSM   C10F17343   1.773   2.343   4.326  0.3483  0.3903 -0.3802
  155OSM   H10F17344   1.861   2.278   4.329 -1.2094 -1.7535  1.3417
  155OSM   C11F17345   1.709   2.378   4.455 -0.0262  0.0157  0.2294
  155OSM   H11F17346   1.644   2.468   4.456 -2.2872 -1.5122  1.6394
  155OSM   H11G17347   1.790   2.395   4.529 -0.2410  2.0285  0.0455
  155OSM   C12F17348   1.627   2.262   4.514  0.2049 -0.0327 -0.1706
  155OSM   H12F17349   1.688   2.169   4.513 -1.6966 -1.3428  0.4837
  155OSM   H12G17350   1.537   2.250   4.450 -1.0444  1.5098  1.2195
  155OSM   C13F17351   1.567   2.299   4.653 -0.0683  1.2209  0.0812
  155OSM   H13F17352   1.477   2.364   4.649 -0.5962  0.5963  1.1598
  155OSM   H13G17353   1.640   2.355   4.716  2.0254  0.3666 -1.4594
  155OSM   C14F17354   1.521   2.168   4.721  0.2814 -0.4975  0.9547
  155OSM   H14F17355   1.608   2.100   4.734  2.4275  2.2405  2.0815
  155OSM   H14G17356   1.451   2.120   4.650 -0.5434  1.8366  0.0812
  155OSM   C15F17357   1.449   2.187   4.854  0.3870 -0.4797 -0.2463
  155OSM   H15F17358   1.376   2.269   4.838  0.2804 -0.1352  1.7337
  155OSM   H15G17359   1.521   2.209   4.936 -0.0729 -0.5115  0.1724
  155OSM   C16F17360   1.373   2.065   4.903 -0.1213  0.3578  0.1903
  155OSM   H16F17361   1.327   1.997   4.828 -0.7123  1.2878 -0.3076
  155OSM   H16G17362   1.289   2.107   4.962 -0.8536 -2.9579  1.7060
  155OSM   C17F17363   1.452   1.984   5.011 -0.1558  0.2626 -0.2825
  155OSM   H17F17364   1.478   2.056   5.092  0.3353 -0.3139  0.0815
  155OSM   H17G17365   1.544   1.949   4.959 -1.0817 -3.5808  0.3589
  155OSM   C18F17366   1.392   1.859   5.078  0.0191 -0.0979 -0.3578
  155OSM   H18F17367   1.393   1.783   4.998  0.7019  0.9091 -1.3390
  155OSM   H18G17368   1.287   1.871   5.113  0.8486 -0.5593  2.5418
  155OSM   H18H17369   1.453   1.825   5.164 -0.9314  0.2858  0.4979
  156OSM      N17370   3.445   0.853   3.106 -0.2553 -0.5234 -0.6184
  156OSM    C1517371   3.541   0.897   2.995  0.2198 -0.1201  1.2013
  156OSM   H15A17372   3.634   0.875   3.044 -0.8429  0.8897  3.8568
  156OSM   H15B17373   3.547   1.004   2.979  1.5999 -0.3214  0.1693
  156OSM   H15C17374   3.524   0.828   2.914 -0.6088  1.7510 -0.3041
  156OSM    C1417375   3.302   0.877   3.077  0.3046  0.4386  0.0493
  156OSM   H14A17376   3.246   0.891   3.169  0.3531  1.2896 -0.0432
  156OSM   H14B17377   3.259   0.802   3.012 -0.6191 -0.4723  1.6406
  156OSM   H14C17378   3.288   0.970   3.024  2.1936 -0.9037 -3.0668
  156OSM    C1317379   3.458   0.706   3.124 -0.0480 -0.6924 -0.2454
  156OSM   H13A17380   3.383   0.669   3.192 -2.4655  1.2883 -1.6218
  156OSM   H13B17381   3.551   0.681   3.172 -1.0494 -1.3726  1.4175
  156OSM   H13C17382   3.440   0.656   3.030 -1.3023 -0.5198 -0.1188
  156OSM    C1217383   3.484   0.909   3.241  0.5611 -0.3464 -0.1618
  156OSM   H12A17384   3.590   0.899   3.256  0.6486  1.9043  1.1812
  156OSM   H12B17385   3.429   0.854   3.315 -1.8219 -1.2460 -2.4248
  156OSM    C1117386   3.461   1.064   3.259 -0.2753  0.5528 -0.1065
  156OSM   H11A17387   3.449   1.080   3.368 -1.2954  1.7318 -0.3707
  156OSM   H11B17388   3.367   1.092   3.206  0.6794 -0.7120 -2.6133
  156OSM      P17389   3.705   1.144   3.272 -0.1415  0.1098 -0.3040
  156OSM    O1317390   3.748   1.009   3.308 -0.2699 -0.2818  0.6971
  156OSM    O1417391   3.798   1.229   3.202 -0.4928 -0.5103 -0.3770
  156OSM    O1117392   3.673   1.223   3.405  0.4269 -0.3381 -0.4908
  156OSM    O1217393   3.568   1.145   3.200 -0.3179  0.4159 -0.4329
  156OSM    C1S17394   3.777   1.291   3.476 -0.5010  0.4601  0.2552
  156OSM    H1S17395   3.828   1.352   3.398 -1.0387  0.2521 -0.2672
  156OSM    H1T17396   3.848   1.223   3.528  0.9018 -0.0555 -2.1906
  156OSM     NF17397   3.835   1.448   3.638 -0.3754 -0.2303 -0.3239
  156OSM    HNF17398   3.886   1.414   3.717  0.2982  2.3477  0.4548
  156OSM    C2S17399   3.722   1.376   3.584 -0.3917  0.5316  0.5507
  156OSM    H2S17400   3.654   1.449   3.535 -0.2000 -1.8313 -3.6338
  156OSM    C3S17401   3.661   1.287   3.690  0.3343  0.3526  0.1763
  156OSM    H3S17402   3.744   1.217   3.716  1.9816  1.2186 -2.3224
  156OSM     O317403   3.551   1.207   3.655 -0.0346 -0.1149 -0.1793
  156OSM    HO317404   3.548   1.210   3.559 -0.4281 -0.3246 -0.1767
  156OSM    C4S17405   3.633   1.361   3.824  0.4253 -0.2881  0.2789
  156OSM    H4S17406   3.720   1.360   3.891 -0.5454  1.4723  1.6642
  156OSM    C5S17407   3.520   1.424   3.863  1.0447 -0.6038  0.4369
  156OSM    H5S17408   3.442   1.422   3.786  2.0833 -0.4268 -0.6445
  156OSM    C6S17409   3.499   1.491   3.988  0.5473  0.3489 -0.0169
  156OSM    H6S17410   3.435   1.419   4.044  1.6359 -0.4204  0.2807
  156OSM    H6T17411   3.444   1.586   3.976 -0.2679 -0.3631 -2.5464
  156OSM    C7S17412   3.622   1.503   4.081 -0.2708 -0.1103 -0.2035
  156OSM    H7S17413   3.697   1.568   4.032 -1.8383  1.8944 -0.0952
  156OSM    H7T17414   3.663   1.402   4.103  2.1544  0.6380 -0.9955
  156OSM    C8S17415   3.587   1.558   4.217 -0.4273  0.5358 -0.0793
  156OSM    H8S17416   3.480   1.584   4.228 -0.4739 -0.0417  0.9575
  156OSM    H8T17417   3.652   1.646   4.236  2.7170 -1.1859 -1.9692
  156OSM    C9S17418   3.621   1.452   4.328  0.7390  1.3355  0.7971
  156OSM    H9S17419   3.726   1.414   4.327  0.1895 -0.3785  2.3094
  156OSM    H9T17420   3.564   1.360   4.302  2.1510 -0.0847  2.4699
  156OSM   C10S17421   3.584   1.497   4.466 -0.1060  0.0363 -0.1522
  156OSM   H10S17422   3.479   1.534   4.462 -0.4417 -0.9335 -0.6170
  156OSM   H10T17423   3.647   1.581   4.500 -0.1148  0.4489 -1.1239
  156OSM   C11S17424   3.586   1.399   4.588 -0.4608 -0.2759 -0.3402
  156OSM   H11S17425   3.679   1.341   4.569  0.1796  0.8776 -0.8037
  156OSM   H11T17426   3.502   1.328   4.578 -1.8339  1.2425  0.0632
  156OSM   C12S17427   3.592   1.483   4.717 -0.5756 -0.8517  0.2583
  156OSM   H12S17428   3.504   1.547   4.693  0.8208  0.3748 -1.8734
  156OSM   H12T17429   3.683   1.546   4.713 -0.5138 -0.9719 -0.3390
  156OSM   C13S17430   3.579   1.395   4.847 -0.2973  0.1804  0.3215
  156OSM   H13S17431   3.667   1.327   4.848  1.1641  1.9990  0.3436
  156OSM   H13T17432   3.486   1.336   4.857 -0.0224 -0.1521  0.9894
  156OSM   C14S17433   3.612   1.481   4.965  0.3187 -0.2045  0.1588
  156OSM   H14S17434   3.529   1.552   4.988  1.3605  0.5746  1.7031
  156OSM   H14T17435   3.700   1.546   4.945 -0.4295  0.4077 -1.2497
  156OSM   C15S17436   3.632   1.404   5.096 -0.3064 -0.1664 -0.5348
  156OSM   H15S17437   3.704   1.323   5.071 -0.6609 -0.2733 -1.2346
  156OSM   H15T17438   3.535   1.364   5.130  0.4174 -1.5909 -0.0842
  156OSM   C16S17439   3.701   1.479   5.203  0.4122 -1.0025  0.0539
  156OSM   H16S17440   3.809   1.494   5.182  0.2895 -0.0465  0.0841
  156OSM   H16T17441   3.700   1.416   5.295  0.4506 -0.1196  0.6700
  156OSM   C17S17442   3.639   1.621   5.250  0.6349  0.5267  0.3668
  156OSM   H17S17443   3.532   1.603   5.274  0.4483  0.4710 -0.4791
  156OSM   H17T17444   3.644   1.697   5.170  0.9873  0.9797  0.8074
  156OSM   C18S17445   3.706   1.658   5.386  0.1245 -0.6388 -0.4147
  156OSM   H18S17446   3.684   1.764   5.413  0.6325 -0.8141  0.7286
  156OSM   H18T17447   3.815   1.641   5.398  0.4170  2.3395  2.8603
  156OSM   H18U17448   3.670   1.602   5.475  1.8230  1.4522  1.7167
  156OSM    C1F17449   3.886   1.550   3.570 -0.1844  0.2881  0.0633
  156OSM     OF17450   3.866   1.574   3.449  1.1734  0.2420 -0.6240
  156OSM    C2F17451   3.971   1.649   3.638  0.0193 -0.0010  0.5351
  156OSM    H2F17452   3.931   1.671   3.740  0.2360  0.8657  0.4462
  156OSM    H2G17453   3.977   1.742   3.578  0.9514 -0.7294 -0.5413
  156OSM    C3F17454   4.111   1.604   3.667 -0.5390 -0.3133  0.6791
  156OSM    H3F17455   4.166   1.606   3.570  1.3639 -0.3894  1.6929
  156OSM    H3G17456   4.106   1.503   3.714 -0.9388 -2.1944 -3.0482
  156OSM    C4F17457   4.192   1.703   3.749 -0.0791  0.3143  0.5981
  156OSM    H4F17458   4.129   1.718   3.839 -0.3776  0.6367  0.3408
  156OSM    H4G17459   4.221   1.798   3.698  3.6898  0.0028  1.7991
  156OSM    C5F17460   4.320   1.648   3.809 -0.2461  0.0721  0.1215
  156OSM    H5F17461   4.398   1.640   3.731  1.8158 -0.4417  2.1277
  156OSM    H5G17462   4.308   1.546   3.852  3.9750 -0.1493  1.2392
  156OSM    C6F17463   4.369   1.730   3.927 -0.8665 -0.3797  0.0608
  156OSM    H6F17464   4.366   1.839   3.906 -0.3775 -0.1872  0.9532
  156OSM    H6G17465   4.476   1.703   3.943 -0.4336  1.0044 -0.3562
  156OSM    C7F17466   4.303   1.685   4.054 -0.1179  0.8305  0.5302
  156OSM    H7F17467   4.342   1.585   4.082  1.9754  1.8930  1.6045
  156OSM    H7G17468   4.199   1.656   4.026  0.5145 -0.5078 -0.5939
  156OSM    C8F17469   4.314   1.770   4.185 -0.5414 -0.0321  0.1926
  156OSM    H8F17470   4.416   1.796   4.221 -1.2789  0.4885  2.0025
  156OSM    H8G17471   4.276   1.701   4.263  2.9303 -1.5839  0.7241
  156OSM    C9F17472   4.238   1.905   4.186  0.0077 -0.1986  0.9180
  156OSM    H9F17473   4.204   1.944   4.089  0.8517 -0.1832  0.6145
  156OSM   C10F17474   4.220   1.981   4.294 -0.2956  0.1140 -0.0578
  156OSM   H10F17475   4.169   2.078   4.296  0.5011  0.6275 -2.2464
  156OSM   C11F17476   4.284   1.933   4.418 -0.0922 -0.0673 -0.1571
  156OSM   H11F17477   4.395   1.947   4.412  0.4060 -2.5651  1.8196
  156OSM   H11G17478   4.284   1.823   4.429  1.2751  0.0366  1.1992
  156OSM   C12F17479   4.223   1.985   4.544  0.4587 -0.3868  0.2122
  156OSM   H12F17480   4.112   1.982   4.539  0.4112  1.3034 -0.4105
  156OSM   H12G17481   4.253   2.090   4.564 -1.4073 -0.4896  4.7201
  156OSM   C13F17482   4.268   1.900   4.660  0.1242 -0.6062 -0.2486
  156OSM   H13F17483   4.377   1.876   4.661  0.1321 -0.9862  3.4214
  156OSM   H13G17484   4.214   1.803   4.656  0.1282 -0.5861 -1.0493
  156OSM   C14F17485   4.234   1.965   4.796  0.5560 -0.0688 -0.0284
  156OSM   H14F17486   4.125   1.952   4.815  0.7502  1.5891  2.8516
  156OSM   H14G17487   4.242   2.076   4.789 -0.2831  0.1013  1.3105
  156OSM   C15F17488   4.317   1.916   4.917 -0.4864  0.0232 -0.6454
  156OSM   H15F17489   4.422   1.949   4.908  0.5992 -3.0404 -0.4942
  156OSM   H15G17490   4.323   1.806   4.901 -1.3065 -0.1618  0.2514
  156OSM   C16F17491   4.271   1.955   5.059 -0.4231 -0.2689  0.8415
  156OSM   H16F17492   4.178   1.899   5.084  1.1509 -2.0172  3.1424
  156OSM   H16G17493   4.247   2.064   5.053 -0.3281 -0.2577  0.6648
  156OSM   C17F17494   4.376   1.931   5.165  0.7293  0.4483  0.2323
  156OSM   H17F17495   4.327   1.976   5.254  1.0699  1.2397  0.0343
  156OSM   H17G17496   4.460   1.999   5.136 -1.3790  2.3564 -1.8077
  156OSM   C18F17497   4.431   1.785   5.183  0.3509 -0.0467 -1.0410
  156OSM   H18F17498   4.533   1.788   5.226  0.2351 -0.8441 -0.6974
  156OSM   H18G17499   4.434   1.736   5.083 -1.5133 -0.0424 -1.1395
  156OSM   H18H17500   4.362   1.726   5.247  2.4382 -0.6045  0.8133
  157OSM      N17501   1.481   3.141   3.056 -0.5215  0.3154 -0.4341
  157OSM    C1517502   1.380   3.180   2.952  0.3128 -0.6767  0.0430
  157OSM   H15A17503   1.284   3.198   3.000  1.6033  0.0540  2.5095
  157OSM   H15B17504   1.362   3.095   2.888 -0.9283 -0.0988 -0.4097
  157OSM   H15C17505   1.410   3.270   2.900  0.0163 -0.5684  0.0532
  157OSM    C1417506   1.428   3.016   3.109  0.7338 -0.2015  0.2950
  157OSM   H14A17507   1.474   2.980   3.200  0.6714 -1.4081 -0.1300
  157OSM   H14B17508   1.447   2.937   3.037 -1.6049  1.6192 -2.5283
  157OSM   H14C17509   1.321   3.017   3.125  0.6071  1.2746 -0.5051
  157OSM    C1317510   1.610   3.127   2.991  0.6170  0.0321 -0.0448
  157OSM   H13A17511   1.680   3.107   3.071 -1.1752 -1.2373  1.2774
  157OSM   H13B17512   1.628   3.220   2.938 -0.4965  0.8133  0.8942
  157OSM   H13C17513   1.619   3.042   2.926  0.1151 -0.6665  0.7830
  157OSM    C1217514   1.490   3.249   3.162 -0.2868  0.5738 -0.1514
  157OSM   H12A17515   1.386   3.257   3.191 -0.6027 -2.0196 -0.3272
  157OSM   H12B17516   1.517   3.344   3.117 -1.9163  0.6908 -0.9598
  157OSM    C1117517   1.580   3.227   3.287 -0.0825 -0.5376 -0.1390
  157OSM   H11A17518   1.539   3.133   3.327 -0.9379 -1.4108 -2.8487
  157OSM   H11B17519   1.563   3.309   3.360 -0.4700 -1.3228  0.6765
  157OSM      P17520   1.831   3.167   3.338  0.1769 -0.1644 -0.1400
  157OSM    O1317521   1.852   3.032   3.289  0.2602 -0.1902 -0.0947
  157OSM    O1417522   1.946   3.256   3.330  0.2189 -0.4050 -0.6499
  157OSM    O1117523   1.770   3.162   3.489  0.2905  0.0690 -0.0223
  157OSM    O1217524   1.717   3.226   3.257  0.2908  0.1874 -0.3032
  157OSM    C1S17525   1.771   3.278   3.568  0.5363  0.0327  0.2142
  157OSM    H1S17526   1.666   3.313   3.574  0.3867 -0.4035  0.1556
  157OSM    H1T17527   1.822   3.369   3.529  1.4254 -0.4285  0.2731
  157OSM     NF17528   1.836   3.370   3.784  0.2850  0.2742  0.2173
  157OSM    HNF17529   1.929   3.406   3.793  0.2205  0.3995  0.3837
  157OSM    C2S17530   1.817   3.246   3.708 -0.0725  0.5196  0.2829
  157OSM    H2S17531   1.734   3.192   3.758  0.3748 -0.3255  0.1378
  157OSM    C3S17532   1.943   3.153   3.713 -0.0224 -0.4017  0.1854
  157OSM    H3S17533   2.023   3.211   3.662 -0.2099 -1.4767 -1.3913
  157OSM     O317534   1.934   3.035   3.640 -0.1956 -0.5046 -0.3249
  157OSM    HO317535   1.871   3.047   3.568  1.0767  0.4633 -1.3148
  157OSM    C4S17536   1.964   3.111   3.852 -0.4697 -0.3241 -0.1525
  157OSM    H4S17537   1.878   3.066   3.905  0.5516 -0.3247  1.5829
  157OSM    C5S17538   2.079   3.116   3.924  0.2509  0.0971  0.0456
  157OSM    H5S17539   2.171   3.162   3.887  1.2246 -1.1863  0.7709
  157OSM    C6S17540   2.095   3.072   4.074  0.7781 -0.0831  0.1942
  157OSM    H6S17541   2.113   3.164   4.134 -0.1535  1.2117 -1.4344
  157OSM    H6T17542   2.185   3.007   4.074 -0.1031 -1.3377 -0.4455
  157OSM    C7S17543   1.975   2.989   4.134  0.0118  0.3678 -0.0629
  157OSM    H7S17544   2.014   2.928   4.218  1.3119  1.0810 -0.1132
  157OSM    H7T17545   1.920   2.929   4.059  0.3091  1.7565 -1.4495
  157OSM    C8S17546   1.872   3.081   4.201 -0.4093 -0.3474  0.0321
  157OSM    H8S17547   1.854   3.166   4.131  0.1328  0.5903  1.0074
  157OSM    H8T17548   1.918   3.118   4.295  0.8448 -0.3512 -0.5496
  157OSM    C9S17549   1.736   3.011   4.226  0.3755  0.3289 -0.1026
  157OSM    H9S17550   1.689   2.962   4.138  2.0487 -0.8599 -0.3728
  157OSM    H9T17551   1.666   3.092   4.257  1.7769  0.6047  2.5838
  157OSM   C10S17552   1.747   2.912   4.344 -0.4416  0.1323 -0.0126
  157OSM   H10S17553   1.785   2.977   4.425 -1.2503 -0.7067  1.0596
  157OSM   H10T17554   1.826   2.835   4.330 -0.1622  0.8151 -2.8369
  157OSM   C11S17555   1.612   2.844   4.381  0.0133  0.0886 -0.3510
  157OSM   H11S17556   1.567   2.787   4.297 -0.4980  1.9626 -1.4157
  157OSM   H11T17557   1.539   2.926   4.398 -0.0759 -0.0039 -0.2848
  157OSM   C12S17558   1.635   2.741   4.492 -0.2244 -0.3698 -0.5473
  157OSM   H12S17559   1.704   2.667   4.446  0.1637 -1.5565  1.7808
  157OSM   H12T17560   1.547   2.676   4.512 -1.4858  1.8257  1.5749
  157OSM   C13S17561   1.708   2.790   4.622  0.1407 -0.2566  0.3218
  157OSM   H13S17562   1.798   2.846   4.591  0.7112 -1.0700  0.4801
  157OSM   H13T17563   1.737   2.696   4.674 -0.8548 -1.2884 -0.9017
  157OSM   C14S17564   1.613   2.877   4.712  0.6070 -0.1227  0.3133
  157OSM   H14S17565   1.529   2.816   4.750  1.5692  0.1516  3.1296
  157OSM   H14T17566   1.572   2.964   4.657  0.5651  0.6937  1.5889
  157OSM   C15S17567   1.691   2.934   4.834 -0.6969  1.3441 -0.9990
  157OSM   H15S17568   1.623   3.004   4.888 -0.5571 -0.0154  1.0377
  157OSM   H15T17569   1.790   2.970   4.797  1.0553 -0.7001  1.4119
  157OSM   C16S17570   1.729   2.822   4.932  0.6721 -0.4225  0.7172
  157OSM   H16S17571   1.823   2.775   4.894 -0.6065 -1.0071 -1.9755
  157OSM   H16T17572   1.658   2.737   4.939  1.1984 -0.8697  0.7543
  157OSM   C17S17573   1.760   2.882   5.072 -0.3837  0.2406 -0.2387
  157OSM   H17S17574   1.790   2.787   5.120 -1.4833 -0.5552 -1.0740
  157OSM   H17T17575   1.665   2.924   5.112 -0.8609 -0.2505 -0.8274
  157OSM   C18S17576   1.871   2.993   5.082 -0.1707  0.3539  0.3646
  157OSM   H18S17577   1.837   3.087   5.033  2.2911  1.4974  0.6901
  157OSM   H18T17578   1.972   2.967   5.043 -0.1684  0.5069  0.2687
  157OSM   H18U17579   1.879   3.018   5.189  0.1166 -1.8623  0.9092
  157OSM    C1F17580   1.738   3.447   3.831  0.7760  0.2825  0.2529
  157OSM     OF17581   1.619   3.421   3.798 -0.7150 -0.2099  0.0393
  157OSM    C2F17582   1.781   3.558   3.918 -0.4571 -0.2901  0.6813
  157OSM    H2F17583   1.760   3.656   3.869 -1.5172 -0.4513  0.7790
  157OSM    H2G17584   1.891   3.560   3.929 -0.1432  2.8738 -1.6716
  157OSM    C3F17585   1.711   3.562   4.057 -0.1004  0.1327 -0.0974
  157OSM    H3F17586   1.605   3.528   4.049  0.6554 -2.0780 -1.6759
  157OSM    H3G17587   1.704   3.665   4.098  0.8142  0.1590 -0.0046
  157OSM    C4F17588   1.767   3.460   4.156  0.8062  0.3627 -0.4036
  157OSM    H4F17589   1.851   3.414   4.099  1.3085  1.2234 -0.3701
  157OSM    H4G17590   1.687   3.383   4.165  0.4766  0.4298 -2.3603
  157OSM    C5F17591   1.831   3.525   4.282 -0.3406 -0.1468 -0.2094
  157OSM    H5F17592   1.755   3.558   4.356 -0.1081 -1.9387  0.8993
  157OSM    H5G17593   1.907   3.602   4.256 -1.1880  0.6559 -0.3512
  157OSM    C6F17594   1.906   3.427   4.376 -0.8155 -0.7933 -0.1819
  157OSM    H6F17595   1.854   3.331   4.395 -0.2915 -0.6196  2.5954
  157OSM    H6G17596   1.897   3.477   4.475  0.6584  2.4975 -1.5494
  157OSM    C7F17597   2.061   3.421   4.347  0.5332 -1.2069  0.1540
  157OSM    H7F17598   2.095   3.525   4.365 -1.0423 -0.7123  0.4395
  157OSM    H7G17599   2.072   3.387   4.242  2.9668 -0.1551  0.0043
  157OSM    C8F17600   2.132   3.314   4.434  0.1553 -0.3002  0.0261
  157OSM    H8F17601   2.235   3.309   4.393  0.4834 -1.1235  0.8834
  157OSM    H8G17602   2.089   3.213   4.416 -0.3788 -0.0614 -0.0464
  157OSM    C9F17603   2.123   3.351   4.580 -0.0060 -0.4255  0.5896
  157OSM    H9F17604   2.161   3.453   4.597  1.0200 -0.7893  0.5752
  157OSM   C10F17605   2.073   3.268   4.678 -0.2553 -0.7710  0.7599
  157OSM   H10F17606   2.100   3.296   4.781  2.1967 -0.7071  0.1619
  157OSM   C11F17607   2.040   3.119   4.654 -1.4205 -0.2163 -0.2836
  157OSM   H11F17608   2.094   3.069   4.571 -0.3561 -2.3699  1.6203
  157OSM   H11G17609   1.932   3.123   4.628 -1.5213  0.1347  0.1779
  157OSM   C12F17610   2.074   3.034   4.778  0.1995 -0.3311  0.7707
  157OSM   H12F17611   2.040   2.930   4.757 -0.9340  0.0198  0.8359
  157OSM   H12G17612   2.009   3.067   4.861 -0.2201  0.2754  0.2054
  157OSM   C13F17613   2.225   3.040   4.812  0.5156 -0.6623 -0.0189
  157OSM   H13F17614   2.252   3.148   4.808  1.2265 -0.8686 -1.2400
  157OSM   H13G17615   2.294   2.995   4.738  2.4383  0.4642  1.0177
  157OSM   C14F17616   2.253   2.978   4.951 -0.1415 -0.3310 -0.6146
  157OSM   H14F17617   2.208   2.877   4.970 -0.6420  0.1943  1.1519
  157OSM   H14G17618   2.197   3.043   5.022  2.1066  0.2525  0.7000
  157OSM   C15F17619   2.397   2.995   5.005  0.4742  0.1596 -0.3985
  157OSM   H15F17620   2.396   2.953   5.108 -2.0840  3.0277  0.8905
  157OSM   H15G17621   2.437   3.099   5.003 -0.3024  0.5683  2.1940
  157OSM   C16F17622   2.500   2.903   4.932 -0.2549  0.1720  0.2437
  157OSM   H16F17623   2.490   2.922   4.823  2.2460  0.8214  0.0893
  157OSM   H16G17624   2.472   2.798   4.957  0.5867 -0.0681  0.2101
  157OSM   C17F17625   2.647   2.919   4.984  0.9653 -0.0502  0.5972
  157OSM   H17F17626   2.709   2.830   4.960  1.7417  0.7603 -0.5420
  157OSM   H17G17627   2.648   2.939   5.093  0.6661 -0.2961  0.6432
  157OSM   C18F17628   2.717   3.042   4.919  0.5146  0.1917  0.1338
  157OSM   H18F17629   2.659   3.130   4.955  0.1713 -0.8947  2.4070
  157OSM   H18G17630   2.729   3.044   4.808  2.1585  1.6697  0.3103
  157OSM   H18H17631   2.817   3.035   4.966  0.0339 -2.5717  0.9616
  158OSM      N17632   1.270   0.842   3.054 -0.0911 -0.0606 -0.3447
  158OSM    C1517633   1.322   0.744   2.949 -0.3001  0.0956  0.3960
  158OSM   H15A17634   1.343   0.790   2.853 -1.7844 -0.5206 -0.2384
  158OSM   H15B17635   1.242   0.675   2.931  1.4405 -1.5665 -1.5009
  158OSM   H15C17636   1.405   0.682   2.980 -2.1183 -1.1314  3.1280
  158OSM    C1417637   1.393   0.915   3.096  0.4438  0.0256  0.1725
  158OSM   H14A17638   1.464   0.840   3.128  1.3007  0.1842 -1.2613
  158OSM   H14B17639   1.367   0.988   3.171 -2.7793  1.1618 -1.8525
  158OSM   H14C17640   1.455   0.966   3.023 -1.5922  1.2630 -0.7669
  158OSM    C1317641   1.176   0.936   2.988 -0.0507  0.4366  0.9446
  158OSM   H13A17642   1.101   0.875   2.940 -0.1980 -0.7690  2.6010
  158OSM   H13B17643   1.228   1.006   2.924  1.4392 -0.3319  1.2613
  158OSM   H13C17644   1.119   0.985   3.065 -1.2086  1.3841 -0.4580
  158OSM    C1217645   1.204   0.778   3.173 -0.0348  0.2990 -1.0650
  158OSM   H12A17646   1.170   0.862   3.232  1.8176  1.4064 -1.5058
  158OSM   H12B17647   1.275   0.719   3.228  1.3066  1.6002 -1.3484
  158OSM    C1117648   1.089   0.680   3.144 -0.2463  0.2306  0.0314
  158OSM   H11A17649   1.021   0.745   3.086 -0.3614  0.5025  0.4631
  158OSM   H11B17650   1.039   0.657   3.240 -2.3119  0.2070 -1.0050
  158OSM      P17651   1.176   0.440   3.137 -0.0611 -0.0372 -0.0105
  158OSM    O1317652   1.074   0.339   3.101 -0.4704 -0.2269  0.1115
  158OSM    O1417653   1.320   0.422   3.115 -0.0112 -0.0443 -0.1963
  158OSM    O1117654   1.154   0.475   3.291 -0.3715 -0.4280 -0.5280
  158OSM    O1217655   1.127   0.569   3.062 -0.8153 -0.7958 -1.0179
  158OSM    C1S17656   1.193   0.388   3.400 -0.0664  0.1765 -0.0124
  158OSM    H1S17657   1.290   0.420   3.444  0.3771 -3.1729  1.7538
  158OSM    H1T17658   1.223   0.285   3.370 -3.3350 -0.6660 -0.8432
  158OSM     NF17659   1.149   0.293   3.617 -0.2324 -0.4449  0.3747
  158OSM    HNF17660   1.111   0.202   3.605 -1.7091  0.2511 -0.5269
  158OSM    C2S17661   1.090   0.391   3.522 -1.0794 -0.0202  1.1162
  158OSM    H2S17662   1.106   0.495   3.558 -0.5630  0.3847 -0.2028
  158OSM    C3S17663   0.953   0.367   3.471 -0.2112  0.0766  0.1457
  158OSM    H3S17664   0.954   0.282   3.400  2.6931 -1.2588  1.6007
  158OSM     O317665   0.893   0.479   3.404 -0.4883 -0.1245  0.4856
  158OSM    HO317666   0.967   0.538   3.387  1.3890 -2.1388  1.0906
  158OSM    C4S17667   0.863   0.330   3.581 -0.5766  0.7064  0.4688
  158OSM    H4S17668   0.886   0.378   3.677 -0.7231 -1.1532  1.4909
  158OSM    C5S17669   0.762   0.238   3.584  0.5344 -0.8950  0.3511
  158OSM    H5S17670   0.743   0.181   3.492  2.2940 -0.8136 -0.0966
  158OSM    C6S17671   0.672   0.198   3.695 -0.6860 -0.1461  0.2768
  158OSM    H6S17672   0.695   0.094   3.726 -0.0613 -0.4130 -0.9974
  158OSM    H6T17673   0.567   0.196   3.660 -0.4445  0.0114 -0.4694
  158OSM    C7S17674   0.674   0.295   3.810 -0.4916 -0.0846  0.2061
  158OSM    H7S17675   0.668   0.401   3.776  0.0414 -0.6170 -1.6609
  158OSM    H7T17676   0.766   0.289   3.872 -0.1321  0.3069 -0.2822
  158OSM    C8S17677   0.569   0.275   3.911 -0.1646 -0.5879 -0.2198
  158OSM    H8S17678   0.594   0.183   3.967 -1.1755  1.3831  3.8494
  158OSM    H8T17679   0.471   0.261   3.859 -0.5037  0.6574  0.0397
  158OSM    C9S17680   0.563   0.378   4.023 -0.8600  0.4262 -0.4219
  158OSM    H9S17681   0.550   0.481   3.984  0.1481  0.7209 -0.0313
  158OSM    H9T17682   0.663   0.377   4.073  0.7801  1.1322 -3.4291
  158OSM   C10S17683   0.453   0.353   4.128 -0.9247 -0.0583  0.4792
  158OSM   H10S17684   0.351   0.369   4.086 -0.9322  0.9995  0.8828
  158OSM   H10T17685   0.471   0.427   4.208  1.5499 -0.7791  0.6639
  158OSM   C11S17686   0.454   0.217   4.200  0.4004 -0.4449  0.0181
  158OSM   H11S17687   0.556   0.184   4.230  0.0675 -0.1723  1.5138
  158OSM   H11T17688   0.428   0.132   4.133  1.0786 -0.2538 -0.4963
  158OSM   C12S17689   0.363   0.221   4.330 -0.1262 -0.1701  0.3316
  158OSM   H12S17690   0.341   0.117   4.363 -0.2010 -0.2811 -0.0673
  158OSM   H12T17691   0.263   0.265   4.314 -0.2144 -0.6502 -0.4675
  158OSM   C13S17692   0.430   0.291   4.451 -0.0905 -0.2486  0.4492
  158OSM   H13S17693   0.437   0.399   4.425 -1.2575 -0.4834 -0.9147
  158OSM   H13T17694   0.533   0.254   4.474 -1.0989 -3.0813  0.7184
  158OSM   C14S17695   0.350   0.275   4.581 -0.7701  0.0220  0.8656
  158OSM   H14S17696   0.340   0.169   4.610 -0.5285 -0.6051 -1.1648
  158OSM   H14T17697   0.248   0.309   4.552 -0.2485 -0.8711 -2.4798
  158OSM   C15S17698   0.410   0.360   4.693  0.0386  0.0365  0.5872
  158OSM   H15S17699   0.390   0.467   4.669 -2.4059 -0.6447 -0.6575
  158OSM   H15T17700   0.521   0.348   4.689 -0.1196 -1.2688 -0.7303
  158OSM   C16S17701   0.361   0.318   4.830  0.5634  0.1015 -0.5203
  158OSM   H16S17702   0.415   0.228   4.867 -0.2536  0.1338  0.7920
  158OSM   H16T17703   0.261   0.278   4.803  0.0276 -0.3853  1.9333
  158OSM   C17S17704   0.344   0.427   4.940  0.4592 -0.0143 -0.1361
  158OSM   H17S17705   0.262   0.497   4.917  0.4652  0.8999  2.3172
  158OSM   H17T17706   0.433   0.493   4.947  0.1300  0.4423 -0.2197
  158OSM   C18S17707   0.312   0.352   5.072  0.5726  0.3095 -0.4228
  158OSM   H18S17708   0.216   0.302   5.049  1.6412 -0.6365 -3.3362
  158OSM   H18T17709   0.312   0.418   5.161  0.3838 -1.2923  0.8167
  158OSM   H18U17710   0.389   0.276   5.097  1.1635  0.5243 -1.5221
  158OSM    C1F17711   1.253   0.323   3.698  0.1189 -0.3517  0.1456
  158OSM     OF17712   1.309   0.437   3.682 -0.5294  0.0431 -0.9070
  158OSM    C2F17713   1.306   0.218   3.789 -0.1371  0.6744 -0.4940
  158OSM    H2F17714   1.387   0.160   3.741 -0.8681 -0.4215 -0.4424
  158OSM    H2G17715   1.232   0.139   3.818  1.3800  0.0580  2.0144
  158OSM    C3F17716   1.342   0.278   3.927  0.6678  0.2235 -0.3312
  158OSM    H3F17717   1.263   0.349   3.961 -0.1040 -0.5418 -0.4872
  158OSM    H3G17718   1.435   0.336   3.912  1.1961  0.0388  1.8881
  158OSM    C4F17719   1.357   0.181   4.046 -0.2831  0.2039  0.4039
  158OSM    H4F17720   1.264   0.120   4.043  0.4978 -0.9837 -1.3280
  158OSM    H4G17721   1.360   0.234   4.143 -0.1862 -2.2717  1.8192
  158OSM    C5F17722   1.467   0.079   4.032  0.1264  0.2501 -0.1452
  158OSM    H5F17723   1.563   0.104   3.981  0.8230 -0.0213  0.9920
  158OSM    H5G17724   1.423  -0.001   3.969 -0.1049  0.6122 -0.4453
  158OSM    C6F17725   1.491   0.013   4.169 -0.5089 -0.1860  1.4596
  158OSM    H6F17726   1.400  -0.029   4.216 -2.1324  1.5601  0.0396
  158OSM    H6G17727   1.531   0.089   4.240  1.1219 -1.0665  1.5480
  158OSM    C7F17728   1.601  -0.102   4.156 -0.4681  0.0482  0.2483
  158OSM    H7F17729   1.697  -0.058   4.122  0.8917 -2.2517  0.9338
  158OSM    H7G17730   1.559  -0.175   4.084  2.7071 -0.9622 -0.7413
  158OSM    C8F17731   1.638  -0.167   4.285 -0.0944  0.3950  0.5587
  158OSM    H8F17732   1.681  -0.258   4.239  2.3529  2.0143 -0.5244
  158OSM    H8G17733   1.545  -0.200   4.337 -1.3150  0.1125 -1.6876
  158OSM    C9F17734   1.735  -0.100   4.373  0.0056 -0.3995  0.7638
  158OSM    H9F17735   1.832  -0.074   4.328 -0.5708 -1.6378 -1.3260
  158OSM   C10F17736   1.728  -0.069   4.500 -0.9216  0.5200  0.3872
  158OSM   H10F17737   1.812  -0.013   4.543  0.7884 -1.5434 -0.0836
  158OSM   C11F17738   1.612  -0.089   4.598  0.3358  0.4840  1.0717
  158OSM   H11F17739   1.618  -0.185   4.653  0.6001  0.3256  0.7711
  158OSM   H11G17740   1.522  -0.105   4.535  0.1589 -1.4103  1.7525
  158OSM   C12F17741   1.590   0.028   4.695 -0.5081  0.8746  0.2700
  158OSM   H12F17742   1.496   0.008   4.751 -1.5077  1.2441 -1.2107
  158OSM   H12G17743   1.579   0.125   4.642  1.7652  0.7438 -0.5506
  158OSM   C13F17744   1.699   0.056   4.801  0.3815  0.0947  1.3142
  158OSM   H13F17745   1.803   0.042   4.763  0.0966  0.9328  0.1552
  158OSM   H13G17746   1.694  -0.022   4.880 -1.8750 -1.4951 -0.2699
  158OSM   C14F17747   1.695   0.194   4.869 -0.3828 -0.3058 -0.7707
  158OSM   H14F17748   1.604   0.221   4.927  0.5808 -2.2501  1.8214
  158OSM   H14G17749   1.713   0.277   4.798  0.4904  0.0281 -0.1695
  158OSM   C15F17750   1.807   0.213   4.971 -0.3329 -0.4458  0.2898
  158OSM   H15F17751   1.908   0.202   4.926  0.1635 -2.6172  1.7556
  158OSM   H15G17752   1.801   0.135   5.050 -0.2138  1.4681  2.2961
  158OSM   C16F17753   1.797   0.350   5.042  0.0589 -0.2941 -0.5793
  158OSM   H16F17754   1.704   0.356   5.102  0.8038 -1.9975  0.8407
  158OSM   H16G17755   1.801   0.435   4.970  2.0688  0.2038  0.0415
  158OSM   C17F17756   1.924   0.375   5.136 -0.4094 -0.4429  0.2518
  158OSM   H17F17757   1.908   0.463   5.203  1.4948 -1.4946  2.2103
  158OSM   H17G17758   2.016   0.382   5.074  0.8639 -0.3423  2.0662
  158OSM   C18F17759   1.961   0.262   5.225  0.1819 -0.2459 -0.2311
  158OSM   H18F17760   1.877   0.245   5.295 -1.0449  1.9844 -1.0926
  158OSM   H18G17761   2.053   0.286   5.282 -0.5558 -1.2125  1.4497
  158OSM   H18H17762   1.975   0.161   5.179 -1.6027 -1.9465  2.6745
  159OSM      N17763   2.215   3.712   3.042  0.8150 -0.5081 -0.2520
  159OSM    C1517764   2.356   3.681   3.036  0.1712  0.6037 -0.0969
  159OSM   H15A17765   2.394   3.603   3.101  0.2637  0.0965 -0.7453
  159OSM   H15B17766   2.420   3.768   3.047  0.6098  0.0946  1.7619
  159OSM   H15C17767   2.383   3.637   2.941 -1.5173 -0.2667 -0.2115
  159OSM    C1417768   2.182   3.816   2.938 -0.0463 -0.0353  0.5807
  159OSM   H14A17769   2.096   3.872   2.972 -0.0015 -0.1317  0.8555
  159OSM   H14B17770   2.164   3.770   2.842 -1.6654  0.1179  0.7838
  159OSM   H14C17771   2.267   3.882   2.922  0.0569 -0.6683 -1.8707
  159OSM    C1317772   2.144   3.587   3.002  0.2664  0.9887 -0.3433
  159OSM   H13A17773   2.171   3.561   2.901  1.5712  0.1313  0.2052
  159OSM   H13B17774   2.040   3.618   3.001  1.1398  4.4377  1.8011
  159OSM   H13C17775   2.147   3.508   3.076 -1.4627 -0.1927 -1.4240
  159OSM    C1217776   2.171   3.759   3.183 -0.2406  0.0324  0.1826
  159OSM   H12A17777   2.239   3.837   3.213 -0.6568 -0.4090  2.4823
  159OSM   H12B17778   2.175   3.682   3.258  3.0412  0.5314  0.6950
  159OSM    C1117779   2.030   3.823   3.208  0.1308  0.3303 -0.7547
  159OSM   H11A17780   2.001   3.831   3.315  0.2939  1.5664 -0.7788
  159OSM   H11B17781   1.961   3.744   3.171  1.1727 -1.5476  1.1158
  159OSM      P17782   1.988   4.074   3.206 -0.2035  0.1470  0.6150
  159OSM    O1317783   2.035   4.174   3.103  0.5198  0.4658  0.1207
  159OSM    O1417784   1.850   4.087   3.238  0.5508 -0.8508  0.1824
  159OSM    O1117785   2.086   4.089   3.326 -0.9283  0.0554 -0.1275
  159OSM    O1217786   2.006   3.939   3.137 -0.3897  0.0049  0.8641
  159OSM    C1S17787   2.046   4.092   3.466  0.4430  0.3330  0.4955
  159OSM    H1S17788   2.032   3.987   3.500  1.3683 -0.5314 -1.6002
  159OSM    H1T17789   1.949   4.143   3.483  0.6963  0.7047  0.8372
  159OSM     NF17790   2.119   4.154   3.702 -0.4073  0.7409 -0.0972
  159OSM    HNF17791   2.111   4.240   3.750 -1.0726 -0.7817  2.7174
  159OSM    C2S17792   2.151   4.154   3.558  0.8239 -0.9241 -1.5172
  159OSM    H2S17793   2.243   4.097   3.537  3.7919  2.2476  1.5133
  159OSM    C3S17794   2.168   4.300   3.500 -0.3799 -0.2039 -0.0979
  159OSM    H3S17795   2.073   4.357   3.494 -0.8057 -0.9206 -0.1479
  159OSM     O317796   2.234   4.301   3.374 -0.3482 -0.2724 -0.3395
  159OSM    HO317797   2.223   4.210   3.344 -1.2263  0.0161 -0.9053
  159OSM    C4S17798   2.257   4.380   3.596 -0.1219  0.0954  0.4628
  159OSM    H4S17799   2.364   4.362   3.578 -0.2147 -2.9546  2.1825
  159OSM    C5S17800   2.214   4.467   3.682  0.7189  0.5067 -1.0695
  159OSM    H5S17801   2.106   4.483   3.691  0.8970  1.6351 -0.9010
  159OSM    C6S17802   2.300   4.542   3.772  0.1886 -0.8237  0.2755
  159OSM    H6S17803   2.236   4.607   3.836  1.2964  0.9143 -0.3212
  159OSM    H6T17804   2.364   4.609   3.712  0.4844 -1.2106  0.1588
  159OSM    C7S17805   2.391   4.447   3.856 -0.4490 -0.4966 -0.5575
  159OSM    H7S17806   2.459   4.387   3.792  0.1605 -0.8235  0.3725
  159OSM    H7T17807   2.338   4.371   3.919  0.0055  0.7304  1.4012
  159OSM    C8S17808   2.472   4.536   3.951 -0.0386 -0.7589 -0.1573
  159OSM    H8S17809   2.398   4.598   4.006  0.3017 -0.1304 -0.3939
  159OSM    H8T17810   2.533   4.607   3.890 -0.1672  0.5187  1.1504
  159OSM    C9S17811   2.546   4.461   4.059 -0.7056 -0.2629 -0.1621
  159OSM    H9S17812   2.611   4.387   4.007 -0.4977  0.8118 -1.4813
  159OSM    H9T17813   2.467   4.399   4.107 -0.9232  0.9125  1.0577
  159OSM   C10S17814   2.611   4.547   4.170  0.4288  0.3392 -0.3712
  159OSM   H10S17815   2.539   4.623   4.206  1.7201  0.3323  2.4762
  159OSM   H10T17816   2.697   4.599   4.123  0.2245  1.5030  0.5039
  159OSM   C11S17817   2.652   4.455   4.289 -0.7328  0.1204 -0.1706
  159OSM   H11S17818   2.737   4.395   4.249 -0.6908 -0.8889  1.3585
  159OSM   H11T17819   2.575   4.381   4.320  0.6131 -1.2794 -0.0549
  159OSM   C12S17820   2.680   4.537   4.415  0.0492  0.0918 -0.4378
  159OSM   H12S17821   2.585   4.584   4.447  1.4829  2.3269  0.7333
  159OSM   H12T17822   2.747   4.620   4.385 -0.1343 -0.2571 -1.9146
  159OSM   C13S17823   2.738   4.467   4.540 -0.0087  0.1909  0.0605
  159OSM   H13S17824   2.825   4.402   4.516 -1.5524 -2.0074  0.1307
  159OSM   H13T17825   2.658   4.402   4.581  0.9117 -0.8799  0.2002
  159OSM   C14S17826   2.786   4.573   4.638  0.4683 -0.3547 -0.2151
  159OSM   H14S17827   2.722   4.663   4.622  2.1794  0.7159 -1.3422
  159OSM   H14T17828   2.887   4.605   4.603  0.5492  0.3709  0.6336
  159OSM   C15S17829   2.794   4.526   4.781 -0.0172  0.5221 -0.4066
  159OSM   H15S17830   2.820   4.610   4.848  0.7251  1.2798 -1.6162
  159OSM   H15T17831   2.872   4.447   4.789  0.8790  1.4533  0.1627
  159OSM   C16S17832   2.655   4.474   4.832  1.0049 -0.0531  1.1036
  159OSM   H16S17833   2.628   4.379   4.781  2.7109  0.1859 -0.3485
  159OSM   H16T17834   2.576   4.544   4.798  1.5112  0.0715  0.1614
  159OSM   C17S17835   2.666   4.439   4.982 -0.2187 -0.0242 -0.7360
  159OSM   H17S17836   2.576   4.381   5.012  0.6406 -0.3560  1.3730
  159OSM   H17T17837   2.664   4.535   5.037  0.0200 -1.3125  1.6437
  159OSM   C18S17838   2.797   4.373   5.024 -0.2813 -0.0339  0.0148
  159OSM   H18S17839   2.882   4.444   5.009  1.3456 -1.7461  0.6382
  159OSM   H18T17840   2.820   4.281   4.966  4.1242  0.8442 -0.0485
  159OSM   H18U17841   2.808   4.345   5.131  1.8483 -0.0275 -0.1570
  159OSM    C1F17842   2.108   4.040   3.776  0.0709 -0.3260  0.9110
  159OSM     OF17843   2.130   3.932   3.724  0.2536 -0.5666 -0.1926
  159OSM    C2F17844   2.088   4.062   3.923 -0.2500  0.7070 -0.0071
  159OSM    H2F17845   1.990   4.115   3.926 -1.7550 -1.8104 -1.4711
  159OSM    H2G17846   2.176   4.119   3.960  1.3002 -1.7107  0.2539
  159OSM    C3F17847   2.078   3.930   4.001 -0.4940  0.0113  0.8955
  159OSM    H3F17848   2.176   3.882   3.984 -0.2300  0.8710 -0.1464
  159OSM    H3G17849   1.997   3.880   3.944  0.6382  2.3244 -3.1178
  159OSM    C4F17850   2.046   3.942   4.143  0.0531  0.6534 -0.2690
  159OSM    H4F17851   2.021   3.845   4.193 -0.5416  0.4173 -1.0094
  159OSM    H4G17852   1.960   4.010   4.159 -0.8032 -0.3300 -0.5409
  159OSM    C5F17853   2.168   3.991   4.222  0.2783 -0.8905 -0.1602
  159OSM    H5F17854   2.214   4.073   4.162  0.3549  0.1879  1.3060
  159OSM    H5G17855   2.246   3.913   4.235 -0.1538 -1.0726  1.5566
  159OSM    C6F17856   2.143   4.054   4.353  0.9149 -0.5900 -0.6378
  159OSM    H6F17857   2.086   4.149   4.348 -1.2901 -1.8727 -0.7191
  159OSM    H6G17858   2.243   4.068   4.400  0.7164 -2.5121  0.4510
  159OSM    C7F17859   2.059   3.974   4.453  0.7634  0.4447  0.0125
  159OSM    H7F17860   1.965   3.941   4.404  1.9448 -1.0302 -1.3895
  159OSM    H7G17861   2.022   4.034   4.539  1.5682  1.8148 -0.5563
  159OSM    C8F17862   2.129   3.853   4.507 -0.7948  0.0627 -0.0493
  159OSM    H8F17863   2.207   3.893   4.575 -0.7784  0.3986 -0.2620
  159OSM    H8G17864   2.180   3.793   4.429  0.3268 -0.4209  1.0115
  159OSM    C9F17865   2.036   3.763   4.588 -0.2593  0.1762  0.2931
  159OSM    H9F17866   1.952   3.727   4.526  0.1049  1.2790 -0.8767
  159OSM   C10F17867   2.045   3.726   4.718  0.7335 -0.0396 -0.4411
  159OSM   H10F17868   1.971   3.650   4.749  0.8030 -0.2238 -0.7155
  159OSM   C11F17869   2.158   3.759   4.821  0.9488  0.1061  0.9532
  159OSM   H11F17870   2.127   3.814   4.912 -1.1741 -1.9145  1.5642
  159OSM   H11G17871   2.235   3.822   4.773 -0.1894  0.1712 -0.8965
  159OSM   C12F17872   2.214   3.620   4.859 -0.0422 -0.4988  0.1817
  159OSM   H12F17873   2.261   3.572   4.770  0.4627  1.1657 -0.4851
  159OSM   H12G17874   2.133   3.556   4.899 -2.0942  0.8528 -1.6038
  159OSM   C13F17875   2.325   3.630   4.969  0.7246  0.7524 -0.0926
  159OSM   H13F17876   2.357   3.734   4.991  3.6662 -0.0844  0.0707
  159OSM   H13G17877   2.416   3.578   4.929 -1.2579 -0.4541 -3.5160
  159OSM   C14F17878   2.288   3.565   5.102  0.1427 -0.0128 -0.0647
  159OSM   H14F17879   2.196   3.614   5.141  1.6463  1.8035  1.4076
  159OSM   H14G17880   2.374   3.588   5.168 -0.3189 -2.7535  1.6748
  159OSM   C15F17881   2.275   3.415   5.094 -0.0897 -0.3076 -0.1544
  159OSM   H15F17882   2.354   3.354   5.045 -0.8131 -1.5794  0.1911
  159OSM   H15G17883   2.181   3.393   5.038 -0.2126 -0.3568  0.0685
  159OSM   C16F17884   2.249   3.366   5.243  0.5396 -1.1082  0.2258
  159OSM   H16F17885   2.181   3.434   5.298 -0.5378 -0.4924 -1.7467
  159OSM   H16G17886   2.338   3.362   5.309 -1.5301 -0.8842  3.2699
  159OSM   C17F17887   2.181   3.224   5.248  0.1155 -0.2001  0.1730
  159OSM   H17F17888   2.245   3.152   5.191  0.3197 -0.8901  1.2395
  159OSM   H17G17889   2.088   3.238   5.189  0.5996  1.8388 -0.1796
  159OSM   C18F17890   2.154   3.177   5.396 -0.2946 -0.3431 -0.2568
  159OSM   H18F17891   2.139   3.067   5.393 -0.9470 -0.2725  0.2805
  159OSM   H18G17892   2.067   3.219   5.452 -1.8034 -1.5644 -1.5697
  159OSM   H18H17893   2.245   3.186   5.459 -0.7131 -2.7218  0.8051
  160OSM      N17894   5.979   1.631   3.106 -0.0963 -0.5581  0.6560
  160OSM    C1517895   6.019   1.555   2.981 -0.0574  0.1876  0.3693
  160OSM   H15A17896   6.126   1.557   2.968 -0.2185  0.6122 -1.1125
  160OSM   H15B17897   5.972   1.594   2.891 -1.5630 -0.0163  1.0368
  160OSM   H15C17898   5.970   1.460   2.993 -1.8387  1.0621  0.4244
  160OSM    C1417899   5.996   1.778   3.064  0.4321 -0.0386 -0.6684
  160OSM   H14A17900   6.101   1.804   3.063  0.8447 -1.4491 -3.5407
  160OSM   H14B17901   5.945   1.843   3.134 -0.1772 -0.1611 -0.9961
  160OSM   H14C17902   5.951   1.795   2.968  1.1103  0.5832 -0.8871
  160OSM    C1317903   5.831   1.601   3.115 -0.2349  0.6682 -0.4362
  160OSM   H13A17904   5.786   1.584   3.019 -1.7098 -0.7613  0.4501
  160OSM   H13B17905   5.777   1.675   3.172  0.6638  2.7598 -2.1554
  160OSM   H13C17906   5.823   1.505   3.165  0.5862  0.1727 -1.2140
  160OSM    C1217907   6.057   1.601   3.227 -0.2421 -0.7346 -0.2878
  160OSM   H12A17908   6.044   1.496   3.249  1.0668 -1.2392 -1.7257
  160OSM   H12B17909   6.006   1.653   3.306 -3.9083 -0.6010 -2.5142
  160OSM    C1117910   6.213   1.626   3.223  0.6297 -0.5854  0.1372
  160OSM   H11A17911   6.249   1.568   3.135  0.3450 -0.5691  0.0112
  160OSM   H11B17912   6.265   1.579   3.310 -1.9083 -2.4590  0.7894
  160OSM      P17913   6.220   1.850   3.346  0.1236  0.2691  0.2752
  160OSM    O1317914   6.218   1.988   3.300  0.1473 -0.4264  0.3885
  160OSM    O1417915   6.102   1.804   3.418 -0.3752  0.3862  0.5430
  160OSM    O1117916   6.353   1.815   3.433 -0.8281  0.1373 -0.5197
  160OSM    O1217917   6.242   1.765   3.215 -0.5522 -0.0744  0.1572
  160OSM    C1S17918   6.356   1.869   3.572 -0.2559 -0.1539  0.6084
  160OSM    H1S17919   6.281   1.818   3.637  0.1569  1.1635  2.1681
  160OSM    H1T17920   6.328   1.976   3.573  1.8434  0.4227  1.4072
  160OSM     NF17921   6.478   1.950   3.776 -0.6009  0.3454 -0.0845
  160OSM    HNF17922   6.546   2.022   3.790  1.1393 -0.9720 -1.2892
  160OSM    C2S17923   6.490   1.868   3.656 -1.3610 -0.2534 -0.9258
  160OSM    H2S17924   6.512   1.763   3.686 -2.2416  0.3861  2.2684
  160OSM    C3S17925   6.605   1.912   3.563  0.0955 -0.4891  0.0368
  160OSM    H3S17926   6.569   2.009   3.522  0.6099 -0.7484 -1.0501
  160OSM     O317927   6.625   1.844   3.438 -0.2642  0.3004  0.2261
  160OSM    HO317928   6.533   1.817   3.430 -0.7405  1.8506  0.2755
  160OSM    C4S17929   6.735   1.929   3.643  0.6159  0.1694  0.1311
  160OSM    H4S17930   6.736   2.008   3.720  1.4297  1.5674 -1.2502
  160OSM    C5S17931   6.834   1.829   3.650  0.9451 -0.0820 -1.1494
  160OSM    H5S17932   6.810   1.733   3.603 -1.7335 -0.2941  0.4120
  160OSM    C6S17933   6.932   1.821   3.762 -1.0421 -0.4066  0.7813
  160OSM    H6S17934   7.012   1.888   3.725 -1.4004 -0.6673 -0.5498
  160OSM    H6T17935   6.984   1.723   3.759 -1.4094 -0.5923 -0.4940
  160OSM    C7S17936   6.884   1.839   3.907  0.1074 -0.0050 -0.1082
  160OSM    H7S17937   6.845   1.943   3.916  0.9172  0.2207  0.9747
  160OSM    H7T17938   6.976   1.834   3.969  0.2469 -2.9561 -0.4215
  160OSM    C8S17939   6.778   1.739   3.939  0.1511  0.3794  1.0114
  160OSM    H8S17940   6.810   1.635   3.916 -0.7883  0.3095 -0.0687
  160OSM    H8T17941   6.693   1.767   3.874  0.6069  1.0516  0.6925
  160OSM    C9S17942   6.731   1.756   4.085  0.2947  0.0634 -0.1147
  160OSM    H9S17943   6.628   1.716   4.097  0.6263 -1.5406 -2.0007
  160OSM    H9T17944   6.722   1.865   4.105  0.4886  0.1430 -0.4645
  160OSM   C10S17945   6.839   1.697   4.179  1.2052  0.2753  0.4809
  160OSM   H10S17946   6.930   1.761   4.178  0.1129  1.9887  2.4081
  160OSM   H10T17947   6.864   1.593   4.149 -2.1341 -0.1982 -1.0765
  160OSM   C11S17948   6.793   1.697   4.329 -1.0099  0.3281 -0.3699
  160OSM   H11S17949   6.695   1.646   4.334 -0.5633 -0.8234 -2.3359
  160OSM   H11T17950   6.782   1.805   4.354 -1.3452  0.0615  0.6843
  160OSM   C12S17951   6.892   1.624   4.430 -0.0386  0.1339 -0.7162
  160OSM   H12S17952   6.984   1.587   4.381 -0.3951  0.5691 -1.7318
  160OSM   H12T17953   6.834   1.541   4.475 -0.8811  0.8906 -0.3729
  160OSM   C13S17954   6.942   1.737   4.529 -0.0115  0.5253 -0.0468
  160OSM   H13S17955   6.861   1.811   4.551 -1.1865 -0.6043 -0.4042
  160OSM   H13T17956   7.025   1.796   4.486  2.3728 -0.8088  2.4552
  160OSM   C14S17957   6.981   1.665   4.660  0.4071  1.0197  0.0850
  160OSM   H14S17958   7.080   1.615   4.648 -1.3224 -2.1502 -2.1912
  160OSM   H14T17959   6.901   1.594   4.688  0.3288  1.2531  0.4648
  160OSM   C15S17960   6.986   1.755   4.783 -0.6884  0.3361  0.8327
  160OSM   H15S17961   6.890   1.810   4.800 -0.9256  1.1137 -2.3550
  160OSM   H15T17962   7.068   1.828   4.771 -0.9250  0.6888  1.3230
  160OSM   C16S17963   7.026   1.662   4.900 -0.2862 -0.1028  0.0810
  160OSM   H16S17964   7.128   1.622   4.885  0.8169  2.5200  0.1238
  160OSM   H16T17965   6.962   1.572   4.916  1.5956 -1.4228  0.5471
  160OSM   C17S17966   7.019   1.736   5.035  0.0019  0.1035  0.0677
  160OSM   H17S17967   6.914   1.770   5.054 -0.2439 -0.1004 -0.8880
  160OSM   H17T17968   7.076   1.827   5.007 -1.3814  1.4631  1.4256
  160OSM   C18S17969   7.080   1.680   5.160  0.0528  0.0199 -0.1399
  160OSM   H18S17970   7.017   1.594   5.190  0.6725 -0.8753 -1.3305
  160OSM   H18T17971   7.088   1.760   5.236  0.1962 -1.6566  1.7033
  160OSM   H18U17972   7.179   1.631   5.143  0.6395  1.2106 -0.2731
  160OSM    C1F17973   6.406   1.906   3.876 -0.1821 -0.4667 -0.6069
  160OSM     OF17974   6.337   1.806   3.864 -0.1972 -0.4333 -0.1095
  160OSM    C2F17975   6.434   1.974   4.009  0.6020  0.4088 -0.1640
  160OSM    H2F17976   6.423   2.085   4.016 -1.8264  0.1424  1.3424
  160OSM    H2G17977   6.535   1.944   4.042  0.2617  1.9511  2.6249
  160OSM    C3F17978   6.325   1.920   4.112 -0.0724 -0.0592 -0.3371
  160OSM    H3F17979   6.333   1.810   4.120 -1.3269 -0.3190 -2.0696
  160OSM    H3G17980   6.224   1.952   4.077  0.9618  2.2865 -1.4217
  160OSM    C4F17981   6.348   1.987   4.251 -0.1760  0.2860  0.3910
  160OSM    H4F17982   6.252   1.964   4.301  0.9144 -1.4150  1.8421
  160OSM    H4G17983   6.371   2.095   4.241  0.6806  0.0616 -0.1357
  160OSM    C5F17984   6.463   1.925   4.323  0.0905 -0.0970  0.2061
  160OSM    H5F17985   6.562   1.966   4.294  0.7723 -2.6222 -1.4117
  160OSM    H5G17986   6.467   1.817   4.296  0.6574  0.2078 -0.9787
  160OSM    C6F17987   6.450   1.938   4.475 -0.7031  0.4350  0.6154
  160OSM    H6F17988   6.373   1.865   4.507 -2.6749  2.7118  1.3693
  160OSM    H6G17989   6.422   2.037   4.516  0.1772  0.9197  0.0937
  160OSM    C7F17990   6.583   1.894   4.544 -0.2118 -0.5073  0.3924
  160OSM    H7F17991   6.655   1.963   4.494 -1.4615  0.7856  0.3364
  160OSM    H7G17992   6.623   1.798   4.505  2.0673  0.4667  0.1500
  160OSM    C8F17993   6.572   1.902   4.697  0.2733  0.6170 -0.2127
  160OSM    H8F17994   6.648   1.830   4.734 -0.3259 -0.3731 -0.8505
  160OSM    H8G17995   6.473   1.857   4.719 -0.1751  1.8896  0.4764
  160OSM    C9F17996   6.579   2.042   4.752 -0.3299  0.0037  0.0939
  160OSM    H9F17997   6.667   2.101   4.726 -0.2517  0.5320  1.4910
  160OSM   C10F17998   6.488   2.105   4.831 -0.5710  0.0138  0.4423
  160OSM   H10F17999   6.517   2.204   4.869  0.6704 -0.9708  2.2067
  160OSM   C11F18000   6.354   2.057   4.887  0.1748 -0.1609  0.3556
  160OSM   H11F18001   6.353   1.946   4.883  5.4615 -0.4397 -1.5100
  160OSM   H11G18002   6.274   2.101   4.825  1.1412  1.6898  0.3527
  160OSM   C12F18003   6.348   2.121   5.028 -0.5334  0.6633 -0.2236
  160OSM   H12F18004   6.251   2.084   5.068  0.5512 -1.8840  0.2308
  160OSM   H12G18005   6.348   2.231   5.015 -0.3434  0.5377 -1.3504
  160OSM   C13F18006   6.450   2.076   5.128  0.1170  0.9072 -0.0746
  160OSM   H13F18007   6.548   2.115   5.092  0.8849  0.6519  1.6406
  160OSM   H13G18008   6.452   1.965   5.125 -0.4358  0.8726 -3.3632
  160OSM   C14F18009   6.432   2.134   5.270  0.2768 -0.0172 -0.1070
  160OSM   H14F18010   6.452   2.243   5.275 -2.7150  0.6133  0.2691
  160OSM   H14G18011   6.522   2.092   5.319  2.5478  2.7562 -1.5704
  160OSM   C15F18012   6.297   2.096   5.338  0.2936  0.8736  0.3281
  160OSM   H15F18013   6.290   1.986   5.323  0.5315  0.6454  1.7659
  160OSM   H15G18014   6.215   2.151   5.287 -0.2275  0.3749  0.6262
  160OSM   C16F18015   6.309   2.110   5.485  0.6410 -0.0854 -0.9994
  160OSM   H16F18016   6.212   2.131   5.534  1.8824 -0.2634  1.7283
  160OSM   H16G18017   6.375   2.195   5.513 -1.9319  1.3417  1.1013
  160OSM   C17F18018   6.351   1.986   5.563 -0.0019 -0.0816  0.0141
  160OSM   H17F18019   6.450   1.949   5.529  0.3117  0.9555 -0.2566
  160OSM   H17G18020   6.277   1.906   5.541 -0.9425  0.8251 -0.2164
  160OSM   C18F18021   6.368   2.002   5.712  0.5038 -0.0250 -0.6363
  160OSM   H18F18022   6.400   1.911   5.766 -1.3102 -0.8843 -0.9436
  160OSM   H18G18023   6.268   2.033   5.750  0.0066 -0.1302 -1.8139
  160OSM   H18H18024   6.443   2.077   5.747 -0.0126  0.1477  0.1136
  161OSM      N18025   2.774   1.787   3.370  0.2358 -0.4533  0.2602
  161OSM    C1518026   2.636   1.770   3.434 -0.0602 -0.6826 -0.4787
  161OSM   H15A18027   2.578   1.705   3.370 -1.4273  0.1804 -0.1640
  161OSM   H15B18028   2.574   1.858   3.440 -1.2987 -1.4057 -2.0905
  161OSM   H15C18029   2.646   1.731   3.534 -3.4987  0.8923  0.6299
  161OSM    C1418030   2.824   1.648   3.366  0.1076  0.1386  0.4916
  161OSM   H14A18031   2.778   1.601   3.280  1.1455  0.1916 -0.1121
  161OSM   H14B18032   2.811   1.583   3.451  1.9324 -1.8561 -0.6433
  161OSM   H14C18033   2.929   1.640   3.342  0.1262  1.2721  0.1371
  161OSM    C1318034   2.757   1.846   3.233 -0.2463  0.5405 -0.0352
  161OSM   H13A18035   2.711   1.943   3.243 -2.9443 -0.7291  1.0895
  161OSM   H13B18036   2.681   1.786   3.185 -1.0651  1.8793 -0.4671
  161OSM   H13C18037   2.850   1.845   3.177 -0.2184  0.5587  0.0114
  161OSM    C1218038   2.863   1.874   3.456  0.1241 -0.2819 -0.3772
  161OSM   H12A18039   2.958   1.872   3.405  0.6864 -1.7509  0.6395
  161OSM   H12B18040   2.886   1.818   3.546  2.7990 -0.1537 -0.9071
  161OSM    C1118041   2.831   2.023   3.478 -0.2134  0.6948 -0.5505
  161OSM   H11A18042   2.893   2.071   3.558 -0.6359  1.5768 -0.7379
  161OSM   H11B18043   2.733   2.022   3.530 -0.2290  2.7625 -0.4668
  161OSM      P18044   2.943   2.157   3.289 -0.1133  0.6841  0.2286
  161OSM    O1318045   2.950   2.102   3.149  0.1396  0.7913  0.2499
  161OSM    O1418046   2.930   2.304   3.296 -0.2005 -0.0614 -0.0248
  161OSM    O1118047   3.054   2.088   3.368  0.0434 -0.4762 -0.1935
  161OSM    O1218048   2.814   2.096   3.358 -0.7597  0.1034  0.1622
  161OSM    C1S18049   3.138   2.174   3.445 -0.1995  0.3721  0.0717
  161OSM    H1S18050   3.080   2.243   3.509 -0.9947 -0.4556  0.2657
  161OSM    H1T18051   3.195   2.238   3.374 -1.4215 -0.5242 -1.7768
  161OSM     NF18052   3.308   2.190   3.620 -0.1698 -0.1830  0.2022
  161OSM    HNF18053   3.397   2.218   3.584 -0.2938  0.1750  0.1698
  161OSM    C2S18054   3.238   2.087   3.541  0.7911 -0.1816 -0.1388
  161OSM    H2S18055   3.182   2.024   3.613  1.6794  0.4312  1.1410
  161OSM    C3S18056   3.330   2.000   3.465  0.4551  0.6272  0.7672
  161OSM    H3S18057   3.384   2.062   3.390 -0.4145 -0.7206 -1.0875
  161OSM     O318058   3.258   1.906   3.384  0.2408  0.0252  0.3210
  161OSM    HO318059   3.170   1.944   3.385  0.8847  1.7522 -1.5203
  161OSM    C4S18060   3.438   1.935   3.543 -1.1882  0.7283 -0.4423
  161OSM    H4S18061   3.537   1.979   3.525 -1.2591  1.5068  0.9642
  161OSM    C5S18062   3.431   1.826   3.623  0.5541  0.5713  0.4595
  161OSM    H5S18063   3.336   1.783   3.657  1.6051 -0.7431  1.8407
  161OSM    C6S18064   3.550   1.781   3.708  1.3694 -0.0890 -0.0384
  161OSM    H6S18065   3.642   1.741   3.662  0.7508 -0.9803 -0.5277
  161OSM    H6T18066   3.509   1.703   3.776  0.6654  2.2547  2.4120
  161OSM    C7S18067   3.592   1.893   3.810 -0.1426 -0.0853 -0.3483
  161OSM    H7S18068   3.503   1.935   3.861 -1.0010  0.4513 -2.2166
  161OSM    H7T18069   3.633   1.987   3.767 -2.5055  0.8925 -0.6035
  161OSM    C8S18070   3.697   1.836   3.907  0.3554 -0.0378 -0.1736
  161OSM    H8S18071   3.794   1.816   3.856  1.9580  0.0195  2.6565
  161OSM    H8T18072   3.648   1.743   3.944 -0.7893  0.0617 -1.3574
  161OSM    C9S18073   3.727   1.926   4.022  0.5870 -1.1279 -0.4791
  161OSM    H9S18074   3.635   1.942   4.083  0.0168  0.9618 -1.7619
  161OSM    H9T18075   3.755   2.030   3.995 -0.6981 -0.0774  1.9442
  161OSM   C10S18076   3.843   1.874   4.111  0.0706  0.3023 -0.0561
  161OSM   H10S18077   3.935   1.867   4.049 -0.4820 -0.7745 -0.7856
  161OSM   H10T18078   3.816   1.770   4.139 -1.0185  1.1087  2.0780
  161OSM   C11S18079   3.882   1.951   4.240  0.0295 -0.6707 -0.4229
  161OSM   H11S18080   3.898   2.059   4.220 -0.8313 -0.1559  1.4295
  161OSM   H11T18081   3.976   1.910   4.282 -1.4564 -2.0023  1.8107
  161OSM   C12S18082   3.774   1.958   4.356 -0.2209  0.3915 -0.1254
  161OSM   H12S18083   3.718   1.864   4.377 -1.0176  0.6947 -0.8814
  161OSM   H12T18084   3.697   2.030   4.322 -0.6256 -0.2603 -0.5910
  161OSM   C13S18085   3.831   2.018   4.488  0.4042  0.1988 -0.3510
  161OSM   H13S18086   3.890   2.110   4.473 -0.2704  0.6024 -0.5632
  161OSM   H13T18087   3.904   1.944   4.527  2.1993  1.6909 -0.7383
  161OSM   C14S18088   3.728   2.021   4.596 -0.2439 -0.1138 -0.1113
  161OSM   H14S18089   3.682   1.922   4.611 -1.0783  0.4882  1.5205
  161OSM   H14T18090   3.641   2.077   4.556 -0.3337 -1.7580 -2.3907
  161OSM   C15S18091   3.757   2.071   4.741 -0.4873  0.0385 -0.4566
  161OSM   H15S18092   3.665   2.067   4.802  0.7403 -0.6568  1.4491
  161OSM   H15T18093   3.790   2.177   4.748  0.4298 -0.1215 -1.8656
  161OSM   C16S18094   3.855   1.974   4.801 -0.0448  0.2829 -0.3496
  161OSM   H16S18095   3.931   2.042   4.847  0.3829  1.1589 -2.2594
  161OSM   H16T18096   3.917   1.917   4.728 -4.0840 -3.9976 -0.8695
  161OSM   C17S18097   3.798   1.877   4.909  0.5056  0.0016 -0.0851
  161OSM   H17S18098   3.726   1.799   4.876  0.3550  0.4412 -0.8205
  161OSM   H17T18099   3.747   1.938   4.986  2.1362  0.6908  0.5039
  161OSM   C18S18100   3.905   1.805   4.986 -0.4162  0.4806  0.0585
  161OSM   H18S18101   3.863   1.730   5.057 -0.8210 -2.2066 -2.8025
  161OSM   H18T18102   3.967   1.870   5.050  0.1397 -0.4623  0.5080
  161OSM   H18U18103   3.970   1.738   4.925  0.2333  0.1221  1.1152
  161OSM    C1F18104   3.260   2.259   3.718  0.3931  0.1675  0.0682
  161OSM     OF18105   3.170   2.220   3.787 -0.7652 -0.5178 -0.2659
  161OSM    C2F18106   3.328   2.389   3.734 -0.6172  0.3557 -0.1442
  161OSM    H2F18107   3.252   2.470   3.736  2.4012  3.5087 -2.2669
  161OSM    H2G18108   3.404   2.414   3.658 -0.3854  1.0886  0.3205
  161OSM    C3F18109   3.399   2.385   3.875  0.4134  0.5139  0.2473
  161OSM    H3F18110   3.319   2.356   3.946  1.2982 -0.5082  0.8751
  161OSM    H3G18111   3.422   2.491   3.897  2.1233  0.4220 -0.8702
  161OSM    C4F18112   3.524   2.297   3.893 -0.4350 -0.0727 -0.3031
  161OSM    H4F18113   3.609   2.335   3.832 -0.4603  1.7721  0.7541
  161OSM    H4G18114   3.495   2.196   3.859  1.4522 -1.3101  1.5564
  161OSM    C5F18115   3.573   2.290   4.042  0.8031 -0.1000  0.1193
  161OSM    H5F18116   3.670   2.238   4.053  1.3094  0.6266 -0.7920
  161OSM    H5G18117   3.496   2.231   4.096 -1.2804 -0.2878 -2.8179
  161OSM    C6F18118   3.574   2.425   4.114  0.3578  0.8500 -0.0067
  161OSM    H6F18119   3.469   2.457   4.132 -0.0692  0.0152 -0.9422
  161OSM    H6G18120   3.623   2.504   4.053  0.3239  1.0904  0.2709
  161OSM    C7F18121   3.651   2.418   4.254 -0.0226  0.4959 -0.1513
  161OSM    H7F18122   3.651   2.517   4.305  2.1197 -0.7023  2.3825
  161OSM    H7G18123   3.756   2.383   4.245  0.0337  0.6413 -0.0617
  161OSM    C8F18124   3.570   2.323   4.343  0.4928  0.4852  0.8978
  161OSM    H8F18125   3.603   2.225   4.302  2.0780  1.2934  0.1625
  161OSM    H8G18126   3.461   2.326   4.321  0.5062 -1.3244  0.4322
  161OSM    C9F18127   3.610   2.346   4.487 -0.5166 -1.4214 -0.3627
  161OSM    H9F18128   3.716   2.317   4.499 -0.3821 -0.7826  0.0784
  161OSM   C10F18129   3.531   2.383   4.589 -0.6606  0.1582  0.1489
  161OSM   H10F18130   3.565   2.406   4.691 -2.5677  1.0569  0.6313
  161OSM   C11F18131   3.382   2.413   4.575 -0.2576  0.5208 -0.1036
  161OSM   H11F18132   3.329   2.345   4.644  0.8099 -1.9068 -1.5197
  161OSM   H11G18133   3.342   2.391   4.474  1.2173 -2.2265 -0.1681
  161OSM   C12F18134   3.342   2.552   4.610 -0.3414 -0.5539 -0.1009
  161OSM   H12F18135   3.377   2.569   4.714  1.0182 -2.9559 -0.1051
  161OSM   H12G18136   3.233   2.562   4.627 -0.2437 -1.3385  1.1162
  161OSM   C13F18137   3.401   2.667   4.522 -0.5596 -0.5874 -0.5662
  161OSM   H13F18138   3.509   2.664   4.546 -0.7818 -1.7513  0.3781
  161OSM   H13G18139   3.370   2.771   4.548  1.6726  1.1019 -3.9748
  161OSM   C14F18140   3.362   2.659   4.376 -0.2153  0.4408 -0.0549
  161OSM   H14F18141   3.401   2.564   4.334 -1.1904 -0.3229  0.7370
  161OSM   H14G18142   3.399   2.748   4.321 -0.5452  1.9713  2.0843
  161OSM   C15F18143   3.213   2.671   4.353 -0.4890 -0.1832  0.4753
  161OSM   H15F18144   3.183   2.762   4.411 -0.5740 -0.6236  1.1389
  161OSM   H15G18145   3.159   2.596   4.414  1.4548 -0.4862  1.9293
  161OSM   C16F18146   3.162   2.700   4.210 -0.0429 -0.7165 -0.5337
  161OSM   H16F18147   3.214   2.790   4.171  0.0972 -1.0374 -1.0953
  161OSM   H16G18148   3.053   2.720   4.216 -0.0380 -0.9692  0.7989
  161OSM   C17F18149   3.182   2.593   4.101  0.5157  0.2753  0.0843
  161OSM   H17F18150   3.151   2.495   4.143  0.9106  0.9778  2.1477
  161OSM   H17G18151   3.291   2.576   4.094  0.7024  0.9945  1.0957
  161OSM   C18F18152   3.120   2.630   3.964 -0.4756 -1.0561 -0.1898
  161OSM   H18F18153   3.034   2.569   3.931 -0.7274 -0.5569 -0.4768
  161OSM   H18G18154   3.198   2.615   3.887 -1.0664 -0.7210 -0.8716
  161OSM   H18H18155   3.093   2.737   3.951  0.0695 -1.0097 -1.0084
  162OSM      N18156   4.706   1.826   2.784  0.2069  0.2084  0.2137
  162OSM    C1518157   4.667   1.681   2.749 -0.9089  0.1057 -0.8979
  162OSM   H15A18158   4.567   1.649   2.775 -0.4305 -1.3470 -0.7464
  162OSM   H15B18159   4.733   1.609   2.796  0.8944  1.0283 -1.9214
  162OSM   H15C18160   4.671   1.664   2.642 -1.4057  1.4513 -1.1439
  162OSM    C1418161   4.840   1.845   2.728 -0.8155 -0.5565  0.2627
  162OSM   H14A18162   4.913   1.786   2.782 -0.2415  0.8332  1.0446
  162OSM   H14B18163   4.877   1.944   2.749  0.0330 -0.5176 -1.3100
  162OSM   H14C18164   4.851   1.823   2.623  3.5081 -1.5094  0.7280
  162OSM    C1318165   4.616   1.918   2.710  0.1252  0.3334  0.5231
  162OSM   H13A18166   4.627   2.020   2.742 -1.5429  0.9401 -0.7268
  162OSM   H13B18167   4.510   1.901   2.723 -0.3539  3.0320  0.6586
  162OSM   H13C18168   4.633   1.901   2.605  1.1491  3.2822  0.1348
  162OSM    C1218169   4.695   1.859   2.931  0.3160  0.5275  0.5269
  162OSM   H12A18170   4.750   1.791   2.995  2.7080  0.3162 -1.5744
  162OSM   H12B18171   4.591   1.845   2.956 -0.0768  2.7727  0.3496
  162OSM    C1118172   4.727   2.005   2.980 -0.0830 -0.3910  0.2810
  162OSM   H11A18173   4.833   2.037   2.965 -0.7003  2.3644  1.2041
  162OSM   H11B18174   4.719   2.010   3.091  2.7957 -2.8111  0.7303
  162OSM      P18175   4.514   2.156   2.995  0.4696  0.3170  0.0632
  162OSM    O1318176   4.460   2.266   2.914  0.4197  0.6684  0.1136
  162OSM    O1418177   4.432   2.038   3.025 -0.0191 -0.0856  0.1587
  162OSM    O1118178   4.582   2.205   3.127  0.2281 -0.5025 -0.1841
  162OSM    O1218179   4.645   2.107   2.920 -0.1399  0.1715  0.4003
  162OSM    C1S18180   4.520   2.274   3.234 -0.3300 -0.6788 -0.2111
  162OSM    H1S18181   4.420   2.231   3.256 -0.8412  1.5595  2.4857
  162OSM    H1T18182   4.511   2.382   3.211  2.1647 -0.3712 -0.0926
  162OSM     NF18183   4.536   2.301   3.489  0.3709 -0.7343 -0.6804
  162OSM    HNF18184   4.588   2.372   3.536  0.6106 -1.1560 -0.2938
  162OSM    C2S18185   4.603   2.264   3.369  0.0511  0.2470 -1.4547
  162OSM    H2S18186   4.618   2.156   3.390  0.5153  0.6912  0.7796
  162OSM    C3S18187   4.753   2.322   3.349  0.0339  0.2548  0.2066
  162OSM    H3S18188   4.738   2.430   3.331 -0.7408  0.1971  0.4782
  162OSM     O318189   4.826   2.279   3.231  0.2543 -0.0783 -0.4037
  162OSM    HO318190   4.746   2.247   3.187  0.6738 -1.3042 -0.3111
  162OSM    C4S18191   4.837   2.288   3.466  0.1598 -0.1087 -0.2589
  162OSM    H4S18192   4.873   2.185   3.480 -0.6623 -0.2353  1.1134
  162OSM    C5S18193   4.882   2.380   3.555  0.3596 -0.3037  0.1269
  162OSM    H5S18194   4.851   2.484   3.537  0.4120  0.1632  2.4370
  162OSM    C6S18195   4.972   2.347   3.674 -0.0641  0.3459  0.1443
  162OSM    H6S18196   5.060   2.414   3.671 -1.1664  1.9193  1.3487
  162OSM    H6T18197   4.994   2.238   3.677  2.3072  0.7964  0.6362
  162OSM    C7S18198   4.894   2.380   3.808 -0.2488 -0.0936  0.2651
  162OSM    H7S18199   4.889   2.491   3.809  2.7843  0.1428 -0.3459
  162OSM    H7T18200   4.958   2.348   3.892 -1.0335 -2.7611 -0.0780
  162OSM    C8S18201   4.756   2.315   3.826 -0.1102  0.6382 -0.0482
  162OSM    H8S18202   4.759   2.215   3.778  3.1868  0.9686 -0.7553
  162OSM    H8T18203   4.682   2.363   3.760 -0.1157 -0.1831 -0.6512
  162OSM    C9S18204   4.711   2.309   3.966 -0.3394  0.2974 -0.3869
  162OSM    H9S18205   4.705   2.413   4.005  0.5504  0.1790  0.0760
  162OSM    H9T18206   4.779   2.251   4.032  0.7600 -0.6215 -2.2495
  162OSM   C10S18207   4.571   2.254   3.968  0.4010 -0.4694 -0.6606
  162OSM   H10S18208   4.566   2.163   3.905  2.6515 -2.9420  2.3877
  162OSM   H10T18209   4.512   2.332   3.916 -2.6192 -2.1167  0.0727
  162OSM   C11S18210   4.508   2.241   4.105  0.5110 -0.4179 -0.6042
  162OSM   H11S18211   4.549   2.157   4.166  0.4737 -0.4136 -0.5731
  162OSM   H11T18212   4.405   2.215   4.074  0.5464  0.6943 -1.7019
  162OSM   C12S18213   4.507   2.370   4.180  0.1247 -0.4294 -0.0264
  162OSM   H12S18214   4.448   2.447   4.126 -0.4043 -1.9734 -1.7601
  162OSM   H12T18215   4.607   2.419   4.180 -1.1038  2.2962 -1.3203
  162OSM   C13S18216   4.473   2.350   4.329 -0.3396 -0.1290 -0.0548
  162OSM   H13S18217   4.512   2.259   4.378 -1.3326 -0.3806  0.2897
  162OSM   H13T18218   4.362   2.348   4.334 -0.2872 -2.1636  1.8309
  162OSM   C14S18219   4.486   2.474   4.420 -0.9523  0.3476 -0.4572
  162OSM   H14S18220   4.530   2.562   4.369  0.2770 -0.6408 -1.2011
  162OSM   H14T18221   4.559   2.455   4.502 -1.1674  0.3653 -0.2631
  162OSM   C15S18222   4.352   2.524   4.484  0.4135 -0.1836  0.0444
  162OSM   H15S18223   4.313   2.451   4.558 -2.0983  0.5472 -0.4449
  162OSM   H15T18224   4.275   2.547   4.407  1.5455 -0.3597 -1.1600
  162OSM   C16S18225   4.379   2.655   4.559 -0.6020 -0.0717  0.1754
  162OSM   H16S18226   4.418   2.737   4.494  0.7959 -0.6528  0.2472
  162OSM   H16T18227   4.460   2.644   4.634 -1.3803 -0.2420  0.9902
  162OSM   C17S18228   4.262   2.715   4.636 -0.3220  0.0014 -0.0630
  162OSM   H17S18229   4.283   2.688   4.741  2.0992 -2.1152 -0.9760
  162OSM   H17T18230   4.168   2.678   4.590  0.3205 -0.1342 -1.3080
  162OSM   C18S18231   4.254   2.868   4.610 -0.1057 -0.4437 -0.0120
  162OSM   H18S18232   4.169   2.910   4.667  1.1727  1.6206  0.5065
  162OSM   H18T18233   4.224   2.896   4.507 -2.0328  0.5284  0.7539
  162OSM   H18U18234   4.350   2.916   4.639  1.0328 -3.1191  0.9836
  162OSM    C1F18235   4.410   2.276   3.529 -0.2357 -0.2917  0.1972
  162OSM     OF18236   4.332   2.204   3.468 -0.2427  0.1157  0.7436
  162OSM    C2F18237   4.358   2.344   3.651  0.4983  0.2451  0.3213
  162OSM    H2F18238   4.295   2.424   3.606 -0.0274 -1.4684 -2.2321
  162OSM    H2G18239   4.446   2.384   3.706  1.5591 -1.7672  0.1659
  162OSM    C3F18240   4.281   2.254   3.748 -0.3001 -0.7829 -0.0120
  162OSM    H3F18241   4.342   2.172   3.791 -0.5290 -0.1492  1.6022
  162OSM    H3G18242   4.208   2.206   3.679  2.1258 -0.5927 -2.8786
  162OSM    C4F18243   4.201   2.319   3.861  0.2150 -0.1456 -0.0692
  162OSM    H4F18244   4.101   2.360   3.833 -0.9591 -1.1235  2.3720
  162OSM    H4G18245   4.262   2.401   3.904 -1.0652  1.1290 -0.6016
  162OSM    C5F18246   4.159   2.219   3.967  0.2139  0.4177  0.3079
  162OSM    H5F18247   4.244   2.150   3.988  2.1359  2.9190  1.2231
  162OSM    H5G18248   4.082   2.151   3.925  1.3318 -0.5756 -0.1982
  162OSM    C6F18249   4.114   2.279   4.097 -1.1204 -0.1339  0.0936
  162OSM    H6F18250   4.200   2.298   4.165 -0.7913 -2.4482  0.4107
  162OSM    H6G18251   4.040   2.217   4.153 -1.8669  1.7667  1.2879
  162OSM    C7F18252   4.037   2.410   4.086 -0.0810 -0.3500  0.7381
  162OSM    H7F18253   3.940   2.385   4.039  0.1095  1.2290 -0.5805
  162OSM    H7G18254   4.100   2.477   4.024 -2.1389 -0.7322 -1.9197
  162OSM    C8F18255   4.025   2.472   4.224 -0.4553 -0.0377 -0.4242
  162OSM    H8F18256   4.126   2.492   4.265 -0.5407 -0.7218  0.1490
  162OSM    H8G18257   3.981   2.400   4.296  0.2949 -1.6822 -1.5475
  162OSM    C9F18258   3.949   2.599   4.204  0.0839  0.5014  0.1601
  162OSM    H9F18259   3.906   2.614   4.104 -1.5721 -1.0167  0.5970
  162OSM   C10F18260   3.921   2.691   4.299  0.2042  0.2343  0.4067
  162OSM   H10F18261   3.856   2.774   4.266 -1.1283 -0.2734  1.6381
  162OSM   C11F18262   3.939   2.697   4.448  0.1145  0.1666 -0.7998
  162OSM   H11F18263   3.998   2.787   4.475 -0.0809  0.7659 -2.3098
  162OSM   H11G18264   3.996   2.609   4.485  1.3546  1.1577 -0.2881
  162OSM   C12F18265   3.804   2.695   4.521 -0.0439  0.3967  0.8234
  162OSM   H12F18266   3.758   2.595   4.501  0.6589  0.2786 -0.3275
  162OSM   H12G18267   3.737   2.777   4.487  1.8009  2.1682  1.2467
  162OSM   C13F18268   3.827   2.696   4.669 -0.2055 -0.1164  0.4217
  162OSM   H13F18269   3.883   2.785   4.703  0.5142 -0.5286  0.3342
  162OSM   H13G18270   3.876   2.601   4.702 -2.4302 -0.9699  1.4848
  162OSM   C14F18271   3.705   2.700   4.751 -0.3523 -0.8362 -0.1094
  162OSM   H14F18272   3.655   2.603   4.727 -2.5778  0.3129 -0.3947
  162OSM   H14G18273   3.635   2.785   4.736  0.4667  0.5817  3.2418
  162OSM   C15F18274   3.737   2.699   4.902 -0.5581 -0.2839  0.3182
  162OSM   H15F18275   3.784   2.793   4.938  0.3820 -1.0994  1.2544
  162OSM   H15G18276   3.807   2.618   4.930  0.3482  0.3238 -0.1407
  162OSM   C16F18277   3.606   2.674   4.969  0.8709 -0.4768  0.3055
  162OSM   H16F18278   3.575   2.569   4.948 -1.0108  0.1621 -0.3725
  162OSM   H16G18279   3.529   2.738   4.921  2.2644  0.1426 -1.2113
  162OSM   C17F18280   3.591   2.699   5.116  0.8308  0.1579 -0.1729
  162OSM   H17F18281   3.673   2.639   5.160 -0.8024 -0.9510  1.5380
  162OSM   H17G18282   3.496   2.656   5.153 -0.2849  2.7470  0.2336
  162OSM   C18F18283   3.583   2.845   5.148 -0.1121 -0.1947  0.3044
  162OSM   H18F18284   3.522   2.899   5.072 -1.9571 -1.4062  0.8582
  162OSM   H18G18285   3.683   2.894   5.146  0.3029 -1.0235  0.4976
  162OSM   H18H18286   3.538   2.863   5.248  1.2926  0.1312  0.9056
  163OSM      N18287   2.273   1.890   3.088 -0.1057 -0.1831 -0.9899
  163OSM    C1518288   2.348   1.756   3.080 -0.5629  0.4473 -0.4286
  163OSM   H15A18289   2.276   1.676   3.091 -1.3818  0.9386 -1.9165
  163OSM   H15B18290   2.421   1.746   3.159 -1.2118  1.7029  0.3477
  163OSM   H15C18291   2.410   1.742   2.992 -0.8456 -0.0390 -0.5530
  163OSM    C1418292   2.358   2.009   3.056  0.3222 -0.5358 -0.0776
  163OSM   H14A18293   2.299   2.100   3.061 -0.5279 -1.1008  4.8828
  163OSM   H14B18294   2.406   2.005   2.959  2.8961 -1.9810  1.1649
  163OSM   H14C18295   2.432   2.014   3.134  1.5722  2.7746 -1.2641
  163OSM    C1318296   2.159   1.890   3.003  0.0053  0.1453  0.7154
  163OSM   H13A18297   2.092   1.807   3.020 -1.1104  1.0772  0.9959
  163OSM   H13B18298   2.184   1.882   2.898 -1.5201 -0.5065  0.3749
  163OSM   H13C18299   2.107   1.984   3.020 -0.9468 -0.5987  2.0827
  163OSM    C1218300   2.228   1.916   3.239 -0.0321 -0.0053 -0.0599
  163OSM   H12A18301   2.141   1.853   3.246  0.4047 -0.4730  1.7559
  163OSM   H12B18302   2.200   2.020   3.253  0.2063 -0.1719  2.1385
  163OSM    C1118303   2.330   1.890   3.353  0.1418  0.5110  0.0417
  163OSM   H11A18304   2.364   1.785   3.337 -0.3355  0.2439  0.7351
  163OSM   H11B18305   2.293   1.881   3.458 -0.2122  1.6114  0.0194
  163OSM      P18306   2.434   2.121   3.380  0.4186  0.4484  0.2728
  163OSM    O1318307   2.519   2.208   3.297 -0.4818  0.8569 -0.0199
  163OSM    O1418308   2.290   2.153   3.387 -0.8185 -0.0662  0.2951
  163OSM    O1118309   2.475   2.131   3.523  0.0114 -0.2073  0.4092
  163OSM    O1218310   2.446   1.970   3.347 -0.3681 -0.2838 -0.1386
  163OSM    C1S18311   2.567   2.225   3.584 -0.0615 -0.0710  0.4371
  163OSM    H1S18312   2.529   2.325   3.554 -1.1491 -0.6298 -0.1076
  163OSM    H1T18313   2.673   2.216   3.553 -0.3986 -1.0115 -0.5095
  163OSM     NF18314   2.640   2.326   3.800  0.8109  0.6218  0.1327
  163OSM    HNF18315   2.737   2.308   3.814  0.1910 -3.1759  0.7195
  163OSM    C2S18316   2.559   2.212   3.739 -0.2121  0.0072 -0.8479
  163OSM    H2S18317   2.457   2.238   3.776  1.2041  2.1324  1.9264
  163OSM    C3S18318   2.607   2.073   3.779 -0.6676 -0.3380 -0.0395
  163OSM    H3S18319   2.714   2.068   3.746 -0.7079  0.3142 -0.2897
  163OSM     O318320   2.553   1.960   3.716 -0.5118  0.2278  0.1740
  163OSM    HO318321   2.487   1.992   3.653 -2.6868 -2.4319  0.9288
  163OSM    C4S18322   2.607   2.051   3.920 -0.3720 -0.2529  0.2264
  163OSM    H4S18323   2.508   2.034   3.965 -1.3339 -0.0094 -1.6898
  163OSM    C5S18324   2.718   2.064   3.999  0.0025  0.3417  0.4500
  163OSM    H5S18325   2.816   2.071   3.950 -0.0655  2.4493  0.5483
  163OSM    C6S18326   2.697   2.069   4.149  0.3938  0.3097 -0.4385
  163OSM    H6S18327   2.744   2.162   4.187  0.4981  0.6329 -1.3414
  163OSM    H6T18328   2.758   1.985   4.191 -0.2202 -1.1741 -2.3674
  163OSM    C7S18329   2.551   2.070   4.212 -0.3347  0.3054 -0.4692
  163OSM    H7S18330   2.492   1.989   4.163 -2.5498  2.4033 -1.4679
  163OSM    H7T18331   2.500   2.162   4.176  1.6712  1.1040 -1.4258
  163OSM    C8S18332   2.542   2.043   4.362  0.2664  0.5470 -0.3727
  163OSM    H8S18333   2.584   1.942   4.382 -0.6172  0.1451 -0.5107
  163OSM    H8T18334   2.436   2.045   4.395  0.2590 -0.5893 -0.3016
  163OSM    C9S18335   2.629   2.136   4.447  0.4871  0.1955  0.3248
  163OSM    H9S18336   2.610   2.240   4.412  0.5743 -0.6991 -2.6424
  163OSM    H9T18337   2.738   2.135   4.427  0.1666  1.0760 -1.6809
  163OSM   C10S18338   2.614   2.121   4.596 -0.0496 -0.4115  0.1471
  163OSM   H10S18339   2.634   2.016   4.625 -1.2603 -1.1190 -1.4127
  163OSM   H10T18340   2.506   2.144   4.610  0.2107  0.8157  0.2345
  163OSM   C11S18341   2.694   2.221   4.680  0.2923 -0.5148  0.2963
  163OSM   H11S18342   2.657   2.323   4.656 -1.9053  0.3987  5.9447
  163OSM   H11T18343   2.798   2.204   4.646  0.4764 -1.4969  1.2691
  163OSM   C12S18344   2.682   2.198   4.832 -0.9192 -0.4058 -0.0339
  163OSM   H12S18345   2.712   2.095   4.861  1.0493 -0.0689 -0.7533
  163OSM   H12T18346   2.576   2.207   4.864 -0.8962  5.6857 -0.5248
  163OSM   C13S18347   2.767   2.299   4.912  0.0832 -0.4793  0.0341
  163OSM   H13S18348   2.727   2.397   4.876 -0.1927 -0.3714  0.6371
  163OSM   H13T18349   2.874   2.296   4.881  0.5153  0.9690  1.2916
  163OSM   C14S18350   2.735   2.296   5.064 -0.6428 -0.2151 -0.0510
  163OSM   H14S18351   2.778   2.210   5.119 -1.5143 -0.0069  1.0013
  163OSM   H14T18352   2.626   2.292   5.087 -0.2392 -2.4487  1.8041
  163OSM   C15S18353   2.782   2.421   5.140 -0.1226 -0.3814 -0.3673
  163OSM   H15S18354   2.743   2.507   5.081 -1.9302 -1.9839 -1.6435
  163OSM   H15T18355   2.893   2.429   5.132  0.3565 -0.7298  3.9157
  163OSM   C16S18356   2.732   2.436   5.280 -0.3682  0.4571  0.1988
  163OSM   H16S18357   2.739   2.342   5.338 -0.8941  0.8946  0.9810
  163OSM   H16T18358   2.624   2.461   5.279  0.0676  2.6897 -2.1166
  163OSM   C17S18359   2.802   2.542   5.350  0.2366 -0.6577 -0.0279
  163OSM   H17S18360   2.792   2.634   5.288 -1.7789  1.5242  3.1936
  163OSM   H17T18361   2.907   2.510   5.365  1.2361  1.6206 -1.6519
  163OSM   C18S18362   2.728   2.585   5.482 -0.2720 -0.2612 -0.4223
  163OSM   H18S18363   2.618   2.572   5.475 -0.1845 -0.3486 -2.2776
  163OSM   H18T18364   2.747   2.695   5.488  2.6472 -0.7222  0.2269
  163OSM   H18U18365   2.775   2.529   5.565  2.2529  2.5968  0.2508
  163OSM    C1F18366   2.586   2.451   3.808  0.1215 -0.6758 -0.4509
  163OSM     OF18367   2.473   2.474   3.786  0.6129 -0.5051 -0.1746
  163OSM    C2F18368   2.682   2.556   3.849  0.2831  0.1899 -0.8189
  163OSM    H2F18369   2.672   2.640   3.777 -0.0593 -1.9213 -3.3615
  163OSM    H2G18370   2.791   2.536   3.848  0.7044  0.7948  4.2719
  163OSM    C3F18371   2.653   2.611   3.996  0.1084 -0.4770  0.2948
  163OSM    H3F18372   2.545   2.633   3.984 -0.3580 -2.0568  1.3050
  163OSM    H3G18373   2.714   2.703   4.010  0.6997 -1.0283  1.4448
  163OSM    C4F18374   2.671   2.519   4.117  0.1659  0.0271 -0.0624
  163OSM    H4F18375   2.635   2.417   4.091 -1.2294  1.2758 -3.6766
  163OSM    H4G18376   2.605   2.555   4.199  0.7901 -0.2864  0.5921
  163OSM    C5F18377   2.810   2.517   4.174 -0.0435 -0.4868 -0.7582
  163OSM    H5F18378   2.849   2.621   4.172 -2.1377  0.3830  0.2454
  163OSM    H5G18379   2.874   2.461   4.103  1.7729  1.5766 -0.8511
  163OSM    C6F18380   2.814   2.460   4.317  0.5949  0.1305 -0.1308
  163OSM    H6F18381   2.917   2.429   4.345  1.0730 -0.8336 -2.6835
  163OSM    H6G18382   2.753   2.368   4.324 -1.9286  1.8309  2.0678
  163OSM    C7F18383   2.750   2.544   4.432  0.2791  0.2458  0.0462
  163OSM    H7F18384   2.771   2.486   4.524  0.4188  0.2389  0.0103
  163OSM    H7G18385   2.640   2.545   4.422  0.2906  1.0792 -0.0688
  163OSM    C8F18386   2.809   2.685   4.441 -0.5935  0.7249  0.0186
  163OSM    H8F18387   2.782   2.742   4.349  1.4915  1.1987 -0.3455
  163OSM    H8G18388   2.918   2.667   4.445 -0.6385 -0.1555 -1.9172
  163OSM    C9F18389   2.750   2.738   4.569 -0.4711  0.0688  0.0124
  163OSM    H9F18390   2.646   2.767   4.549 -0.6202 -1.7383 -2.1750
  163OSM   C10F18391   2.802   2.733   4.691 -0.7012 -0.0209  0.0489
  163OSM   H10F18392   2.743   2.771   4.776 -1.4717  0.8929 -0.8749
  163OSM   C11F18393   2.940   2.676   4.730 -0.6352 -0.5723  0.0680
  163OSM   H11F18394   3.017   2.704   4.655 -0.0645  1.5526  1.3499
  163OSM   H11G18395   2.946   2.566   4.740 -2.9510 -1.0509 -2.4165
  163OSM   C12F18396   2.985   2.755   4.848  0.5288  0.4263 -0.4836
  163OSM   H12F18397   2.907   2.744   4.927  1.7155  1.5673  0.9076
  163OSM   H12G18398   2.992   2.863   4.822 -0.0551  0.7285  0.5618
  163OSM   C13F18399   3.120   2.707   4.905  0.2040 -0.0636  0.1034
  163OSM   H13F18400   3.159   2.793   4.964 -0.7077 -0.1678  0.8815
  163OSM   H13G18401   3.178   2.666   4.819  0.4743 -0.5617  0.5205
  163OSM   C14F18402   3.087   2.590   4.998 -0.7174  0.4582 -0.3860
  163OSM   H14F18403   3.039   2.504   4.947 -0.5077  0.7356 -1.0670
  163OSM   H14G18404   3.010   2.628   5.068 -0.4593  0.2991 -0.0159
  163OSM   C15F18405   3.221   2.545   5.067 -0.0946 -0.6189  0.9326
  163OSM   H15F18406   3.252   2.639   5.117 -0.5627  1.7422 -2.7981
  163OSM   H15G18407   3.306   2.515   5.002  0.6329  2.6135  0.2507
  163OSM   C16F18408   3.200   2.437   5.175 -0.4208  0.2933  0.5007
  163OSM   H16F18409   3.123   2.469   5.248 -3.4116 -0.1609 -2.2337
  163OSM   H16G18410   3.303   2.418   5.212  0.0876  1.0612 -0.4466
  163OSM   C17F18411   3.154   2.295   5.127  0.3299  0.2412  0.4517
  163OSM   H17F18412   3.227   2.258   5.052 -0.2770 -1.1863  0.5293
  163OSM   H17G18413   3.055   2.307   5.079  1.1365 -0.1826 -1.3884
  163OSM   C18F18414   3.150   2.188   5.247 -0.0411 -0.2031  0.3747
  163OSM   H18F18415   3.253   2.150   5.265 -0.9654 -1.5993  3.2667
  163OSM   H18G18416   3.089   2.101   5.215  3.2109 -1.8689 -1.9654
  163OSM   H18H18417   3.110   2.242   5.335 -2.7184  0.1259 -0.9309
  164OSM      N18418   6.151   1.023   3.376  0.5157  0.2211 -0.3729
  164OSM    C1518419   6.180   1.144   3.289  0.4230  0.3953 -0.3857
  164OSM   H15A18420   6.264   1.120   3.226 -1.1966 -1.7747 -1.8457
  164OSM   H15B18421   6.195   1.231   3.351 -0.6241  0.3201 -0.0045
  164OSM   H15C18422   6.105   1.176   3.219 -0.3786  2.0518  1.1381
  164OSM    C1418423   6.123   0.915   3.284  0.3800 -0.2636 -0.3972
  164OSM   H14A18424   6.155   0.833   3.345  1.4202  1.3549  1.3432
  164OSM   H14B18425   6.187   0.918   3.197 -0.8201 -1.9128 -1.3908
  164OSM   H14C18426   6.018   0.909   3.260  0.5104 -2.7056 -0.6450
  164OSM    C1318427   6.268   0.995   3.457 -0.4464  0.6503 -0.2335
  164OSM   H13A18428   6.349   0.956   3.398 -2.5276 -1.4989 -1.8739
  164OSM   H13B18429   6.247   0.923   3.535  0.4133 -0.9926 -1.4603
  164OSM   H13C18430   6.310   1.081   3.508 -0.5565 -0.1086  1.1797
  164OSM    C1218431   6.034   1.047   3.468 -0.0932 -0.2406  0.5373
  164OSM   H12A18432   6.067   1.128   3.530 -1.6063  0.5679  0.3226
  164OSM   H12B18433   6.007   0.963   3.530  3.5168 -0.6147  1.8271
  164OSM    C1118434   5.903   1.083   3.403 -0.4564  0.2413  0.3669
  164OSM   H11A18435   5.848   0.987   3.398  1.3295 -0.8637  1.1517
  164OSM   H11B18436   5.917   1.117   3.298 -0.4211  0.7088  0.5171
  164OSM      P18437   5.878   1.332   3.470 -0.0434 -0.2557 -0.4069
  164OSM    O1318438   5.894   1.377   3.326 -0.1750 -0.0918 -0.1486
  164OSM    O1418439   5.776   1.410   3.541  0.2642 -0.1119  0.3602
  164OSM    O1118440   6.013   1.329   3.537  0.1040 -0.1224 -0.0027
  164OSM    O1218441   5.837   1.176   3.471  0.6368 -0.1918 -0.2108
  164OSM    C1S18442   6.050   1.439   3.622 -0.3410  0.7973 -0.8181
  164OSM    H1S18443   5.973   1.469   3.697 -0.4389 -2.0559  0.3673
  164OSM    H1T18444   6.065   1.533   3.565 -2.4140  2.1570  0.7196
  164OSM     NF18445   6.195   1.516   3.822  0.1163  0.3768  0.1338
  164OSM    HNF18446   6.254   1.595   3.813  0.7550 -0.1268 -0.2490
  164OSM    C2S18447   6.181   1.419   3.705  0.2574 -0.1970 -0.0471
  164OSM    H2S18448   6.176   1.316   3.746 -0.5161  0.5180  1.7510
  164OSM    C3S18449   6.294   1.425   3.602 -0.0004  0.1022 -0.0175
  164OSM    H3S18450   6.282   1.519   3.544 -0.7434 -0.1175 -0.2238
  164OSM     O318451   6.293   1.325   3.511  0.4842  0.3233  0.0951
  164OSM    HO318452   6.200   1.305   3.513  0.6017 -0.2949 -0.2902
  164OSM    C4S18453   6.438   1.442   3.656 -0.3096 -0.0816 -0.4382
  164OSM    H4S18454   6.468   1.547   3.643 -1.3161  0.3795  0.7789
  164OSM    C5S18455   6.527   1.353   3.703 -0.0716  0.9032 -0.1297
  164OSM    H5S18456   6.508   1.245   3.716  1.7406  0.7290  1.4991
  164OSM    C6S18457   6.660   1.388   3.754  0.6707 -0.4098 -0.0753
  164OSM    H6S18458   6.683   1.495   3.740 -2.1184  0.7112  2.6598
  164OSM    H6T18459   6.739   1.332   3.700  0.9018  1.4717 -1.7834
  164OSM    C7S18460   6.651   1.367   3.909 -0.3209  0.1268 -0.5278
  164OSM    H7S18461   6.749   1.406   3.944 -0.1507  0.4493 -1.3447
  164OSM    H7T18462   6.644   1.258   3.933  0.5914  0.4957  1.6257
  164OSM    C8S18463   6.553   1.452   3.989  0.2405  0.2500  0.0418
  164OSM    H8S18464   6.447   1.432   3.964  0.4109  1.9522 -2.4439
  164OSM    H8T18465   6.557   1.561   3.967  0.6031  0.0783 -0.7643
  164OSM    C9S18466   6.564   1.427   4.140  0.2844 -0.5797 -0.1392
  164OSM    H9S18467   6.642   1.492   4.186  0.7751 -0.0025 -1.7387
  164OSM    H9T18468   6.589   1.319   4.143 -1.0314 -0.9782 -1.9339
  164OSM   C10S18469   6.433   1.455   4.214 -0.1224 -0.0021  0.7964
  164OSM   H10S18470   6.365   1.389   4.155  1.6386 -0.6330 -0.6136
  164OSM   H10T18471   6.417   1.564   4.204  1.0051  0.3810  2.7677
  164OSM   C11S18472   6.411   1.410   4.350 -0.0204  0.4137  0.5032
  164OSM   H11S18473   6.441   1.304   4.361  0.0946  0.3500 -0.2978
  164OSM   H11T18474   6.300   1.415   4.354 -0.2543 -1.2971 -1.7070
  164OSM   C12S18475   6.490   1.491   4.456  0.3228 -0.9215 -0.5987
  164OSM   H12S18476   6.483   1.602   4.447  1.0040 -0.8004  0.2865
  164OSM   H12T18477   6.599   1.484   4.433  0.7132  0.3919  0.7438
  164OSM   C13S18478   6.460   1.450   4.601 -0.2496 -0.5445 -1.0275
  164OSM   H13S18479   6.457   1.339   4.605  3.1368 -0.7435 -0.9518
  164OSM   H13T18480   6.364   1.491   4.640  0.9263 -1.5995  3.6365
  164OSM   C14S18481   6.562   1.514   4.697 -0.6975 -0.2041 -0.4418
  164OSM   H14S18482   6.587   1.618   4.670 -0.0299  0.7201  3.1765
  164OSM   H14T18483   6.653   1.452   4.685  0.0988  1.1261 -1.6296
  164OSM   C15S18484   6.533   1.495   4.846  0.0607  0.4445 -0.7381
  164OSM   H15S18485   6.620   1.520   4.910  0.2482  0.5999 -1.0517
  164OSM   H15T18486   6.494   1.393   4.867  2.2418 -0.0785  1.1004
  164OSM   C16S18487   6.417   1.589   4.891 -0.4780 -0.0127 -0.3436
  164OSM   H16S18488   6.330   1.577   4.823  1.3290 -3.7388 -2.2876
  164OSM   H16T18489   6.450   1.695   4.896  1.4409 -0.5883  0.0343
  164OSM   C17S18490   6.383   1.542   5.037  0.5339  0.5180  0.1997
  164OSM   H17S18491   6.476   1.550   5.098  1.5549 -1.0984 -1.0484
  164OSM   H17T18492   6.363   1.433   5.042  0.2093  0.5981  0.6502
  164OSM   C18S18493   6.288   1.636   5.104 -0.1089 -0.5999  0.1474
  164OSM   H18S18494   6.266   1.592   5.204  0.3541  0.1825  0.6085
  164OSM   H18T18495   6.188   1.650   5.057  0.9378  3.6109 -1.2385
  164OSM   H18U18496   6.340   1.728   5.137  1.5480 -1.8428  1.1743
  164OSM    C1F18497   6.110   1.507   3.928 -0.1541  0.3968  0.4047
  164OSM     OF18498   6.018   1.426   3.933 -0.0996  0.6723 -0.5284
  164OSM    C2F18499   6.132   1.606   4.038  0.4956 -0.3361 -0.8162
  164OSM    H2F18500   6.104   1.707   4.000 -1.6051  0.0153  1.3703
  164OSM    H2G18501   6.242   1.610   4.058  0.3694  2.3254 -0.2735
  164OSM    C3F18502   6.038   1.580   4.161 -0.3561 -0.2741  0.3100
  164OSM    H3F18503   6.033   1.473   4.190 -1.8127 -0.2730  0.1556
  164OSM    H3G18504   5.937   1.615   4.131  0.7285  1.5477 -1.4906
  164OSM    C4F18505   6.066   1.666   4.281  0.5167  0.1970 -0.2568
  164OSM    H4F18506   6.060   1.774   4.254  2.3925  0.1982 -0.8564
  164OSM    H4G18507   6.173   1.650   4.307 -0.0069  0.1307  2.0390
  164OSM    C5F18508   5.982   1.634   4.406  0.1663 -0.4157  0.5795
  164OSM    H5F18509   5.966   1.527   4.430 -1.4009 -0.3366  0.0192
  164OSM    H5G18510   5.883   1.684   4.396 -0.5516 -1.6621  1.2570
  164OSM    C6F18511   6.041   1.705   4.526  0.0569  0.2498  0.3990
  164OSM    H6F18512   6.027   1.814   4.511 -0.4287 -0.0849 -1.9242
  164OSM    H6G18513   6.149   1.679   4.524 -0.3635 -1.9241  2.1571
  164OSM    C7F18514   5.980   1.664   4.657  0.5866 -0.1053  0.7194
  164OSM    H7F18515   5.984   1.553   4.660 -1.3549 -0.2219  0.2536
  164OSM    H7G18516   5.876   1.696   4.676  0.6106 -0.4940  1.5579
  164OSM    C8F18517   6.060   1.702   4.784 -0.2400 -0.3183 -0.9924
  164OSM    H8F18518   6.163   1.661   4.774  0.1932 -0.0953  1.8188
  164OSM    H8G18519   6.007   1.656   4.870 -1.7585  0.0149 -1.7179
  164OSM    C9F18520   6.070   1.848   4.796 -0.4967 -1.5072  0.0170
  164OSM    H9F18521   6.147   1.893   4.733 -0.4465  0.2010  1.2240
  164OSM   C10F18522   6.024   1.936   4.887  1.1623  0.1651  0.7758
  164OSM   H10F18523   6.045   2.044   4.883  0.4835  0.2847 -2.1333
  164OSM   C11F18524   5.927   1.911   5.008 -0.6621  0.0128 -0.9491
  164OSM   H11F18525   5.914   1.801   5.010 -1.9816  0.1154  2.3604
  164OSM   H11G18526   5.825   1.941   4.976 -0.6165 -0.2887 -1.3741
  164OSM   C12F18527   5.983   1.966   5.143 -0.0680 -0.0246  0.1131
  164OSM   H12F18528   5.999   2.076   5.138 -2.7018  0.3737 -1.8292
  164OSM   H12G18529   6.086   1.928   5.158 -0.6605 -2.2637 -0.9751
  164OSM   C13F18530   5.893   1.915   5.253 -0.3058 -0.0956 -0.5467
  164OSM   H13F18531   5.907   1.806   5.266  1.1595  0.2784  1.2670
  164OSM   H13G18532   5.784   1.922   5.231 -0.4036 -2.3838 -1.0058
  164OSM   C14F18533   5.920   1.970   5.396 -0.2366 -0.3701  0.3681
  164OSM   H14F18534   6.025   1.953   5.427  0.1406  2.7088  1.0995
  164OSM   H14G18535   5.854   1.909   5.461 -0.1662 -1.3646 -0.4574
  164OSM   C15F18536   5.894   2.117   5.404  1.1494 -0.4931  0.3900
  164OSM   H15F18537   5.789   2.129   5.370  1.1964 -2.5094 -0.5986
  164OSM   H15G18538   5.950   2.181   5.333  0.5340 -2.4370 -1.9855
  164OSM   C16F18539   5.914   2.184   5.545 -0.0376 -0.4090  0.7496
  164OSM   H16F18540   6.017   2.157   5.576  0.2259 -0.5663 -0.2332
  164OSM   H16G18541   5.843   2.139   5.617 -1.8495  2.0113  0.6126
  164OSM   C17F18542   5.887   2.333   5.536  0.2375  0.3194 -0.3680
  164OSM   H17F18543   5.794   2.376   5.493  1.2870  2.5596 -0.5352
  164OSM   H17G18544   5.970   2.376   5.476  1.7785 -0.0394  1.4002
  164OSM   C18F18545   5.907   2.395   5.669  0.2261  0.1397  0.2655
  164OSM   H18F18546   5.836   2.349   5.741  1.6958 -2.6840  0.0155
  164OSM   H18G18547   5.885   2.504   5.672 -0.1374  0.1446 -1.4154
  164OSM   H18H18548   6.008   2.366   5.705 -0.0709  0.4582  1.4186
  165SAPS     N18549   5.564   5.203   7.737 -0.0751 -0.1187 -0.2110
  165SAPS   HN118550   5.589   5.193   7.838 -0.5530 -1.3807 -0.1948
  165SAPS   HN218551   5.569   5.110   7.691  0.8023  0.8312 -2.1447
  165SAPS   HN318552   5.644   5.255   7.696  0.0095 -0.8533 -1.0153
  165SAPS   C1218553   5.439   5.286   7.708 -0.4256  0.7058 -0.5253
  165SAPS  H12A18554   5.363   5.228   7.758  0.0820  2.3329  2.3394
  165SAPS   C1318555   5.439   5.428   7.757  0.2247  0.1892  0.2235
  165SAPS  O13A18556   5.535   5.488   7.811  0.2180 -0.0873  0.0535
  165SAPS  O13B18557   5.325   5.484   7.760 -0.0175  0.0081 -0.1523
  165SAPS   C1118558   5.409   5.287   7.555 -0.2132 -0.2388 -0.5512
  165SAPS  H11A18559   5.498   5.339   7.513  1.2255 -1.7245  0.5353
  165SAPS  H11B18560   5.328   5.361   7.534 -2.4554 -2.3012  0.3711
  165SAPS     P18561   5.259   5.133   7.407  0.2477  0.2807  0.1351
  165SAPS   O1318562   5.233   4.986   7.407 -0.0105 -0.4417 -0.2892
  165SAPS   O1418563   5.150   5.223   7.445 -0.3188 -0.4705 -0.2048
  165SAPS   O1218564   5.391   5.165   7.498  0.1641 -0.1667  1.1270
  165SAPS   O1118565   5.314   5.173   7.269 -0.0377 -0.0319 -0.2670
  165SAPS    C118566   5.410   5.085   7.207 -0.4842  0.1450 -0.4589
  165SAPS    HA18567   5.511   5.129   7.193 -0.2779 -0.5842 -1.3769
  165SAPS    HB18568   5.422   4.987   7.259 -1.0405 -0.9317 -2.2902
  165SAPS    C218569   5.358   5.044   7.067 -0.6493 -0.1108  0.0114
  165SAPS    HS18570   5.424   4.969   7.018  2.3705  2.3476  0.0047
  165SAPS   O2118571   5.348   5.149   6.974  0.1112  0.1945 -0.2810
  165SAPS   C2118572   5.457   5.211   6.954  0.2206 -0.2061  1.1951
  165SAPS   O2218573   5.571   5.168   6.979 -0.4121 -0.7093 -0.5557
  165SAPS   C2218574   5.424   5.339   6.875  0.0118 -0.0792 -0.0014
  165SAPS   H2R18575   5.407   5.414   6.955  1.5809  0.8096 -0.4635
  165SAPS   H2S18576   5.518   5.369   6.826 -0.1202  0.4438  0.0593
  165SAPS    C318577   5.224   4.969   7.060 -0.3686 -0.6776  1.2136
  165SAPS    HX18578   5.144   5.035   7.101 -2.6672  0.1821 -3.8072
  165SAPS    HY18579   5.232   4.888   7.135 -1.3741 -0.7468  1.2720
  165SAPS   O3118580   5.201   4.922   6.926  0.7476  0.0148 -0.1959
  165SAPS   C3118581   5.110   4.990   6.849 -0.7876  0.2305 -1.1837
  165SAPS   O3218582   5.051   5.093   6.882 -0.1965  0.2468  0.0623
  165SAPS   C3218583   5.078   4.918   6.721  0.4224 -0.5808 -0.4632
  165SAPS   H2X18584   5.070   4.809   6.744 -3.9924 -1.1792 -3.6933
  165SAPS   H2Y18585   5.166   4.939   6.656  0.4143 -2.7308 -1.2389
  165SAPS   C2318586   5.307   5.336   6.772  1.0711  0.1377 -0.2966
  165SAPS   H3R18587   5.218   5.292   6.823  1.4308 -0.4551 -0.1769
  165SAPS   H3S18588   5.339   5.271   6.688  0.3107 -0.2173 -0.3189
  165SAPS   C2418589   5.261   5.471   6.726 -1.3276 -0.3092  0.2072
  165SAPS   H4R18590   5.224   5.522   6.817 -1.2832 -1.6322  0.9983
  165SAPS   H4S18591   5.171   5.459   6.662 -2.6079  0.0235  1.8589
  165SAPS   C2518592   5.373   5.546   6.661  0.0015  0.1516  0.2057
  165SAPS   H5R18593   5.457   5.562   6.731  0.4589 -0.1021 -0.2769
  165SAPS   C2618594   5.393   5.597   6.538  1.0405 -0.1028  0.2027
  165SAPS   H6R18595   5.485   5.649   6.508  0.6860 -0.2427 -1.2124
  165SAPS   C2718596   5.276   5.600   6.438  0.5554 -0.4098 -0.0585
  165SAPS   H7R18597   5.186   5.553   6.483  0.6519 -0.1175  0.4524
  165SAPS   H7S18598   5.293   5.532   6.352 -0.8265 -1.2185  0.2682
  165SAPS   C2818599   5.239   5.740   6.399 -0.5460  0.1819 -0.2722
  165SAPS   H8R18600   5.237   5.817   6.477  0.9566  0.5227 -0.5476
  165SAPS   C2918601   5.206   5.781   6.273 -0.6127  0.8913  0.3914
  165SAPS   H9R18602   5.198   5.889   6.257 -3.3666  0.7202  0.3054
  165SAPS  C21018603   5.217   5.704   6.145  0.3654 -0.5527  0.0967
  165SAPS  H10R18604   5.255   5.602   6.165  1.3332 -0.2310 -0.0804
  165SAPS  H10S18605   5.296   5.752   6.084  0.8856  0.4607  1.5313
  165SAPS  C21118606   5.082   5.714   6.075 -0.1114  0.1144  0.4782
  165SAPS  H11R18607   4.991   5.726   6.136 -1.5804  1.4765 -1.8185
  165SAPS  C21218608   5.058   5.726   5.947 -0.1634 -0.9716 -0.0764
  165SAPS  H12R18609   4.953   5.736   5.916 -0.5547 -0.4055  1.3540
  165SAPS  C21318610   5.164   5.731   5.841 -0.0716 -0.1503 -0.2029
  165SAPS  H13R18611   5.261   5.686   5.870 -1.0696 -1.9790  0.4572
  165SAPS  H13S18612   5.187   5.839   5.825  0.7008 -0.2591  0.1545
  165SAPS  C21418613   5.109   5.659   5.724  0.4945 -0.0680 -0.2806
  165SAPS  H14R18614   5.112   5.549   5.728  2.4892 -0.0525 -0.3273
  165SAPS  C21518615   5.053   5.705   5.621 -0.0244 -0.7370 -0.5001
  165SAPS  H15R18616   5.016   5.633   5.546  0.5647 -0.8968 -0.6399
  165SAPS  C21618617   5.023   5.853   5.593  0.0823 -0.3272 -0.2632
  165SAPS  H16R18618   5.086   5.867   5.502  0.4617  0.4140  0.1059
  165SAPS  H16S18619   5.055   5.925   5.671  3.8309 -1.1553 -0.8513
  165SAPS  C21718620   4.871   5.883   5.582 -0.0909  0.0636 -0.3061
  165SAPS  H17R18621   4.832   5.872   5.686  0.2207 -0.7324 -0.2662
  165SAPS  H17S18622   4.809   5.812   5.523  1.5208 -2.6880  1.0678
  165SAPS  C21818623   4.852   6.031   5.542  0.3173  0.9620  0.0414
  165SAPS  H18R18624   4.880   6.043   5.435 -0.0428  0.1760 -0.1482
  165SAPS  H18S18625   4.910   6.091   5.615 -0.6085  0.8350  0.9175
  165SAPS  C21918626   4.701   6.064   5.540  0.2818  0.9856 -0.2352
  165SAPS  H19R18627   4.645   6.032   5.631  1.4428  0.8037  0.4429
  165SAPS  H19S18628   4.657   5.998   5.463  0.8899 -0.2947  0.4841
  165SAPS  C22018629   4.675   6.210   5.520 -0.2296  0.2072  0.6913
  165SAPS  H20R18630   4.570   6.239   5.499  0.7951  1.1803 -4.9832
  165SAPS  H20S18631   4.735   6.236   5.430 -1.9709  1.0757 -0.2592
  165SAPS  H20T18632   4.712   6.270   5.605 -0.5616 -0.3666  1.2485
  165SAPS   C3318633   4.941   4.958   6.668  0.4340 -0.8244  0.6061
  165SAPS   H3X18634   4.925   5.066   6.688 -0.1311 -0.4574 -1.5650
  165SAPS   H3Y18635   4.864   4.896   6.720 -1.3547  0.1632 -0.7595
  165SAPS   C3418636   4.943   4.954   6.510  0.2854 -0.7410 -0.5533
  165SAPS   H4X18637   4.838   4.959   6.472 -0.7439 -1.4996  1.9995
  165SAPS   H4Y18638   4.979   4.855   6.474  0.8112 -0.5110 -0.6680
  165SAPS   C3518639   5.036   5.055   6.445 -0.2799  0.4494 -0.4983
  165SAPS   H5X18640   5.141   5.075   6.474 -0.0407  0.5399 -1.4004
  165SAPS   H5Y18641   4.993   5.151   6.480  1.0037  1.2215 -0.9734
  165SAPS   C3618642   5.042   5.049   6.295  0.4552  0.2152 -0.1064
  165SAPS   H6X18643   5.098   5.139   6.262 -2.3426  1.8403 -0.7037
  165SAPS   H6Y18644   4.936   5.069   6.268  1.0714  0.0545 -3.0194
  165SAPS   C3718645   5.085   4.922   6.225  0.8969 -0.2100 -0.2282
  165SAPS   H7X18646   5.017   4.843   6.265  0.7612 -0.7743 -1.5109
  165SAPS   H7Y18647   5.186   4.895   6.261  0.8520  0.7392  0.6362
  165SAPS   C3818648   5.075   4.926   6.072  0.6871  0.1982 -0.6487
  165SAPS   H8X18649   5.084   5.030   6.034 -2.2855  0.1619 -1.6668
  165SAPS   H8Y18650   4.971   4.895   6.048  0.5353 -0.0323  0.2788
  165SAPS   C3918651   5.169   4.830   5.996  0.7911  0.5728 -0.0231
  165SAPS   H9X18652   5.147   4.726   6.026 -1.5237  0.8186 -0.6718
  165SAPS   H9Y18653   5.273   4.846   6.032  1.8004  0.1948 -2.5532
  165SAPS  C31018654   5.163   4.817   5.846 -0.1811 -0.2477 -0.2114
  165SAPS  H10X18655   5.064   4.774   5.820 -0.2431  0.3809 -1.0647
  165SAPS  H10Y18656   5.252   4.764   5.806 -0.4938 -0.0842 -1.1431
  165SAPS  C31118657   5.181   4.948   5.767 -0.0294 -0.3459 -0.6881
  165SAPS  H11X18658   5.288   4.975   5.765 -0.1865  0.7066  1.7028
  165SAPS  H11Y18659   5.129   5.036   5.812  2.5999  0.5790  0.7283
  165SAPS  C31218660   5.119   4.941   5.627 -0.7365 -0.8288 -0.3088
  165SAPS  H12X18661   5.136   5.045   5.591  0.8786 -1.3200 -1.0659
  165SAPS  H12Y18662   5.009   4.927   5.639 -0.3800 -1.5333  3.5312
  165SAPS  C31318663   5.185   4.836   5.537  0.0958  0.1382 -0.4997
  165SAPS  H13X18664   5.120   4.836   5.447 -3.2371 -1.3138  1.7022
  165SAPS  H13Y18665   5.162   4.741   5.589 -1.8839  0.1240 -1.3358
  165SAPS  C31418666   5.333   4.854   5.513 -0.5646 -0.3014 -0.5105
  165SAPS  H14X18667   5.392   4.796   5.586  2.6087  2.9531 -0.2200
  165SAPS  H14Y18668   5.361   4.962   5.517 -2.0695  0.1010  0.2540
  165SAPS  C31518669   5.368   4.798   5.379  0.4052 -0.9768 -0.7714
  165SAPS  H15X18670   5.302   4.709   5.368  0.3378 -0.9297 -0.7449
  165SAPS  H15Y18671   5.473   4.765   5.393 -0.0959 -1.7528  1.5761
  165SAPS  C31618672   5.340   4.895   5.268 -0.3992 -0.1835  0.3750
  165SAPS  H16X18673   5.364   5.000   5.294 -0.6015  0.2624 -1.1764
  165SAPS  H16Y18674   5.231   4.900   5.250 -0.0955  1.1386 -1.2782
  165SAPS  C31718675   5.403   4.855   5.130  0.1373  0.2948 -0.3531
  165SAPS  H17X18676   5.384   4.747   5.114 -0.4674  0.2575  0.5481
  165SAPS  H17Y18677   5.511   4.874   5.112 -0.0446  0.4647 -1.3711
  165SAPS  C31818678   5.329   4.921   5.009  0.2395  0.8752 -0.0368
  165SAPS  H18X18679   5.221   4.896   5.016  0.3649  0.0557 -0.9438
  165SAPS  H18Y18680   5.356   4.898   4.904  0.3097 -3.2843  0.7344
  165SAPS  H18Z18681   5.337   5.030   5.029 -0.6644  0.5468  2.6135
  166SAPS     N18682   4.169   2.165   7.928 -0.3757  0.6572  0.2178
  166SAPS   HN118683   4.164   2.110   8.016  0.6309 -0.0615 -0.1661
  166SAPS   HN218684   4.115   2.105   7.862 -0.1695  0.5793  0.1214
  166SAPS   HN318685   4.265   2.174   7.889 -1.5312  0.5340 -2.9892
  166SAPS   C1218686   4.123   2.302   7.954 -0.6735 -0.0600 -0.0602
  166SAPS  H12A18687   4.026   2.301   8.002  0.0578  1.6014  1.6058
  166SAPS   C1318688   4.227   2.362   8.062  0.2427  0.2241 -0.2051
  166SAPS  O13A18689   4.286   2.276   8.131 -0.4430 -0.1508 -0.1064
  166SAPS  O13B18690   4.202   2.471   8.114 -0.3212  0.0331  0.2214
  166SAPS   C1118691   4.113   2.377   7.818  0.0556 -0.1389 -0.1810
  166SAPS  H11A18692   4.187   2.349   7.739  2.5172  1.7022  1.3342
  166SAPS  H11B18693   4.140   2.484   7.836 -3.2326  0.7530  0.0873
  166SAPS     P18694   3.889   2.498   7.758  0.2833  0.0283  0.1670
  166SAPS   O1318695   3.861   2.544   7.894 -0.1251 -0.0474 -0.6119
  166SAPS   O1418696   3.958   2.591   7.666 -0.0968  0.0604  0.1290
  166SAPS   O1218697   3.985   2.369   7.770 -0.2063  0.2454  0.0494
  166SAPS   O1118698   3.756   2.443   7.701 -0.0102  0.4225 -0.0980
  166SAPS    C118699   3.739   2.416   7.567  0.1272  0.6264  0.9202
  166SAPS    HA18700   3.818   2.463   7.504 -0.9186  1.6649  0.3608
  166SAPS    HB18701   3.738   2.306   7.552 -0.9066  0.6001  1.1119
  166SAPS    C218702   3.600   2.473   7.540 -0.7869 -1.1325  0.0830
  166SAPS    HS18703   3.533   2.460   7.628  1.0235  0.5093  1.7781
  166SAPS   O2118704   3.555   2.388   7.437 -0.6121  0.0194  0.1656
  166SAPS   C2118705   3.419   2.389   7.422  0.0699  0.5352 -0.1854
  166SAPS   O2218706   3.349   2.449   7.500 -0.0370  0.4000 -0.0675
  166SAPS   C2218707   3.374   2.273   7.322 -0.1698  0.7239  0.4104
  166SAPS   H2R18708   3.456   2.247   7.251 -1.4843  1.1616 -1.3430
  166SAPS   H2S18709   3.351   2.179   7.376  0.2311  0.6527  0.4652
  166SAPS    C318710   3.608   2.622   7.499 -0.0656 -0.4722  0.4076
  166SAPS    HX18711   3.660   2.665   7.587  1.3043 -0.5104 -0.3574
  166SAPS    HY18712   3.502   2.651   7.482 -0.3787 -0.2500  2.4593
  166SAPS   O3118713   3.697   2.653   7.382  0.4298  0.5661 -0.0061
  166SAPS   C3118714   3.629   2.684   7.274 -0.7034 -0.3267  0.4815
  166SAPS   O3218715   3.509   2.660   7.252  0.4888 -0.0981  0.3186
  166SAPS   C3218716   3.723   2.728   7.168 -0.4230 -0.2450 -0.2396
  166SAPS   H2X18717   3.781   2.640   7.134 -1.1198  0.0021 -2.2211
  166SAPS   H2Y18718   3.788   2.808   7.210 -1.1809 -0.6047  1.6967
  166SAPS   C2318719   3.244   2.294   7.232  0.3645  0.0251  0.1584
  166SAPS   H3R18720   3.156   2.303   7.298  0.3540  0.1131  0.1326
  166SAPS   H3S18721   3.220   2.197   7.183  1.1793  0.0038 -0.2211
  166SAPS   C2418722   3.250   2.420   7.145  0.3768  0.0861  0.5919
  166SAPS   H4R18723   3.275   2.506   7.209 -3.4608  2.9134 -1.3275
  166SAPS   H4S18724   3.145   2.442   7.117 -0.5454 -2.6473  1.5972
  166SAPS   C2518725   3.351   2.408   7.026 -0.4948  0.2236 -0.0596
  166SAPS   H5R18726   3.448   2.458   7.039  0.0306 -0.6189 -0.6072
  166SAPS   C2618727   3.335   2.326   6.917 -0.0950 -0.0339 -0.0251
  166SAPS   H6R18728   3.409   2.337   6.837 -1.5304 -0.8031 -1.5442
  166SAPS   C2718729   3.203   2.246   6.895  0.3577  0.2530 -0.5092
  166SAPS   H7R18730   3.129   2.329   6.884  0.6584  0.3840 -1.6115
  166SAPS   H7S18731   3.183   2.187   6.987 -1.4397 -0.2150 -1.1514
  166SAPS   C2818732   3.190   2.163   6.772 -0.1507  0.6869  0.5271
  166SAPS   H8R18733   3.184   2.053   6.773 -0.5763  0.7042  2.1379
  166SAPS   C2918734   3.207   2.207   6.643 -0.8520 -0.5915  0.0425
  166SAPS   H9R18735   3.202   2.133   6.562 -1.2392 -2.0384  1.3300
  166SAPS  C21018736   3.229   2.352   6.598 -0.2694 -0.5980  0.4114
  166SAPS  H10R18737   3.298   2.354   6.511 -0.1456  2.0548  0.4885
  166SAPS  H10S18738   3.302   2.406   6.662  1.3963 -1.5137 -0.6344
  166SAPS  C21118739   3.099   2.427   6.573  0.1807 -0.3720 -0.8698
  166SAPS  H11R18740   3.060   2.465   6.669 -0.1462  1.4958 -1.6951
  166SAPS  C21218741   3.036   2.450   6.456 -0.5318  0.2959 -0.6601
  166SAPS  H12R18742   2.942   2.506   6.445  1.0280  3.0785 -0.8069
  166SAPS  C21318743   3.096   2.406   6.321 -0.0842  0.2461 -0.0242
  166SAPS  H13R18744   3.195   2.356   6.318 -0.5540 -0.7043 -0.0503
  166SAPS  H13S18745   3.106   2.497   6.258  2.2723  1.6542  2.1632
  166SAPS  C21418746   2.990   2.317   6.257 -0.1265  0.3689 -0.5319
  166SAPS  H14R18747   2.979   2.222   6.313  1.0424  0.4835 -0.0729
  166SAPS  C21518748   2.907   2.335   6.153  0.6591 -0.3240  0.2902
  166SAPS  H15R18749   2.842   2.252   6.123  0.2380 -1.2336  3.3609
  166SAPS  C21618750   2.922   2.456   6.066  0.7795  0.1742 -0.2371
  166SAPS  H16R18751   3.025   2.499   6.068 -0.4696  3.5968 -1.1462
  166SAPS  H16S18752   2.848   2.527   6.109  0.3674 -1.1272  1.2838
  166SAPS  C21718753   2.870   2.435   5.923  0.0612 -0.1504 -0.4891
  166SAPS  H17R18754   2.848   2.535   5.880  0.2572  0.6943  1.2670
  166SAPS  H17S18755   2.780   2.370   5.922  1.0458 -1.6349  1.0019
  166SAPS  C21818756   2.966   2.355   5.831  0.1154 -0.3932 -0.3051
  166SAPS  H18R18757   2.992   2.266   5.893  0.8093 -0.0552 -0.1000
  166SAPS  H18S18758   3.055   2.420   5.816  0.2653 -0.6195 -0.4060
  166SAPS  C21918759   2.919   2.312   5.688  0.8177  0.3244  0.6218
  166SAPS  H19R18760   2.912   2.400   5.621  0.4078  0.0276  0.2703
  166SAPS  H19S18761   2.811   2.287   5.696  0.5731  0.4370 -1.7436
  166SAPS  C22018762   2.994   2.187   5.629 -0.8340 -0.3538 -0.3679
  166SAPS  H20R18763   2.985   2.094   5.689  1.8745 -1.1215 -1.0495
  166SAPS  H20S18764   3.101   2.212   5.619 -0.7135 -1.1199 -1.0661
  166SAPS  H20T18765   2.956   2.161   5.528 -2.4174 -1.4076  0.4576
  166SAPS   C3318766   3.658   2.791   7.042 -0.1858  0.5865  0.4719
  166SAPS   H3X18767   3.606   2.883   7.075 -2.4463 -0.4193 -0.1558
  166SAPS   H3Y18768   3.596   2.708   7.004  1.2511  0.3610 -1.5442
  166SAPS   C3418769   3.759   2.840   6.938  0.1966 -0.1631 -0.0768
  166SAPS   H4X18770   3.807   2.758   6.880 -2.3659 -1.8253 -0.0044
  166SAPS   H4Y18771   3.841   2.898   6.986 -0.0699 -0.5240  0.8413
  166SAPS   C3518772   3.690   2.938   6.835 -0.3933  0.8075  0.1973
  166SAPS   H5X18773   3.662   3.032   6.888 -0.5286 -0.0474  1.6884
  166SAPS   H5Y18774   3.604   2.878   6.797  0.5477 -0.5167  0.1048
  166SAPS   C3618775   3.790   2.964   6.726  0.3394 -0.1126 -0.0928
  166SAPS   H6X18776   3.837   2.872   6.685 -0.1341 -0.1245 -0.6263
  166SAPS   H6Y18777   3.871   3.030   6.763  1.4869 -1.0269 -0.8980
  166SAPS   C3718778   3.721   3.042   6.611  0.1852  0.3933 -0.2682
  166SAPS   H7X18779   3.805   3.080   6.550  0.1947  0.2995 -0.3141
  166SAPS   H7Y18780   3.665   3.122   6.663 -1.5967 -0.5099 -0.6973
  166SAPS   C3818781   3.616   2.973   6.512 -0.7122 -0.4434  1.0669
  166SAPS   H8X18782   3.525   2.959   6.575 -0.1700 -0.5808  1.8295
  166SAPS   H8Y18783   3.660   2.880   6.472  0.3927 -0.5809  2.4917
  166SAPS   C3918784   3.587   3.072   6.399  0.0276 -0.2205  0.2823
  166SAPS   H9X18785   3.687   3.090   6.354  0.8413  1.6690  2.6304
  166SAPS   H9Y18786   3.559   3.176   6.426 -2.2770 -1.0436  1.3828
  166SAPS  C31018787   3.490   3.002   6.306  0.3529 -0.3252  0.1382
  166SAPS  H10X18788   3.387   3.015   6.347  1.0710 -0.0638  1.9814
  166SAPS  H10Y18789   3.514   2.894   6.299 -0.1806 -0.6453  2.3926
  166SAPS  C31118790   3.488   3.075   6.169  0.1031  0.5519  0.7137
  166SAPS  H11X18791   3.595   3.076   6.138 -0.0693  1.5327  0.0981
  166SAPS  H11Y18792   3.457   3.180   6.183  1.9180  1.0979  0.8866
  166SAPS  C31218793   3.395   3.023   6.055  1.1653  0.4423 -0.1001
  166SAPS  H12X18794   3.287   3.043   6.070  0.7522 -0.0186 -2.2407
  166SAPS  H12Y18795   3.401   2.913   6.050 -0.6843  0.3637 -1.3558
  166SAPS  C31318796   3.442   3.096   5.928  0.4172  0.1622 -0.9690
  166SAPS  H13X18797   3.547   3.068   5.908 -0.0443 -2.6658  0.1842
  166SAPS  H13Y18798   3.415   3.204   5.932 -0.7941 -0.1404 -0.6709
  166SAPS  C31418799   3.360   3.056   5.800  0.4232 -0.0305  0.3746
  166SAPS  H14X18800   3.251   3.079   5.805  0.2270 -0.9419  0.4394
  166SAPS  H14Y18801   3.372   2.947   5.781  0.9126 -0.4082  2.5689
  166SAPS  C31518802   3.437   3.129   5.683  0.0718 -0.3040  0.4862
  166SAPS  H15X18803   3.543   3.095   5.678  0.8313  1.6203  2.0349
  166SAPS  H15Y18804   3.436   3.237   5.709 -1.0490  0.6924 -3.0920
  166SAPS  C31618805   3.371   3.103   5.546  0.5649 -0.2251  0.1420
  166SAPS  H16X18806   3.263   3.127   5.552  0.7660  0.5362  0.9411
  166SAPS  H16Y18807   3.391   2.998   5.515 -1.2687 -0.1490 -1.4829
  166SAPS  C31718808   3.420   3.196   5.432 -0.4946  0.3510 -0.6736
  166SAPS  H17X18809   3.415   3.138   5.338 -0.0214 -1.0581  0.1479
  166SAPS  H17Y18810   3.528   3.222   5.440 -0.2563 -0.9882  1.0236
  166SAPS  C31818811   3.334   3.322   5.415  0.3222 -0.0682 -0.2433
  166SAPS  H18X18812   3.356   3.376   5.320  1.0811 -1.7210 -1.0424
  166SAPS  H18Y18813   3.344   3.389   5.503  1.2348 -0.4892 -0.0192
  166SAPS  H18Z18814   3.226   3.295   5.405  0.5839 -0.4799 -2.3921
  167SAPS     N18815   5.510   4.738   7.872  0.9881 -0.4358  0.0313
  167SAPS   HN118816   5.456   4.808   7.927  1.4944  0.2176 -0.2829
  167SAPS   HN218817   5.606   4.776   7.862  0.1783  1.7228 -0.2173
  167SAPS   HN318818   5.459   4.730   7.782 -2.1097 -0.4893  1.6492
  167SAPS   C1218819   5.516   4.613   7.946  0.6392  0.0100 -0.3375
  167SAPS  H12A18820   5.552   4.541   7.874 -0.1801 -1.5912  0.8049
  167SAPS   C1318821   5.617   4.630   8.072 -0.0682  0.3999  0.3880
  167SAPS  O13A18822   5.629   4.743   8.122 -0.1001 -0.4238  0.2602
  167SAPS  O13B18823   5.619   4.525   8.146 -0.5132 -0.0862  0.2585
  167SAPS   C1118824   5.377   4.569   7.997 -0.3905  0.3685 -0.3050
  167SAPS  H11A18825   5.341   4.633   8.081  1.2167  0.6445  0.2067
  167SAPS  H11B18826   5.377   4.460   8.015  1.1924  0.6735  2.1064
  167SAPS     P18827   5.138   4.524   7.902  0.1558  0.0205  0.3782
  167SAPS   O1318828   5.094   4.505   8.043 -0.1279 -0.2514  0.5897
  167SAPS   O1418829   5.046   4.597   7.817 -0.4007  0.3452 -0.4257
  167SAPS   O1218830   5.282   4.587   7.892  0.2451  0.1207  0.3418
  167SAPS   O1118831   5.152   4.380   7.849  0.3082  0.4383 -0.8089
  167SAPS    C118832   5.247   4.353   7.743 -0.0363 -0.5238 -0.1470
  167SAPS    HA18833   5.313   4.440   7.724 -1.5202  1.1828  1.9913
  167SAPS    HB18834   5.319   4.272   7.770  0.8606  0.8676  1.9289
  167SAPS    C218835   5.175   4.305   7.617 -0.3522  0.5348  0.1313
  167SAPS    HS18836   5.244   4.270   7.537 -1.9184 -0.0224 -1.0208
  167SAPS   O2118837   5.101   4.415   7.570  0.0383 -0.0145 -0.2693
  167SAPS   C2118838   5.178   4.494   7.493 -0.5318  0.2578 -0.3712
  167SAPS   O2218839   5.294   4.476   7.463 -0.0910  0.2171  0.4707
  167SAPS   C2218840   5.091   4.603   7.446  0.4109 -0.4461  0.3562
  167SAPS   H2R18841   5.044   4.654   7.533 -2.2014 -2.1575  0.0555
  167SAPS   H2S18842   5.142   4.687   7.395 -2.2746  1.2372  0.2270
  167SAPS    C318843   5.083   4.179   7.644  0.2525 -0.4325  0.2442
  167SAPS    HX18844   4.998   4.208   7.709 -0.2540 -2.3026  0.4869
  167SAPS    HY18845   5.136   4.107   7.709  0.0772  0.3804  1.3102
  167SAPS   O3118846   5.051   4.113   7.521 -0.0624 -0.3000  0.1830
  167SAPS   C3118847   4.930   4.137   7.459 -0.1468  0.0365 -0.2848
  167SAPS   O3218848   4.843   4.200   7.512  0.6785  0.6606 -0.2540
  167SAPS   C3218849   4.942   4.086   7.320 -0.2779 -0.2901 -0.0590
  167SAPS   H2X18850   4.938   3.976   7.327 -0.8556 -0.2171  0.8602
  167SAPS   H2Y18851   5.033   4.138   7.281 -0.7234  1.8087  1.4891
  167SAPS   C2318852   4.977   4.550   7.355  0.5383 -0.1841 -0.0307
  167SAPS   H3R18853   4.908   4.629   7.320  0.8347  0.1877  0.2213
  167SAPS   H3S18854   4.924   4.466   7.404 -0.7828 -0.6263 -2.0859
  167SAPS   C2418855   5.023   4.490   7.217 -0.1479 -0.2935 -0.3475
  167SAPS   H4R18856   4.934   4.467   7.155  0.4134 -0.5889 -1.0543
  167SAPS   H4S18857   5.078   4.395   7.231 -0.5436 -0.3279  1.1840
  167SAPS   C2518858   5.110   4.588   7.148 -0.5742 -0.2289 -0.9187
  167SAPS   H5R18859   5.078   4.693   7.152  3.5219  1.1759  3.5053
  167SAPS   C2618860   5.228   4.566   7.092 -0.0230  0.2944  0.1053
  167SAPS   H6R18861   5.259   4.657   7.039 -0.2958  0.3576  0.0562
  167SAPS   C2718862   5.306   4.446   7.062 -0.1569 -0.1519 -0.4015
  167SAPS   H7R18863   5.379   4.474   6.983  0.8109  2.3607  1.2702
  167SAPS   H7S18864   5.240   4.367   7.019  0.3766 -0.6020 -0.4106
  167SAPS   C2818865   5.383   4.389   7.177 -0.4108 -0.8376 -0.6332
  167SAPS   H8R18866   5.406   4.470   7.249 -0.3500 -1.3617 -0.0577
  167SAPS   C2918867   5.431   4.266   7.189 -0.5500  0.0901  0.4189
  167SAPS   H9R18868   5.475   4.246   7.288 -1.0462 -0.4483  0.5385
  167SAPS  C21018869   5.403   4.149   7.094  0.7080  0.3757  0.0681
  167SAPS  H10R18870   5.346   4.193   7.008  1.4533 -1.3117 -1.3490
  167SAPS  H10S18871   5.330   4.079   7.141  0.1326  0.7488 -0.2461
  167SAPS  C21118872   5.526   4.072   7.051 -0.6819  0.5241  0.5013
  167SAPS  H11R18873   5.553   3.977   7.099 -3.4820 -0.1841  0.8567
  167SAPS  C21218874   5.612   4.106   6.949 -0.3458  0.1804 -0.7425
  167SAPS  H12R18875   5.697   4.042   6.922 -1.6996 -0.7930 -2.9726
  167SAPS  C21318876   5.584   4.231   6.874  0.0150  0.2917 -0.2571
  167SAPS  H13R18877   5.684   4.265   6.839  0.5626 -0.6587  0.3100
  167SAPS  H13S18878   5.541   4.315   6.932 -1.5944 -0.4689 -0.3111
  167SAPS  C21418879   5.494   4.194   6.760 -0.4702  0.1582 -0.3990
  167SAPS  H14R18880   5.433   4.103   6.767  0.6235 -0.6201 -0.8242
  167SAPS  C21518881   5.499   4.268   6.648  0.5239  0.2354 -0.3169
  167SAPS  H15R18882   5.424   4.251   6.569  1.1823  1.7485 -1.2933
  167SAPS  C21618883   5.572   4.393   6.623  0.0019 -0.4086 -0.5804
  167SAPS  H16R18884   5.666   4.384   6.564  0.4613 -0.8669  0.2097
  167SAPS  H16S18885   5.610   4.430   6.720  0.0184 -2.1703  0.1298
  167SAPS  C21718886   5.475   4.489   6.549  0.0818 -0.3010  0.2028
  167SAPS  H17R18887   5.431   4.435   6.462  0.8694 -0.9337  0.1852
  167SAPS  H17S18888   5.533   4.569   6.499  0.9227 -0.0015  1.6353
  167SAPS  C21818889   5.380   4.562   6.642 -0.2090 -0.4132 -0.2061
  167SAPS  H18R18890   5.451   4.617   6.707 -0.7415 -1.4290  1.2796
  167SAPS  H18S18891   5.334   4.478   6.697  0.3241 -2.6668 -2.9921
  167SAPS  C21918892   5.276   4.658   6.573  0.1944  0.1894  0.3423
  167SAPS  H19R18893   5.327   4.750   6.535 -0.2747  0.2686 -0.1167
  167SAPS  H19S18894   5.193   4.679   6.645  1.1569  1.4833  1.1203
  167SAPS  C22018895   5.214   4.593   6.454  0.9374  0.7422  0.4408
  167SAPS  H20R18896   5.169   4.496   6.483 -0.3651  1.4885  1.0207
  167SAPS  H20S18897   5.289   4.582   6.373  1.8089  0.3146  1.2785
  167SAPS  H20T18898   5.126   4.650   6.416  0.9648 -0.2871 -1.2426
  167SAPS   C3318899   4.808   4.133   7.253 -0.4852 -0.3882  0.1859
  167SAPS   H3X18900   4.799   4.244   7.258  1.1399 -0.2637  1.5620
  167SAPS   H3Y18901   4.724   4.090   7.311  0.4385  0.0826  1.9441
  167SAPS   C3418902   4.800   4.093   7.100  0.0667  0.3967 -0.9082
  167SAPS   H4X18903   4.698   4.116   7.063  0.0766  2.2360  0.1036
  167SAPS   H4Y18904   4.811   3.983   7.086  2.8894  0.5621 -0.5436
  167SAPS   C3518905   4.919   4.159   7.025  0.0639  0.2440 -0.1308
  167SAPS   H5X18906   5.022   4.132   7.054 -0.4035  1.3272  2.8788
  167SAPS   H5Y18907   4.912   4.267   7.049  0.9655  0.1544  0.5894
  167SAPS   C3618908   4.888   4.135   6.877 -0.1414 -0.5432 -0.3014
  167SAPS   H6X18909   4.792   4.191   6.870  1.5788  2.8384  0.7555
  167SAPS   H6Y18910   4.855   4.031   6.856  0.5290 -1.5974  3.2851
  167SAPS   C3718911   4.985   4.201   6.780 -0.6081 -0.5624 -0.0829
  167SAPS   H7X18912   5.088   4.161   6.780  0.6103  2.3112  0.1689
  167SAPS   H7Y18913   5.011   4.305   6.808  1.6015 -0.6535 -1.5437
  167SAPS   C3818914   4.937   4.192   6.639 -0.1581  0.3190 -0.1904
  167SAPS   H8X18915   4.846   4.256   6.632 -3.2827 -3.4652  1.5955
  167SAPS   H8Y18916   4.901   4.087   6.637  2.6785 -0.7158 -1.1994
  167SAPS   C3918917   5.038   4.216   6.533 -0.1575 -0.2293  0.0457
  167SAPS   H9X18918   5.125   4.148   6.542  0.9058  0.8188 -1.8577
  167SAPS   H9Y18919   5.079   4.318   6.548 -2.9829  0.8203  1.2289
  167SAPS  C31018920   4.977   4.187   6.396 -0.2384  0.6841 -0.1034
  167SAPS  H10X18921   4.918   4.273   6.358  2.7242  2.0592 -2.0406
  167SAPS  H10Y18922   4.922   4.092   6.387 -0.5897  0.8237  0.5449
  167SAPS  C31118923   5.089   4.181   6.289  0.5204 -0.3959 -0.8605
  167SAPS  H11X18924   5.160   4.102   6.320 -0.7115 -0.7405  1.3217
  167SAPS  H11Y18925   5.145   4.277   6.293 -1.6947  0.9953 -1.3624
  167SAPS  C31218926   5.033   4.160   6.150  0.1815 -0.7848 -0.2512
  167SAPS  H12X18927   4.986   4.253   6.112  1.7088  0.4184  0.6974
  167SAPS  H12Y18928   4.966   4.071   6.142  0.3950 -0.8606 -1.3598
  167SAPS  C31318929   5.154   4.137   6.054 -0.4551  0.2245  0.0207
  167SAPS  H13X18930   5.217   4.064   6.109  1.0669  2.1324  0.9251
  167SAPS  H13Y18931   5.207   4.235   6.051 -2.6556  1.6097  2.2390
  167SAPS  C31418932   5.110   4.075   5.919 -0.2335 -0.1506 -0.2367
  167SAPS  H14X18933   5.025   4.137   5.883  0.8832  1.5624 -0.0221
  167SAPS  H14Y18934   5.077   3.975   5.955  2.4518 -0.6372  1.1500
  167SAPS  C31518935   5.222   4.080   5.823 -0.2923  0.2090  0.2428
  167SAPS  H15X18936   5.315   4.032   5.861  1.3378  1.1950 -2.2572
  167SAPS  H15Y18937   5.246   4.187   5.808 -0.2888  0.0166 -1.2974
  167SAPS  C31618938   5.187   4.020   5.685  0.1896 -0.8281 -0.3311
  167SAPS  H16X18939   5.100   4.075   5.642  1.3321 -1.1240 -3.2348
  167SAPS  H16Y18940   5.154   3.915   5.699  0.3692 -0.8903 -0.3684
  167SAPS  C31718941   5.308   4.036   5.586  0.1760 -0.4713 -0.1389
  167SAPS  H17X18942   5.391   3.966   5.608 -0.3538 -1.9681 -2.4573
  167SAPS  H17Y18943   5.353   4.136   5.603 -0.7482 -0.2606  1.1957
  167SAPS  C31818944   5.276   4.006   5.436  0.4938 -0.0741 -0.9321
  167SAPS  H18X18945   5.359   4.009   5.361 -0.3827  1.1427 -1.9055
  167SAPS  H18Y18946   5.188   4.070   5.410  1.7742  1.6819 -1.1662
  167SAPS  H18Z18947   5.238   3.902   5.438 -2.1330  0.8051  1.8108
  168SAPS     N18948   2.008   5.219   8.025 -0.4992 -0.4287 -0.1393
  168SAPS   HN118949   2.079   5.169   7.968  0.2389  0.7406 -0.2976
  168SAPS   HN218950   1.992   5.299   7.960  1.2150  0.7005  0.7435
  168SAPS   HN318951   2.060   5.261   8.105 -0.1062  0.8624 -1.0315
  168SAPS   C1218952   1.909   5.123   8.057 -0.4685  0.3184 -0.3104
  168SAPS  H12A18953   1.964   5.040   8.098 -1.0389  1.6441  3.6129
  168SAPS   C1318954   1.826   5.175   8.177  0.3744 -0.5718  0.3914
  168SAPS  O13A18955   1.830   5.298   8.204  0.1315 -0.0289  0.0955
  168SAPS  O13B18956   1.727   5.102   8.215 -0.2464 -0.9108 -0.0125
  168SAPS   C1118957   1.828   5.095   7.930  0.4787 -0.1040 -0.3832
  168SAPS  H11A18958   1.776   5.190   7.905 -0.8744 -0.7422 -0.0955
  168SAPS  H11B18959   1.748   5.020   7.952  0.5768  0.3168  1.6621
  168SAPS     P18960   1.939   4.904   7.787  0.5970 -0.2250 -0.0909
  168SAPS   O1318961   2.023   4.906   7.660 -0.0542  0.0577  0.0674
  168SAPS   O1418962   2.000   4.846   7.907 -0.1051 -0.0630  0.2280
  168SAPS   O1218963   1.909   5.059   7.821 -0.6023 -0.0515  0.6864
  168SAPS   O1118964   1.803   4.842   7.761 -0.4141 -0.0056  0.7746
  168SAPS    C118965   1.685   4.892   7.700 -0.5723 -0.1451  0.2518
  168SAPS    HA18966   1.602   4.841   7.751  0.6057 -1.4281  0.9428
  168SAPS    HB18967   1.678   5.003   7.696 -0.1103 -0.0707  1.1831
  168SAPS    C218968   1.673   4.837   7.557  0.0951  0.9146 -0.5938
  168SAPS    HS18969   1.679   4.727   7.550  1.1407  0.8133  1.1824
  168SAPS   O2118970   1.781   4.893   7.481  0.0019 -0.5073  0.2326
  168SAPS   C2118971   1.848   4.809   7.405 -0.6721 -0.4503 -0.0215
  168SAPS   O2218972   1.843   4.686   7.408  0.2298 -0.0535 -0.2922
  168SAPS   C2218973   1.936   4.893   7.309 -0.3070 -0.7826 -0.2983
  168SAPS   H2R18974   1.882   4.986   7.278 -1.3766 -0.4871  2.1830
  168SAPS   H2S18975   2.022   4.928   7.369 -0.4654  0.3611 -0.7150
  168SAPS    C318976   1.536   4.877   7.499 -0.0028 -0.4082  0.0174
  168SAPS    HX18977   1.538   4.988   7.503 -0.2016 -0.4029 -0.0019
  168SAPS    HY18978   1.456   4.842   7.568  1.0100 -0.8469  1.0017
  168SAPS   O3118979   1.521   4.833   7.363  0.3090  0.2918  0.2616
  168SAPS   C3118980   1.456   4.717   7.340  0.2091  0.2057  0.2544
  168SAPS   O3218981   1.398   4.649   7.424 -0.4380 -0.5811  0.2404
  168SAPS   C3218982   1.466   4.685   7.194 -0.1947  0.4231 -0.5017
  168SAPS   H2X18983   1.445   4.778   7.137  0.9515  2.2982  1.9394
  168SAPS   H2Y18984   1.380   4.619   7.173 -1.1128  0.4664  2.6513
  168SAPS   C2318985   1.981   4.800   7.193 -0.2647  0.3206 -0.1341
  168SAPS   H3R18986   1.996   4.853   7.097  0.9477 -0.3455 -0.3291
  168SAPS   H3S18987   1.906   4.720   7.174  1.4301 -1.8108  1.5589
  168SAPS   C2418988   2.115   4.740   7.216  0.3114  0.8114 -0.2769
  168SAPS   H4R18989   2.107   4.677   7.307  1.4605  2.2940  0.9045
  168SAPS   H4S18990   2.187   4.819   7.248 -0.2247  0.7904  1.0262
  168SAPS   C2518991   2.174   4.666   7.101  0.8531 -0.3469  0.2986
  168SAPS   H5R18992   2.118   4.575   7.076  0.0381  0.4878 -1.0496
  168SAPS   C2618993   2.275   4.704   7.022 -0.0765  0.0099 -0.0551
  168SAPS   H6R18994   2.314   4.624   6.957  0.2219 -0.6330  0.8918
  168SAPS   C2718995   2.346   4.833   7.039  0.0922 -0.3007  0.4493
  168SAPS   H7R18996   2.397   4.841   7.137  1.1391  0.4536 -0.1365
  168SAPS   H7S18997   2.269   4.913   7.038 -0.5701 -0.9153 -1.6536
  168SAPS   C2818998   2.454   4.848   6.941  0.3311 -0.4081  0.8178
  168SAPS   H8R18999   2.554   4.813   6.972  0.8243 -1.4680 -1.7509
  168SAPS   C2919000   2.440   4.882   6.811 -0.0150 -0.4319 -0.3509
  168SAPS   H9R19001   2.527   4.893   6.745  0.1581 -0.9069 -0.2130
  168SAPS  C21019002   2.316   4.914   6.732  0.3380 -0.0007 -0.3514
  168SAPS  H10R19003   2.233   4.853   6.773 -0.3396 -0.3012 -2.0991
  168SAPS  H10S19004   2.331   4.882   6.627 -2.7707 -3.3133  0.0399
  168SAPS  C21119005   2.289   5.067   6.727 -0.0171  0.4105 -0.1653
  168SAPS  H11R19006   2.277   5.114   6.826 -0.1408 -0.4136  0.2151
  168SAPS  C21219007   2.275   5.140   6.616  0.2766 -0.2738  0.3073
  168SAPS  H12R19008   2.238   5.243   6.624  2.0126  0.4548 -0.4966
  168SAPS  C21319009   2.282   5.099   6.471  0.7676  0.3702 -0.0298
  168SAPS  H13R19010   2.385   5.057   6.465 -0.2094 -2.3446  0.4530
  168SAPS  H13S19011   2.263   5.183   6.401  0.9312 -1.0553 -1.8577
  168SAPS  C21419012   2.174   4.995   6.438 -0.1077  0.0440 -0.3127
  168SAPS  H14R19013   2.139   4.927   6.517  0.0835 -0.9348 -1.0578
  168SAPS  C21519014   2.123   4.974   6.316 -0.2356 -0.5227  0.0087
  168SAPS  H15R19015   2.054   4.889   6.305  1.0027 -1.6175  0.5003
  168SAPS  C21619016   2.159   5.051   6.192  0.3730  0.3258 -0.0408
  168SAPS  H16R19017   2.235   5.129   6.212  1.6049 -0.7160 -0.5245
  168SAPS  H16S19018   2.070   5.108   6.158  0.2028  0.7187  1.0327
  168SAPS  C21719019   2.206   4.968   6.073  0.7179  1.0394  0.1317
  168SAPS  H17R19020   2.121   4.927   6.013  1.5058  0.0915 -0.3643
  168SAPS  H17S19021   2.271   4.886   6.111  1.6131  1.4991 -0.3901
  168SAPS  C21819022   2.284   5.042   5.964  0.1314 -0.3483  0.6886
  168SAPS  H18R19023   2.386   5.067   6.001 -0.6661 -0.4090  3.1197
  168SAPS  H18S19024   2.233   5.138   5.942 -0.7088 -0.6853  1.1231
  168SAPS  C21919025   2.295   4.966   5.832  0.2509 -0.1288 -0.1290
  168SAPS  H19R19026   2.189   4.953   5.799  0.4735 -1.7906 -0.3091
  168SAPS  H19S19027   2.335   4.866   5.859 -1.8031 -0.8665  0.4309
  168SAPS  C22019028   2.377   5.031   5.726  0.1004 -0.5523  0.1321
  168SAPS  H20R19029   2.334   5.133   5.718  0.0081 -0.4900  1.2692
  168SAPS  H20S19030   2.394   4.977   5.630 -0.6996 -0.8926  0.1783
  168SAPS  H20T19031   2.481   5.047   5.762  0.5923 -1.9966 -0.5705
  168SAPS   C3319032   1.600   4.624   7.146 -0.7216  0.1758 -0.2194
  168SAPS   H3X19033   1.615   4.518   7.177 -0.9941 -0.0207 -0.7309
  168SAPS   H3Y19034   1.682   4.692   7.177 -0.2070 -0.1882 -0.7582
  168SAPS   C3419035   1.596   4.609   7.000  0.6699 -0.1404 -0.0424
  168SAPS   H4X19036   1.570   4.708   6.955 -2.1259 -0.8580 -0.1637
  168SAPS   H4Y19037   1.514   4.549   6.956 -0.3109  0.9377  0.2617
  168SAPS   C3519038   1.730   4.576   6.936  0.0557  0.1648  0.1199
  168SAPS   H5X19039   1.809   4.646   6.971  3.4392 -1.7867 -2.8573
  168SAPS   H5Y19040   1.716   4.561   6.827 -1.1987 -0.0176  0.2935
  168SAPS   C3619041   1.767   4.436   6.983  0.3426 -0.5720  0.4331
  168SAPS   H6X19042   1.767   4.414   7.092 -0.1610 -2.9674  0.0128
  168SAPS   H6Y19043   1.877   4.423   6.974  0.4116 -0.6668  1.3118
  168SAPS   C3719044   1.689   4.318   6.921  0.2177  0.9613  0.5532
  168SAPS   H7X19045   1.594   4.347   6.871 -0.0082  0.0825  0.4728
  168SAPS   H7Y19046   1.661   4.245   7.000 -0.2613  1.9937  1.3703
  168SAPS   C3819047   1.749   4.237   6.816 -0.4520  0.1605  0.4700
  168SAPS   H8X19048   1.675   4.156   6.798 -3.0887  2.8875 -2.2660
  168SAPS   H8Y19049   1.841   4.185   6.847 -1.0398 -2.1280 -1.3159
  168SAPS   C3919050   1.761   4.301   6.673 -0.0027  0.5943  0.0032
  168SAPS   H9X19051   1.841   4.378   6.673 -1.3513  2.0445 -0.3902
  168SAPS   H9Y19052   1.663   4.350   6.652 -1.1523  0.0688  3.4052
  168SAPS  C31019053   1.802   4.196   6.570  0.1840  0.4819 -0.4662
  168SAPS  H10X19054   1.718   4.123   6.569 -0.0857  0.7799 -1.4182
  168SAPS  H10Y19055   1.896   4.146   6.599 -0.8583 -1.6552 -0.5251
  168SAPS  C31119056   1.828   4.275   6.437  0.1684  0.3705 -0.8695
  168SAPS  H11X19057   1.912   4.346   6.454  0.7873 -0.4177 -0.5841
  168SAPS  H11Y19058   1.747   4.341   6.399  1.2284  1.0316 -2.0537
  168SAPS  C31219059   1.859   4.177   6.327  0.7648 -0.1935  0.2324
  168SAPS  H12X19060   1.767   4.121   6.300  1.0622 -1.2269  1.3021
  168SAPS  H12Y19061   1.935   4.107   6.367  2.8126  1.6330 -0.2535
  168SAPS  C31319062   1.905   4.252   6.204  0.6646 -0.8861 -0.4595
  168SAPS  H13X19063   1.995   4.316   6.219 -0.1078 -0.0932  1.0424
  168SAPS  H13Y19064   1.814   4.314   6.190 -0.7626 -2.8381 -0.2508
  168SAPS  C31419065   1.902   4.168   6.074 -0.0988 -0.4616 -0.9382
  168SAPS  H14X19066   1.797   4.155   6.042 -0.2669 -0.3071 -0.4549
  168SAPS  H14Y19067   1.956   4.077   6.108 -0.7574 -0.4819  0.0682
  168SAPS  C31519068   1.969   4.230   5.954  0.2237 -0.3376  0.1241
  168SAPS  H15X19069   2.078   4.240   5.972 -0.1035  0.6246  1.7206
  168SAPS  H15Y19070   1.933   4.335   5.945 -1.3666 -0.7817  0.9921
  168SAPS  C31619071   1.931   4.158   5.811 -0.2843  0.2046 -0.0354
  168SAPS  H16X19072   1.822   4.140   5.803 -0.3996  0.6995  0.3831
  168SAPS  H16Y19073   1.991   4.065   5.819 -1.0002 -0.1582  1.3429
  168SAPS  C31719074   1.973   4.240   5.688  0.6883  0.1738  0.0019
  168SAPS  H17X19075   1.977   4.182   5.593  2.8479 -0.2457  0.2972
  168SAPS  H17Y19076   2.078   4.272   5.709  1.2519 -1.6160  0.0281
  168SAPS  C31819077   1.873   4.350   5.665 -0.1615  0.1359  0.4705
  168SAPS  H18X19078   1.913   4.425   5.594 -1.7824  1.0932  0.5099
  168SAPS  H18Y19079   1.834   4.387   5.762 -2.2757 -2.6277  0.8031
  168SAPS  H18Z19080   1.780   4.310   5.618 -0.1909  0.1011  0.5563
  169SAPS     N19081   6.086   6.826   7.378  0.3572 -0.3129 -0.4301
  169SAPS   HN119082   6.166   6.760   7.388  0.7184  0.3265  1.0534
  169SAPS   HN219083   6.007   6.780   7.327  0.3191 -3.0976  1.8608
  169SAPS   HN319084   6.134   6.902   7.326 -0.1493  1.1806  1.2094
  169SAPS   C1219085   6.055   6.876   7.514  0.5452  0.0974  0.2006
  169SAPS  H12A19086   6.076   6.808   7.595 -0.2619  0.5700  0.8229
  169SAPS   C1319087   6.125   7.008   7.547  0.3956 -0.7451 -0.1610
  169SAPS  O13A19088   6.230   7.041   7.481  0.2559 -0.1869  0.4283
  169SAPS  O13B19089   6.097   7.071   7.659  0.3227  0.6787  0.8408
  169SAPS   C1119090   5.898   6.903   7.511  0.4637 -0.1639  0.1422
  169SAPS  H11A19091   5.885   6.972   7.425  1.4937 -0.0371  0.0795
  169SAPS  H11B19092   5.866   6.953   7.605 -1.1015  1.2919 -1.0930
  169SAPS     P19093   5.675   6.776   7.491  0.4144  0.0262  0.1466
  169SAPS   O1319094   5.625   6.642   7.446 -0.3447 -0.0408 -0.0900
  169SAPS   O1419095   5.633   6.817   7.625  0.6012  0.5678  0.1787
  169SAPS   O1219096   5.830   6.782   7.487  0.1576 -0.2424 -0.6327
  169SAPS   O1119097   5.639   6.881   7.374  0.2463  0.1984  1.0025
  169SAPS    C119098   5.706   6.857   7.244  0.2463 -0.6169  0.1771
  169SAPS    HA19099   5.806   6.812   7.258 -0.0153 -1.3249 -0.2162
  169SAPS    HB19100   5.654   6.780   7.182  0.1433 -2.3109  2.2533
  169SAPS    C219101   5.721   6.987   7.164  0.2172 -0.5147 -0.4655
  169SAPS    HS19102   5.795   7.056   7.210  1.3788 -1.4510 -0.8697
  169SAPS   O2119103   5.586   7.037   7.149  0.1999 -0.0447  0.5019
  169SAPS   C2119104   5.541   7.127   7.244  0.3635  0.8236 -0.1246
  169SAPS   O2219105   5.603   7.168   7.340  0.2228  0.8262 -0.7044
  169SAPS   C2219106   5.404   7.176   7.188  0.3842  0.7162 -0.2171
  169SAPS   H2R19107   5.385   7.133   7.087  0.6092  2.7194 -1.1759
  169SAPS   H2S19108   5.323   7.139   7.254  2.2017 -1.4453  0.9300
  169SAPS    C319109   5.784   6.963   7.020  0.0808  0.1243 -0.5872
  169SAPS    HX19110   5.727   6.887   6.962 -0.6366  0.9596 -0.9986
  169SAPS    HY19111   5.881   6.911   7.033  0.3546  0.7139 -0.2591
  169SAPS   O3119112   5.796   7.083   6.940  0.0040 -0.2991  0.2522
  169SAPS   C3119113   5.911   7.144   6.963 -0.0946 -0.8109 -0.7261
  169SAPS   O3219114   5.995   7.113   7.047 -0.2031  0.3668  0.1110
  169SAPS   C3219115   5.915   7.269   6.875  0.4262 -0.2422 -0.9484
  169SAPS   H2X19116   5.899   7.352   6.947 -3.0267  0.3678 -2.2233
  169SAPS   H2Y19117   5.837   7.276   6.796 -0.4302  1.4108 -0.0101
  169SAPS   C2319118   5.400   7.328   7.175  0.5540 -0.1986 -0.1651
  169SAPS   H3R19119   5.397   7.367   7.279  3.0073 -1.7723  0.5894
  169SAPS   H3S19120   5.306   7.365   7.129  1.8013  1.0869 -1.8036
  169SAPS   C2419121   5.515   7.386   7.101 -1.0304 -0.4199 -0.3205
  169SAPS   H4R19122   5.614   7.368   7.148 -1.1826 -1.7836 -0.4535
  169SAPS   H4S19123   5.499   7.495   7.115 -0.2150 -0.4588  1.1209
  169SAPS   C2519124   5.533   7.341   6.959 -0.1066 -0.4261 -0.3567
  169SAPS   H5R19125   5.552   7.233   6.950  2.4844  0.0418 -1.1770
  169SAPS   C2619126   5.543   7.421   6.851 -0.9237  0.2755 -0.3152
  169SAPS   H6R19127   5.543   7.370   6.753 -2.3025  0.5497 -0.4778
  169SAPS   C2719128   5.550   7.572   6.838  0.9575 -0.4112 -0.0236
  169SAPS   H7R19129   5.482   7.614   6.915 -0.4164 -1.9596 -0.3299
  169SAPS   H7S19130   5.508   7.608   6.742 -1.7866 -0.3034  1.1261
  169SAPS   C2819131   5.696   7.616   6.859 -0.2710 -0.3173  0.2329
  169SAPS   H8R19132   5.728   7.618   6.964  0.8510 -1.3168 -0.0605
  169SAPS   C2919133   5.793   7.637   6.774  0.0212  0.1410 -0.1045
  169SAPS   H9R19134   5.881   7.684   6.820 -0.7747  1.3669  0.2276
  169SAPS  C21019135   5.783   7.634   6.625 -0.5469  0.0876 -0.6824
  169SAPS  H10R19136   5.681   7.660   6.590 -1.5477 -0.3165  1.6770
  169SAPS  H10S19137   5.795   7.525   6.604  1.9184  0.1823 -0.0238
  169SAPS  C21119138   5.889   7.713   6.555 -0.5560 -0.2837  0.1333
  169SAPS  H11R19139   5.981   7.735   6.611 -0.8623  0.9078  0.1934
  169SAPS  C21219140   5.879   7.776   6.431 -0.1969  0.0344  0.2176
  169SAPS  H12R19141   5.968   7.833   6.398 -0.4655 -0.4308 -1.3417
  169SAPS  C21319142   5.765   7.761   6.332 -0.6524 -0.0769 -0.4139
  169SAPS  H13R19143   5.698   7.850   6.336 -2.3047 -1.3105  0.7901
  169SAPS  H13S19144   5.694   7.677   6.340 -0.6582 -0.1160 -0.8289
  169SAPS  C21419145   5.843   7.742   6.204  0.4481  0.9260 -0.1341
  169SAPS  H14R19146   5.904   7.650   6.209  1.2177  1.4087 -0.3427
  169SAPS  C21519147   5.843   7.821   6.098  0.0352  0.5332 -0.5450
  169SAPS  H15R19148   5.905   7.796   6.011  0.3210  0.8891 -0.4471
  169SAPS  C21619149   5.765   7.952   6.071  0.3708  0.3644  0.3494
  169SAPS  H16R19150   5.682   7.966   6.144 -0.7305 -0.8628 -0.6151
  169SAPS  H16S19151   5.712   7.941   5.974 -1.1000  1.7844  0.9489
  169SAPS  C21719152   5.847   8.083   6.071  0.5860  0.4296 -0.0715
  169SAPS  H17R19153   5.934   8.057   6.007 -1.3492 -2.2133 -1.9006
  169SAPS  H17S19154   5.882   8.105   6.173 -0.9356 -1.0780  0.8383
  169SAPS  C21819155   5.773   8.207   6.029 -0.2739 -0.3124 -0.5871
  169SAPS  H18R19156   5.696   8.239   6.103  0.7249  0.0653  0.3145
  169SAPS  H18S19157   5.721   8.185   5.934  0.7976 -0.2456 -1.2041
  169SAPS  C21919158   5.861   8.328   6.007 -0.7600  0.3461  0.0889
  169SAPS  H19R19159   5.810   8.403   5.942  1.0567  1.3914 -0.2006
  169SAPS  H19S19160   5.948   8.299   5.944  0.3025  0.6525  1.3635
  169SAPS  C22019161   5.896   8.404   6.137 -0.3300 -0.2560 -0.4240
  169SAPS  H20R19162   5.809   8.458   6.181 -1.5116 -1.7603 -0.8408
  169SAPS  H20S19163   5.980   8.475   6.126 -0.7069  0.4416  0.9276
  169SAPS  H20T19164   5.931   8.323   6.205  0.3111 -1.2614 -1.9065
  169SAPS   C3319165   6.057   7.266   6.806  0.4078 -0.5971 -0.3264
  169SAPS   H3X19166   6.083   7.163   6.771 -0.9323 -1.7621  1.8540
  169SAPS   H3Y19167   6.137   7.295   6.877  1.5101  0.2918 -1.8719
  169SAPS   C3419168   6.054   7.358   6.687 -0.1022  0.3670  0.3374
  169SAPS   H4X19169   6.036   7.464   6.716  1.2217  0.0596  2.4802
  169SAPS   H4Y19170   5.963   7.343   6.626 -1.0024  3.5324  0.7013
  169SAPS   C3519171   6.188   7.360   6.601  0.0527  1.1168  0.1658
  169SAPS   H5X19172   6.201   7.253   6.574 -0.3027  1.4344 -1.3535
  169SAPS   H5Y19173   6.271   7.387   6.670  1.1208 -0.4434 -0.4387
  169SAPS   C3619174   6.188   7.438   6.471 -0.7321  0.1705  0.0852
  169SAPS   H6X19175   6.295   7.459   6.450 -0.3657 -0.8477  0.8140
  169SAPS   H6Y19176   6.146   7.540   6.483 -0.2778  0.5532 -1.3888
  169SAPS   C3719177   6.133   7.361   6.356 -0.4505  0.6587 -0.2058
  169SAPS   H7X19178   6.023   7.366   6.365 -0.5679  1.6480 -1.8178
  169SAPS   H7Y19179   6.157   7.252   6.361 -0.0341  0.7074 -0.8820
  169SAPS   C3819180   6.171   7.429   6.226  0.7173 -0.3381  0.2190
  169SAPS   H8X19181   6.274   7.471   6.221 -0.0251  1.6093  0.4704
  169SAPS   H8Y19182   6.106   7.517   6.207  1.5582 -0.2023 -2.4538
  169SAPS   C3919183   6.149   7.341   6.103 -0.9862 -0.1757  0.4072
  169SAPS   H9X19184   6.050   7.293   6.116 -0.3821 -1.1602  1.6370
  169SAPS   H9Y19185   6.228   7.264   6.107 -0.6913 -0.0604 -1.8063
  169SAPS  C31019186   6.155   7.416   5.966  0.0898  0.6003 -0.7142
  169SAPS  H10X19187   6.261   7.438   5.945  0.1629 -0.0703 -1.0845
  169SAPS  H10Y19188   6.084   7.500   5.979  0.1862  0.6974 -0.8155
  169SAPS  C31119189   6.104   7.329   5.855  0.5091 -0.4466  0.3878
  169SAPS  H11X19190   6.140   7.380   5.764 -0.9484  0.3217  0.2075
  169SAPS  H11Y19191   5.993   7.327   5.844  0.2647 -3.0186  2.2582
  169SAPS  C31219192   6.155   7.182   5.861  1.0392 -0.5918  0.2007
  169SAPS  H12X19193   6.090   7.141   5.781 -3.7246  1.3173  2.6673
  169SAPS  H12Y19194   6.119   7.127   5.951  0.5153 -2.1169 -0.8951
  169SAPS  C31319195   6.299   7.163   5.818 -0.0583  0.3786  0.0340
  169SAPS  H13X19196   6.353   7.249   5.862  1.2603  0.1713 -1.0963
  169SAPS  H13Y19197   6.317   7.182   5.710 -1.4809  0.7118 -0.1571
  169SAPS  C31419198   6.345   7.026   5.858  0.1158 -0.5590  0.1164
  169SAPS  H14X19199   6.299   6.992   5.954 -1.9946 -0.1750 -0.6996
  169SAPS  H14Y19200   6.455   7.037   5.854  0.0923 -0.4676 -4.3808
  169SAPS  C31519201   6.314   6.906   5.765  0.5903 -0.0684  1.0140
  169SAPS  H15X19202   6.336   6.946   5.664  0.2943 -1.6196  0.2940
  169SAPS  H15Y19203   6.207   6.876   5.773  0.7513 -0.5874  1.3006
  169SAPS  C31619204   6.403   6.793   5.806 -0.2011  0.5140  1.0308
  169SAPS  H16X19205   6.387   6.777   5.914 -0.9287  0.5853  0.9356
  169SAPS  H16Y19206   6.502   6.822   5.765 -0.4751 -0.2821 -0.2786
  169SAPS  C31719207   6.370   6.657   5.734 -0.3492 -0.5567  0.2284
  169SAPS  H17X19208   6.263   6.636   5.713 -0.1950 -1.2589  0.1359
  169SAPS  H17Y19209   6.412   6.581   5.803 -1.7604  0.0989  1.8974
  169SAPS  C31819210   6.454   6.648   5.604 -0.0466 -0.1927  0.0460
  169SAPS  H18X19211   6.427   6.740   5.548 -1.0860  0.2823  1.2778
  169SAPS  H18Y19212   6.432   6.550   5.555  2.5676 -1.4366  1.1663
  169SAPS  H18Z19213   6.561   6.667   5.625 -0.3472  1.8364 -0.1131
  170SAPS     N19214   5.842   4.896   8.097 -0.1721 -0.4847  0.0412
  170SAPS   HN119215   5.756   4.841   8.114  0.2995 -1.0215  0.7437
  170SAPS   HN219216   5.909   4.843   8.038  1.1324  0.0836  0.9484
  170SAPS   HN319217   5.894   4.918   8.185 -0.3520 -2.1265  0.5948
  170SAPS   C1219218   5.817   5.021   8.017 -0.0422 -0.7712  0.1518
  170SAPS  H12A19219   5.802   4.990   7.915 -0.8682 -0.7689  0.2661
  170SAPS   C1319220   5.698   5.119   8.054  0.2833  0.3703  0.5175
  170SAPS  O13A19221   5.634   5.092   8.158 -0.1811 -0.5920 -0.2543
  170SAPS  O13B19222   5.673   5.225   7.989 -0.0554  0.0897  0.7199
  170SAPS   C1119223   5.953   5.101   8.016  0.0799 -0.5467 -0.5323
  170SAPS  H11A19224   5.993   5.131   8.115  1.6545  4.5768 -2.3806
  170SAPS  H11B19225   5.947   5.195   7.957 -1.9091  0.7188  1.5287
  170SAPS     P19226   6.193   5.075   7.909  0.1180 -0.0464 -0.0293
  170SAPS   O1319227   6.220   5.192   7.991 -0.2748  0.3789  0.0336
  170SAPS   O1419228   6.304   4.979   7.890  0.6617 -0.1591  0.4671
  170SAPS   O1219229   6.057   5.015   7.967 -0.2142  0.0735  0.6766
  170SAPS   O1119230   6.148   5.130   7.764 -0.1280 -0.6654 -0.0550
  170SAPS    C119231   6.039   5.074   7.699 -1.0490  0.6529 -0.0049
  170SAPS    HA19232   6.015   4.966   7.715  1.9857 -0.5919 -2.6305
  170SAPS    HB19233   5.954   5.136   7.732 -0.5588  0.6935  1.2305
  170SAPS    C219234   6.056   5.075   7.543  0.7347 -0.0416 -0.2705
  170SAPS    HS19235   5.954   5.091   7.502  1.0067 -0.9065 -1.3483
  170SAPS   O2119236   6.096   4.951   7.483 -0.1059  0.2061  0.0657
  170SAPS   C2119237   6.050   4.940   7.344  0.5941  0.2102  0.1450
  170SAPS   O2219238   5.978   5.015   7.286 -0.3953 -0.3467  0.9819
  170SAPS   C2219239   6.122   4.824   7.283 -0.4087  0.1182 -0.4996
  170SAPS   H2R19240   6.226   4.853   7.308 -0.8483  1.9384 -0.5834
  170SAPS   H2S19241   6.093   4.729   7.332 -2.0938  0.8463 -0.0033
  170SAPS    C319242   6.152   5.187   7.502  0.4720  0.3949  0.5231
  170SAPS    HX19243   6.253   5.155   7.532 -0.1893 -0.4056  2.0126
  170SAPS    HY19244   6.122   5.278   7.559 -2.8930  1.8379 -3.0320
  170SAPS   O3119245   6.157   5.217   7.361 -0.0834 -0.0905  0.0045
  170SAPS   C3119246   6.087   5.327   7.313  0.1201 -0.0884 -0.2870
  170SAPS   O3219247   6.036   5.407   7.391 -0.0668  0.2031 -0.4898
  170SAPS   C3219248   6.117   5.342   7.163  0.2423  0.0549  0.1411
  170SAPS   H2X19249   6.184   5.429   7.149  0.6626 -0.1161  1.0323
  170SAPS   H2Y19250   6.024   5.356   7.104  0.7673  0.9905 -0.4967
  170SAPS   C2319251   6.097   4.818   7.133 -0.4731  0.3367 -0.2957
  170SAPS   H3R19252   6.145   4.903   7.081  2.4758 -0.2419  1.2598
  170SAPS   H3S19253   5.989   4.837   7.116 -0.5722  0.5219  0.4782
  170SAPS   C2419254   6.144   4.686   7.080 -0.5373 -0.5222 -0.1248
  170SAPS   H4R19255   6.101   4.671   6.979 -0.1703  1.2188 -0.5676
  170SAPS   H4S19256   6.096   4.604   7.138 -0.2636  0.8633  2.1981
  170SAPS   C2519257   6.297   4.684   7.082 -0.0349  0.4385  0.5603
  170SAPS   H5R19258   6.337   4.689   7.184 -0.8129  2.1316  0.8157
  170SAPS   C2619259   6.381   4.676   6.978 -0.4246 -0.1336  0.5433
  170SAPS   H6R19260   6.486   4.661   7.005 -0.3859  0.9811  1.0568
  170SAPS   C2719261   6.342   4.692   6.832  0.1192 -0.5628 -0.1952
  170SAPS   H7R19262   6.233   4.676   6.816  0.1610 -1.1869  0.0970
  170SAPS   H7S19263   6.385   4.598   6.791 -0.5270 -1.0888  0.3110
  170SAPS   C2819264   6.396   4.822   6.761 -0.0421  0.3590 -0.0340
  170SAPS   H8R19265   6.503   4.839   6.778 -0.0907 -0.3616  1.1282
  170SAPS   C2919266   6.332   4.892   6.667 -0.0276 -0.4609 -0.7297
  170SAPS   H9R19267   6.380   4.983   6.629  1.1335 -0.5273  0.4946
  170SAPS  C21019268   6.197   4.872   6.604 -0.7605 -0.4107  0.1644
  170SAPS  H10R19269   6.144   4.785   6.648 -0.8621 -0.0539  0.7649
  170SAPS  H10S19270   6.209   4.847   6.497 -0.3529  0.6354 -0.0461
  170SAPS  C21119271   6.118   4.996   6.625 -0.0551  0.3758 -0.7024
  170SAPS  H11R19272   6.071   5.002   6.724  1.3804 -2.2526  0.2093
  170SAPS  C21219273   6.086   5.082   6.527 -0.0755  0.3897  0.6954
  170SAPS  H12R19274   6.022   5.167   6.556 -2.0557 -1.3966  1.8754
  170SAPS  C21319275   6.108   5.067   6.377 -0.5980  0.9607  0.3933
  170SAPS  H13R19276   6.144   4.964   6.356  0.8650  1.4555  0.3646
  170SAPS  H13S19277   6.184   5.143   6.350 -0.0071  0.0121 -0.7104
  170SAPS  C21419278   5.990   5.094   6.290 -0.0200 -0.0876 -2.0113
  170SAPS  H14R19279   5.896   5.090   6.347  0.7846 -1.0857 -0.6817
  170SAPS  C21519280   5.998   5.090   6.163 -0.4129  0.6064  0.1946
  170SAPS  H15R19281   5.906   5.108   6.104 -0.6937 -0.0559  0.4273
  170SAPS  C21619282   6.123   5.076   6.082  0.6290 -0.1789  0.5367
  170SAPS  H16R19283   6.184   4.996   6.128 -2.1952 -1.6223  2.0434
  170SAPS  H16S19284   6.174   5.175   6.079  1.0935 -0.3773  1.6215
  170SAPS  C21719285   6.079   5.039   5.933 -1.3581  0.0034 -0.0952
  170SAPS  H17R19286   6.022   5.117   5.880 -0.5628  0.8656  0.2859
  170SAPS  H17S19287   6.025   4.942   5.932 -1.7575  0.2048 -2.6031
  170SAPS  C21819288   6.203   5.021   5.837 -0.0416 -0.2617 -0.3551
  170SAPS  H18R19289   6.275   4.943   5.871  1.2118  1.2643  0.6461
  170SAPS  H18S19290   6.276   5.105   5.834 -2.3228  1.7939 -1.0006
  170SAPS  C21919291   6.152   5.020   5.697 -0.0177 -0.5138  0.1299
  170SAPS  H19R19292   6.118   5.123   5.674  0.1066 -0.0133  2.0357
  170SAPS  H19S19293   6.058   4.960   5.695 -1.8986  2.2839  0.1245
  170SAPS  C22019294   6.251   4.989   5.580 -0.0420 -0.2517  0.3470
  170SAPS  H20R19295   6.207   4.998   5.478  0.5105 -0.0821  0.1230
  170SAPS  H20S19296   6.285   4.883   5.582  0.7069 -0.0135  0.4733
  170SAPS  H20T19297   6.339   5.056   5.589  0.9180 -1.4945  0.4908
  170SAPS   C3319298   6.200   5.216   7.107  0.2498  0.5343  0.9628
  170SAPS   H3X19299   6.144   5.128   7.144  0.8076 -0.0182  0.4975
  170SAPS   H3Y19300   6.307   5.227   7.133  1.2310  0.6037 -2.6263
  170SAPS   C3419301   6.187   5.216   6.950 -0.6968  0.3027  0.0958
  170SAPS   H4X19302   6.081   5.243   6.927 -0.2916  0.8316 -1.2556
  170SAPS   H4Y19303   6.201   5.113   6.911  0.8324  0.5164  0.0384
  170SAPS   C3519304   6.277   5.324   6.878 -0.1223  1.1939 -0.4780
  170SAPS   H5X19305   6.384   5.298   6.892  0.5757  3.8423 -0.3009
  170SAPS   H5Y19306   6.272   5.427   6.920 -0.1946  1.0530 -0.1374
  170SAPS   C3619307   6.260   5.313   6.720  0.0335  0.3821 -0.5226
  170SAPS   H6X19308   6.159   5.345   6.685 -0.5058 -1.2245 -0.5037
  170SAPS   H6Y19309   6.263   5.207   6.688 -0.9318  0.8511 -2.3506
  170SAPS   C3719310   6.380   5.376   6.649 -0.4981  0.7412 -0.0774
  170SAPS   H7X19311   6.468   5.332   6.700 -1.2804 -1.3514 -0.4112
  170SAPS   H7Y19312   6.379   5.486   6.664 -1.2622  0.9418 -1.4617
  170SAPS   C3819313   6.378   5.357   6.498 -0.3519 -0.3008  0.0035
  170SAPS   H8X19314   6.277   5.382   6.458 -0.1161  1.7577  0.6270
  170SAPS   H8Y19315   6.401   5.252   6.471  0.6457 -0.5890  1.8567
  170SAPS   C3919316   6.485   5.438   6.426 -0.4131 -0.3566 -0.1548
  170SAPS   H9X19317   6.581   5.388   6.453 -0.7884 -0.9169  0.1704
  170SAPS   H9Y19318   6.487   5.545   6.453 -0.1297 -0.7108  1.3247
  170SAPS  C31019319   6.455   5.420   6.278  0.3255  0.6493  0.2526
  170SAPS  H10X19320   6.362   5.478   6.261 -0.1418  0.0205  0.6025
  170SAPS  H10Y19321   6.422   5.318   6.251  1.0562  0.9478 -2.0224
  170SAPS  C31119322   6.566   5.462   6.180  0.1201  0.3016 -0.0434
  170SAPS  H11X19323   6.653   5.395   6.196  0.6891  0.4553 -2.1634
  170SAPS  H11Y19324   6.590   5.569   6.197 -1.7953  1.1463 -2.0249
  170SAPS  C31219325   6.511   5.447   6.039  0.2091  0.2155  0.0652
  170SAPS  H12X19326   6.448   5.355   6.033 -0.9544  0.9257  0.8661
  170SAPS  H12Y19327   6.594   5.434   5.966 -0.0631  2.1137 -0.6419
  170SAPS  C31319328   6.429   5.572   6.004 -0.7652 -0.3702  0.3858
  170SAPS  H13X19329   6.500   5.654   6.032 -0.5216 -0.5574  0.3203
  170SAPS  H13Y19330   6.339   5.581   6.068 -0.4144 -1.4060  1.0305
  170SAPS  C31419331   6.385   5.569   5.858 -0.9984 -0.3602  0.0082
  170SAPS  H14X19332   6.328   5.473   5.855 -2.5658  0.5164  0.6390
  170SAPS  H14Y19333   6.458   5.571   5.774 -1.0206  1.1684  0.0091
  170SAPS  C31519334   6.295   5.685   5.835 -0.0536  0.2787 -1.0197
  170SAPS  H15X19335   6.353   5.780   5.843  0.4188  0.0346 -1.5024
  170SAPS  H15Y19336   6.218   5.678   5.915  1.5670 -1.1617  0.4837
  170SAPS  C31619337   6.234   5.681   5.690  0.4075  1.0386  0.4522
  170SAPS  H16X19338   6.162   5.596   5.694  2.0346 -0.4119  0.1320
  170SAPS  H16Y19339   6.316   5.653   5.621 -0.6386  0.0261 -0.4285
  170SAPS  C31719340   6.158   5.805   5.646 -0.4552  0.5399 -0.0386
  170SAPS  H17X19341   6.074   5.825   5.716 -2.7250 -0.2964 -2.3446
  170SAPS  H17Y19342   6.124   5.791   5.541 -3.4773  3.7096  0.3227
  170SAPS  C31819343   6.247   5.924   5.647  0.4869  0.2400  0.4714
  170SAPS  H18X19344   6.337   5.891   5.590  0.8798 -1.5686  2.0327
  170SAPS  H18Y19345   6.267   5.966   5.748 -2.6412  1.3443  0.7589
  170SAPS  H18Z19346   6.210   6.000   5.575 -1.1662 -0.3447  0.6693
  171SAPS     N19347   1.882   3.723   8.207  0.2688  0.0259 -0.1036
  171SAPS   HN119348   1.835   3.753   8.295  2.1955 -0.9972  1.3509
  171SAPS   HN219349   1.924   3.800   8.151  1.2713 -1.3676 -1.3436
  171SAPS   HN319350   1.812   3.690   8.138 -1.4473 -1.1114  2.0738
  171SAPS   C1219351   1.986   3.624   8.249 -0.4637 -0.0080  0.5206
  171SAPS  H12A19352   2.057   3.663   8.321  1.0976  0.7161 -1.3403
  171SAPS   C1319353   1.920   3.498   8.308 -0.0728  0.2188  0.0761
  171SAPS  O13A19354   1.795   3.479   8.304  0.3101 -0.4579 -0.5780
  171SAPS  O13B19355   2.001   3.417   8.360  0.2582  1.1149 -0.0829
  171SAPS   C1119356   2.078   3.592   8.129 -0.4779  0.2410 -0.1777
  171SAPS  H11A19357   2.005   3.569   8.049  0.3997 -0.4009 -0.8041
  171SAPS  H11B19358   2.132   3.500   8.160  1.0805  1.0959 -0.2596
  171SAPS     P19359   2.127   3.816   8.003 -0.2423 -0.4234 -0.0549
  171SAPS   O1319360   2.018   3.900   8.063 -0.0545  0.2113 -0.1452
  171SAPS   O1419361   2.250   3.887   7.955 -0.0067  0.0703 -0.0540
  171SAPS   O1219362   2.173   3.697   8.104  0.1534  0.2507  0.2417
  171SAPS   O1119363   2.068   3.731   7.880  0.0052 -0.3118  0.3802
  171SAPS    C119364   2.159   3.666   7.794  0.5415  0.0592  0.0670
  171SAPS    HA19365   2.241   3.730   7.754 -0.4397 -0.6394 -3.3766
  171SAPS    HB19366   2.200   3.575   7.843 -0.8997 -0.3953  0.4759
  171SAPS    C219367   2.089   3.623   7.661 -0.2234 -0.4809 -0.2583
  171SAPS    HS19368   2.168   3.601   7.586 -0.0298 -0.0210 -0.1937
  171SAPS   O2119369   2.010   3.729   7.611 -0.0675 -0.1237  0.1295
  171SAPS   C2119370   2.088   3.829   7.569 -0.6188 -0.4270  0.1886
  171SAPS   O2219371   2.209   3.822   7.539 -0.2570  0.1619 -0.1591
  171SAPS   C2219372   2.005   3.955   7.559 -0.2364  0.1391 -0.1181
  171SAPS   H2R19373   1.905   3.929   7.518 -0.4332 -2.7600  1.8436
  171SAPS   H2S19374   1.984   3.983   7.664 -2.1780  0.7809 -0.6326
  171SAPS    C319375   2.001   3.498   7.669 -0.3668 -0.2856  0.0550
  171SAPS    HX19376   1.926   3.522   7.748  0.0919  2.5425 -0.2724
  171SAPS    HY19377   2.061   3.407   7.691 -0.7757 -0.7114 -0.5461
  171SAPS   O3119378   1.935   3.469   7.548  0.6441  0.0729 -0.1561
  171SAPS   C3119379   1.813   3.530   7.521 -0.3213 -0.4375 -0.1341
  171SAPS   O3219380   1.746   3.593   7.598 -0.2119  0.0295 -0.6413
  171SAPS   C3219381   1.769   3.491   7.383 -0.7246  0.6657 -0.3180
  171SAPS   H2X19382   1.666   3.454   7.406 -1.5832  3.2968  0.4017
  171SAPS   H2Y19383   1.830   3.411   7.336 -0.8535  0.0062  0.6084
  171SAPS   C2319384   2.070   4.076   7.491  0.1055  0.5060 -0.3558
  171SAPS   H3R19385   2.172   4.080   7.535  0.7789  1.1698 -1.9055
  171SAPS   H3S19386   2.023   4.175   7.507 -0.1305  0.1475  1.3628
  171SAPS   C2419387   2.089   4.066   7.342  0.3621  0.2007 -0.4576
  171SAPS   H4R19388   2.151   3.977   7.318  0.1478  0.3352 -1.5237
  171SAPS   H4S19389   2.148   4.151   7.303 -1.2474  2.2565  1.3484
  171SAPS   C2519390   1.957   4.071   7.268  0.1791  0.0313 -0.3017
  171SAPS   H5R19391   1.866   4.101   7.323  0.0543 -2.7389  1.1950
  171SAPS   C2619392   1.952   4.051   7.137 -0.0815 -0.4988  0.1262
  171SAPS   H6R19393   1.855   4.063   7.087 -1.7172 -1.7805  2.7304
  171SAPS   C2719394   2.066   4.016   7.050  0.7929  0.2232 -0.1840
  171SAPS   H7R19395   2.155   4.070   7.090 -0.4236  2.3277 -0.1637
  171SAPS   H7S19396   2.047   4.055   6.948 -0.2547 -0.9232 -0.4428
  171SAPS   C2819397   2.086   3.863   7.048 -0.2512  0.0148  0.3643
  171SAPS   H8R19398   2.074   3.814   7.146 -0.9172 -0.5346  0.0178
  171SAPS   C2919399   2.109   3.785   6.946  0.0899  0.6767  0.0808
  171SAPS   H9R19400   2.108   3.679   6.977 -3.5661  0.7239  0.5375
  171SAPS  C21019401   2.148   3.814   6.802  0.6482  0.2599  0.2345
  171SAPS  H10R19402   2.075   3.882   6.754 -0.9995 -1.6608 -0.1352
  171SAPS  H10S19403   2.144   3.719   6.743  1.8236  0.3465 -0.0137
  171SAPS  C21119404   2.285   3.868   6.772 -1.5619 -0.7962  0.2053
  171SAPS  H11R19405   2.344   3.894   6.861  0.3653  1.0526 -1.4890
  171SAPS  C21219406   2.345   3.879   6.650  0.1995 -0.3084  0.7255
  171SAPS  H12R19407   2.449   3.915   6.638  0.8559 -2.1420  0.6572
  171SAPS  C21319408   2.277   3.852   6.515 -0.7380 -0.0905 -0.1323
  171SAPS  H13R19409   2.213   3.765   6.536  0.0590 -1.1138 -1.7601
  171SAPS  H13S19410   2.356   3.821   6.443 -1.1538  0.3333 -0.7805
  171SAPS  C21419411   2.203   3.969   6.447  0.3945  0.6531 -0.0401
  171SAPS  H14R19412   2.113   3.998   6.503 -0.1241 -0.8376 -0.0511
  171SAPS  C21519413   2.228   4.028   6.327  0.7929 -0.8693 -0.5073
  171SAPS  H15R19414   2.168   4.118   6.310  2.1966  0.4218  0.8976
  171SAPS  C21619415   2.342   3.998   6.227 -0.3969  0.4469  0.4005
  171SAPS  H16R19416   2.377   3.896   6.256 -1.4786 -0.1133 -0.1944
  171SAPS  H16S19417   2.428   4.067   6.236  1.0211 -1.0803 -0.5939
  171SAPS  C21719418   2.292   4.000   6.078 -0.0295 -0.1367 -0.3443
  171SAPS  H17R19419   2.190   4.044   6.073 -0.4181 -0.9898 -0.1379
  171SAPS  H17S19420   2.283   3.896   6.040  0.0055  0.1132 -1.0564
  171SAPS  C21819421   2.393   4.078   5.994 -0.1416 -0.3652  0.7430
  171SAPS  H18R19422   2.492   4.041   6.029  0.0289  1.2544  2.0908
  171SAPS  H18S19423   2.398   4.185   6.022  1.6429 -0.2373  0.0569
  171SAPS  C21919424   2.376   4.052   5.846  0.3885  0.0947  0.5117
  171SAPS  H19R19425   2.280   4.088   5.802  1.4536  0.3590 -1.7434
  171SAPS  H19S19426   2.381   3.942   5.838  2.0737  0.1867 -0.2465
  171SAPS  C22019427   2.491   4.098   5.762  0.8199 -0.1042  0.3378
  171SAPS  H20R19428   2.497   4.209   5.763 -0.5829 -0.0107  0.3061
  171SAPS  H20S19429   2.468   4.071   5.657 -1.5808 -2.2806  1.3253
  171SAPS  H20T19430   2.587   4.052   5.793  0.3337  0.4621  2.8756
  171SAPS   C3319431   1.758   3.603   7.279  0.6431 -0.5236  0.4807
  171SAPS   H3X19432   1.727   3.562   7.181 -2.5988  1.0732  0.7197
  171SAPS   H3Y19433   1.854   3.657   7.261  2.3229 -2.8398  1.8324
  171SAPS   C3419434   1.640   3.696   7.313  0.2271  0.4251  0.4986
  171SAPS   H4X19435   1.637   3.727   7.419 -0.8691  0.8718  0.3493
  171SAPS   H4Y19436   1.552   3.632   7.286  0.9092  0.0772 -0.9976
  171SAPS   C3519437   1.630   3.819   7.213  0.0522  0.1291  0.0993
  171SAPS   H5X19438   1.729   3.868   7.225  0.2274 -0.3334  0.5493
  171SAPS   H5Y19439   1.545   3.888   7.231 -0.7669 -1.3642  2.4156
  171SAPS   C3619440   1.619   3.783   7.068 -0.3707  1.1818  0.4030
  171SAPS   H6X19441   1.528   3.720   7.059 -1.1095  2.4226 -1.8323
  171SAPS   H6Y19442   1.711   3.726   7.041 -0.7454  1.1434 -0.8618
  171SAPS   C3719443   1.593   3.903   6.981  0.5830  0.6305  0.0790
  171SAPS   H7X19444   1.674   3.979   6.985 -0.3509  1.7233 -1.1902
  171SAPS   H7Y19445   1.499   3.949   7.018 -0.8321 -0.6201 -1.7572
  171SAPS   C3819446   1.572   3.875   6.829 -0.9413  0.3005  0.2619
  171SAPS   H8X19447   1.539   3.975   6.792 -0.2033  1.0817  1.6414
  171SAPS   H8Y19448   1.498   3.793   6.818 -0.4051 -0.1508 -0.0540
  171SAPS   C3919449   1.699   3.825   6.766  0.3140 -0.2223  0.2606
  171SAPS   H9X19450   1.746   3.734   6.809  2.5435 -0.1581 -1.8620
  171SAPS   H9Y19451   1.771   3.907   6.783 -2.2163  2.2347 -0.1396
  171SAPS  C31019452   1.679   3.810   6.616  0.5583 -0.0017 -0.1151
  171SAPS  H10X19453   1.621   3.894   6.573 -0.1256 -1.0799 -1.3739
  171SAPS  H10Y19454   1.617   3.720   6.598  0.9715 -0.1233 -0.9980
  171SAPS  C31119455   1.813   3.776   6.547  0.1454 -0.1396  0.4976
  171SAPS  H11X19456   1.867   3.688   6.588  2.6592  1.0131 -0.1244
  171SAPS  H11Y19457   1.879   3.864   6.567  0.9460 -0.8901  1.2446
  171SAPS  C31219458   1.810   3.743   6.397  0.5833 -0.2964 -0.0448
  171SAPS  H12X19459   1.724   3.800   6.357  0.5978  0.5772  1.1189
  171SAPS  H12Y19460   1.770   3.640   6.388 -1.8227  0.5802 -0.1850
  171SAPS  C31319461   1.945   3.765   6.325 -0.1163 -0.2551 -0.8130
  171SAPS  H13X19462   2.020   3.693   6.366 -1.0267 -1.8844 -1.9285
  171SAPS  H13Y19463   1.990   3.866   6.335  0.3984 -0.5002 -0.6057
  171SAPS  C31419464   1.934   3.739   6.177 -0.9204  0.6768  0.2739
  171SAPS  H14X19465   1.862   3.811   6.132 -1.5324  1.9730  3.0991
  171SAPS  H14Y19466   1.889   3.638   6.181  0.8268 -0.1044  1.1781
  171SAPS  C31519467   2.073   3.738   6.102  0.1879 -0.4618 -0.1965
  171SAPS  H15X19468   2.107   3.632   6.110 -0.3949 -0.5080  2.4328
  171SAPS  H15Y19469   2.150   3.795   6.157 -0.5207 -0.2642  0.6092
  171SAPS  C31619470   2.071   3.773   5.950  0.3179  0.3162  0.4522
  171SAPS  H16X19471   2.172   3.765   5.905 -0.7717  0.0104 -2.1319
  171SAPS  H16Y19472   2.039   3.880   5.949 -1.0263 -0.0722  0.2096
  171SAPS  C31719473   1.978   3.690   5.864 -0.4756  0.1430 -0.5189
  171SAPS  H17X19474   1.985   3.747   5.769 -1.5194 -0.0106 -0.6934
  171SAPS  H17Y19475   1.871   3.689   5.892  0.0622  0.3150  1.6883
  171SAPS  C31819476   2.029   3.544   5.840 -0.4747 -0.0668  0.1126
  171SAPS  H18X19477   1.948   3.479   5.802  0.8167 -1.9350  0.4133
  171SAPS  H18Y19478   2.066   3.510   5.939  1.3676  3.5389  0.8395
  171SAPS  H18Z19479   2.111   3.538   5.766 -1.2289  2.2697 -1.0151
  172SAPS     N19480   1.850   6.036   8.009  0.0200 -0.0933  0.1696
  172SAPS   HN119481   1.856   5.967   8.087 -0.6936 -1.6556 -1.0894
  172SAPS   HN219482   1.885   6.129   8.038 -0.1966  0.5722 -1.5978
  172SAPS   HN319483   1.757   6.055   7.966  0.0505 -0.8000 -0.2274
  172SAPS   C1219484   1.936   5.991   7.894 -0.3106  0.1250  0.5001
  172SAPS  H12A19485   1.914   6.056   7.811  1.1036  2.3076  1.7477
  172SAPS   C1319486   2.084   5.990   7.930  0.4044  0.4390  0.7926
  172SAPS  O13A19487   2.121   5.976   8.051  0.6257  0.6052  0.4479
  172SAPS  O13B19488   2.159   5.970   7.831 -0.0404 -0.1715 -0.6477
  172SAPS   C1119489   1.893   5.845   7.852  0.0955  0.8685  0.5525
  172SAPS  H11A19490   1.937   5.783   7.932  0.9215  1.9418  0.9584
  172SAPS  H11B19491   1.937   5.805   7.759  0.3052 -1.0917  1.4455
  172SAPS     P19492   1.675   5.685   7.845 -0.0363 -0.4931  0.1550
  172SAPS   O1319493   1.725   5.582   7.942  0.8060  0.2250 -0.4427
  172SAPS   O1419494   1.534   5.714   7.844 -0.1479 -0.2842  0.0057
  172SAPS   O1219495   1.752   5.824   7.861  1.0277  0.3328 -0.1649
  172SAPS   O1119496   1.730   5.644   7.700  0.2958  0.0366 -0.6664
  172SAPS    C119497   1.719   5.731   7.589 -0.8694 -0.1652  0.1863
  172SAPS    HA19498   1.715   5.835   7.627 -0.5622 -0.1337  0.1320
  172SAPS    HB19499   1.812   5.712   7.531 -0.0513 -2.3291  2.0681
  172SAPS    C219500   1.602   5.692   7.489 -0.6150 -0.4684 -0.3847
  172SAPS    HS19501   1.501   5.700   7.534 -0.7462  3.9763 -0.9616
  172SAPS   O2119502   1.640   5.552   7.454 -0.1179  0.2132  0.4189
  172SAPS   C2119503   1.533   5.472   7.429  0.8813 -0.6574  0.0530
  172SAPS   O2219504   1.415   5.502   7.451 -0.0855 -0.2030  0.2207
  172SAPS   C2219505   1.581   5.339   7.368  0.3777 -0.1023  0.1334
  172SAPS   H2R19506   1.675   5.310   7.418  0.5660  1.9265  1.0521
  172SAPS   H2S19507   1.501   5.265   7.391 -0.6723  0.8468 -0.3071
  172SAPS    C319508   1.597   5.776   7.353 -0.2956 -0.3573 -0.1822
  172SAPS    HX19509   1.702   5.762   7.318 -0.5834 -3.7464 -0.0052
  172SAPS    HY19510   1.573   5.881   7.381  1.7281 -0.7765  3.9376
  172SAPS   O3119511   1.505   5.722   7.254 -0.1823 -0.2386 -0.5930
  172SAPS   C3119512   1.414   5.803   7.204  0.6032 -0.4481 -0.7722
  172SAPS   O3219513   1.385   5.910   7.243 -0.2471 -0.2179 -0.4918
  172SAPS   C3219514   1.333   5.713   7.102 -0.5087 -0.4592 -0.3656
  172SAPS   H2X19515   1.225   5.734   7.119 -0.1439  2.4109 -1.0060
  172SAPS   H2Y19516   1.361   5.606   7.111 -1.7398 -0.6704  1.3624
  172SAPS   C2319517   1.620   5.351   7.219  0.3878 -0.5810  0.0943
  172SAPS   H3R19518   1.711   5.415   7.224  0.6791 -0.8047 -1.7570
  172SAPS   H3S19519   1.534   5.398   7.167  0.8638  0.4562  0.2176
  172SAPS   C2419520   1.648   5.216   7.164  0.9480 -0.1817  0.2852
  172SAPS   H4R19521   1.717   5.161   7.232 -0.6852 -1.7694  0.7294
  172SAPS   H4S19522   1.692   5.232   7.063  1.1280  4.1839  0.8602
  172SAPS   C2519523   1.519   5.142   7.162  0.1308 -0.3384  0.4443
  172SAPS   H5R19524   1.487   5.070   7.239  0.3802  0.7188  1.5640
  172SAPS   C2619525   1.432   5.156   7.059  0.0175 -0.1486 -0.3124
  172SAPS   H6R19526   1.340   5.096   7.061  1.2047 -2.0581 -0.4162
  172SAPS   C2719527   1.446   5.228   6.928 -0.1399 -0.3546  0.8006
  172SAPS   H7R19528   1.498   5.168   6.850  0.2102  1.5273 -0.4591
  172SAPS   H7S19529   1.496   5.326   6.943  0.4296 -0.3333 -1.0580
  172SAPS   C2819530   1.307   5.268   6.889 -0.2246 -0.5812  0.7365
  172SAPS   H8R19531   1.230   5.294   6.963  0.6394 -1.1723  1.8629
  172SAPS   C2919532   1.273   5.267   6.754  0.1793 -0.3726 -0.5776
  172SAPS   H9R19533   1.169   5.283   6.725  0.2312  0.0678 -0.5353
  172SAPS  C21019534   1.357   5.231   6.634 -0.0792  0.6534  0.2347
  172SAPS  H10R19535   1.462   5.211   6.663  0.3322  0.2658 -1.4405
  172SAPS  H10S19536   1.361   5.319   6.566 -1.7561 -1.5495 -3.0015
  172SAPS  C21119537   1.287   5.124   6.563  0.3933 -0.5481  0.2344
  172SAPS  H11R19538   1.244   5.049   6.632 -0.2490 -1.7063 -1.3570
  172SAPS  C21219539   1.282   5.094   6.429 -0.2325  0.7769 -0.3026
  172SAPS  H12R19540   1.237   4.998   6.400  1.5906 -0.4238  0.6307
  172SAPS  C21319541   1.333   5.177   6.317 -0.2400 -0.0743  0.0802
  172SAPS  H13R19542   1.393   5.262   6.356  1.0539 -1.8347  2.1534
  172SAPS  H13S19543   1.249   5.219   6.257  0.3834  1.3512  0.1484
  172SAPS  C21419544   1.440   5.113   6.237 -0.0952  0.1695  0.3943
  172SAPS  H14R19545   1.532   5.090   6.293 -0.6204 -0.2294  1.0900
  172SAPS  C21519546   1.447   5.083   6.107  0.3277 -0.4648 -0.5404
  172SAPS  H15R19547   1.537   5.036   6.063  0.7594  0.6329 -0.8693
  172SAPS  C21619548   1.341   5.106   6.002 -0.7609 -0.5313  0.1585
  172SAPS  H16R19549   1.331   5.215   6.016  1.6596 -0.4380  1.7158
  172SAPS  H16S19550   1.239   5.068   6.024 -0.7432 -1.5799 -1.3821
  172SAPS  C21719551   1.391   5.057   5.867 -0.2361 -0.4550  0.3188
  172SAPS  H17R19552   1.432   4.953   5.862 -0.7976 -0.6199 -1.2500
  172SAPS  H17S19553   1.470   5.120   5.821 -1.5897  0.7329 -0.4290
  172SAPS  C21819554   1.283   5.064   5.762  0.2714  0.3941 -0.2086
  172SAPS  H18R19555   1.246   5.169   5.756  0.1781  0.3572 -0.2824
  172SAPS  H18S19556   1.196   5.005   5.798 -0.6938  2.0469  0.3067
  172SAPS  C21919557   1.321   5.026   5.621 -0.5255  0.0117  0.5950
  172SAPS  H19R19558   1.364   4.923   5.626 -0.3978  0.1087  1.5609
  172SAPS  H19S19559   1.401   5.092   5.581  0.1289 -1.7783 -1.2641
  172SAPS  C22019560   1.199   5.024   5.526  0.1841 -0.5780  0.1077
  172SAPS  H20R19561   1.125   4.951   5.565  0.4969 -0.2245  1.3897
  172SAPS  H20S19562   1.230   4.999   5.422  1.5874  1.1458  0.0547
  172SAPS  H20T19563   1.157   5.127   5.526  0.3825 -0.4836  1.7332
  172SAPS   C3319564   1.375   5.760   6.958  0.7903  0.8229 -0.0669
  172SAPS   H3X19565   1.482   5.787   6.954  1.3826 -1.4850 -3.1950
  172SAPS   H3Y19566   1.307   5.847   6.941 -1.4826 -0.6229  1.0320
  172SAPS   C3419567   1.352   5.659   6.852 -0.1008  0.4245 -0.4297
  172SAPS   H4X19568   1.248   5.622   6.849  0.5623 -1.8041  1.3648
  172SAPS   H4Y19569   1.404   5.564   6.877 -1.5923 -0.0423  1.0780
  172SAPS   C3519570   1.411   5.707   6.714 -0.4463 -0.3077 -0.8240
  172SAPS   H5X19571   1.520   5.688   6.717 -0.2192  0.9228  1.9650
  172SAPS   H5Y19572   1.395   5.817   6.714 -1.8478 -0.4817 -2.0510
  172SAPS   C3619573   1.346   5.641   6.594 -0.1902 -0.8532  0.0027
  172SAPS   H6X19574   1.235   5.633   6.596 -0.1385 -1.8176 -0.4675
  172SAPS   H6Y19575   1.395   5.541   6.590 -1.3661 -1.4283 -1.0568
  172SAPS   C3719576   1.385   5.705   6.455 -0.2081  0.1084 -0.7839
  172SAPS   H7X19577   1.485   5.752   6.456  0.1547 -0.6037 -1.9115
  172SAPS   H7Y19578   1.308   5.782   6.431  0.0128  0.7708  0.5338
  172SAPS   C3819579   1.376   5.592   6.348  0.1804 -0.5351 -0.2193
  172SAPS   H8X19580   1.285   5.537   6.381  0.5709 -1.4344 -0.6402
  172SAPS   H8Y19581   1.466   5.529   6.357  1.0077  0.5828 -0.4245
  172SAPS   C3919582   1.365   5.642   6.214  0.3231  0.4150 -0.3537
  172SAPS   H9X19583   1.454   5.707   6.205  1.7882 -1.2051  1.4603
  172SAPS   H9Y19584   1.266   5.688   6.197  0.0889  0.3003  0.6105
  172SAPS  C31019585   1.392   5.524   6.113 -0.4602 -0.1756  0.0907
  172SAPS  H10X19586   1.297   5.471   6.091 -1.9969  2.0388  1.0328
  172SAPS  H10Y19587   1.456   5.449   6.164 -1.0097 -1.0389 -0.4570
  172SAPS  C31119588   1.471   5.568   5.992 -0.3715 -0.2904  1.2332
  172SAPS  H11X19589   1.570   5.606   6.027 -0.5513  1.5984 -0.1231
  172SAPS  H11Y19590   1.418   5.651   5.940  1.0966  0.6512  1.1740
  172SAPS  C31219591   1.480   5.460   5.885  0.0578  0.0908  0.4173
  172SAPS  H12X19592   1.385   5.403   5.883  0.6865 -0.9503 -1.2136
  172SAPS  H12Y19593   1.560   5.389   5.915  0.4429  0.1008 -0.5451
  172SAPS  C31319594   1.508   5.518   5.740 -0.5564  0.1223 -0.2227
  172SAPS  H13X19595   1.614   5.552   5.733 -0.1014 -1.0874  0.5152
  172SAPS  H13Y19596   1.446   5.610   5.735 -0.3852  0.3223  1.1271
  172SAPS  C31419597   1.498   5.422   5.620  0.0703 -0.3236  0.2287
  172SAPS  H14X19598   1.400   5.377   5.594  0.0809 -0.3585  0.2498
  172SAPS  H14Y19599   1.562   5.337   5.652  0.1446 -0.5846 -0.5861
  172SAPS  C31519600   1.565   5.489   5.504  0.3458 -0.1740  0.3955
  172SAPS  H15X19601   1.663   5.531   5.535  1.4202 -3.2305  1.4969
  172SAPS  H15Y19602   1.499   5.573   5.473 -1.5743 -1.7969 -0.1427
  172SAPS  C31619603   1.586   5.401   5.380  0.5037 -0.5894  0.8391
  172SAPS  H16X19604   1.650   5.453   5.306 -0.5602  0.6259  0.7242
  172SAPS  H16Y19605   1.627   5.304   5.413 -0.4939 -1.0344  0.8102
  172SAPS  C31719606   1.457   5.363   5.315  0.5895  0.2093 -0.2338
  172SAPS  H17X19607   1.408   5.455   5.277 -0.3546 -0.4679 -0.7210
  172SAPS  H17Y19608   1.389   5.321   5.393  1.5523  1.3486  1.2634
  172SAPS  C31819609   1.480   5.268   5.199 -0.0714  0.2245 -0.0406
  172SAPS  H18X19610   1.500   5.334   5.112 -0.7243  1.3921  0.6739
  172SAPS  H18Y19611   1.381   5.226   5.170 -0.5753  1.0447  0.4799
  172SAPS  H18Z19612   1.567   5.200   5.210  0.9245  1.1447 -1.8118
  173SAPS     N19613   3.524   4.143   3.230 -0.0260  0.0585  0.5180
  173SAPS   HN119614   3.621   4.137   3.267  1.0037 -0.1593 -2.0693
  173SAPS   HN219615   3.460   4.193   3.296 -0.5767 -1.5754  1.2655
  173SAPS   HN319616   3.485   4.047   3.222  4.4757 -2.0244  0.3475
  173SAPS   C1219617   3.528   4.212   3.100  1.0183  0.2361  0.4352
  173SAPS  H12A19618   3.583   4.157   3.026 -0.3928 -2.1474  1.0383
  173SAPS   C1319619   3.387   4.234   3.045 -0.1373  0.2219 -0.4591
  173SAPS  O13A19620   3.287   4.175   3.095  0.4172 -0.5068 -0.0145
  173SAPS  O13B19621   3.369   4.280   2.934  0.0045 -0.0155 -0.1657
  173SAPS   C1119622   3.601   4.353   3.110 -0.0533 -0.4804 -0.3736
  173SAPS  H11A19623   3.536   4.427   3.161  0.7805  0.9761 -1.3437
  173SAPS  H11B19624   3.616   4.390   3.006 -0.2417 -0.0174 -0.2348
  173SAPS     P19625   3.824   4.462   3.186 -0.3134  0.2158  0.0446
  173SAPS   O1319626   3.948   4.428   3.251 -0.3440  0.1723 -0.4040
  173SAPS   O1419627   3.830   4.532   3.057  0.1645 -0.2565 -0.0394
  173SAPS   O1219628   3.729   4.342   3.176  0.4698  0.6166 -0.2297
  173SAPS   O1119629   3.740   4.549   3.285  0.2390 -0.1080  0.0345
  173SAPS    C119630   3.681   4.485   3.400  0.2405  0.1164  0.5420
  173SAPS    HA19631   3.585   4.431   3.385  0.8032 -1.4028  2.0645
  173SAPS    HB19632   3.744   4.407   3.448 -0.5637 -0.1176  1.2435
  173SAPS    C219633   3.669   4.587   3.518 -0.2631 -0.3027  0.7381
  173SAPS    HS19634   3.651   4.537   3.616 -1.6648 -0.2977  0.5126
  173SAPS   O2119635   3.564   4.689   3.504 -0.6169  0.3175 -0.2685
  173SAPS   C2119636   3.436   4.651   3.516 -0.6841  0.0778 -0.0488
  173SAPS   O2219637   3.408   4.533   3.537 -0.0608  0.8164 -0.0177
  173SAPS   C2219638   3.340   4.768   3.502 -0.5337  0.6109 -0.2452
  173SAPS   H2R19639   3.400   4.859   3.478 -0.8373  0.7148 -0.6116
  173SAPS   H2S19640   3.281   4.742   3.412 -0.1329  3.4111 -1.4326
  173SAPS    C319641   3.802   4.660   3.528 -0.1191 -0.3143 -0.9381
  173SAPS    HX19642   3.800   4.734   3.445 -1.6243  1.6981  0.7832
  173SAPS    HY19643   3.885   4.587   3.518  0.4874 -0.4178  2.9518
  173SAPS   O3119644   3.816   4.720   3.665  0.0615  0.1372 -0.1661
  173SAPS   C3119645   3.798   4.854   3.671 -0.9803  0.3998  0.9150
  173SAPS   O3219646   3.752   4.926   3.581 -0.0208  0.7577  0.3283
  173SAPS   C3219647   3.850   4.908   3.808  0.1632 -0.0290 -0.3036
  173SAPS   H2X19648   3.807   5.010   3.817 -0.4722 -0.1856 -1.3817
  173SAPS   H2Y19649   3.958   4.929   3.796 -0.3163  1.8184 -1.8481
  173SAPS   C2319650   3.243   4.783   3.622 -1.1316 -0.1461 -0.1480
  173SAPS   H3R19651   3.200   4.680   3.619  1.5954 -1.4601  1.6581
  173SAPS   H3S19652   3.166   4.862   3.610  0.2389  0.9517 -2.4019
  173SAPS   C2419653   3.317   4.804   3.759 -0.1879 -0.5570  0.1434
  173SAPS   H4R19654   3.388   4.720   3.773 -1.0538 -1.4780 -0.8152
  173SAPS   H4S19655   3.241   4.785   3.838 -0.5596 -4.6684 -1.0073
  173SAPS   C2519656   3.375   4.941   3.777 -0.7836  0.2436  0.3793
  173SAPS   H5R19657   3.376   5.008   3.690  2.0909  1.7238  1.4290
  173SAPS   C2619658   3.399   5.005   3.893  0.0349  0.5919 -0.1876
  173SAPS   H6R19659   3.446   5.104   3.887 -1.8200  1.4826 -0.8111
  173SAPS   C2719660   3.398   4.935   4.027 -0.4236 -0.3113  0.7781
  173SAPS   H7R19661   3.444   4.834   4.019  3.1589  1.2764 -1.6021
  173SAPS   H7S19662   3.291   4.936   4.056 -1.1838  0.5237 -1.7503
  173SAPS   C2819663   3.460   5.027   4.129  0.0126  0.1026  0.2604
  173SAPS   H8R19664   3.478   5.133   4.109 -0.4272  0.1295 -0.0060
  173SAPS   C2919665   3.509   4.981   4.246 -0.0439  0.1374 -0.8670
  173SAPS   H9R19666   3.562   5.054   4.310  2.1090 -0.4195 -1.9089
  173SAPS  C21019667   3.505   4.836   4.304 -0.3739 -1.0655  0.8533
  173SAPS  H10R19668   3.607   4.797   4.288 -0.3660 -1.0729  0.9217
  173SAPS  H10S19669   3.429   4.781   4.243 -0.3225 -0.7600  0.5053
  173SAPS  C21119670   3.459   4.825   4.445 -0.0677 -0.3997 -0.9874
  173SAPS  H11R19671   3.351   4.813   4.461  0.3261 -0.2500  2.8498
  173SAPS  C21219672   3.533   4.819   4.557  0.0089  0.5588  0.2497
  173SAPS  H12R19673   3.477   4.814   4.652 -0.5061  0.2078 -0.0654
  173SAPS  C21319674   3.689   4.810   4.565  0.1109 -0.0716 -1.3007
  173SAPS  H13R19675   3.730   4.806   4.462  0.4270 -1.6226 -1.1387
  173SAPS  H13S19676   3.725   4.715   4.610 -1.9903 -0.4307 -0.2296
  173SAPS  C21419677   3.737   4.931   4.640  0.2059 -0.3730  0.2878
  173SAPS  H14R19678   3.722   5.022   4.580  3.0844 -0.4936 -0.7699
  173SAPS  C21519679   3.788   4.935   4.765  0.8795  0.1297 -0.0129
  173SAPS  H15R19680   3.822   5.030   4.810 -0.1710  0.4874  0.0510
  173SAPS  C21619681   3.801   4.814   4.849  0.1082  0.3169  0.1760
  173SAPS  H16R19682   3.905   4.782   4.829 -0.4679 -3.0760  1.8521
  173SAPS  H16S19683   3.746   4.722   4.820  0.5460  0.1513 -0.1421
  173SAPS  C21719684   3.764   4.827   4.995 -0.4496 -0.1301  0.6137
  173SAPS  H17R19685   3.789   4.732   5.047 -3.0129  0.0778  2.3809
  173SAPS  H17S19686   3.654   4.842   5.000 -0.8893 -2.2103 -1.0917
  173SAPS  C21819687   3.859   4.932   5.065  0.1275  0.2753 -0.2253
  173SAPS  H18R19688   3.824   4.951   5.168  0.9467 -0.6608  0.2391
  173SAPS  H18S19689   3.858   5.027   5.007 -1.6943 -0.2095 -1.0693
  173SAPS  C21919690   4.006   4.878   5.084  0.0112  0.1324  0.5255
  173SAPS  H19R19691   4.036   4.835   4.985 -0.8841  1.1524 -0.2087
  173SAPS  H19S19692   3.997   4.797   5.160  1.3612  0.4879  1.0938
  173SAPS  C22019693   4.100   4.986   5.122 -0.3246 -0.5400 -0.3634
  173SAPS  H20R19694   4.097   5.067   5.046 -1.2742  0.8548  1.1029
  173SAPS  H20S19695   4.201   4.939   5.122 -1.0069 -2.1617 -1.9447
  173SAPS  H20T19696   4.088   5.027   5.224  2.4367  0.3362 -0.2868
  173SAPS   C3319697   3.818   4.818   3.931 -0.9273 -0.3623  0.2571
  173SAPS   H3X19698   3.874   4.724   3.912  0.2218  0.6160 -1.4764
  173SAPS   H3Y19699   3.710   4.792   3.925 -0.6404 -1.5763 -0.0254
  173SAPS   C3419700   3.845   4.882   4.066  0.3155  0.5218 -0.1388
  173SAPS   H4X19701   3.822   4.795   4.132  0.6479  0.2582 -0.3625
  173SAPS   H4Y19702   3.783   4.968   4.097 -0.7436  0.3144 -1.6153
  173SAPS   C3519703   3.994   4.913   4.082  0.4478  0.5278 -0.8808
  173SAPS   H5X19704   4.015   5.000   4.017  1.4449  1.4936  0.6730
  173SAPS   H5Y19705   4.049   4.833   4.029  0.2055  0.4517 -1.0199
  173SAPS   C3619706   4.038   4.956   4.224 -0.0628  0.2760  0.0989
  173SAPS   H6X19707   3.954   5.013   4.270  1.5120  1.5156  1.5757
  173SAPS   H6Y19708   4.132   5.013   4.210  1.3910 -1.7343  1.1729
  173SAPS   C3719709   4.060   4.837   4.315 -0.3974 -0.1551 -0.0221
  173SAPS   H7X19710   4.129   4.764   4.267  0.0646  1.1190 -1.3851
  173SAPS   H7Y19711   3.964   4.780   4.320 -2.0136  2.3655 -0.5706
  173SAPS   C3819712   4.104   4.866   4.456  0.6443  0.3342 -0.1814
  173SAPS   H8X19713   4.033   4.942   4.496  0.5775  0.1277  0.1002
  173SAPS   H8Y19714   4.206   4.909   4.464 -0.1218  2.0056  2.2129
  173SAPS   C3919715   4.093   4.757   4.560 -0.8346  0.4548 -0.8153
  173SAPS   H9X19716   3.988   4.723   4.550 -0.4865 -0.1553 -2.9172
  173SAPS   H9Y19717   4.118   4.803   4.658 -0.1569  1.4689 -1.4380
  173SAPS  C31019718   4.184   4.628   4.537 -0.0716 -0.9986  0.0821
  173SAPS  H10X19719   4.283   4.666   4.507 -0.1753 -0.5789  0.2716
  173SAPS  H10Y19720   4.140   4.566   4.456 -2.3520  1.4861 -0.7231
  173SAPS  C31119721   4.185   4.540   4.666 -0.4591 -0.2305  0.2721
  173SAPS  H11X19722   4.231   4.600   4.748 -1.2167  0.4322  0.2214
  173SAPS  H11Y19723   4.243   4.446   4.653  0.6155  0.3166  0.9523
  173SAPS  C31219724   4.054   4.486   4.722  0.2803  0.3446  0.0166
  173SAPS  H12X19725   3.998   4.564   4.777 -0.1192 -1.7029  2.7756
  173SAPS  H12Y19726   4.085   4.414   4.801  2.4397  1.3835  0.1906
  173SAPS  C31319727   3.952   4.420   4.626 -0.1492  0.1132  0.1740
  173SAPS  H13X19728   3.993   4.318   4.609  1.8461  0.6613  1.3620
  173SAPS  H13Y19729   3.948   4.471   4.527  3.1265 -0.0263 -0.1293
  173SAPS  C31419730   3.810   4.427   4.673  0.4459 -0.5758  0.2347
  173SAPS  H14X19731   3.772   4.525   4.638 -1.3278 -1.5021 -0.5811
  173SAPS  H14Y19732   3.797   4.421   4.783 -3.3331 -2.1642 -0.1419
  173SAPS  C31519733   3.723   4.330   4.603  0.8916 -0.3670  0.2919
  173SAPS  H15X19734   3.757   4.332   4.497  3.7246  1.5266  1.1147
  173SAPS  H15Y19735   3.617   4.362   4.596  0.4730 -1.8845 -0.8147
  173SAPS  C31619736   3.734   4.194   4.678  0.7800 -0.0978  0.2554
  173SAPS  H16X19737   3.678   4.197   4.774 -1.9015 -0.7805 -1.1943
  173SAPS  H16Y19738   3.840   4.168   4.696  0.5339 -0.2443  1.6363
  173SAPS  C31719739   3.687   4.075   4.591  0.3142 -0.5166  0.1616
  173SAPS  H17X19740   3.719   3.982   4.641 -0.7051 -1.5212 -0.9655
  173SAPS  H17Y19741   3.739   4.065   4.493  1.0641 -0.1951  0.5188
  173SAPS  C31819742   3.531   4.078   4.560 -0.4460 -0.3315 -0.2426
  173SAPS  H18X19743   3.478   4.056   4.655 -1.0448  0.4361 -0.3868
  173SAPS  H18Y19744   3.502   3.995   4.492 -1.1238 -0.5948  0.3509
  173SAPS  H18Z19745   3.504   4.176   4.515  0.6868 -0.1982 -0.6478
  174SAPS     N19746   0.379   5.553   3.216  0.2821 -1.3113 -0.1704
  174SAPS   HN119747   0.377   5.639   3.158  0.8599 -0.8148  0.5301
  174SAPS   HN219748   0.343   5.587   3.307 -0.3598 -0.6398 -0.6601
  174SAPS   HN319749   0.480   5.529   3.226  1.0166  1.0462 -1.2293
  174SAPS   C1219750   0.284   5.454   3.149 -0.4574 -0.4161 -0.5160
  174SAPS  H12A19751   0.184   5.490   3.168 -0.8204 -0.7674 -1.6555
  174SAPS   C1319752   0.308   5.434   2.998  0.2520 -0.1670  0.0345
  174SAPS  O13A19753   0.385   5.508   2.923  0.7373 -0.5546  0.3182
  174SAPS  O13B19754   0.225   5.360   2.936  0.2817 -0.0391 -0.0272
  174SAPS   C1119755   0.293   5.303   3.208 -0.1291  0.7061  0.1065
  174SAPS  H11A19756   0.360   5.231   3.157 -1.1964 -2.3418  2.7236
  174SAPS  H11B19757   0.193   5.258   3.194 -0.0418  0.7117 -0.5859
  174SAPS     P19758   0.225   5.268   3.453 -0.4381  0.2282 -0.1639
  174SAPS   O1319759   0.177   5.134   3.429 -0.2995 -0.4272 -0.6701
  174SAPS   O1419760   0.281   5.308   3.585 -0.0472 -0.0947  0.1617
  174SAPS   O1219761   0.329   5.303   3.342 -0.2040 -0.3839  0.4907
  174SAPS   O1119762   0.102   5.364   3.417 -0.5352 -0.5125 -0.0234
  174SAPS    C119763   0.070   5.479   3.494  0.1393 -0.7819  0.4406
  174SAPS    HA19764   0.105   5.469   3.599  0.9672 -1.5048  0.1049
  174SAPS    HB19765   0.107   5.573   3.449 -1.4082 -0.6473 -0.6397
  174SAPS    C219766  -0.082   5.503   3.513  0.5536 -0.8069  0.1434
  174SAPS    HS19767  -0.122   5.519   3.410  0.8128  0.5393  0.2383
  174SAPS   O2119768  -0.102   5.628   3.581 -0.2747 -0.7478 -0.2784
  174SAPS   C2119769  -0.223   5.684   3.565 -0.4298  0.1895 -0.0454
  174SAPS   O2219770  -0.318   5.626   3.523 -0.2463  0.1457 -0.1168
  174SAPS   C2219771  -0.233   5.829   3.621  0.4858 -0.2135  0.4013
  174SAPS   H2R19772  -0.129   5.852   3.651 -0.0644  1.5799  1.0574
  174SAPS   H2S19773  -0.256   5.897   3.536 -0.6209 -0.6847  0.3109
  174SAPS    C319774  -0.153   5.381   3.580 -0.4297  0.1075 -0.6723
  174SAPS    HX19775  -0.133   5.288   3.523 -0.4481 -0.3516  0.0539
  174SAPS    HY19776  -0.263   5.395   3.588 -0.0759  2.0997  4.5783
  174SAPS   O3119777  -0.095   5.371   3.711  0.0763 -0.5168 -0.7871
  174SAPS   C3119778  -0.116   5.261   3.790 -0.7158  0.5515  0.1728
  174SAPS   O3219779  -0.175   5.161   3.754 -0.7811 -0.3758  0.1717
  174SAPS   C3219780  -0.066   5.300   3.927 -0.4025 -0.7859  0.7265
  174SAPS   H2X19781  -0.139   5.368   3.977 -1.1316 -0.1597 -1.0938
  174SAPS   H2Y19782   0.035   5.345   3.918 -0.5476 -0.7895 -1.1455
  174SAPS   C2319783  -0.342   5.834   3.721 -0.1666 -0.4500 -0.0244
  174SAPS   H3R19784  -0.312   5.761   3.799  0.8697 -0.6286 -0.5776
  174SAPS   H3S19785  -0.429   5.808   3.658  0.7656  1.1459 -2.0929
  174SAPS   C2419786  -0.380   5.972   3.778 -0.1296  0.5189  0.3313
  174SAPS   H4R19787  -0.440   6.028   3.704  0.6917  1.7716  0.5719
  174SAPS   H4S19788  -0.279   6.017   3.787  0.6334 -1.0317 -0.0290
  174SAPS   C2519789  -0.466   5.943   3.898  0.7612  0.4229 -0.7061
  174SAPS   H5R19790  -0.541   5.863   3.892  0.4780  0.7953 -2.7820
  174SAPS   C2619791  -0.454   6.013   4.009  0.1734  0.7134 -0.3669
  174SAPS   H6R19792  -0.540   6.002   4.077  0.3287 -2.9620 -0.5666
  174SAPS   C2719793  -0.353   6.124   4.032  0.9508  0.1119 -0.1507
  174SAPS   H7R19794  -0.255   6.098   3.986  0.7489 -1.1212  0.0848
  174SAPS   H7S19795  -0.339   6.115   4.142 -1.8072 -0.4156  0.2373
  174SAPS   C2819796  -0.397   6.266   3.990 -0.7883  0.0813  0.5904
  174SAPS   H8R19797  -0.394   6.284   3.882 -0.3919 -0.2689  0.5423
  174SAPS   C2919798  -0.437   6.367   4.072  0.5544 -0.5439 -0.1188
  174SAPS   H9R19799  -0.476   6.458   4.023 -1.2607 -1.5575 -0.6496
  174SAPS  C21019800  -0.439   6.360   4.219  0.0863  0.5646  0.5946
  174SAPS  H10R19801  -0.360   6.297   4.266  1.3906  2.1913  0.6771
  174SAPS  H10S19802  -0.537   6.312   4.238  0.2253  0.0460  0.0115
  174SAPS  C21119803  -0.455   6.498   4.290  0.8057  0.3916  1.2765
  174SAPS  H11R19804  -0.459   6.577   4.214 -1.5678 -0.1175  0.7823
  174SAPS  C21219805  -0.456   6.530   4.422 -0.8720 -0.3538 -0.9441
  174SAPS  H12R19806  -0.470   6.634   4.456  1.2935  0.3151 -1.8750
  174SAPS  C21319807  -0.440   6.432   4.533 -1.0286 -0.1226 -0.2231
  174SAPS  H13R19808  -0.334   6.433   4.567 -1.1512 -0.0914  0.1634
  174SAPS  H13S19809  -0.455   6.325   4.507 -2.4793  0.5830 -2.5489
  174SAPS  C21419810  -0.532   6.459   4.644  0.1083  0.4314 -0.0938
  174SAPS  H14R19811  -0.630   6.412   4.628  0.5034 -0.0090 -1.2913
  174SAPS  C21519812  -0.512   6.525   4.760  0.1488 -0.3529  0.0539
  174SAPS  H15R19813  -0.597   6.513   4.828 -0.1086  0.3445 -0.1423
  174SAPS  C21619814  -0.392   6.604   4.795  0.1941  0.5452 -0.4652
  174SAPS  H16R19815  -0.420   6.704   4.834 -0.8594 -0.8890  2.8441
  174SAPS  H16S19816  -0.332   6.618   4.703 -1.1339 -0.7940 -1.6018
  174SAPS  C21719817  -0.313   6.518   4.899  0.6141 -0.3788  0.5251
  174SAPS  H17R19818  -0.223   6.579   4.927 -0.0478 -0.7428  3.7809
  174SAPS  H17S19819  -0.263   6.430   4.853 -0.4970 -0.1976 -1.0948
  174SAPS  C21819820  -0.382   6.480   5.032 -0.6335  0.3549 -0.0292
  174SAPS  H18R19821  -0.312   6.416   5.090 -1.3644 -2.0061 -1.6026
  174SAPS  H18S19822  -0.468   6.412   5.013 -1.4787  1.7215 -1.2421
  174SAPS  C21919823  -0.434   6.597   5.115  0.1599 -0.3712  0.3380
  174SAPS  H19R19824  -0.541   6.621   5.100 -0.0617  0.6775  3.0720
  174SAPS  H19S19825  -0.385   6.689   5.075 -1.1573  0.2895  0.1973
  174SAPS  C22019826  -0.422   6.581   5.262  0.0476  0.0805 -0.0753
  174SAPS  H20R19827  -0.495   6.630   5.330  0.9201 -0.6055  1.4288
  174SAPS  H20S19828  -0.319   6.594   5.303 -0.1279 -1.1605  0.8408
  174SAPS  H20T19829  -0.446   6.475   5.288 -0.1879 -1.2780 -4.9391
  174SAPS   C3319830  -0.048   5.170   4.010 -0.1202 -0.4452  0.1305
  174SAPS   H3X19831   0.032   5.105   3.970 -0.3147 -0.0554 -0.9231
  174SAPS   H3Y19832  -0.143   5.112   3.999  0.5162 -1.4419 -0.2799
  174SAPS   C3419833  -0.026   5.190   4.155  0.1944  1.0901  0.3711
  174SAPS   H4X19834  -0.051   5.099   4.213  1.3513  1.7143  1.9381
  174SAPS   H4Y19835  -0.097   5.263   4.199 -1.3319  0.3684 -0.8207
  174SAPS   C3519836   0.118   5.238   4.189  0.1710 -0.4268 -0.6674
  174SAPS   H5X19837   0.143   5.334   4.139 -0.6565 -0.6305 -1.4844
  174SAPS   H5Y19838   0.194   5.166   4.152  0.7695 -1.2792  1.9964
  174SAPS   C3619839   0.133   5.241   4.342 -0.0864 -0.1860 -0.0058
  174SAPS   H6X19840   0.120   5.140   4.385  1.3467 -0.9111 -1.1854
  174SAPS   H6Y19841   0.046   5.301   4.375 -0.0427  1.1477 -2.0663
  174SAPS   C3719842   0.248   5.318   4.398 -0.2469 -0.0087 -0.8324
  174SAPS   H7X19843   0.263   5.421   4.360 -0.7863  1.0572  1.6491
  174SAPS   H7Y19844   0.340   5.270   4.360  0.0447  0.9649 -1.3897
  174SAPS   C3819845   0.257   5.307   4.549  0.3284 -0.2332 -0.6523
  174SAPS   H8X19846   0.278   5.199   4.563  0.6934  0.0792  1.4282
  174SAPS   H8Y19847   0.164   5.340   4.600  2.2934  0.1785  3.0200
  174SAPS   C3919848   0.382   5.390   4.601 -0.1517  0.4007 -0.7611
  174SAPS   H9X19849   0.364   5.495   4.572 -0.5974  0.3500 -0.6800
  174SAPS   H9Y19850   0.470   5.351   4.546 -0.3921 -1.1903 -0.0755
  174SAPS  C31019851   0.398   5.361   4.751  0.0971 -0.5304  0.9212
  174SAPS  H10X19852   0.326   5.416   4.815 -0.8886 -0.3694 -0.3040
  174SAPS  H10Y19853   0.503   5.395   4.762  0.8257 -2.4767  0.4000
  174SAPS  C31119854   0.384   5.222   4.801 -0.1397  0.2421 -0.9261
  174SAPS  H11X19855   0.433   5.142   4.742 -1.3101 -1.4072  0.2248
  174SAPS  H11Y19856   0.277   5.195   4.787  0.3370 -0.3272 -4.0904
  174SAPS  C31219857   0.433   5.231   4.951  0.0098 -0.8487  0.4264
  174SAPS  H12X19858   0.378   5.302   5.016  0.4978  2.6421 -2.7064
  174SAPS  H12Y19859   0.536   5.270   4.961  0.0207  0.3426 -3.1939
  174SAPS  C31319860   0.433   5.096   5.030  0.1315  0.5947 -0.1307
  174SAPS  H13X19861   0.440   5.123   5.138  1.1894  2.1095 -0.5440
  174SAPS  H13Y19862   0.528   5.047   5.001 -1.4401 -1.3879 -2.2553
  174SAPS  C31419863   0.308   5.012   5.008  0.4083  0.2060 -0.2011
  174SAPS  H14X19864   0.311   4.958   4.911 -1.5697 -0.0696 -0.1549
  174SAPS  H14Y19865   0.219   5.078   5.012  0.0087 -0.3870  1.9057
  174SAPS  C31519866   0.316   4.900   5.109 -0.1027  0.9290  0.2289
  174SAPS  H15X19867   0.223   4.841   5.120 -0.9432  1.8051 -1.6507
  174SAPS  H15Y19868   0.339   4.946   5.207 -2.0674  1.7259  0.3541
  174SAPS  C31619869   0.442   4.801   5.093  0.0515  0.4832 -0.0405
  174SAPS  H16X19870   0.539   4.852   5.115  1.4978 -1.0844 -2.4013
  174SAPS  H16Y19871   0.442   4.769   4.987 -0.5184  0.1543  0.0565
  174SAPS  C31719872   0.431   4.672   5.185  0.3121 -0.1465  0.0516
  174SAPS  H17X19873   0.345   4.616   5.142  0.9711 -0.7253 -0.5239
  174SAPS  H17Y19874   0.401   4.701   5.288  2.2983  1.5801  0.1928
  174SAPS  C31819875   0.561   4.585   5.189  0.7229  0.5225  0.0862
  174SAPS  H18X19876   0.567   4.510   5.270  1.3017 -0.4570 -0.8465
  174SAPS  H18Y19877   0.646   4.653   5.213  2.3195 -1.0766 -0.7905
  174SAPS  H18Z19878   0.581   4.534   5.093  2.0624 -1.4169  1.3294
  175SAPS     N19879   6.480   2.954   3.276 -0.0746 -0.1793 -0.2008
  175SAPS   HN119880   6.476   3.021   3.356 -1.1812  0.1032 -0.4749
  175SAPS   HN219881   6.391   2.914   3.241  0.7510 -1.8087 -0.5430
  175SAPS   HN319882   6.535   2.871   3.303  2.6800  0.8189 -2.3200
  175SAPS   C1219883   6.568   2.998   3.172  0.7715  0.2249 -0.5082
  175SAPS  H12A19884   6.588   2.920   3.101  0.7739 -1.0585  0.8461
  175SAPS   C1319885   6.519   3.120   3.089 -1.3891  1.2992 -0.7488
  175SAPS  O13A19886   6.405   3.165   3.102 -0.1044  1.1067  0.3857
  175SAPS  O13B19887   6.597   3.168   3.002  0.3138  1.0111 -0.0987
  175SAPS   C1119888   6.700   3.035   3.246 -0.2592  0.7964  0.1620
  175SAPS  H11A19889   6.689   3.134   3.295 -0.8363  0.0427  1.6057
  175SAPS  H11B19890   6.775   3.045   3.164 -1.7463 -3.4597 -2.0170
  175SAPS     P19891   6.869   2.940   3.431 -0.2313 -0.0544  0.2295
  175SAPS   O1319892   6.949   2.815   3.436  0.4338 -0.4235  0.1850
  175SAPS   O1419893   6.946   3.063   3.405 -0.6022 -0.6539  0.2556
  175SAPS   O1219894   6.745   2.933   3.336 -0.4998  0.5271  0.1997
  175SAPS   O1119895   6.796   2.956   3.563  0.0956 -0.2554 -0.0430
  175SAPS    C119896   6.684   2.886   3.614  0.1869  0.0345  0.3305
  175SAPS    HA19897   6.604   2.963   3.618 -0.2707 -0.2018 -2.4277
  175SAPS    HB19898   6.640   2.814   3.542  3.2029  2.1944 -4.1095
  175SAPS    C219899   6.708   2.838   3.748  0.7549 -0.2945 -0.2534
  175SAPS    HS19900   6.719   2.927   3.813 -0.2825  0.6881 -1.3715
  175SAPS   O2119901   6.819   2.750   3.753  0.1672 -0.0705 -0.0144
  175SAPS   C2119902   6.912   2.774   3.842 -0.6529  0.0446  0.1825
  175SAPS   O2219903   6.911   2.851   3.936  0.2115  0.6496  0.2720
  175SAPS   C2219904   7.039   2.707   3.803 -0.4438 -0.2577 -0.0139
  175SAPS   H2R19905   7.060   2.621   3.870 -0.8213  0.5031  1.1090
  175SAPS   H2S19906   7.024   2.646   3.711 -2.3235  0.2695 -0.1030
  175SAPS    C319907   6.586   2.757   3.800 -0.1902 -0.6843  1.1532
  175SAPS    HX19908   6.580   2.658   3.749 -2.6617 -0.4964  0.9487
  175SAPS    HY19909   6.493   2.817   3.787  0.5028  0.0834 -0.6511
  175SAPS   O3119910   6.609   2.722   3.942  0.3284 -0.5208  0.2197
  175SAPS   C3119911   6.589   2.824   4.026  0.6926 -0.2133  0.3827
  175SAPS   O3219912   6.538   2.935   4.000  0.0001 -0.6498  0.3586
  175SAPS   C3219913   6.631   2.779   4.163 -0.1798 -0.2020  0.4981
  175SAPS   H2X19914   6.741   2.765   4.153  0.1525  2.5149 -0.6552
  175SAPS   H2Y19915   6.577   2.685   4.186 -0.5316 -0.3465 -0.8192
  175SAPS   C2319916   7.160   2.805   3.794 -1.1458 -0.5388  0.3920
  175SAPS   H3R19917   7.120   2.899   3.750  0.9824  0.3743  0.2902
  175SAPS   H3S19918   7.238   2.763   3.727 -1.3152  0.7174 -0.6321
  175SAPS   C2419919   7.221   2.829   3.942  0.3309  0.3712  0.7488
  175SAPS   H4R19920   7.139   2.871   4.002 -0.3069  2.5868 -1.5085
  175SAPS   H4S19921   7.298   2.909   3.936  1.5414 -0.6916  1.4617
  175SAPS   C2519922   7.285   2.703   3.998  0.0373 -0.1987 -0.3315
  175SAPS   H5R19923   7.382   2.676   3.954  0.3330  0.3221 -0.0032
  175SAPS   C2619924   7.238   2.636   4.108 -0.9382 -0.2286 -0.1453
  175SAPS   H6R19925   7.297   2.549   4.139  2.7574  2.5443  1.4883
  175SAPS   C2719926   7.120   2.691   4.178  0.0233  0.1755 -0.6100
  175SAPS   H7R19927   7.049   2.740   4.108  0.0054 -2.3900 -2.5356
  175SAPS   H7S19928   7.148   2.772   4.250 -1.4616  1.8106 -1.7722
  175SAPS   C2819929   7.026   2.588   4.243  1.1228 -0.6097 -0.3099
  175SAPS   H8R19930   6.999   2.504   4.177 -0.0409  0.2877 -1.0168
  175SAPS   C2919931   6.981   2.581   4.367  0.2797 -0.4717  0.0027
  175SAPS   H9R19932   6.931   2.487   4.395  0.8874 -1.2652 -1.4775
  175SAPS  C21019933   7.010   2.663   4.486  0.1018  0.1189  0.2754
  175SAPS  H10R19934   6.920   2.671   4.551 -0.1006 -0.3749  0.0599
  175SAPS  H10S19935   7.019   2.767   4.447 -1.0787  0.6015  1.2028
  175SAPS  C21119936   7.128   2.623   4.563  0.3322 -0.1751 -0.6872
  175SAPS  H11R19937   7.226   2.632   4.513  1.0837  0.8392  0.8706
  175SAPS  C21219938   7.135   2.596   4.691  0.7658  0.4896 -0.6176
  175SAPS  H12R19939   7.225   2.550   4.734 -0.8359 -0.3484  2.0977
  175SAPS  C21319940   7.013   2.601   4.784 -0.1040  0.7748  0.0302
  175SAPS  H13R19941   6.930   2.534   4.754  1.0010 -0.3964 -0.5324
  175SAPS  H13S19942   6.973   2.705   4.784 -2.0603  0.0546  0.1106
  175SAPS  C21419943   7.043   2.556   4.926 -0.3717 -0.5257  0.1762
  175SAPS  H14R19944   7.029   2.449   4.945 -0.3651 -0.3737  1.1379
  175SAPS  C21519945   7.080   2.642   5.033 -0.2982 -0.1469  0.2247
  175SAPS  H15R19946   7.098   2.600   5.133  1.6081 -1.0692 -0.4616
  175SAPS  C21619947   7.108   2.794   5.026  0.0329  0.0432  0.1756
  175SAPS  H16R19948   7.099   2.819   4.918  0.8159 -1.3339 -0.2217
  175SAPS  H16S19949   7.213   2.822   5.048  0.2185  0.7761 -1.4686
  175SAPS  C21719950   7.020   2.880   5.110 -0.6483 -0.3470 -0.7464
  175SAPS  H17R19951   6.914   2.867   5.083 -0.9475  0.8097 -0.1990
  175SAPS  H17S19952   7.055   2.985   5.098 -2.3318  0.1458 -1.5782
  175SAPS  C21819953   7.036   2.864   5.261  0.6707  0.4866  0.3331
  175SAPS  H18R19954   7.145   2.864   5.285  1.2693  3.0767 -1.9060
  175SAPS  H18S19955   6.999   2.764   5.292 -0.0665  0.9257  0.8834
  175SAPS  C21919956   6.967   2.976   5.342  0.0055  0.6388 -0.9151
  175SAPS  H19R19957   6.857   2.968   5.340 -0.2010  2.1967  0.9762
  175SAPS  H19S19958   6.982   3.074   5.291  2.7886  0.5788 -0.3686
  175SAPS  C22019959   7.009   2.978   5.492  0.3186 -0.1415  0.4356
  175SAPS  H20R19960   7.119   2.967   5.503  0.1366 -0.5352  2.1957
  175SAPS  H20S19961   6.957   2.893   5.542  0.9367  0.1300  1.5741
  175SAPS  H20T19962   6.981   3.077   5.533  3.4297  1.9195 -1.9649
  175SAPS   C3319963   6.599   2.881   4.280  0.0941 -0.9082  0.4378
  175SAPS   H3X19964   6.489   2.890   4.292  0.2659  0.1747  1.4812
  175SAPS   H3Y19965   6.634   2.981   4.246 -0.4753 -1.7435 -2.8989
  175SAPS   C3419966   6.661   2.833   4.409  0.3784  0.1274 -0.0351
  175SAPS   H4X19967   6.771   2.829   4.396  0.4539 -1.2694  0.8110
  175SAPS   H4Y19968   6.634   2.729   4.438 -0.9116  1.3663  3.9440
  175SAPS   C3519969   6.633   2.922   4.527 -0.6282 -0.6596  0.0587
  175SAPS   H5X19970   6.531   2.894   4.560 -1.0644 -0.2922 -0.9335
  175SAPS   H5Y19971   6.625   3.029   4.496  0.5288 -1.1189 -2.0003
  175SAPS   C3619972   6.740   2.903   4.645  0.1176  0.1554  0.5435
  175SAPS   H6X19973   6.841   2.891   4.602 -0.1580 -4.6214  0.7582
  175SAPS   H6Y19974   6.714   2.811   4.701  0.9945 -0.6163 -0.2885
  175SAPS   C3719975   6.725   3.026   4.741 -0.5973  0.2500  0.1615
  175SAPS   H7X19976   6.622   3.035   4.780 -0.0120 -0.2770  1.9264
  175SAPS   H7Y19977   6.734   3.115   4.674  1.3586 -1.6483 -2.3073
  175SAPS   C3819978   6.823   3.026   4.861 -0.3875 -0.3927 -0.6397
  175SAPS   H8X19979   6.926   3.042   4.825  0.8547 -1.3307  2.2153
  175SAPS   H8Y19980   6.828   2.929   4.915 -0.8999  0.1852  0.5021
  175SAPS   C3919981   6.778   3.134   4.959  0.4116  0.4693 -0.1198
  175SAPS   H9X19982   6.730   3.220   4.908 -0.4660  1.7741  2.6913
  175SAPS   H9Y19983   6.864   3.169   5.020 -0.4403  0.3862  1.1889
  175SAPS  C31019984   6.678   3.076   5.057 -0.0283 -0.5847 -1.1626
  175SAPS  H10X19985   6.714   2.980   5.099  1.8102  0.0612 -1.1485
  175SAPS  H10Y19986   6.579   3.057   5.011 -0.2567  3.3181 -2.7135
  175SAPS  C31119987   6.649   3.171   5.177  0.0148 -0.9124  0.3065
  175SAPS  H11X19988   6.746   3.196   5.227  1.3346 -2.3048 -1.4019
  175SAPS  H11Y19989   6.575   3.128   5.248 -1.9712 -0.8445 -1.6328
  175SAPS  C31219990   6.582   3.301   5.136 -0.3344 -0.3305 -0.1745
  175SAPS  H12X19991   6.494   3.284   5.071  0.2120 -1.0399 -0.7490
  175SAPS  H12Y19992   6.654   3.355   5.071  0.7879  0.6613  1.7868
  175SAPS  C31319993   6.524   3.379   5.254 -0.3262  0.0796  0.5190
  175SAPS  H13X19994   6.539   3.486   5.225 -2.8214 -0.1460 -2.0125
  175SAPS  H13Y19995   6.571   3.364   5.353  0.2017 -0.2323  0.2275
  175SAPS  C31419996   6.380   3.364   5.296  0.7355  0.1087  0.3207
  175SAPS  H14X19997   6.371   3.254   5.304  0.4696  0.1825  1.1252
  175SAPS  H14Y19998   6.304   3.387   5.219  1.1482 -1.3316 -0.5332
  175SAPS  C31519999   6.354   3.440   5.430  0.1342 -0.0767  0.2658
  175SAPS  H15X20000   6.404   3.539   5.418 -0.5421  0.4545  1.5529
  175SAPS  H15Y20001   6.413   3.392   5.511 -1.2060 -0.0063  1.3214
  175SAPS  C31620002   6.203   3.446   5.467  0.8923 -0.8682  0.1820
  175SAPS  H16X20003   6.153   3.348   5.462  0.2501 -0.5119 -0.7618
  175SAPS  H16Y20004   6.159   3.504   5.383 -0.3693  0.6799  1.8338
  175SAPS  C31720005   6.179   3.549   5.578 -0.1913  0.1220  0.2264
  175SAPS  H17X20006   6.209   3.650   5.542 -1.0655  0.0179 -0.8656
  175SAPS  H17Y20007   6.251   3.523   5.658  0.0917 -2.3647 -0.7312
  175SAPS  C31820008   6.040   3.547   5.643  0.0346  0.2469  0.2993
  175SAPS  H18X20009   6.028   3.606   5.736 -2.1493 -1.8255  1.4237
  175SAPS  H18Y20010   6.003   3.445   5.663  0.9866 -0.1287  0.1946
  175SAPS  H18Z20011   5.972   3.598   5.571  0.9674  0.5777 -0.3699
  176SAPS     N20012   1.542   1.595   3.161  0.5044 -0.5657  0.2001
  176SAPS   HN120013   1.468   1.654   3.118 -0.2023 -1.8452 -0.3879
  176SAPS   HN220014   1.494   1.522   3.215 -3.3949  1.3837 -0.2964
  176SAPS   HN320015   1.598   1.658   3.222  0.2143  0.0071 -0.1164
  176SAPS   C1220016   1.622   1.536   3.051 -0.4507  0.0400 -0.7966
  176SAPS  H12A20017   1.679   1.453   3.088 -1.2521 -0.8502 -1.5101
  176SAPS   C1320018   1.539   1.493   2.934 -0.2444 -0.1367  0.5306
  176SAPS  O13A20019   1.423   1.530   2.915  0.7214  0.2240 -0.9961
  176SAPS  O13B20020   1.596   1.414   2.852  0.3931  0.0318 -0.0476
  176SAPS   C1120021   1.729   1.640   3.001 -0.1608  0.1605  0.9156
  176SAPS  H11A20022   1.689   1.738   2.967 -1.1657  0.1258  1.9238
  176SAPS  H11B20023   1.785   1.591   2.918  0.4520 -1.2992  2.1394
  176SAPS     P20024   1.823   1.789   3.200  0.3258 -0.3082  0.1070
  176SAPS   O1320025   1.838   1.906   3.110 -0.2813  0.1501  0.4226
  176SAPS   O1420026   1.701   1.786   3.281  0.9273  0.6136  0.1040
  176SAPS   O1220027   1.819   1.662   3.105  0.3561 -0.6095 -0.5225
  176SAPS   O1120028   1.947   1.780   3.293 -1.2122 -0.2709 -0.1703
  176SAPS    C120029   1.987   1.655   3.345  0.1626  0.5288  0.1315
  176SAPS    HA20030   1.924   1.567   3.323 -0.5982  0.9408  0.6136
  176SAPS    HB20031   2.091   1.634   3.313 -0.2669 -0.3271 -0.7356
  176SAPS    C220032   1.992   1.669   3.505  0.6559 -0.6046 -0.4414
  176SAPS    HS20033   1.887   1.654   3.538  0.8226 -0.0113  0.3874
  176SAPS   O2120034   2.059   1.797   3.540  0.4659  0.0786 -0.2087
  176SAPS   C2120035   1.974   1.886   3.594 -0.3910  0.9921  0.4124
  176SAPS   O2220036   1.857   1.873   3.594  0.7780 -0.4681  0.0291
  176SAPS   C2220037   2.044   2.013   3.636 -0.2040  0.0895  0.2266
  176SAPS   H2R20038   2.091   2.053   3.543  0.6618 -2.4779 -0.5154
  176SAPS   H2S20039   1.964   2.075   3.681 -2.7990 -2.1824 -0.9960
  176SAPS    C320040   2.069   1.545   3.574  0.4938  0.0799  0.8116
  176SAPS    HX20041   2.175   1.559   3.545  0.0219 -1.1047 -1.8749
  176SAPS    HY20042   2.031   1.452   3.526 -0.7229  1.4289 -1.0036
  176SAPS   O3120043   2.061   1.538   3.718 -0.2220  0.4124  0.3553
  176SAPS   C3120044   1.960   1.478   3.766  0.3532  0.1827 -0.8847
  176SAPS   O3220045   1.886   1.396   3.711  0.0057 -0.4085 -0.3161
  176SAPS   C3220046   1.950   1.524   3.917  0.0551  0.0792  0.0996
  176SAPS   H2X20047   1.901   1.623   3.923  0.0157 -0.0007  1.6425
  176SAPS   H2Y20048   2.055   1.533   3.952  1.0523 -0.8196 -2.4778
  176SAPS   C2320049   2.153   1.972   3.735 -0.5415 -0.0637  0.2109
  176SAPS   H3R20050   2.211   2.059   3.775  3.1866 -2.1518 -0.1356
  176SAPS   H3S20051   2.237   1.928   3.677 -2.8267 -1.7520 -1.9806
  176SAPS   C2420052   2.127   1.873   3.851 -0.0923 -0.6951 -0.3215
  176SAPS   H4R20053   2.067   1.782   3.830 -1.7498  0.4433 -0.7670
  176SAPS   H4S20054   2.049   1.931   3.905 -0.9518  0.0480 -2.2621
  176SAPS   C2520055   2.251   1.840   3.921  0.2643  0.4212 -0.4321
  176SAPS   H5R20056   2.334   1.804   3.859  1.5316  1.4671  0.5956
  176SAPS   C2620057   2.264   1.835   4.057 -0.1129  0.7667 -0.3006
  176SAPS   H6R20058   2.365   1.808   4.092  0.2638  1.8532 -0.4963
  176SAPS   C2720059   2.160   1.877   4.164 -0.5326  0.2156 -0.4648
  176SAPS   H7R20060   2.090   1.791   4.166 -0.4700  0.1298 -1.3222
  176SAPS   H7S20061   2.111   1.976   4.149 -0.5024  0.5117  1.2078
  176SAPS   C2820062   2.221   1.867   4.300  0.6949  0.5274 -0.3438
  176SAPS   H8R20063   2.319   1.821   4.319  0.6937  0.2482 -0.9996
  176SAPS   C2920064   2.172   1.936   4.410 -0.4306 -0.1955 -0.3685
  176SAPS   H9R20065   2.217   1.926   4.510 -3.8117 -1.2623  1.1987
  176SAPS  C21020066   2.041   2.015   4.410 -0.8882 -0.1580  0.2038
  176SAPS  H10R20067   1.999   2.027   4.308 -0.8490  2.9719  0.4404
  176SAPS  H10S20068   2.061   2.121   4.439  0.1755  0.8868 -3.7499
  176SAPS  C21120069   1.932   1.974   4.499  0.3166  0.0353  1.0477
  176SAPS  H11R20070   1.867   1.902   4.448 -0.0158  0.2168  1.2127
  176SAPS  C21220071   1.912   1.995   4.631  0.5822 -0.3098 -0.4274
  176SAPS  H12R20072   1.832   1.938   4.680  0.9375  1.0326  1.8591
  176SAPS  C21320073   2.008   2.073   4.719  0.2281  0.0540  0.1310
  176SAPS  H13R20074   2.106   2.082   4.669  0.9286 -1.6514  1.0931
  176SAPS  H13S20075   2.027   2.023   4.817 -3.5579  0.6367  1.3478
  176SAPS  C21420076   1.935   2.206   4.732 -0.8938 -0.1375 -0.5967
  176SAPS  H14R20077   1.935   2.269   4.642 -1.6509 -0.3948 -0.7823
  176SAPS  C21520078   1.896   2.257   4.848 -0.5715 -0.3041 -0.0480
  176SAPS  H15R20079   1.851   2.357   4.839  0.0592 -0.1423 -1.8586
  176SAPS  C21620080   1.911   2.202   4.984  0.1078  0.1026  0.2714
  176SAPS  H16R20081   1.899   2.283   5.059  0.8885  2.1314 -1.6660
  176SAPS  H16S20082   2.012   2.159   4.999  0.7261  1.1749 -0.6279
  176SAPS  C21720083   1.804   2.098   5.012  0.9452  0.7754 -0.2579
  176SAPS  H17R20084   1.834   2.000   4.968  0.3748 -0.0195  1.0800
  176SAPS  H17S20085   1.711   2.118   4.955  0.1645 -0.3407  0.5710
  176SAPS  C21820086   1.790   2.075   5.162  0.5091 -0.2455 -0.8787
  176SAPS  H18R20087   1.708   2.001   5.173  1.5376 -1.5253 -1.4476
  176SAPS  H18S20088   1.748   2.171   5.200  0.7577 -0.0398 -1.1175
  176SAPS  C21920089   1.914   2.033   5.233  0.6691 -0.2453  0.2591
  176SAPS  H19R20090   2.005   2.089   5.202  1.7464 -2.7008 -1.3937
  176SAPS  H19S20091   1.941   1.930   5.199 -0.3556 -1.1022  1.9263
  176SAPS  C22020092   1.902   2.040   5.387 -0.0998 -0.3776 -0.2751
  176SAPS  H20R20093   1.801   1.998   5.405  0.1685 -0.5981  0.8102
  176SAPS  H20S20094   1.899   2.146   5.423 -0.0599 -0.4708  0.0105
  176SAPS  H20T20095   1.989   1.986   5.430  0.0481 -0.4888 -0.7119
  176SAPS   C3320096   1.878   1.428   4.014  0.4301 -0.6171 -0.2796
  176SAPS   H3X20097   1.890   1.323   3.980  0.9653 -1.2551  1.7188
  176SAPS   H3Y20098   1.775   1.469   4.012  0.6833 -0.0046 -1.0353
  176SAPS   C3420099   1.943   1.435   4.150 -0.5242  0.0051  0.0048
  176SAPS   H4X20100   1.994   1.532   4.169 -1.2565  0.4477 -0.2363
  176SAPS   H4Y20101   2.024   1.359   4.151  1.5787  2.1173  0.0747
  176SAPS   C3520102   1.851   1.412   4.274 -0.5286  0.6113  0.0999
  176SAPS   H5X20103   1.791   1.319   4.258 -0.7156  0.9476 -1.2760
  176SAPS   H5Y20104   1.777   1.494   4.283 -1.1190 -0.0106  1.0370
  176SAPS   C3620105   1.927   1.403   4.404 -0.4935 -0.1524 -0.1606
  176SAPS   H6X20106   1.997   1.317   4.406 -1.4805 -0.9680  1.5314
  176SAPS   H6Y20107   1.847   1.375   4.475  0.7549  0.6768  1.6554
  176SAPS   C3720108   2.010   1.526   4.442 -0.4416 -0.1448 -0.0037
  176SAPS   H7X20109   1.946   1.615   4.429 -1.8553 -1.1348 -0.0476
  176SAPS   H7Y20110   2.089   1.530   4.363 -1.6305  0.5751 -1.1931
  176SAPS   C3820111   2.058   1.517   4.584  0.0982  1.0583 -0.0439
  176SAPS   H8X20112   2.122   1.426   4.586 -1.3956 -0.0834 -1.1799
  176SAPS   H8Y20113   1.973   1.495   4.652  0.4101 -0.1595 -0.0311
  176SAPS   C3920114   2.143   1.631   4.632 -0.0448 -0.5671  0.7439
  176SAPS   H9X20115   2.088   1.726   4.613  1.8437  0.7437  1.5994
  176SAPS   H9Y20116   2.240   1.638   4.579  1.2011 -0.7131  2.9321
  176SAPS  C31020117   2.180   1.625   4.784  0.2339  0.5752  0.3568
  176SAPS  H10X20118   2.263   1.553   4.801 -1.1406 -0.9079  1.0880
  176SAPS  H10Y20119   2.092   1.581   4.835 -0.4989 -0.4201 -1.6391
  176SAPS  C31120120   2.226   1.755   4.848  0.0239 -0.5116  0.2808
  176SAPS  H11X20121   2.153   1.833   4.815  2.0874  0.8272 -1.2927
  176SAPS  H11Y20122   2.326   1.790   4.818  0.2884  0.0743  1.7219
  176SAPS  C31220123   2.231   1.766   5.002 -0.0566  0.2359  0.1116
  176SAPS  H12X20124   2.293   1.680   5.036 -2.4300 -3.3550 -3.6688
  176SAPS  H12Y20125   2.129   1.741   5.038 -0.8814 -1.5348 -3.0868
  176SAPS  C31320126   2.271   1.907   5.042  0.2476  0.7924 -0.0293
  176SAPS  H13X20127   2.179   1.968   5.029  0.4322  0.7864 -1.6091
  176SAPS  H13Y20128   2.344   1.940   4.965 -0.3207  0.6419 -0.6450
  176SAPS  C31420129   2.316   1.915   5.190 -0.0072  0.0816  0.3627
  176SAPS  H14X20130   2.412   1.860   5.201 -0.9393 -1.2944  2.2045
  176SAPS  H14Y20131   2.246   1.851   5.247 -1.9008  0.2951 -1.6170
  176SAPS  C31520132   2.340   2.055   5.247 -0.0330  0.3055  0.4519
  176SAPS  H15X20133   2.247   2.113   5.227  0.9952  1.6148 -0.7283
  176SAPS  H15Y20134   2.422   2.094   5.182  0.3070  0.7025  1.1153
  176SAPS  C31620135   2.379   2.054   5.391 -0.3397 -0.4540 -0.2777
  176SAPS  H16X20136   2.489   2.035   5.398  0.3160  1.9824 -2.3420
  176SAPS  H16Y20137   2.322   1.970   5.435  0.2463 -0.4644  0.4799
  176SAPS  C31720138   2.344   2.180   5.471 -0.5127  0.3201  0.0910
  176SAPS  H17X20139   2.233   2.176   5.482 -0.4842 -1.7639 -0.0409
  176SAPS  H17Y20140   2.366   2.271   5.410  1.8570  0.5772  1.2328
  176SAPS  C31820141   2.418   2.195   5.607 -0.2550 -0.3914  0.2175
  176SAPS  H18X20142   2.402   2.107   5.673 -2.5623 -0.4054 -0.2878
  176SAPS  H18Y20143   2.377   2.281   5.664  0.7030 -1.2360  2.3020
  176SAPS  H18Z20144   2.528   2.201   5.594  0.0087  1.5754  2.5872
  177SAPS     N20145   6.068   6.536   3.504  0.2393 -0.2971 -0.3240
  177SAPS   HN120146   6.167   6.556   3.528  0.6325  0.8450 -2.5735
  177SAPS   HN220147   6.016   6.609   3.556 -1.4732  0.0972 -2.4300
  177SAPS   HN320148   6.041   6.440   3.535 -1.8437 -0.3115 -1.9232
  177SAPS   C1220149   6.049   6.540   3.361 -0.2699  1.0030 -0.0427
  177SAPS  H12A20150   6.033   6.637   3.319 -1.2067 -0.4634 -3.3855
  177SAPS   C1320151   6.162   6.475   3.276  0.2247 -0.0815 -0.1573
  177SAPS  O13A20152   6.267   6.422   3.327 -0.7653  1.2272 -0.8852
  177SAPS  O13B20153   6.151   6.493   3.151 -0.0422  0.2500 -0.5322
  177SAPS   C1120154   5.910   6.470   3.343  0.4929 -0.8330 -0.1841
  177SAPS  H11A20155   5.919   6.363   3.373 -2.0487 -1.4573 -1.3096
  177SAPS  H11B20156   5.894   6.459   3.233  0.5414 -1.7081 -0.1127
  177SAPS     P20157   5.664   6.468   3.431  0.0988 -0.5964  0.1335
  177SAPS   O1320158   5.554   6.562   3.409  0.2614  0.1624 -0.2081
  177SAPS   O1420159   5.668   6.340   3.349  0.2906  0.5055  0.3440
  177SAPS   O1220160   5.806   6.540   3.415  0.6614 -0.8006 -0.0366
  177SAPS   O1120161   5.662   6.421   3.578  0.4988 -0.5769  0.0724
  177SAPS    C120162   5.681   6.526   3.681 -0.4283 -0.1251  0.4449
  177SAPS    HA20163   5.785   6.566   3.683 -0.4517  0.0400 -0.7767
  177SAPS    HB20164   5.605   6.606   3.677 -0.6714 -0.3468  0.5924
  177SAPS    C220165   5.669   6.455   3.817  0.2391 -0.2626  0.6644
  177SAPS    HS20166   5.646   6.537   3.888  0.7119 -0.4492  1.0419
  177SAPS   O2120167   5.790   6.381   3.843 -0.0165  0.1469  0.4093
  177SAPS   C2120168   5.888   6.442   3.896 -0.3023 -0.2306 -0.0454
  177SAPS   O2220169   5.896   6.567   3.905  0.0085  0.2039  0.3781
  177SAPS   C2220170   6.007   6.345   3.934  0.4243  0.4358  0.2108
  177SAPS   H2R20171   5.974   6.239   3.927  4.0464 -1.0099  2.2837
  177SAPS   H2S20172   6.084   6.358   3.855  0.5188  1.2732  0.4281
  177SAPS    C320173   5.555   6.342   3.819  0.8568  0.6895 -0.4376
  177SAPS    HX20174   5.589   6.254   3.761 -0.3134 -1.1074  1.4651
  177SAPS    HY20175   5.469   6.386   3.763  0.4298  2.6652  1.6473
  177SAPS   O3120176   5.510   6.311   3.956  0.0483 -0.2512 -0.4623
  177SAPS   C3120177   5.532   6.188   3.998 -0.1041  0.4931 -0.0434
  177SAPS   O3220178   5.599   6.099   3.942  0.8274  0.0646 -0.3669
  177SAPS   C3220179   5.481   6.176   4.141 -0.1678  0.3970 -0.0633
  177SAPS   H2X20180   5.375   6.210   4.144 -0.8088 -1.5474  2.6447
  177SAPS   H2Y20181   5.546   6.233   4.211  0.1031 -0.5609  0.4766
  177SAPS   C2320182   6.068   6.381   4.074 -0.0317 -0.0020 -0.1153
  177SAPS   H3R20183   6.104   6.484   4.052 -0.9313  0.1992 -0.7090
  177SAPS   H3S20184   6.152   6.310   4.094 -0.9862 -1.6273 -1.5869
  177SAPS   C2420185   5.970   6.384   4.190  0.1497 -0.1083  0.7855
  177SAPS   H4R20186   5.897   6.460   4.155 -0.9704 -1.7566 -0.5832
  177SAPS   H4S20187   6.029   6.418   4.278  2.3804 -1.8790  0.0694
  177SAPS   C2520188   5.898   6.253   4.205 -0.6436 -0.5362  0.5464
  177SAPS   H5R20189   5.865   6.198   4.116  1.6514 -0.9092 -0.1481
  177SAPS   C2620190   5.872   6.188   4.320  0.4689 -0.2409 -0.2034
  177SAPS   H6R20191   5.832   6.087   4.307 -0.4617  0.2462 -1.3327
  177SAPS   C2720192   5.911   6.232   4.460  0.3311  0.8057 -1.1299
  177SAPS   H7R20193   5.846   6.188   4.538  1.8741  1.0539  0.3535
  177SAPS   H7S20194   5.907   6.343   4.472 -1.0699  0.6098  0.4722
  177SAPS   C2820195   6.053   6.199   4.490 -0.4885  0.1176  0.1967
  177SAPS   H8R20196   6.122   6.190   4.404  0.6229  1.3889  0.9279
  177SAPS   C2920197   6.107   6.182   4.616 -0.0278  0.7583 -0.7978
  177SAPS   H9R20198   6.215   6.160   4.626 -0.0907  0.5958 -0.5015
  177SAPS  C21020199   6.022   6.180   4.740  0.1448 -0.5903 -0.4115
  177SAPS  H10R20200   5.997   6.078   4.776 -1.6398  0.3019  1.0995
  177SAPS  H10S20201   5.921   6.227   4.735 -0.0884 -0.7802  1.5761
  177SAPS  C21120202   6.100   6.261   4.845  0.2793  0.1008  0.3604
  177SAPS  H11R20203   6.096   6.370   4.832 -0.1646 -0.1053 -1.5701
  177SAPS  C21220204   6.185   6.207   4.938 -0.4742 -0.5715 -0.5247
  177SAPS  H12R20205   6.233   6.273   5.012 -0.0631 -2.7420  1.2362
  177SAPS  C21320206   6.216   6.062   4.973 -0.3843 -0.0372 -0.4310
  177SAPS  H13R20207   6.319   6.034   4.943 -1.1823 -1.1229 -2.3653
  177SAPS  H13S20208   6.159   5.981   4.921  0.1498 -0.1759 -0.8096
  177SAPS  C21420209   6.199   6.029   5.126 -0.8870  0.3638 -0.0285
  177SAPS  H14R20210   6.291   6.006   5.183 -0.3165  0.9858 -0.6848
  177SAPS  C21520211   6.085   6.024   5.188  0.6987  0.3387 -0.0553
  177SAPS  H15R20212   6.086   6.011   5.297 -2.4060 -1.8093 -0.1618
  177SAPS  C21620213   5.944   6.041   5.138  0.4239  0.0237 -0.2305
  177SAPS  H16R20214   5.931   6.054   5.029 -3.4194 -0.8616 -0.0371
  177SAPS  H16S20215   5.897   6.130   5.187 -0.9199 -0.8587  0.1544
  177SAPS  C21720216   5.856   5.927   5.195  0.9766  0.4445 -0.3058
  177SAPS  H17R20217   5.749   5.943   5.169  0.3366  0.3067  2.0209
  177SAPS  H17S20218   5.855   5.927   5.306  0.3327 -1.7692 -0.2646
  177SAPS  C21820219   5.888   5.781   5.136 -0.2218 -0.2732  0.0334
  177SAPS  H18R20220   5.993   5.758   5.165 -1.1984 -3.4922  1.3602
  177SAPS  H18S20221   5.864   5.806   5.030  2.7122  1.1731 -0.4052
  177SAPS  C21920222   5.806   5.671   5.202 -0.0758  0.2313  0.5081
  177SAPS  H19R20223   5.818   5.578   5.141 -0.3857 -0.7643  1.9321
  177SAPS  H19S20224   5.697   5.691   5.195  0.2874  1.8296 -1.3705
  177SAPS  C22020225   5.846   5.638   5.346 -0.6987  0.1336  0.3524
  177SAPS  H20R20226   5.952   5.607   5.360 -0.5928  0.5593  0.5345
  177SAPS  H20S20227   5.789   5.564   5.407 -0.7753  1.7214  2.3397
  177SAPS  H20T20228   5.828   5.730   5.406 -0.2800  0.4688 -0.0320
  177SAPS   C3320229   5.509   6.036   4.189 -0.2517 -0.1613 -0.1318
  177SAPS   H3X20230   5.617   6.016   4.207  0.0370 -0.6611 -2.1290
  177SAPS   H3Y20231   5.464   5.963   4.118 -3.5815  3.5039 -2.1949
  177SAPS   C3420232   5.439   6.011   4.326 -0.2485  0.1665 -0.1922
  177SAPS   H4X20233   5.329   6.017   4.313 -0.3993  1.4229  1.3684
  177SAPS   H4Y20234   5.464   6.090   4.401  0.3879  1.6492 -1.9051
  177SAPS   C3520235   5.473   5.874   4.372  0.4315  0.5974 -0.0096
  177SAPS   H5X20236   5.584   5.864   4.375  0.6808  2.0441 -1.9053
  177SAPS   H5Y20237   5.451   5.795   4.297  0.0407  0.2655  0.4481
  177SAPS   C3620238   5.401   5.827   4.498 -0.1708  0.4976  0.1466
  177SAPS   H6X20239   5.295   5.821   4.468  0.0776  1.1585 -0.8866
  177SAPS   H6Y20240   5.423   5.890   4.587 -0.6135 -0.7858  1.2154
  177SAPS   C3720241   5.440   5.678   4.533 -0.1837 -0.1359 -0.3670
  177SAPS   H7X20242   5.544   5.683   4.572 -0.7513 -1.6994  1.5120
  177SAPS   H7Y20243   5.432   5.629   4.434  4.0066  0.6173 -1.2797
  177SAPS   C3820244   5.339   5.628   4.631  0.0754  0.0642 -0.3440
  177SAPS   H8X20245   5.340   5.517   4.632 -0.6172  0.0247 -1.5688
  177SAPS   H8Y20246   5.234   5.660   4.610 -0.3061  0.8110  2.3658
  177SAPS   C3920247   5.390   5.670   4.771  0.3560 -0.7926  0.7491
  177SAPS   H9X20248   5.397   5.781   4.767 -0.0548 -0.8058 -0.4029
  177SAPS   H9Y20249   5.494   5.630   4.774  1.2830  1.3858  4.0574
  177SAPS  C31020250   5.299   5.617   4.877  0.0641  0.4222  1.6247
  177SAPS  H10X20251   5.280   5.507   4.878  0.5257  0.3421  1.5017
  177SAPS  H10Y20252   5.198   5.659   4.856 -0.0029 -0.6822 -0.5648
  177SAPS  C31120253   5.350   5.654   5.017 -0.7600 -0.4377 -0.1054
  177SAPS  H11X20254   5.340   5.765   5.015  0.7488 -0.2855 -2.5110
  177SAPS  H11Y20255   5.458   5.644   5.040 -0.6285 -2.0441 -1.3087
  177SAPS  C31220256   5.271   5.590   5.127  0.3744  0.3380  0.0937
  177SAPS  H12X20257   5.279   5.481   5.109 -0.6246  0.2841 -0.0820
  177SAPS  H12Y20258   5.165   5.614   5.106  0.8756  1.6928 -1.0189
  177SAPS  C31320259   5.304   5.627   5.268  0.5813 -0.4000 -0.2178
  177SAPS  H13X20260   5.224   5.589   5.335 -0.3435  1.3364 -0.2639
  177SAPS  H13Y20261   5.304   5.738   5.277  0.6606 -0.3150 -1.2030
  177SAPS  C31420262   5.429   5.572   5.324 -0.5265  0.0929 -0.0552
  177SAPS  H14X20263   5.515   5.577   5.254 -0.2394  1.4467  0.3742
  177SAPS  H14Y20264   5.413   5.462   5.330  1.5195 -0.1823  1.1687
  177SAPS  C31520265   5.452   5.624   5.465 -0.2324  0.2010  0.0254
  177SAPS  H15X20266   5.522   5.548   5.505  1.9274  1.3999 -1.2670
  177SAPS  H15Y20267   5.359   5.622   5.525 -0.0899 -2.0554  0.2460
  177SAPS  C31620268   5.517   5.759   5.468  0.0146  0.0567 -0.0388
  177SAPS  H16X20269   5.465   5.839   5.411 -0.4021  1.5267  2.2688
  177SAPS  H16Y20270   5.612   5.762   5.410 -0.7624  0.9560 -1.3191
  177SAPS  C31720271   5.525   5.824   5.609  0.5612 -0.7005 -0.5657
  177SAPS  H17X20272   5.551   5.748   5.687 -0.2602 -1.0948 -0.6577
  177SAPS  H17Y20273   5.426   5.864   5.640  0.7455 -1.2188  0.8133
  177SAPS  C31820274   5.621   5.946   5.615  0.2668 -1.0093 -0.2308
  177SAPS  H18X20275   5.625   5.975   5.723  0.4450  1.0286 -0.7420
  177SAPS  H18Y20276   5.562   6.018   5.554 -0.0867 -2.1327 -1.2319
  177SAPS  H18Z20277   5.718   5.904   5.584 -0.1192 -0.7333 -1.8800
  178SAPS     N20278   2.237   6.820   3.097 -0.7528 -0.1945  0.0388
  178SAPS   HN120279   2.195   6.748   3.034 -2.4732  2.2935 -1.8243
  178SAPS   HN220280   2.340   6.803   3.106 -1.1356 -1.8997  2.5205
  178SAPS   HN320281   2.204   6.808   3.195  0.6966  1.4881  0.7876
  178SAPS   C1220282   2.219   6.956   3.031 -0.2880 -0.7996 -0.1415
  178SAPS  H12A20283   2.318   6.992   3.007 -0.0977 -1.9713 -1.2015
  178SAPS   C1320284   2.151   6.956   2.890  0.3224 -0.0793  0.3053
  178SAPS  O13A20285   2.100   6.846   2.851  0.1896 -0.0622  0.4255
  178SAPS  O13B20286   2.155   7.064   2.827  0.2811 -0.1817  0.3049
  178SAPS   C1120287   2.140   7.053   3.120 -0.4963 -0.3797 -0.3587
  178SAPS  H11A20288   2.132   7.156   3.078 -2.6433 -1.2807 -2.3830
  178SAPS  H11B20289   2.207   7.069   3.207 -0.4841 -0.2020 -0.3999
  178SAPS     P20290   1.925   7.053   3.264 -0.0608 -0.1144 -0.1780
  178SAPS   O1320291   1.858   7.177   3.221 -0.1838  1.1592  0.2182
  178SAPS   O1420292   1.833   6.939   3.301  0.2927  0.1484 -0.3239
  178SAPS   O1220293   2.016   6.998   3.152 -0.6297 -0.4276 -0.3742
  178SAPS   O1120294   2.027   7.090   3.378 -0.2442 -0.3890  0.2728
  178SAPS    C120295   2.088   7.207   3.429  0.3131 -0.1719 -0.6617
  178SAPS    HA20296   2.060   7.301   3.376 -2.0159  1.5146  3.1763
  178SAPS    HB20297   2.047   7.219   3.531 -0.6460 -0.7644 -0.9609
  178SAPS    C220298   2.246   7.205   3.447 -0.3648 -0.2609  0.8392
  178SAPS    HS20299   2.292   7.208   3.346 -2.0475 -0.9036  0.0203
  178SAPS   O2120300   2.288   7.086   3.517 -0.2822 -0.3735 -0.8278
  178SAPS   C2120301   2.415   7.050   3.502 -0.4961  1.0259  0.0354
  178SAPS   O2220302   2.485   7.091   3.411 -0.2301  0.1412  0.8087
  178SAPS   C2220303   2.461   6.953   3.611  0.2419  0.3072 -0.1213
  178SAPS   H2R20304   2.571   6.963   3.618  0.2508  1.3402 -1.4363
  178SAPS   H2S20305   2.417   6.966   3.713  0.0212 -1.0605 -0.0138
  178SAPS    C320306   2.294   7.337   3.512 -0.2635  0.6330 -0.0451
  178SAPS    HX20307   2.278   7.427   3.450 -0.8306  1.0276  0.6498
  178SAPS    HY20308   2.403   7.323   3.527 -0.4592 -0.2413  0.6822
  178SAPS   O3120309   2.234   7.363   3.643 -0.1322  0.1404  0.0800
  178SAPS   C3120310   2.279   7.313   3.758 -0.1919  0.2523 -0.4000
  178SAPS   O3220311   2.372   7.235   3.769 -0.0732  0.0484 -0.4779
  178SAPS   C3220312   2.194   7.361   3.873  0.2845  0.2156 -0.5785
  178SAPS   H2X20313   2.197   7.291   3.959 -2.6634 -0.5658 -0.9808
  178SAPS   H2Y20314   2.087   7.354   3.845  0.6151 -0.4137 -1.7281
  178SAPS   C2320315   2.423   6.804   3.574 -0.2235  0.2315 -0.0500
  178SAPS   H3R20316   2.483   6.768   3.487  0.5466  1.4638 -0.0522
  178SAPS   H3S20317   2.317   6.798   3.543 -0.0859 -0.0992 -0.4654
  178SAPS   C2420318   2.443   6.705   3.691 -0.3941 -0.7838  0.1252
  178SAPS   H4R20319   2.391   6.613   3.656 -0.3788 -0.1389 -1.6743
  178SAPS   H4S20320   2.381   6.741   3.776 -2.2544 -0.3371 -1.3507
  178SAPS   C2520321   2.592   6.676   3.717  0.0371  0.7188 -0.3842
  178SAPS   H5R20322   2.635   6.610   3.640 -0.5049  1.6320 -1.4933
  178SAPS   C2620323   2.664   6.717   3.829 -0.4968  0.9674  0.4508
  178SAPS   H6R20324   2.771   6.690   3.829 -0.7860 -0.2850 -1.3581
  178SAPS   C2720325   2.621   6.806   3.944 -0.5764  1.5262  0.0207
  178SAPS   H7R20326   2.613   6.734   4.028  0.8076  1.5949  0.2356
  178SAPS   H7S20327   2.520   6.846   3.917 -1.5838  0.3174  1.8222
  178SAPS   C2820328   2.710   6.927   3.968  0.6381  0.5167 -0.2781
  178SAPS   H8R20329   2.717   6.993   3.880 -0.1862 -0.1140 -0.8388
  178SAPS   C2920330   2.785   6.958   4.074 -0.5564  0.3129 -0.0845
  178SAPS   H9R20331   2.858   7.041   4.068 -0.6048  0.3774  0.2271
  178SAPS  C21020332   2.792   6.884   4.208  0.1547 -1.1992  0.0206
  178SAPS  H10R20333   2.703   6.821   4.228  0.2805 -1.2398  0.4696
  178SAPS  H10S20334   2.801   6.954   4.293  1.7808 -1.0735 -0.2237
  178SAPS  C21120335   2.916   6.802   4.206  0.1542  0.0348 -0.2390
  178SAPS  H11R20336   2.965   6.790   4.108 -1.3336  0.4532 -1.0583
  178SAPS  C21220337   2.979   6.756   4.314  0.4050 -0.8045  1.1749
  178SAPS  H12R20338   3.072   6.699   4.301 -0.6359 -2.3116 -0.0020
  178SAPS  C21320339   2.917   6.764   4.451 -0.7545 -0.3212  0.0118
  178SAPS  H13R20340   2.949   6.671   4.503 -2.4430 -0.1946  1.3895
  178SAPS  H13S20341   2.807   6.745   4.451 -0.8348  0.0651 -1.5259
  178SAPS  C21420342   2.961   6.884   4.541  0.3829  0.3121  0.8367
  178SAPS  H14R20343   3.062   6.925   4.525 -0.4175  1.9605 -0.3845
  178SAPS  C21520344   2.882   6.931   4.641 -0.2783 -0.1414  0.2159
  178SAPS  H15R20345   2.931   7.001   4.710 -1.0515 -0.3403  0.9754
  178SAPS  C21620346   2.743   6.891   4.693 -0.3969  0.7696 -0.2349
  178SAPS  H16R20347   2.680   6.873   4.603 -0.9273 -0.7320  0.4207
  178SAPS  H16S20348   2.691   6.977   4.740 -2.2200  1.9866 -4.0226
  178SAPS  C21720349   2.753   6.769   4.785 -0.1462 -0.4551 -0.3223
  178SAPS  H17R20350   2.831   6.796   4.859 -1.0125  0.4823  0.2954
  178SAPS  H17S20351   2.803   6.682   4.737  3.1895 -0.0805  2.1379
  178SAPS  C21820352   2.614   6.730   4.843 -0.7921  0.5259 -0.0434
  178SAPS  H18R20353   2.575   6.662   4.764  2.8000  2.2166 -3.6285
  178SAPS  H18S20354   2.555   6.825   4.850  2.6884  2.9223 -0.9129
  178SAPS  C21920355   2.625   6.656   4.980 -0.4589  0.3195  0.3462
  178SAPS  H19R20356   2.684   6.563   4.976 -2.7269 -1.1575 -1.7944
  178SAPS  H19S20357   2.526   6.613   5.006 -0.5577  1.2860  1.7025
  178SAPS  C22020358   2.681   6.741   5.095  0.7138  0.0167  0.6931
  178SAPS  H20R20359   2.786   6.713   5.121 -0.1995 -1.0833  3.6220
  178SAPS  H20S20360   2.620   6.720   5.185  0.3323  0.8466  0.6350
  178SAPS  H20T20361   2.680   6.850   5.074  0.8486 -0.0605  0.2860
  178SAPS   C3320362   2.233   7.500   3.926  0.3078 -0.0594  0.4041
  178SAPS   H3X20363   2.252   7.568   3.840 -0.4219 -1.7753 -1.1832
  178SAPS   H3Y20364   2.321   7.477   3.989  0.1240 -1.3936  0.2067
  178SAPS   C3420365   2.128   7.568   4.017  0.1253 -0.1602 -0.3861
  178SAPS   H4X20366   2.032   7.592   3.967  0.3227 -0.2639 -0.8207
  178SAPS   H4Y20367   2.175   7.667   4.035  0.0719  0.0397 -1.2983
  178SAPS   C3520368   2.097   7.492   4.144  0.1494  0.1463 -0.1732
  178SAPS   H5X20369   2.187   7.463   4.203  1.1865 -0.3507 -1.8991
  178SAPS   H5Y20370   2.055   7.389   4.134  1.7798 -0.6040  0.2834
  178SAPS   C3620371   2.000   7.563   4.245  0.2860  0.6247  0.5354
  178SAPS   H6X20372   1.972   7.475   4.308 -1.3862  0.5230 -0.2887
  178SAPS   H6Y20373   1.906   7.606   4.204 -0.0547 -0.2158  0.3992
  178SAPS   C3720374   2.068   7.666   4.342  0.2584 -0.1010  0.1505
  178SAPS   H7X20375   2.113   7.741   4.273  0.6713 -1.5009 -1.1681
  178SAPS   H7Y20376   2.148   7.609   4.394 -1.7030 -2.9550  0.2238
  178SAPS   C3820377   1.977   7.731   4.444 -0.3056  0.1931 -0.1983
  178SAPS   H8X20378   2.016   7.712   4.546  1.3496  0.8553 -0.6725
  178SAPS   H8Y20379   1.883   7.673   4.433  0.3975 -0.8551 -0.8437
  178SAPS   C3920380   1.944   7.877   4.420  0.3937 -0.1234 -0.2802
  178SAPS   H9X20381   1.868   7.889   4.339  1.4641 -0.1445 -1.3066
  178SAPS   H9Y20382   2.037   7.931   4.394  0.1666 -0.2901 -1.4806
  178SAPS  C31020383   1.893   7.956   4.541  0.6304  0.1674 -0.2706
  178SAPS  H10X20384   1.809   7.899   4.586 -0.6441  0.8641 -1.7107
  178SAPS  H10Y20385   1.856   8.052   4.501  0.0475  1.0647  2.2539
  178SAPS  C31120386   1.991   7.993   4.648 -0.6134 -0.4402 -0.3914
  178SAPS  H11X20387   2.071   8.055   4.603  0.2024 -2.1391 -1.3853
  178SAPS  H11Y20388   2.040   7.899   4.681  0.2505  0.2420  0.3275
  178SAPS  C31220389   1.939   8.081   4.767 -0.8457  0.1774  0.5059
  178SAPS  H12X20390   1.844   8.036   4.802  0.4837 -3.5436 -0.2288
  178SAPS  H12Y20391   1.897   8.170   4.715 -0.0908  0.6542  0.6878
  178SAPS  C31320392   2.049   8.097   4.874  0.7542 -0.0429 -0.5410
  178SAPS  H13X20393   2.142   8.128   4.822 -0.4465  1.2309 -2.0508
  178SAPS  H13Y20394   2.054   7.996   4.920 -1.8979 -0.4011 -0.8520
  178SAPS  C31420395   1.999   8.206   4.971  0.4727 -0.3121 -0.3375
  178SAPS  H14X20396   1.897   8.189   5.011 -0.0706  0.2907 -1.4491
  178SAPS  H14Y20397   1.990   8.300   4.912  3.9465  0.0416 -0.5277
  178SAPS  C31520398   2.096   8.232   5.084 -0.4582 -0.4941  0.0399
  178SAPS  H15X20399   2.079   8.335   5.120 -0.9515  0.5171 -2.8262
  178SAPS  H15Y20400   2.199   8.226   5.042 -0.8559 -2.3757 -0.7789
  178SAPS  C31620401   2.081   8.139   5.199  0.4254  0.0177 -0.1280
  178SAPS  H16X20402   2.067   8.032   5.173  0.8336 -0.5049  1.7154
  178SAPS  H16Y20403   1.989   8.156   5.259  0.4590 -3.1359  0.9905
  178SAPS  C31720404   2.201   8.156   5.296 -0.2168  0.1096  1.0420
  178SAPS  H17X20405   2.212   8.265   5.313  1.2074  0.3104 -0.8020
  178SAPS  H17Y20406   2.296   8.128   5.245 -1.4977 -3.8129  0.4116
  178SAPS  C31820407   2.193   8.075   5.418 -0.1008 -0.9655  0.5650
  178SAPS  H18X20408   2.174   7.968   5.397 -0.2180 -0.9980  0.8305
  178SAPS  H18Y20409   2.106   8.102   5.482  0.4748 -2.2199  1.9080
  178SAPS  H18Z20410   2.283   8.069   5.482 -0.4296  0.6776  1.2419
  179SAPS     N20411   4.321   2.468   3.056 -0.0756 -0.5183  0.3674
  179SAPS   HN120412   4.394   2.541   3.052 -0.5338 -0.0228  0.9725
  179SAPS   HN220413   4.301   2.455   3.157  2.1563  0.0100  0.9335
  179SAPS   HN320414   4.366   2.383   3.014  0.9598  0.0787  0.2417
  179SAPS   C1220415   4.203   2.510   2.982 -0.4139 -0.4601  1.1649
  179SAPS  H12A20416   4.242   2.568   2.900  0.3079  1.7166  2.9373
  179SAPS   C1320417   4.117   2.394   2.939 -0.0617 -0.4937  0.1775
  179SAPS  O13A20418   4.145   2.273   2.953 -0.0424  0.3117 -0.3165
  179SAPS  O13B20419   4.009   2.431   2.879  0.3197  0.2477  0.0549
  179SAPS   C1120420   4.129   2.616   3.068 -0.0644 -0.1975  0.5850
  179SAPS  H11A20421   4.104   2.573   3.168  0.0539  2.0428  1.6462
  179SAPS  H11B20422   4.039   2.640   3.008  1.4469  0.8828 -1.3651
  179SAPS     P20423   4.162   2.879   3.081  0.3713  0.0551  0.5692
  179SAPS   O1320424   4.225   2.942   2.958 -0.9980 -0.1613 -0.4166
  179SAPS   O1420425   4.017   2.882   3.084  0.0809 -0.5006  0.1440
  179SAPS   O1220426   4.210   2.727   3.084 -0.3383  0.1552  0.4211
  179SAPS   O1120427   4.222   2.943   3.209 -0.1139 -0.1176 -0.6311
  179SAPS    C120428   4.266   2.868   3.325 -0.4398  0.2141  0.3685
  179SAPS    HA20429   4.331   2.790   3.278  3.1730  2.8493  0.5881
  179SAPS    HB20430   4.331   2.934   3.386 -0.1916 -1.2991  1.8013
  179SAPS    C220431   4.145   2.814   3.408  0.4268  0.8573  0.8143
  179SAPS    HS20432   4.089   2.756   3.331  0.5934  0.7727  0.7574
  179SAPS   O2120433   4.060   2.923   3.457  0.6000  0.2993 -0.1594
  179SAPS   C2120434   3.945   2.869   3.504 -0.0576  0.4004  0.4579
  179SAPS   O2220435   3.917   2.749   3.499  0.0522  0.3366 -0.3945
  179SAPS   C2220436   3.847   2.980   3.555 -0.1053  0.0381  0.2483
  179SAPS   H2R20437   3.769   2.988   3.477  1.2181 -0.6587 -1.1918
  179SAPS   H2S20438   3.799   2.945   3.649 -0.0212 -0.6514  0.0359
  179SAPS    C320439   4.195   2.721   3.526 -0.5641  0.0468  0.2925
  179SAPS    HX20440   4.252   2.640   3.476  2.7938  0.7253  2.6348
  179SAPS    HY20441   4.113   2.681   3.589 -0.2681 -0.1178  0.5761
  179SAPS   O3120442   4.288   2.795   3.606 -0.3208  0.3374 -0.1762
  179SAPS   C3120443   4.234   2.874   3.696 -0.2700 -0.2652 -0.4815
  179SAPS   O3220444   4.125   2.857   3.747  0.3318 -0.6700 -0.2558
  179SAPS   C3220445   4.335   2.991   3.715 -0.2111  0.4848 -0.0437
  179SAPS   H2X20446   4.374   3.022   3.616 -0.0294  3.2028  0.8073
  179SAPS   H2Y20447   4.418   2.943   3.771  0.8318 -1.2275 -2.8481
  179SAPS   C2320448   3.893   3.128   3.572  0.4833  0.3498 -0.4144
  179SAPS   H3R20449   3.925   3.173   3.476  1.0329  1.2404  0.1815
  179SAPS   H3S20450   3.984   3.134   3.635 -0.1946  1.6118  0.4791
  179SAPS   C2420451   3.784   3.220   3.629  0.0049 -0.6824  0.4793
  179SAPS   H4R20452   3.741   3.186   3.725  0.1384 -1.3377  0.3089
  179SAPS   H4S20453   3.701   3.230   3.556  1.1708  1.3526 -0.6754
  179SAPS   C2520454   3.832   3.367   3.642 -0.1332  0.3880 -0.0253
  179SAPS   H5R20455   3.798   3.441   3.568  0.3217  2.4068  1.6948
  179SAPS   C2620456   3.897   3.415   3.753 -0.5252  0.1069  0.4932
  179SAPS   H6R20457   3.902   3.525   3.765 -1.4087  0.0274  1.6903
  179SAPS   C2720458   3.931   3.332   3.878  0.3262  0.4376  0.3018
  179SAPS   H7R20459   4.039   3.344   3.900  0.4978  1.7968 -1.1447
  179SAPS   H7S20460   3.907   3.223   3.876 -0.7187  0.6280 -2.7696
  179SAPS   C2820461   3.859   3.395   4.001 -0.1107  0.2957 -0.6005
  179SAPS   H8R20462   3.907   3.488   4.034  1.6080 -0.7200 -0.1046
  179SAPS   C2920463   3.731   3.376   4.053 -0.1352  0.4925 -0.6603
  179SAPS   H9R20464   3.711   3.426   4.148  0.3501 -1.9155  0.7997
  179SAPS  C21020465   3.618   3.281   4.004  0.1712 -0.1569 -0.0615
  179SAPS  H10R20466   3.559   3.239   4.089  1.6956  0.3562  1.3119
  179SAPS  H10S20467   3.661   3.187   3.963  1.1104  0.3852 -0.3640
  179SAPS  C21120468   3.531   3.352   3.905 -0.7707  0.7246  0.1373
  179SAPS  H11R20469   3.581   3.422   3.837  0.5406  1.0926  1.4285
  179SAPS  C21220470   3.403   3.347   3.901 -0.0308  0.3779  0.1180
  179SAPS  H12R20471   3.347   3.409   3.829  0.2973  0.9685  0.3602
  179SAPS  C21320472   3.313   3.267   3.992 -0.2260 -0.2578 -0.3029
  179SAPS  H13R20473   3.359   3.270   4.093 -1.4615  0.3005  0.2615
  179SAPS  H13S20474   3.319   3.158   3.972 -0.5174 -0.2430 -0.4711
  179SAPS  C21420475   3.174   3.315   4.007  0.4615 -0.4640  0.8973
  179SAPS  H14R20476   3.168   3.425   4.011  2.0764 -0.1774 -2.1087
  179SAPS  C21520477   3.058   3.253   4.030  0.2093  0.6075 -0.0635
  179SAPS  H15R20478   2.958   3.294   4.048  0.3140  0.9125 -0.1678
  179SAPS  C21620479   3.049   3.108   4.041  0.0948  0.1011 -0.0295
  179SAPS  H16R20480   3.148   3.058   4.042  0.7167  1.2731  1.3869
  179SAPS  H16S20481   2.991   3.064   3.958 -0.3230  1.5094 -0.5268
  179SAPS  C21720482   2.961   3.079   4.160  0.1593 -0.8878 -0.3916
  179SAPS  H17R20483   2.917   2.978   4.147 -0.9463 -0.5492  0.4734
  179SAPS  H17S20484   2.881   3.155   4.175  0.5327 -0.1116 -2.0615
  179SAPS  C21820485   3.039   3.069   4.296 -0.5290  0.3477  0.0771
  179SAPS  H18R20486   3.092   3.164   4.314 -0.1103 -0.2415  2.1196
  179SAPS  H18S20487   3.117   2.995   4.267  1.6307  1.7969  1.8443
  179SAPS  C21920488   2.952   3.038   4.413  1.0188 -0.2618 -0.0966
  179SAPS  H19R20489   2.986   2.962   4.487 -1.3359 -0.9307  0.3777
  179SAPS  H19S20490   2.858   3.004   4.365  0.4627 -3.8211  3.0027
  179SAPS  C22020491   2.925   3.157   4.506  0.1766  0.0929  0.1510
  179SAPS  H20R20492   3.020   3.207   4.535  1.2772 -1.2064 -1.0727
  179SAPS  H20S20493   2.877   3.128   4.602 -0.3437 -0.9584 -0.4066
  179SAPS  H20T20494   2.863   3.239   4.464 -0.8525  0.1369  1.6718
  179SAPS   C3320495   4.279   3.102   3.804  0.6896 -0.1459  0.4265
  179SAPS   H3X20496   4.243   3.071   3.905  1.3143 -1.0713  0.3755
  179SAPS   H3Y20497   4.189   3.152   3.761  0.5090  0.5080  1.5094
  179SAPS   C3420498   4.375   3.214   3.827 -0.3184 -0.0435  0.4218
  179SAPS   H4X20499   4.417   3.253   3.731 -0.7469  0.3583  0.3938
  179SAPS   H4Y20500   4.454   3.165   3.888  0.1844  0.6208  0.3236
  179SAPS   C3520501   4.319   3.333   3.898  0.2379  0.2639  0.0862
  179SAPS   H5X20502   4.244   3.299   3.974 -2.1184  2.3552 -1.1536
  179SAPS   H5Y20503   4.264   3.405   3.834 -1.4522  0.2059  1.3967
  179SAPS   C3620504   4.433   3.413   3.958 -0.1154  0.1134 -0.3126
  179SAPS   H6X20505   4.502   3.459   3.885 -0.7794 -0.4900 -1.3368
  179SAPS   H6Y20506   4.495   3.348   4.024  0.8073 -0.5544 -1.7839
  179SAPS   C3720507   4.378   3.532   4.045  0.7551  0.5976 -0.0154
  179SAPS   H7X20508   4.335   3.615   3.985  0.8192  1.7866  1.5156
  179SAPS   H7Y20509   4.462   3.571   4.106 -0.2061 -0.2667  1.9535
  179SAPS   C3820510   4.268   3.488   4.139 -0.0275 -0.3850  0.3246
  179SAPS   H8X20511   4.290   3.391   4.188 -0.7342 -0.4862  0.4485
  179SAPS   H8Y20512   4.167   3.467   4.097  0.7228 -0.6143 -1.4610
  179SAPS   C3920513   4.269   3.586   4.260 -0.0765  0.6626  0.6107
  179SAPS   H9X20514   4.244   3.685   4.216  0.0400  1.0331  1.3629
  179SAPS   H9Y20515   4.372   3.561   4.292  0.3077 -1.3898 -1.9677
  179SAPS  C31020516   4.149   3.546   4.347 -0.0011  0.3792  0.3323
  179SAPS  H10X20517   4.163   3.442   4.385  1.9466  0.2484 -0.6172
  179SAPS  H10Y20518   4.061   3.542   4.279  0.0711  1.9737  0.1085
  179SAPS  C31120519   4.129   3.643   4.450  0.2492 -0.2821 -0.4656
  179SAPS  H11X20520   4.123   3.745   4.405  0.0148 -0.7035 -1.4165
  179SAPS  H11Y20521   4.206   3.625   4.527  1.9025  1.2835 -1.6778
  179SAPS  C31220522   3.993   3.623   4.509 -0.4219  0.2685  0.2514
  179SAPS  H12X20523   3.994   3.523   4.557  1.4001  0.3987  0.5441
  179SAPS  H12Y20524   3.916   3.622   4.428 -2.4362  0.2838  2.0548
  179SAPS  C31320525   3.972   3.724   4.621  0.1595 -0.5289  0.4803
  179SAPS  H13X20526   3.869   3.727   4.661  0.6315 -1.0611  1.7817
  179SAPS  H13Y20527   3.979   3.828   4.582  0.1861 -0.5638  0.3919
  179SAPS  C31420528   4.077   3.709   4.739  0.4940  0.6463 -0.5742
  179SAPS  H14X20529   4.174   3.756   4.712  0.9319 -0.7064 -1.4492
  179SAPS  H14Y20530   4.094   3.602   4.764  0.9353  1.0787  1.0922
  179SAPS  C31520531   4.030   3.775   4.869 -0.0366 -0.2698  0.7693
  179SAPS  H15X20532   3.925   3.757   4.900 -0.8388  2.4240 -0.1030
  179SAPS  H15Y20533   4.035   3.886   4.866 -0.9087 -0.2284  0.4305
  179SAPS  C31620534   4.111   3.739   4.992  0.1078  0.0550 -0.2472
  179SAPS  H16X20535   4.215   3.767   4.966 -0.5769  3.5209  0.2177
  179SAPS  H16Y20536   4.092   3.633   5.017 -1.8055 -0.0813 -1.9795
  179SAPS  C31720537   4.053   3.809   5.119  0.0448 -0.4535 -0.8810
  179SAPS  H17X20538   3.943   3.794   5.120  0.1053 -0.9727 -1.7194
  179SAPS  H17Y20539   4.071   3.919   5.127 -1.2904 -0.2178 -0.9851
  179SAPS  C31820540   4.097   3.766   5.269 -0.5618 -0.2641  0.5837
  179SAPS  H18X20541   4.038   3.822   5.345  0.6269  0.7543  0.7937
  179SAPS  H18Y20542   4.196   3.812   5.289  1.1242 -3.6872  0.8447
  179SAPS  H18Z20543   4.092   3.657   5.292 -0.6438 -0.1116  1.3314
  180SAPS     N20544   5.484   4.184   2.884  0.2159  0.0378 -1.2860
  180SAPS   HN120545   5.465   4.128   2.969  2.3222  1.8031  0.4597
  180SAPS   HN220546   5.446   4.148   2.793 -1.7963  1.9062 -1.2707
  180SAPS   HN320547   5.588   4.189   2.883  0.4385 -1.6524  1.8413
  180SAPS   C1220548   5.424   4.314   2.911 -1.5442 -0.4478 -0.2122
  180SAPS  H12A20549   5.507   4.383   2.905 -0.0897 -2.2303 -1.4526
  180SAPS   C1320550   5.325   4.365   2.799 -0.1569  0.4503  0.2360
  180SAPS  O13A20551   5.304   4.294   2.699 -0.3130  0.0554  0.0539
  180SAPS  O13B20552   5.295   4.490   2.799  0.0886 -0.7584 -0.1455
  180SAPS   C1120553   5.369   4.321   3.053  0.5280  0.0780  0.0873
  180SAPS  H11A20554   5.296   4.237   3.055  2.8832 -2.1163  3.0178
  180SAPS  H11B20555   5.323   4.420   3.072 -0.2898 -0.2875  0.0515
  180SAPS     P20556   5.569   4.410   3.196  0.5452 -0.0030  0.1079
  180SAPS   O1320557   5.704   4.348   3.193  0.2581  0.2708  0.1401
  180SAPS   O1420558   5.553   4.543   3.129  0.0916 -1.0918 -0.2604
  180SAPS   O1220559   5.467   4.292   3.152 -0.4940  0.2720  0.1843
  180SAPS   O1120560   5.517   4.423   3.338 -0.0324 -0.1055 -0.2184
  180SAPS    C120561   5.486   4.308   3.424  0.0872 -0.3487  0.2397
  180SAPS    HA20562   5.402   4.322   3.495  1.3997 -2.4826  2.3804
  180SAPS    HB20563   5.468   4.212   3.369 -2.1074 -2.0069  3.5410
  180SAPS    C220564   5.611   4.274   3.508  0.1597 -0.2066 -0.4005
  180SAPS    HS20565   5.691   4.229   3.445 -1.5937 -2.5863 -1.0780
  180SAPS   O2120566   5.569   4.175   3.604 -0.1781  0.0555  0.2625
  180SAPS   C2120567   5.667   4.101   3.654 -1.4683  0.6683  0.3291
  180SAPS   O2220568   5.784   4.097   3.611 -0.2630  0.5818 -0.1698
  180SAPS   C2220569   5.622   4.020   3.779 -0.0386  0.3666 -0.2699
  180SAPS   H2R20570   5.561   4.079   3.851 -3.2976 -1.0078 -1.7018
  180SAPS   H2S20571   5.554   3.939   3.744  2.3516 -1.1848 -1.5477
  180SAPS    C320572   5.680   4.400   3.569 -0.1803 -0.1642 -0.0903
  180SAPS    HX20573   5.596   4.462   3.610  1.1980  0.1354  2.5356
  180SAPS    HY20574   5.728   4.462   3.491 -2.2428  2.0709  0.2875
  180SAPS   O3120575   5.764   4.371   3.687  0.0257 -0.4442 -0.3140
  180SAPS   C3120576   5.891   4.412   3.683 -0.0087  0.3341  0.2372
  180SAPS   O3220577   5.941   4.483   3.599 -0.7434  0.2514 -0.2398
  180SAPS   C3220578   5.967   4.356   3.806 -0.0706  0.8284 -0.2636
  180SAPS   H2X20579   5.986   4.247   3.795 -1.6631  0.1733  2.3932
  180SAPS   H2Y20580   5.890   4.362   3.886 -0.8756  0.0236 -0.9532
  180SAPS   C2320581   5.738   3.950   3.848 -0.4643  0.0045  1.2498
  180SAPS   H3R20582   5.817   4.025   3.870 -0.7151  0.7862 -0.3419
  180SAPS   H3S20583   5.779   3.882   3.771 -3.5764 -0.1353 -0.4566
  180SAPS   C2420584   5.699   3.879   3.970  0.8256 -0.8907  0.2929
  180SAPS   H4R20585   5.633   3.797   3.935  1.0122 -1.0795  0.3826
  180SAPS   H4S20586   5.627   3.933   4.037  3.7818  0.9171  2.2519
  180SAPS   C2520587   5.801   3.814   4.055 -0.1959 -0.5231 -0.5398
  180SAPS   H5R20588   5.900   3.806   4.006 -1.3455  0.0280 -3.1271
  180SAPS   C2620589   5.776   3.735   4.160 -0.4618  0.0744  0.9792
  180SAPS   H6R20590   5.859   3.702   4.225 -1.5151  0.4605  2.5641
  180SAPS   C2720591   5.646   3.708   4.224  0.3570 -0.0377  0.0321
  180SAPS   H7R20592   5.579   3.638   4.170 -0.7088  3.6040 -3.9539
  180SAPS   H7S20593   5.595   3.806   4.233  0.7764  0.0906  1.2418
  180SAPS   C2820594   5.666   3.647   4.365 -0.1719 -0.1292 -0.2138
  180SAPS   H8R20595   5.690   3.539   4.358 -1.2524 -0.2923 -2.4111
  180SAPS   C2920596   5.684   3.713   4.479 -0.8542  0.7762 -0.7826
  180SAPS   H9R20597   5.709   3.657   4.570  3.6624  2.1112 -0.9800
  180SAPS  C21020598   5.700   3.861   4.494 -0.3254  0.3198  0.3340
  180SAPS  H10R20599   5.618   3.907   4.434 -0.4710  0.1024  0.3637
  180SAPS  H10S20600   5.785   3.899   4.434 -1.1095 -0.0968 -1.1050
  180SAPS  C21120601   5.695   3.905   4.634 -0.0675 -0.0471 -0.2601
  180SAPS  H11R20602   5.789   3.904   4.691  0.0306  0.3878 -0.4074
  180SAPS  C21220603   5.582   3.934   4.698 -0.4918  0.2757 -0.5427
  180SAPS  H12R20604   5.585   3.956   4.806  0.1863  0.3424 -0.5706
  180SAPS  C21320605   5.443   3.946   4.647 -0.0091 -0.2910 -0.6819
  180SAPS  H13R20606   5.376   3.872   4.695  0.0861 -0.8591 -1.3941
  180SAPS  H13S20607   5.435   3.914   4.541 -1.0640  1.0329 -1.0256
  180SAPS  C21420608   5.384   4.085   4.667 -0.1363  0.5964 -0.0692
  180SAPS  H14R20609   5.373   4.118   4.772  1.0272 -2.7764  1.2405
  180SAPS  C21520610   5.353   4.171   4.568 -0.1553  0.2457  0.0698
  180SAPS  H15R20611   5.311   4.268   4.600 -1.0935 -0.0294 -0.3052
  180SAPS  C21620612   5.356   4.146   4.418  0.0257 -0.3584 -0.3522
  180SAPS  H16R20613   5.263   4.188   4.373 -0.5038  0.6162  1.5354
  180SAPS  H16S20614   5.361   4.038   4.394  0.4866 -0.1359 -1.2919
  180SAPS  C21720615   5.472   4.233   4.361  0.5471  0.0098  0.2029
  180SAPS  H17R20616   5.568   4.199   4.403  0.6601  0.3432  0.2187
  180SAPS  H17S20617   5.449   4.338   4.391  0.5882  0.2960 -0.7360
  180SAPS  C21820618   5.477   4.247   4.212  0.1180 -0.1697  0.3362
  180SAPS  H18R20619   5.380   4.281   4.171  1.4821  2.0037 -1.2929
  180SAPS  H18S20620   5.519   4.153   4.169  3.5567  1.4463 -0.1884
  180SAPS  C21920621   5.591   4.350   4.162 -0.3985  0.6090 -0.1374
  180SAPS  H19R20622   5.675   4.330   4.232 -0.1274  1.2192 -0.2767
  180SAPS  H19S20623   5.558   4.450   4.197  0.0029  1.3053 -1.6695
  180SAPS  C22020624   5.629   4.340   4.017 -0.3003  0.1966  0.8072
  180SAPS  H20R20625   5.667   4.240   3.987  1.0939  0.4826  1.5655
  180SAPS  H20S20626   5.543   4.357   3.948 -0.7045  0.3001  1.3269
  180SAPS  H20T20627   5.713   4.411   4.000  0.7204 -1.4945 -1.7570
  180SAPS   C3320628   6.091   4.434   3.845  0.7285  0.0582  0.6428
  180SAPS   H3X20629   6.160   4.443   3.758  2.2665  1.1795  1.9416
  180SAPS   H3Y20630   6.144   4.392   3.933 -2.4031 -1.7581  1.8169
  180SAPS   C3420631   6.055   4.577   3.885  0.0166  0.3578  0.3710
  180SAPS   H4X20632   5.988   4.617   3.807 -1.3014  1.2578  1.8953
  180SAPS   H4Y20633   6.150   4.634   3.871 -0.5166  0.9970 -0.8143
  180SAPS   C3520634   6.015   4.588   4.033 -0.4580  0.6892  0.1972
  180SAPS   H5X20635   6.103   4.595   4.100 -1.7110 -1.5096  2.2105
  180SAPS   H5Y20636   5.964   4.496   4.067  1.2613  0.4840  2.4054
  180SAPS   C3620637   5.947   4.725   4.047 -0.7435 -0.4285 -0.7244
  180SAPS   H6X20638   5.860   4.729   3.979 -1.1319 -1.9417 -0.3499
  180SAPS   H6Y20639   6.028   4.795   4.015 -0.5090 -0.1994  0.3212
  180SAPS   C3720640   5.905   4.757   4.193 -0.0348 -0.4708  0.1074
  180SAPS   H7X20641   5.859   4.858   4.195  0.1463 -0.2715 -2.3796
  180SAPS   H7Y20642   5.999   4.752   4.252  1.5162 -1.9569 -2.2916
  180SAPS   C3820643   5.812   4.656   4.252 -0.0498  0.6554  0.0665
  180SAPS   H8X20644   5.873   4.563   4.259 -1.5805 -0.2897  1.6746
  180SAPS   H8Y20645   5.730   4.633   4.182  0.3892 -0.5788 -0.0548
  180SAPS   C3920646   5.752   4.697   4.384  0.3369  0.0422  0.5131
  180SAPS   H9X20647   5.697   4.792   4.371 -0.6887 -0.7857 -1.6544
  180SAPS   H9Y20648   5.829   4.722   4.460  0.8004  2.8550 -0.7705
  180SAPS  C31020649   5.672   4.582   4.440  0.3128  0.3292 -0.7720
  180SAPS  H10X20650   5.727   4.487   4.456  2.0831  1.1905 -1.5889
  180SAPS  H10Y20651   5.592   4.559   4.366  0.0466 -2.8237  0.3289
  180SAPS  C31120652   5.602   4.634   4.572  0.1319 -1.2324  0.8583
  180SAPS  H11X20653   5.543   4.726   4.550 -0.9575 -1.0229  4.0496
  180SAPS  H11Y20654   5.678   4.661   4.648 -0.4382 -0.7967  1.2943
  180SAPS  C31220655   5.501   4.534   4.627 -0.0791 -0.9454  0.1752
  180SAPS  H12X20656   5.551   4.434   4.627  1.0467 -0.4292 -1.1261
  180SAPS  H12Y20657   5.410   4.522   4.564  0.3678 -0.1166 -0.6678
  180SAPS  C31320658   5.439   4.580   4.759  0.1398  0.7191  0.3865
  180SAPS  H13X20659   5.372   4.668   4.748  0.2089  0.6985 -0.2475
  180SAPS  H13Y20660   5.511   4.592   4.843 -0.1725 -3.4471  1.4683
  180SAPS  C31420661   5.348   4.470   4.818  0.0640  0.3374 -0.3895
  180SAPS  H14X20662   5.294   4.431   4.729  0.3232 -1.1150  0.0675
  180SAPS  H14Y20663   5.274   4.511   4.890 -0.1696 -1.1304  0.2459
  180SAPS  C31520664   5.423   4.361   4.894 -0.0227 -0.6369  0.0443
  180SAPS  H15X20665   5.516   4.328   4.842 -0.7778 -1.0970 -1.0533
  180SAPS  H15Y20666   5.371   4.262   4.894 -0.0781 -0.7145 -3.1153
  180SAPS  C31620667   5.469   4.402   5.039  0.1662  1.0382  0.1416
  180SAPS  H16X20668   5.400   4.478   5.082  0.5290  1.5481 -0.1631
  180SAPS  H16Y20669   5.573   4.441   5.033  0.6939 -0.4568 -1.2403
  180SAPS  C31720670   5.485   4.270   5.123 -0.4013 -0.0579 -0.1215
  180SAPS  H17X20671   5.548   4.197   5.068  1.3253 -0.3346  2.0851
  180SAPS  H17Y20672   5.389   4.214   5.128  2.0236 -4.6220  0.9896
  180SAPS  C31820673   5.550   4.275   5.258 -0.2952 -0.5843 -0.9657
  180SAPS  H18X20674   5.652   4.317   5.244  0.8344 -1.9441  2.1989
  180SAPS  H18Y20675   5.556   4.172   5.299  0.1781 -1.0286 -2.1318
  180SAPS  H18Z20676   5.492   4.353   5.313 -0.6649 -0.8924 -0.9130
  181POPC     N20677   0.089   3.064   7.768  0.7565 -0.2320 -0.4369
  181POPC   C1220678   0.135   3.137   7.647 -0.6048  0.4007  0.2130
  181POPC  H12A20679   0.092   3.236   7.643  0.2601  0.8819  1.7926
  181POPC  H12B20680   0.112   3.080   7.558 -3.0458  2.9189 -0.9391
  181POPC   C1320681  -0.064   3.068   7.775 -0.1927 -0.5178  0.1931
  181POPC  H13A20682  -0.103   3.166   7.799  0.5873 -0.1598  0.0576
  181POPC  H13B20683  -0.105   3.034   7.681  1.6980  0.2432 -0.9676
  181POPC  H13C20684  -0.096   3.008   7.859 -0.1874  0.3779  0.8475
  181POPC   C1420685   0.134   2.919   7.764 -0.0804 -1.0973 -0.1685
  181POPC  H14A20686   0.241   2.903   7.766 -0.4559 -4.1163 -0.1051
  181POPC  H14B20687   0.096   2.865   7.849  1.2997 -0.5962  0.8120
  181POPC  H14C20688   0.096   2.864   7.679  0.0666 -1.7070  0.1590
  181POPC   C1520689   0.135   3.130   7.900  0.3236  0.7800 -0.2487
  181POPC  H15A20690   0.096   3.073   7.983  0.2729 -0.0801 -0.8520
  181POPC  H15B20691   0.100   3.232   7.908 -1.5963  0.2064 -0.9000
  181POPC  H15C20692   0.243   3.131   7.909  0.2917  0.7883  0.1821
  181POPC   C1120693   0.287   3.161   7.628 -0.2081 -0.6132  0.0539
  181POPC  H11A20694   0.326   3.225   7.710  0.9710 -1.3076  0.0533
  181POPC  H11B20695   0.313   3.218   7.536 -0.9076 -2.3366 -1.2601
  181POPC     P20696   0.351   2.954   7.495  0.3970  0.1216 -0.2024
  181POPC   O1320697   0.353   2.815   7.538 -0.3984 -0.2366  0.6483
  181POPC   O1420698   0.464   3.003   7.413 -0.4552 -0.0361 -0.5004
  181POPC   O1220699   0.363   3.045   7.627 -0.3400  0.5690 -0.2178
  181POPC   O1120700   0.214   2.998   7.439  0.0139 -0.0428 -0.4310
  181POPC    C120701   0.122   2.904   7.389 -0.3450 -0.6341 -0.1737
  181POPC    HA20702   0.023   2.947   7.418  0.1507  0.6982 -0.3587
  181POPC    HB20703   0.128   2.805   7.438  1.3719 -0.4089  0.1301
  181POPC    C220704   0.124   2.879   7.241  0.4502  0.1111 -0.8014
  181POPC    HS20705   0.223   2.834   7.219  0.7781  1.2927 -1.8771
  181POPC   O2120706   0.110   2.996   7.172 -0.2051 -0.1791  0.6401
  181POPC   C2120707   0.184   3.014   7.057 -0.0003 -0.2088 -0.0829
  181POPC   O2220708   0.245   2.927   6.999 -0.4671 -0.5133  0.0258
  181POPC   C2220709   0.165   3.155   7.003 -0.2338  0.5654 -1.1565
  181POPC   H2R20710   0.210   3.224   7.077 -1.0266 -1.6554  1.6201
  181POPC   H2S20711   0.054   3.166   6.996 -0.2236  0.1089 -2.1771
  181POPC    C320712   0.011   2.783   7.197  0.0653  0.1073  0.4823
  181POPC    HX20713  -0.091   2.807   7.234 -0.1561  0.6029 -0.4165
  181POPC    HY20714   0.027   2.696   7.264  1.2727  0.4962  0.7390
  181POPC   O3120715   0.006   2.759   7.056 -0.1227 -0.0482 -0.0478
  181POPC   C3120716   0.078   2.654   7.015  0.0997 -1.3461 -0.8261
  181POPC   O3220717   0.146   2.589   7.091  0.1420 -0.7827  0.4415
  181POPC   C3220718   0.042   2.612   6.874  0.1000 -0.3032 -0.8074
  181POPC   H2X20719  -0.053   2.665   6.851  1.1674  2.9449  1.4236
  181POPC   H2Y20720   0.041   2.502   6.862  0.0729 -0.2156 -1.6803
  181POPC   C2320721   0.240   3.177   6.871  0.4387 -0.4380  0.2201
  181POPC   H3R20722   0.346   3.145   6.878  0.3378 -1.4756 -1.9632
  181POPC   H3S20723   0.245   3.288   6.864  2.6030 -0.3978  1.5194
  181POPC   C2420724   0.162   3.131   6.746 -0.5169 -0.0518 -0.3623
  181POPC   H4R20725   0.053   3.144   6.764 -0.5009 -0.8468  0.4210
  181POPC   H4S20726   0.171   3.022   6.727 -2.2246 -0.2649 -0.1649
  181POPC   C2520727   0.210   3.212   6.620 -0.6163  0.5024 -0.1925
  181POPC   H5R20728   0.314   3.183   6.593 -0.5179  0.5646  0.1200
  181POPC   H5S20729   0.211   3.322   6.636 -1.7536  0.3963  0.7826
  181POPC   C2620730   0.124   3.185   6.496 -0.3190 -0.3591 -0.1851
  181POPC   H6R20731   0.023   3.230   6.505 -0.9326 -1.2448 -2.1193
  181POPC   H6S20732   0.107   3.077   6.478 -0.4677 -0.1002 -1.7159
  181POPC   C2720733   0.184   3.248   6.366 -0.5943 -0.4281 -0.5311
  181POPC   H7R20734   0.285   3.203   6.355 -0.0979 -0.4301  2.9535
  181POPC   H7S20735   0.205   3.355   6.389 -0.7643 -0.6564  0.7270
  181POPC   C2820736   0.100   3.238   6.240  0.1466 -0.9183  0.2353
  181POPC   H8R20737  -0.006   3.251   6.271  0.4895 -0.5314  1.2820
  181POPC   H8S20738   0.100   3.138   6.193 -0.4856  0.1147 -2.1132
  181POPC   C2920739   0.125   3.342   6.128 -0.1544  0.6582  0.2200
  181POPC   H9120740   0.049   3.422   6.122 -1.6321 -0.7069 -0.1815
  181POPC  C21020741   0.215   3.319   6.031 -0.2236 -0.5692 -0.2791
  181POPC  H10120742   0.220   3.387   5.944  2.0316 -1.4960 -0.9641
  181POPC  C21120743   0.327   3.216   6.029  0.1403 -0.6310  0.4046
  181POPC  H11R20744   0.334   3.155   6.122 -0.3002  2.0723  2.3298
  181POPC  H11S20745   0.429   3.252   6.006 -0.2147 -0.1821 -0.4887
  181POPC  C21220746   0.317   3.108   5.919  0.6529 -0.2560  0.2252
  181POPC  H12R20747   0.211   3.076   5.913  0.0762  1.6499 -0.6905
  181POPC  H12S20748   0.390   3.026   5.936 -1.2800 -2.4343 -1.4747
  181POPC  C21320749   0.337   3.177   5.788 -0.4206  0.4879 -0.3674
  181POPC  H13R20750   0.275   3.269   5.782 -2.7653 -0.9754  0.1056
  181POPC  H13S20751   0.296   3.112   5.708 -1.9159  2.1162 -0.9936
  181POPC  C21420752   0.485   3.199   5.758  0.2173 -0.1483  0.3736
  181POPC  H14R20753   0.528   3.097   5.762  1.3814  0.3420  0.7888
  181POPC  H14S20754   0.536   3.264   5.832  0.3601 -1.0686  1.0961
  181POPC  C21520755   0.508   3.266   5.618 -0.1340 -0.4664 -0.1617
  181POPC  H15R20756   0.454   3.363   5.623 -0.6183 -0.7754  1.0938
  181POPC  H15S20757   0.461   3.193   5.548  0.7250  0.0729 -1.3231
  181POPC  C21620758   0.651   3.290   5.564 -0.2579 -0.2362  0.5061
  181POPC  H16R20759   0.715   3.199   5.563  2.1672  1.3713 -0.3590
  181POPC  H16S20760   0.708   3.364   5.623 -0.3003  1.7194 -1.7747
  181POPC  C21720761   0.643   3.334   5.417 -0.5869  0.1166 -0.8475
  181POPC  H17R20762   0.564   3.412   5.427 -0.8817 -0.2025 -0.6413
  181POPC  H17S20763   0.606   3.249   5.356  0.1450 -1.5053  0.8446
  181POPC  C21820764   0.775   3.395   5.369  0.4547 -0.3058  0.1048
  181POPC  H18R20765   0.755   3.435   5.268  1.6873 -3.2672 -1.4237
  181POPC  H18S20766   0.854   3.317   5.365  1.8293  0.9220  1.6811
  181POPC  H18T20767   0.816   3.483   5.424  0.4061  0.3573 -0.9015
  181POPC   C3320768   0.142   2.665   6.769 -0.5538  0.2868 -0.0931
  181POPC   H3X20769   0.248   2.651   6.798 -0.5069  1.4851  0.3844
  181POPC   H3Y20770   0.123   2.774   6.776 -0.0639  0.4929 -1.5384
  181POPC   C3420771   0.097   2.641   6.620  0.3300  0.1182 -0.3500
  181POPC   H4X20772  -0.002   2.688   6.600 -0.5490 -1.8548 -0.9400
  181POPC   H4Y20773   0.096   2.531   6.603  2.2970 -0.4502  2.4855
  181POPC   C3520774   0.201   2.693   6.520  0.1434  0.5382 -0.3149
  181POPC   H5X20775   0.292   2.634   6.543 -0.1903  0.4931  0.9641
  181POPC   H5Y20776   0.226   2.798   6.544  1.0152  0.3232 -0.2550
  181POPC   C3620777   0.155   2.676   6.372  0.4237  0.1252 -0.0854
  181POPC   H6X20778   0.082   2.756   6.348  2.2023  1.2664 -2.0322
  181POPC   H6Y20779   0.117   2.574   6.350  0.0168  0.4082 -0.6897
  181POPC   C3720780   0.273   2.724   6.283 -0.3384  0.3120  0.2784
  181POPC   H7X20781   0.365   2.669   6.312  1.3315  1.5451 -2.2370
  181POPC   H7Y20782   0.292   2.827   6.320 -0.7471  0.4537  0.1006
  181POPC   C3820783   0.261   2.721   6.129  0.7474  0.0233 -0.3748
  181POPC   H8X20784   0.192   2.802   6.098 -2.3446 -2.2520  0.0382
  181POPC   H8Y20785   0.233   2.615   6.108  3.4631 -0.3995 -2.4077
  181POPC   C3920786   0.393   2.743   6.058  0.4255 -0.2153 -0.1513
  181POPC   H9X20787   0.449   2.833   6.091  0.5417 -0.3484  0.0218
  181POPC   H9Y20788   0.365   2.777   5.956  0.7762  3.2340  0.7856
  181POPC  C31020789   0.478   2.614   6.037 -0.5049 -0.1306 -0.4632
  181POPC  H10X20790   0.407   2.531   6.020 -1.3322  0.7194 -1.2428
  181POPC  H10Y20791   0.538   2.586   6.127 -0.2047  1.6591 -0.0582
  181POPC  C31120792   0.570   2.630   5.915 -0.7248  0.2520 -0.2385
  181POPC  H11X20793   0.650   2.702   5.942  2.7272 -3.5601  0.7272
  181POPC  H11Y20794   0.506   2.664   5.831  0.0274 -1.0941 -1.4007
  181POPC  C31220795   0.643   2.499   5.886 -0.0229  0.8839 -0.5006
  181POPC  H12X20796   0.691   2.510   5.786 -2.3891 -0.0641 -1.8135
  181POPC  H12Y20797   0.573   2.413   5.884 -1.7265  2.1622  0.6887
  181POPC  C31320798   0.744   2.480   5.999  0.0978  0.7366  0.3576
  181POPC  H13X20799   0.744   2.571   6.062 -2.1499  1.4009 -0.4907
  181POPC  H13Y20800   0.846   2.475   5.956  0.2628 -0.4513  0.8420
  181POPC  C31420801   0.706   2.361   6.088 -0.4165 -0.2566 -0.2501
  181POPC  H14X20802   0.709   2.267   6.029  0.7308  0.8527 -2.0776
  181POPC  H14Y20803   0.599   2.369   6.117 -0.9202  1.0449 -2.2487
  181POPC  C31520804   0.791   2.340   6.222  0.0383  0.3421  0.4072
  181POPC  H15X20805   0.899   2.345   6.194 -0.5985 -0.0076 -2.4146
  181POPC  H15Y20806   0.773   2.236   6.256 -0.3444  0.6137  1.0602
  181POPC  C31620807   0.751   2.445   6.327 -0.2830 -1.0080 -0.8814
  181POPC  H16X20808   0.780   2.549   6.303  1.4808 -1.0782  0.6914
  181POPC  H16Y20809   0.802   2.441   6.426 -2.5432 -1.0341  0.3748
  181POPC  H16Z20810   0.641   2.444   6.347  0.0779  0.8360  1.7286
  182POPC     N20811   1.339   0.504   8.058  0.7122 -1.0726 -0.2389
  182POPC   C1220812   1.482   0.555   8.073 -0.2722 -0.6172 -0.1284
  182POPC  H12A20813   1.508   0.531   8.176 -1.1976 -1.9541 -0.1748
  182POPC  H12B20814   1.474   0.662   8.073 -1.7884 -0.7115 -0.5707
  182POPC   C1320815   1.330   0.361   8.072 -0.2139  0.0358 -0.4224
  182POPC  H13A20816   1.369   0.326   8.167  4.8480  0.8743 -1.8560
  182POPC  H13B20817   1.233   0.320   8.050 -0.5114  0.3820  0.2147
  182POPC  H13C20818   1.404   0.318   8.006  1.8840  2.3316  0.2425
  182POPC   C1420819   1.245   0.568   8.155 -0.1797  0.1004  0.1242
  182POPC  H14A20820   1.146   0.524   8.155 -1.0927  1.7771  4.1281
  182POPC  H14B20821   1.272   0.547   8.258  0.5524 -0.1017 -0.1008
  182POPC  H14C20822   1.241   0.675   8.147  0.6277  0.1097 -0.2358
  182POPC   C1520823   1.297   0.542   7.916  0.0930  0.7320 -0.8536
  182POPC  H15A20824   1.279   0.646   7.894 -0.8884  0.6034 -0.6751
  182POPC  H15B20825   1.207   0.487   7.893  0.1327 -0.3703  1.4020
  182POPC  H15C20826   1.374   0.514   7.846 -0.7971 -1.5074 -1.0047
  182POPC   C1120827   1.589   0.484   7.980  0.2075 -1.0570 -0.5767
  182POPC  H11A20828   1.684   0.530   8.013  0.2857 -2.7083  1.7970
  182POPC  H11B20829   1.562   0.509   7.875  0.9507 -1.1179 -0.7869
  182POPC     P20830   1.667   0.246   7.910 -0.5354 -0.2174 -0.5081
  182POPC   O1320831   1.570   0.158   7.840 -0.7551 -0.2991 -0.2530
  182POPC   O1420832   1.767   0.185   7.989  0.0972  0.5442 -0.0477
  182POPC   O1220833   1.590   0.348   8.005 -0.7033  0.1200 -0.1804
  182POPC   O1120834   1.739   0.339   7.805 -0.4142 -0.1059 -0.1000
  182POPC    C120835   1.669   0.374   7.682 -0.7130  0.1745 -1.0229
  182POPC    HA20836   1.693   0.480   7.659  0.0215  0.5995  1.4425
  182POPC    HB20837   1.559   0.380   7.695 -0.8357 -1.1683 -1.2977
  182POPC    C220838   1.694   0.277   7.560 -0.0400 -0.9266 -0.1275
  182POPC    HS20839   1.644   0.179   7.575 -1.8632  0.3626  3.5052
  182POPC   O2120840   1.834   0.275   7.548  0.2646 -0.6452  0.5218
  182POPC   C2120841   1.887   0.157   7.555 -0.4214  0.2181 -0.2114
  182POPC   O2220842   1.827   0.051   7.553 -0.3610 -0.3760  0.2204
  182POPC   C2220843   2.040   0.183   7.549 -0.9339  0.5347  0.4000
  182POPC   H2R20844   2.074   0.228   7.644  1.5389  0.6323 -0.4570
  182POPC   H2S20845   2.060   0.251   7.463 -1.2265 -1.9392 -1.7537
  182POPC    C320846   1.628   0.332   7.427 -0.0570 -0.3911  0.8796
  182POPC    HX20847   1.631   0.442   7.439 -3.1358 -0.1733  0.5180
  182POPC    HY20848   1.518   0.315   7.429 -0.1530 -0.3990 -1.6565
  182POPC   O3120849   1.691   0.300   7.302  0.2559 -0.3972  0.5567
  182POPC   C3120850   1.667   0.186   7.239 -0.4279  0.3943 -0.2174
  182POPC   O3220851   1.610   0.089   7.288 -0.0877  0.2932 -1.0319
  182POPC   C3220852   1.695   0.197   7.094 -0.3937 -0.5244  0.1766
  182POPC   H2X20853   1.781   0.268   7.084  0.4338 -0.9362  3.2454
  182POPC   H2Y20854   1.609   0.254   7.053  0.1984  2.1889  2.3480
  182POPC   C2320855   2.119   0.057   7.524 -0.6268  0.1558  0.0117
  182POPC   H3R20856   2.088  -0.024   7.594 -0.5713 -0.3526 -0.5421
  182POPC   H3S20857   2.226   0.082   7.540 -0.8844 -0.1151  2.6427
  182POPC   C2420858   2.103   0.006   7.372 -0.3511 -0.5410 -0.4661
  182POPC   H4R20859   2.001   0.029   7.333  0.0469 -1.5831 -2.2340
  182POPC   H4S20860   2.096  -0.105   7.376 -0.4474 -0.5249 -0.1786
  182POPC   C2520861   2.227   0.044   7.289  0.6655  0.6178 -0.1447
  182POPC   H5R20862   2.323   0.002   7.326 -0.7374 -2.0678  0.8118
  182POPC   H5S20863   2.227   0.155   7.295 -0.0521  0.5654  2.7674
  182POPC   C2620864   2.203   0.003   7.146  0.1743 -0.2303 -0.8842
  182POPC   H6R20865   2.112   0.051   7.105  0.4956  3.2353  1.9509
  182POPC   H6S20866   2.176  -0.105   7.141 -1.4895  0.0925  0.3409
  182POPC   C2720867   2.327   0.027   7.061 -0.0922  0.0481  0.1191
  182POPC   H7R20868   2.411  -0.035   7.101 -1.2508  0.0607  2.8211
  182POPC   H7S20869   2.337   0.133   7.093  0.3794 -0.2146  0.8783
  182POPC   C2820870   2.329   0.007   6.908  0.5529  0.3649  0.2494
  182POPC   H8R20871   2.282  -0.091   6.888 -0.8523  0.8090  1.1837
  182POPC   H8S20872   2.432   0.020   6.869 -0.4483  2.5924 -1.8930
  182POPC   C2920873   2.226   0.097   6.846  0.0702  0.1804  0.0674
  182POPC   H9120874   2.125   0.055   6.858  0.2153  0.0766  1.0184
  182POPC  C21020875   2.261   0.204   6.768  0.1093  0.1334 -0.2534
  182POPC  H10120876   2.184   0.252   6.706  0.6110 -0.1505 -1.1274
  182POPC  C21120877   2.390   0.254   6.734  0.8873 -0.0491 -1.0586
  182POPC  H11R20878   2.471   0.199   6.785  1.3385  0.9304 -0.6936
  182POPC  H11S20879   2.404   0.362   6.757  1.8881 -0.5038  0.6090
  182POPC  C21220880   2.426   0.254   6.582  0.7907 -0.5321 -0.1343
  182POPC  H12R20881   2.401   0.155   6.538 -1.1966 -0.1200 -0.0112
  182POPC  H12S20882   2.536   0.271   6.572  0.8302 -0.3600  0.5456
  182POPC  C21320883   2.356   0.369   6.505 -0.1056  0.1383 -0.2230
  182POPC  H13R20884   2.350   0.465   6.561  4.2283 -0.0184  0.9170
  182POPC  H13S20885   2.250   0.342   6.487  0.5680 -3.1776  0.1869
  182POPC  C21420886   2.428   0.403   6.372  0.2858  0.0091 -0.0994
  182POPC  H14R20887   2.537   0.382   6.379  0.3351  0.5288  0.9021
  182POPC  H14S20888   2.419   0.509   6.340  0.2995  0.7144  2.0698
  182POPC  C21520889   2.385   0.320   6.253 -0.3545  0.0262  0.4771
  182POPC  H15R20890   2.324   0.230   6.278  0.0540 -0.1392  0.8917
  182POPC  H15S20891   2.473   0.283   6.196  0.5915  0.2797  1.7371
  182POPC  C21620892   2.292   0.389   6.145  0.8998 -0.8610 -0.2348
  182POPC  H16R20893   2.249   0.310   6.080  0.3347 -1.8463  1.2772
  182POPC  H16S20894   2.369   0.435   6.078  3.2094 -0.0281  2.7572
  182POPC  C21720895   2.170   0.468   6.192 -0.5207 -0.3324  0.7004
  182POPC  H17R20896   2.209   0.542   6.266  0.5912  0.9011 -1.0463
  182POPC  H17S20897   2.095   0.409   6.250  0.3737 -0.5920  1.6387
  182POPC  C21820898   2.097   0.532   6.074  0.0645 -0.6870 -0.3280
  182POPC  H18R20899   2.088   0.450   6.000  0.8742 -3.0341  1.9957
  182POPC  H18S20900   2.147   0.621   6.033 -2.1948  1.1925  0.7640
  182POPC  H18T20901   1.989   0.542   6.098 -0.0906 -1.7423 -0.5305
  182POPC   C3320902   1.735   0.065   7.028 -0.3945  0.4719 -0.1436
  182POPC   H3X20903   1.648  -0.003   7.022 -0.0154  0.0254 -0.8533
  182POPC   H3Y20904   1.810   0.019   7.096  0.6413 -0.2324 -1.6760
  182POPC   C3420905   1.806   0.082   6.898 -0.1436 -1.0267  0.2929
  182POPC   H4X20906   1.888   0.157   6.896  0.7821 -2.0300 -1.1733
  182POPC   H4Y20907   1.735   0.131   6.828  0.8050 -0.6209 -0.4172
  182POPC   C3520908   1.860  -0.051   6.842 -0.1846  0.7247  0.5674
  182POPC   H5X20909   1.779  -0.127   6.852  0.5280  0.0695  1.4994
  182POPC   H5Y20910   1.946  -0.089   6.901 -1.4652 -1.9716  0.8850
  182POPC   C3620911   1.905  -0.034   6.694  0.6933 -0.1783  0.2620
  182POPC   H6X20912   1.978   0.049   6.691 -0.4226  0.8180 -0.2508
  182POPC   H6Y20913   1.818  -0.012   6.628  0.5188 -0.1330  0.5056
  182POPC   C3720914   1.964  -0.161   6.637  0.1148  0.1645  0.7746
  182POPC   H7X20915   1.882  -0.236   6.640  0.4011 -0.1382  1.1963
  182POPC   H7Y20916   2.045  -0.198   6.703 -0.9151 -1.4453  1.1932
  182POPC   C3820917   2.024  -0.142   6.496  0.3532  0.4575  0.2500
  182POPC   H8X20918   1.957  -0.075   6.438  0.2253 -0.6292 -0.9129
  182POPC   H8Y20919   2.033  -0.243   6.450  0.7241  0.5909  0.0260
  182POPC   C3920920   2.145  -0.056   6.499 -0.4250 -0.0172  0.4986
  182POPC   H9X20921   2.204  -0.086   6.588 -0.2308  0.9521  0.7096
  182POPC   H9Y20922   2.119   0.051   6.513 -1.0317 -0.1426  0.3956
  182POPC  C31020923   2.232  -0.080   6.376 -0.2316 -0.5685  0.0715
  182POPC  H10X20924   2.268  -0.184   6.359  0.4294 -0.6646  1.8642
  182POPC  H10Y20925   2.319  -0.013   6.394 -1.3866  1.1417 -0.4061
  182POPC  C31120926   2.178  -0.023   6.244 -0.0890 -0.5036  0.1152
  182POPC  H11X20927   2.141   0.082   6.248  1.8085  0.4000 -2.8074
  182POPC  H11Y20928   2.095  -0.088   6.212  0.3959 -0.6539 -0.8790
  182POPC  C31220929   2.273  -0.037   6.116 -0.2122 -0.4411 -0.2770
  182POPC  H12X20930   2.289  -0.146   6.105 -0.8500 -0.3613 -2.5549
  182POPC  H12Y20931   2.372   0.008   6.138 -0.8266  0.1433  1.4371
  182POPC  C31320932   2.218   0.024   5.985  0.3150 -0.1710  0.0984
  182POPC  H13X20933   2.211   0.135   5.994 -0.5000  0.0664 -2.6656
  182POPC  H13Y20934   2.112   0.003   5.960  0.6253  0.3819 -1.8642
  182POPC  C31420935   2.315  -0.014   5.870  0.8202 -0.0343  0.4710
  182POPC  H14X20936   2.307  -0.124   5.862 -1.1925  0.1006 -0.1607
  182POPC  H14Y20937   2.418   0.014   5.901  1.0538 -0.4027  0.0457
  182POPC  C31520938   2.269   0.054   5.735 -0.3013 -0.1282 -0.3276
  182POPC  H15X20939   2.361   0.045   5.673 -0.5342  0.4121 -0.7702
  182POPC  H15Y20940   2.252   0.160   5.763  0.8631 -0.1736  0.6316
  182POPC  C31620941   2.137  -0.013   5.677 -0.0173  0.0641 -0.4117
  182POPC  H16X20942   2.167  -0.118   5.656 -0.3376 -0.0387 -0.3573
  182POPC  H16Y20943   2.109   0.037   5.582 -1.4618  0.6169  0.2746
  182POPC  H16Z20944   2.047  -0.000   5.741  0.0457 -0.1972 -0.2704
  183POPC     N20945   3.919   0.379   7.803 -0.1466  0.6635  0.8992
  183POPC   C1220946   3.876   0.258   7.722  0.2425  0.6136  0.6690
  183POPC  H12A20947   3.890   0.268   7.615  0.0205 -3.2920  0.1053
  183POPC  H12B20948   3.770   0.244   7.737  0.0307  0.6826 -0.6015
  183POPC   C1320949   3.917   0.348   7.942  0.2147  0.2245 -0.4526
  183POPC  H13A20950   3.969   0.256   7.964 -0.5169 -0.3353 -1.0113
  183POPC  H13B20951   3.960   0.429   7.998  0.5122  0.7034 -1.3540
  183POPC  H13C20952   3.814   0.331   7.972 -0.2545 -0.6647 -2.3671
  183POPC   C1420953   4.052   0.428   7.757  0.2824 -0.3825  0.0893
  183POPC  H14A20954   4.125   0.349   7.770 -1.1270 -2.0175 -1.2668
  183POPC  H14B20955   4.041   0.460   7.655  0.7583  0.9089  0.4325
  183POPC  H14C20956   4.074   0.511   7.822 -1.1783 -0.2267  0.4264
  183POPC   C1520957   3.824   0.492   7.776 -0.6163  0.4889 -0.0847
  183POPC  H15A20958   3.811   0.509   7.670 -1.9352  2.3005  0.3209
  183POPC  H15B20959   3.853   0.583   7.825  2.9565 -0.7957  0.5005
  183POPC  H15C20960   3.725   0.462   7.808  0.6788 -1.3025  2.6597
  183POPC   C1120961   3.938   0.119   7.758  0.3265 -0.0226 -0.5545
  183POPC  H11A20962   3.908   0.087   7.859  0.2566  1.0384 -0.2253
  183POPC  H11B20963   4.045   0.149   7.759 -0.1815  1.8882  0.3627
  183POPC     P20964   4.007  -0.019   7.559 -0.2552  0.2548 -0.0408
  183POPC   O1320965   4.093  -0.115   7.628 -0.0908 -0.3487  0.0994
  183POPC   O1420966   4.070   0.101   7.506 -0.5996 -0.3792 -0.5268
  183POPC   O1220967   3.899   0.023   7.658 -0.1307 -0.3153 -0.0791
  183POPC   O1120968   3.927  -0.096   7.446  0.4135 -0.2762  0.1899
  183POPC    C120969   3.788  -0.083   7.425  0.1272 -0.8847 -0.4133
  183POPC    HA20970   3.744  -0.005   7.491  0.7327 -1.1583  0.3232
  183POPC    HB20971   3.731  -0.178   7.435 -1.3213 -0.0882 -0.7780
  183POPC    C220972   3.756  -0.025   7.281 -0.2172  1.1196 -0.5350
  183POPC    HS20973   3.653   0.015   7.286 -0.7789 -0.3522  0.3328
  183POPC   O2120974   3.762  -0.129   7.181 -0.1883 -0.0376  0.2163
  183POPC   C2120975   3.669  -0.222   7.165 -0.1043  0.7265  0.3462
  183POPC   O2220976   3.564  -0.216   7.216 -0.5527 -0.9208 -0.1665
  183POPC   C2220977   3.734  -0.339   7.088  0.0717  0.0703 -0.4934
  183POPC   H2R20978   3.654  -0.401   7.043 -1.9941  1.5895  0.9201
  183POPC   H2S20979   3.785  -0.403   7.164  1.3421 -0.1598 -1.5047
  183POPC    C320980   3.840   0.097   7.246  0.0841  0.2631 -0.3876
  183POPC    HX20981   3.948   0.072   7.245 -0.0998 -0.5905 -1.3290
  183POPC    HY20982   3.818   0.175   7.322  2.4463 -0.5939  1.2844
  183POPC   O3120983   3.795   0.154   7.121  0.3666  0.0145 -0.1971
  183POPC   C3120984   3.874   0.235   7.063 -0.6273  0.3541 -0.5345
  183POPC   O3220985   3.979   0.276   7.113  0.0494 -0.7747  0.6831
  183POPC   C3220986   3.813   0.290   6.937  0.4025 -0.3363  0.3415
  183POPC   H2X20987   3.750   0.375   6.971  2.2257  1.0943  0.3428
  183POPC   H2Y20988   3.755   0.210   6.888 -1.1557 -0.4075  2.1839
  183POPC   C2320989   3.846  -0.315   6.984  0.2428 -0.4788 -0.0275
  183POPC   H3R20990   3.906  -0.408   6.977  1.3086  0.2510 -0.8647
  183POPC   H3S20991   3.911  -0.238   7.032  0.0105 -0.5582  0.4237
  183POPC   C2420992   3.792  -0.262   6.848 -0.2066 -0.2431  0.1776
  183POPC   H4R20993   3.738  -0.167   6.870  1.1905  0.8087 -0.7333
  183POPC   H4S20994   3.728  -0.344   6.808 -0.7918  0.1359  0.3266
  183POPC   C2520995   3.896  -0.235   6.732  0.5613 -0.0000 -0.3878
  183POPC   H5R20996   3.923  -0.337   6.697 -1.8789 -0.9126  0.1708
  183POPC   H5S20997   3.978  -0.171   6.770  0.9368 -0.3455 -0.6064
  183POPC   C2620998   3.828  -0.160   6.615 -0.4292 -0.1069  0.3582
  183POPC   H6R20999   3.739  -0.210   6.572  0.3815 -2.4955  1.2989
  183POPC   H6S21000   3.911  -0.162   6.542  1.3852  0.7125  2.3052
  183POPC   C2721001   3.780  -0.014   6.647 -0.3624 -0.5416  0.5644
  183POPC   H7R21002   3.868   0.035   6.694 -0.0448  1.1801 -1.6554
  183POPC   H7S21003   3.698  -0.017   6.721 -0.8687 -0.8041 -0.0005
  183POPC   C2821004   3.738   0.074   6.526 -0.1810  0.2164  0.2237
  183POPC   H8R21005   3.714   0.176   6.562 -1.0592 -0.4127  1.5110
  183POPC   H8S21006   3.652   0.014   6.488  1.6756 -3.0523  0.7420
  183POPC   C2921007   3.848   0.078   6.432 -0.5043 -0.1605 -0.5369
  183POPC   H9121008   3.943   0.095   6.484 -0.6020 -4.2603  1.3294
  183POPC  C21021009   3.849   0.085   6.299  1.0207 -0.0282 -0.0316
  183POPC  H10121010   3.942   0.105   6.243  0.1907  1.6540 -0.8936
  183POPC  C21121011   3.725   0.082   6.211 -0.3008  0.4707 -0.3062
  183POPC  H11R21012   3.733   0.169   6.142 -1.4399  0.8638  0.0394
  183POPC  H11S21013   3.632   0.096   6.270 -0.2397  0.2083 -0.1472
  183POPC  C21221014   3.700  -0.040   6.116 -0.3892  0.8248 -0.8750
  183POPC  H12R21015   3.669  -0.122   6.184 -0.8489 -0.1965 -2.2612
  183POPC  H12S21016   3.793  -0.083   6.073  0.3842  0.6522  0.8999
  183POPC  C21321017   3.595  -0.006   6.012 -0.1789  0.2941 -0.4604
  183POPC  H13R21018   3.633   0.087   5.965  1.4336  0.3413  0.8752
  183POPC  H13S21019   3.507   0.023   6.074 -0.9740 -3.7983  0.6178
  183POPC  C21421020   3.565  -0.110   5.911 -0.8928  0.7034 -0.1727
  183POPC  H14R21021   3.475  -0.084   5.853 -0.3219  0.5442 -1.1448
  183POPC  H14S21022   3.546  -0.209   5.959 -0.1842  0.2071 -0.8780
  183POPC  C21521023   3.687  -0.125   5.805 -0.0908  0.4973  0.3491
  183POPC  H15R21024   3.769  -0.145   5.878 -1.5665 -2.4256  1.3894
  183POPC  H15S21025   3.707  -0.028   5.755  0.4616 -0.0927 -0.5999
  183POPC  C21621026   3.660  -0.244   5.708 -0.1227 -0.2034 -0.2395
  183POPC  H16R21027   3.581  -0.213   5.637  1.7617  0.5614 -2.1006
  183POPC  H16S21028   3.631  -0.335   5.765 -0.0702 -0.4162 -0.5465
  183POPC  C21721029   3.784  -0.275   5.630  0.1475  0.4627  0.1831
  183POPC  H17R21030   3.848  -0.341   5.693 -0.6394 -2.5538 -1.9610
  183POPC  H17S21031   3.842  -0.188   5.593  1.3486 -0.7437 -0.9304
  183POPC  C21821032   3.745  -0.360   5.507  0.3128  0.7537 -0.4982
  183POPC  H18R21033   3.685  -0.297   5.437  0.1626  0.9055 -0.2337
  183POPC  H18S21034   3.685  -0.445   5.543 -2.3415  1.4853 -2.8440
  183POPC  H18T21035   3.833  -0.415   5.467  0.3658 -0.2912  1.0113
  183POPC   C3321036   3.924   0.351   6.847  0.2824 -0.2917 -0.2142
  183POPC   H3X21037   3.999   0.268   6.843 -0.8246 -1.3667  0.4365
  183POPC   H3Y21038   3.989   0.425   6.898  1.8818 -0.9992 -1.1576
  183POPC   C3421039   3.875   0.396   6.712  0.2243 -1.3230  0.0341
  183POPC   H4X21040   3.810   0.483   6.734  2.6639  0.3488  0.9935
  183POPC   H4Y21041   3.813   0.327   6.651 -0.2743  0.0445 -1.0534
  183POPC   C3521042   3.996   0.447   6.630 -0.4324  0.3869 -0.3552
  183POPC   H5X21043   4.084   0.442   6.697  0.7309 -0.4164 -1.8740
  183POPC   H5Y21044   4.001   0.554   6.601  3.3675  0.0581 -1.4599
  183POPC   C3621045   4.023   0.358   6.511  0.2038 -0.2251 -0.3185
  183POPC   H6X21046   3.932   0.371   6.449 -0.4396 -0.0154  0.6484
  183POPC   H6Y21047   4.019   0.257   6.559  0.7761 -0.1121 -0.0290
  183POPC   C3721048   4.152   0.384   6.434  0.4895  0.4069 -0.2005
  183POPC   H7X21049   4.235   0.363   6.504  0.1378 -0.2970  0.0144
  183POPC   H7Y21050   4.151   0.494   6.417 -1.2038  0.1961 -1.8101
  183POPC   C3821051   4.158   0.305   6.303  0.4443  0.0387  0.6918
  183POPC   H8X21052   4.068   0.340   6.248  0.5004 -1.8843 -0.7245
  183POPC   H8Y21053   4.172   0.195   6.305 -0.6409 -0.1701 -1.2112
  183POPC   C3921054   4.282   0.353   6.215 -0.2473 -0.6403 -0.0392
  183POPC   H9X21055   4.368   0.337   6.283  0.1955  0.1834 -0.3918
  183POPC   H9Y21056   4.286   0.464   6.208  1.0222 -0.4897  2.3830
  183POPC  C31021057   4.277   0.294   6.074  0.7154  0.3315  1.2626
  183POPC  H10X21058   4.199   0.329   6.004  0.7330 -1.9325  0.0375
  183POPC  H10Y21059   4.273   0.184   6.083 -0.7044  0.2708  0.1773
  183POPC  C31121060   4.416   0.320   6.016 -0.5700 -0.6287  0.0518
  183POPC  H11X21061   4.484   0.240   6.051 -1.0452 -0.8507  0.4750
  183POPC  H11Y21062   4.452   0.420   6.050  1.6653 -0.9175 -1.2741
  183POPC  C31221063   4.409   0.320   5.865  0.4839  0.5694  0.3919
  183POPC  H12X21064   4.334   0.247   5.829  0.4187  0.7848  0.0796
  183POPC  H12Y21065   4.513   0.303   5.829  1.4081  0.2602  3.0045
  183POPC  C31321066   4.358   0.455   5.808  0.2736  0.2923  0.4333
  183POPC  H13X21067   4.432   0.538   5.813 -0.0372  0.6876 -1.1476
  183POPC  H13Y21068   4.277   0.494   5.872 -1.3236  0.5449 -1.6577
  183POPC  C31421069   4.332   0.440   5.659  0.4397 -0.2098 -0.0212
  183POPC  H14X21070   4.236   0.386   5.645  0.6242 -0.4618 -0.3263
  183POPC  H14Y21071   4.405   0.372   5.611  1.8557  1.6293 -0.5762
  183POPC  C31521072   4.303   0.576   5.594 -0.1783 -0.3793 -0.4971
  183POPC  H15X21073   4.263   0.568   5.491 -2.4669 -0.7514  0.3737
  183POPC  H15Y21074   4.405   0.619   5.605 -0.0939 -0.8823  0.8732
  183POPC  C31621075   4.200   0.657   5.674  0.2304  0.3450 -0.3135
  183POPC  H16X21076   4.159   0.735   5.606  0.1672 -1.9783 -3.1265
  183POPC  H16Y21077   4.268   0.698   5.752  0.4069 -1.1637  0.3448
  183POPC  H16Z21078   4.115   0.606   5.724  0.7016  0.6841  0.8897
  184POPC     N21079   4.138   1.092   7.840 -0.3872  0.4115 -0.0529
  184POPC   C1221080   4.150   1.179   7.718 -0.3039  0.1814  0.5250
  184POPC  H12A21081   4.245   1.228   7.733 -0.2283 -0.2392  1.5310
  184POPC  H12B21082   4.069   1.250   7.715 -0.8534 -0.4592 -0.3149
  184POPC   C1321083   4.266   1.023   7.862  0.2473 -0.2635  0.1872
  184POPC  H13A21084   4.288   0.982   7.765 -1.4334  1.0385 -0.8014
  184POPC  H13B21085   4.347   1.092   7.878 -0.7542  1.2253 -0.9151
  184POPC  H13C21086   4.262   0.949   7.940  0.0935 -0.7297 -0.2576
  184POPC   C1421087   4.100   1.189   7.952 -0.3460 -0.7993  0.1805
  184POPC  H14A21088   4.177   1.264   7.967  0.6379 -1.6064 -0.6106
  184POPC  H14B21089   4.008   1.239   7.925 -0.4186 -0.9549  0.1398
  184POPC  H14C21090   4.089   1.141   8.048  2.2066 -0.4188  0.7522
  184POPC   C1521091   4.029   0.993   7.819 -0.2131  0.7190  0.1142
  184POPC  H15A21092   4.058   0.940   7.729  0.9578 -1.4384  1.6962
  184POPC  H15B21093   3.928   1.028   7.805 -1.1296 -1.3871  1.1735
  184POPC  H15C21094   4.027   0.924   7.901  1.1252 -1.1125 -1.2848
  184POPC   C1121095   4.167   1.116   7.578 -0.1266  0.2174  0.2193
  184POPC  H11A21096   4.199   1.196   7.508 -1.0607  1.4836  1.1857
  184POPC  H11B21097   4.065   1.080   7.550 -0.9902  1.6586  1.3304
  184POPC     P21098   4.274   0.926   7.438 -0.3199  0.2064  0.3961
  184POPC   O1321099   4.380   0.824   7.458 -0.0949  0.5360 -0.0606
  184POPC   O1421100   4.290   1.024   7.327 -0.1440  0.7964 -0.2122
  184POPC   O1221101   4.265   1.009   7.571 -0.0664  0.0528  0.3673
  184POPC   O1121102   4.136   0.851   7.416 -0.0723  0.0453  0.1680
  184POPC    C121103   4.101   0.734   7.336 -0.0767  0.2912 -0.4489
  184POPC    HA21104   3.992   0.713   7.328  0.1887 -1.2127 -0.4583
  184POPC    HB21105   4.142   0.638   7.374  0.5759 -0.0013 -1.8225
  184POPC    C221106   4.151   0.746   7.191  0.0305  0.6857  0.7114
  184POPC    HS21107   4.259   0.769   7.185  0.9410 -3.1987 -1.2318
  184POPC   O2121108   4.076   0.846   7.124 -0.4584 -0.1008 -0.0900
  184POPC   C2121109   4.135   0.909   7.035 -0.5971 -0.3293  0.3783
  184POPC   O2221110   4.253   0.894   6.997  0.1407  0.7371  0.1531
  184POPC   C2221111   4.036   1.005   6.969 -0.1545  0.3244  0.4106
  184POPC   H2R21112   4.010   1.082   7.045 -0.7047  0.1703  0.3894
  184POPC   H2S21113   3.946   0.941   6.958 -1.4005  1.7144  1.8716
  184POPC    C321114   4.141   0.618   7.105  0.0231  0.2204 -0.0091
  184POPC    HX21115   4.034   0.601   7.082 -0.5443  2.0857  1.0629
  184POPC    HY21116   4.182   0.536   7.167 -0.1457 -1.0055 -1.4694
  184POPC   O3121117   4.206   0.624   6.975  0.0887  0.2764 -0.0073
  184POPC   C3121118   4.338   0.612   6.987 -1.0923  0.3209 -0.1029
  184POPC   O3221119   4.397   0.614   7.091  0.0456 -0.0836  0.5966
  184POPC   C3221120   4.398   0.587   6.845  0.0101 -0.1396 -0.4185
  184POPC   H2X21121   4.381   0.482   6.814  1.5884 -0.8571  0.9862
  184POPC   H2Y21122   4.507   0.600   6.863 -0.3045 -1.0173  2.7944
  184POPC   C2321123   4.099   1.084   6.856  0.1021 -0.6321 -0.9478
  184POPC   H3R21124   4.200   1.116   6.891 -0.9922  2.2440 -0.1055
  184POPC   H3S21125   4.042   1.177   6.837  1.4114  0.7987  1.4975
  184POPC   C2421126   4.104   0.993   6.729 -0.2543  0.9516  0.0306
  184POPC   H4R21127   3.999   0.965   6.704 -0.0083  1.6968 -2.0336
  184POPC   H4S21128   4.166   0.903   6.749  0.4969  0.5229 -3.6189
  184POPC   C2521129   4.160   1.076   6.611 -0.0141  0.6193 -1.2198
  184POPC   H5R21130   4.253   1.032   6.568 -1.4081 -2.7616 -1.0875
  184POPC   H5S21131   4.190   1.175   6.652 -0.9345  0.2277  0.4844
  184POPC   C2621132   4.079   1.082   6.483  0.2215 -0.3562 -0.3945
  184POPC   H6R21133   3.983   1.129   6.514 -0.7959 -3.7184  2.0102
  184POPC   H6S21134   4.063   0.976   6.454 -0.8887 -0.8663  1.8604
  184POPC   C2721135   4.139   1.150   6.358 -0.5576 -0.5758 -0.5225
  184POPC   H7R21136   4.248   1.132   6.347  0.0980  2.5801 -0.1413
  184POPC   H7S21137   4.137   1.258   6.381  0.7478 -0.6793  0.1308
  184POPC   C2821138   4.060   1.118   6.236 -0.2684 -0.1057  0.4777
  184POPC   H8R21139   3.951   1.127   6.252 -0.3152 -2.3815  1.8722
  184POPC   H8S21140   4.083   1.010   6.221  1.3729  0.2698  0.1009
  184POPC   C2921141   4.109   1.199   6.118 -0.2275  0.2341  0.1600
  184POPC   H9121142   4.219   1.194   6.108 -0.3496 -0.1314 -1.1920
  184POPC  C21021143   4.036   1.282   6.033 -0.4007  0.4066 -0.2811
  184POPC  H10121144   4.083   1.352   5.963 -0.2545  2.7489  2.0261
  184POPC  C21121145   3.881   1.298   6.053 -0.4117 -0.1858  0.1376
  184POPC  H11R21146   3.874   1.390   6.114  1.0494  0.7422 -0.9955
  184POPC  H11S21147   3.842   1.203   6.094 -0.5382 -0.3438 -0.3349
  184POPC  C21221148   3.815   1.330   5.921  0.0714 -0.1257  0.6976
  184POPC  H12R21149   3.803   1.439   5.904  1.0349 -0.2358 -0.8569
  184POPC  H12S21150   3.712   1.288   5.925  0.6128 -1.5756  0.2063
  184POPC  C21321151   3.883   1.265   5.799 -0.4365  0.2767 -0.1686
  184POPC  H13R21152   3.925   1.165   5.823  2.5758  0.8668 -2.4300
  184POPC  H13S21153   3.966   1.326   5.758 -0.5643  2.9239  3.0465
  184POPC  C21421154   3.788   1.247   5.676 -1.2220  0.4386 -0.8110
  184POPC  H14R21155   3.741   1.345   5.652 -0.9469  0.4947 -1.1293
  184POPC  H14S21156   3.712   1.177   5.717  1.2226 -1.0587  1.4741
  184POPC  C21521157   3.852   1.178   5.553 -0.4177 -0.2183 -0.2032
  184POPC  H15R21158   3.934   1.110   5.582  0.0653  0.4041 -0.0822
  184POPC  H15S21159   3.900   1.248   5.481  2.0380 -0.6321  0.9588
  184POPC  C21621160   3.753   1.111   5.459  0.0891  0.6575  0.0011
  184POPC  H16R21161   3.676   1.184   5.428 -0.5357 -1.1253 -3.0856
  184POPC  H16S21162   3.699   1.032   5.516  0.7003  1.9491  2.5110
  184POPC  C21721163   3.819   1.036   5.342 -0.5315  0.2638  0.5779
  184POPC  H17R21164   3.880   1.104   5.279 -1.8290  0.2119 -0.8008
  184POPC  H17S21165   3.730   1.006   5.283 -2.5031  0.4541  3.3062
  184POPC  C21821166   3.915   0.920   5.387 -0.7541  0.1073 -0.0540
  184POPC  H18R21167   4.008   0.956   5.436 -1.3192 -0.6284  1.6695
  184POPC  H18S21168   3.936   0.853   5.301 -0.9302  0.6524 -0.5307
  184POPC  H18T21169   3.872   0.853   5.465 -0.9069  0.2085 -0.0516
  184POPC   C3321170   4.331   0.676   6.735  0.0991 -0.1272  0.5231
  184POPC   H3X21171   4.355   0.780   6.764 -2.0910 -0.1032  2.5614
  184POPC   H3Y21172   4.223   0.651   6.735  0.0956 -0.1200  1.0697
  184POPC   C3421173   4.389   0.645   6.597  0.0133  0.3493  0.5585
  184POPC   H4X21174   4.359   0.542   6.568  0.2043  0.6737 -0.8849
  184POPC   H4Y21175   4.499   0.631   6.606  0.0358  0.3253  0.2421
  184POPC   C3521176   4.343   0.740   6.495  0.1466 -0.0602  0.0182
  184POPC   H5X21177   4.376   0.844   6.518 -2.5967  1.0447 -0.6381
  184POPC   H5Y21178   4.233   0.751   6.483 -0.0491 -1.2153  0.6205
  184POPC   C3621179   4.398   0.702   6.353  0.4378  0.1626 -0.5432
  184POPC   H6X21180   4.405   0.593   6.331  1.8085  0.1507 -0.1122
  184POPC   H6Y21181   4.499   0.746   6.351  0.6992  0.2122  4.1758
  184POPC   C3721182   4.318   0.767   6.240  0.2253  0.1022  0.1851
  184POPC   H7X21183   4.255   0.853   6.272 -0.3627 -0.1854 -0.1930
  184POPC   H7Y21184   4.256   0.688   6.193 -0.3264  1.1278 -0.8791
  184POPC   C3821185   4.409   0.823   6.132  0.2659 -0.8250  0.4825
  184POPC   H8X21186   4.477   0.743   6.096  1.3787 -0.8363  2.4925
  184POPC   H8Y21187   4.471   0.910   6.165  3.1728 -1.7373 -1.9960
  184POPC   C3921188   4.309   0.870   6.016 -0.3082 -0.3857 -0.3337
  184POPC   H9X21189   4.243   0.949   6.057  1.1362  1.3180 -1.1734
  184POPC   H9Y21190   4.237   0.785   6.010  1.1541 -1.7732  0.6785
  184POPC  C31021191   4.373   0.912   5.888  0.7017  0.3274  0.4321
  184POPC  H10X21192   4.298   0.953   5.818 -0.2685 -2.7327 -0.4934
  184POPC  H10Y21193   4.425   0.834   5.829 -0.8439  0.5590 -1.3060
  184POPC  C31121194   4.473   1.023   5.914 -0.5943 -0.4968  0.6920
  184POPC  H11X21195   4.565   0.981   5.960  1.8871  2.4013 -1.1836
  184POPC  H11Y21196   4.430   1.093   5.988  2.2281  0.6968  1.3621
  184POPC  C31221197   4.520   1.102   5.788 -0.3070 -0.0670 -0.6605
  184POPC  H12X21198   4.426   1.147   5.748  0.0402  0.2393 -1.1406
  184POPC  H12Y21199   4.548   1.043   5.698 -2.2944 -0.0756 -1.3321
  184POPC  C31321200   4.627   1.206   5.821  0.1653 -0.2625 -0.1765
  184POPC  H13X21201   4.724   1.171   5.862 -0.4659 -0.4422  1.2329
  184POPC  H13Y21202   4.595   1.270   5.906 -2.7121 -2.0026  0.1750
  184POPC  C31421203   4.655   1.297   5.697  0.0897 -0.2571 -0.4753
  184POPC  H14X21204   4.564   1.351   5.662  1.3655  3.0395  0.8988
  184POPC  H14Y21205   4.687   1.231   5.614 -0.5002 -1.3932  0.1827
  184POPC  C31521206   4.754   1.410   5.720 -0.0639  0.4472 -0.9942
  184POPC  H15X21207   4.841   1.368   5.774 -0.2076 -0.0061 -1.1068
  184POPC  H15Y21208   4.716   1.489   5.787  2.6307  2.0017 -1.1582
  184POPC  C31621209   4.801   1.476   5.589 -0.8908 -0.6591 -0.0333
  184POPC  H16X21210   4.720   1.507   5.520  0.4186  1.5373 -0.7013
  184POPC  H16Y21211   4.878   1.415   5.537  1.7752  0.6587  2.0871
  184POPC  H16Z21212   4.853   1.563   5.635 -1.1444 -0.2407 -0.5382
  185POPC     N21213   2.076   4.553   3.013 -0.3889  0.3561 -1.1239
  185POPC   C1221214   1.979   4.660   2.972 -0.5234  0.3869 -0.3331
  185POPC  H12A21215   1.878   4.620   2.976 -0.9444  1.4361 -0.0764
  185POPC  H12B21216   1.995   4.694   2.871  0.2999  3.8136  0.7961
  185POPC   C1321217   2.221   4.600   3.029  0.5529  0.5069  1.0583
  185POPC  H13A21218   2.290   4.520   3.053  0.1660 -1.4583 -3.3598
  185POPC  H13B21219   2.258   4.643   2.937  0.5654  0.4551  1.0390
  185POPC  H13C21220   2.228   4.685   3.095 -0.3978 -0.0300  1.8823
  185POPC   C1421221   2.030   4.495   3.146 -0.0761  0.3506 -0.1882
  185POPC  H14A21222   1.926   4.468   3.139 -0.3887  1.1564  0.9196
  185POPC  H14B21223   2.088   4.413   3.184 -1.2590 -2.1841 -3.4381
  185POPC  H14C21224   2.031   4.564   3.230  2.5094 -2.3018  2.1991
  185POPC   C1521225   2.066   4.446   2.924 -0.2989  0.2266  0.2444
  185POPC  H15A21226   2.113   4.356   2.960 -0.8397  0.3062  1.1732
  185POPC  H15B21227   2.113   4.468   2.829  2.5828  0.6549  1.6723
  185POPC  H15C21228   1.966   4.424   2.890  1.0363 -3.4417 -1.9292
  185POPC   C1121229   1.976   4.794   3.053 -0.0260  0.1523 -0.0213
  185POPC  H11A21230   1.969   4.767   3.161  1.1699 -0.1020  0.0015
  185POPC  H11B21231   1.895   4.867   3.026  0.7910  2.0739  2.3481
  185POPC     P21232   2.195   4.944   3.122 -0.1274 -0.0683 -0.3643
  185POPC   O1321233   2.180   5.089   3.094  0.6847  0.1852 -0.2954
  185POPC   O1421234   2.337   4.904   3.119 -0.3635  0.3445  0.1255
  185POPC   O1221235   2.103   4.856   3.026 -0.0095  0.4392 -0.4799
  185POPC   O1121236   2.132   4.917   3.269  0.7335 -0.2396  0.1692
  185POPC    C121237   2.220   4.874   3.378 -0.1840  0.9120  0.0644
  185POPC    HA21238   2.283   4.787   3.348  0.0949  1.0221  0.3248
  185POPC    HB21239   2.174   4.813   3.459  2.7602 -1.7043 -0.0606
  185POPC    C221240   2.303   4.986   3.441 -0.3455 -0.6157 -0.4390
  185POPC    HS21241   2.374   5.022   3.364  0.5140 -1.0173  0.1552
  185POPC   O2121242   2.377   4.923   3.547  0.1264  0.4664 -0.4095
  185POPC   C2121243   2.488   4.977   3.582  0.3721 -0.7275  0.6561
  185POPC   O2221244   2.536   5.080   3.542  0.0014  0.0489  0.2893
  185POPC   C2221245   2.550   4.888   3.678 -0.6778 -0.0540 -0.5593
  185POPC   H2R21246   2.658   4.891   3.654 -0.5928  2.2753 -0.0813
  185POPC   H2S21247   2.520   4.782   3.661  1.3712 -1.0887  1.6630
  185POPC    C321248   2.223   5.111   3.485 -0.1074 -0.4586  0.3668
  185POPC    HX21249   2.178   5.159   3.395  2.6444  0.9711 -0.3413
  185POPC    HY21250   2.301   5.181   3.521 -0.4981  0.5559 -0.6762
  185POPC   O3121251   2.125   5.079   3.581  0.5930 -0.3262 -0.0094
  185POPC   C3121252   2.091   5.171   3.668 -0.3126  0.6029 -0.2498
  185POPC   O3221253   2.134   5.286   3.672  0.5150 -0.0362  0.2095
  185POPC   C3221254   1.991   5.108   3.761  0.0402 -0.3710 -0.6666
  185POPC   H2X21255   2.040   5.017   3.802 -1.8074 -0.1445  2.3687
  185POPC   H2Y21256   1.903   5.077   3.700  0.9168  0.8649 -2.6608
  185POPC   C2321257   2.526   4.944   3.824  0.1003 -0.1941  0.0807
  185POPC   H3R21258   2.535   5.055   3.814 -1.8893 -0.1742 -2.6286
  185POPC   H3S21259   2.599   4.910   3.900 -1.0396 -1.7287  0.5311
  185POPC   C2421260   2.387   4.916   3.878  0.0050  0.2990  1.1018
  185POPC   H4R21261   2.368   4.806   3.884 -1.2836  0.4992  1.0550
  185POPC   H4S21262   2.322   4.970   3.806  1.1919 -1.3296 -1.3132
  185POPC   C2521263   2.350   4.977   4.016  0.9044 -0.5950  0.1908
  185POPC   H5R21264   2.240   4.963   4.018  0.8945 -0.6643 -0.4344
  185POPC   H5S21265   2.367   5.087   4.010  1.3101 -0.7259 -2.0755
  185POPC   C2621266   2.416   4.906   4.135 -0.1321 -0.3989 -0.3042
  185POPC   H6R21267   2.526   4.914   4.121 -0.2011  0.9507 -0.2821
  185POPC   H6S21268   2.390   4.798   4.138 -1.1843 -0.1734 -0.8087
  185POPC   C2721269   2.356   4.956   4.264 -0.2636  0.5199  0.2042
  185POPC   H7R21270   2.250   4.924   4.273  0.4051 -1.9079  0.3532
  185POPC   H7S21271   2.364   5.067   4.262 -1.7329  0.6345  0.0217
  185POPC   C2821272   2.448   4.899   4.379  0.6813 -0.0344  0.8026
  185POPC   H8R21273   2.513   4.986   4.401 -1.5026  1.7150  0.6702
  185POPC   H8S21274   2.507   4.818   4.330  0.1130  0.9692 -1.7132
  185POPC   C2921275   2.392   4.854   4.507 -0.2284 -0.3581 -0.1052
  185POPC   H9121276   2.317   4.776   4.490  1.7586 -2.2564 -0.6791
  185POPC  C21021277   2.416   4.896   4.636  0.1030 -0.2386 -0.3238
  185POPC  H10121278   2.351   4.851   4.713  1.1809  0.3932  0.9997
  185POPC  C21121279   2.503   5.018   4.673  0.2939 -0.2400 -0.0495
  185POPC  H11R21280   2.451   5.116   4.680  1.3224  0.4543 -1.5236
  185POPC  H11S21281   2.574   5.043   4.591  0.6914  0.6938  0.5648
  185POPC  C21221282   2.586   5.003   4.800  0.6188  0.3017  0.3370
  185POPC  H12R21283   2.521   4.970   4.885  2.0412 -0.7610  1.0550
  185POPC  H12S21284   2.638   5.097   4.827 -1.1048  1.1306  0.8864
  185POPC  C21321285   2.699   4.892   4.787  0.1466 -0.0423  0.4681
  185POPC  H13R21286   2.743   4.898   4.686 -1.6391 -0.5121 -0.3811
  185POPC  H13S21287   2.641   4.798   4.777  1.3951 -0.5805 -3.2476
  185POPC  C21421288   2.800   4.901   4.897  0.2431  0.3512  0.3898
  185POPC  H14R21289   2.845   5.002   4.903  2.1778 -0.3669 -1.0101
  185POPC  H14S21290   2.884   4.836   4.863 -0.7792 -1.1102  0.5426
  185POPC  C21521291   2.746   4.851   5.029 -0.4246 -0.8613  0.4949
  185POPC  H15R21292   2.700   4.751   5.014  0.0227 -0.9915 -0.0263
  185POPC  H15S21293   2.665   4.921   5.059  0.5213  0.3632  0.3001
  185POPC  C21621294   2.844   4.851   5.145  0.6226 -0.3073  0.0397
  185POPC  H16R21295   2.787   4.805   5.229  1.3445 -5.0482 -1.7641
  185POPC  H16S21296   2.880   4.954   5.168  1.0565 -0.2844 -0.7058
  185POPC  C21721297   2.958   4.764   5.119  0.0109  0.3123  0.1807
  185POPC  H17R21298   3.018   4.800   5.033  1.7829 -1.1626  0.7279
  185POPC  H17S21299   2.919   4.664   5.090 -0.8129  0.7385 -0.2076
  185POPC  C21821300   3.042   4.740   5.245 -0.3922  0.1670 -0.2319
  185POPC  H18R21301   3.067   4.829   5.308 -0.2875  0.0826 -0.1518
  185POPC  H18S21302   3.141   4.696   5.221 -1.0590  0.2001 -3.4790
  185POPC  H18T21303   3.001   4.662   5.313  2.3958  0.3171  1.8054
  185POPC   C3321304   1.943   5.202   3.866  0.5188  0.2840 -0.7974
  185POPC   H3X21305   1.859   5.155   3.922  0.7393  1.3117  0.4471
  185POPC   H3Y21306   1.897   5.295   3.824 -1.1054  1.1012  2.4802
  185POPC   C3421307   2.048   5.241   3.978 -0.6461  0.4908  0.5217
  185POPC   H4X21308   2.137   5.290   3.932 -0.0938 -0.3397  0.6848
  185POPC   H4Y21309   2.081   5.144   4.021  0.8528  1.1022  0.8439
  185POPC   C3521310   2.004   5.336   4.087  0.0106 -0.2954  0.3239
  185POPC   H5X21311   1.933   5.282   4.154 -2.0554  0.7467 -0.9141
  185POPC   H5Y21312   1.949   5.425   4.049 -1.9851 -0.0993  3.3171
  185POPC   C3621313   2.115   5.401   4.166  0.3012  1.0754  1.0417
  185POPC   H6X21314   2.093   5.508   4.190  1.5096  1.2350  1.5580
  185POPC   H6Y21315   2.209   5.398   4.108  0.4237  0.8026  1.2524
  185POPC   C3721316   2.144   5.331   4.297  0.4079 -0.3032 -0.5835
  185POPC   H7X21317   2.153   5.223   4.275  2.5402 -0.1632 -0.6161
  185POPC   H7Y21318   2.047   5.345   4.349  0.7575 -4.0584  1.4108
  185POPC   C3821319   2.267   5.377   4.376  0.8998 -0.0016  0.4120
  185POPC   H8X21320   2.258   5.488   4.382  2.1504  0.2498 -1.7556
  185POPC   H8Y21321   2.363   5.361   4.323 -0.0693  3.5888 -2.8572
  185POPC   C3921322   2.260   5.323   4.522  0.6242  0.6098  0.0472
  185POPC   H9X21323   2.264   5.212   4.524 -4.3642  0.1605  2.3338
  185POPC   H9Y21324   2.156   5.350   4.551 -0.7260 -0.9558 -2.7991
  185POPC  C31021325   2.360   5.385   4.623  0.2302  0.2503 -0.1172
  185POPC  H10X21326   2.371   5.491   4.591 -1.4950 -0.0932 -2.0903
  185POPC  H10Y21327   2.459   5.338   4.603 -0.8570 -2.0533 -0.4371
  185POPC  C31121328   2.332   5.372   4.772 -0.7997 -0.2957 -0.1647
  185POPC  H11X21329   2.302   5.266   4.784  3.0290 -1.2492  3.5067
  185POPC  H11Y21330   2.251   5.440   4.807 -0.5317 -0.8389  1.6463
  185POPC  C31221331   2.465   5.388   4.853 -0.1765 -0.6465 -0.3080
  185POPC  H12X21332   2.509   5.487   4.829  1.2135 -1.1913 -0.1028
  185POPC  H12Y21333   2.520   5.298   4.819 -1.4614 -2.1251  1.3231
  185POPC  C31321334   2.455   5.363   4.996 -0.2793 -0.2949  0.5093
  185POPC  H13X21335   2.405   5.444   5.053 -1.3688 -1.6376  1.5275
  185POPC  H13Y21336   2.561   5.363   5.028  0.1484 -0.6003 -0.8428
  185POPC  C31421337   2.395   5.228   5.041  0.0004  0.2138  0.0228
  185POPC  H14X21338   2.455   5.153   4.986 -0.7738  0.0846 -0.6629
  185POPC  H14Y21339   2.286   5.224   5.019  0.6139 -3.5702 -3.5754
  185POPC  C31521340   2.415   5.197   5.191 -0.5304 -0.8773 -0.4961
  185POPC  H15X21341   2.377   5.279   5.256  0.3987 -1.9143  1.4743
  185POPC  H15Y21342   2.523   5.189   5.218 -0.3020  1.8063 -0.3462
  185POPC  C31621343   2.349   5.062   5.223  0.1202 -0.2626  0.0203
  185POPC  H16X21344   2.354   4.990   5.139  0.3680 -0.7640  0.4634
  185POPC  H16Y21345   2.239   5.067   5.239  0.2828 -0.3075  1.2075
  185POPC  H16Z21346   2.400   5.019   5.311 -1.2077 -0.1792  0.8572
  186POPC     N21347   4.146   1.140   3.274 -0.5278  0.1559 -0.4372
  186POPC   C1221348   4.293   1.105   3.266  0.3317  0.2190 -0.0088
  186POPC  H12A21349   4.303   1.008   3.219  1.3358  0.2868  0.0382
  186POPC  H12B21350   4.340   1.093   3.363  2.4597 -3.2760 -1.2817
  186POPC   C1321351   4.077   1.118   3.139 -0.0633 -0.0371  0.3765
  186POPC  H13A21352   4.124   1.179   3.063 -0.5993 -1.7583 -1.4272
  186POPC  H13B21353   4.081   1.014   3.110 -3.4722 -0.0626 -0.3594
  186POPC  H13C21354   3.973   1.145   3.139  0.4050  2.0097 -1.3824
  186POPC   C1421355   4.068   1.037   3.358  0.1219  0.4117 -0.6005
  186POPC  H14A21356   4.096   1.037   3.462  0.2125  0.8582 -0.6218
  186POPC  H14B21357   3.962   1.060   3.359 -0.0218 -0.2560  0.0613
  186POPC  H14C21358   4.090   0.936   3.326  1.6721  0.4558  0.2380
  186POPC   C1521359   4.117   1.282   3.309  0.3127  0.2157 -0.1817
  186POPC  H15A21360   4.011   1.291   3.291  0.3385 -0.2748 -0.5900
  186POPC  H15B21361   4.163   1.354   3.244 -0.5049 -1.2811 -2.5522
  186POPC  H15C21362   4.130   1.309   3.413  1.2019 -1.6583  0.2553
  186POPC   C1121363   4.385   1.209   3.200 -0.0902 -0.1404 -1.1322
  186POPC  H11A21364   4.380   1.308   3.250 -0.6866 -0.0521 -1.3633
  186POPC  H11B21365   4.351   1.222   3.095 -0.4859 -0.1162 -1.0049
  186POPC     P21366   4.596   1.134   3.329 -0.3785 -0.0324  0.3986
  186POPC   O1321367   4.723   1.069   3.296  0.0804 -0.2257  0.2958
  186POPC   O1421368   4.517   1.067   3.431 -0.1207 -0.6401 -0.6333
  186POPC   O1221369   4.515   1.147   3.199  0.7894  0.1285  0.3129
  186POPC   O1121370   4.607   1.284   3.351  0.0062  0.1646 -0.7275
  186POPC    C121371   4.722   1.357   3.300 -0.3191 -0.1603 -0.2428
  186POPC    HA21372   4.714   1.360   3.189 -0.0566 -0.2987 -0.2671
  186POPC    HB21373   4.822   1.316   3.323  0.3301  1.9815  1.0691
  186POPC    C221374   4.726   1.495   3.362 -0.4249  0.2493  0.0411
  186POPC    HS21375   4.826   1.536   3.338 -0.7790 -0.2153 -2.5490
  186POPC   O2121376   4.702   1.491   3.504 -0.6516 -0.1569  0.0478
  186POPC   C2121377   4.775   1.416   3.580  0.2833 -0.8071  0.3177
  186POPC   O2221378   4.872   1.346   3.549 -0.0516  0.0657  0.0812
  186POPC   C2221379   4.720   1.427   3.731  0.6864 -0.5444  0.0331
  186POPC   H2R21380   4.616   1.391   3.717  0.4658  0.3078 -0.6305
  186POPC   H2S21381   4.721   1.535   3.757  2.5520 -0.1115 -1.5624
  186POPC    C321382   4.609   1.567   3.292 -0.1612  0.3390 -1.0466
  186POPC    HX21383   4.518   1.506   3.313  0.7402 -0.6081  0.2761
  186POPC    HY21384   4.624   1.575   3.182  0.5898  0.5840 -0.9285
  186POPC   O3121385   4.600   1.701   3.343  0.1890  0.0104  0.1358
  186POPC   C3121386   4.494   1.734   3.419 -0.4119 -0.1288  0.8142
  186POPC   O3221387   4.397   1.671   3.447 -0.0061  0.3223  0.3174
  186POPC   C3221388   4.518   1.877   3.460 -0.3052 -0.4200 -0.0989
  186POPC   H2X21389   4.419   1.924   3.471 -0.5260 -1.0749  0.8211
  186POPC   H2Y21390   4.570   1.930   3.377 -2.5789 -0.6021 -1.7350
  186POPC   C2321391   4.801   1.344   3.831  0.3345 -0.4565 -0.6439
  186POPC   H3R21392   4.910   1.356   3.815  0.4919  0.6988  1.0860
  186POPC   H3S21393   4.782   1.236   3.816  0.8558 -1.2042  3.0985
  186POPC   C2421394   4.773   1.380   3.979  0.0537  0.3205 -0.0724
  186POPC   H4R21395   4.816   1.482   3.994  2.0185 -0.2960 -1.1611
  186POPC   H4S21396   4.822   1.309   4.048  0.4604  0.9705  0.3275
  186POPC   C2521397   4.620   1.389   4.014 -0.0944  0.5453 -1.2578
  186POPC   H5R21398   4.561   1.296   4.018  0.2448  0.3713  2.1112
  186POPC   H5S21399   4.560   1.460   3.952 -1.6139 -0.1964 -0.6899
  186POPC   C2621400   4.604   1.450   4.157  0.0546 -0.4098 -0.3709
  186POPC   H6R21401   4.502   1.493   4.172 -0.3008 -0.6236 -1.9881
  186POPC   H6S21402   4.663   1.544   4.156 -3.1268  1.9266  3.1978
  186POPC   C2721403   4.652   1.372   4.282  0.4247  0.0937  0.4633
  186POPC   H7R21404   4.755   1.340   4.258 -0.7319 -1.0899 -3.6288
  186POPC   H7S21405   4.603   1.275   4.302  1.0410 -0.6689 -1.4859
  186POPC   C2821406   4.663   1.457   4.411 -0.3243 -0.2445  0.2973
  186POPC   H8R21407   4.735   1.540   4.393  1.5962 -1.8101  0.3752
  186POPC   H8S21408   4.716   1.403   4.492  0.9028  0.3878 -0.0476
  186POPC   C2921409   4.524   1.508   4.450  0.3210  0.2027 -0.0797
  186POPC   H9121410   4.442   1.450   4.406  1.5386 -1.4021 -0.3579
  186POPC  C21021411   4.492   1.613   4.533  0.6083  0.0559  0.3554
  186POPC  H10121412   4.385   1.634   4.544  0.4832 -0.3974  0.0572
  186POPC  C21121413   4.591   1.694   4.614  0.3907  0.0199 -0.0220
  186POPC  H11R21414   4.569   1.803   4.608 -1.7472 -0.4167 -2.3215
  186POPC  H11S21415   4.698   1.678   4.590  1.3875  1.9598  2.7466
  186POPC  C21221416   4.584   1.658   4.770  0.1140 -0.9064 -0.0384
  186POPC  H12R21417   4.482   1.685   4.805  0.4166 -1.2436  1.1485
  186POPC  H12S21418   4.658   1.717   4.826 -1.0869  2.2212 -1.5215
  186POPC  C21321419   4.616   1.510   4.807 -0.4238  0.7120 -0.0008
  186POPC  H13R21420   4.717   1.489   4.766 -1.1537 -3.8810 -0.0143
  186POPC  H13S21421   4.552   1.441   4.748 -1.1038  0.1573  1.3436
  186POPC  C21421422   4.609   1.483   4.959  0.2368 -0.0007  0.3153
  186POPC  H14R21423   4.507   1.512   4.991 -0.6100 -0.3864 -1.8319
  186POPC  H14S21424   4.683   1.549   5.008 -0.3158 -0.5295  1.9387
  186POPC  C21521425   4.647   1.335   4.987  0.3453  0.3316 -0.5355
  186POPC  H15R21426   4.753   1.324   4.954  0.1229 -0.0621 -1.1204
  186POPC  H15S21427   4.597   1.254   4.930  0.2991 -1.0624  1.3792
  186POPC  C21621428   4.636   1.311   5.141 -0.1150 -0.3988  0.4661
  186POPC  H16R21429   4.534   1.326   5.181  0.3053  0.8534  1.1305
  186POPC  H16S21430   4.704   1.385   5.190 -1.3262  0.8714  0.2733
  186POPC  C21721431   4.671   1.164   5.173  0.1130  0.2201 -0.4987
  186POPC  H17R21432   4.772   1.139   5.134 -0.3280 -2.5366 -0.0523
  186POPC  H17S21433   4.605   1.099   5.112  1.3080 -2.0140  0.5019
  186POPC  C21821434   4.629   1.118   5.319 -0.0210 -0.6671  0.2943
  186POPC  H18R21435   4.687   1.032   5.358  1.2397  0.2004  0.3880
  186POPC  H18S21436   4.624   1.195   5.399 -0.0584 -0.2572 -0.1035
  186POPC  H18T21437   4.521   1.091   5.310 -0.1718  0.6398 -3.3259
  186POPC   C3321438   4.580   1.898   3.599 -0.9882 -0.2822 -0.2480
  186POPC   H3X21439   4.523   1.860   3.686  1.3228 -0.7497  1.1464
  186POPC   H3Y21440   4.593   2.007   3.620 -0.5286 -0.5632  1.0105
  186POPC   C3421441   4.714   1.832   3.601 -0.1883 -0.0738  0.8304
  186POPC   H4X21442   4.779   1.842   3.511  0.7548 -3.6259  0.9796
  186POPC   H4Y21443   4.703   1.724   3.624  2.0841 -0.3994  0.6543
  186POPC   C3521444   4.794   1.881   3.722 -0.4096  0.5019 -0.0022
  186POPC   H5X21445   4.822   1.987   3.700 -0.7312  0.0367 -3.1982
  186POPC   H5Y21446   4.885   1.817   3.719 -1.5282 -1.1155 -0.7378
  186POPC   C3621447   4.716   1.880   3.856 -0.4645  0.4577  0.0384
  186POPC   H6X21448   4.678   1.777   3.867 -0.9387  0.3154 -2.4300
  186POPC   H6Y21449   4.634   1.955   3.850  0.0276  1.1735  1.7269
  186POPC   C3721450   4.797   1.912   3.981 -0.5150  0.1243 -0.1269
  186POPC   H7X21451   4.837   2.016   3.975 -0.9491  0.5197  2.7325
  186POPC   H7Y21452   4.885   1.851   4.008 -0.0314  1.5809  1.7948
  186POPC   C3821453   4.711   1.902   4.100  0.2943 -0.1847 -0.8703
  186POPC   H8X21454   4.691   1.799   4.135 -1.5406  0.3921 -0.1300
  186POPC   H8Y21455   4.618   1.963   4.093  1.1092  1.2807  0.4020
  186POPC   C3921456   4.770   1.970   4.231 -0.6259 -0.3514  0.7338
  186POPC   H9X21457   4.798   2.075   4.211  1.7650 -0.1783  4.0424
  186POPC   H9Y21458   4.870   1.925   4.251 -0.6894 -0.4639  0.8027
  186POPC  C31021459   4.694   1.973   4.365  0.5678  0.1399 -0.2309
  186POPC  H10X21460   4.678   1.869   4.399  0.3344  0.2497  0.0033
  186POPC  H10Y21461   4.590   2.012   4.359  1.0187  1.9604  2.1467
  186POPC  C31121462   4.767   2.050   4.479  0.4326  0.4289 -0.4711
  186POPC  H11X21463   4.786   2.156   4.452  0.6429 -0.2778 -3.4712
  186POPC  H11Y21464   4.870   2.009   4.485 -0.1256 -0.8261  1.4088
  186POPC  C31221465   4.693   2.045   4.610  0.2408 -0.7035 -0.2433
  186POPC  H12X21466   4.719   1.948   4.657  0.7457 -0.9383 -1.0003
  186POPC  H12Y21467   4.582   2.045   4.601 -0.0473 -0.6444  2.5262
  186POPC  C31321468   4.751   2.160   4.700  0.3403  0.0833  0.0496
  186POPC  H13X21469   4.793   2.242   4.638 -0.0345 -1.2329 -2.0366
  186POPC  H13Y21470   4.839   2.137   4.764  1.2557  0.8502 -0.8904
  186POPC  C31421471   4.649   2.236   4.785  0.6881 -0.3186 -0.5390
  186POPC  H14X21472   4.569   2.270   4.715  0.5084  0.7481  0.1646
  186POPC  H14Y21473   4.690   2.334   4.817 -2.8931  0.4456  2.3917
  186POPC  C31521474   4.599   2.167   4.912  0.0858  0.1714 -0.7130
  186POPC  H15X21475   4.585   2.058   4.901  2.2719 -0.2094 -0.2731
  186POPC  H15Y21476   4.495   2.199   4.936 -0.1339 -1.4567  0.6823
  186POPC  C31621477   4.681   2.190   5.038 -1.2098 -0.3016 -0.3230
  186POPC  H16X21478   4.680   2.297   5.066  3.2997 -0.0835 -0.2706
  186POPC  H16Y21479   4.784   2.160   5.012 -0.7870  1.0557 -0.2635
  186POPC  H16Z21480   4.653   2.129   5.127 -0.0986  1.3184  1.1821
  187POPC     N21481   2.574   4.430   2.712  1.1255  0.2162 -0.1202
  187POPC   C1221482   2.723   4.406   2.677 -0.0291 -0.2160  0.2269
  187POPC  H12A21483   2.776   4.400   2.771  1.2320 -1.2395 -0.5045
  187POPC  H12B21484   2.775   4.490   2.634 -0.6341  0.3080  0.5125
  187POPC   C1321485   2.576   4.546   2.810 -0.5333  0.4756  0.1576
  187POPC  H13A21486   2.483   4.573   2.858  0.6485  1.0342  2.2848
  187POPC  H13B21487   2.644   4.511   2.887 -2.6512 -2.4784  0.8634
  187POPC  H13C21488   2.617   4.636   2.767 -1.0562  1.4244  1.5697
  187POPC   C1421489   2.500   4.477   2.586  0.4606  0.3774  0.1574
  187POPC  H14A21490   2.474   4.401   2.514 -1.5276  0.1505  1.0284
  187POPC  H14B21491   2.412   4.537   2.607  0.1977 -0.2362  0.8880
  187POPC  H14C21492   2.566   4.541   2.530  1.6500 -1.6475 -0.8387
  187POPC   C1521493   2.514   4.313   2.779  0.0645 -0.0949  0.1421
  187POPC  H15A21494   2.580   4.291   2.861  2.1772  3.3301 -0.4465
  187POPC  H15B21495   2.520   4.225   2.716  0.0355  0.2592 -0.3617
  187POPC  H15C21496   2.411   4.324   2.810 -0.1233  0.7882 -0.7456
  187POPC   C1121497   2.760   4.295   2.583  0.5976 -0.0976  0.6618
  187POPC  H11A21498   2.742   4.324   2.478 -1.7810 -4.1778 -0.2745
  187POPC  H11B21499   2.699   4.203   2.599 -1.4187  0.7510 -1.6705
  187POPC     P21500   2.953   4.123   2.562 -0.1403  0.3252  0.2193
  187POPC   O1321501   2.844   4.025   2.530  0.2480  0.6728  0.1000
  187POPC   O1421502   3.054   4.081   2.663  0.1990 -0.9170  0.0783
  187POPC   O1221503   2.888   4.259   2.607 -0.3701 -0.0767  0.2563
  187POPC   O1121504   3.030   4.147   2.420  0.3398 -0.3881 -0.4099
  187POPC    C121505   2.983   4.246   2.326 -0.1890 -0.0818 -0.3328
  187POPC    HA21506   3.023   4.348   2.348  0.2377 -0.4746  0.8303
  187POPC    HB21507   2.875   4.251   2.305  0.5416  2.2575 -4.5535
  187POPC    C221508   3.025   4.206   2.180 -0.3633 -1.0294 -0.7045
  187POPC    HS21509   2.947   4.260   2.121 -2.4783 -2.0512  1.0055
  187POPC   O2121510   3.004   4.067   2.147  0.0983 -0.0574  0.1838
  187POPC   C2121511   2.886   4.021   2.177  0.8112 -0.1142  0.3969
  187POPC   O2221512   2.782   4.081   2.183  0.6865  0.1593 -0.1965
  187POPC   C2221513   2.899   3.874   2.201  0.6652 -0.2659 -0.5850
  187POPC   H2R21514   2.812   3.846   2.265  1.3566 -3.2942 -0.8246
  187POPC   H2S21515   2.983   3.846   2.268  0.4746 -1.3463 -0.7755
  187POPC    C321516   3.164   4.266   2.131  0.5944  0.7794  0.2998
  187POPC    HX21517   3.247   4.196   2.156  0.3143  0.2208 -0.3263
  187POPC    HY21518   3.192   4.351   2.197 -0.7496  1.9690 -0.6065
  187POPC   O3121519   3.151   4.296   1.987  0.7533  0.2956 -0.0664
  187POPC   C3121520   3.200   4.197   1.909  0.3887  0.8179  0.1774
  187POPC   O3221521   3.248   4.093   1.948  0.2052 -0.1928 -0.0532
  187POPC   C3221522   3.178   4.237   1.767  0.1969  0.5090  0.8670
  187POPC   H2X21523   3.268   4.300   1.750 -0.1326  0.4491 -1.5865
  187POPC   H2Y21524   3.083   4.294   1.764 -0.3172 -0.3437 -0.2290
  187POPC   C2321525   2.906   3.789   2.072 -0.1192  0.1885  0.2539
  187POPC   H3R21526   2.976   3.837   2.000 -0.5106  0.5237  0.0911
  187POPC   H3S21527   2.806   3.772   2.026  0.3159  0.6599 -0.9083
  187POPC   C2421528   2.975   3.650   2.087 -0.0792  0.2868  0.6689
  187POPC   H4R21529   2.914   3.591   2.159  0.7354  1.7450  2.6314
  187POPC   H4S21530   3.074   3.673   2.132  1.3376  1.5106 -2.7247
  187POPC   C2521531   2.997   3.577   1.958  0.9678 -0.6517 -1.1542
  187POPC   H5R21532   3.077   3.632   1.904 -1.8371  4.3512 -0.8402
  187POPC   H5S21533   2.904   3.588   1.899  0.2497 -0.9456 -0.1149
  187POPC   C2621534   3.027   3.432   1.972  0.8338  0.7955 -0.5358
  187POPC   H6R21535   2.937   3.376   2.002  1.9137 -0.5811  0.2682
  187POPC   H6S21536   3.091   3.401   2.057 -2.7033 -2.1565  1.3204
  187POPC   C2721537   3.089   3.370   1.845 -0.3611  0.3604 -0.0776
  187POPC   H7R21538   3.200   3.376   1.853 -0.4254  1.4074  0.1587
  187POPC   H7S21539   3.069   3.430   1.754 -1.9303 -1.9324 -1.3323
  187POPC   C2821540   3.053   3.222   1.806 -0.1965  0.0361  0.3741
  187POPC   H8R21541   2.962   3.223   1.742  0.7660 -0.6939 -1.0580
  187POPC   H8S21542   3.020   3.161   1.893  1.0889 -1.6919 -0.2919
  187POPC   C2921543   3.165   3.148   1.734 -0.6514 -0.7305 -0.1567
  187POPC   H9121544   3.229   3.082   1.794  0.8804  0.6544 -0.2025
  187POPC  C21021545   3.207   3.182   1.612 -0.1233 -0.2563 -0.3155
  187POPC  H10121546   3.295   3.136   1.564 -0.0214  0.6685 -1.0530
  187POPC  C21121547   3.167   3.286   1.513  0.0458 -0.5671 -0.6002
  187POPC  H11R21548   3.242   3.367   1.504  1.0175 -1.4663 -0.8119
  187POPC  H11S21549   3.080   3.338   1.559  0.9224 -1.8217  2.8033
  187POPC  C21221550   3.117   3.239   1.380  0.8382 -0.3735  0.2951
  187POPC  H12R21551   3.175   3.167   1.318 -0.7324  0.0732 -1.8228
  187POPC  H12S21552   3.099   3.328   1.316 -0.5344 -0.5210  0.4606
  187POPC  C21321553   2.984   3.170   1.394  0.5799  0.0421  1.0453
  187POPC  H13R21554   2.958   3.158   1.287  1.6445  1.7944  0.5445
  187POPC  H13S21555   2.909   3.232   1.448  1.2824  0.9093  1.0515
  187POPC  C21421556   2.977   3.029   1.452  0.0132 -0.0977 -0.3988
  187POPC  H14R21557   2.957   3.022   1.561 -0.5298 -0.0818 -0.4944
  187POPC  H14S21558   3.080   2.988   1.447  0.1355  0.2986 -1.1540
  187POPC  C21521559   2.886   2.942   1.374  0.3723  0.5544 -0.8869
  187POPC  H15R21560   2.914   2.932   1.267 -2.6818 -1.7581 -1.5720
  187POPC  H15S21561   2.791   2.999   1.382 -1.7640 -2.7965 -0.7060
  187POPC  C21621562   2.887   2.803   1.430  0.2634 -0.1817  0.0572
  187POPC  H16R21563   2.991   2.766   1.444  1.3262  2.3843 -0.5928
  187POPC  H16S21564   2.849   2.735   1.351  1.2750 -1.2496  0.4605
  187POPC  C21721565   2.814   2.777   1.563 -0.1586 -0.1405  0.3941
  187POPC  H17R21566   2.718   2.833   1.569  0.0638  0.3704 -0.6642
  187POPC  H17S21567   2.880   2.815   1.644  0.9856  0.5379 -0.8262
  187POPC  C21821568   2.786   2.632   1.600  0.4721 -0.1297  0.5262
  187POPC  H18R21569   2.716   2.621   1.686 -1.4531 -0.5060 -1.0255
  187POPC  H18S21570   2.885   2.589   1.625  0.4158 -0.1557  0.7060
  187POPC  H18T21571   2.744   2.582   1.510  2.0283 -1.7540  0.6616
  187POPC   C3321572   3.173   4.117   1.666 -0.1074 -0.0628  0.2216
  187POPC   H3X21573   3.271   4.065   1.657  1.0828  1.8275  1.5783
  187POPC   H3Y21574   3.147   4.161   1.567 -2.6886 -1.2807  0.2873
  187POPC   C3421575   3.058   4.025   1.687  0.3907 -0.1664 -0.6454
  187POPC   H4X21576   2.964   4.084   1.679 -0.1333 -0.9392 -0.3636
  187POPC   H4Y21577   3.061   3.971   1.784  0.9782 -1.8638 -1.5661
  187POPC   C3521578   3.042   3.927   1.569 -0.1042 -0.1626 -0.4921
  187POPC   H5X21579   3.144   3.885   1.559 -0.1102 -0.6432  1.1973
  187POPC   H5Y21580   3.014   3.977   1.473  0.9838 -1.8409 -1.7452
  187POPC   C3621581   2.935   3.830   1.608  0.2305  0.3017  0.3900
  187POPC   H6X21582   2.838   3.877   1.637 -0.1568  0.1272 -0.6149
  187POPC   H6Y21583   2.972   3.773   1.697  0.0192 -1.6382 -0.7249
  187POPC   C3721584   2.922   3.736   1.492 -0.3419  0.7355  0.9509
  187POPC   H7X21585   3.023   3.714   1.454 -1.5153 -2.2472 -0.7498
  187POPC   H7Y21586   2.858   3.779   1.412  0.7510  1.0103  0.2091
  187POPC   C3821587   2.864   3.595   1.524 -0.5341  0.1102  0.1972
  187POPC   H8X21588   2.927   3.554   1.606 -0.0843 -1.9458 -1.1048
  187POPC   H8Y21589   2.867   3.520   1.442 -0.6900 -1.9201  1.9300
  187POPC   C3921590   2.720   3.595   1.571 -0.5631  0.2604  0.4696
  187POPC   H9X21591   2.655   3.645   1.497  0.5404 -1.5365 -1.8233
  187POPC   H9Y21592   2.716   3.647   1.669 -1.8240 -2.4507  1.9942
  187POPC  C31021593   2.653   3.453   1.585  0.6784  0.7338 -0.2790
  187POPC  H10X21594   2.633   3.410   1.484 -1.9641  1.1564 -0.0010
  187POPC  H10Y21595   2.552   3.464   1.628  1.1018 -0.0330  0.9477
  187POPC  C31121596   2.724   3.362   1.684 -0.2743 -0.3118  0.0848
  187POPC  H11X21597   2.759   3.410   1.779  0.0339  0.1658 -0.2627
  187POPC  H11Y21598   2.812   3.318   1.632 -3.1633 -4.5116 -1.7955
  187POPC  C31221599   2.647   3.235   1.720 -0.1023 -1.0133  0.0973
  187POPC  H12X21600   2.625   3.178   1.627  0.3246  0.1626 -0.7392
  187POPC  H12Y21601   2.545   3.273   1.744 -1.0248 -0.3531 -4.0898
  187POPC  C31321602   2.713   3.141   1.825 -0.9886 -0.5828 -0.1781
  187POPC  H13X21603   2.728   3.198   1.919  2.2776 -1.6480  0.0872
  187POPC  H13Y21604   2.813   3.104   1.794 -0.1514  2.3294 -1.2733
  187POPC  C31421605   2.625   3.012   1.862 -0.2008 -0.2112  0.5997
  187POPC  H14X21606   2.616   2.964   1.762  2.8556  1.2799 -0.5422
  187POPC  H14Y21607   2.526   3.049   1.897 -1.0938 -0.4541 -1.5035
  187POPC  C31521608   2.692   2.931   1.976 -0.2429 -0.0990  0.4733
  187POPC  H15X21609   2.715   2.996   2.063  0.2558  1.4483 -0.7617
  187POPC  H15Y21610   2.795   2.904   1.943 -0.0530  0.0504  0.9282
  187POPC  C31621611   2.618   2.811   2.008  0.0623  0.5093  0.0586
  187POPC  H16X21612   2.644   2.738   1.928  0.2394  0.5697  0.0604
  187POPC  H16Y21613   2.508   2.818   1.995 -0.0197 -0.2876  0.2680
  187POPC  H16Z21614   2.642   2.764   2.106  0.4316  0.3580 -0.1026
  188POPC     N21615   3.843   5.037   3.206 -0.7191 -0.2976  0.2988
  188POPC   C1221616   3.792   5.143   3.302  0.1313 -0.6532 -1.1234
  188POPC  H12A21617   3.879   5.200   3.334  0.5565 -0.1969 -2.9946
  188POPC  H12B21618   3.746   5.099   3.389  2.1967  2.2796  1.7168
  188POPC   C1321619   3.948   5.104   3.115  0.2756  0.0964 -0.7621
  188POPC  H13A21620   4.029   5.139   3.177 -1.4271  3.7335 -0.2697
  188POPC  H13B21621   3.973   5.048   3.026  1.3898  0.8783 -0.9582
  188POPC  H13C21622   3.907   5.199   3.084  0.2939  0.2966 -0.1763
  188POPC   C1421623   3.905   4.914   3.272  0.3759  0.6332 -0.2099
  188POPC  H14A21624   3.994   4.943   3.326  0.9229 -0.7202 -0.3525
  188POPC  H14B21625   3.854   4.858   3.349  1.0754 -0.4595 -0.5206
  188POPC  H14C21626   3.951   4.856   3.194  2.3382  0.9196  0.6743
  188POPC   C1521627   3.731   4.988   3.113 -0.1531 -0.2476 -0.7181
  188POPC  H15A21628   3.684   5.072   3.065  0.2451 -0.6690 -1.8738
  188POPC  H15B21629   3.655   4.939   3.171 -2.3007  2.4386 -1.0736
  188POPC  H15C21630   3.763   4.923   3.033  0.1057  1.4850 -2.1054
  188POPC   C1121631   3.683   5.249   3.248 -0.1801  0.2133  0.8701
  188POPC  H11A21632   3.642   5.310   3.332 -2.4198  0.0387 -0.0247
  188POPC  H11B21633   3.600   5.199   3.194 -1.7510  1.2367  2.2124
  188POPC     P21634   3.700   5.488   3.115  0.2215  0.1887 -0.1344
  188POPC   O1321635   3.575   5.482   3.043  0.5630  0.5713 -0.0784
  188POPC   O1421636   3.813   5.551   3.041 -0.1913 -0.0786  0.1900
  188POPC   O1221637   3.750   5.343   3.158  0.6375  0.6461  1.0245
  188POPC   O1121638   3.690   5.582   3.242  0.2746 -0.2563 -0.1265
  188POPC    C121639   3.574   5.582   3.328 -0.2106  0.3479 -0.6526
  188POPC    HA21640   3.504   5.497   3.312 -0.3811  0.3913 -0.1588
  188POPC    HB21641   3.511   5.673   3.311  0.9423  1.1076 -0.9705
  188POPC    C221642   3.613   5.585   3.477  0.5374 -0.0037 -0.0642
  188POPC    HS21643   3.704   5.523   3.488  0.8437  0.4948  0.2636
  188POPC   O2121644   3.503   5.545   3.569  0.4292 -0.6075  0.6620
  188POPC   C2121645   3.484   5.414   3.579 -0.2361 -0.3339  0.8252
  188POPC   O2221646   3.558   5.334   3.529 -0.2878  0.1737 -0.3636
  188POPC   C2221647   3.374   5.378   3.672 -0.0803 -0.4009 -0.0669
  188POPC   H2R21648   3.355   5.271   3.691 -0.1117 -0.3952 -0.0633
  188POPC   H2S21649   3.278   5.411   3.626 -0.8087 -1.4421  0.6562
  188POPC    C321650   3.644   5.728   3.515  0.3893  0.3410 -0.1319
  188POPC    HX21651   3.561   5.801   3.509  0.8722  1.3648  3.3057
  188POPC    HY21652   3.716   5.765   3.439 -0.9036  0.9007 -1.1319
  188POPC   O3121653   3.704   5.733   3.647  0.6603 -0.1818  0.6823
  188POPC   C3121654   3.613   5.757   3.747 -0.6186 -1.3124 -0.4415
  188POPC   O3221655   3.495   5.783   3.729  0.4911 -0.2785  0.5600
  188POPC   C3221656   3.690   5.757   3.884  0.4183  0.3044  0.9831
  188POPC   H2X21657   3.742   5.855   3.890  4.5812 -1.1660 -3.9636
  188POPC   H2Y21658   3.771   5.682   3.896  2.9240  2.6516 -0.2612
  188POPC   C2321659   3.384   5.448   3.812 -0.0947  0.6324  0.0284
  188POPC   H3R21660   3.399   5.556   3.795  5.0469 -0.1547 -2.1222
  188POPC   H3S21661   3.475   5.415   3.866 -1.3720 -1.3676  1.1096
  188POPC   C2421662   3.276   5.406   3.907  0.2267 -0.0527 -0.1820
  188POPC   H4R21663   3.271   5.295   3.908  0.2096 -0.0719  1.6400
  188POPC   H4S21664   3.177   5.446   3.878  0.4866  1.9234  1.4082
  188POPC   C2521665   3.309   5.450   4.052 -0.4602 -0.2962  0.0764
  188POPC   H5R21666   3.319   5.560   4.066 -2.4607 -0.0797  0.0967
  188POPC   H5S21667   3.414   5.417   4.065 -0.0625  0.3219 -1.3832
  188POPC   C2621668   3.211   5.401   4.163  0.0065  0.3404 -0.2562
  188POPC   H6R21669   3.240   5.295   4.178  1.0988  0.3250 -2.2005
  188POPC   H6S21670   3.108   5.389   4.124 -0.4291  1.5797  0.4686
  188POPC   C2721671   3.234   5.476   4.293  0.1109  0.6746 -0.2582
  188POPC   H7R21672   3.208   5.583   4.293  0.0980  0.7211  1.9499
  188POPC   H7S21673   3.341   5.467   4.321  0.2225 -0.7178 -1.0342
  188POPC   C2821674   3.158   5.419   4.413  0.2388 -0.1436 -0.4874
  188POPC   H8R21675   3.053   5.398   4.381  1.7251 -2.0376 -4.8779
  188POPC   H8S21676   3.164   5.502   4.488  2.7337 -1.7310  1.2163
  188POPC   C2921677   3.226   5.295   4.460  0.4730 -0.6009 -0.6853
  188POPC   H9121678   3.175   5.203   4.428 -1.8657 -0.2872  1.8078
  188POPC  C21021679   3.327   5.282   4.546  0.6264 -0.1389 -0.3821
  188POPC  H10121680   3.371   5.186   4.578 -0.3555 -0.2247  0.7706
  188POPC  C21121681   3.393   5.396   4.615 -0.2580  0.4849 -0.3177
  188POPC  H11R21682   3.398   5.490   4.555 -2.0861  1.1535  0.5071
  188POPC  H11S21683   3.499   5.366   4.630 -0.7097 -1.2285 -0.3409
  188POPC  C21221684   3.323   5.419   4.752  0.0561  0.3647 -0.4228
  188POPC  H12R21685   3.332   5.319   4.798 -0.4413  0.2785 -0.5051
  188POPC  H12S21686   3.214   5.441   4.746 -0.5182 -1.2622  2.4688
  188POPC  C21321687   3.400   5.521   4.838  0.0550  0.6704  0.0659
  188POPC  H13R21688   3.393   5.625   4.800 -1.3842  0.5024 -0.1958
  188POPC  H13S21689   3.507   5.499   4.819  0.4554  0.9856  1.7943
  188POPC  C21421690   3.394   5.512   4.990 -0.5148  0.2527 -0.0258
  188POPC  H14R21691   3.416   5.408   5.022  0.4415 -0.3163 -2.3635
  188POPC  H14S21692   3.294   5.549   5.022 -0.5381  0.6067 -0.4942
  188POPC  C21521693   3.491   5.597   5.073 -0.7217  0.7448  0.1504
  188POPC  H15R21694   3.450   5.699   5.058 -0.2920  0.6606 -1.7883
  188POPC  H15S21695   3.593   5.597   5.031 -1.3833  1.3287 -1.5390
  188POPC  C21621696   3.492   5.544   5.222 -0.1134  1.2760 -0.0998
  188POPC  H16R21697   3.537   5.443   5.221 -0.2394  1.2121 -1.5579
  188POPC  H16S21698   3.390   5.505   5.244 -0.5589  1.0820 -2.2774
  188POPC  C21721699   3.559   5.629   5.333  0.8878  0.0186  0.3370
  188POPC  H17R21700   3.652   5.685   5.308  0.0724  1.5085  0.5010
  188POPC  H17S21701   3.575   5.569   5.425  0.9125  1.3512  1.2378
  188POPC  C21821702   3.460   5.748   5.374  0.3152 -0.2696  0.0746
  188POPC  H18R21703   3.424   5.808   5.287  0.9821  1.3475  0.8742
  188POPC  H18S21704   3.504   5.822   5.443  2.2093 -0.1575 -1.1716
  188POPC  H18T21705   3.373   5.699   5.422 -1.7842  0.9020 -2.2918
  188POPC   C3321706   3.586   5.732   4.000  0.0306 -0.3214  0.2662
  188POPC   H3X21707   3.577   5.624   4.023 -0.9173  0.0459  1.8118
  188POPC   H3Y21708   3.484   5.767   3.974 -0.1697 -1.0230  0.0953
  188POPC   C3421709   3.635   5.786   4.134  0.1554 -0.1413 -0.1733
  188POPC   H4X21710   3.642   5.897   4.132  0.4185 -0.0881  1.6171
  188POPC   H4Y21711   3.741   5.755   4.143 -0.2260 -1.3857  0.1575
  188POPC   C3521712   3.563   5.716   4.254  0.3777  0.0555  0.0322
  188POPC   H5X21713   3.597   5.610   4.243  3.2981  0.7658  1.2005
  188POPC   H5Y21714   3.455   5.739   4.252  0.0858 -1.2511 -0.0339
  188POPC   C3621715   3.623   5.775   4.382  0.0047  0.1848  0.8949
  188POPC   H6X21716   3.603   5.884   4.391  0.2253  0.3210 -0.0939
  188POPC   H6Y21717   3.733   5.783   4.363 -0.6070  0.9952 -3.3119
  188POPC   C3721718   3.593   5.692   4.506  0.5432  0.0187 -0.6141
  188POPC   H7X21719   3.604   5.585   4.481 -1.7992 -0.6297  0.8312
  188POPC   H7Y21720   3.488   5.710   4.538  0.3802 -1.6424 -0.1250
  188POPC   C3821721   3.694   5.720   4.621 -0.1247  0.1862 -0.1387
  188POPC   H8X21722   3.798   5.711   4.583  0.0645  0.1253  0.3865
  188POPC   H8Y21723   3.674   5.641   4.697  1.9638  0.3352  0.6121
  188POPC   C3921724   3.690   5.859   4.694  0.3273 -0.3699  0.9166
  188POPC   H9X21725   3.581   5.869   4.715 -0.1004 -1.5464 -0.6051
  188POPC   H9Y21726   3.708   5.940   4.619 -2.3776 -0.7093 -0.2363
  188POPC  C31021727   3.769   5.857   4.823  0.2867 -0.1877  0.6493
  188POPC  H10X21728   3.878   5.870   4.806  0.5084 -1.9893  0.5260
  188POPC  H10Y21729   3.752   5.757   4.869  1.2578 -1.0202 -0.7351
  188POPC  C31121730   3.720   5.960   4.929  0.3484  0.0856 -0.1520
  188POPC  H11X21731   3.610   5.969   4.913 -0.1548 -1.8122  1.6610
  188POPC  H11Y21732   3.767   6.058   4.911  1.3466 -0.3909 -0.1902
  188POPC  C31221733   3.746   5.927   5.076 -0.2490 -0.7175 -0.5968
  188POPC  H12X21734   3.851   5.954   5.098 -0.2355 -1.0098 -0.2815
  188POPC  H12Y21735   3.727   5.820   5.099 -0.6278 -0.3436  0.9412
  188POPC  C31321736   3.659   6.016   5.173 -0.4328  0.6386  0.1047
  188POPC  H13X21737   3.679   5.993   5.280  1.6600 -0.1093 -0.4006
  188POPC  H13Y21738   3.555   5.984   5.152  0.0549 -1.6051  0.8279
  188POPC  C31421739   3.670   6.163   5.161 -0.7914  0.0120 -0.1776
  188POPC  H14X21740   3.644   6.189   5.056  0.8089 -1.0780 -0.8901
  188POPC  H14Y21741   3.777   6.193   5.154 -0.8164 -0.1426 -1.5046
  188POPC  C31521742   3.580   6.234   5.265 -1.4403 -0.6827  1.0910
  188POPC  H15X21743   3.474   6.212   5.239 -1.3328  0.1118 -0.1185
  188POPC  H15Y21744   3.612   6.340   5.256  1.3492 -1.6219 -1.8198
  188POPC  C31621745   3.614   6.196   5.408 -0.1438  0.0099 -0.6299
  188POPC  H16X21746   3.561   6.100   5.425 -1.0620  0.6228  0.0116
  188POPC  H16Y21747   3.572   6.275   5.473 -1.3696  0.8054 -2.3159
  188POPC  H16Z21748   3.722   6.171   5.413 -0.1204 -0.1506 -1.6720
  189SAPI   C1221749   4.693   1.885   7.845  0.6197 -0.3592  0.1649
  189SAPI    H221750   4.736   1.981   7.812 -0.7811  0.0187 -0.6358
  189SAPI    O221751   4.751   1.785   7.761  0.2459 -0.1678 -0.0241
  189SAPI   HO221752   4.697   1.781   7.682  2.3766  1.1833 -1.6381
  189SAPI   C1321753   4.729   1.875   7.987  0.1722 -0.3794 -1.0638
  189SAPI    H321754   4.666   1.949   8.040 -2.9564 -2.6516 -1.3587
  189SAPI    O321755   4.864   1.910   8.014  0.6309  0.2846 -0.3973
  189SAPI   HO321756   4.921   1.860   7.956 -0.7066 -1.9988  0.1281
  189SAPI   C1421757   4.692   1.744   8.041 -0.4208 -0.1533 -0.3181
  189SAPI    H421758   4.775   1.675   8.018  1.3421  1.0044  2.1551
  189SAPI    O421759   4.699   1.743   8.189 -0.4175 -0.2475 -0.0189
  189SAPI   HO421760   4.735   1.658   8.215 -0.5450 -0.1138  0.6018
  189SAPI   C1521761   4.556   1.690   7.992 -0.0110 -0.8883 -0.2769
  189SAPI    H521762   4.488   1.722   8.074  1.1279  1.8402 -0.3045
  189SAPI    O521763   4.562   1.549   7.976  0.4094 -0.3838 -0.2645
  189SAPI   HO521764   4.473   1.513   7.983  0.3213  0.0489  0.9753
  189SAPI   C1621765   4.484   1.755   7.872 -0.3035 -0.1074 -0.3678
  189SAPI    H621766   4.493   1.689   7.783 -2.5096 -0.0431 -0.6857
  189SAPI    O621767   4.336   1.768   7.897 -0.3637 -0.8998  0.3016
  189SAPI   HO621768   4.302   1.765   7.808  0.3906  1.1445 -0.1286
  189SAPI   C1121769   4.540   1.888   7.837 -0.3000 -0.1231  0.4125
  189SAPI    H121770   4.504   1.955   7.918 -0.5543  0.5641 -0.2545
  189SAPI     P21771   4.461   2.089   7.687 -0.0032  0.1728 -0.1392
  189SAPI   O1321772   4.593   2.146   7.641 -0.0200  0.3280 -0.3476
  189SAPI   O1421773   4.405   2.145   7.814 -0.4592  0.1219 -0.5475
  189SAPI   O1221774   4.496   1.933   7.709 -0.0692  0.3311  0.2297
  189SAPI   O1121775   4.364   2.110   7.570 -0.7901 -0.8388  0.2154
  189SAPI    C121776   4.237   2.037   7.566  0.6314 -0.4684  0.2267
  189SAPI    HA21777   4.256   1.928   7.570  0.6187 -0.4893 -0.3034
  189SAPI    HB21778   4.188   2.052   7.665 -1.0118 -1.0122 -0.4736
  189SAPI    C221779   4.141   2.080   7.443 -0.1549  0.4112  0.3508
  189SAPI    HS21780   4.089   1.986   7.411  0.9041 -0.0329 -0.1195
  189SAPI   O2121781   4.222   2.125   7.331  0.2398 -0.5805  0.9507
  189SAPI   C2121782   4.304   2.042   7.278 -0.6105  1.5431 -0.4764
  189SAPI   O2221783   4.322   1.920   7.308  0.1089 -0.0360  0.2402
  189SAPI   C2221784   4.393   2.110   7.178  0.5982 -0.4549  0.0118
  189SAPI   H2R21785   4.320   2.146   7.102  0.9338  0.1606 -0.0245
  189SAPI   H2S21786   4.437   2.200   7.225 -3.7084  1.6173  0.6186
  189SAPI    C321787   4.024   2.172   7.485  0.8080 -0.4503 -0.2112
  189SAPI    HX21788   4.061   2.271   7.519  0.3062 -0.1492 -0.5213
  189SAPI    HY21789   3.964   2.131   7.569 -0.8081  1.1639 -0.5225
  189SAPI   O3121790   3.924   2.184   7.382 -0.7908 -0.7340 -0.0586
  189SAPI   C3121791   3.948   2.273   7.294 -1.3531 -0.7342 -0.0357
  189SAPI   O3221792   4.047   2.349   7.293  0.6389 -0.1641  0.0870
  189SAPI   C3221793   3.835   2.271   7.203 -0.2470 -0.1702 -0.4084
  189SAPI   H2X21794   3.742   2.311   7.248 -0.7443 -0.4554 -1.1674
  189SAPI   H2Y21795   3.803   2.167   7.183 -0.5494  0.1142 -1.5074
  189SAPI   C2321796   4.502   2.024   7.108 -0.2258 -0.8748 -0.8150
  189SAPI   H3R21797   4.462   1.924   7.081  0.9756 -1.4564 -0.4695
  189SAPI   H3S21798   4.575   2.007   7.190 -0.6068 -1.3455 -0.5672
  189SAPI   C2421799   4.562   2.074   6.979 -0.4650 -0.1456 -0.4751
  189SAPI   H4R21800   4.610   2.173   6.993  3.1459 -1.6958 -0.8438
  189SAPI   H4S21801   4.479   2.091   6.907 -0.8480  3.2275  0.5832
  189SAPI   C2521802   4.672   1.982   6.937  0.7486 -0.9362  0.1244
  189SAPI   H5R21803   4.756   1.987   7.008 -0.5211  0.2212  1.6022
  189SAPI   C2621804   4.689   1.941   6.804  0.6658  0.4620  0.0875
  189SAPI   H6R21805   4.760   1.860   6.779  0.7976  1.0242 -1.4891
  189SAPI   C2721806   4.588   1.966   6.688  0.0455  0.4833  0.2110
  189SAPI   H7R21807   4.643   1.954   6.593  0.3598  1.5770  0.2434
  189SAPI   H7S21808   4.530   2.060   6.701 -0.4350  0.1593  0.4463
  189SAPI   C2821809   4.488   1.853   6.691 -0.0587  0.5970 -0.2315
  189SAPI   H8R21810   4.485   1.802   6.789 -0.0099  0.8433 -0.1003
  189SAPI   C2921811   4.391   1.830   6.603  0.0629  0.6597 -0.0060
  189SAPI   H9R21812   4.317   1.751   6.621 -0.4314  0.3278 -2.9190
  189SAPI  C21021813   4.380   1.897   6.476  0.1703 -0.1644  0.7407
  189SAPI  H10R21814   4.408   2.003   6.492 -0.2136 -0.1902  1.6722
  189SAPI  H10S21815   4.274   1.884   6.443  0.4541 -1.3938  0.2790
  189SAPI  C21121816   4.454   1.833   6.359  0.4246 -0.6825 -0.0550
  189SAPI  H11R21817   4.529   1.758   6.387  2.5671  1.5582  0.5416
  189SAPI  C21221818   4.467   1.896   6.233  0.2952  0.3055  0.0243
  189SAPI  H12R21819   4.508   1.839   6.149  0.5010  0.8369 -0.2382
  189SAPI  C21321820   4.388   2.021   6.188 -1.8239  0.0148 -0.2705
  189SAPI  H13R21821   4.361   2.084   6.275 -0.2974 -0.7635  0.8141
  189SAPI  H13S21822   4.288   2.006   6.142 -1.3257 -1.6308 -0.9110
  189SAPI  C21421823   4.468   2.099   6.087 -0.9340  0.0262 -0.1774
  189SAPI  H14R21824   4.514   2.038   6.008  1.8538  0.8869  0.6832
  189SAPI  C21521825   4.508   2.223   6.102 -0.3159  0.0002  0.3979
  189SAPI  H15R21826   4.560   2.277   6.021 -0.2955 -1.0487 -0.3028
  189SAPI  C21621827   4.468   2.312   6.217 -0.6144  1.0146 -0.2869
  189SAPI  H16R21828   4.364   2.285   6.244 -0.3260 -1.3283 -1.2324
  189SAPI  H16S21829   4.466   2.416   6.180 -1.2310  1.8086  1.8043
  189SAPI  C21721830   4.564   2.288   6.330  0.0201  0.5542 -0.3485
  189SAPI  H17R21831   4.666   2.322   6.304  0.1986 -0.9653 -1.7733
  189SAPI  H17S21832   4.570   2.178   6.348 -0.1376  0.9710  2.9496
  189SAPI  C21821833   4.514   2.364   6.464  0.1600  0.4761  0.7452
  189SAPI  H18R21834   4.415   2.315   6.478 -0.6776  1.6662 -0.8001
  189SAPI  H18S21835   4.494   2.472   6.446  2.6895  0.7302 -1.0873
  189SAPI  C21921836   4.594   2.335   6.590  0.2177  0.7497 -0.0003
  189SAPI  H19R21837   4.698   2.374   6.587 -0.0160  1.5334  1.1585
  189SAPI  H19S21838   4.615   2.226   6.588 -2.5933  0.1491 -1.7031
  189SAPI  C22021839   4.531   2.375   6.715 -0.2454  0.8876 -0.0800
  189SAPI  H20R21840   4.432   2.326   6.728  1.5053 -3.6924 -1.6852
  189SAPI  H20S21841   4.517   2.484   6.725  0.9987  0.8398  4.2391
  189SAPI  H20T21842   4.599   2.335   6.793  2.6344  0.2604 -2.6948
  189SAPI   C3321843   3.863   2.353   7.072 -0.4072  0.0397  0.5496
  189SAPI   H3X21844   3.949   2.303   7.024 -0.8872 -0.7690  0.5054
  189SAPI   H3Y21845   3.901   2.453   7.102  1.3886 -0.2783 -0.5214
  189SAPI   C3421846   3.746   2.373   6.981  0.6158 -1.0122 -0.3590
  189SAPI   H4X21847   3.669   2.430   7.038 -0.0351 -0.1607 -2.0172
  189SAPI   H4Y21848   3.711   2.269   6.967 -0.0889 -1.2193  2.3845
  189SAPI   C3521849   3.777   2.461   6.860 -0.8843 -0.8078 -0.0483
  189SAPI   H5X21850   3.855   2.405   6.803 -1.7139 -1.9056 -0.1270
  189SAPI   H5Y21851   3.811   2.565   6.879 -1.3515 -0.4783 -0.9953
  189SAPI   C3621852   3.648   2.480   6.777 -0.0584 -0.2972  0.4833
  189SAPI   H6X21853   3.570   2.517   6.847  0.6946  1.6478  0.3420
  189SAPI   H6Y21854   3.619   2.379   6.739  1.4493 -0.1586 -1.2008
  189SAPI   C3721855   3.651   2.583   6.665  0.2973  0.1760  0.3382
  189SAPI   H7X21856   3.704   2.674   6.700 -1.1205  0.9616  0.5375
  189SAPI   H7Y21857   3.543   2.595   6.641  0.0941 -1.3882  0.3632
  189SAPI   C3821858   3.730   2.540   6.539  0.5206 -0.0585  0.6229
  189SAPI   H8X21859   3.804   2.459   6.555 -1.0288 -1.7096 -0.1063
  189SAPI   H8Y21860   3.778   2.628   6.492  0.8079 -0.0569  0.9135
  189SAPI   C3921861   3.641   2.466   6.438  0.0687  0.5343 -0.3705
  189SAPI   H9X21862   3.557   2.414   6.488  1.7536 -1.5405  0.4521
  189SAPI   H9Y21863   3.693   2.380   6.392 -1.1713 -2.0548  2.6455
  189SAPI  C31021864   3.586   2.560   6.339  0.4174  0.6224  0.2966
  189SAPI  H10X21865   3.657   2.604   6.266 -0.8352  0.2306 -1.2084
  189SAPI  H10Y21866   3.542   2.648   6.392 -0.9900  0.7621 -1.0239
  189SAPI  C31121867   3.462   2.492   6.269 -0.1412 -0.5011  0.2042
  189SAPI  H11X21868   3.382   2.463   6.340 -1.3239  3.7890  0.9470
  189SAPI  H11Y21869   3.503   2.406   6.212  3.9313  1.4176 -0.0740
  189SAPI  C31221870   3.388   2.579   6.165  0.5841  0.4577 -0.8402
  189SAPI  H12X21871   3.433   2.679   6.148 -1.6579  2.0742  1.8217
  189SAPI  H12Y21872   3.285   2.601   6.201  0.5651  2.7886 -2.1106
  189SAPI  C31321873   3.394   2.491   6.037 -0.2836 -0.1665 -0.1666
  189SAPI  H13X21874   3.317   2.415   6.065  0.8077 -0.4219  2.3909
  189SAPI  H13Y21875   3.493   2.443   6.020  0.0005  0.2311  0.3480
  189SAPI  C31421876   3.347   2.558   5.910  0.4083  0.2010 -0.3632
  189SAPI  H14X21877   3.396   2.657   5.899 -1.4361  0.8593 -4.9870
  189SAPI  H14Y21878   3.240   2.585   5.902  0.1246 -0.6442  0.3142
  189SAPI  C31521879   3.387   2.490   5.782 -1.2304  0.1764  0.5134
  189SAPI  H15X21880   3.321   2.401   5.769  0.0456 -0.6941 -0.1783
  189SAPI  H15Y21881   3.491   2.452   5.782 -0.7920  1.3188  1.3327
  189SAPI  C31621882   3.354   2.573   5.656 -0.0303  0.0058 -0.2372
  189SAPI  H16X21883   3.402   2.669   5.684 -0.2167 -0.5533  2.2845
  189SAPI  H16Y21884   3.247   2.605   5.653  0.2095  0.9219  0.4117
  189SAPI  C31721885   3.412   2.524   5.524 -0.5289 -0.2246 -0.0767
  189SAPI  H17X21886   3.369   2.425   5.498 -0.9590 -0.1208  0.2183
  189SAPI  H17Y21887   3.521   2.505   5.533 -0.3802  0.0600 -1.1841
  189SAPI  C31821888   3.396   2.618   5.401  0.1350  0.2330  0.0982
  189SAPI  H18X21889   3.452   2.713   5.406 -1.0063  0.9563 -0.3745
  189SAPI  H18Y21890   3.287   2.631   5.381  0.4182 -0.7707 -2.5110
  189SAPI  H18Z21891   3.444   2.565   5.316  1.5918 -0.4635  1.3121
  190SAPI   C1221892   4.741   6.389   7.489 -0.0541 -0.2257 -0.0196
  190SAPI    H221893   4.705   6.318   7.411  0.1013 -0.0795 -0.2274
  190SAPI    O221894   4.792   6.309   7.594  0.2547 -0.2146 -0.1817
  190SAPI   HO221895   4.714   6.291   7.648 -0.3354 -0.4740 -1.1002
  190SAPI   C1321896   4.846   6.478   7.417 -0.1633  0.1099  0.6776
  190SAPI    H321897   4.788   6.519   7.332  0.9165 -1.6001 -0.9766
  190SAPI    O321898   4.953   6.400   7.353 -0.3241 -0.2749 -0.2305
  190SAPI   HO321899   4.923   6.374   7.266 -2.7492  1.0457  0.1285
  190SAPI   C1421900   4.895   6.593   7.491  0.4370 -0.2938 -0.8102
  190SAPI    H421901   4.972   6.542   7.552  2.3715  2.2937 -0.8806
  190SAPI    O421902   4.956   6.693   7.405  0.1836 -0.0560 -0.5005
  190SAPI   HO421903   5.018   6.749   7.453  0.5245  1.4695 -2.5949
  190SAPI   C1521904   4.794   6.666   7.587 -0.0656 -0.1563  0.1211
  190SAPI    H521905   4.749   6.735   7.513 -1.4660 -0.6461  0.4956
  190SAPI    O521906   4.855   6.757   7.686  0.8280 -0.2596 -0.3665
  190SAPI   HO521907   4.874   6.846   7.657  1.3815 -0.8006 -1.7796
  190SAPI   C1621908   4.680   6.586   7.644  0.0895 -0.2116 -0.0852
  190SAPI    H621909   4.714   6.529   7.733  0.6104 -1.9224 -1.3224
  190SAPI    O621910   4.570   6.664   7.674  0.1291 -0.6037 -0.1413
  190SAPI   HO621911   4.499   6.603   7.654 -1.6705  1.3578 -0.0451
  190SAPI   C1121912   4.634   6.480   7.546  0.6307 -0.3151 -0.2228
  190SAPI    H121913   4.598   6.539   7.459 -0.5062 -2.2923 -1.1595
  190SAPI     P21914   4.421   6.343   7.495  0.1085 -0.0429 -0.2544
  190SAPI   O1321915   4.313   6.292   7.574 -0.0902 -0.2984  0.1317
  190SAPI   O1421916   4.479   6.245   7.401 -0.1685 -0.0303 -0.2596
  190SAPI   O1221917   4.525   6.405   7.600  0.5431 -0.3203 -0.5117
  190SAPI   O1121918   4.370   6.471   7.420 -0.2913  0.2297 -0.4492
  190SAPI    C121919   4.249   6.544   7.416 -0.1476  0.4583  0.2937
  190SAPI    HA21920   4.167   6.473   7.441 -0.2420  0.8227  1.0587
  190SAPI    HB21921   4.254   6.620   7.497 -0.2375 -0.6904  1.4171
  190SAPI    C221922   4.212   6.606   7.283  0.4852 -0.0723 -0.0503
  190SAPI    HS21923   4.103   6.626   7.272  0.3423 -1.2862 -0.9525
  190SAPI   O2121924   4.266   6.532   7.172  0.1852  1.0296  0.0351
  190SAPI   C2121925   4.211   6.415   7.152  0.0138  0.3185  0.6897
  190SAPI   O2221926   4.122   6.363   7.222 -0.0917  0.0472 -0.0223
  190SAPI   C2221927   4.276   6.349   7.032 -0.1110 -0.2953  0.4269
  190SAPI   H2R21928   4.387   6.356   7.042 -0.1493  1.6226 -0.0423
  190SAPI   H2S21929   4.227   6.250   7.021 -0.6056  0.1585 -2.0451
  190SAPI    C321930   4.278   6.742   7.275 -0.8356 -0.7045 -0.0321
  190SAPI    HX21931   4.386   6.716   7.270 -0.5347  0.6507 -1.3634
  190SAPI    HY21932   4.255   6.800   7.366 -0.9797 -0.2599 -0.3478
  190SAPI   O3121933   4.234   6.812   7.161 -0.2577  0.0155 -0.3988
  190SAPI   C3121934   4.311   6.810   7.046 -0.2192 -0.2008  0.5361
  190SAPI   O3221935   4.427   6.770   7.040  0.3224  0.7546 -0.4323
  190SAPI   C3221936   4.240   6.859   6.931  0.4449  0.0709 -0.4456
  190SAPI   H2X21937   4.191   6.956   6.951  0.2498  0.2552 -1.7002
  190SAPI   H2Y21938   4.158   6.788   6.906 -1.4333  1.5962  1.0674
  190SAPI   C2321939   4.240   6.431   6.901 -0.4297  0.4451 -0.5938
  190SAPI   H3R21940   4.292   6.529   6.892  1.1192 -0.0979  1.5624
  190SAPI   H3S21941   4.133   6.457   6.910 -0.8584 -0.5674 -2.2740
  190SAPI   C2421942   4.253   6.359   6.764 -0.0471  0.5996  0.5288
  190SAPI   H4R21943   4.183   6.412   6.697 -0.2549  0.4229  0.6054
  190SAPI   H4S21944   4.223   6.252   6.770  0.1510  0.4472 -0.8034
  190SAPI   C2521945   4.388   6.367   6.708 -0.4719  0.2479 -0.0066
  190SAPI   H5R21946   4.470   6.382   6.780  0.9008  3.2888 -1.9409
  190SAPI   C2621947   4.418   6.321   6.585 -0.0189 -0.2012  0.6080
  190SAPI   H6R21948   4.526   6.312   6.562  0.0257 -2.1199  1.3585
  190SAPI   C2721949   4.313   6.290   6.489 -0.2603 -0.6103  1.0110
  190SAPI   H7R21950   4.217   6.343   6.507 -0.4860 -1.1765  1.5409
  190SAPI   H7S21951   4.296   6.182   6.510  2.0151 -0.9053  1.5942
  190SAPI   C2821952   4.353   6.323   6.344 -0.0883  0.7759 -0.9670
  190SAPI   H8R21953   4.377   6.233   6.286 -2.2830 -1.2276  1.0233
  190SAPI   C2921954   4.328   6.436   6.286 -0.5215  0.4153  0.3585
  190SAPI   H9R21955   4.358   6.446   6.181  1.6978  2.0527  1.0673
  190SAPI  C21021956   4.281   6.564   6.359  0.2209  0.0369 -0.4128
  190SAPI  H10R21957   4.352   6.648   6.344  1.1758 -0.8285 -0.8185
  190SAPI  H10S21958   4.267   6.551   6.468  0.9172 -2.4797 -0.5714
  190SAPI  C21121959   4.137   6.589   6.318  0.3330 -0.2548 -0.0205
  190SAPI  H11R21960   4.069   6.513   6.360 -1.8307  1.2020 -0.7029
  190SAPI  C21221961   4.095   6.676   6.229  0.0238  0.0588 -0.1170
  190SAPI  H12R21962   3.986   6.690   6.216  0.3376  0.9473 -2.3010
  190SAPI  C21321963   4.174   6.787   6.165 -0.6778 -0.4622 -0.0893
  190SAPI  H13R21964   4.258   6.819   6.230 -0.6714  1.8854 -1.1739
  190SAPI  H13S21965   4.110   6.875   6.145 -1.4411 -0.4370  2.2031
  190SAPI  C21421966   4.247   6.759   6.035 -0.5288  0.3729  0.0313
  190SAPI  H14R21967   4.336   6.695   6.041 -0.4874 -0.5173 -5.3697
  190SAPI  C21521968   4.215   6.794   5.912 -0.3870 -0.3620 -0.4177
  190SAPI  H15R21969   4.283   6.759   5.834  0.4536  1.0524 -0.3560
  190SAPI  C21621970   4.096   6.883   5.870  0.5843  0.9829  0.7545
  190SAPI  H16R21971   4.129   6.989   5.861  1.2886  0.8581  1.7028
  190SAPI  H16S21972   4.011   6.885   5.940 -0.4631  3.4091 -0.4751
  190SAPI  C21721973   4.038   6.834   5.735 -0.3258  0.8683  0.0070
  190SAPI  H17R21974   3.962   6.902   5.691 -0.4323  0.5521 -0.2988
  190SAPI  H17S21975   3.992   6.734   5.751  0.6084  0.2208 -1.1933
  190SAPI  C21821976   4.141   6.828   5.617  0.0660 -0.0414 -0.0118
  190SAPI  H18R21977   4.087   6.792   5.527  0.4359 -1.1312  0.1780
  190SAPI  H18S21978   4.213   6.745   5.633 -1.8720 -1.7515  0.3429
  190SAPI  C21921979   4.208   6.963   5.584 -0.4191  0.2098  0.1255
  190SAPI  H19R21980   4.287   6.981   5.659  0.7392 -1.4525 -0.6266
  190SAPI  H19S21981   4.134   7.044   5.572  0.0755  0.8151  1.1195
  190SAPI  C22021982   4.291   6.950   5.455  0.2162  0.0018 -0.6394
  190SAPI  H20R21983   4.352   6.858   5.466  1.7546  1.2278  1.8634
  190SAPI  H20S21984   4.348   7.044   5.440  0.0671  0.3151  0.6806
  190SAPI  H20T21985   4.229   6.949   5.362 -0.7347  0.6468 -0.0284
  190SAPI   C3321986   4.334   6.879   6.808  0.1771 -0.1328 -0.4951
  190SAPI   H3X21987   4.323   6.789   6.745 -0.9332 -0.1460 -0.2924
  190SAPI   H3Y21988   4.442   6.879   6.837  0.6425  1.3254 -2.0721
  190SAPI   C3421989   4.300   7.007   6.732 -0.1012  0.4127  0.1946
  190SAPI   H4X21990   4.295   7.079   6.816  0.7881 -1.9164  2.3981
  190SAPI   H4Y21991   4.212   7.004   6.664 -0.3881  0.2963  0.5673
  190SAPI   C3521992   4.416   7.046   6.635 -0.0763  0.3024 -0.3074
  190SAPI   H5X21993   4.514   7.037   6.686 -0.3023 -1.0491 -0.0543
  190SAPI   H5Y21994   4.402   7.152   6.607 -0.4961  0.9896  2.3192
  190SAPI   C3621995   4.427   6.960   6.507  0.0328 -0.2448  0.1597
  190SAPI   H6X21996   4.330   6.962   6.453 -1.4726 -0.2798  2.6957
  190SAPI   H6Y21997   4.453   6.856   6.534 -1.6172 -1.7041 -3.2628
  190SAPI   C3721998   4.542   7.010   6.421  0.1988 -0.8904 -1.1266
  190SAPI   H7X21999   4.641   7.003   6.471 -0.4904  1.5483  0.7621
  190SAPI   H7Y22000   4.540   7.119   6.403 -0.3298 -0.6067  0.4922
  190SAPI   C3822001   4.567   6.934   6.285 -0.0784  0.3784  0.1560
  190SAPI   H8X22002   4.628   6.996   6.217  1.4178 -0.0327  1.0689
  190SAPI   H8Y22003   4.470   6.913   6.236 -0.1085 -3.1063  1.4132
  190SAPI   C3922004   4.624   6.794   6.315 -0.0105 -0.3259  0.1747
  190SAPI   H9X22005   4.546   6.730   6.363  0.0377 -0.9929 -0.6118
  190SAPI   H9Y22006   4.709   6.800   6.386  1.2533  0.1289 -1.3187
  190SAPI  C31022007   4.692   6.733   6.186  0.1843  0.3341  0.2096
  190SAPI  H10X22008   4.799   6.762   6.182  0.1222  0.4211 -2.5033
  190SAPI  H10Y22009   4.639   6.795   6.110 -0.5217 -1.6784 -1.0533
  190SAPI  C31122010   4.660   6.581   6.170 -0.4667  1.0970 -0.2715
  190SAPI  H11X22011   4.560   6.560   6.213 -0.2705  0.6185 -0.0428
  190SAPI  H11Y22012   4.737   6.524   6.225  0.1006 -0.0611 -2.1516
  190SAPI  C31222013   4.654   6.530   6.016  0.0688  0.0624 -0.1812
  190SAPI  H12X22014   4.754   6.538   5.969  0.1542 -0.4922 -0.1056
  190SAPI  H12Y22015   4.580   6.591   5.961  1.1777  1.0102 -0.6531
  190SAPI  C31322016   4.599   6.388   6.014 -0.0970  0.4134 -0.6059
  190SAPI  H13X22017   4.513   6.368   6.082 -0.3300  2.0108 -0.3983
  190SAPI  H13Y22018   4.681   6.325   6.053  1.3905  1.8632 -1.3015
  190SAPI  C31422019   4.547   6.333   5.884 -0.2471 -0.2307 -0.4110
  190SAPI  H14X22020   4.619   6.359   5.803 -0.2203 -2.1466 -1.0389
  190SAPI  H14Y22021   4.452   6.383   5.854  0.7666  1.4395 -0.9962
  190SAPI  C31522022   4.519   6.183   5.879  0.2398 -0.4294 -0.2754
  190SAPI  H15X22023   4.605   6.116   5.900 -0.0575 -1.0828 -1.1059
  190SAPI  H15Y22024   4.488   6.163   5.775  1.8723  1.3807 -1.1705
  190SAPI  C31622025   4.413   6.140   5.979  0.6462  0.2240  0.5506
  190SAPI  H16X22026   4.311   6.182   5.965  0.3714  0.0897  1.9543
  190SAPI  H16Y22027   4.442   6.155   6.085 -0.8072  1.0579  0.8686
  190SAPI  C31722028   4.369   5.994   5.960  0.2732  0.1276 -0.3300
  190SAPI  H17X22029   4.455   5.926   5.971 -0.8084 -1.1279  0.5926
  190SAPI  H17Y22030   4.330   5.990   5.856  0.1650 -0.9202 -0.2577
  190SAPI  C31822031   4.264   5.945   6.059  0.4166 -0.4774  0.2957
  190SAPI  H18X22032   4.300   5.936   6.164  1.2344 -2.2147 -0.0939
  190SAPI  H18Y22033   4.241   5.845   6.017  1.2018 -0.7076  0.3971
  190SAPI  H18Z22034   4.175   6.012   6.056  1.3738  0.8139  0.3164
  191SAPI   C1222035   5.511   0.449   3.119 -0.4406 -0.7487 -0.5851
  191SAPI    H222036   5.469   0.548   3.091 -0.4778 -0.3355  0.8911
  191SAPI    O222037   5.432   0.348   3.057 -0.5100  0.4426 -0.0900
  191SAPI   HO222038   5.357   0.341   3.117  0.4515  1.2171  1.2385
  191SAPI   C1322039   5.656   0.452   3.071  0.1218 -0.4903 -0.1593
  191SAPI    H322040   5.706   0.535   3.127 -0.9837  0.2725 -0.2718
  191SAPI    O322041   5.662   0.500   2.934 -0.2595 -0.2412 -0.2635
  191SAPI   HO322042   5.588   0.454   2.894 -1.3304 -3.0770  4.2321
  191SAPI   C1422043   5.736   0.326   3.101  0.3953  0.1227  0.7341
  191SAPI    H422044   5.699   0.258   3.021 -2.1997  0.2695  1.6977
  191SAPI    O422045   5.874   0.341   3.085 -0.0705  0.3102 -0.1586
  191SAPI   HO422046   5.900   0.271   3.024 -1.5347  0.7529 -1.3527
  191SAPI   C1522047   5.693   0.257   3.234  0.3554 -0.0147 -0.6193
  191SAPI    H522048   5.770   0.297   3.304  1.8411 -1.4699 -1.3543
  191SAPI    O522049   5.716   0.117   3.231 -0.4713 -0.5205  0.2965
  191SAPI   HO522050   5.800   0.088   3.267  1.6717  1.4230 -2.6702
  191SAPI   C1622051   5.560   0.298   3.307 -0.2142  0.4270  0.1598
  191SAPI    H622052   5.480   0.232   3.267 -1.6122  1.5287  1.0079
  191SAPI    O622053   5.564   0.273   3.444  0.1505  0.5605 -0.1767
  191SAPI   HO622054   5.477   0.311   3.462 -1.2709 -0.6033 -3.7459
  191SAPI   C1122055   5.517   0.443   3.273 -0.1989 -0.9507 -0.9241
  191SAPI    H122056   5.597   0.507   3.315 -1.4869  1.3935 -1.8150
  191SAPI     P22057   5.355   0.628   3.351 -0.2786  0.0955 -0.0273
  191SAPI   O1322058   5.211   0.663   3.326 -0.3892 -0.2361  0.5439
  191SAPI   O1422059   5.446   0.711   3.262 -0.5367  0.5059  0.1159
  191SAPI   O1222060   5.386   0.465   3.320  0.3880  0.3365 -0.4039
  191SAPI   O1122061   5.397   0.661   3.501 -0.3349 -0.1474 -0.1896
  191SAPI    C122062   5.389   0.796   3.554  0.8263  0.1482  0.1994
  191SAPI    HA22063   5.385   0.875   3.477 -1.9742 -1.0859 -1.0546
  191SAPI    HB22064   5.296   0.805   3.613  0.6695 -1.5723  0.2758
  191SAPI    C222065   5.499   0.826   3.659  0.2213 -0.5085 -0.2183
  191SAPI    HS22066   5.597   0.796   3.616  1.1738  2.8306 -0.7420
  191SAPI   O2122067   5.461   0.757   3.778  0.1006  0.0233 -0.2306
  191SAPI   C2122068   5.551   0.775   3.871 -0.5903  0.6969 -0.2210
  191SAPI   O2222069   5.662   0.826   3.851 -0.0748  0.3037 -0.4758
  191SAPI   C2222070   5.509   0.702   4.004 -0.1707  0.1132  0.6822
  191SAPI   H2R22071   5.398   0.700   4.001 -0.1860  0.6587  0.9172
  191SAPI   H2S22072   5.554   0.600   4.008  2.1988  0.9341 -2.2538
  191SAPI    C322073   5.505   0.985   3.673  0.0266  0.1346 -0.0702
  191SAPI    HX22074   5.539   0.999   3.568  1.2092 -0.1728  0.2678
  191SAPI    HY22075   5.587   1.020   3.739 -0.9471 -1.0727  1.8469
  191SAPI   O3122076   5.376   1.055   3.690 -0.6125  0.1215 -0.8696
  191SAPI   C3122077   5.344   1.081   3.814 -0.3134  0.7227 -0.3878
  191SAPI   O3222078   5.416   1.047   3.906  0.2905 -0.0241 -0.4463
  191SAPI   C3222079   5.202   1.144   3.813 -0.2723 -0.1992 -0.7070
  191SAPI   H2X22080   5.182   1.193   3.715  0.3202 -1.6700 -1.6003
  191SAPI   H2Y22081   5.194   1.213   3.899 -1.3173 -2.0943  0.8030
  191SAPI   C2322082   5.558   0.782   4.128  0.4501 -0.1882 -0.7416
  191SAPI   H3R22083   5.524   0.887   4.118 -0.4087 -0.5152 -1.4645
  191SAPI   H3S22084   5.669   0.779   4.130  0.6270  3.1295  0.8920
  191SAPI   C2422085   5.506   0.731   4.265 -0.0299  0.5544  0.3604
  191SAPI   H4R22086   5.493   0.621   4.258 -1.8806  0.8053 -1.2210
  191SAPI   H4S22087   5.402   0.771   4.268 -0.6927 -0.9199 -1.1033
  191SAPI   C2522088   5.586   0.767   4.384  0.1121 -0.4015 -0.1056
  191SAPI   H5R22089   5.632   0.867   4.390 -0.5700  0.0485 -1.7196
  191SAPI   C2622090   5.621   0.687   4.483  0.0790 -0.8862  0.8963
  191SAPI   H6R22091   5.683   0.740   4.557 -0.9779  1.6894  0.0554
  191SAPI   C2722092   5.584   0.548   4.506 -0.9014 -0.5761  0.1984
  191SAPI   H7R22093   5.519   0.507   4.425 -1.8391 -0.5150  0.9036
  191SAPI   H7S22094   5.528   0.539   4.601  0.4548 -0.5833  1.0214
  191SAPI   C2822095   5.701   0.454   4.519 -0.2278  0.2426 -0.0875
  191SAPI   H8R22096   5.738   0.403   4.428  0.6014  1.9255 -0.7412
  191SAPI   C2922097   5.750   0.410   4.635  0.1285  0.1673 -0.8156
  191SAPI   H9R22098   5.831   0.336   4.637  0.8140  0.9037 -0.9389
  191SAPI  C21022099   5.711   0.456   4.774  1.3906  0.0565 -0.8061
  191SAPI  H10R22100   5.638   0.381   4.813  0.7383  1.7023  1.3305
  191SAPI  H10S22101   5.648   0.548   4.776  0.2471 -0.7003 -0.6890
  191SAPI  C21122102   5.818   0.476   4.876  0.4756  0.1267 -0.3635
  191SAPI  H11R22103   5.915   0.507   4.834  0.0691  0.3453 -1.1721
  191SAPI  C21222104   5.811   0.460   5.012  0.4393  0.0368  0.3145
  191SAPI  H12R22105   5.883   0.504   5.083 -1.4234 -0.0734  2.3838
  191SAPI  C21322106   5.692   0.409   5.091  0.8844 -0.0801 -0.0556
  191SAPI  H13R22107   5.717   0.304   5.116  2.7280 -0.6131 -3.5995
  191SAPI  H13S22108   5.597   0.408   5.033 -0.5098 -1.7442  2.0795
  191SAPI  C21422109   5.650   0.483   5.214 -0.1449 -0.8324 -0.2266
  191SAPI  H14R22110   5.602   0.581   5.201 -2.9159 -1.7909  1.8792
  191SAPI  C21522111   5.644   0.451   5.345 -0.2932 -0.3452  0.2407
  191SAPI  H15R22112   5.612   0.535   5.409  1.4957  1.2162 -0.8070
  191SAPI  C21622113   5.676   0.318   5.405 -0.0381  0.1744 -0.8846
  191SAPI  H16R22114   5.751   0.272   5.337  1.3253  1.1469 -0.0855
  191SAPI  H16S22115   5.588   0.251   5.415  0.6717 -0.6844 -0.1822
  191SAPI  C21722116   5.755   0.344   5.544 -0.4031 -0.1735 -0.1683
  191SAPI  H17R22117   5.800   0.248   5.577  1.0239  1.4991  3.2381
  191SAPI  H17S22118   5.676   0.369   5.617  0.0130 -1.5010  0.7830
  191SAPI  C21822119   5.865   0.451   5.529  0.0352 -0.3000  0.1810
  191SAPI  H18R22120   5.917   0.468   5.626  1.9376  1.5193 -1.0591
  191SAPI  H18S22121   5.825   0.547   5.489 -0.3930  0.4807  2.3026
  191SAPI  C21922122   5.986   0.407   5.438 -0.3258  0.1766 -0.3952
  191SAPI  H19R22123   6.046   0.500   5.446 -0.2229  0.0672  0.1392
  191SAPI  H19S22124   5.946   0.382   5.338 -1.8617  0.6704  0.0577
  191SAPI  C22022125   6.064   0.282   5.490 -0.3122 -0.1509  0.1153
  191SAPI  H20R22126   6.136   0.242   5.415 -0.0148  0.5826  0.0076
  191SAPI  H20S22127   5.979   0.211   5.501 -1.5242  1.1541 -0.5791
  191SAPI  H20T22128   6.119   0.318   5.579 -1.0644 -0.3042  0.6478
  191SAPI   C3322129   5.088   1.035   3.816 -0.8991  0.0189 -0.1539
  191SAPI   H3X22130   5.104   0.969   3.728 -1.4161 -1.3280  0.7153
  191SAPI   H3Y22131   4.987   1.080   3.809 -2.1230 -2.0720  2.2088
  191SAPI   C3422132   5.111   0.932   3.935  0.5941  0.7932 -0.2760
  191SAPI   H4X22133   5.196   0.863   3.913  0.0152 -0.2199  0.5832
  191SAPI   H4Y22134   5.026   0.861   3.944  1.6249 -0.5091 -0.4543
  191SAPI   C3522135   5.120   0.989   4.074  0.4525 -0.4190 -0.1003
  191SAPI   H5X22136   5.210   1.054   4.070 -1.3556  2.2611  0.5899
  191SAPI   H5Y22137   5.136   0.913   4.154 -0.7237  0.6680  1.2221
  191SAPI   C3622138   4.993   1.067   4.115 -0.1220  0.3866  0.9996
  191SAPI   H6X22139   4.904   1.001   4.111  1.7077 -2.1948  0.2464
  191SAPI   H6Y22140   4.973   1.148   4.042  1.1601  0.5469  0.7952
  191SAPI   C3722141   5.006   1.105   4.261 -0.8726  0.7662  0.2867
  191SAPI   H7X22142   4.988   1.018   4.328 -0.9168  0.2644 -0.3628
  191SAPI   H7Y22143   4.927   1.175   4.294 -0.2732  0.6220  2.1336
  191SAPI   C3822144   5.142   1.176   4.293  0.5940 -0.3745  0.0262
  191SAPI   H8X22145   5.155   1.250   4.212 -3.2967  0.7372  0.1969
  191SAPI   H8Y22146   5.230   1.108   4.299  0.7848 -0.2543 -1.1767
  191SAPI   C3922147   5.128   1.253   4.431  0.1711 -0.0359 -0.0486
  191SAPI   H9X22148   5.053   1.334   4.422 -0.5924 -0.7343 -0.0761
  191SAPI   H9Y22149   5.221   1.312   4.448 -0.0692 -0.1353  1.8062
  191SAPI  C31022150   5.107   1.161   4.556  0.1919 -0.2898  0.6381
  191SAPI  H10X22151   5.189   1.086   4.548 -0.4018 -1.1853  2.4176
  191SAPI  H10Y22152   5.010   1.110   4.540 -0.6420  1.3055  0.4277
  191SAPI  C31122153   5.114   1.224   4.695 -0.3858 -0.2173 -0.3235
  191SAPI  H11X22154   5.205   1.288   4.685 -0.6860 -0.1516 -3.2798
  191SAPI  H11Y22155   5.153   1.153   4.772  2.2402  1.6759  0.2470
  191SAPI  C31222156   4.983   1.286   4.743 -0.3744 -0.3837  0.5453
  191SAPI  H12X22157   4.911   1.205   4.766  0.0829 -0.8207  0.4831
  191SAPI  H12Y22158   4.946   1.345   4.656  4.0262  0.8245 -0.7801
  191SAPI  C31322159   5.009   1.370   4.874 -0.5630  0.2213 -0.9884
  191SAPI  H13X22160   4.910   1.409   4.905 -0.4014  0.0086 -0.1717
  191SAPI  H13Y22161   5.067   1.462   4.850 -0.7529  0.3448 -0.9692
  191SAPI  C31422162   5.076   1.295   4.990 -0.0027 -0.3850  0.7096
  191SAPI  H14X22163   5.183   1.268   4.971  0.0353 -0.0745  0.4742
  191SAPI  H14Y22164   5.020   1.204   5.018  0.9187 -0.2723  3.1643
  191SAPI  C31522165   5.078   1.392   5.114 -0.1717 -0.2448 -0.0156
  191SAPI  H15X22166   4.977   1.374   5.154  0.0254 -3.2211 -0.6100
  191SAPI  H15Y22167   5.085   1.499   5.085 -1.5018  0.3212  1.6219
  191SAPI  C31622168   5.186   1.357   5.220  0.5098 -0.8066  0.4945
  191SAPI  H16X22169   5.176   1.422   5.310 -0.6963  0.8349 -0.7677
  191SAPI  H16Y22170   5.285   1.380   5.175  0.3160 -2.2625 -0.7455
  191SAPI  C31722171   5.186   1.208   5.267  0.9792  0.0696  0.7861
  191SAPI  H17X22172   5.214   1.136   5.188 -0.9819  0.2423 -0.1374
  191SAPI  H17Y22173   5.084   1.180   5.303 -0.8458  3.0897 -1.5484
  191SAPI  C31822174   5.277   1.174   5.388  0.5169  0.1670 -0.1432
  191SAPI  H18X22175   5.384   1.192   5.367  0.4118  1.2632  0.2093
  191SAPI  H18Y22176   5.266   1.070   5.424  2.0082  0.2808  0.6881
  191SAPI  H18Z22177   5.244   1.243   5.468 -0.5981 -0.7635  0.2280
  192SAPI   C1222178   1.126   1.529   3.251  0.2234  0.4722  0.0138
  192SAPI    H222179   1.109   1.435   3.195  1.3957 -0.0884  0.5759
  192SAPI    O222180   1.266   1.527   3.271 -0.0162  0.1568  0.1173
  192SAPI   HO222181   1.281   1.506   3.364 -0.2455 -0.1809  0.0791
  192SAPI   C1322182   1.087   1.647   3.168 -0.6023  0.0040 -0.3686
  192SAPI    H322183   0.977   1.639   3.156 -0.9531  3.4335 -0.6525
  192SAPI    O322184   1.150   1.643   3.040  0.2118  0.4609  0.3028
  192SAPI   HO322185   1.232   1.595   3.050 -0.0952 -0.2845 -0.6093
  192SAPI   C1422186   1.094   1.787   3.232  0.0628  0.6207  0.0352
  192SAPI    H422187   1.202   1.813   3.230  0.4393 -0.7023  1.2326
  192SAPI    O422188   1.028   1.890   3.151 -0.3275 -0.7226 -0.3022
  192SAPI   HO422189   0.936   1.867   3.135 -0.8014 -0.5470  1.9222
  192SAPI   C1522190   1.053   1.790   3.379 -0.9475 -0.2884  0.0364
  192SAPI    H522191   0.944   1.811   3.381 -0.9564 -0.0954  4.0530
  192SAPI    O522192   1.103   1.900   3.446 -0.1754  0.0429  0.0391
  192SAPI   HO522193   1.153   1.872   3.523  0.4782  0.6210 -0.1633
  192SAPI   C1622194   1.061   1.661   3.463  0.3914 -0.4371 -0.2013
  192SAPI    H622195   1.161   1.674   3.511  0.6598 -1.1092 -0.5614
  192SAPI    O622196   0.962   1.660   3.561  0.0688 -0.2223 -0.5690
  192SAPI   HO622197   0.987   1.596   3.628 -1.3965 -0.1886  0.0408
  192SAPI   C1122198   1.051   1.531   3.386  0.3608  0.2071 -0.0226
  192SAPI    H122199   0.944   1.515   3.359  0.5307 -0.7405 -0.1795
  192SAPI     P22200   1.013   1.274   3.492  0.0208  0.3635  0.1969
  192SAPI   O1322201   1.066   1.178   3.387  0.6118 -0.5826  0.6372
  192SAPI   O1422202   0.865   1.300   3.500  0.2377  0.1832 -0.4174
  192SAPI   O1222203   1.087   1.419   3.472  0.1195 -0.5046 -0.6643
  192SAPI   O1122204   1.071   1.232   3.629 -0.3585  0.4456  0.3082
  192SAPI    C122205   1.215   1.220   3.638 -0.0234 -0.6682  0.8702
  192SAPI    HA22206   1.256   1.201   3.536  0.1658 -1.2139  1.0440
  192SAPI    HB22207   1.265   1.313   3.673 -0.8729  1.2665 -2.5739
  192SAPI    C222208   1.268   1.106   3.729  0.0406 -0.1820  0.6313
  192SAPI    HS22209   1.354   1.063   3.674 -1.1525 -0.2867 -1.2480
  192SAPI   O2122210   1.164   1.013   3.761  0.4882  0.2641  0.5449
  192SAPI   C2122211   1.217   0.897   3.788 -0.5697 -0.4970 -1.1555
  192SAPI   O2222212   1.337   0.868   3.778 -0.1809  0.4842 -0.8853
  192SAPI   C2222213   1.114   0.804   3.846 -0.1051  0.0622  0.0229
  192SAPI   H2R22214   1.045   0.873   3.900  0.4735  1.0132 -0.4233
  192SAPI   H2S22215   1.055   0.748   3.769 -0.8048  2.3519 -1.2004
  192SAPI    C322216   1.323   1.182   3.852 -0.3851 -0.2565 -0.0355
  192SAPI    HX22217   1.243   1.251   3.886 -0.6054  1.4825 -3.6925
  192SAPI    HY22218   1.407   1.243   3.813 -1.7286  1.9856  0.4363
  192SAPI   O3122219   1.373   1.095   3.957  0.4367  0.2039  0.5565
  192SAPI   C3122220   1.506   1.076   3.960  0.5209  0.6016  0.2300
  192SAPI   O3222221   1.588   1.131   3.890  0.4776 -0.8096 -0.5310
  192SAPI   C3222222   1.533   0.944   4.023 -0.0759 -0.1662  0.0871
  192SAPI   H2X22223   1.601   0.885   3.958 -0.9424  2.5518 -3.6401
  192SAPI   H2Y22224   1.435   0.892   4.028 -1.4925  2.4345  0.9671
  192SAPI   C2322225   1.169   0.701   3.941 -0.2945  0.8721  0.1572
  192SAPI   H3R22226   1.255   0.735   4.002  0.6456 -0.1653 -0.5488
  192SAPI   H3S22227   1.218   0.616   3.889  1.9678  0.2519  3.0495
  192SAPI   C2422228   1.048   0.655   4.035  0.2879  0.1720 -0.3812
  192SAPI   H4R22229   0.958   0.658   3.970 -1.1925  0.3583  1.5731
  192SAPI   H4S22230   1.035   0.727   4.119  0.9048 -0.9520  0.7135
  192SAPI   C2522231   1.065   0.514   4.093  0.2073  0.0433  0.5451
  192SAPI   H5R22232   1.043   0.431   4.025  1.0006 -0.8394  1.3259
  192SAPI   C2622233   1.118   0.479   4.217  0.5182 -0.3147 -0.3170
  192SAPI   H6R22234   1.105   0.374   4.248  1.3771 -0.5076 -0.5978
  192SAPI   C2722235   1.166   0.578   4.320  0.2924 -0.2529 -0.8530
  192SAPI   H7R22236   1.126   0.676   4.287 -1.3752 -0.8589 -0.7540
  192SAPI   H7S22237   1.277   0.576   4.323  0.3021  1.0044 -0.0913
  192SAPI   C2822238   1.114   0.546   4.460  0.1495  0.1866  0.4197
  192SAPI   H8R22239   1.020   0.600   4.478  0.4141  1.3194 -1.3683
  192SAPI   C2922240   1.172   0.474   4.555  0.7493 -0.4090 -0.2631
  192SAPI   H9R22241   1.125   0.470   4.654  0.8489  2.0770 -0.0536
  192SAPI  C21022242   1.296   0.384   4.537  0.4970 -0.3329 -0.1937
  192SAPI  H10R22243   1.346   0.399   4.439  0.4381 -1.3665 -0.3890
  192SAPI  H10S22244   1.259   0.280   4.524 -0.7229 -0.0118  0.5299
  192SAPI  C21122245   1.390   0.381   4.647  0.4815 -0.5482  0.1406
  192SAPI  H11R22246   1.482   0.440   4.632  1.5573 -2.1358  0.2951
  192SAPI  C21222247   1.378   0.325   4.765  0.0112  0.1626 -0.1310
  192SAPI  H12R22248   1.457   0.350   4.838 -1.8132  0.4830  1.8362
  192SAPI  C21322249   1.256   0.244   4.812  0.1841  0.1434 -0.5886
  192SAPI  H13R22250   1.290   0.138   4.817 -2.8759 -0.8952  0.2055
  192SAPI  H13S22251   1.173   0.244   4.738  0.9250 -0.2271 -1.4374
  192SAPI  C21422252   1.207   0.300   4.941  0.2528 -0.2032 -0.3023
  192SAPI  H14R22253   1.167   0.402   4.925  1.8082  0.1318 -2.5603
  192SAPI  C21522254   1.203   0.234   5.061  1.1193  0.2924  0.5089
  192SAPI  H15R22255   1.153   0.284   5.146 -2.7595  0.5864 -1.7270
  192SAPI  C21622256   1.271   0.104   5.094 -0.3974 -0.7275 -0.1276
  192SAPI  H16R22257   1.281   0.101   5.204 -0.1311 -0.6797 -0.1508
  192SAPI  H16S22258   1.374   0.102   5.052  0.1035 -0.9879  1.0783
  192SAPI  C21722259   1.194  -0.027   5.043 -0.2143  0.1221 -0.2649
  192SAPI  H17R22260   1.268  -0.110   5.046 -0.9382 -0.5182  1.2439
  192SAPI  H17S22261   1.163  -0.017   4.937  0.6147 -1.0877 -0.6519
  192SAPI  C21822262   1.081  -0.070   5.141  0.7030  0.1246 -0.0153
  192SAPI  H18R22263   0.998  -0.118   5.086 -0.6710  2.7745 -0.4259
  192SAPI  H18S22264   1.032   0.024   5.173  0.9503  0.1699  0.2366
  192SAPI  C21922265   1.134  -0.145   5.263  0.2537  0.0133  0.2179
  192SAPI  H19R22266   1.183  -0.073   5.333 -0.6951 -1.8284  2.9577
  192SAPI  H19S22267   1.206  -0.223   5.229 -0.5230 -0.4325 -0.4404
  192SAPI  C22022268   1.027  -0.229   5.338  0.0967  0.0296 -0.1104
  192SAPI  H20R22269   0.977  -0.297   5.266  2.1754  0.2974 -1.8921
  192SAPI  H20S22270   0.945  -0.163   5.374 -0.2904 -1.0137  1.0000
  192SAPI  H20T22271   1.076  -0.281   5.423 -1.6281 -0.0583  0.8757
  192SAPI   C3322272   1.585   0.955   4.175 -0.5006  0.3606 -0.9243
  192SAPI   H3X22273   1.620   1.058   4.197 -0.9114  0.3271 -0.0624
  192SAPI   H3Y22274   1.672   0.887   4.183 -0.7796  0.0155 -0.7651
  192SAPI   C3422275   1.479   0.902   4.277 -0.8512 -0.1210  0.3718
  192SAPI   H4X22276   1.428   0.813   4.234  0.0437 -0.6890  0.4389
  192SAPI   H4Y22277   1.404   0.979   4.301 -0.5476  0.1209  0.5568
  192SAPI   C3522278   1.544   0.863   4.415 -0.7042  0.3053 -0.1706
  192SAPI   H5X22279   1.621   0.939   4.442  1.1813 -0.5815 -2.6708
  192SAPI   H5Y22280   1.600   0.770   4.391  0.3891 -0.0168  3.1017
  192SAPI   C3622281   1.449   0.829   4.534  0.2250 -0.3616  0.1533
  192SAPI   H6X22282   1.387   0.748   4.491  0.0953  1.1508 -2.7932
  192SAPI   H6Y22283   1.383   0.917   4.550 -0.4738 -1.1185  1.6173
  192SAPI   C3722284   1.522   0.768   4.654 -0.0880  0.0667  0.5780
  192SAPI   H7X22285   1.609   0.833   4.678 -1.9799  2.1948  2.1250
  192SAPI   H7Y22286   1.567   0.669   4.630  1.3216  1.1043 -1.3603
  192SAPI   C3822287   1.427   0.761   4.770  0.1005  0.1503  0.3304
  192SAPI   H8X22288   1.328   0.711   4.767  1.0173 -1.8490  1.0758
  192SAPI   H8Y22289   1.412   0.867   4.800 -0.6237  0.1098  0.1374
  192SAPI   C3922290   1.502   0.701   4.892  0.4368  0.4610 -0.2018
  192SAPI   H9X22291   1.605   0.739   4.911 -0.4677  2.2358  1.5464
  192SAPI   H9Y22292   1.511   0.591   4.885  0.8082  0.5571 -1.6915
  192SAPI  C31022293   1.434   0.737   5.026  0.1142  0.2136 -0.2634
  192SAPI  H10X22294   1.326   0.709   5.020  0.8644 -3.6310  1.0436
  192SAPI  H10Y22295   1.451   0.844   5.046  0.2116 -0.0859  1.3245
  192SAPI  C31122296   1.494   0.647   5.138  0.1586 -0.9585 -0.2154
  192SAPI  H11X22297   1.603   0.663   5.124  0.1694  0.1583  0.8791
  192SAPI  H11Y22298   1.470   0.541   5.118 -1.4621 -0.4044 -1.4545
  192SAPI  C31222299   1.448   0.687   5.274  0.2026  0.3823 -0.2568
  192SAPI  H12X22300   1.339   0.707   5.269 -0.3183 -2.0813 -0.1083
  192SAPI  H12Y22301   1.493   0.781   5.313  1.9095  0.4408 -2.2349
  192SAPI  C31322302   1.469   0.574   5.384 -0.1082 -0.3542 -0.0240
  192SAPI  H13X22303   1.435   0.476   5.345 -2.0335  0.0818  0.4731
  192SAPI  H13Y22304   1.412   0.601   5.476 -0.6878  1.6824 -0.9407
  192SAPI  C31422305   1.617   0.559   5.416  0.1728 -0.0020  0.4730
  192SAPI  H14X22306   1.659   0.659   5.439  2.4525 -0.1977 -2.3654
  192SAPI  H14Y22307   1.666   0.521   5.325  0.3542  1.6675 -0.1550
  192SAPI  C31522308   1.652   0.459   5.523  0.1255  0.5651 -0.4030
  192SAPI  H15X22309   1.610   0.362   5.492 -1.8546  1.3802 -0.4102
  192SAPI  H15Y22310   1.599   0.480   5.619  0.3846 -0.4535 -0.0216
  192SAPI  C31622311   1.805   0.446   5.557  0.3738  0.4635 -0.5097
  192SAPI  H16X22312   1.840   0.540   5.604  1.9445 -0.4137  0.1713
  192SAPI  H16Y22313   1.861   0.454   5.462 -0.2144  1.4662 -0.7857
  192SAPI  C31722314   1.844   0.335   5.650 -0.0906  0.2425 -0.5324
  192SAPI  H17X22315   1.834   0.234   5.602 -0.4710 -0.7782  1.5909
  192SAPI  H17Y22316   1.781   0.334   5.741 -0.3555 -1.8558 -0.6788
  192SAPI  C31822317   1.990   0.340   5.693 -0.6601 -0.2997  0.0864
  192SAPI  H18X22318   2.005   0.257   5.765  1.9815 -0.7643 -0.8797
  192SAPI  H18Y22319   2.011   0.441   5.735 -0.6767  0.0677 -0.7591
  192SAPI  H18Z22320   2.057   0.317   5.608  0.0775  1.8250  0.0411
  193SOD    SOD22321   6.027   0.780   2.908 -0.1410 -0.4559  0.0517
  194SOD    SOD22322   6.121   4.600   2.231  0.2288 -0.3079  0.3398
  195SOD    SOD22323   2.651   4.900   7.431  0.2543  0.1241 -0.0207
  196SOD    SOD22324   5.534   4.619   0.712  0.0749  0.2457  0.0904
  197SOD    SOD22325   6.188   6.097   3.101  0.7212 -0.0917 -0.3165
  198SOD    SOD22326   6.442   5.703   2.897  0.2088  0.3562 -0.1948
  199SOD    SOD22327   1.381   3.475   7.899 -0.4870 -0.0852  0.1636
  200SOD    SOD22328   4.576   2.904   2.187  0.0353  0.0647 -0.2014
  201SOD    SOD22329   3.700   3.817   0.268 -0.1400  0.0144 -0.2378
  202SOD    SOD22330   4.942   5.300   7.780 -0.2473  0.2166 -0.0086
  203SOD    SOD22331   2.981   1.838   8.401 -0.2568 -0.1480 -0.0948
  204SOD    SOD22332   1.762   4.412   8.336 -0.1878  0.1469 -0.3327
  205SOD    SOD22333   6.688   4.951   3.642  0.4362 -0.0167  0.2139
  206SOD    SOD22334   1.468   1.528   0.051  0.5887  0.1499  0.1901
  207SOD    SOD22335   5.185   0.143   0.042  0.5608  0.2988 -0.5193
  208SOD    SOD22336   3.286   1.201   2.394  0.2938 -0.0773  0.2515
  209SOD    SOD22337   5.463   1.419   0.377  0.0257 -0.2210  0.5235
  210SOD    SOD22338   6.850   3.627   0.589  0.2502  0.2838  0.1791
  211SOD    SOD22339   4.990   6.197   7.524  0.4106  0.3181 -0.3452
  212SOD    SOD22340   3.710   5.146   1.525  0.3941  0.1932  0.0337
  213SOD    SOD22341   4.692   6.208   0.440  0.0527 -0.2909 -0.2324
  214SOD    SOD22342   4.388   3.322   2.528 -0.2152 -0.1273 -0.1715
  215SOD    SOD22343   1.061   4.646   8.281  0.2576 -0.2932 -0.5192
  216SOD    SOD22344   2.431   5.930   8.310  0.3334 -0.0993  0.3453
  217SOD    SOD22345   4.505   0.740   2.670  0.4819 -0.1940 -0.1634
  218SOD    SOD22346   3.397   5.720   8.548  0.0327 -0.2385  0.5428
  219SOD    SOD22347   6.532   3.596   3.276  0.0797 -0.4163 -0.3159
  220SOD    SOD22348   0.090   0.240   2.764  0.1686  0.3993 -0.1307
  221SOD    SOD22349   1.633   0.619   3.448  0.6445 -0.0235 -0.0495
  222SOD    SOD22350   5.996   6.157   0.949  0.1050 -0.2355 -0.4291
  223SOD    SOD22351   2.498   2.985   3.323  0.2626  0.0209  0.2482
  224SOD    SOD22352   0.039   1.467   8.037  0.0398  0.2928 -0.5594
  225SOD    SOD22353   3.057   4.366   8.058  0.5252 -0.0152  0.0877
  226SOD    SOD22354   4.136   5.835   2.899  0.3383 -0.6159 -0.1739
  227SOD    SOD22355   6.418   0.637   8.006  0.3473 -0.2310  0.0759
  228SOD    SOD22356   4.844   1.939   8.288  0.0555  0.2270  0.1044
  229SOD    SOD22357   3.766   2.491   2.590 -0.0845  0.3982 -0.3231
  230CLA    CLA22358   4.312   0.481   0.067  0.2201  0.1622 -0.3548
  231CLA    CLA22359   3.470   0.335   1.206  0.0439  0.0128  0.3925
  232CLA    CLA22360   5.968   4.779   2.401 -0.1540  0.3810 -0.1670
  233CLA    CLA22361   0.489   3.835   2.078 -0.1549 -0.3111  0.2000
  234CLA    CLA22362   4.882   0.025   8.321  0.2752  0.3510 -0.1440
  235CLA    CLA22363   5.209   2.604   8.641 -0.4140  0.4315 -0.3173
  236CLA    CLA22364   3.890   4.803   1.948 -0.0142  0.1526  0.1529
  237CLA    CLA22365   2.150   4.977   8.335 -0.0704 -0.0245  0.4074
  238CLA    CLA22366   4.047   2.155   0.775  0.2482  0.0968  0.6607
  239CLA    CLA22367   2.473   2.993   8.183 -0.2334  0.0631  0.1766
  240CLA    CLA22368   5.639   1.063   8.638 -0.6289 -0.1156 -0.1644
  241CLA    CLA22369   4.203   6.182   0.469 -0.2085  0.2819  0.0866
  242CLA    CLA22370   3.976   6.762   2.657 -0.0773 -0.1737  0.1166
  243CLA    CLA22371   6.392   3.818   2.414  0.3920  0.2496  0.2268
  244CLA    CLA22372   5.780   2.651   0.508  0.1065  0.0955 -0.1899
  245CLA    CLA22373   5.446   0.187   2.494  0.0029 -0.0343  0.0230
  246CLA    CLA22374   6.798   2.963   0.009 -0.3272  0.2773  0.0686
  247TIP3   OH222375   4.138   0.298   1.039  0.6651  0.0308  0.1967
  247TIP3    H122376   4.222   0.259   1.016  0.6525  0.7001 -1.0769
  247TIP3    H222377   4.092   0.230   1.087  0.5232 -1.6636 -2.1959
  248TIP3   OH222378   4.725   5.144   8.154 -0.3571 -0.2763 -0.3570
  248TIP3    H122379   4.654   5.170   8.213 -3.0464 -1.1670 -2.9232
  248TIP3    H222380   4.759   5.063   8.192 -0.3421  0.4120  1.1758
  249TIP3   OH222381   2.936   4.476   0.890  0.1648 -0.6317  0.1837
  249TIP3    H122382   2.891   4.393   0.873  0.5137 -1.0677  1.2787
  249TIP3    H222383   2.902   4.505   0.975 -1.5784  1.4891 -1.1302
  250TIP3   OH222384   0.709   2.963   0.497 -0.0909  0.4180  0.0887
  250TIP3    H122385   0.771   2.892   0.480  0.0977  0.7736 -0.7736
  250TIP3    H222386   0.717   2.981   0.590  1.2641  0.6011 -0.0517
  251TIP3   OH222387   1.794   1.407   1.546  0.6431  0.1713 -0.2456
  251TIP3    H122388   1.767   1.331   1.494  0.0896  0.8733 -0.9954
  251TIP3    H222389   1.845   1.461   1.485  0.4411  0.7464  0.0893
  252TIP3   OH222390   4.291   6.864   0.384 -0.2443  0.2790 -0.5197
  252TIP3    H122391   4.348   6.792   0.358 -0.5305  0.3094 -1.2705
  252TIP3    H222392   4.348   6.925   0.431 -0.0036 -0.4386  0.1269
  253TIP3   OH222393   1.075   3.918   8.184 -0.4664 -0.0977 -0.1555
  253TIP3    H122394   0.993   3.924   8.233 -0.1979 -2.3535  0.6940
  253TIP3    H222395   1.073   3.831   8.144  2.5583 -1.2829  1.9387
  254TIP3   OH222396   0.587   4.781   1.387 -0.1141 -0.2531 -0.1503
  254TIP3    H122397   0.513   4.792   1.328 -0.3813 -1.4206 -0.0702
  254TIP3    H222398   0.564   4.831   1.465 -1.2249 -1.2501  0.2037
  255TIP3   OH222399   1.721   0.522   0.026  0.1239  0.3027  0.2070
  255TIP3    H122400   1.794   0.471   0.061  1.1501  1.5983  0.0439
  255TIP3    H222401   1.660   0.531   0.100  1.8540  2.2701  1.5036
  256TIP3   OH222402   2.932   2.162   0.757 -0.4055  0.8551  0.1041
  256TIP3    H122403   2.978   2.127   0.834  0.0280 -0.5823 -0.7653
  256TIP3    H222404   2.962   2.108   0.684 -1.0311  1.9937 -1.0478
  257TIP3   OH222405   3.869   3.433   0.796  0.5978  0.0123  0.9811
  257TIP3    H122406   3.807   3.476   0.855  0.2802  0.0467  0.6300
  257TIP3    H222407   3.830   3.347   0.778 -0.3904  0.7569 -0.8014
  258TIP3   OH222408   3.595   3.470   1.854 -0.2433  0.0515 -0.0546
  258TIP3    H122409   3.667   3.435   1.802  0.7893  0.9399  0.7124
  258TIP3    H222410   3.522   3.478   1.793 -0.1954 -2.2751 -0.5234
  259TIP3   OH222411   4.136   2.186   8.363  0.0503 -0.0257  0.7031
  259TIP3    H122412   4.168   2.219   8.279  1.6253  0.1063  1.3299
  259TIP3    H222413   4.051   2.229   8.375 -0.1595  0.0125 -0.7697
  260TIP3   OH222414   4.244   0.952   1.035 -0.4677 -0.0985  0.2001
  260TIP3    H122415   4.305   0.887   1.071  0.0106  0.5919  0.6440
  260TIP3    H222416   4.245   1.024   1.098 -0.6236  0.5611 -0.5357
  261TIP3   OH222417   5.647   2.275   1.536  0.2438  0.4465  0.0429
  261TIP3    H122418   5.657   2.226   1.617 -0.2908 -2.9160 -1.7186
  261TIP3    H222419   5.727   2.256   1.487 -0.1192  1.1102 -0.8244
  262TIP3   OH222420   4.000   5.632   8.537  0.6738  0.2444 -0.8956
  262TIP3    H122421   4.083   5.673   8.563  0.3218  0.4923 -0.1080
  262TIP3    H222422   3.933   5.685   8.581  0.0341  0.6719 -2.3431
  263TIP3   OH222423   4.243   0.247   7.215  0.8834  0.3806  0.4707
  263TIP3    H122424   4.160   0.240   7.167  1.3364 -0.1820 -0.2288
  263TIP3    H222425   4.311   0.238   7.148  1.5188  0.6971  1.0627
  264TIP3   OH222426   6.010   4.794   2.989 -0.4077 -0.2950 -0.6014
  264TIP3    H122427   6.011   4.799   3.084  0.3401  0.2302 -0.6303
  264TIP3    H222428   5.976   4.707   2.970 -2.9839  0.4635  0.0936
  265TIP3   OH222429   5.310   1.887   7.847 -0.1867 -0.6242  0.4460
  265TIP3    H122430   5.228   1.905   7.892 -0.2866  1.5779 -0.4955
  265TIP3    H222431   5.283   1.861   7.758  0.0908  0.5502 -0.0058
  266TIP3   OH222432   1.012   6.782   1.117  0.6546 -0.2178 -0.1076
  266TIP3    H122433   1.068   6.762   1.192 -0.2156 -3.1732 -0.0979
  266TIP3    H222434   0.923   6.767   1.149  0.2017 -0.4292 -1.3950
  267TIP3   OH222435   5.696   0.340   1.736  0.5416  0.2240 -0.3235
  267TIP3    H122436   5.784   0.374   1.722 -0.0464  1.0563 -2.2820
  267TIP3    H222437   5.697   0.308   1.827  2.2774  1.9231  0.3224
  268TIP3   OH222438   4.471   2.179   2.173 -0.0502 -0.4506  0.2278
  268TIP3    H122439   4.408   2.221   2.115 -0.5410 -0.3760  0.8059
  268TIP3    H222440   4.463   2.086   2.154  0.0732 -0.3971 -0.0970
  269TIP3   OH222441   5.438   1.199   8.426  0.2171 -0.0485 -0.4074
  269TIP3    H122442   5.492   1.140   8.479 -1.2774  0.2544  1.5545
  269TIP3    H222443   5.438   1.282   8.474  1.2242  1.2305 -2.4651
  270TIP3   OH222444   5.779   5.485   7.887 -0.0904  0.1468  0.4751
  270TIP3    H122445   5.767   5.393   7.912  0.4847 -0.3500 -0.9543
  270TIP3    H222446   5.697   5.510   7.846 -0.1436  0.1802  0.6015
  271TIP3   OH222447   4.320   2.129   0.447 -0.4066  0.3092 -0.8966
  271TIP3    H122448   4.353   2.205   0.399  2.5499  0.7407  1.4867
  271TIP3    H222449   4.283   2.166   0.527  0.4306 -0.6739 -0.0276
  272TIP3   OH222450   0.094   1.058   2.309  0.8104 -0.8682  0.0271
  272TIP3    H122451   0.125   0.998   2.241  0.1107  1.4081 -2.5346
  272TIP3    H222452   0.132   1.143   2.284  0.6752  0.0513  2.6664
  273TIP3   OH222453   3.487   4.948   2.932 -0.1304 -0.0076 -0.0428
  273TIP3    H122454   3.527   5.033   2.914  1.8113 -0.2029  2.7126
  273TIP3    H222455   3.549   4.884   2.898 -1.3144 -0.3933 -1.5903
  274TIP3   OH222456   2.412   6.774   0.237  0.0961 -0.3046  0.0843
  274TIP3    H122457   2.497   6.794   0.198 -0.1144 -1.5569 -1.0893
  274TIP3    H222458   2.371   6.714   0.175 -1.8850  0.7102  0.3440
  275TIP3   OH222459   5.250   0.975   2.622  0.3441  0.2965  0.1926
  275TIP3    H122460   5.184   0.922   2.666 -1.6471  0.1793 -2.6218
  275TIP3    H222461   5.208   1.060   2.609  0.7843  0.3151 -1.3991
  276TIP3   OH222462   1.957   1.151   2.204  0.7286  0.3557 -0.2170
  276TIP3    H122463   1.947   1.215   2.133 -1.3038 -0.9757 -1.2108
  276TIP3    H222464   1.992   1.073   2.162  0.6249 -0.0748  0.4764
  277TIP3   OH222465   3.522   4.344   0.009  0.3520  0.1287 -0.0507
  277TIP3    H122466   3.432   4.371  -0.010  0.2862  0.3245  0.4968
  277TIP3    H222467   3.557   4.415   0.063  0.2914 -0.7045  1.1410
  278TIP3   OH222468   5.736   6.669   3.159  0.0265  0.3567 -0.2758
  278TIP3    H122469   5.809   6.728   3.140 -0.8434  1.2871 -0.8661
  278TIP3    H222470   5.731   6.667   3.254  0.7731  0.3330 -0.2298
  279TIP3   OH222471   2.119   1.042   0.084 -0.6381 -0.5173  0.0821
  279TIP3    H122472   2.069   0.995   0.151 -0.3265  0.1154  0.7682
  279TIP3    H222473   2.178   1.099   0.134  0.8906 -1.3517 -0.6908
  280TIP3   OH222474   6.389   0.659   3.448 -0.1321  0.5024 -0.4075
  280TIP3    H122475   6.417   0.569   3.465  0.5112  0.7921  0.1132
  280TIP3    H222476   6.307   0.669   3.496 -1.2756 -0.4070 -2.0794
  281TIP3   OH222477   3.273   6.135   1.410 -0.0635 -0.2090  0.1014
  281TIP3    H122478   3.198   6.105   1.359  0.3105  0.4050 -0.8387
  281TIP3    H222479   3.348   6.090   1.370  0.1129 -0.5931  0.8452
  282TIP3   OH222480   4.787   0.582   8.525 -0.1952  0.3827  0.2512
  282TIP3    H122481   4.880   0.565   8.507  0.4363  2.2027  1.5388
  282TIP3    H222482   4.758   0.632   8.449  0.0680  0.4040  0.1616
  283TIP3   OH222483   4.250   5.526   2.447  0.6241 -0.3097 -0.5835
  283TIP3    H122484   4.176   5.477   2.483  0.3248  0.9873  0.6782
  283TIP3    H222485   4.237   5.524   2.352 -0.7754 -0.5051 -0.4073
  284TIP3   OH222486   4.291   4.749   8.406 -0.5858 -0.0363  0.2965
  284TIP3    H122487   4.364   4.810   8.394 -0.7645  0.1780  0.2965
  284TIP3    H222488   4.316   4.672   8.355 -0.4826  0.1407  0.0779
  285TIP3   OH222489   1.446   1.252   0.972 -0.0600 -0.1777  0.0265
  285TIP3    H122490   1.391   1.243   1.049 -0.6963  0.4084 -0.3378
  285TIP3    H222491   1.393   1.304   0.911  1.8215  2.6682  0.5944
  286TIP3   OH222492   5.732   5.851   2.154 -0.0721 -0.1621  0.1687
  286TIP3    H122493   5.795   5.789   2.190 -0.2246  0.2144  1.1251
  286TIP3    H222494   5.712   5.909   2.228 -0.6090  0.4661 -0.4630
  287TIP3   OH222495   4.400   5.967   2.545  0.0063 -0.4140  0.4447
  287TIP3    H122496   4.363   5.879   2.548 -0.3589 -0.2378  1.8828
  287TIP3    H222497   4.401   5.990   2.452 -2.4620 -0.8647  0.2321
  288TIP3   OH222498   4.664   6.323   0.678 -0.2706  0.1473 -0.4695
  288TIP3    H122499   4.688   6.281   0.760  0.9198 -0.3925 -1.0646
  288TIP3    H222500   4.574   6.353   0.691 -0.3799 -0.6459  0.7364
  289TIP3   OH222501   0.528   3.190   8.312  0.0411  0.0930 -0.2437
  289TIP3    H122502   0.610   3.142   8.302 -0.2601 -1.0481  2.0227
  289TIP3    H222503   0.530   3.223   8.402 -1.8207  0.3129 -0.2362
  290TIP3   OH222504   2.998   2.802   2.498  0.4121  0.1474 -0.3123
  290TIP3    H122505   2.943   2.752   2.437 -0.2995  1.0053 -0.3962
  290TIP3    H222506   3.045   2.864   2.442 -0.7774  1.4292  0.0385
  291TIP3   OH222507   5.235   3.154   0.322 -0.2076 -0.1794 -0.1700
  291TIP3    H122508   5.186   3.110   0.253  0.4480 -1.2836  0.0524
  291TIP3    H222509   5.313   3.188   0.278 -1.0860  1.5129 -0.5082
  292TIP3   OH222510   4.503   3.244   0.488 -0.2988  0.0871  0.3408
  292TIP3    H122511   4.421   3.288   0.513  0.3184  1.0408  0.7705
  292TIP3    H222512   4.531   3.290   0.409 -0.6684 -0.8950 -0.3826
  293TIP3   OH222513   2.130   1.918   1.694  0.0181 -0.0236  0.2836
  293TIP3    H122514   2.189   1.992   1.702 -0.0528  0.1352 -0.5785
  293TIP3    H222515   2.043   1.957   1.687 -0.1598 -0.2415  1.1467
  294TIP3   OH222516   0.143   0.175   1.301 -0.0163 -0.3766 -0.2060
  294TIP3    H122517   0.052   0.149   1.283 -0.1443  0.5734 -1.0449
  294TIP3    H222518   0.136   0.261   1.342  0.5394  0.6463 -2.1240
  295TIP3   OH222519   6.692   3.072   1.317 -0.2992 -0.3289 -0.2338
  295TIP3    H122520   6.718   3.087   1.408  0.2862 -0.7570 -0.3176
  295TIP3    H222521   6.754   3.125   1.266 -1.5480  1.0735 -0.3457
  296TIP3   OH222522   5.728   2.275   8.420 -0.2756  0.2027 -0.3920
  296TIP3    H122523   5.777   2.270   8.338  0.9058  0.1355  0.2918
  296TIP3    H222524   5.661   2.342   8.404  0.4712  0.7885 -1.1423
  297TIP3   OH222525   4.619   1.068   8.390  0.1226  0.2899 -0.0882
  297TIP3    H122526   4.555   1.122   8.437 -0.2069  1.0609 -1.3666
  297TIP3    H222527   4.675   1.033   8.459 -0.4915  1.1724  0.9070
  298TIP3   OH222528   1.977   1.509   7.541  0.5978 -0.0668  0.2162
  298TIP3    H122529   1.968   1.602   7.561  1.0539 -0.4795  2.6064
  298TIP3    H222530   1.888   1.480   7.522  0.4632  0.8410 -0.6542
  299TIP3   OH222531   1.443   4.864   2.769 -0.3150 -0.1049 -0.0659
  299TIP3    H122532   1.505   4.800   2.804 -0.6903  0.3867  1.5988
  299TIP3    H222533   1.493   4.946   2.765 -0.3480 -0.1027 -0.4563
  300TIP3   OH222534   1.897   3.833   2.830 -0.2736 -0.4015 -0.0099
  300TIP3    H122535   1.967   3.897   2.819  0.9549 -1.4692  1.2664
  300TIP3    H222536   1.892   3.818   2.924 -0.6844 -2.0080 -0.2610
  301TIP3   OH222537   4.681   6.539   2.233 -0.3269 -0.2986  0.1510
  301TIP3    H122538   4.654   6.612   2.287 -0.9416 -1.2405  1.1646
  301TIP3    H222539   4.733   6.483   2.291  2.0154  0.3736 -1.1754
  302TIP3   OH222540   4.527   4.554   3.202  0.4056  0.3551 -0.1991
  302TIP3    H122541   4.589   4.556   3.274  0.1600 -0.5140  0.0552
  302TIP3    H222542   4.495   4.464   3.201 -1.2023  0.8888 -0.0244
  303TIP3   OH222543   6.688   0.645   1.624  0.9152  0.0582  0.0224
  303TIP3    H122544   6.748   0.654   1.550 -0.7160  0.1865 -1.3462
  303TIP3    H222545   6.687   0.732   1.664  0.3071  0.5574 -1.0360
  304TIP3   OH222546   2.007   6.875   2.604  0.0671 -0.1050 -0.0218
  304TIP3    H122547   2.015   6.779   2.597 -1.0918 -0.2868  0.9575
  304TIP3    H222548   2.046   6.896   2.689 -2.5072 -0.1171  1.2388
  305TIP3   OH222549   5.194   4.273   0.608 -0.3627  0.1157 -0.0242
  305TIP3    H122550   5.103   4.305   0.609 -0.9305 -1.3974 -0.5527
  305TIP3    H222551   5.207   4.240   0.519  1.0758  1.2334 -0.2636
  306TIP3   OH222552   1.915   5.228   2.637  0.0786  0.1538  0.2777
  306TIP3    H122553   1.864   5.301   2.672 -0.7372 -0.7266  0.9584
  306TIP3    H222554   1.980   5.209   2.704  0.3137  0.2654  0.0848
  307TIP3   OH222555   4.155   6.093   8.624 -1.0595  0.2439  0.5512
  307TIP3    H122556   4.079   6.041   8.596 -0.3526 -0.1437 -0.7160
  307TIP3    H222557   4.121   6.182   8.633 -1.6734  0.0815 -0.0294
  308TIP3   OH222558   0.253   6.744   2.734  0.1727  0.1636 -0.1445
  308TIP3    H122559   0.316   6.708   2.673  2.4507  1.0393  1.5673
  308TIP3    H222560   0.270   6.838   2.735 -2.4644  0.7303 -1.0013
  309TIP3   OH222561   3.729   3.596   2.607 -0.3273 -0.3360  0.1518
  309TIP3    H122562   3.711   3.690   2.609 -1.6517 -0.5741  0.8022
  309TIP3    H222563   3.821   3.589   2.629  0.0866  0.8651 -1.0399
  310TIP3   OH222564   4.437   3.029   7.681  0.6876 -0.3280  0.1740
  310TIP3    H122565   4.374   2.957   7.681  0.9074 -0.5328 -0.4133
  310TIP3    H222566   4.491   3.014   7.758 -1.4083  1.1554  2.0431
  311TIP3   OH222567   4.809   5.789   3.010  0.3903  0.7435  0.0023
  311TIP3    H122568   4.853   5.733   2.946 -1.5456 -1.0236  0.0880
  311TIP3    H222569   4.873   5.857   3.032  3.0034 -1.5840  0.1055
  312TIP3   OH222570   4.688   5.908   2.694  0.2584 -0.0073 -0.2487
  312TIP3    H122571   4.629   5.916   2.768  1.5638 -0.6543  0.9247
  312TIP3    H222572   4.669   5.822   2.657  0.5258 -0.2521  0.1814
  313TIP3   OH222573   0.691   5.014   0.372 -0.1034 -0.0683  0.0308
  313TIP3    H122574   0.776   5.048   0.344 -0.3356  0.2525 -0.2864
  313TIP3    H222575   0.643   5.092   0.400 -0.6769 -0.1161 -0.8021
  314TIP3   OH222576   2.147   3.006   8.655  0.5320 -0.0211  0.3843
  314TIP3    H122577   2.095   3.011   8.574  0.1963 -0.4824  0.5659
  314TIP3    H222578   2.225   3.059   8.637  1.6487 -2.0453 -1.1338
  315TIP3   OH222579   2.163   3.715   2.603  0.2101 -0.1347 -0.7772
  315TIP3    H122580   2.243   3.686   2.558  0.3809 -0.6462 -0.1582
  315TIP3    H222581   2.175   3.809   2.616 -0.1992  0.1975 -2.5208
  316TIP3   OH222582   0.289   2.425   3.507  0.2063 -0.7036  0.1363
  316TIP3    H122583   0.229   2.471   3.449  0.1420 -0.6556  0.2427
  316TIP3    H222584   0.307   2.343   3.461 -1.8380 -1.8279  1.2045
  317TIP3   OH222585   4.030   3.994   2.197  0.1796 -0.3328  0.0465
  317TIP3    H122586   3.968   3.988   2.124 -0.1755  2.1311  0.0529
  317TIP3    H222587   4.106   3.942   2.168 -0.4271 -0.3856 -1.5737
  318TIP3   OH222588   6.440   1.373   2.237  0.1123  0.2996 -0.2668
  318TIP3    H122589   6.528   1.378   2.275  0.0209  1.6184 -0.1849
  318TIP3    H222590   6.382   1.402   2.308 -0.3950 -0.5047 -0.3391
  319TIP3   OH222591   2.358   5.412   0.993  0.4491 -0.0698  0.2888
  319TIP3    H122592   2.272   5.372   0.978 -0.1971  1.0150  0.9676
  319TIP3    H222593   2.358   5.490   0.936  2.0569 -1.4327 -1.7340
  320TIP3   OH222594   0.844   1.223   1.378 -0.1791  0.0143 -0.2591
  320TIP3    H122595   0.914   1.160   1.363  0.9118  0.8847  0.9510
  320TIP3    H222596   0.887   1.296   1.423 -1.9905  0.2964  1.1247
  321TIP3   OH222597   6.137   2.077   1.405  0.5676 -0.2976  0.1073
  321TIP3    H122598   6.143   2.032   1.489  2.4260  0.5425  0.4758
  321TIP3    H222599   6.194   2.027   1.347  1.1680  0.4790  0.0115
  322TIP3   OH222600   4.492   4.819   0.166  0.4063 -0.4360  0.2429
  322TIP3    H122601   4.560   4.752   0.177  0.6327 -0.0050  1.6634
  322TIP3    H222602   4.414   4.770   0.141  1.1477 -0.9650 -1.1653
  323TIP3   OH222603   4.424   0.314   2.791  0.1031 -0.8693  0.0169
  323TIP3    H122604   4.474   0.241   2.755  1.3827  0.7228 -1.6053
  323TIP3    H222605   4.481   0.352   2.858  0.4514 -0.0270 -0.7254
  324TIP3   OH222606   4.222   6.558   0.653  0.7164  0.0612 -0.2658
  324TIP3    H122607   4.208   6.597   0.566  0.9467  2.2153  0.5915
  324TIP3    H222608   4.307   6.591   0.680 -0.1987  1.0781  1.5692
  325TIP3   OH222609   4.291   3.496   8.373  0.3448  0.3830 -0.2374
  325TIP3    H122610   4.378   3.470   8.344 -0.5101  0.8105 -3.5335
  325TIP3    H222611   4.232   3.432   8.334 -1.0511  1.8815 -0.6785
  326TIP3   OH222612   5.173   2.290   0.102 -0.0347 -0.0500 -0.2243
  326TIP3    H122613   5.230   2.320   0.031 -1.8779 -0.4327 -1.9549
  326TIP3    H222614   5.148   2.370   0.148  0.0775  0.3592 -0.8651
  327TIP3   OH222615   0.731   5.518   3.536 -0.2565 -0.0525 -0.1828
  327TIP3    H122616   0.680   5.474   3.603  1.9655 -0.9138  1.0589
  327TIP3    H222617   0.815   5.538   3.579  1.6504 -1.5048 -2.8989
  328TIP3   OH222618   4.202   3.618   3.462 -0.5179 -0.3165 -0.2875
  328TIP3    H122619   4.191   3.527   3.489  1.7135 -0.0839  1.7627
  328TIP3    H222620   4.114   3.655   3.467 -1.4498 -2.2984 -1.0331
  329TIP3   OH222621   4.919   6.176   0.508 -0.0373 -0.1068 -0.3257
  329TIP3    H122622   4.933   6.235   0.582 -0.4819 -0.8630  0.3771
  329TIP3    H222623   4.952   6.092   0.539  1.0189 -0.1403 -1.4797
  330TIP3   OH222624   2.287   1.590   0.787  0.4448  0.3264  0.2622
  330TIP3    H122625   2.265   1.564   0.698  0.6087  0.0575  0.2991
  330TIP3    H222626   2.295   1.508   0.835 -0.3150  0.4959  0.6908
  331TIP3   OH222627   0.529   5.224   0.453  0.2074 -0.3005  1.0577
  331TIP3    H122628   0.450   5.175   0.477 -0.0835  0.8589  2.6848
  331TIP3    H222629   0.568   5.248   0.537  0.3445  2.1802  0.3767
  332TIP3   OH222630   2.857   6.242   0.448 -0.2525 -0.2263 -0.4231
  332TIP3    H122631   2.851   6.258   0.542 -0.9031 -2.0279 -0.1137
  332TIP3    H222632   2.909   6.315   0.414 -0.2954  0.6407  1.2684
  333TIP3   OH222633   4.119   2.367   2.621 -0.2933 -0.0854  0.6256
  333TIP3    H122634   4.179   2.295   2.643 -1.6531 -1.9022 -1.1875
  333TIP3    H222635   4.075   2.387   2.703  0.4808 -0.9767  1.2925
  334TIP3   OH222636   2.641   3.591   0.135 -0.6497  0.5727  0.1132
  334TIP3    H122637   2.549   3.617   0.142 -0.2290  2.1406  0.1315
  334TIP3    H222638   2.643   3.529   0.063 -1.7528  0.3899  0.2257
  335TIP3   OH222639   3.289   3.999   8.329 -0.0437 -0.9022  0.3110
  335TIP3    H122640   3.267   4.067   8.265 -1.6780 -0.7966  0.9231
  335TIP3    H222641   3.269   4.038   8.414 -0.4281 -1.9305  0.7107
  336TIP3   OH222642   6.401   3.765   1.308 -0.2217 -0.0857  0.0513
  336TIP3    H122643   6.478   3.821   1.318 -0.6292  0.7217 -1.1141
  336TIP3    H222644   6.331   3.824   1.280 -1.4609 -0.6892  1.6813
  337TIP3   OH222645   0.442   1.640   7.910 -0.3539  0.6673  0.5027
  337TIP3    H122646   0.530   1.619   7.879 -1.2026  0.1904 -1.7850
  337TIP3    H222647   0.416   1.716   7.857 -1.5994  0.3087  0.5736
  338TIP3   OH222648   3.196   2.195   1.938 -0.0673  0.0263  0.3040
  338TIP3    H122649   3.236   2.174   1.854 -1.4767 -0.5285 -0.2605
  338TIP3    H222650   3.118   2.245   1.915  0.1910  0.9619  1.3669
  339TIP3   OH222651   3.309   0.048   2.736 -0.0046  0.1256  0.0962
  339TIP3    H122652   3.344   0.086   2.656  0.6829 -1.2930 -0.3024
  339TIP3    H222653   3.365   0.082   2.805 -0.8310  1.6557  0.0603
  340TIP3   OH222654   5.928   3.114   0.004 -0.1507  0.0865 -0.3203
  340TIP3    H122655   6.003   3.092   0.059 -0.6666 -0.2614  0.2565
  340TIP3    H222656   5.921   3.209   0.009  0.0879  0.0944 -0.1641
  341TIP3   OH222657   3.907   0.923   2.561 -0.3732 -0.1768 -0.3255
  341TIP3    H122658   3.922   0.870   2.483 -0.3750 -1.0178  0.2357
  341TIP3    H222659   3.938   0.869   2.633 -0.9389  0.3392  0.3175
  342TIP3   OH222660   0.769   5.349   0.376  0.1435 -0.2173 -0.3310
  342TIP3    H122661   0.834   5.294   0.419  1.2327 -0.2754 -1.9456
  342TIP3    H222662   0.687   5.300   0.381  0.6151 -0.9542  0.2013
  343TIP3   OH222663   2.210   0.726   1.416  0.1115 -0.4506  0.2831
  343TIP3    H122664   2.140   0.721   1.482  0.8445 -0.7156  1.0492
  343TIP3    H222665   2.181   0.795   1.357 -0.9108 -0.6990  0.4581
  344TIP3   OH222666   2.904   1.483   1.959 -0.0336  0.1089  0.1725
  344TIP3    H122667   2.907   1.424   2.035  2.0672 -3.1694 -2.1858
  344TIP3    H222668   2.818   1.466   1.920  0.0568 -0.4851  0.2133
  345TIP3   OH222669   3.082   5.009   1.457  0.3824  0.6184  0.0442
  345TIP3    H122670   3.121   5.001   1.544 -1.2268 -0.5911  0.7015
  345TIP3    H222671   3.099   4.925   1.415  1.8549  1.4801 -1.1502
  346TIP3   OH222672   5.696   4.032   1.040 -0.1490  0.0843  0.6604
  346TIP3    H122673   5.692   3.937   1.036 -0.4180  0.0863 -3.3325
  346TIP3    H222674   5.606   4.060   1.024  0.3055  0.9481 -0.5173
  347TIP3   OH222675   1.748   3.020   2.675 -0.3201 -0.7061 -0.3258
  347TIP3    H122676   1.742   2.948   2.737  0.2192 -0.7553 -0.3249
  347TIP3    H222677   1.708   2.987   2.595 -2.4461 -0.1323  0.4196
  348TIP3   OH222678   6.385   1.636   1.487 -0.3789 -0.0276 -0.0711
  348TIP3    H122679   6.363   1.545   1.505  1.9654 -0.8287 -0.8399
  348TIP3    H222680   6.423   1.634   1.399 -0.0196  1.6501  0.0167
  349TIP3   OH222681   6.247   4.463   2.376  0.1163 -0.1438  0.0866
  349TIP3    H122682   6.211   4.384   2.415 -0.3377  0.3291  0.6245
  349TIP3    H222683   6.335   4.437   2.347  0.3275 -0.5870  1.1059
  350TIP3   OH222684   0.778   0.777   1.062 -0.4223 -0.2766  0.0288
  350TIP3    H122685   0.869   0.753   1.044 -0.3160 -0.1521  0.3986
  350TIP3    H222686   0.755   0.838   0.992 -0.2132 -0.2927 -0.0538
  351TIP3   OH222687   5.664   6.208   8.287 -0.1717  0.3349 -0.1989
  351TIP3    H122688   5.710   6.138   8.241 -0.0835 -0.1718  0.6302
  351TIP3    H222689   5.572   6.183   8.284 -0.1208  0.0845  0.2525
  352TIP3   OH222690   0.597   1.469   0.701 -0.6234  0.4132  0.1070
  352TIP3    H122691   0.535   1.519   0.647 -1.2992 -0.7260 -0.2010
  352TIP3    H222692   0.620   1.393   0.648  0.0509  0.1606  0.7420
  353TIP3   OH222693   4.029   2.750   1.330 -0.5197 -0.4464 -0.2462
  353TIP3    H122694   4.055   2.785   1.244 -0.2165 -1.0025 -0.3879
  353TIP3    H222695   3.934   2.751   1.329 -0.5182  0.5131 -0.1891
  354TIP3   OH222696   2.652   6.325   7.594  0.1224 -0.1893 -0.1247
  354TIP3    H122697   2.603   6.393   7.641  1.0884  1.0174 -0.7858
  354TIP3    H222698   2.585   6.269   7.556 -0.8255  1.8555 -1.6799
  355TIP3   OH222699   2.735   6.310   1.579  0.4979 -0.4469  0.5522
  355TIP3    H122700   2.710   6.269   1.661  0.8785 -0.7837  0.5007
  355TIP3    H222701   2.663   6.289   1.519  0.3068 -0.3510  0.7463
  356TIP3   OH222702   2.130   4.691   0.283 -0.0073  0.6508 -0.1330
  356TIP3    H122703   2.219   4.703   0.315  0.3203  0.9454 -1.1069
  356TIP3    H222704   2.141   4.649   0.198 -0.7568  1.3764 -0.6044
  357TIP3   OH222705   3.023   0.104   0.742 -0.4283 -0.2264  0.0589
  357TIP3    H122706   2.973   0.023   0.750 -0.0228 -0.5269 -0.4616
  357TIP3    H222707   3.002   0.152   0.823  0.1689 -1.3134  0.8828
  358TIP3   OH222708   4.502   6.429   2.042  0.1266 -0.2968  0.4390
  358TIP3    H122709   4.549   6.442   2.124 -2.8008  0.6582  2.1137
  358TIP3    H222710   4.443   6.356   2.059 -0.7302  0.0984 -0.6922
  359TIP3   OH222711   5.465   1.468   8.199  0.4024 -0.0020  0.0498
  359TIP3    H122712   5.408   1.543   8.184 -1.2025 -1.1590  0.1416
  359TIP3    H222713   5.482   1.433   8.112  0.0204 -0.3377  0.1093
  360TIP3   OH222714   1.238   2.608   1.037 -0.4095  0.4129  0.1107
  360TIP3    H122715   1.278   2.542   1.093  1.0320  2.0959  1.1994
  360TIP3    H222716   1.284   2.599   0.953  0.4129  0.5686  0.5296
  361TIP3   OH222717   3.978   1.118   2.778 -0.4364  0.1547  0.5919
  361TIP3    H122718   3.994   1.027   2.805 -0.6191  0.2532  1.0476
  361TIP3    H222719   3.902   1.112   2.720  1.3879 -0.3689 -1.9313
  362TIP3   OH222720   2.055   5.961   8.601 -1.1132  0.2932  0.4635
  362TIP3    H122721   2.096   5.875   8.596  1.1583  1.3436 -2.2378
  362TIP3    H222722   2.122   6.017   8.642 -0.8134  1.4891 -1.4888
  363TIP3   OH222723   2.644   2.822   7.674  0.4347 -0.6871 -0.4364
  363TIP3    H122724   2.665   2.794   7.585  3.0983 -0.5662  0.0709
  363TIP3    H222725   2.627   2.741   7.721  1.2821 -0.9357 -0.5451
  364TIP3   OH222726   0.460   2.329   3.057 -0.9561  0.4444  0.1468
  364TIP3    H122727   0.431   2.238   3.044 -1.7797  0.7474 -0.2092
  364TIP3    H222728   0.398   2.381   3.005 -1.3728  1.3315  1.4997
  365TIP3   OH222729   0.412   0.441   3.437  0.1130  1.1289 -0.5746
  365TIP3    H122730   0.368   0.363   3.473  1.3919  1.5870  2.1811
  365TIP3    H222731   0.499   0.410   3.413  0.2436  1.4828 -0.5528
  366TIP3   OH222732   1.409   1.758   0.446  0.6073 -0.0133 -0.0249
  366TIP3    H122733   1.479   1.707   0.403  1.9069  0.2870  1.6246
  366TIP3    H222734   1.447   1.783   0.530 -0.8551  1.7420  0.1533
  367TIP3   OH222735   6.446   1.917   0.522 -0.3566 -0.2333 -0.7332
  367TIP3    H122736   6.508   1.990   0.513 -1.6748  0.9656 -0.3801
  367TIP3    H222737   6.495   1.850   0.569  0.4069  1.0344  0.3461
  368TIP3   OH222738   0.131   4.869   2.494 -0.3653  0.0048 -0.0920
  368TIP3    H122739   0.178   4.819   2.561  0.2162  1.3396  0.5457
  368TIP3    H222740   0.129   4.958   2.529 -0.9222  0.5300 -1.4214
  369TIP3   OH222741   5.333   2.853   3.184 -0.0175  0.0422 -0.0570
  369TIP3    H122742   5.297   2.934   3.221 -1.4032 -0.2968 -0.6034
  369TIP3    H222743   5.414   2.881   3.143 -0.0456  1.0046  0.4930
  370TIP3   OH222744   2.322   0.237   0.201  0.0120 -0.1862 -0.1562
  370TIP3    H122745   2.264   0.282   0.262  1.9160  2.5805 -0.2399
  370TIP3    H222746   2.263   0.193   0.140 -1.9438  0.5557  1.1028
  371TIP3   OH222747   6.208   2.654   2.925  0.2943 -0.9377  0.1623
  371TIP3    H122748   6.284   2.648   2.867 -0.4126 -0.2149 -0.8688
  371TIP3    H222749   6.241   2.700   3.002  0.5227  0.9404 -0.9945
  372TIP3   OH222750   2.936   1.439   2.236 -0.0286  0.1443  0.0751
  372TIP3    H122751   3.019   1.485   2.228  0.0793 -0.2371 -1.1856
  372TIP3    H222752   2.880   1.498   2.287  0.1236  1.6609 -1.4428
  373TIP3   OH222753   1.533   2.581   1.468 -0.0377  0.4328 -0.3624
  373TIP3    H122754   1.476   2.621   1.534 -0.8341 -1.3417  0.0813
  373TIP3    H222755   1.514   2.628   1.388 -1.4227  0.5266  0.0003
  374TIP3   OH222756   0.678   4.527   1.536 -0.3053 -0.5727 -0.0693
  374TIP3    H122757   0.646   4.521   1.446 -0.8774 -3.3692  0.2511
  374TIP3    H222758   0.606   4.569   1.584 -0.6205 -0.4765 -0.6192
  375TIP3   OH222759   6.324   0.219   3.545  0.3863 -0.1269 -0.4180
  375TIP3    H122760   6.230   0.227   3.527  0.5942 -2.2430 -3.1416
  375TIP3    H222761   6.336   0.127   3.570  1.9253 -0.5594 -2.3810
  376TIP3   OH222762   1.413   1.626   1.087  0.2421  0.4024  0.2803
  376TIP3    H122763   1.374   1.701   1.132  2.1844  1.4750  0.2619
  376TIP3    H222764   1.433   1.564   1.157 -3.0427 -1.0135  0.1370
  377TIP3   OH222765   1.888   2.344   0.137 -0.4323 -0.6668  0.3326
  377TIP3    H122766   1.916   2.415   0.080 -2.1437  0.5622  0.9348
  377TIP3    H222767   1.826   2.293   0.085  1.0212 -1.9775 -0.2055
  378TIP3   OH222768   2.227   2.653   2.677 -0.5155  0.3829  0.1247
  378TIP3    H122769   2.304   2.694   2.637 -1.9404  1.7732 -1.3854
  378TIP3    H222770   2.242   2.559   2.666 -0.0286  0.6672 -2.2423
  379TIP3   OH222771   2.506   2.718   3.348  0.9149  0.1476  0.3532
  379TIP3    H122772   2.583   2.697   3.402  2.1181  1.6893 -0.6531
  379TIP3    H222773   2.433   2.676   3.393  1.9376  0.8467  2.8742
  380TIP3   OH222774   6.438   2.664   2.744 -0.7095  0.0434 -0.0730
  380TIP3    H122775   6.514   2.614   2.714 -0.4029 -0.1799  1.0504
  380TIP3    H222776   6.424   2.729   2.675  1.6908  1.3468  0.5526
  381TIP3   OH222777   5.041   4.997   0.214 -0.1309  0.0950  0.3605
  381TIP3    H122778   5.045   5.030   0.125  2.8926  0.5504  0.5778
  381TIP3    H222779   5.063   4.905   0.207 -2.6447 -0.5919  0.4247
  382TIP3   OH222780   5.648   5.946   1.709 -0.1134 -0.0809  0.3859
  382TIP3    H122781   5.632   6.022   1.654  1.3180  1.3354  1.8232
  382TIP3    H222782   5.707   5.891   1.658  0.2077  0.6158 -0.0090
  383TIP3   OH222783   6.747   6.812   2.880  0.0608  0.1163 -0.0914
  383TIP3    H122784   6.674   6.871   2.898  1.5052  2.5188 -1.5359
  383TIP3    H222785   6.789   6.799   2.965 -0.7115  0.5731  0.3708
  384TIP3   OH222786   0.955   4.391   3.620 -0.0694  0.0532 -0.3421
  384TIP3    H122787   0.863   4.375   3.597  0.0525 -1.8844  0.3315
  384TIP3    H222788   0.969   4.340   3.700  1.9853 -1.0019 -1.2745
  385TIP3   OH222789   4.008   1.552   2.946 -0.5208  0.1789 -0.0806
  385TIP3    H122790   4.025   1.645   2.963 -2.1003  0.4003  0.4815
  385TIP3    H222791   3.943   1.528   3.012 -2.6507 -0.4357 -2.2586
  386TIP3   OH222792   2.019   3.794   0.997 -0.2908  0.6000 -0.2899
  386TIP3    H122793   1.959   3.743   0.943  0.4606 -1.3759  0.6055
  386TIP3    H222794   1.974   3.802   1.081 -0.3909  1.4093 -0.4176
  387TIP3   OH222795   4.071   3.202   0.868  0.2492 -0.5256 -0.1837
  387TIP3    H122796   4.067   3.289   0.907  0.7500 -0.2629 -0.7136
  387TIP3    H222797   4.159   3.170   0.889  0.2924 -0.6436 -0.5388
  388TIP3   OH222798   5.576   0.032   8.140 -0.2737 -0.2730  0.3313
  388TIP3    H122799   5.667   0.004   8.126  0.3843  1.8531  0.0072
  388TIP3    H222800   5.561   0.098   8.072 -1.9942 -0.4330  0.5289
  389TIP3   OH222801   2.566   1.814   7.821 -0.0318  0.5475 -0.1651
  389TIP3    H122802   2.515   1.751   7.770  0.7164  0.1887 -0.5001
  389TIP3    H222803   2.509   1.889   7.831 -0.9319 -0.1719  0.2095
  390TIP3   OH222804   4.220   1.349   0.345  0.0357 -0.0222  0.2479
  390TIP3    H122805   4.263   1.283   0.399  1.6874 -0.1033 -1.0757
  390TIP3    H222806   4.292   1.399   0.306 -1.1385  1.3646 -0.2508
  391TIP3   OH222807   6.102   3.994   1.474  0.3774 -0.3780  0.2973
  391TIP3    H122808   6.132   3.909   1.508 -2.0718 -1.0582  0.9264
  391TIP3    H222809   6.073   3.975   1.385  0.3729 -0.0643  0.2324
  392TIP3   OH222810   4.930   5.586   2.343 -0.1455 -0.3256 -0.1663
  392TIP3    H122811   4.945   5.680   2.338 -0.8317 -0.1863  0.2661
  392TIP3    H222812   5.017   5.548   2.356 -0.1734  0.5374  3.6916
  393TIP3   OH222813   0.624   1.280   2.394  0.4484 -0.2581  0.2183
  393TIP3    H122814   0.644   1.193   2.427 -1.3939 -1.0901 -0.7145
  393TIP3    H222815   0.559   1.315   2.455 -0.8649 -0.6831 -0.8858
  394TIP3   OH222816   1.255   4.576   8.161  0.9476  0.1135  0.2781
  394TIP3    H122817   1.269   4.566   8.067  0.3909 -1.0570  0.3105
  394TIP3    H222818   1.332   4.536   8.202  0.2635 -1.1595  0.3473
  395TIP3   OH222819   4.655   0.092   2.024 -0.6745  1.1787 -0.2819
  395TIP3    H122820   4.650   0.023   1.957 -1.0568 -0.5665  1.4437
  395TIP3    H222821   4.574   0.081   2.075  1.1436  0.1243  2.5872
  396TIP3   OH222822   6.801   5.844   0.405 -0.1275 -0.0121 -0.3276
  396TIP3    H122823   6.790   5.836   0.500 -0.0654 -1.4157 -0.4152
  396TIP3    H222824   6.847   5.764   0.380 -0.7545  0.0169 -1.6378
  397TIP3   OH222825   0.102   6.038   2.708  0.0265  0.2229  0.1121
  397TIP3    H122826   0.198   6.035   2.706  0.0694  1.3854 -2.0138
  397TIP3    H222827   0.078   6.095   2.635 -2.3293 -0.6467  0.1235
  398TIP3   OH222828   3.730   3.481   2.375  0.0858  0.5780 -0.1261
  398TIP3    H122829   3.726   3.510   2.466  1.9357 -0.6309  0.3926
  398TIP3    H222830   3.659   3.417   2.367  0.4819  0.0079  0.7609
  399TIP3   OH222831   3.645   0.011   8.392  0.1936 -0.7064 -0.5572
  399TIP3    H122832   3.598   0.002   8.309  0.9180 -1.7685 -0.8788
  399TIP3    H222833   3.721  -0.047   8.383  0.5424 -0.4692  0.6647
  400TIP3   OH222834   6.130   1.672   1.602  0.1573 -0.1479  0.3238
  400TIP3    H122835   6.111   1.597   1.657 -3.3138  0.5134  0.2616
  400TIP3    H222836   6.199   1.642   1.543  0.9631 -2.2495  2.2106
  401TIP3   OH222837   1.746   5.348   7.689 -0.2032  0.1182  0.3813
  401TIP3    H122838   1.833   5.316   7.667  0.2743 -0.6207  2.9790
  401TIP3    H222839   1.755   5.443   7.690  0.3519  0.0756 -0.1712
  402TIP3   OH222840   5.169   4.585   1.998  0.2167  0.3271  0.1679
  402TIP3    H122841   5.214   4.615   2.077 -0.4866  0.8145  0.3924
  402TIP3    H222842   5.222   4.619   1.926  2.3754 -2.3615  0.3607
  403TIP3   OH222843   4.191   6.053   8.297 -0.0925 -0.8332 -0.5537
  403TIP3    H122844   4.161   6.097   8.217  1.4019  2.0193  0.3212
  403TIP3    H222845   4.122   5.989   8.315 -2.6231  1.2682 -1.8665
  404TIP3   OH222846   5.266   3.101   2.248  0.0178 -0.4641  0.5520
  404TIP3    H122847   5.304   3.185   2.223 -0.3332 -0.3313  0.4595
  404TIP3    H222848   5.227   3.118   2.334 -0.4019 -0.4233  0.3563
  405TIP3   OH222849   3.703   2.504   8.365  0.3116 -0.0839 -0.1760
  405TIP3    H122850   3.642   2.563   8.410  1.6483  2.9146 -2.0200
  405TIP3    H222851   3.784   2.509   8.416  1.0497  1.3557 -1.4163
  406TIP3   OH222852   6.006   5.206   0.969  0.1880 -0.5085 -0.1842
  406TIP3    H122853   6.083   5.192   1.025  1.2409  2.1686 -0.7646
  406TIP3    H222854   6.019   5.148   0.894  1.5648 -0.2765 -0.1516
  407TIP3   OH222855   5.315   0.279   0.477  0.2129 -0.0379  0.0976
  407TIP3    H122856   5.338   0.356   0.426  0.0951 -0.7192 -1.0056
  407TIP3    H222857   5.387   0.218   0.464  0.6708  0.1393  1.5744
  408TIP3   OH222858   0.997   3.080   8.352 -0.2936  0.1307  0.5568
  408TIP3    H122859   1.070   3.083   8.291  0.0192 -0.1148  0.9108
  408TIP3    H222860   1.031   3.118   8.433 -0.4888 -0.1861  0.7926
  409TIP3   OH222861   3.202   1.734   2.487  0.2286  0.0922 -0.2587
  409TIP3    H122862   3.178   1.813   2.535 -0.8881 -0.3053 -0.1314
  409TIP3    H222863   3.166   1.662   2.539 -1.7611 -0.3215 -2.0642
  410TIP3   OH222864   2.552   5.008   1.802  0.3541 -0.3887  0.0728
  410TIP3    H122865   2.532   4.994   1.709 -0.1305  3.2335 -0.5499
  410TIP3    H222866   2.494   4.948   1.849 -0.6008 -1.1466 -1.9504
  411TIP3   OH222867   4.017   4.135   0.369 -0.1941  0.2877 -0.1380
  411TIP3    H122868   4.065   4.148   0.452 -2.6391  1.9365  1.1262
  411TIP3    H222869   4.031   4.217   0.321  0.2210 -0.1992 -0.8615
  412TIP3   OH222870   4.509   4.491   1.456 -0.3831 -0.4006 -0.0025
  412TIP3    H122871   4.583   4.525   1.505 -2.2383  1.4748  1.6892
  412TIP3    H222872   4.457   4.442   1.520 -1.5090 -0.1981 -0.7290
  413TIP3   OH222873   2.734   1.092   2.503  0.0553  0.3878 -0.0662
  413TIP3    H122874   2.768   1.106   2.415  0.5809  2.1307  0.3790
  413TIP3    H222875   2.642   1.068   2.490 -0.3061  2.1453 -1.0661
  414TIP3   OH222876   6.344   2.183   0.151 -0.1652  0.1252 -0.1058
  414TIP3    H122877   6.253   2.164   0.128 -0.1152 -2.5195  1.4264
  414TIP3    H222878   6.393   2.107   0.119  0.5639 -1.3713  3.9298
  415TIP3   OH222879   3.637   3.615   0.869  0.1802  0.3379  0.3514
  415TIP3    H122880   3.548   3.595   0.842  0.2530  1.6745 -1.0371
  415TIP3    H222881   3.628   3.650   0.958 -0.6960  0.5363  0.1916
  416TIP3   OH222882   4.130   4.995   2.098  0.0440 -0.2209 -0.9084
  416TIP3    H122883   4.055   4.939   2.079  0.1566 -1.8663  2.6573
  416TIP3    H222884   4.187   4.986   2.022 -1.6979 -1.9009 -2.0917
  417TIP3   OH222885   2.012   4.814   2.694  0.3250 -0.0118 -0.7258
  417TIP3    H122886   2.046   4.851   2.776  0.2647  1.0707 -1.1716
  417TIP3    H222887   2.090   4.797   2.642  0.3980 -1.2000 -0.2578
  418TIP3   OH222888   1.414   4.055   7.770  0.1154  0.2294 -0.0279
  418TIP3    H122889   1.499   4.058   7.814 -0.4847 -0.5256  1.2327
  418TIP3    H222890   1.402   3.963   7.747 -0.7381  0.1703  0.5914
  419TIP3   OH222891   5.447   3.385   0.824 -0.4085  0.0902  0.2426
  419TIP3    H122892   5.493   3.319   0.771 -0.1113  0.0312  0.5720
  419TIP3    H222893   5.403   3.334   0.892  0.1346  0.2603  0.7275
  420TIP3   OH222894   1.335   6.238   8.438  0.2547 -0.0167 -0.2829
  420TIP3    H122895   1.269   6.171   8.451 -0.3735 -0.0272 -3.0746
  420TIP3    H222896   1.419   6.192   8.449 -0.1715 -0.7947 -0.2476
  421TIP3   OH222897   2.214   5.771   1.420 -0.4271 -0.4623  0.0811
  421TIP3    H122898   2.152   5.782   1.348 -0.1617  0.6836  0.0142
  421TIP3    H222899   2.180   5.696   1.470 -1.4018 -0.3648 -0.4248
  422TIP3   OH222900   5.452   4.646   8.477 -0.5761  0.0998 -0.1156
  422TIP3    H122901   5.539   4.664   8.443 -0.6868 -2.1485 -1.8563
  422TIP3    H222902   5.395   4.648   8.400 -1.4652 -1.6363  0.4350
  423TIP3   OH222903   2.995   1.027   1.090  0.0948 -0.3455 -0.0464
  423TIP3    H122904   2.974   1.116   1.120  0.3486 -0.0821 -0.6247
  423TIP3    H222905   2.944   0.970   1.146 -1.7731  0.2527 -1.0670
  424TIP3   OH222906   2.950   1.354   0.827 -0.0404 -0.7104  0.5672
  424TIP3    H122907   2.982   1.267   0.806 -0.8491 -1.6472  2.8884
  424TIP3    H222908   3.000   1.381   0.904  1.0109  1.4237 -0.7685
  425TIP3   OH222909   2.031   2.473   0.409  0.7337  0.3070 -0.4696
  425TIP3    H122910   2.003   2.514   0.327  0.4636 -0.5328 -0.8049
  425TIP3    H222911   2.032   2.380   0.390 -2.9470 -0.3022  1.5261
  426TIP3   OH222912   6.699   1.116   0.515 -0.4455 -0.3147 -0.4457
  426TIP3    H122913   6.627   1.142   0.572  0.4350  2.4871 -0.4463
  426TIP3    H222914   6.749   1.053   0.566 -1.7681 -0.7920  0.3175
  427TIP3   OH222915   5.535   2.835   2.546  0.2624  0.4560 -0.0774
  427TIP3    H122916   5.611   2.829   2.489  0.3486  1.8705 -0.1485
  427TIP3    H222917   5.495   2.748   2.542  0.6880  0.3031 -1.6972
  428TIP3   OH222918   1.341   5.804   8.064  0.3297  0.4010 -0.1616
  428TIP3    H122919   1.383   5.793   7.979 -0.1274 -1.0147 -0.2406
  428TIP3    H222920   1.250   5.780   8.049 -0.3500  2.5315  0.2062
  429TIP3   OH222921   5.394   2.442   7.451  0.1542 -0.0542 -0.0905
  429TIP3    H122922   5.466   2.499   7.479 -0.8917  0.5656  1.5030
  429TIP3    H222923   5.384   2.460   7.358 -0.2815  2.6087  0.3766
  430TIP3   OH222924   4.764   1.990   0.343  0.6557  0.1191  0.0563
  430TIP3    H122925   4.832   1.924   0.355  1.1551  0.3412 -1.3607
  430TIP3    H222926   4.811   2.072   0.332  0.2691  0.1322 -1.9165
  431TIP3   OH222927   4.186   2.819   1.685  0.0060  0.3400  0.1896
  431TIP3    H122928   4.255   2.879   1.714  0.2371 -0.1526  0.6913
  431TIP3    H222929   4.229   2.733   1.679 -0.9999 -0.4761  2.7698
  432TIP3   OH222930   1.489   2.041   2.905  0.3317 -0.4537 -0.1324
  432TIP3    H122931   1.524   1.975   2.846  0.8919 -0.9167  0.7059
  432TIP3    H222932   1.560   2.061   2.965  0.2873  1.1738 -0.5719
  433TIP3   OH222933   2.713   3.489   0.374 -0.2946  0.0308  0.4523
  433TIP3    H122934   2.807   3.476   0.380 -0.3099 -0.0731  0.4571
  433TIP3    H222935   2.697   3.509   0.282 -0.1396  1.0088  0.6203
  434TIP3   OH222936   2.662   3.955   1.429  0.4887 -0.3455 -0.3856
  434TIP3    H122937   2.727   3.943   1.360  0.8112  0.0116 -0.1444
  434TIP3    H222938   2.580   3.971   1.381  0.4234 -1.4790 -0.6961
  435TIP3   OH222939   5.465   6.577   0.130  0.6111 -0.5768 -0.1641
  435TIP3    H122940   5.372   6.569   0.153  0.6378 -2.1028 -0.5270
  435TIP3    H222941   5.471   6.542   0.041  1.2314  1.3356 -0.9330
  436TIP3   OH222942   0.374   2.238   3.303 -0.0106 -0.2701  1.0260
  436TIP3    H122943   0.437   2.166   3.303 -0.0803 -0.3524 -0.4030
  436TIP3    H222944   0.387   2.281   3.218 -1.9234 -0.3246  0.6795
  437TIP3   OH222945   3.289   0.796   3.494  0.2605  0.2033 -0.2222
  437TIP3    H122946   3.281   0.874   3.549  0.6403  0.3045 -0.3107
  437TIP3    H222947   3.202   0.787   3.454  0.0426  0.2463  0.2337
  438TIP3   OH222948   5.342   5.309   1.776 -0.1243  0.2411  0.2956
  438TIP3    H122949   5.403   5.378   1.804  1.7458 -0.0567 -2.6086
  438TIP3    H222950   5.356   5.239   1.840  0.4823  1.2719  1.3350
  439TIP3   OH222951   6.594   1.495   7.186  0.2347 -0.2073  0.3525
  439TIP3    H122952   6.524   1.456   7.238 -0.5190  1.5880  0.7602
  439TIP3    H222953   6.551   1.567   7.138  1.6824  0.5928  0.1989
  440TIP3   OH222954   1.729   1.075   0.492  0.0606 -0.1262 -0.3515
  440TIP3    H122955   1.679   1.098   0.570 -0.5036 -3.5776  0.4493
  440TIP3    H222956   1.667   1.027   0.437  1.4445 -0.9635 -1.2279
  441TIP3   OH222957   6.372   6.199   8.474 -0.4733  0.0874  0.1559
  441TIP3    H122958   6.452   6.163   8.437 -0.1979  2.2353 -1.5336
  441TIP3    H222959   6.377   6.178   8.568  1.9126 -0.0792  0.0556
  442TIP3   OH222960   2.754   6.076   2.674 -0.0579  0.2676  0.3209
  442TIP3    H122961   2.827   6.132   2.649  0.4915  0.1405  1.5373
  442TIP3    H222962   2.795   5.994   2.701 -0.7722 -0.3510 -0.3872
  443TIP3   OH222963   6.266   0.987   0.559 -0.3500  0.2688 -0.4352
  443TIP3    H122964   6.259   0.892   0.555  1.2758  0.0921  0.2012
  443TIP3    H222965   6.242   1.016   0.471 -1.6516 -0.6507 -0.4125
  444TIP3   OH222966   6.454   3.153   2.431  0.0129  0.0617  0.1818
  444TIP3    H122967   6.392   3.096   2.477  0.5447 -1.2231 -0.6177
  444TIP3    H222968   6.400   3.208   2.375 -0.4360 -0.8174 -0.2612
  445TIP3   OH222969   1.492   1.615   1.787  0.0637 -0.0994  0.1456
  445TIP3    H122970   1.468   1.644   1.875 -0.2729 -0.7609  0.2748
  445TIP3    H222971   1.418   1.638   1.732  0.4028  0.5985 -0.0340
  446TIP3   OH222972   4.854   1.123   1.343 -0.8751 -1.3441 -0.2854
  446TIP3    H122973   4.858   1.076   1.426 -0.6894  0.1902  0.6165
  446TIP3    H222974   4.762   1.148   1.334 -0.7925 -1.0300 -0.2596
  447TIP3   OH222975   6.622   1.972   2.489 -0.5565  0.3593  0.0196
  447TIP3    H122976   6.644   1.906   2.556 -0.2211 -0.5881 -0.9857
  447TIP3    H222977   6.639   2.056   2.532  0.4126 -0.2402  0.8717
  448TIP3   OH222978   2.593   4.202   1.685 -0.1516  0.0439  0.2012
  448TIP3    H122979   2.520   4.256   1.655  0.0961  0.6283  0.6201
  448TIP3    H222980   2.567   4.113   1.664 -0.1434  0.3968 -1.3852
  449TIP3   OH222981   4.737   6.838   0.977 -0.1569  0.2886  0.0463
  449TIP3    H122982   4.678   6.822   0.903  0.3337 -0.0093 -0.2841
  449TIP3    H222983   4.730   6.932   0.993  0.7524  0.6127 -1.2779
  450TIP3   OH222984   0.894   4.869   7.658  0.4859  0.2441 -0.1582
  450TIP3    H122985   0.802   4.895   7.651  0.4261 -0.3229 -1.7634
  450TIP3    H222986   0.927   4.873   7.568  2.0453  0.4609  0.3965
  451TIP3   OH222987   5.306   2.328   3.205  0.7296 -0.7387  0.0820
  451TIP3    H122988   5.340   2.244   3.237  3.2549  0.2389  0.2427
  451TIP3    H222989   5.311   2.386   3.281 -1.9143 -0.5993  0.2466
  452TIP3   OH222990   3.708   3.268   1.563 -0.3271  0.2442 -0.2769
  452TIP3    H122991   3.642   3.338   1.568 -1.4662 -0.9082  2.0417
  452TIP3    H222992   3.669   3.194   1.609  1.3344 -1.5834 -1.6164
  453TIP3   OH222993   6.791   4.971   1.639 -0.4639 -0.0555 -0.0884
  453TIP3    H122994   6.744   4.892   1.663  0.5122 -0.6269  0.0034
  453TIP3    H222995   6.862   4.941   1.583  1.2547  0.4545  1.6862
  454TIP3   OH222996   4.473   6.329   0.407  0.0900 -0.3277  0.2283
  454TIP3    H122997   4.390   6.281   0.404 -1.1773  1.6898  0.9162
  454TIP3    H222998   4.456   6.411   0.360  2.0419 -0.3221 -0.5743
  455TIP3   OH222999   4.867   3.428   3.424 -0.1050 -0.4899 -0.3249
  455TIP3    H123000   4.925   3.354   3.405  1.0462  0.1024  0.7464
  455TIP3    H223001   4.924   3.505   3.418 -0.4894  0.0182  1.8355
  456TIP3   OH223002   5.344   0.519   1.141  0.3502  0.2950  0.3915
  456TIP3    H123003   5.267   0.462   1.143  0.4404  0.0045 -2.0325
  456TIP3    H223004   5.393   0.496   1.220 -0.1644 -2.2350  0.0353
  457TIP3   OH223005   5.017   1.290   8.148  0.0014 -0.1665  0.7120
  457TIP3    H123006   5.109   1.268   8.160  0.0847  0.3203  0.9940
  457TIP3    H223007   4.970   1.229   8.206 -0.0757 -2.2280 -1.3486
  458TIP3   OH223008   5.683   0.678   0.487  0.1116  0.3751 -0.1826
  458TIP3    H123009   5.617   0.674   0.417  0.6696  0.1398 -0.7005
  458TIP3    H223010   5.633   0.664   0.568 -0.5747  0.8915 -0.5098
  459TIP3   OH223011   4.634   4.275   8.429 -0.0629 -0.3758 -0.1069
  459TIP3    H123012   4.627   4.307   8.519 -0.3115 -1.7615  0.4028
  459TIP3    H223013   4.727   4.284   8.407 -0.0697  0.3352  0.1313
  460TIP3   OH223014   6.030   3.597   3.144 -0.2186 -0.1996 -0.3663
  460TIP3    H123015   6.059   3.516   3.104 -1.2759 -0.0719 -1.4573
  460TIP3    H223016   5.936   3.601   3.126 -0.3550  0.8423  0.4195
  461TIP3   OH223017   5.990   4.356   2.632  0.1331 -0.3631 -0.4595
  461TIP3    H123018   5.954   4.445   2.630 -0.3908 -0.5807 -2.4924
  461TIP3    H223019   6.066   4.363   2.690 -0.3020  1.2396 -0.0191
  462TIP3   OH223020   2.428   2.187   1.562  0.4992 -0.1073  0.1291
  462TIP3    H123021   2.380   2.176   1.644  0.0352 -1.4826 -0.2967
  462TIP3    H223022   2.514   2.218   1.588  0.3443 -0.5036  1.1514
  463TIP3   OH223023   3.800   2.749   2.316 -0.2240  0.2828  0.0895
  463TIP3    H123024   3.787   2.682   2.249  0.7304  1.1459 -0.9936
  463TIP3    H223025   3.848   2.704   2.386  1.2701  0.0211 -1.0417
  464TIP3   OH223026   6.759   5.582   2.308 -0.1991  0.5816  0.2047
  464TIP3    H123027   6.756   5.623   2.394 -0.2241  2.4993 -0.6644
  464TIP3    H223028   6.699   5.634   2.255 -1.8061 -1.8125 -0.5104
  465TIP3   OH223029   0.170   5.190   2.140  0.5406 -0.1161 -0.1114
  465TIP3    H123030   0.252   5.209   2.095 -0.2483  1.0857 -1.1208
  465TIP3    H223031   0.110   5.258   2.110 -1.3260 -1.9147 -0.7130
  466TIP3   OH223032   4.349   5.082   2.502  0.4156  0.3062 -0.2089
  466TIP3    H123033   4.368   5.171   2.473 -1.4894  0.4658 -1.1299
  466TIP3    H223034   4.393   5.025   2.439 -1.2501  0.6466 -1.7502
  467TIP3   OH223035   4.934   4.580   1.779  0.2573 -0.0580  0.0761
  467TIP3    H123036   4.992   4.648   1.813 -0.7707 -0.0147  1.8347
  467TIP3    H223037   4.933   4.595   1.684  0.1070  2.3800  0.3877
  468TIP3   OH223038   6.012   2.153   0.355  0.0586  0.1418  0.5124
  468TIP3    H123039   6.039   2.239   0.323  0.2736 -0.0774  0.1035
  468TIP3    H223040   6.094   2.110   0.379 -0.1066  0.4042  1.6441
  469TIP3   OH223041   5.490   4.138   0.633 -0.6215  0.2321 -0.3458
  469TIP3    H123042   5.410   4.085   0.626  0.4480 -1.3519 -0.9827
  469TIP3    H223043   5.560   4.075   0.648  0.8995  1.3078 -2.4179
  470TIP3   OH223044   3.529   2.232   1.766 -0.1815 -0.2043 -0.6660
  470TIP3    H123045   3.500   2.144   1.787  2.6999 -0.9247  0.7341
  470TIP3    H223046   3.552   2.229   1.673 -2.7082 -0.0653 -1.3644
  471TIP3   OH223047   2.465   3.918   1.917 -0.1455 -0.3370  0.1845
  471TIP3    H123048   2.460   4.003   1.961  3.8254  1.1816 -1.7942
  471TIP3    H223049   2.468   3.940   1.824  1.0608 -2.6138 -0.3870
  472TIP3   OH223050   3.791   6.644   0.522 -0.5443  0.5668 -0.6072
  472TIP3    H123051   3.741   6.607   0.595  2.4643 -1.2220  0.7397
  472TIP3    H223052   3.733   6.711   0.485 -2.5405  1.0176  2.8865
  473TIP3   OH223053   2.697   4.708   7.975  0.1548 -0.5665  0.9838
  473TIP3    H123054   2.640   4.726   7.900  0.9159 -3.7760 -0.5411
  473TIP3    H223055   2.745   4.789   7.989 -2.7946  1.4128  0.6257
  474TIP3   OH223056   0.127   3.370   1.424 -0.1726 -0.2219 -0.4396
  474TIP3    H123057   0.080   3.338   1.501  0.5546  2.5273  1.2833
  474TIP3    H223058   0.216   3.385   1.455 -0.3574  2.9763 -1.0907
  475TIP3   OH223059   3.915   0.439   1.763  0.3836  0.4660  0.2167
  475TIP3    H123060   3.930   0.350   1.795  0.8653  0.6610  0.5475
  475TIP3    H223061   3.871   0.427   1.679  1.3007 -0.1237 -0.2028
  476TIP3   OH223062   6.623   1.213   1.370  0.4460  0.5273 -0.3008
  476TIP3    H123063   6.630   1.199   1.276  1.0731 -0.2504 -0.1574
  476TIP3    H223064   6.631   1.125   1.408  0.5169  0.8604  0.4899
  477TIP3   OH223065   3.256   3.088   2.257 -0.9551  0.4586 -0.0579
  477TIP3    H123066   3.218   3.001   2.268 -1.2979  0.4847 -0.9891
  477TIP3    H223067   3.181   3.147   2.269 -0.8364  0.5985 -0.0082
  478TIP3   OH223068   1.205   4.208   0.946  0.2423  0.4277  0.1033
  478TIP3    H123069   1.141   4.205   1.017 -0.1600  1.1959 -0.2076
  478TIP3    H223070   1.290   4.212   0.990  0.1409 -1.3699  0.5140
  479TIP3   OH223071   6.460   0.403   2.332  0.0180  0.0635  0.0867
  479TIP3    H123072   6.498   0.482   2.371 -0.0103 -0.2234  0.7015
  479TIP3    H223073   6.412   0.362   2.403 -0.7013 -0.0526 -0.4613
  480TIP3   OH223074   5.299   0.508   1.503  0.4972 -0.5847 -0.5328
  480TIP3    H123075   5.223   0.481   1.451 -0.2215 -1.3077  0.8209
  480TIP3    H223076   5.355   0.431   1.505  0.1514 -0.8267  0.3716
  481TIP3   OH223077   4.642   0.104   1.591 -0.0285  0.4051 -0.0886
  481TIP3    H123078   4.655   0.084   1.683  2.6670  1.5064 -0.1368
  481TIP3    H223079   4.560   0.153   1.588 -1.1240 -1.2460  1.4088
  482TIP3   OH223080   6.470   3.930   8.122 -0.2347  0.0431 -0.1055
  482TIP3    H123081   6.507   3.845   8.149  0.9425  0.5086 -0.1628
  482TIP3    H223082   6.471   3.982   8.202  0.0761  0.3397 -0.2974
  483TIP3   OH223083   3.143   2.183   7.750 -0.1448 -0.2277 -0.4855
  483TIP3    H123084   3.186   2.098   7.745  0.0673 -0.2847  1.4396
  483TIP3    H223085   3.215   2.245   7.762 -0.2095  0.4018 -2.9184
  484TIP3   OH223086   1.404   4.866   0.800  0.3771  0.1474 -0.3222
  484TIP3    H123087   1.336   4.897   0.741  0.0404  1.6786  0.8143
  484TIP3    H223088   1.358   4.837   0.878  0.9652  1.0448  0.3943
  485TIP3   OH223089   6.779   5.033   0.196 -0.2082 -0.3742  0.3588
  485TIP3    H123090   6.786   5.124   0.225  1.1175 -0.0938 -0.7328
  485TIP3    H223091   6.764   4.984   0.277  1.1459  0.6032  1.2621
  486TIP3   OH223092   6.384   1.106   3.046  0.1934 -0.3890 -0.2575
  486TIP3    H123093   6.434   1.187   3.056 -1.7837  0.7266  1.4647
  486TIP3    H223094   6.444   1.037   3.074  1.7994  0.4735 -1.3972
  487TIP3   OH223095   5.421   5.351   0.839  0.1819 -0.3662 -0.4716
  487TIP3    H123096   5.396   5.340   0.748 -0.1198 -0.9775 -0.3260
  487TIP3    H223097   5.338   5.364   0.885  0.3185 -0.2294 -0.2604
  488TIP3   OH223098   0.760   3.578   2.522  0.7086 -0.6250  0.3680
  488TIP3    H123099   0.804   3.625   2.593  1.2241 -1.7857  0.8327
  488TIP3    H223100   0.748   3.489   2.556  2.3385 -1.6359 -1.5375
  489TIP3   OH223101   6.209   6.535   1.166 -0.0167 -0.9429  0.1280
  489TIP3    H123102   6.136   6.502   1.219 -0.2256  2.6241  2.3955
  489TIP3    H223103   6.170   6.601   1.109  1.2180  0.4914  0.8564
  490TIP3   OH223104   6.060   1.736   2.392  0.1509  0.0348  0.2707
  490TIP3    H123105   6.002   1.693   2.455 -1.3043  0.0847 -0.9793
  490TIP3    H223106   6.001   1.770   2.324  1.5461  1.2171 -0.4036
  491TIP3   OH223107   5.848   4.518   0.046 -0.3204 -0.0240  0.2954
  491TIP3    H123108   5.773   4.472   0.084 -0.5320 -0.1813 -0.2935
  491TIP3    H223109   5.921   4.457   0.053 -0.0118  0.4694  1.6985
  492TIP3   OH223110   3.023   0.049   8.325 -0.8886  0.2476 -0.8007
  492TIP3    H123111   3.110   0.062   8.288 -1.1161  0.9370 -1.0953
  492TIP3    H223112   3.027   0.093   8.410 -0.7721 -0.2177 -0.5626
  493TIP3   OH223113   2.667   6.329   2.873  0.4894 -0.1122  0.4708
  493TIP3    H123114   2.743   6.339   2.816  1.4044  0.6572  1.7832
  493TIP3    H223115   2.694   6.265   2.938 -0.5719 -1.0342  0.0312
  494TIP3   OH223116   1.454   3.836   1.195  0.2247 -0.2359  0.6904
  494TIP3    H123117   1.502   3.903   1.147  1.8601 -1.5882  0.3355
  494TIP3    H223118   1.470   3.855   1.287 -0.5236  0.6736  0.6468
  495TIP3   OH223119   5.966   4.835   0.918  0.3712  0.5780 -0.3508
  495TIP3    H123120   5.968   4.838   1.014 -1.7038  2.0973 -0.2823
  495TIP3    H223121   6.019   4.909   0.891  0.3061  0.6305 -0.3373
  496TIP3   OH223122   3.749   6.467   8.306  0.3628  0.3648 -0.5957
  496TIP3    H123123   3.841   6.448   8.324  0.6130  1.8959 -0.1482
  496TIP3    H223124   3.746   6.561   8.292 -1.1647  0.3519 -0.5203
  497TIP3   OH223125   0.718   1.989   8.644 -0.8444  0.3843 -0.4950
  497TIP3    H123126   0.664   1.967   8.720 -0.4879  0.9833 -0.0595
  497TIP3    H223127   0.683   2.072   8.613 -1.3146 -0.1051 -1.3095
  498TIP3   OH223128   6.803   4.007   3.330  0.1234  0.3308  0.4058
  498TIP3    H123129   6.874   4.011   3.266 -0.2026  1.2687  0.0891
  498TIP3    H223130   6.815   4.085   3.384  0.1311 -0.2130  1.2256
  499TIP3   OH223131   6.333   6.219   3.688  0.4386  0.2065  0.2006
  499TIP3    H123132   6.280   6.154   3.736  0.5796 -1.0524 -1.2658
  499TIP3    H223133   6.307   6.303   3.725 -1.9013 -0.4399  0.2010
  500TIP3   OH223134   2.093   0.405   2.506 -0.1134  0.1607  0.0611
  500TIP3    H123135   2.056   0.317   2.500 -0.6995  0.4124 -0.0640
  500TIP3    H223136   2.020   0.460   2.535  0.0499  0.7426 -0.6073
  501TIP3   OH223137   3.488   4.981   1.031  0.3444  0.5989  0.1581
  501TIP3    H123138   3.468   5.019   1.117  2.2221  2.9171 -0.3536
  501TIP3    H223139   3.411   5.000   0.978 -0.1216  0.6627  0.8422
  502TIP3   OH223140   0.774   0.685   2.358  0.0367 -0.1377  0.0874
  502TIP3    H123141   0.770   0.596   2.394 -2.6018 -0.4442 -0.7754
  502TIP3    H223142   0.745   0.742   2.430  2.5498  0.2355  0.9306
  503TIP3   OH223143   0.525   0.226   1.587 -0.5745 -0.0486  0.0022
  503TIP3    H123144   0.436   0.191   1.575 -0.9853  1.3482 -1.3501
  503TIP3    H223145   0.537   0.285   1.513  1.1089  0.5749  0.7428
  504TIP3   OH223146   5.214   2.332   7.240  0.1502  0.3542  0.0856
  504TIP3    H123147   5.194   2.290   7.323  0.0360  0.1357 -0.0533
  504TIP3    H223148   5.181   2.272   7.173  0.4995  0.3926 -0.1251
  505TIP3   OH223149   0.137   1.855   8.422 -0.3418  0.0874 -0.3165
  505TIP3    H123150   0.199   1.915   8.381  0.8041 -0.5927  0.3388
  505TIP3    H223151   0.052   1.878   8.385  0.3639  0.7550 -1.6038
  506TIP3   OH223152   6.334   2.223   0.421  0.2878  0.0926  0.5299
  506TIP3    H123153   6.337   2.267   0.336 -0.1858  1.8579  1.3855
  506TIP3    H223154   6.337   2.129   0.400  0.8027  0.5049 -1.3837
  507TIP3   OH223155   5.392   6.377   8.540  0.1924  0.7372 -0.2978
  507TIP3    H123156   5.397   6.296   8.489 -1.7810  0.7590 -0.6319
  507TIP3    H223157   5.415   6.446   8.478  2.5091  0.4487  0.1508
  508TIP3   OH223158   1.908   3.102   1.806 -0.5253 -0.3016 -0.0529
  508TIP3    H123159   1.987   3.146   1.774 -0.7827  0.0917 -0.1602
  508TIP3    H223160   1.938   3.049   1.880 -0.1289 -0.2992 -0.2086
  509TIP3   OH223161   4.331   5.694   1.643 -0.0120 -0.1396  0.0869
  509TIP3    H123162   4.414   5.652   1.668  0.0495 -0.6660 -0.9443
  509TIP3    H223163   4.265   5.652   1.698  0.2237 -0.7111 -0.0602
  510TIP3   OH223164   0.435   1.988   8.469  0.3622  0.5937 -0.2626
  510TIP3    H123165   0.369   2.046   8.432  0.5253  0.5957 -0.5609
  510TIP3    H223166   0.507   1.992   8.406  0.4207  0.1620 -0.2235
  511TIP3   OH223167   1.006   4.491   0.736  0.0630  0.6483 -0.2295
  511TIP3    H123168   0.987   4.447   0.819  2.0208 -0.0229 -0.0953
  511TIP3    H223169   0.987   4.583   0.753 -1.9845  0.2201  0.1510
  512TIP3   OH223170   4.529   2.232   1.849  0.8719  0.3542  0.1893
  512TIP3    H123171   4.511   2.263   1.761  0.3576 -1.1210 -0.2506
  512TIP3    H223172   4.526   2.311   1.904 -0.8085  1.0208 -0.8001
  513TIP3   OH223173   4.978   0.199   0.229  0.1583  0.3206  0.0708
  513TIP3    H123174   4.955   0.291   0.219 -0.0392  0.3785  0.9431
  513TIP3    H223175   5.006   0.192   0.321 -0.9930 -0.7271  0.3638
  514TIP3   OH223176   4.612   2.990   8.182  0.3003 -0.1295 -0.0577
  514TIP3    H123177   4.544   2.943   8.230 -0.6646 -0.4561 -1.6402
  514TIP3    H223178   4.645   3.055   8.243 -0.2622 -1.0787  1.2993
  515TIP3   OH223179   5.952   2.236   0.608  0.1595  0.0854  0.1179
  515TIP3    H123180   6.005   2.158   0.628 -0.3312  0.0066  1.1923
  515TIP3    H223181   5.948   2.238   0.512  3.4537  1.0399 -0.1007
  516TIP3   OH223182   6.431   3.334   2.864 -0.3859  0.5187  0.0327
  516TIP3    H123183   6.451   3.258   2.919 -1.3862  1.5324  1.8770
  516TIP3    H223184   6.502   3.335   2.799  1.0696 -0.5161  1.5095
  517TIP3   OH223185   0.491   6.426   3.515 -0.3075  0.1301  0.2209
  517TIP3    H123186   0.478   6.337   3.547 -1.8411  0.4136  0.4507
  517TIP3    H223187   0.585   6.440   3.519 -0.2375 -0.6802  2.3658
  518TIP3   OH223188   3.037   5.518   2.598 -0.3007 -0.7661 -0.1695
  518TIP3    H123189   3.009   5.562   2.518  0.2018 -1.0970 -0.5287
  518TIP3    H223190   2.985   5.559   2.667  1.0185  1.2828 -0.3162
  519TIP3   OH223191   2.760   4.073   0.184  0.5745 -0.0014  0.9517
  519TIP3    H123192   2.852   4.093   0.166  0.9173 -0.2370  2.2894
  519TIP3    H223193   2.715   4.157   0.178  0.6549 -0.0653 -0.8642
  520TIP3   OH223194   6.331   1.360   1.540  0.4720 -0.2966 -0.3947
  520TIP3    H123195   6.419   1.332   1.517  0.6980  0.1453 -0.0847
  520TIP3    H223196   6.323   1.339   1.633 -0.1933 -1.4538 -0.6819
  521TIP3   OH223197   4.593   3.538   7.639 -0.3875 -0.2528 -0.4682
  521TIP3    H123198   4.668   3.561   7.694  0.8833 -2.4056 -1.2124
  521TIP3    H223199   4.535   3.614   7.645  1.4032  1.0806  0.8745
  522TIP3   OH223200   3.042   2.010   8.005 -0.5628 -0.5790  0.0626
  522TIP3    H123201   3.072   2.100   7.995 -2.4789  0.3144  1.7853
  522TIP3    H223202   2.962   2.005   7.952 -0.7417 -1.1286  0.3747
  523TIP3   OH223203   0.738   1.193   0.306 -0.0208  0.4111 -0.3878
  523TIP3    H123204   0.708   1.280   0.281 -0.2064  0.2588 -0.7086
  523TIP3    H223205   0.741   1.195   0.401  0.4939  0.9363 -0.4129
  524TIP3   OH223206   1.299   3.742   2.839  0.4505 -0.5345 -0.1766
  524TIP3    H123207   1.351   3.661   2.847 -1.3424 -1.8563 -1.1292
  524TIP3    H223208   1.225   3.729   2.898  0.2120  0.4819 -0.2440
  525TIP3   OH223209   5.807   3.289   1.335  0.4502 -0.2448  0.1008
  525TIP3    H123210   5.863   3.231   1.283 -0.5126 -1.5436  0.4554
  525TIP3    H223211   5.748   3.328   1.271  0.1805 -0.7509  0.0395
  526TIP3   OH223212   5.321   6.218   2.391  0.6589  0.3510 -0.1213
  526TIP3    H123213   5.343   6.272   2.315  1.5350  0.5714  0.2699
  526TIP3    H223214   5.320   6.279   2.465 -2.3607  0.5415 -0.2243
  527TIP3   OH223215   0.294   5.475   2.129 -0.0121 -0.3449  0.2841
  527TIP3    H123216   0.387   5.465   2.150 -0.6970 -4.2586  2.2801
  527TIP3    H223217   0.280   5.418   2.053 -0.6322  1.1692 -0.7868
  528TIP3   OH223218   3.937   5.850   3.359 -0.0265 -0.4112  0.2593
  528TIP3    H123219   3.914   5.938   3.328 -1.7591 -1.2445 -0.9540
  528TIP3    H223220   3.873   5.830   3.427  0.2927 -0.7895  0.4548
  529TIP3   OH223221   0.357   2.884   1.563  0.1814 -0.6439  0.6074
  529TIP3    H123222   0.432   2.840   1.603  0.0244  0.1279  1.7760
  529TIP3    H223223   0.390   2.916   1.479  0.2717 -3.0809 -0.3713
  530TIP3   OH223224   6.623   3.658   2.151 -0.7891 -0.4953  0.4344
  530TIP3    H123225   6.622   3.581   2.207  0.8119 -0.3064  0.7612
  530TIP3    H223226   6.563   3.719   2.193  0.1303 -0.4818  1.7856
  531TIP3   OH223227   1.469   6.670   0.917 -0.5374 -0.7044 -0.3003
  531TIP3    H123228   1.503   6.599   0.864 -0.1905 -0.8915  0.1720
  531TIP3    H223229   1.506   6.749   0.878 -1.2880 -0.7323 -1.1092
  532TIP3   OH223230   2.384   6.461   8.184  0.1296 -0.7070 -0.3135
  532TIP3    H123231   2.412   6.549   8.156  3.8175 -1.6284 -0.0613
  532TIP3    H223232   2.402   6.405   8.108 -0.5925 -1.4913  0.0866
  533TIP3   OH223233   2.899   5.885   1.581 -0.2569 -0.6145 -0.2031
  533TIP3    H123234   2.980   5.884   1.632 -1.1828  0.0944  1.3619
  533TIP3    H223235   2.887   5.977   1.557 -0.3857 -0.7821 -0.7905
  534TIP3   OH223236   0.884   0.745   0.267 -0.6815 -0.0374  0.0268
  534TIP3    H123237   0.801   0.733   0.222  0.4157  0.9825 -2.4340
  534TIP3    H223238   0.885   0.677   0.334 -2.3705 -1.7646 -1.5871
  535TIP3   OH223239   0.049   3.357   2.217 -0.2948 -0.2768  0.3202
  535TIP3    H123240   0.016   3.360   2.306 -3.2175  2.2214 -0.6762
  535TIP3    H223241   0.141   3.383   2.225 -1.1095  2.4783  2.4771
  536TIP3   OH223242   1.041   5.545   2.308 -0.4984 -0.3825 -0.1384
  536TIP3    H123243   1.071   5.464   2.350 -2.1464 -1.5019 -1.0026
  536TIP3    H223244   1.108   5.563   2.242 -0.5212 -1.5166 -0.4921
  537TIP3   OH223245   4.317   2.860   1.235  0.5474 -0.0807 -0.3629
  537TIP3    H123246   4.301   2.773   1.272  3.8771 -0.2045  1.1861
  537TIP3    H223247   4.385   2.846   1.169 -1.0216  1.0230 -2.3191
  538TIP3   OH223248   2.946   6.494   8.177 -0.3600 -0.2017 -0.4910
  538TIP3    H123249   2.869   6.440   8.196 -0.9729  0.8792  0.1635
  538TIP3    H223250   2.953   6.492   8.082 -0.0394 -1.8661 -0.4713
  539TIP3   OH223251   6.832   5.129   3.288  0.2248 -0.1915  0.3388
  539TIP3    H123252   6.912   5.127   3.341 -0.5783 -1.1597  1.5860
  539TIP3    H223253   6.847   5.063   3.220  0.8355  0.2893 -0.0068
  540TIP3   OH223254   3.248   3.443   3.171  0.4099  0.2967 -0.5125
  540TIP3    H123255   3.296   3.393   3.105  1.4491 -1.1801  1.2929
  540TIP3    H223256   3.201   3.377   3.222 -1.0523  1.4797 -0.2647
  541TIP3   OH223257   0.151   0.388   1.508 -0.1280 -0.3750  0.5036
  541TIP3    H123258   0.073   0.397   1.564  0.0102  0.1160  0.6188
  541TIP3    H223259   0.159   0.472   1.463  0.5676 -0.2761  0.7940
  542TIP3   OH223260   4.326   5.703   2.959  0.1173 -0.8443 -0.4359
  542TIP3    H123261   4.270   5.641   3.005  1.0055 -0.2828  1.5287
  542TIP3    H223262   4.398   5.650   2.924 -1.5088 -1.5587 -2.9153
  543TIP3   OH223263   3.704   2.401   8.655  0.2717 -0.3739  0.3552
  543TIP3    H123264   3.676   2.315   8.688 -2.3480  0.6006  0.9460
  543TIP3    H223265   3.680   2.462   8.725 -1.2863  1.2312 -1.4591
  544TIP3   OH223266   5.968   2.480   1.411 -0.1098 -0.2448 -0.5965
  544TIP3    H123267   6.000   2.443   1.329  1.2985 -0.9026  0.2210
  544TIP3    H223268   5.967   2.407   1.472 -1.6399  0.1231 -0.1351
  545TIP3   OH223269   1.905   4.447   7.519 -0.1320 -0.4983  0.2594
  545TIP3    H123270   1.987   4.422   7.476  0.8440  1.5767  0.7452
  545TIP3    H223271   1.876   4.525   7.472 -3.2771 -2.5428 -1.5343
  546TIP3   OH223272   6.741   3.794   3.778 -0.0080  0.3182  0.1122
  546TIP3    H123273   6.789   3.762   3.701 -0.9405  2.0493 -1.2441
  546TIP3    H223274   6.745   3.721   3.839 -0.9241 -1.9563 -2.3191
  547TIP3   OH223275   2.762   2.951   2.678 -0.1070  0.2294  1.0256
  547TIP3    H123276   2.793   3.033   2.716 -0.4853  0.1565  1.4996
  547TIP3    H223277   2.819   2.936   2.603  0.6100  0.4106  1.5303
  548TIP3   OH223278   3.764   2.971   2.040 -0.7548 -0.0129  0.2493
  548TIP3    H123279   3.703   2.901   2.063 -0.4250 -0.2292  0.4826
  548TIP3    H223280   3.821   2.979   2.117 -0.0516 -0.2888 -0.2283
  549TIP3   OH223281   6.021   6.030   8.391 -0.2917 -0.2243 -0.5322
  549TIP3    H123282   6.015   6.042   8.296  0.9157  0.6645 -0.5175
  549TIP3    H223283   6.102   5.981   8.404 -1.8054 -2.8205 -0.0989
  550TIP3   OH223284   1.177   4.011   3.052  0.4454  0.0022 -0.0388
  550TIP3    H123285   1.186   4.066   3.130 -0.5276 -0.2880  0.2908
  550TIP3    H223286   1.245   4.044   2.992 -0.3260  1.8027  0.0028
  551TIP3   OH223287   5.394   6.140   7.635 -0.0837 -0.1681 -0.3200
  551TIP3    H123288   5.402   6.133   7.540 -0.9564  1.9062 -0.5993
  551TIP3    H223289   5.480   6.173   7.664  0.7508 -2.3610 -0.1393
  552TIP3   OH223290   6.400   1.191   2.049 -0.1552 -0.3722 -0.2774
  552TIP3    H123291   6.492   1.188   2.022 -0.2936 -1.5501 -0.6627
  552TIP3    H223292   6.398   1.253   2.122  0.8112  0.2323 -0.7403
  553TIP3   OH223293   3.435   1.056   1.098  0.2106 -0.1779 -0.3983
  553TIP3    H123294   3.431   1.083   1.190 -0.9336  2.6214 -1.1712
  553TIP3    H223295   3.528   1.060   1.076  0.5209 -1.0339  0.6200
  554TIP3   OH223296   4.543   3.387   8.365  0.0600  0.6863 -0.2118
  554TIP3    H123297   4.602   3.411   8.436  1.6445  1.0960 -1.5855
  554TIP3    H223298   4.601   3.373   8.290 -1.6252  1.7167 -1.8118
  555TIP3   OH223299   1.071   0.934   8.207 -0.5109  0.1124 -0.5433
  555TIP3    H123300   1.007   0.866   8.184  0.5501 -1.2198  0.2610
  555TIP3    H223301   1.150   0.909   8.160  0.1556  0.2924  0.4583
  556TIP3   OH223302   6.860   1.939   2.929 -0.3879  0.1194 -0.4865
  556TIP3    H123303   6.869   2.032   2.910  0.6161  0.1527  0.0640
  556TIP3    H223304   6.832   1.936   3.021 -0.3853 -0.1233 -0.4925
  557TIP3   OH223305   3.539   0.200   2.186  0.3516  0.2672  0.2729
  557TIP3    H123306   3.577   0.234   2.105  1.0818 -1.3040 -0.0817
  557TIP3    H223307   3.475   0.266   2.212 -0.7774  0.2963 -2.2278
  558TIP3   OH223308   2.387   3.437   7.500 -0.6229  0.0604  0.0765
  558TIP3    H123309   2.454   3.374   7.475  0.8860  1.1572  1.1631
  558TIP3    H223310   2.334   3.449   7.422  1.9717  0.9948 -1.6794
  559TIP3   OH223311   4.703   2.814   8.552  0.1800  0.0937 -0.2497
  559TIP3    H123312   4.692   2.835   8.645  2.4771 -0.1214  0.1359
  559TIP3    H223313   4.706   2.899   8.509 -0.5161  0.2039 -0.1017
  560TIP3   OH223314   6.558   6.881   0.057  0.3081 -0.7986 -0.4058
  560TIP3    H123315   6.522   6.933   0.129  0.3657 -0.6149 -0.5080
  560TIP3    H223316   6.652   6.878   0.074  0.5704  0.7008 -1.3788
  561TIP3   OH223317   3.078   1.100   2.468 -0.1340  0.0484 -0.0295
  561TIP3    H123318   3.086   1.008   2.490 -0.8458  0.0611  0.2915
  561TIP3    H223319   3.016   1.135   2.532  0.9086  0.9766  0.4995
  562TIP3   OH223320   0.519   2.183   3.624  0.1326  0.1754  0.0407
  562TIP3    H123321   0.580   2.124   3.580 -0.8139 -0.5180 -0.3732
  562TIP3    H223322   0.446   2.192   3.564 -1.1389 -0.6946  1.3991
  563TIP3   OH223323   3.798   4.717   8.505  0.2563 -0.1536 -0.3965
  563TIP3    H123324   3.725   4.709   8.444  0.1949 -0.6238 -0.2619
  563TIP3    H223325   3.866   4.761   8.455  0.5820 -1.4611 -1.1279
  564TIP3   OH223326   5.831   4.140   7.651 -0.3506  0.3581  0.2760
  564TIP3    H123327   5.894   4.151   7.581 -1.4239  2.9874 -0.3949
  564TIP3    H223328   5.865   4.066   7.703  2.5349  0.8488 -0.7494
  565TIP3   OH223329   6.137   3.021   8.474  0.4118  0.3631 -0.2529
  565TIP3    H123330   6.176   2.943   8.513 -0.6034 -1.2600 -2.2867
  565TIP3    H223331   6.092   3.064   8.547  0.9386 -0.9740  0.9169
  566TIP3   OH223332   0.347   5.986   1.747  0.3366  0.2392 -0.0679
  566TIP3    H123333   0.421   5.999   1.806 -0.3269  1.7750  0.4788
  566TIP3    H223334   0.371   6.032   1.667 -0.4415  1.7270  0.5085
  567TIP3   OH223335   5.337   3.940   0.093  0.0386  0.3924 -0.3418
  567TIP3    H123336   5.333   3.970   0.002 -0.2923 -0.4254 -0.6078
  567TIP3    H223337   5.425   3.903   0.102 -0.3895 -0.7727 -0.7500
  568TIP3   OH223338   0.623   5.812   2.619 -0.0866  0.3340  0.4165
  568TIP3    H123339   0.541   5.829   2.573 -0.0862 -0.1922  0.2171
  568TIP3    H223340   0.596   5.772   2.701 -0.1286  1.8634  1.1981
  569TIP3   OH223341   2.743   3.849   0.041  0.0350  0.2674  0.4362
  569TIP3    H123342   2.766   3.893   0.123 -2.5283 -1.1928  2.0525
  569TIP3    H223343   2.692   3.773   0.068 -0.2652 -0.6778 -2.5078
  570TIP3   OH223344   6.306   0.356   2.118  0.4184 -0.8194 -0.2576
  570TIP3    H123345   6.368   0.393   2.180 -1.0054  0.3176  0.5441
  570TIP3    H223346   6.235   0.321   2.173  0.2053 -1.8631 -1.1549
  571TIP3   OH223347   5.393   3.322   8.432 -0.0692  0.3443 -0.1996
  571TIP3    H123348   5.343   3.242   8.416  0.9168 -0.5830  1.2042
  571TIP3    H223349   5.326   3.390   8.443 -0.9051 -0.1596 -1.8719
  572TIP3   OH223350   2.843   5.276   8.484 -0.4809  0.1869 -0.1181
  572TIP3    H123351   2.803   5.247   8.566  1.6994 -1.2121  0.5265
  572TIP3    H223352   2.849   5.196   8.431  0.5771  0.5383 -0.5443
  573TIP3   OH223353   2.123   1.109   0.941 -0.6098 -0.5715 -0.2981
  573TIP3    H123354   2.085   1.157   0.868 -0.1424  0.5871  0.1997
  573TIP3    H223355   2.123   1.171   1.014  1.3234 -0.8119 -0.0250
  574TIP3   OH223356   4.802   6.336   8.377  0.1338  0.1543  0.0878
  574TIP3    H123357   4.710   6.316   8.362  0.2098 -2.0189  2.0397
  574TIP3    H223358   4.844   6.251   8.392  1.7650  1.2972  2.6787
  575TIP3   OH223359   1.154   3.306   0.366 -0.3960  0.4121 -0.1216
  575TIP3    H123360   1.157   3.392   0.323  0.0453  0.4156 -0.0915
  575TIP3    H223361   1.115   3.324   0.451 -1.8254  0.3070 -0.7273
  576TIP3   OH223362   1.897   2.907   2.944  0.0955 -0.2585  0.3210
  576TIP3    H123363   1.810   2.895   2.906 -1.9566  2.2289  3.6271
  576TIP3    H223364   1.936   2.978   2.894 -1.7183  1.5991  1.3771
  577TIP3   OH223365   5.775   3.390   1.570 -0.0925 -0.1318 -0.4561
  577TIP3    H123366   5.754   3.367   1.480  1.9363 -0.0250 -1.0015
  577TIP3    H223367   5.870   3.403   1.571 -0.1277  0.4503  1.5686
  578TIP3   OH223368   5.322   0.303   1.911  0.4735 -0.1286  0.0414
  578TIP3    H123369   5.303   0.357   1.987 -2.2312  2.5103 -2.2625
  578TIP3    H223370   5.242   0.252   1.896  1.0494 -0.8085 -0.8780
  579TIP3   OH223371   3.438   1.561   2.606 -0.0183  0.2816  0.1269
  579TIP3    H123372   3.506   1.494   2.612 -0.2906  0.0039  0.1516
  579TIP3    H223373   3.471   1.634   2.659  1.3714  1.1364 -1.7933
  580TIP3   OH223374   1.331   1.149   1.786  0.1435  0.2309 -0.0526
  580TIP3    H123375   1.244   1.153   1.747  0.4732  0.8677 -0.7633
  580TIP3    H223376   1.344   1.236   1.824 -0.0912 -0.3175  1.3347
  581TIP3   OH223377   4.003   3.050   7.985  0.0559 -0.3153 -0.2656
  581TIP3    H123378   4.095   3.025   7.999 -0.6693 -3.5455 -0.6146
  581TIP3    H223379   3.957   3.016   8.062 -1.1243 -0.6257 -1.0798
  582TIP3   OH223380   6.121   4.459   3.014 -0.3299 -0.0987  0.1516
  582TIP3    H123381   6.082   4.377   2.982 -0.4331  0.0879 -0.2057
  582TIP3    H223382   6.195   4.474   2.955 -0.5172  0.2459  0.0012
  583TIP3   OH223383   2.860   6.476   3.439  0.7967  0.0756 -0.7666
  583TIP3    H123384   2.935   6.417   3.436 -0.2511 -1.3892  0.1789
  583TIP3    H223385   2.792   6.426   3.486 -0.8759  1.2177 -1.8405
  584TIP3   OH223386   6.477   6.052   2.565  0.5979  0.1485  0.3222
  584TIP3    H123387   6.464   6.091   2.479  0.7813  0.8293  0.5970
  584TIP3    H223388   6.571   6.032   2.568  1.0818  2.2874  1.2317
  585TIP3   OH223389   3.690   0.722   0.681  0.4229  0.2074  0.1891
  585TIP3    H123390   3.632   0.655   0.716  0.3515  0.8395  1.3235
  585TIP3    H223391   3.639   0.764   0.611  0.1957 -0.4274 -0.0285
  586TIP3   OH223392   4.924   3.476   7.726  0.3811  0.5136  0.0235
  586TIP3    H123393   4.915   3.402   7.665 -0.2054  1.2756 -0.8481
  586TIP3    H223394   5.005   3.519   7.699  1.3936 -0.4927  1.3284
  587TIP3   OH223395   0.852   4.737   2.080  0.4812  0.0725 -0.0115
  587TIP3    H123396   0.842   4.675   2.007 -0.0433  0.8466 -0.6223
  587TIP3    H223397   0.852   4.683   2.158 -2.1510 -0.5909 -0.3690
  588TIP3   OH223398   1.786   4.901   3.533 -0.1301  0.0384 -0.4677
  588TIP3    H123399   1.814   4.975   3.480  0.7554 -1.0069 -1.5144
  588TIP3    H223400   1.707   4.868   3.489  1.4175 -1.7377 -2.1319
  589TIP3   OH223401   5.108   1.263   3.475  0.3396  0.2603 -0.6282
  589TIP3    H123402   5.085   1.173   3.449 -0.5542  0.1960  0.3596
  589TIP3    H223403   5.035   1.292   3.529  1.3776  0.9975  0.4197
  590TIP3   OH223404   0.130   1.583   2.124  0.1298 -0.1235  0.2390
  590TIP3    H123405   0.205   1.568   2.181  0.4649  0.0649 -0.1467
  590TIP3    H223406   0.119   1.678   2.122  1.0713 -0.0169 -1.1982
  591TIP3   OH223407   2.278   5.247   1.803 -0.5625 -0.1219  0.2156
  591TIP3    H123408   2.364   5.288   1.813 -0.1397 -1.2328  1.3665
  591TIP3    H223409   2.255   5.261   1.711  0.9657 -0.0412 -0.1736
  592TIP3   OH223410   6.768   2.423   3.182 -0.2657 -0.6399 -0.1157
  592TIP3    H123411   6.683   2.408   3.225  0.0886  0.3973  0.9938
  592TIP3    H223412   6.778   2.518   3.181  1.4284 -0.7678  0.8934
  593TIP3   OH223413   5.950   2.574   7.987  0.0155 -0.3536  0.2314
  593TIP3    H123414   5.889   2.519   7.938  1.5985 -3.7713  1.7335
  593TIP3    H223415   5.913   2.578   8.075  0.5474 -0.0389  0.4446
  594TIP3   OH223416   3.569   4.980   8.436  0.1248 -0.1514  0.3037
  594TIP3    H123417   3.620   5.008   8.360 -0.6838 -0.2438 -0.2864
  594TIP3    H223418   3.554   4.886   8.421 -1.9998  0.2736 -0.6358
  595TIP3   OH223419   4.959   0.580   0.330  0.0687 -0.1283  0.4533
  595TIP3    H123420   4.885   0.589   0.270  0.3056 -3.1677 -0.4853
  595TIP3    H223421   4.941   0.499   0.378  2.9971 -1.3296 -0.2561
  596TIP3   OH223422   3.226   3.009   1.133  0.8413  0.5563 -0.2414
  596TIP3    H123423   3.139   3.026   1.099  1.0693 -0.0256 -1.1664
  596TIP3    H223424   3.255   3.092   1.170 -0.3964  0.5508  0.7604
  597TIP3   OH223425   2.909   1.266   2.640  0.6951 -0.6022 -0.0263
  597TIP3    H123426   2.841   1.201   2.624  0.5521 -0.7927  1.2317
  597TIP3    H223427   2.947   1.240   2.724  1.1903  0.4586  0.0930
  598TIP3   OH223428   3.502   6.881   7.759 -0.2947  0.0896 -0.1377
  598TIP3    H123429   3.417   6.863   7.798 -0.7504 -0.4075 -1.3117
  598TIP3    H223430   3.484   6.897   7.667  0.8560  0.2566 -0.3556
  599TIP3   OH223431   6.063   5.124   2.575  0.5564 -0.1013 -0.1926
  599TIP3    H123432   6.101   5.093   2.492 -0.0368 -0.9587 -0.1540
  599TIP3    H223433   6.004   5.054   2.602 -2.3437  1.8241 -1.0649
  600TIP3   OH223434   6.414   3.715   2.922 -0.3515  0.1945 -0.3290
  600TIP3    H123435   6.358   3.697   2.846 -2.5680 -0.3941  1.3484
  600TIP3    H223436   6.371   3.788   2.967 -0.1488 -0.6855  1.3544
  601TIP3   OH223437   3.430   0.535   2.030  0.4469  0.4602 -0.8265
  601TIP3    H123438   3.346   0.494   2.053 -0.1674  1.7740 -0.6692
  601TIP3    H223439   3.417   0.628   2.046  2.0184  0.6676 -0.5944
  602TIP3   OH223440   4.898   2.623   0.807  0.4417  0.1771 -0.4105
  602TIP3    H123441   4.990   2.611   0.783  0.9680  1.3626  0.8804
  602TIP3    H223442   4.869   2.536   0.835  1.2225 -0.1772 -0.6760
  603TIP3   OH223443   3.685   0.724   1.771  0.3019  0.3044  0.5465
  603TIP3    H123444   3.659   0.633   1.754 -1.4722  0.9430 -0.3819
  603TIP3    H223445   3.689   0.764   1.684  3.1373  0.6403  0.7621
  604TIP3   OH223446   2.011   5.708   1.675 -0.5354 -0.0718  0.7646
  604TIP3    H123447   1.976   5.683   1.761  1.3707  2.1956  2.3000
  604TIP3    H223448   2.106   5.710   1.687 -0.2407  0.6577 -1.3109
  605TIP3   OH223449   3.451   1.898   1.346  0.3775 -0.1430  0.6547
  605TIP3    H123450   3.398   1.838   1.399  2.2032 -1.7438  0.7903
  605TIP3    H223451   3.453   1.859   1.259  1.1612 -0.0237  0.6071
  606TIP3   OH223452   3.044   5.269   0.344  0.1255  0.2986 -0.1049
  606TIP3    H123453   3.013   5.295   0.430  0.6118  0.9751 -0.1232
  606TIP3    H223454   3.085   5.348   0.308 -0.4585  0.1611 -1.1355
  607TIP3   OH223455   4.361   3.515   1.913  0.6025  0.0923  0.0161
  607TIP3    H123456   4.296   3.519   1.983  0.4568  0.2364 -0.1276
  607TIP3    H223457   4.319   3.558   1.839  0.3849 -0.9017 -0.4552
  608TIP3   OH223458   2.311   4.800   1.899 -0.4848  0.2238 -0.6316
  608TIP3    H123459   2.245   4.861   1.866 -0.7109  0.0637 -0.4819
  608TIP3    H223460   2.266   4.716   1.903 -0.5364  0.2777  0.2804
  609TIP3   OH223461   0.321   0.571   0.732 -0.6028 -0.3919 -0.1048
  609TIP3    H123462   0.318   0.656   0.689  0.2038 -0.4345 -0.2661
  609TIP3    H223463   0.389   0.580   0.799  0.5238 -1.3188 -1.0758
  610TIP3   OH223464   2.986   1.730   3.702 -0.0341 -0.0893  0.5272
  610TIP3    H123465   3.052   1.673   3.661 -0.6646 -0.1846 -0.3786
  610TIP3    H223466   3.033   1.772   3.774  0.4017 -1.9305  1.3893
  611TIP3   OH223467   5.518   2.576   0.361  0.1563  0.6007 -0.2638
  611TIP3    H123468   5.506   2.491   0.402  0.4084  0.8307  0.3031
  611TIP3    H223469   5.592   2.615   0.408  1.4286  0.2669 -1.9282
  612TIP3   OH223470   3.758   4.758   7.824  0.5721 -0.2243  0.1247
  612TIP3    H123471   3.728   4.736   7.736 -0.2861 -0.8794  0.5731
  612TIP3    H223472   3.679   4.785   7.871  0.8352 -0.9223  1.0049
  613TIP3   OH223473   5.806   3.108   0.389 -0.4507 -0.1269  0.2963
  613TIP3    H123474   5.890   3.068   0.366 -0.1613 -0.7301  2.1760
  613TIP3    H223475   5.741   3.041   0.368  0.0669 -2.0006  3.8421
  614TIP3   OH223476   0.030   6.247   2.033  0.0066 -0.1523 -0.0095
  614TIP3    H123477   0.098   6.278   1.972  0.1757  1.9304  1.1471
  614TIP3    H223478   0.073   6.179   2.084  1.4222  1.3862  0.9605
  615TIP3   OH223479   6.545   2.180   1.371  0.0005  0.0354 -0.2036
  615TIP3    H123480   6.515   2.116   1.435  0.0133 -0.1457 -0.3753
  615TIP3    H223481   6.470   2.238   1.357 -0.0572 -0.0266 -0.1511
  616TIP3   OH223482   5.927   3.446   3.612  0.2079 -0.4593 -0.0175
  616TIP3    H123483   6.021   3.429   3.611  0.1480 -0.9831  1.5520
  616TIP3    H223484   5.919   3.538   3.587  1.0997 -0.5206 -0.5667
  617TIP3   OH223485   3.905   6.203   7.830  0.1988  0.6366  0.1296
  617TIP3    H123486   3.813   6.193   7.806  0.3611 -2.3867  0.3347
  617TIP3    H223487   3.953   6.192   7.748  0.4312  1.8669  0.0770
  618TIP3   OH223488   1.946   6.872   1.049 -0.0710  0.3925  0.0590
  618TIP3    H123489   1.874   6.934   1.053 -0.8936 -0.4599 -1.0306
  618TIP3    H223490   1.999   6.892   1.126 -0.4892  2.2127 -0.0865
  619TIP3   OH223491   0.705   2.337   2.955  0.1289 -0.2858  0.0781
  619TIP3    H123492   0.610   2.342   2.955  0.0252 -0.7148 -2.3773
  619TIP3    H223493   0.734   2.428   2.952 -0.2020 -0.1633  0.4689
  620TIP3   OH223494   6.222   1.701   0.911  0.1607  0.2580  0.3663
  620TIP3    H123495   6.156   1.741   0.967  0.0616 -0.8408  1.0592
  620TIP3    H223496   6.301   1.754   0.926 -0.0231  0.3360  1.0956
  621TIP3   OH223497   2.957   2.496   3.603  0.2474  0.1527  0.6032
  621TIP3    H123498   2.954   2.469   3.512  2.1605 -1.8383  1.0412
  621TIP3    H223499   3.006   2.579   3.601  1.2639 -0.4434 -0.1004
  622TIP3   OH223500   4.531   2.828   1.068 -0.5149 -0.1713 -0.4252
  622TIP3    H123501   4.569   2.742   1.088  0.7062  0.0998 -1.4682
  622TIP3    H223502   4.573   2.855   0.986  1.0142  2.4722  1.0628
  623TIP3   OH223503   4.286   1.496   7.395 -0.2695 -0.3645  1.0360
  623TIP3    H123504   4.251   1.429   7.337 -1.6202  1.4702 -0.4135
  623TIP3    H223505   4.369   1.522   7.354 -0.3830 -0.2558  0.8745
  624TIP3   OH223506   3.103   5.736   8.025 -0.5997 -0.2898  0.1437
  624TIP3    H123507   3.146   5.718   8.108 -0.6312 -0.6148  0.0909
  624TIP3    H223508   3.041   5.806   8.044 -0.3320 -0.0955  0.3077
  625TIP3   OH223509   6.849   4.218   3.477 -0.3063 -0.3363  0.0534
  625TIP3    H123510   6.779   4.205   3.541 -1.1013 -0.0401 -0.7341
  625TIP3    H223511   6.862   4.313   3.474 -0.8963 -0.2753 -0.8595
  626TIP3   OH223512   3.881   1.084   0.228  0.2715  0.3146  0.3939
  626TIP3    H123513   3.864   1.049   0.316  1.2036  2.5210  1.5265
  626TIP3    H223514   3.975   1.073   0.216  0.2363  0.5344 -0.1080
  627TIP3   OH223515   2.601   4.065   2.380 -0.1176 -0.3540 -0.3610
  627TIP3    H123516   2.681   4.049   2.429  0.4310  0.9978 -0.7674
  627TIP3    H223517   2.629   4.120   2.306 -1.4525  0.3119 -0.3883
  628TIP3   OH223518   3.997   6.300   1.454  0.5464 -0.8078 -0.3281
  628TIP3    H123519   3.999   6.353   1.374 -0.0180  0.8516  0.7173
  628TIP3    H223520   3.969   6.360   1.522 -0.2182 -2.4902  0.9150
  629TIP3   OH223521   1.594   4.466   1.848 -0.0298 -0.7069  0.2979
  629TIP3    H123522   1.556   4.427   1.769  0.3804 -1.4421  0.4526
  629TIP3    H223523   1.539   4.542   1.866 -0.4935 -0.8757 -0.3490
  630TIP3   OH223524   0.821   5.268   8.168  0.2325  0.1736 -0.1957
  630TIP3    H123525   0.809   5.173   8.173  1.3709  0.0810  1.6276
  630TIP3    H223526   0.747   5.298   8.116 -0.7823 -1.5953  0.1170
  631TIP3   OH223527   3.973   0.933   1.064 -0.6931  0.1897  0.2965
  631TIP3    H123528   4.067   0.937   1.049 -0.8214  2.7840 -0.2696
  631TIP3    H223529   3.935   0.936   0.976 -1.3153  0.9208  0.5879
  632TIP3   OH223530   0.872   0.367   1.283  0.0646 -0.1592  0.0718
  632TIP3    H123531   0.893   0.302   1.216 -1.5064 -0.2114 -0.4232
  632TIP3    H223532   0.805   0.422   1.242 -1.3396 -0.5238  1.7651
  633TIP3   OH223533   2.655   0.602   7.846  0.0267 -0.7582 -0.4128
  633TIP3    H123534   2.727   0.664   7.835 -1.3014  0.6941 -1.3468
  633TIP3    H223535   2.689   0.520   7.808  1.7710 -0.6446  0.7490
  634TIP3   OH223536   3.377   4.240   1.040  0.2448  0.3933  0.1109
  634TIP3    H123537   3.473   4.239   1.040  0.2672  0.6397 -1.2134
  634TIP3    H223538   3.353   4.229   0.948 -1.0127  0.0729  0.4538
  635TIP3   OH223539   1.914   6.140   1.682  0.5119 -0.7700  0.1103
  635TIP3    H123540   1.856   6.094   1.743 -0.1579  0.1785  0.2174
  635TIP3    H223541   1.996   6.091   1.685 -0.5994 -2.8500 -0.8812
  636TIP3   OH223542   5.648   3.912   8.638 -0.3079  0.6946  0.0062
  636TIP3    H123543   5.635   3.946   8.550 -1.8445  0.4745  0.1111
  636TIP3    H223544   5.731   3.949   8.667 -1.1081  3.0356 -0.4791
  637TIP3   OH223545   5.845   1.274   8.535  0.3093 -0.2161  0.1597
  637TIP3    H123546   5.792   1.210   8.583 -2.7110  3.2468  1.9629
  637TIP3    H223547   5.806   1.276   8.447 -2.2828  1.6349  1.1996
  638TIP3   OH223548   4.967   1.213   7.083 -0.1948 -0.3229 -0.3762
  638TIP3    H123549   5.003   1.274   7.018 -0.9837  1.3964  0.7394
  638TIP3    H223550   4.953   1.132   7.034  1.5186  0.1494 -1.7575
  639TIP3   OH223551   0.526   5.369   3.691  0.5767  0.7575  0.7957
  639TIP3    H123552   0.434   5.353   3.671  0.6972  0.5884  0.3832
  639TIP3    H223553   0.574   5.328   3.620  0.9036  2.8933 -0.3033
  640TIP3   OH223554   4.162   1.032   0.252  0.1628 -0.3014 -0.2993
  640TIP3    H123555   4.149   1.105   0.191  0.5948 -2.1170 -2.7451
  640TIP3    H223556   4.257   1.027   0.263  0.1791 -0.8472 -0.6511
  641TIP3   OH223557   0.506   1.733   0.549 -0.3610  0.2403  0.2576
  641TIP3    H123558   0.586   1.698   0.510 -1.6886 -0.2910 -2.1756
  641TIP3    H223559   0.510   1.827   0.531  0.3780  0.4582  1.4663
  642TIP3   OH223560   6.019   1.251   1.997  0.1737  0.6844 -0.3640
  642TIP3    H123561   6.071   1.173   1.980  0.3050  0.1794  1.9801
  642TIP3    H223562   5.972   1.232   2.078 -1.2433  2.3424 -0.7115
  643TIP3   OH223563   0.267   2.528   7.312 -0.0605 -0.9463  0.2368
  643TIP3    H123564   0.346   2.578   7.293 -0.8946  1.2521  2.0925
  643TIP3    H223565   0.221   2.522   7.229  1.1415 -0.6008 -0.4681
  644TIP3   OH223566   6.135   0.499   3.284 -0.4418  0.0287  0.0247
  644TIP3    H123567   6.197   0.567   3.258 -0.3689 -0.5353 -1.3175
  644TIP3    H223568   6.187   0.419   3.289 -1.0984 -0.5080 -1.4088
  645TIP3   OH223569   0.287   0.646   1.893  0.2376 -0.4767 -0.3728
  645TIP3    H123570   0.357   0.582   1.880  3.0202  1.8861  1.7089
  645TIP3    H223571   0.288   0.665   1.987 -3.2377 -0.2222 -0.2456
  646TIP3   OH223572   0.096   6.629   1.112  0.5810 -0.4201 -0.7045
  646TIP3    H123573   0.161   6.644   1.180 -0.1486 -0.0791 -0.0649
  646TIP3    H223574   0.145   6.631   1.030  1.0391  2.3375 -0.4633
  647TIP3   OH223575   2.270   6.516   3.144  0.1211 -0.1479  0.3118
  647TIP3    H123576   2.336   6.479   3.202 -0.4844 -1.7928  0.0269
  647TIP3    H223577   2.189   6.513   3.195 -0.3207 -1.1593 -0.4052
  648TIP3   OH223578   5.191   2.430   0.425  0.2529  0.1232 -0.7315
  648TIP3    H123579   5.271   2.392   0.462  0.4016  1.5774  0.4981
  648TIP3    H223580   5.220   2.509   0.379 -0.3561  0.1084 -1.1622
  649TIP3   OH223581   6.803   5.416   3.181  0.1835 -0.3762 -0.6361
  649TIP3    H123582   6.849   5.357   3.121 -0.9278 -1.5188 -0.4088
  649TIP3    H223583   6.844   5.402   3.266  1.5091  0.9702 -1.0085
  650TIP3   OH223584   0.549   4.106   0.774  0.1289  0.2194 -0.1373
  650TIP3    H123585   0.478   4.166   0.793 -0.9396 -0.7925 -0.7991
  650TIP3    H223586   0.527   4.069   0.689  1.0461 -0.6779 -0.0008
  651TIP3   OH223587   0.829   5.557   0.769 -0.0465  0.2050  0.0052
  651TIP3    H123588   0.816   5.582   0.861  2.0610 -0.1567  0.4514
  651TIP3    H223589   0.890   5.623   0.735 -0.2961 -0.0501 -0.9553
  652TIP3   OH223590   6.868   4.715   2.831 -0.5795 -0.0498 -0.5876
  652TIP3    H123591   6.823   4.737   2.750 -0.6359 -1.1479 -0.8608
  652TIP3    H223592   6.948   4.670   2.804 -0.6086 -0.4481 -0.0429
  653TIP3   OH223593   3.240   2.180   1.664 -0.9494  0.2941 -0.1763
  653TIP3    H123594   3.323   2.178   1.617 -1.8422  2.8433 -2.0621
  653TIP3    H223595   3.210   2.088   1.665  0.5221 -0.2582 -1.9922
  654TIP3   OH223596   5.192   4.262   0.887  0.2312 -0.1805 -0.3303
  654TIP3    H123597   5.205   4.275   0.793  1.0678 -0.5190 -0.2729
  654TIP3    H223598   5.199   4.167   0.899 -0.8784 -0.2472 -0.0568
  655TIP3   OH223599   1.755   5.935   2.164 -0.0560  0.0564  0.2845
  655TIP3    H123600   1.737   6.015   2.213  0.0346  1.4533 -1.8815
  655TIP3    H223601   1.687   5.930   2.098  1.7701  0.1495 -1.7186
  656TIP3   OH223602   6.370   1.200   8.372  0.3036  0.1240 -0.1297
  656TIP3    H123603   6.295   1.234   8.421  0.5390  0.7605 -0.2045
  656TIP3    H223604   6.403   1.129   8.427 -0.2092 -0.0074  0.0164
  657TIP3   OH223605   6.409   5.326   1.196  0.5488  0.9037 -0.8940
  657TIP3    H123606   6.382   5.332   1.288 -3.6170 -1.1898 -1.6977
  657TIP3    H223607   6.393   5.413   1.161  3.1184  2.0053  0.4537
  658TIP3   OH223608   2.106   2.589   3.204  0.4889  0.2048 -0.3288
  658TIP3    H123609   2.118   2.652   3.275  0.2079  1.3158 -1.2327
  658TIP3    H223610   2.147   2.630   3.128  0.1304 -0.6203 -0.9839
  659TIP3   OH223611   2.908   0.489   1.098  0.4775  0.3473 -0.2936
  659TIP3    H123612   2.902   0.529   1.011 -2.7192 -2.4881 -1.6086
  659TIP3    H223613   2.857   0.547   1.154 -3.1883 -0.9905 -1.9268
  660TIP3   OH223614   4.739   5.145   0.929 -0.0892  0.2089 -0.5634
  660TIP3    H123615   4.768   5.234   0.944  1.3394 -0.3096 -0.0694
  660TIP3    H223616   4.706   5.144   0.839  1.8454  0.7611 -1.3138
  661TIP3   OH223617   6.136   1.035   1.698  0.5798  0.2672 -0.1231
  661TIP3    H123618   6.102   1.085   1.623 -0.8040  1.0335  0.9838
  661TIP3    H223619   6.184   1.100   1.750  0.4724  0.0004  0.3081
  662TIP3   OH223620   3.306   0.462   7.932 -0.5632  0.0464 -0.4220
  662TIP3    H123621   3.317   0.523   7.859  0.5243 -0.9442 -1.1230
  662TIP3    H223622   3.297   0.376   7.891  1.5939 -0.7495  0.6007
  663TIP3   OH223623   5.081   0.648   0.840  0.0658 -0.1213 -0.1425
  663TIP3    H123624   5.091   0.738   0.871 -0.0764  0.1189 -0.7735
  663TIP3    H223625   4.988   0.641   0.818  0.5311  0.4467 -2.6267
  664TIP3   OH223626   0.005   6.850   7.221 -0.6698  0.0640 -0.1528
  664TIP3    H123627  -0.048   6.799   7.282 -1.5251  0.1161 -0.8351
  664TIP3    H223628  -0.056   6.880   7.154  0.4604 -1.3028 -1.9146
  665TIP3   OH223629   1.654   2.768   0.482  0.3677 -0.1672  0.2308
  665TIP3    H123630   1.705   2.848   0.473 -1.0110  0.7277  0.2060
  665TIP3    H223631   1.665   2.723   0.398 -0.3196  0.8876 -0.4492
  666TIP3   OH223632   1.817   5.858   8.234  0.4412 -0.3857 -0.1231
  666TIP3    H123633   1.866   5.805   8.297  1.3798  0.9882  0.3405
  666TIP3    H223634   1.729   5.865   8.272  0.5533 -0.8879  0.2390
  667TIP3   OH223635   4.721   5.753   1.442  0.3577 -0.3373 -0.2329
  667TIP3    H123636   4.675   5.836   1.428 -0.9162 -0.9355  0.2301
  667TIP3    H223637   4.656   5.686   1.422  0.8854 -1.2219  0.9218
  668TIP3   OH223638   2.678   6.537   0.362  0.7841  0.1917 -0.0551
  668TIP3    H123639   2.600   6.521   0.414  2.1674 -3.5028  1.2172
  668TIP3    H223640   2.710   6.623   0.392 -0.6794  0.0217  2.2393
  669TIP3   OH223641   4.275   3.327   0.214  0.1408 -1.1943  0.2049
  669TIP3    H123642   4.280   3.326   0.310 -1.6562  0.2106  0.3738
  669TIP3    H223643   4.279   3.235   0.189 -3.0836 -1.9576  1.9342
  670TIP3   OH223644   2.847   2.574   8.034  0.0220  0.2940 -0.2635
  670TIP3    H123645   2.811   2.526   7.959 -0.2068  0.8420 -0.5068
  670TIP3    H223646   2.936   2.540   8.042  0.0105  0.1415 -0.7120
  671TIP3   OH223647   4.828   6.651   1.998  0.0960 -0.2757  0.2509
  671TIP3    H123648   4.777   6.587   1.948  0.2544  1.0082 -1.6514
  671TIP3    H223649   4.788   6.651   2.084 -2.0087 -0.5927 -0.6636
  672TIP3   OH223650   3.478   0.275   0.332  0.1879  0.2999  0.6382
  672TIP3    H123651   3.526   0.278   0.415 -0.3931 -0.0612  0.9999
  672TIP3    H223652   3.441   0.187   0.330  0.9647 -0.0115 -0.4561
  673TIP3   OH223653   0.565   4.066   2.936 -0.1213 -0.4919  0.0586
  673TIP3    H123654   0.618   4.101   2.864  0.4245 -0.7523  0.3289
  673TIP3    H223655   0.617   4.084   3.015 -0.0136 -1.5668  0.2413
  674TIP3   OH223656   2.659   2.143   2.370 -0.0548 -0.4578 -0.4730
  674TIP3    H123657   2.697   2.189   2.445 -1.8352  0.8130 -0.2721
  674TIP3    H223658   2.708   2.176   2.295 -0.4025  0.8184 -0.1826
  675TIP3   OH223659   2.797   6.103   8.392 -0.9064  0.2764  0.3318
  675TIP3    H123660   2.886   6.069   8.404 -1.3717 -0.7176  1.2130
  675TIP3    H223661   2.798   6.189   8.434  0.2651  1.3943 -1.8122
  676TIP3   OH223662   0.981   4.650   1.066  0.0613  0.5325 -0.2559
  676TIP3    H123663   0.974   4.702   1.146 -1.8506  0.2738 -0.2062
  676TIP3    H223664   1.034   4.575   1.091  0.4224  1.0182  0.4675
  677TIP3   OH223665   1.508   4.191   2.000 -0.0463  0.2024  0.1451
  677TIP3    H123666   1.460   4.245   1.938 -1.2326 -0.6780  0.2585
  677TIP3    H223667   1.524   4.249   2.075 -1.2401  0.4374  0.2389
  678TIP3   OH223668   3.134   4.307   8.265  0.4161 -0.1765 -0.9257
  678TIP3    H123669   3.109   4.266   8.348  1.2258  1.3614  0.1168
  678TIP3    H223670   3.224   4.277   8.249  0.6460  0.3827 -0.6863
  679TIP3   OH223671   2.922   6.162   1.512 -0.1665  0.2971  0.0419
  679TIP3    H123672   2.851   6.224   1.525 -1.2135 -0.9206  0.3495
  679TIP3    H223673   2.987   6.210   1.461 -1.5969  1.1715 -1.0206
  680TIP3   OH223674   0.036   2.564   0.922  0.2437  0.0275  0.1166
  680TIP3    H123675   0.035   2.477   0.882  0.9244  1.2509 -2.7765
  680TIP3    H223676   0.124   2.597   0.906 -0.1736  1.4751  0.6730
  681TIP3   OH223677   3.620   0.355   1.972 -0.3570  0.3564  0.2675
  681TIP3    H123678   3.654   0.336   1.885 -1.0015 -1.3565  0.3342
  681TIP3    H223679   3.561   0.429   1.960  0.1858  0.6584 -0.6006
  682TIP3   OH223680   1.309   2.395   7.698 -0.0682  0.2535  0.3665
  682TIP3    H123681   1.307   2.446   7.617  1.2738  0.6458  0.5548
  682TIP3    H223682   1.380   2.434   7.750  0.1118 -0.9517  1.0807
  683TIP3   OH223683   3.668   6.645   0.778 -0.4405 -0.4560  0.3627
  683TIP3    H123684   3.709   6.731   0.779  1.7686 -1.3939 -0.9988
  683TIP3    H223685   3.645   6.628   0.870 -1.8994  1.9560  0.5119
  684TIP3   OH223686   4.351   5.700   2.641  0.0835  0.7777  0.0625
  684TIP3    H123687   4.342   5.627   2.579  2.2274  0.5531 -0.0660
  684TIP3    H223688   4.407   5.666   2.710 -0.2192  1.8255  0.8569
  685TIP3   OH223689   6.661   1.384   8.457 -0.2305  0.2636  0.9038
  685TIP3    H123690   6.714   1.453   8.497 -1.4952  0.8493  1.6003
  685TIP3    H223691   6.572   1.418   8.456 -0.1543  1.0070 -3.9534
  686TIP3   OH223692   6.831   6.698   8.273  0.0169  0.2545 -0.1562
  686TIP3    H123693   6.908   6.675   8.220  0.3746  1.4127 -0.1643
  686TIP3    H223694   6.787   6.615   8.288 -0.1658 -0.1118 -2.3571
  687TIP3   OH223695   0.001   5.982   2.270  0.6854 -0.7026 -0.2366
  687TIP3    H123696  -0.077   5.933   2.244  0.8350  0.2621 -2.7090
  687TIP3    H223697  -0.033   6.064   2.306  0.5366 -1.1741  0.7370
  688TIP3   OH223698   0.442   3.694   3.315  0.0352  0.3889  0.0320
  688TIP3    H123699   0.486   3.618   3.354  0.1575  0.4014 -0.0799
  688TIP3    H223700   0.513   3.753   3.290  0.0467 -0.2007 -1.4386
  689TIP3   OH223701   5.394   6.869   1.107  0.1585  0.0413  0.0297
  689TIP3    H123702   5.488   6.856   1.119  0.9442  1.3868 -3.3361
  689TIP3    H223703   5.372   6.811   1.034 -1.6591 -0.2214  0.7388
  690TIP3   OH223704   2.515   6.376   8.399  0.1897 -0.7176  0.7203
  690TIP3    H123705   2.458   6.380   8.476 -1.0716 -1.8056 -0.1180
  690TIP3    H223706   2.466   6.424   8.332  1.4776  0.6052  0.6822
  691TIP3   OH223707   0.682   0.423   2.500 -0.0783  0.6260  0.1510
  691TIP3    H123708   0.767   0.425   2.543  0.6891  0.7235 -1.3411
  691TIP3    H223709   0.652   0.332   2.511  0.7041  0.3136 -0.2529
  692TIP3   OH223710   4.402   2.621   8.549  0.2343 -0.2843 -0.0079
  692TIP3    H123711   4.361   2.619   8.462  0.1648 -0.0931  0.0215
  692TIP3    H223712   4.377   2.538   8.589 -1.2059  0.3788  0.5111
  693TIP3   OH223713   3.513   4.251   1.535 -0.3427  0.0785  0.4395
  693TIP3    H123714   3.553   4.272   1.619  1.1759 -0.2582 -0.1770
  693TIP3    H223715   3.514   4.156   1.530 -0.1335  0.1045 -0.0915
  694TIP3   OH223716   1.584   5.167   0.588  0.3099  0.2843 -0.1109
  694TIP3    H123717   1.644   5.235   0.621 -0.0537  0.9719 -0.8278
  694TIP3    H223718   1.514   5.216   0.545  0.9250 -0.5727 -2.1788
  695TIP3   OH223719   2.384   0.779   1.184 -0.1301 -0.5482 -0.1580
  695TIP3    H123720   2.331   0.810   1.111 -0.9066 -0.0173  0.6132
  695TIP3    H223721   2.357   0.688   1.196 -0.4618 -0.4507 -0.1386
  696TIP3   OH223722   2.772   5.447   0.259 -0.0468  0.2597 -0.4351
  696TIP3    H123723   2.726   5.395   0.325  0.3842 -0.7344 -0.9004
  696TIP3    H223724   2.810   5.520   0.308  0.6281 -0.6918  0.4999
  697TIP3   OH223725   6.658   2.480   0.614 -0.2565 -0.0352 -0.1214
  697TIP3    H123726   6.565   2.462   0.628 -0.3581  0.5795  0.0244
  697TIP3    H223727   6.673   2.564   0.657  0.2843  0.0452 -0.4547
  698TIP3   OH223728   1.508   3.309   0.711  0.1662  0.2168 -0.5130
  698TIP3    H123729   1.491   3.217   0.693 -1.1681  0.2843  0.2441
  698TIP3    H223730   1.595   3.310   0.751 -0.4334 -0.9269  0.9282
  699TIP3   OH223731   3.864   2.856   0.759 -0.0341  0.2596 -0.2356
  699TIP3    H123732   3.906   2.791   0.703 -1.2891 -1.6151  0.8678
  699TIP3    H223733   3.883   2.827   0.848 -0.7691  1.3055  0.2884
  700TIP3   OH223734   6.525   1.013   7.654  0.7849  0.2232 -0.6720
  700TIP3    H123735   6.582   0.993   7.580  3.4934  3.3582  0.2859
  700TIP3    H223736   6.584   1.014   7.730 -0.7343  2.3730  0.6156
  701TIP3   OH223737   5.421   1.340   2.540 -0.3243 -0.0062  0.3213
  701TIP3    H123738   5.338   1.324   2.584 -0.2695 -0.3350  0.3087
  701TIP3    H223739   5.481   1.366   2.609 -0.7089  1.2942  0.1888
  702TIP3   OH223740   2.094   6.038   2.891 -0.0682 -0.8169  0.6044
  702TIP3    H123741   2.141   6.001   2.816 -1.8122 -2.2440  0.1551
  702TIP3    H223742   2.074   5.963   2.946 -1.3119 -0.1907  1.0484
  703TIP3   OH223743   5.427   2.020   1.913  0.4633 -0.2389  0.0570
  703TIP3    H123744   5.464   2.064   1.989 -0.8898  0.6566  0.2268
  703TIP3    H223745   5.468   1.933   1.913  0.9534 -0.0267  1.4299
  704TIP3   OH223746   2.010   3.216   2.156  0.0192  0.6602 -0.0617
  704TIP3    H123747   2.093   3.216   2.110  0.1747  0.6864  0.2170
  704TIP3    H223748   1.995   3.124   2.180 -0.9180  0.3462 -1.6857
  705TIP3   OH223749   3.713   3.904   2.581  0.1147  0.0580  0.2802
  705TIP3    H123750   3.725   3.926   2.674  0.8582  2.0253 -0.2243
  705TIP3    H223751   3.801   3.906   2.545 -0.2781  0.4543 -0.6879
  706TIP3   OH223752   0.730   2.703   2.678 -0.2381 -0.4161 -0.3760
  706TIP3    H123753   0.739   2.675   2.587  0.4065  1.0349 -0.7808
  706TIP3    H223754   0.788   2.646   2.728 -0.7682 -1.3694 -0.8209
  707TIP3   OH223755   4.295   6.591   1.030  0.5250  0.3265 -0.1203
  707TIP3    H123756   4.319   6.681   1.011 -0.0881  0.9163  1.6332
  707TIP3    H223757   4.225   6.571   0.968  1.0936  0.8131 -0.9419
  708TIP3   OH223758   0.258   6.325   2.351  0.7845 -0.1864  0.6396
  708TIP3    H123759   0.285   6.266   2.421  0.0282  1.0171  1.9923
  708TIP3    H223760   0.181   6.370   2.386  0.0354  0.0287 -1.1944
  709TIP3   OH223761   5.564   5.646   2.092  0.1306  0.5105 -0.3930
  709TIP3    H123762   5.639   5.694   2.129 -0.2864  0.4237  0.6119
  709TIP3    H223763   5.488   5.697   2.121 -0.1767  1.6231 -2.9023
  710TIP3   OH223764   1.052   0.896   0.744 -0.1220  0.4672  0.0236
  710TIP3    H123765   1.060   0.944   0.662 -0.6481  1.3187  0.4547
  710TIP3    H223766   0.968   0.926   0.781  0.6830  1.0334  1.4577
  711TIP3   OH223767   0.753   6.864   8.485  0.6412  0.5980 -0.0856
  711TIP3    H123768   0.662   6.858   8.514  0.3210 -2.4579 -1.3061
  711TIP3    H223769   0.789   6.940   8.531 -1.7493  0.2609  2.5875
  712TIP3   OH223770   5.895   5.707   8.255 -0.0571  0.2439  0.1333
  712TIP3    H123771   5.871   5.666   8.338  0.4583  0.5743  0.4511
  712TIP3    H223772   5.830   5.675   8.193 -0.1936 -0.3462  0.5705
  713TIP3   OH223773   0.178   2.728   1.343 -0.0227  0.0459  0.4549
  713TIP3    H123774   0.179   2.776   1.260 -0.1940  0.5500  0.7389
  713TIP3    H223775   0.270   2.725   1.370 -0.0509  0.5735  0.6327
  714TIP3   OH223776   2.270   4.294   0.835  0.4427 -0.5260  0.0951
  714TIP3    H123777   2.242   4.313   0.745 -1.0091  1.9040  0.9468
  714TIP3    H223778   2.195   4.248   0.874 -0.1679  0.9666  0.7898
  715TIP3   OH223779   4.376   2.401   0.335 -0.1278 -0.0086  0.0409
  715TIP3    H123780   4.292   2.380   0.294 -0.1419 -2.5259  1.1624
  715TIP3    H223781   4.440   2.387   0.265 -0.3524 -1.8871  0.1560
  716TIP3   OH223782   1.025   0.795   7.928 -0.2459  0.1093 -0.2820
  716TIP3    H123783   1.120   0.799   7.928 -0.2359  0.2637  0.9087
  716TIP3    H223784   0.998   0.840   7.848  0.6377  1.2302  0.0368
  717TIP3   OH223785   5.460   5.619   1.825  0.3317 -0.2705 -0.3662
  717TIP3    H123786   5.489   5.597   1.914 -0.2498 -1.7155 -0.5161
  717TIP3    H223787   5.408   5.699   1.836 -0.8295 -1.1430  0.8035
  718TIP3   OH223788   6.510   4.383   0.140 -0.3205  0.0323 -0.3603
  718TIP3    H123789   6.567   4.305   0.137  2.0533  1.6838 -1.1376
  718TIP3    H223790   6.480   4.394   0.050 -2.5556 -1.1913  0.1533
  719TIP3   OH223791   0.976   4.180   8.344 -0.3394  0.3047 -0.2181
  719TIP3    H123792   1.048   4.126   8.312 -0.8103 -1.2936  1.2595
  719TIP3    H223793   0.900   4.152   8.294 -0.8328 -1.3598  1.3472
  720TIP3   OH223794   6.167   1.339   8.508  0.1149  0.6094 -0.4538
  720TIP3    H123795   6.082   1.349   8.549  0.7275  0.7210  0.8296
  720TIP3    H223796   6.197   1.428   8.492  1.0195  0.6786  1.3485
  721TIP3   OH223797   6.722   6.181   2.364 -0.0097  0.1530 -0.4698
  721TIP3    H123798   6.720   6.224   2.449 -1.2766  1.0007 -0.8864
  721TIP3    H223799   6.678   6.243   2.305  0.1522 -0.7431 -1.5763
  722TIP3   OH223800   4.215   5.829   0.469  0.8888 -0.2012  0.0228
  722TIP3    H123801   4.126   5.852   0.445  0.4583 -1.0727  0.7445
  722TIP3    H223802   4.267   5.907   0.447  0.0113  0.1964 -0.6764
  723TIP3   OH223803   2.879   0.734   7.476  0.6271 -0.6044  0.2976
  723TIP3    H123804   2.919   0.763   7.395  1.8455  1.0832  1.4508
  723TIP3    H223805   2.802   0.789   7.487  0.2216 -1.1195  0.0963
  724TIP3   OH223806   5.137   3.390   2.692  0.1299  0.2521  0.2798
  724TIP3    H123807   5.076   3.449   2.737  0.5443  1.6619 -0.9288
  724TIP3    H223808   5.140   3.312   2.747 -0.5141  1.3185  1.9070
  725TIP3   OH223809   1.791   5.646   1.337  0.0822  0.2882  0.3037
  725TIP3    H123810   1.831   5.720   1.383  1.6675  0.5035 -1.3208
  725TIP3    H223811   1.778   5.678   1.248 -0.3056 -1.0180 -0.1237
  726TIP3   OH223812   6.559   2.424   2.542  0.0894 -0.1024  0.6385
  726TIP3    H123813   6.651   2.407   2.521  1.1983  3.9610  1.3622
  726TIP3    H223814   6.512   2.406   2.461  1.9688  0.4827 -0.6535
  727TIP3   OH223815   5.558   0.792   7.819  0.0391 -0.3059 -0.0480
  727TIP3    H123816   5.597   0.874   7.848  0.2980  0.0734 -1.4160
  727TIP3    H223817   5.560   0.796   7.724 -0.6615 -1.5658 -0.1436
  728TIP3   OH223818   6.480   0.013   2.887  0.0690 -0.0857  0.0783
  728TIP3    H123819   6.422  -0.060   2.865  0.0291 -0.0780  0.1577
  728TIP3    H223820   6.454   0.083   2.828  0.7438 -0.4411 -0.6678
  729TIP3   OH223821   2.807   5.339   1.914  0.4174 -0.1219 -0.5911
  729TIP3    H123822   2.824   5.355   2.007  1.3030 -1.3053 -0.5324
  729TIP3    H223823   2.801   5.427   1.876 -0.2159  0.3815  0.6088
  730TIP3   OH223824   6.298   1.181   8.099 -0.6464 -0.5764 -0.6868
  730TIP3    H123825   6.336   1.176   8.186 -1.0937 -1.1617 -0.5202
  730TIP3    H223826   6.234   1.110   8.096 -2.9898  1.3681 -0.3550
  731TIP3   OH223827   1.593   1.046   2.854 -0.0794 -0.0127  0.1576
  731TIP3    H123828   1.647   1.113   2.813 -0.9045  1.4019  1.2983
  731TIP3    H223829   1.507   1.057   2.813 -0.1842 -0.4674  0.2533
  732TIP3   OH223830   5.706   4.773   0.817  0.3477  0.2016  0.2414
  732TIP3    H123831   5.801   4.776   0.827  0.2555 -0.5542  1.5632
  732TIP3    H223832   5.674   4.848   0.867  0.3286  2.1406 -2.4352
  733TIP3   OH223833   0.582   5.960   0.344  0.6504 -0.1577  0.3406
  733TIP3    H123834   0.585   5.864   0.345 -1.5504 -0.3270  3.2383
  733TIP3    H223835   0.603   5.985   0.434 -0.0998  2.0018 -0.0326
  734TIP3   OH223836   1.150   0.916   3.446 -0.0385  0.0450 -0.2022
  734TIP3    H123837   1.061   0.885   3.465  0.1804  0.4839  1.8086
  734TIP3    H223838   1.137   0.996   3.395 -0.9711  1.5620  2.2391
  735TIP3   OH223839   4.150   1.880   1.564 -0.5688 -0.7332  0.7843
  735TIP3    H123840   4.099   1.806   1.531 -1.1102 -0.1559  0.2871
  735TIP3    H223841   4.219   1.892   1.499 -0.8267 -0.4464  0.5587
  736TIP3   OH223842   4.000   5.937   7.884  0.2537 -0.8893 -0.8843
  736TIP3    H123843   3.976   5.954   7.792  0.5458  2.3477 -0.4896
  736TIP3    H223844   3.981   6.020   7.929  0.0665 -2.3885  2.0344
  737TIP3   OH223845   5.141   6.112   7.373 -0.0119  0.0700  0.1686
  737TIP3    H123846   5.116   6.149   7.289  0.7034 -0.3628 -0.2424
  737TIP3    H223847   5.237   6.112   7.372  0.0491  1.2776  1.5241
  738TIP3   OH223848   0.432   4.460   8.660  0.2119  0.5214 -0.0168
  738TIP3    H123849   0.387   4.481   8.742 -1.5532  0.9512 -1.0357
  738TIP3    H223850   0.492   4.389   8.683 -0.4501  0.4451  1.5831
  739TIP3   OH223851   2.744   5.165   2.713 -0.0803 -0.7285 -0.2298
  739TIP3    H123852   2.685   5.235   2.741  1.3224  0.0045  1.0337
  739TIP3    H223853   2.720   5.090   2.766  1.5437  0.2172  2.0298
  740TIP3   OH223854   4.057   4.375   0.242  0.2692  0.0502  0.1525
  740TIP3    H123855   4.128   4.432   0.272  0.3544  0.7781 -1.3449
  740TIP3    H223856   4.043   4.400   0.151 -0.5875 -1.4408 -0.1589
  741TIP3   OH223857   5.178   0.559   1.757 -0.6210 -0.3191  0.1769
  741TIP3    H123858   5.142   0.472   1.777  0.1621 -0.7314 -0.1679
  741TIP3    H223859   5.215   0.550   1.669 -0.7705  0.4463  0.0280
  742TIP3   OH223860   4.592   1.924   1.976  0.4911 -0.3544  0.6405
  742TIP3    H123861   4.543   1.962   1.903  0.5501 -2.5683 -0.6598
  742TIP3    H223862   4.677   1.967   1.974 -0.6728  2.1796  1.7310
  743TIP3   OH223863   3.167   0.021   1.720 -0.4201  0.1604  0.0864
  743TIP3    H123864   3.093   0.004   1.662 -1.2673  0.8353  0.9304
  743TIP3    H223865   3.184   0.115   1.709  0.2447  0.0292 -0.0170
  744TIP3   OH223866   3.232   6.192   2.420 -0.4278 -0.2687  0.2837
  744TIP3    H123867   3.147   6.192   2.376  0.4677 -1.0464 -1.5705
  744TIP3    H223868   3.270   6.277   2.398 -0.9746  0.3587  1.6837
  745TIP3   OH223869   1.934   0.706   1.997 -0.5639 -0.7074  0.0411
  745TIP3    H123870   1.851   0.751   2.010 -0.3189 -0.5864  1.3435
  745TIP3    H223871   1.912   0.627   1.948 -0.9739  0.8621 -2.4730
  746TIP3   OH223872   6.771   1.286   7.193  0.3573 -0.1412 -0.4972
  746TIP3    H123873   6.712   1.361   7.188 -0.1332 -0.4967 -0.1760
  746TIP3    H223874   6.721   1.220   7.241  0.5202 -0.9137 -1.3541
  747TIP3   OH223875   3.031   4.096   0.097  0.1612 -0.3110  0.1878
  747TIP3    H123876   3.097   4.027   0.107  0.5871  0.0822  0.1432
  747TIP3    H223877   3.054   4.160   0.164  0.8145  0.5981 -0.8652
  748TIP3   OH223878   0.552   6.481   8.310  0.4565  0.4563  0.6349
  748TIP3    H123879   0.554   6.504   8.403  1.9109 -0.6646  0.9259
  748TIP3    H223880   0.561   6.564   8.264 -1.0950  1.1162  1.4498
  749TIP3   OH223881   5.824   6.215   0.784  0.1438  0.4343 -0.3585
  749TIP3    H123882   5.769   6.139   0.804  1.8353 -0.5223  0.9755
  749TIP3    H223883   5.833   6.214   0.689 -1.6305  0.2903 -0.5608
  750TIP3   OH223884   4.707   2.727   2.112 -0.7540  0.0121 -0.0511
  750TIP3    H123885   4.648   2.653   2.100 -0.0372 -0.8040  1.1792
  750TIP3    H223886   4.791   2.696   2.078 -0.6616  0.6083 -0.3851
  751TIP3   OH223887   0.568   2.765   0.169  0.1604 -0.0707  0.2153
  751TIP3    H123888   0.543   2.804   0.085  0.1891  0.9613  0.6681
  751TIP3    H223889   0.517   2.813   0.234  1.1131  0.0657  0.8947
  752TIP3   OH223890   2.613   5.517   0.054 -0.0895 -0.7145 -0.5209
  752TIP3    H123891   2.535   5.490   0.103 -0.6635 -0.6352 -1.3677
  752TIP3    H223892   2.685   5.506   0.116 -0.8753  0.0343  0.5644
  753TIP3   OH223893   6.011   5.680   8.570 -0.0553 -0.1090  0.5592
  753TIP3    H123894   5.974   5.714   8.488 -0.3420  0.2772  0.8472
  753TIP3    H223895   6.102   5.658   8.547  0.8578  2.8285  0.8362
  754TIP3   OH223896   4.500   4.544   1.170  0.2963 -0.2031 -0.3621
  754TIP3    H123897   4.464   4.458   1.148 -1.0517  0.4689 -0.8539
  754TIP3    H223898   4.486   4.552   1.265 -2.6960  0.8230 -0.8093
  755TIP3   OH223899   0.007   4.895   7.495  0.0597  0.0051 -0.2662
  755TIP3    H123900   0.053   4.810   7.490  0.4592  0.2638 -1.5008
  755TIP3    H223901  -0.086   4.872   7.491  0.1580 -0.3988 -0.3035
  756TIP3   OH223902   2.172   6.364   7.905  0.6829 -0.6330  0.0211
  756TIP3    H123903   2.114   6.323   7.969  0.0044  2.7650  1.8085
  756TIP3    H223904   2.135   6.340   7.820  0.1817 -3.2771  0.8759
  757TIP3   OH223905   2.165   6.816   3.373 -0.1502 -0.4227 -0.1597
  757TIP3    H123906   2.145   6.909   3.386  0.2675 -0.2448 -0.7322
  757TIP3    H223907   2.106   6.770   3.432 -0.2394  0.2168  0.2587
  758TIP3   OH223908   2.728   3.404   7.339  0.2479 -0.0964 -0.5674
  758TIP3    H123909   2.780   3.483   7.353  0.0963 -0.0570 -0.2156
  758TIP3    H223910   2.793   3.336   7.319  0.7329 -0.6414  2.3583
  759TIP3   OH223911   4.424   6.690   1.952 -0.1010  0.1040 -0.3051
  759TIP3    H123912   4.368   6.674   1.876  0.1096  0.2659 -0.4964
  759TIP3    H223913   4.448   6.602   1.982  0.7878  0.0264 -1.1587
  760TIP3   OH223914   6.036   1.447   1.732 -0.1747  0.2220 -0.3108
  760TIP3    H123915   5.960   1.418   1.783 -0.2861  1.6002  0.3727
  760TIP3    H223916   6.111   1.428   1.788 -0.0891 -0.3953 -0.6361
  761TIP3   OH223917   4.263   6.854   2.763 -0.1489 -0.6974  0.3456
  761TIP3    H123918   4.225   6.878   2.847 -2.7076 -1.9814 -0.3511
  761TIP3    H223919   4.188   6.842   2.705  1.4721 -1.1220 -1.7968
  762TIP3   OH223920   1.644   3.420   2.149  0.5880  0.4493 -0.8371
  762TIP3    H123921   1.655   3.352   2.216  0.5743  0.3907 -0.8945
  762TIP3    H223922   1.700   3.392   2.077  1.2484  0.9359 -0.5255
  763TIP3   OH223923   5.483   6.377   0.760  0.5765  0.9318  0.4714
  763TIP3    H123924   5.393   6.348   0.776  1.0212 -0.6403  0.2720
  763TIP3    H223925   5.491   6.378   0.665  0.7836  1.0413  0.4904
  764TIP3   OH223926   0.172   3.577   0.641  0.0496 -0.3498  0.2822
  764TIP3    H123927   0.252   3.622   0.668  1.1747 -2.8535  1.4252
  764TIP3    H223928   0.196   3.531   0.561 -0.2811 -0.9698  0.5316
  765TIP3   OH223929   1.237   0.918   0.420 -0.0269 -0.1813 -0.0104
  765TIP3    H123930   1.244   0.863   0.342 -1.1470  0.9775 -0.9811
  765TIP3    H223931   1.143   0.932   0.431  0.1581  0.2624  1.1456
  766TIP3   OH223932   6.367   6.255   2.053 -0.5492  0.2218 -0.4186
  766TIP3    H123933   6.362   6.348   2.071  3.6263  0.5482 -0.0539
  766TIP3    H223934   6.358   6.248   1.958  1.7084  1.3989 -0.7840
  767TIP3   OH223935   4.563   5.859   2.918 -0.8627  0.1110 -0.1562
  767TIP3    H123936   4.516   5.804   2.980 -0.0795 -0.0575  0.3057
  767TIP3    H223937   4.655   5.841   2.935 -0.6132  0.9074 -0.6009
  768TIP3   OH223938   1.780   3.570   1.861 -0.2767 -0.0988 -0.0371
  768TIP3    H123939   1.836   3.503   1.901 -1.3598 -0.5690  0.7355
  768TIP3    H223940   1.803   3.567   1.768  1.4578  0.2074  0.3424
  769TIP3   OH223941   3.937   4.068   1.068  0.7165 -0.6691 -0.2719
  769TIP3    H123942   3.896   4.140   1.116  1.4267  0.1229 -0.8192
  769TIP3    H223943   3.963   4.005   1.136  0.6978 -0.0914  0.2767
  770TIP3   OH223944   2.489   3.577   8.265 -0.3068  0.1787 -0.0754
  770TIP3    H123945   2.461   3.498   8.311  0.6552  0.2573  0.6828
  770TIP3    H223946   2.439   3.577   8.184 -1.0703 -0.6658  0.3796
  771TIP3   OH223947   3.807   4.084   8.008 -0.0908 -0.0343  0.4874
  771TIP3    H123948   3.896   4.066   7.977 -0.0821 -0.6017  0.8331
  771TIP3    H223949   3.784   4.007   8.060 -1.2057 -0.4066 -0.5123
  772TIP3   OH223950   5.136   2.515   7.526  0.0356  0.0330  0.2422
  772TIP3    H123951   5.218   2.481   7.489 -0.3495 -0.4327 -0.2053
  772TIP3    H223952   5.068   2.463   7.484 -0.5340  0.8855  0.0836
  773TIP3   OH223953   3.763   6.490   0.261  0.7814 -0.5696 -0.1465
  773TIP3    H123954   3.720   6.416   0.303 -0.3109 -0.0784 -0.3625
  773TIP3    H223955   3.792   6.545   0.334  0.1174 -0.4017  0.0002
  774TIP3   OH223956   3.322   3.700   1.297 -0.5420  0.7052 -0.5875
  774TIP3    H123957   3.323   3.715   1.392 -0.0747  0.2688 -0.5200
  774TIP3    H223958   3.366   3.776   1.260  1.6801 -0.3556 -0.2629
  775TIP3   OH223959   3.499   1.997   0.488  0.2201  0.1834 -0.6102
  775TIP3    H123960   3.592   1.983   0.508 -0.5409 -2.4437  1.7608
  775TIP3    H223961   3.480   2.084   0.523  1.7004  0.6122 -0.7989
  776TIP3   OH223962   4.462   5.140   8.270 -0.4626  0.1024 -0.5075
  776TIP3    H123963   4.460   5.084   8.193 -1.3170 -0.7549  0.1050
  776TIP3    H223964   4.378   5.123   8.314  0.7308 -0.8944  1.5948
  777TIP3   OH223965   6.420   2.731   1.371  0.0147  0.0537  0.0985
  777TIP3    H123966   6.342   2.691   1.409 -0.0294 -0.0880 -0.1413
  777TIP3    H223967   6.392   2.761   1.285  0.6717 -1.5808 -0.7215
  778TIP3   OH223968   2.096   3.468   1.019 -0.2340 -0.6373  0.3505
  778TIP3    H123969   2.102   3.392   0.962 -0.2404  0.4136 -1.0988
  778TIP3    H223970   2.005   3.497   1.011  0.1675  0.4793 -0.4207
  779TIP3   OH223971   0.370   2.776   2.265  0.2050 -0.6618 -0.4075
  779TIP3    H123972   0.441   2.837   2.243  0.1081 -0.9018 -1.4340
  779TIP3    H223973   0.317   2.771   2.186 -0.4735 -1.1602  0.0656
  780TIP3   OH223974   4.680   2.556   8.578  0.1517  0.7661  0.3804
  780TIP3    H123975   4.601   2.562   8.525  0.3057  0.1970  0.0801
  780TIP3    H223976   4.714   2.646   8.581 -0.2610  0.9320  0.1395
  781TIP3   OH223977   0.986   3.816   1.829  0.7781  0.4183 -0.3712
  781TIP3    H123978   1.038   3.763   1.889  1.2694  0.2182 -0.9557
  781TIP3    H223979   0.907   3.837   1.877  0.9943 -0.0621  0.2051
  782TIP3   OH223980   4.584   6.755   0.292 -0.0851  0.2553  0.0673
  782TIP3    H123981   4.554   6.686   0.233  1.8114 -1.4462  0.9644
  782TIP3    H223982   4.614   6.825   0.233 -0.3747 -0.4367 -0.9293
  783TIP3   OH223983   2.090   1.877   8.189 -0.7170 -0.1183 -0.2290
  783TIP3    H123984   2.151   1.921   8.130  1.6566 -2.0466  0.6303
  783TIP3    H223985   2.084   1.788   8.155 -1.0634 -0.6543  1.1846
  784TIP3   OH223986   0.904   4.049   1.552 -0.1504 -0.1248  0.1170
  784TIP3    H123987   0.942   4.040   1.464 -1.9804 -0.2565 -0.7067
  784TIP3    H223988   0.898   3.959   1.583  1.5406 -0.0113  0.8955
  785TIP3   OH223989   1.359   6.111   1.341 -0.0531 -0.0764  0.0411
  785TIP3    H123990   1.379   6.154   1.425 -1.2198 -0.2068  0.4043
  785TIP3    H223991   1.339   6.020   1.365 -0.4258 -0.1048 -0.3722
  786TIP3   OH223992   0.925   0.690   8.219 -0.3325 -0.2030  0.0441
  786TIP3    H123993   1.007   0.655   8.255  0.5773  1.8226  0.0432
  786TIP3    H223994   0.900   0.627   8.151  1.4297 -0.6694 -0.2127
  787TIP3   OH223995   1.439   2.105   8.451  0.4066  0.2130  0.2948
  787TIP3    H123996   1.381   2.119   8.525 -0.0082 -1.0893  0.2483
  787TIP3    H223997   1.473   2.016   8.463  1.0926  0.3383 -0.5575
  788TIP3   OH223998   6.675   5.946   7.520 -0.7723 -0.0302  0.1624
  788TIP3    H123999   6.667   6.039   7.502 -0.7296 -0.0870 -0.1563
  788TIP3    H224000   6.609   5.928   7.587 -0.6572  0.2636  0.3556
  789TIP3   OH224001   5.862   2.153   8.633 -0.0728  0.0218  0.2100
  789TIP3    H124002   5.859   2.211   8.710 -1.2168  1.2650 -0.7265
  789TIP3    H224003   5.810   2.198   8.567 -0.6643 -1.9029 -0.7130
  790TIP3   OH224004   4.902   4.948   1.910 -0.2186 -0.1362  0.4563
  790TIP3    H124005   4.918   4.873   1.968  0.5750  0.3980  0.9486
  790TIP3    H224006   4.987   4.966   1.870 -0.7964 -0.6584 -1.1144
  791TIP3   OH224007   5.951   3.138   1.125  0.3366 -0.8523 -0.4403
  791TIP3    H124008   5.882   3.073   1.137  0.0077 -0.2458  1.1901
  791TIP3    H224009   5.997   3.110   1.046 -1.0891 -1.8846 -0.9464
  792TIP3   OH224010   5.090   6.694   3.214 -0.5616 -0.4053 -0.0262
  792TIP3    H124011   5.086   6.781   3.176 -0.3781  0.0835  1.0314
  792TIP3    H224012   5.095   6.635   3.139 -0.6247  0.4948 -0.7524
  793TIP3   OH224013   6.712   1.584   2.915 -0.0881 -0.6317 -0.2094
  793TIP3    H124014   6.692   1.541   2.998  2.7739  0.5691  1.2346
  793TIP3    H224015   6.800   1.620   2.927 -0.5537  1.7698 -2.8866
  794TIP3   OH224016   3.766   2.166   3.379  0.3050  0.2231 -1.0738
  794TIP3    H124017   3.802   2.081   3.403 -0.7012 -0.7940 -2.9238
  794TIP3    H224018   3.821   2.195   3.306  0.2798  0.8904 -0.8324
  795TIP3   OH224019   1.055   1.238   2.844 -0.8323 -0.0884  0.0933
  795TIP3    H124020   1.080   1.161   2.792 -1.7405 -0.1735 -0.2193
  795TIP3    H224021   1.134   1.258   2.895  0.0853  0.0183 -1.3140
  796TIP3   OH224022   5.201   3.164   2.890 -0.0271  0.0723  0.3639
  796TIP3    H124023   5.131   3.127   2.943  0.7025  0.2309  1.4693
  796TIP3    H224024   5.266   3.195   2.953  0.4825  1.0498 -0.5968
  797TIP3   OH224025   4.548   4.595   8.588 -0.4425  0.1136  0.6876
  797TIP3    H124026   4.600   4.587   8.668  0.3515  0.7038  0.2504
  797TIP3    H224027   4.500   4.512   8.582  0.8036 -0.6665  0.8788
  798TIP3   OH224028   1.919   0.276   1.115 -0.1552  0.4128  0.1809
  798TIP3    H124029   1.845   0.219   1.138  0.3291 -0.4044 -0.2170
  798TIP3    H224030   1.923   0.340   1.186 -1.4847  0.7207  0.0100
  799TIP3   OH224031   2.614   5.256   0.396 -0.3304 -0.4188  0.0437
  799TIP3    H124032   2.625   5.282   0.487 -0.5811 -0.6880  0.1538
  799TIP3    H224033   2.523   5.226   0.390  0.0187 -1.5098 -0.0138
  800TIP3   OH224034   2.517   2.513   1.121 -0.2925  0.4653  0.3869
  800TIP3    H124035   2.472   2.512   1.038 -0.9837  1.6679  0.7268
  800TIP3    H224036   2.595   2.566   1.106 -0.9787  1.6010  0.7711
  801TIP3   OH224037   1.805   4.743   2.078 -0.2414  0.5057  0.2728
  801TIP3    H124038   1.719   4.785   2.077 -0.8297 -0.6540  0.9379
  801TIP3    H224039   1.787   4.651   2.062  0.9724  0.3796 -0.5023
  802TIP3   OH224040   3.982   2.990   2.380 -0.6792 -0.2282 -0.1448
  802TIP3    H124041   4.010   2.906   2.343 -0.4876 -0.7665  1.1876
  802TIP3    H224042   3.959   2.970   2.470 -1.2452  1.0430  0.0060
  803TIP3   OH224043   5.910   0.027   0.134 -0.1671 -0.2436 -0.2926
  803TIP3    H124044   5.999   0.045   0.165  0.0492  0.4924 -1.2702
  803TIP3    H224045   5.877  -0.041   0.193  0.0139  1.4136  1.8737
  804TIP3   OH224046   4.789   1.071   7.778  0.4267  0.4275 -0.1641
  804TIP3    H124047   4.723   1.069   7.709  0.1556  0.1411  0.0985
  804TIP3    H224048   4.768   1.150   7.829 -0.0788  0.0206  0.2678
  805TIP3   OH224049   5.184   6.857   0.212  0.2036  0.0642  0.4182
  805TIP3    H124050   5.240   6.889   0.283  0.0300  0.6819  0.2873
  805TIP3    H224051   5.188   6.762   0.220 -3.7684 -0.0857  4.4448
  806TIP3   OH224052   5.348   0.739   0.274  0.4338  0.3259 -0.5914
  806TIP3    H124053   5.277   0.755   0.336  1.3859  0.7641  0.4104
  806TIP3    H224054   5.355   0.819   0.223  2.0264  1.4146  1.2058
  807TIP3   OH224055   5.766   3.058   8.337  0.1622 -0.1400 -0.3736
  807TIP3    H124056   5.766   3.030   8.429 -0.5512 -0.6197 -0.5056
  807TIP3    H224057   5.838   3.009   8.297  1.3438  1.0692  0.1987
  808TIP3   OH224058   3.138   4.510   1.090  0.0110  0.1768  0.3676
  808TIP3    H124059   3.155   4.495   0.997  0.0452 -1.2258  0.5796
  808TIP3    H224060   3.223   4.496   1.132 -0.4681 -1.4622  0.8411
  809TIP3   OH224061   5.308   3.161   0.941  0.2984 -0.1265  0.3045
  809TIP3    H124062   5.322   3.073   0.975 -0.7276 -0.4994 -0.1938
  809TIP3    H224063   5.224   3.156   0.894  1.3245  0.5119 -1.7294
  810TIP3   OH224064   5.404   6.086   1.238  0.1420  0.1771  0.1158
  810TIP3    H124065   5.345   6.011   1.230 -0.6477  0.8055 -0.0955
  810TIP3    H224066   5.347   6.160   1.259  0.9276  0.6921  0.4967
  811TIP3   OH224067   0.158   1.990   1.091  0.7164 -0.8992  0.1175
  811TIP3    H124068   0.092   2.057   1.109 -0.0011 -1.0343 -1.8059
  811TIP3    H224069   0.241   2.037   1.089  0.1663  0.0740 -1.7061
  812TIP3   OH224070   2.294   1.914   1.012  0.1696 -0.4881 -0.4737
  812TIP3    H124071   2.255   1.845   1.066 -3.1238  0.9103 -0.8339
  812TIP3    H224072   2.302   1.989   1.071 -0.1414  0.0113 -1.0565
  813TIP3   OH224073   4.462   5.835   0.264  0.2329  0.3854 -0.1418
  813TIP3    H124074   4.374   5.872   0.271  1.4481  3.6256 -0.1205
  813TIP3    H224075   4.482   5.838   0.170  0.5885  0.3853 -0.0687
  814TIP3   OH224076   2.501   0.804   3.714 -0.0071  0.4389 -0.3866
  814TIP3    H124077   2.469   0.764   3.633 -1.0324 -1.2047  0.7476
  814TIP3    H224078   2.572   0.745   3.743 -1.0003 -0.1750  0.9070
  815TIP3   OH224079   1.469   3.384   1.003  0.3044 -0.3222 -0.0018
  815TIP3    H124080   1.543   3.445   1.004  0.5292 -0.5341 -1.5697
  815TIP3    H224081   1.398   3.432   1.048  1.0876  0.2647  0.6363
  816TIP3   OH224082   2.298   4.297   0.347  0.1070 -0.0653 -0.3018
  816TIP3    H124083   2.250   4.319   0.426  0.1526  2.2654 -0.8713
  816TIP3    H224084   2.277   4.204   0.332 -0.4396 -0.3797  2.0069
  817TIP3   OH224085   5.383   2.732   0.191 -0.1249 -0.0244 -0.3739
  817TIP3    H124086   5.342   2.667   0.135  0.6461  1.3289 -2.6389
  817TIP3    H224087   5.418   2.682   0.265 -3.7755 -1.5062  0.5859
  818TIP3   OH224088   0.685   6.763   3.233  0.0734  0.1201  0.1916
  818TIP3    H124089   0.751   6.813   3.280 -0.9966  0.9459  0.8715
  818TIP3    H224090   0.620   6.828   3.206 -0.9141 -0.7782  0.3414
  819TIP3   OH224091   1.849   2.227   1.410  0.0343  0.3896  0.1230
  819TIP3    H124092   1.754   2.219   1.405 -0.1599  2.8195 -2.1592
  819TIP3    H224093   1.882   2.152   1.361 -0.7212  0.0267  0.1504
  820TIP3   OH224094   4.812   2.395   7.176  0.3193  0.0969  0.1587
  820TIP3    H124095   4.753   2.371   7.248  1.7925 -1.2440  0.9768
  820TIP3    H224096   4.834   2.312   7.134 -0.1530  0.8187 -1.6079
  821TIP3   OH224097   2.166   1.294   8.601  0.0504 -0.0826 -0.1774
  821TIP3    H124098   2.207   1.323   8.683  0.5687 -0.3702 -0.3361
  821TIP3    H224099   2.117   1.216   8.626 -2.3726  1.5178  0.5294
  822TIP3   OH224100   6.276   3.216   7.510  0.0576  0.5025 -0.6977
  822TIP3    H124101   6.227   3.134   7.511 -0.7190  0.8922  2.2462
  822TIP3    H224102   6.269   3.247   7.420 -0.0276 -2.3779 -1.7778
  823TIP3   OH224103   4.052   6.667   1.693 -0.4183  0.0007 -0.1390
  823TIP3    H124104   4.022   6.691   1.781 -0.0010 -0.5950  0.1736
  823TIP3    H224105   3.978   6.621   1.654 -0.1467 -0.9194  0.4002
  824TIP3   OH224106   6.491   3.206   7.683  0.1767  0.3845  0.5784
  824TIP3    H124107   6.433   3.197   7.608 -0.0871  1.8223  0.5969
  824TIP3    H224108   6.571   3.244   7.647  0.8711 -0.8887  0.6828
  825TIP3   OH224109   4.639   6.747   0.553 -0.5469 -0.0153  0.3304
  825TIP3    H124110   4.622   6.740   0.459 -1.0756  0.0985  0.4149
  825TIP3    H224111   4.735   6.740   0.560 -0.5169 -0.2457 -0.1937
  826TIP3   OH224112   4.843   2.070   7.583 -0.2273  0.3017  0.0636
  826TIP3    H124113   4.821   1.984   7.547  0.3838 -0.0451  0.4983
  826TIP3    H224114   4.770   2.091   7.641 -0.0583 -0.2342  0.4767
  827TIP3   OH224115   3.532   1.629   2.318 -0.6584 -0.1949  0.1943
  827TIP3    H124116   3.555   1.541   2.289 -1.4088 -0.1249 -0.6656
  827TIP3    H224117   3.441   1.621   2.349 -1.0143  0.4191 -0.6367
  828TIP3   OH224118   5.796   5.390   0.939  0.2498  0.1763  0.2384
  828TIP3    H124119   5.806   5.446   0.861  0.5214 -1.4747 -0.9657
  828TIP3    H224120   5.854   5.316   0.922 -0.2004 -0.5454  1.7421
  829TIP3   OH224121   3.897   5.971   7.611  0.4580 -0.0391 -0.3815
  829TIP3    H124122   3.804   5.954   7.627  0.2521  2.2128  1.2410
  829TIP3    H224123   3.898   6.015   7.526 -0.2935  2.0077  0.6029
  830TIP3   OH224124   2.413   0.573   1.423  0.1984 -0.0909 -0.1098
  830TIP3    H124125   2.357   0.645   1.393 -0.4196 -0.4379  0.2077
  830TIP3    H224126   2.353   0.500   1.437  0.7257 -0.4487  0.3019
  831TIP3   OH224127   2.899   0.827   3.626 -0.3882  0.3990 -0.0221
  831TIP3    H124128   2.901   0.737   3.659  0.4788  0.0972 -0.8536
  831TIP3    H224129   2.884   0.817   3.532 -2.2033  1.2192  0.1290
  832TIP3   OH224130   1.989   1.948   2.237 -0.0525  0.1734  0.9805
  832TIP3    H124131   2.074   1.992   2.234 -0.3891  0.7829 -0.8916
  832TIP3    H224132   1.945   1.987   2.313  1.3731 -0.3086  2.1151
  833TIP3   OH224133   5.123   3.028   7.128  0.1497  0.3137  0.0488
  833TIP3    H124134   5.040   3.000   7.167  0.5587  0.0450  0.7478
  833TIP3    H224135   5.138   3.114   7.165 -0.1829  0.6829 -0.6602
  834TIP3   OH224136   2.066   1.542   2.976 -0.1635 -0.0212 -0.2535
  834TIP3    H124137   1.983   1.561   3.019  0.4117  0.9068  0.4859
  834TIP3    H224138   2.116   1.492   3.041  0.0683 -0.0927 -0.4853
  835TIP3   OH224139   6.783   2.762   8.218  0.6101  0.3370  0.9822
  835TIP3    H124140   6.729   2.686   8.240 -2.1124  1.5693 -0.8081
  835TIP3    H224141   6.806   2.748   8.126 -1.2275  2.2601  0.1477
  836TIP3   OH224142   3.791   4.695   1.276 -0.1722  0.4708  0.3021
  836TIP3    H124143   3.750   4.644   1.346 -1.2947  0.5845 -0.2489
  836TIP3    H224144   3.733   4.682   1.200  1.0148  0.3509 -0.6048
  837TIP3   OH224145   5.796   3.450   3.348 -0.3594  0.0313 -0.3978
  837TIP3    H124146   5.874   3.419   3.393 -0.4027 -0.0723 -0.3920
  837TIP3    H224147   5.812   3.542   3.331  0.7151 -0.4684 -2.3859
  838TIP3   OH224148   5.208   6.587   0.223 -0.5012 -0.3421 -0.4217
  838TIP3    H124149   5.209   6.564   0.316 -0.6139  1.3019 -0.0008
  838TIP3    H224150   5.132   6.540   0.187 -0.7517 -0.5830  0.4122
  839TIP3   OH224151   6.626   1.194   1.765 -0.4283  0.2568 -0.3543
  839TIP3    H124152   6.683   1.264   1.797  1.1260  0.1942 -2.7298
  839TIP3    H224153   6.660   1.115   1.808 -1.7108  0.7605  1.7492
  840TIP3   OH224154   4.332   0.668   7.749  0.3903  0.4434  0.3970
  840TIP3    H124155   4.256   0.673   7.692  0.3118  0.5274  0.5103
  840TIP3    H224156   4.297   0.677   7.837  0.6440  1.5086  0.3979
  841TIP3   OH224157   0.970   5.903   2.392 -0.0762  0.8142 -0.3752
  841TIP3    H124158   1.040   5.940   2.337  2.7284 -1.9789  1.0016
  841TIP3    H224159   0.922   5.845   2.334  1.4677 -0.4227 -0.4985
  842TIP3   OH224160   5.589   1.673   7.899  0.4053  0.0179  0.6780
  842TIP3    H124161   5.619   1.697   7.811  0.2256 -1.1424  0.2849
  842TIP3    H224162   5.544   1.751   7.931  1.3792  0.8106  0.1615
  843TIP3   OH224163   4.312   0.453   0.703 -0.5871  0.7012  0.7062
  843TIP3    H124164   4.299   0.535   0.656  0.8580  0.1337 -0.7583
  843TIP3    H224165   4.260   0.389   0.654 -0.8122  0.5009  1.1895
  844TIP3   OH224166   4.384   1.894   2.170 -0.1120  0.7036 -0.5618
  844TIP3    H124167   4.441   1.895   2.094  1.4341  0.6051  0.5566
  844TIP3    H224168   4.318   1.828   2.150  0.5913  0.2972 -1.5930
  845TIP3   OH224169   1.486   0.784   2.520  0.4149  0.0294  0.1434
  845TIP3    H124170   1.527   0.736   2.447  0.8726 -0.9971  1.0526
  845TIP3    H224171   1.544   0.769   2.594 -0.7029  0.0072  1.0316
  846TIP3   OH224172   3.376   4.905   1.508 -0.1544 -0.9442 -0.4581
  846TIP3    H124173   3.336   4.887   1.423 -0.4878 -0.1034 -0.4912
  846TIP3    H224174   3.309   4.881   1.572 -0.1319 -1.0074 -0.4586
  847TIP3   OH224175   2.642   6.387   7.307 -0.3118  0.1516  0.5072
  847TIP3    H124176   2.581   6.459   7.327 -1.4994 -0.9615  1.0543
  847TIP3    H224177   2.597   6.309   7.339  0.3599 -1.0122 -1.2472
  848TIP3   OH224178   2.746   1.637   1.692 -0.2240 -0.0570 -0.2648
  848TIP3    H124179   2.708   1.662   1.776  2.7448  0.5737  1.0100
  848TIP3    H224180   2.810   1.569   1.714 -0.1367 -0.6420 -2.1851
  849TIP3   OH224181   1.797   1.368   0.289  0.0295 -0.4546  0.0001
  849TIP3    H124182   1.845   1.421   0.227  0.3871 -1.2767 -0.4453
  849TIP3    H224183   1.846   1.374   0.371 -0.0244  0.0260 -0.0044
  850TIP3   OH224184   3.353   5.331   0.049 -0.4325  0.8500  0.4246
  850TIP3    H124185   3.289   5.260   0.057  0.6064 -0.0075  1.4045
  850TIP3    H224186   3.417   5.299  -0.015  1.0707  0.0268  2.2299
  851TIP3   OH224187   4.598   1.684   0.440  0.4718 -0.3595 -0.2339
  851TIP3    H124188   4.668   1.685   0.374  1.2072  1.6348  0.5076
  851TIP3    H224189   4.618   1.758   0.497 -0.9797 -1.1462  1.3759
  852TIP3   OH224190   2.873   4.513   8.094 -0.1794 -0.3047 -0.3080
  852TIP3    H124191   2.899   4.584   8.153  1.7768 -1.2885  0.1153
  852TIP3    H224192   2.794   4.545   8.051 -0.4966  1.2950  1.3290
  853TIP3   OH224193   6.733   1.977   1.204 -0.0976 -0.5660 -0.3045
  853TIP3    H124194   6.677   1.925   1.262  0.7176  0.4250  1.4560
  853TIP3    H224195   6.746   2.060   1.251  0.7037  0.2507 -1.8727
  854TIP3   OH224196   3.091   3.572   1.152 -0.2721 -0.1984 -0.0770
  854TIP3    H124197   3.033   3.642   1.120  0.4503 -0.4348 -2.0250
  854TIP3    H224198   3.145   3.614   1.219 -0.3441  0.9325 -0.7025
  855TIP3   OH224199   3.599   5.540   0.573  0.1037  0.4899 -0.0125
  855TIP3    H124200   3.679   5.593   0.569  1.7257 -1.5554  2.4354
  855TIP3    H224201   3.600   5.490   0.492  0.4336  1.6113 -0.7288
  856TIP3   OH224202   6.253   6.861   0.025  0.3676 -0.0737  0.1270
  856TIP3    H124203   6.315   6.808   0.074 -1.7496 -2.5948  0.3131
  856TIP3    H224204   6.189   6.891   0.090 -0.6645 -0.7279 -0.5431
  857TIP3   OH224205   0.456   0.766   1.133 -0.3633 -0.2027  0.5556
  857TIP3    H124206   0.460   0.844   1.078 -0.5916  1.4491  2.7540
  857TIP3    H224207   0.545   0.732   1.133 -0.2855 -0.0258 -0.5133
  858TIP3   OH224208   6.162   0.478   1.018 -0.6073  0.2083 -0.6568
  858TIP3    H124209   6.072   0.448   1.032 -0.6586  1.0128  0.8879
  858TIP3    H224210   6.152   0.571   0.996 -0.0960  0.7799  1.3257
  859TIP3   OH224211   0.632   5.262   1.989 -0.1582  0.6337 -0.0447
  859TIP3    H124212   0.699   5.326   1.965  0.0041  0.8939  1.0244
  859TIP3    H224213   0.656   5.234   2.077  0.1941 -1.4998 -0.7732
  860TIP3   OH224214   1.614   4.144   0.112 -0.1269  0.0895  0.8253
  860TIP3    H124215   1.527   4.184   0.115  0.7610  2.3680 -1.0595
  860TIP3    H224216   1.653   4.166   0.197  0.0450  2.7120  0.1422
  861TIP3   OH224217   5.064   0.362   7.821  0.0980  0.4288 -0.3000
  861TIP3    H124218   5.086   0.270   7.835 -0.4896  0.4327  0.7252
  861TIP3    H224219   5.144   0.400   7.786  0.2450 -0.5371 -1.0540
  862TIP3   OH224220   4.472   3.091   1.616 -0.3067  0.3659 -0.7110
  862TIP3    H124221   4.472   3.176   1.573 -0.3702  0.1701 -1.0969
  862TIP3    H224222   4.564   3.076   1.640 -0.3700  0.7617 -0.2020
  863TIP3   OH224223   0.587   3.225   0.657  0.0631 -0.3303  0.3941
  863TIP3    H124224   0.505   3.178   0.670  0.3296 -1.0274 -0.3552
  863TIP3    H224225   0.563   3.318   0.658 -0.8313 -0.5416 -0.4458
  864TIP3   OH224226   2.688   6.782   1.558  0.3741  0.6908 -0.1266
  864TIP3    H124227   2.724   6.870   1.551 -0.9939  1.1358 -3.0098
  864TIP3    H224228   2.616   6.791   1.620 -0.3262  1.8624 -1.0662
  865TIP3   OH224229   3.326   5.227   2.848  0.4266 -0.1699  0.3354
  865TIP3    H124230   3.421   5.217   2.848  0.4000 -0.5735 -0.5306
  865TIP3    H224231   3.309   5.285   2.773 -0.1265 -1.6223 -0.7106
  866TIP3   OH224232   0.130   1.298   2.058 -0.3186 -0.1022 -0.2138
  866TIP3    H124233   0.220   1.305   2.025 -0.1512  0.1769  0.2853
  866TIP3    H224234   0.111   1.386   2.091  0.4336 -0.9591  2.7609
  867TIP3   OH224235   0.654   5.441   0.101 -0.3731 -0.0379  0.3208
  867TIP3    H124236   0.630   5.533   0.094 -0.2217  0.0009  0.3211
  867TIP3    H224237   0.653   5.423   0.195  0.3375  0.1574  0.3671
  868TIP3   OH224238   2.394   1.937   0.062 -0.0793 -0.5621 -0.4520
  868TIP3    H124239   2.456   2.005   0.087 -0.8674 -0.3833  1.1597
  868TIP3    H224240   2.308   1.976   0.078 -0.5903 -1.2551 -1.4039
  869TIP3   OH224241   1.636   2.373   2.949  0.1609 -0.3745 -0.0350
  869TIP3    H124242   1.654   2.289   2.990  0.7016 -0.5897 -0.6992
  869TIP3    H224243   1.659   2.438   3.015  0.3019 -0.7307  0.2670
  870TIP3   OH224244   0.510   1.992   1.761  0.2696 -0.1427  0.8442
  870TIP3    H124245   0.597   1.963   1.788  0.3012 -0.2211  0.6620
  870TIP3    H224246   0.513   1.992   1.665  0.2332  0.3570  0.8400
  871TIP3   OH224247   5.916   3.783   1.582 -0.7041  0.1095  0.2717
  871TIP3    H124248   6.007   3.763   1.562 -0.0931  0.5972  2.2898
  871TIP3    H224249   5.899   3.735   1.663 -1.6995  1.3574  0.8305
  872TIP3   OH224250   5.453   2.892   2.817 -0.4310  0.4304 -0.1163
  872TIP3    H124251   5.362   2.872   2.839 -0.4659  1.3815  0.7288
  872TIP3    H224252   5.459   2.879   2.723 -1.1940 -0.5479 -0.0461
  873TIP3   OH224253   5.518   0.989   2.257  0.0586  0.5946 -0.1575
  873TIP3    H124254   5.571   1.044   2.314  1.5016  0.5808 -1.4381
  873TIP3    H224255   5.499   1.044   2.181 -0.7201  0.1828 -0.2721
  874TIP3   OH224256   2.540   5.766   2.732  0.2436  0.0168 -0.1449
  874TIP3    H124257   2.585   5.715   2.798 -1.8215 -0.2965  1.1258
  874TIP3    H224258   2.494   5.834   2.781 -1.4008 -0.2521 -1.2156
  875TIP3   OH224259   1.463   5.153   2.825 -0.3129  0.9125 -0.1935
  875TIP3    H124260   1.418   5.197   2.898 -2.4774  1.4636 -1.7664
  875TIP3    H224261   1.465   5.218   2.756  0.7185  0.0432 -1.0065
  876TIP3   OH224262   1.840   0.342   0.621 -0.0593  0.0135 -0.4720
  876TIP3    H124263   1.873   0.373   0.705 -0.4442  0.6571 -0.5516
  876TIP3    H224264   1.826   0.421   0.569  0.8512 -0.4106 -1.4060
  877TIP3   OH224265   3.554   4.008   2.091 -0.1354  0.0936  0.5628
  877TIP3    H124266   3.576   4.030   2.182 -1.9276 -0.9162  1.2973
  877TIP3    H224267   3.482   3.946   2.098  0.1579 -0.5788 -1.5618
  878TIP3   OH224268   5.310   0.036   7.681  0.3679 -0.5097 -0.6354
  878TIP3    H124269   5.254   0.043   7.758  0.4323  1.2000 -0.7026
  878TIP3    H224270   5.286   0.111   7.627  1.7704 -0.5082 -1.3037
  879TIP3   OH224271   2.485   2.938   1.375 -0.2665  0.0640 -0.1694
  879TIP3    H124272   2.576   2.949   1.404  0.4748 -0.7916 -2.0170
  879TIP3    H224273   2.492   2.913   1.283 -2.3427 -1.0628 -0.0764
  880TIP3   OH224274   0.162   5.479   2.381  0.6787  0.3617  0.2089
  880TIP3    H124275   0.215   5.476   2.301 -2.4403  0.6971 -2.0717
  880TIP3    H224276   0.136   5.388   2.396  1.2759  0.2961  0.8933
  881TIP3   OH224277   6.350   3.764   2.111 -0.1244 -0.1121  0.7297
  881TIP3    H124278   6.343   3.839   2.052  1.1901 -0.5467 -0.0145
  881TIP3    H224279   6.373   3.802   2.196 -1.7511  0.4918  0.9301
  882TIP3   OH224280   4.759   6.202   2.052 -0.4823  1.0105 -0.0256
  882TIP3    H124281   4.707   6.227   2.129  0.8123  1.5863  0.6787
  882TIP3    H224282   4.721   6.118   2.025 -0.6582  0.5502  1.5308
  883TIP3   OH224283   0.722   2.278   1.951  0.0960  1.0252  0.6268
  883TIP3    H124284   0.779   2.212   1.910  0.4473  1.3940  0.5162
  883TIP3    H224285   0.679   2.322   1.878 -0.8619  0.2953  0.7281
  884TIP3   OH224286   0.888   3.351   0.232 -0.3749  0.3695  0.1708
  884TIP3    H124287   0.938   3.428   0.259 -0.1629  0.2195  0.2056
  884TIP3    H224288   0.862   3.310   0.315 -0.5316  0.4306  0.1528
  885TIP3   OH224289   6.193   0.652   1.567  0.4152 -0.0287  0.0786
  885TIP3    H124290   6.124   0.718   1.561 -0.0469 -0.6485 -2.3628
  885TIP3    H224291   6.206   0.622   1.477  1.6811 -2.1837  0.8974
  886TIP3   OH224292   2.481   4.181   1.368 -0.7503  0.2241  0.1451
  886TIP3    H124293   2.426   4.128   1.312 -0.5385  1.0770 -0.9173
  886TIP3    H224294   2.420   4.232   1.421 -0.9717  0.2517 -0.1361
  887TIP3   OH224295   0.572   4.123   2.165  0.6477 -0.4020  0.3536
  887TIP3    H124296   0.560   4.036   2.129  0.9217 -0.3073  0.0288
  887TIP3    H224297   0.665   4.141   2.154  1.0435 -0.9543  2.4206
  888TIP3   OH224298   6.665   5.293   0.362 -0.1755 -0.4777  0.2340
  888TIP3    H124299   6.620   5.215   0.394  1.8866 -1.5837  0.6122
  888TIP3    H224300   6.606   5.329   0.295 -1.6572 -1.7353  0.8091
  889TIP3   OH224301   6.860   5.249   1.245 -0.5068 -0.1722 -0.4552
  889TIP3    H124302   6.773   5.208   1.254 -1.0253  1.2334  1.4780
  889TIP3    H224303   6.841   5.340   1.222  0.3959  0.4392  1.1187
  890TIP3   OH224304   1.214   6.521   0.725  0.1434  0.1941 -0.1164
  890TIP3    H124305   1.138   6.514   0.782 -0.1453 -0.0663 -0.5297
  890TIP3    H224306   1.236   6.430   0.703  0.8914  0.2394  0.4173
  891TIP3   OH224307   5.959   2.489   0.253  0.2748 -0.6473 -0.2302
  891TIP3    H124308   5.910   2.455   0.177 -0.9006  0.5281 -0.0375
  891TIP3    H224309   5.891   2.516   0.315  0.9887  2.9655 -0.7792
  892TIP3   OH224310   5.533   1.126   1.987  0.6534 -0.5342  0.5517
  892TIP3    H124311   5.511   1.062   1.919  0.5880 -1.1764  1.1706
  892TIP3    H224312   5.454   1.178   1.998  0.3843 -0.9740  0.7293
  893TIP3   OH224313   4.504   4.447   2.147 -0.1744 -0.0050 -0.4063
  893TIP3    H124314   4.447   4.440   2.224  0.2888 -0.4794 -0.1025
  893TIP3    H224315   4.589   4.416   2.177  0.4159  1.2547 -0.6917
  894TIP3   OH224316   3.979   4.335   2.538 -0.1874  0.3419  0.0799
  894TIP3    H124317   3.884   4.336   2.528 -0.1457 -0.0311 -0.4052
  894TIP3    H224318   4.011   4.305   2.453  0.3198 -0.4300  0.5385
  895TIP3   OH224319   6.033   1.540   0.780 -0.0671  0.0280 -0.0814
  895TIP3    H124320   6.104   1.590   0.820 -0.5326  0.4368  0.2337
  895TIP3    H224321   5.967   1.533   0.848 -0.7586  0.5069 -0.6956
  896TIP3   OH224322   5.296   2.794   7.160 -0.5206  1.0287  0.6424
  896TIP3    H124323   5.234   2.853   7.118 -1.2995 -0.5555 -0.5336
  896TIP3    H224324   5.251   2.709   7.160  1.7207 -0.2336 -0.4982
  897TIP3   OH224325   6.250   3.368   1.097  0.2409  0.4491  0.2200
  897TIP3    H124326   6.303   3.433   1.144  0.6460  0.9136 -0.8669
  897TIP3    H224327   6.300   3.287   1.104  1.7345  1.1164 -1.7644
  898TIP3   OH224328   4.929   5.364   2.808 -0.2428  0.0851  0.2600
  898TIP3    H124329   4.922   5.294   2.742 -0.1625 -0.0667  0.4115
  898TIP3    H224330   5.002   5.337   2.864  1.1208  1.2630 -0.8439
  899TIP3   OH224331   3.990   0.769   1.299  0.7888  0.1256  0.0089
  899TIP3    H124332   4.013   0.813   1.217  0.4617  1.2430  0.4954
  899TIP3    H224333   3.960   0.682   1.272 -0.4858  0.8933 -1.1849
  900TIP3   OH224334   5.813   3.209   2.162  0.1209 -0.2453 -0.5940
  900TIP3    H124335   5.841   3.269   2.093 -0.1342  0.7417  0.1439
  900TIP3    H224336   5.765   3.264   2.224  0.3508 -1.1116  0.3801
  901TIP3   OH224337   4.065   3.401   1.072 -0.0590  0.1339  0.5341
  901TIP3    H124338   4.116   3.425   1.149  1.6241  0.4449 -0.6229
  901TIP3    H224339   4.029   3.484   1.041  0.2176  0.1738  0.3239
  902TIP3   OH224340   3.853   2.505   3.718 -0.2575 -0.6051  0.1126
  902TIP3    H124341   3.849   2.584   3.772  0.4858 -1.0672  0.8675
  902TIP3    H224342   3.913   2.528   3.647 -1.0301 -0.0851 -0.3876
  903TIP3   OH224343   1.279   6.755   0.091  0.4472  0.0578  0.4473
  903TIP3    H124344   1.315   6.783   0.174  1.0070  0.8954 -0.0665
  903TIP3    H224345   1.186   6.779   0.095  0.2784 -0.6795  1.1502
  904TIP3   OH224346   2.422   0.392   0.693  0.3339 -0.1399  0.2702
  904TIP3    H124347   2.330   0.379   0.716  0.7373 -0.8264  1.6276
  904TIP3    H224348   2.447   0.472   0.739  0.4741 -0.0884  0.1051
  905TIP3   OH224349   4.193   4.208   0.576  0.0621  0.1936 -0.0340
  905TIP3    H124350   4.158   4.285   0.532  0.6327 -0.4902 -1.7575
  905TIP3    H224351   4.285   4.230   0.594 -0.2198  0.5508  1.0726
  906TIP3   OH224352   0.552   0.147   0.786  0.0766  0.3259  0.0860
  906TIP3    H124353   0.528   0.087   0.856  1.9514  0.8640  1.2782
  906TIP3    H224354   0.486   0.216   0.789  0.2526  0.4523  1.4908
  907TIP3   OH224355   6.050   5.869   8.080  0.2668  0.9749 -0.1153
  907TIP3    H124356   5.998   5.813   8.137  0.8419  0.4527 -0.0953
  907TIP3    H224357   6.137   5.830   8.081  0.9108  2.3572  0.5765
  908TIP3   OH224358   5.854   1.212   3.818  0.2453  0.3541  0.2489
  908TIP3    H124359   5.914   1.278   3.853  0.9707 -0.1507 -0.0192
  908TIP3    H224360   5.783   1.207   3.883 -1.1991  3.2116 -0.8987
  909TIP3   OH224361   5.102   2.479   1.729 -0.4015 -0.0450 -0.3984
  909TIP3    H124362   5.138   2.408   1.781 -0.2268  0.5750  0.3502
  909TIP3    H224363   5.174   2.505   1.671  0.2248  0.8412  0.7299
  910TIP3   OH224364   5.730   3.773   1.027  0.0423  0.5011 -0.0924
  910TIP3    H124365   5.767   3.693   0.991 -1.5140 -0.3303  0.0519
  910TIP3    H224366   5.756   3.772   1.119 -0.6607 -0.3096  0.1171
  911TIP3   OH224367   4.471   3.985   1.492  0.3783 -0.0494 -0.1986
  911TIP3    H124368   4.397   4.032   1.455  1.2065  0.6170 -1.0599
  911TIP3    H224369   4.503   3.930   1.420 -0.4810 -1.8932  0.7354
  912TIP3   OH224370   4.140   3.980   1.664 -0.3260 -0.3488 -0.0793
  912TIP3    H124371   4.142   3.932   1.582 -2.8766  0.7210 -0.8519
  912TIP3    H224372   4.092   3.923   1.724  0.1401 -0.4535  0.1953
  913TIP3   OH224373   4.131   1.487   0.091 -0.1185 -0.0060 -0.2953
  913TIP3    H124374   4.124   1.530   0.177 -1.1514  0.6203 -0.6743
  913TIP3    H224375   4.179   1.549   0.037 -3.4233  1.8309 -1.4692
  914TIP3   OH224376   3.573   2.817   0.789  0.3276 -0.6316 -0.5401
  914TIP3    H124377   3.529   2.805   0.705 -1.5799  2.0715 -0.0540
  914TIP3    H224378   3.658   2.855   0.767  1.3854 -3.2402 -1.3398
  915TIP3   OH224379   6.737   4.369   1.488 -0.5745 -0.4408  0.3619
  915TIP3    H124380   6.783   4.421   1.422 -1.5292 -0.4697 -0.3532
  915TIP3    H224381   6.666   4.326   1.439 -0.2415 -1.8525  1.0692
  916TIP3   OH224382   5.106   1.532   1.365 -0.5887 -0.5202  0.6005
  916TIP3    H124383   5.165   1.490   1.302  0.5798  1.9920 -0.1647
  916TIP3    H224384   5.155   1.530   1.447 -1.7308 -3.0066  1.2849
  917TIP3   OH224385   1.543   0.315   1.835  0.0517 -0.1441 -0.1392
  917TIP3    H124386   1.542   0.353   1.924 -1.0325  0.9225 -0.5746
  917TIP3    H224387   1.571   0.387   1.779  0.4746 -0.7381 -0.6975
  918TIP3   OH224388   3.332   1.162   2.617 -0.3997 -0.4655 -0.4306
  918TIP3    H124389   3.412   1.145   2.667 -1.1047 -0.5140  0.7419
  918TIP3    H224390   3.263   1.120   2.669 -1.2526  0.0279 -1.1363
  919TIP3   OH224391   1.267   5.148   0.185  0.0131  0.0440 -0.3219
  919TIP3    H124392   1.294   5.238   0.165 -1.9520  1.0149  1.0498
  919TIP3    H224393   1.272   5.101   0.102 -0.9108  1.9789 -1.5278
  920TIP3   OH224394   0.603   6.067   2.111  0.0615 -0.0399  0.3143
  920TIP3    H124395   0.674   6.102   2.165 -0.9156  1.7603  0.5162
  920TIP3    H224396   0.561   6.002   2.167  0.6866 -0.0964  0.7310
  921TIP3   OH224397   1.874   0.974   8.365  0.7670 -0.0471 -0.4476
  921TIP3    H124398   1.813   0.910   8.330  1.6153 -1.8145  1.1114
  921TIP3    H224399   1.866   1.050   8.307 -0.6632 -1.3482 -2.0441
  922TIP3   OH224400   3.785   0.461   7.459 -0.2528  0.3341 -0.0710
  922TIP3    H124401   3.768   0.507   7.377  0.1928  1.6074  0.5198
  922TIP3    H224402   3.867   0.415   7.445  0.5680  1.7030  0.1086
  923TIP3   OH224403   4.227   3.832   2.102 -0.6478  0.0814  0.9607
  923TIP3    H124404   4.314   3.795   2.088 -0.8841 -0.0730 -0.2633
  923TIP3    H224405   4.168   3.757   2.099 -1.0482  0.4170 -0.7140
  924TIP3   OH224406   4.405   1.245   0.541 -0.2734 -0.3338 -0.0043
  924TIP3    H124407   4.315   1.221   0.563 -0.9989  1.7598 -0.4213
  924TIP3    H224408   4.432   1.302   0.613  0.0098  0.5751 -0.8095
  925TIP3   OH224409   4.956   4.161   0.273  0.1110 -0.5071 -0.3697
  925TIP3    H124410   4.977   4.214   0.196 -0.6946  0.6910  0.2014
  925TIP3    H224411   5.037   4.115   0.294  1.4192  1.9108  0.1954
  926TIP3   OH224412   6.805   3.067   0.836 -0.2612  0.1944 -0.3902
  926TIP3    H124413   6.731   3.098   0.888  0.2734 -1.2739  1.3611
  926TIP3    H224414   6.882   3.098   0.885  0.2651 -0.6477 -0.6590
  927TIP3   OH224415   5.112   2.993   1.135  0.0208  0.1241  0.0542
  927TIP3    H124416   5.124   2.973   1.228  0.2129  0.5603  0.1294
  927TIP3    H224417   5.179   2.940   1.091 -0.7607 -0.8955  0.0581
  928TIP3   OH224418   2.726   2.958   3.294  0.5718 -0.5079 -0.0218
  928TIP3    H124419   2.765   2.872   3.282  0.5664 -0.8561  2.1102
  928TIP3    H224420   2.800   3.019   3.295  0.5006 -0.2648 -2.7263
  929TIP3   OH224421   1.021   1.939   0.408 -0.0759  0.0282  0.0117
  929TIP3    H124422   0.952   1.990   0.364  0.6498  1.9698  0.9993
  929TIP3    H224423   1.088   2.004   0.430  0.4689 -1.1939  2.2147
  930TIP3   OH224424   0.051   5.576   0.451 -0.0420  0.3189  0.2250
  930TIP3    H124425   0.137   5.604   0.421 -0.2195 -0.1498 -0.7596
  930TIP3    H224426   0.066   5.489   0.489 -0.2908 -0.3805 -1.2216
  931TIP3   OH224427   2.188   6.643   8.004 -0.6532 -0.2339  0.4966
  931TIP3    H124428   2.278   6.662   8.027 -0.9323  0.0312  1.4237
  931TIP3    H224429   2.187   6.550   7.983 -0.1250 -0.1829  0.2285
  932TIP3   OH224430   1.638   5.413   1.300  0.1611  0.0312  0.1465
  932TIP3    H124431   1.626   5.396   1.207 -0.0172 -2.1348  0.5097
  932TIP3    H224432   1.702   5.484   1.303  0.3322  0.0011 -1.6077
  933TIP3   OH224433   3.628   2.011   8.428  0.4520  0.0054  0.2572
  933TIP3    H124434   3.542   2.038   8.459  0.5948  0.1243  0.5485
  933TIP3    H224435   3.639   1.922   8.461 -0.1656 -0.5696 -0.9919
  934TIP3   OH224436   3.091   2.392   1.743 -0.2816  0.2076 -0.2115
  934TIP3    H124437   3.127   2.307   1.716 -0.0597 -0.2744  1.4783
  934TIP3    H224438   3.157   2.456   1.715  1.1716 -0.5106  1.3697
  935TIP3   OH224439   0.014   2.241   1.201  0.4666 -0.7408 -0.0863
  935TIP3    H124440   0.098   2.271   1.165 -0.7125  1.4022 -1.2627
  935TIP3    H224441  -0.002   2.297   1.276 -0.1144 -0.8274 -0.1387
  936TIP3   OH224442   5.423   2.843   8.147  0.2108 -0.6359  0.1173
  936TIP3    H124443   5.339   2.843   8.194 -0.3954 -1.3775 -0.9256
  936TIP3    H224444   5.425   2.929   8.104 -0.5585 -1.0327 -0.7546
  937TIP3   OH224445   5.208   2.228   8.366  0.9004 -0.1227  0.1614
  937TIP3    H124446   5.211   2.314   8.406  0.1653  0.8123 -1.6743
  937TIP3    H224447   5.257   2.238   8.284 -0.6288 -0.9422 -0.9065
  938TIP3   OH224448   4.481   2.727   7.974 -0.3606 -0.2675 -0.2191
  938TIP3    H124449   4.386   2.739   7.977 -0.5945 -1.8901 -0.2681
  938TIP3    H224450   4.504   2.692   8.060  0.0778 -0.5397 -0.4408
  939TIP3   OH224451   5.044   3.835   0.476  0.1491  0.5125 -0.0053
  939TIP3    H124452   4.967   3.892   0.474 -0.2016  0.0356 -1.5174
  939TIP3    H224453   5.021   3.766   0.538 -1.0114 -0.0489 -0.9954
  940TIP3   OH224454   1.213   4.241   1.866 -0.3469  0.0838  0.1054
  940TIP3    H124455   1.161   4.321   1.865 -0.9067 -0.2312  1.6349
  940TIP3    H224456   1.153   4.172   1.840 -0.2525 -0.0476  0.2345
  941TIP3   OH224457   3.806   4.287   1.473  0.7391  0.2123  0.3060
  941TIP3    H124458   3.728   4.243   1.438  1.6564  0.4153 -2.1994
  941TIP3    H224459   3.782   4.379   1.475 -0.0011  0.0280  2.2819
  942TIP3   OH224460   6.734   1.833   7.851 -0.6633  0.0618  0.4305
  942TIP3    H124461   6.672   1.778   7.803 -0.1881  0.4594 -0.6589
  942TIP3    H224462   6.725   1.919   7.811  0.3591  0.1969  0.4828
  943TIP3   OH224463   0.036   5.664   2.083  0.7131  0.3144  0.3110
  943TIP3    H124464  -0.009   5.684   2.164 -1.1442 -0.3514 -0.5046
  943TIP3    H224465   0.095   5.592   2.105  0.6841  0.5521  1.1892
  944TIP3   OH224466   3.495   1.167   1.345 -0.0173  0.1574  0.6898
  944TIP3    H124467   3.575   1.206   1.379 -0.9339  0.7854  2.2112
  944TIP3    H224468   3.448   1.135   1.422 -0.7000 -1.2749 -0.2642
  945TIP3   OH224469   0.973   1.372   1.795 -0.6898  0.3404 -0.1640
  945TIP3    H124470   0.887   1.409   1.775 -0.6403  0.1467 -0.7663
  945TIP3    H224471   0.973   1.361   1.890 -1.9371 -1.0763 -0.2930
  946TIP3   OH224472   2.978   3.327   0.563 -0.1950  0.4673  0.0254
  946TIP3    H124473   2.978   3.332   0.658  1.2524 -0.4334  0.1036
  946TIP3    H224474   3.061   3.367   0.537 -0.2172 -0.0136 -0.8109
  947TIP3   OH224475   5.324   5.327   0.590 -0.0804  0.5121 -0.4460
  947TIP3    H124476   5.339   5.249   0.537 -0.8052 -0.5759  0.9077
  947TIP3    H224477   5.317   5.398   0.526  1.1778 -0.4069 -1.6671
  948TIP3   OH224478   1.798   2.239   2.233 -0.4602 -0.4289 -0.0473
  948TIP3    H124479   1.882   2.236   2.188  0.6557 -2.2846  1.9742
  948TIP3    H224480   1.761   2.151   2.220 -0.3665 -0.8353  2.0189
  949TIP3   OH224481   6.695   3.248   1.791 -0.7412  0.7287 -0.5493
  949TIP3    H124482   6.626   3.182   1.798  0.4705 -0.7274 -1.7622
  949TIP3    H224483   6.701   3.286   1.879 -2.7789  0.6257 -0.3097
  950TIP3   OH224484   6.732   2.659   1.933  0.4483  0.5741 -0.0738
  950TIP3    H124485   6.748   2.648   1.839  1.2031  2.3783 -0.1946
  950TIP3    H224486   6.638   2.679   1.939  0.7954  2.6442 -0.7252
  951TIP3   OH224487   4.160   4.161   2.642  0.0834  0.0977  0.1361
  951TIP3    H124488   4.099   4.233   2.622 -2.2378 -1.5143  1.0407
  951TIP3    H224489   4.214   4.196   2.713 -1.0137  0.9702  0.5867
  952TIP3   OH224490   3.389   2.971   8.108 -0.2522  0.0203  0.1364
  952TIP3    H124491   3.437   2.970   8.026 -1.1160 -1.7116 -0.4033
  952TIP3    H224492   3.299   2.993   8.083 -0.2685  0.7869  0.8095
  953TIP3   OH224493   4.129   3.173   8.658 -0.2379 -0.0156  0.3320
  953TIP3    H124494   4.052   3.180   8.601 -1.7734  1.8444  2.4531
  953TIP3    H224495   4.157   3.263   8.672  1.3321 -0.5648  0.9438
  954TIP3   OH224496   4.877   0.363   0.452 -0.4060  0.5019 -0.2751
  954TIP3    H124497   4.945   0.295   0.455  0.4672  1.3924  0.9836
  954TIP3    H224498   4.795   0.314   0.444  0.3280 -0.6130 -1.4035
  955TIP3   OH224499   1.089   4.075   3.515  0.2500  0.3622  0.2479
  955TIP3    H124500   1.034   4.075   3.593 -0.9152 -0.2666 -0.5468
  955TIP3    H224501   1.127   3.987   3.513  1.4575  0.8396  0.8772
  956TIP3   OH224502   3.089   1.099   2.786 -0.1061  0.1815  0.0760
  956TIP3    H124503   3.069   1.120   2.877 -0.0931  1.7496 -0.2511
  956TIP3    H224504   3.088   1.003   2.782 -0.5198  0.1016  1.6216
  957TIP3   OH224505   0.165   3.176   0.300  0.5936 -0.0608  0.2362
  957TIP3    H124506   0.076   3.186   0.266 -0.4826 -2.2745  2.1660
  957TIP3    H224507   0.209   3.121   0.235  0.8908  1.7304 -1.1554
  958TIP3   OH224508   4.079   1.675   3.325 -0.1589  0.0289  0.0197
  958TIP3    H124509   3.998   1.638   3.359 -1.8812  1.7589 -1.9600
  958TIP3    H224510   4.109   1.734   3.393 -0.3119 -0.9171  0.9311
  959TIP3   OH224511   6.211   4.526   0.784  0.4706  0.0468  0.2612
  959TIP3    H124512   6.275   4.457   0.798  1.4700  0.7761 -0.5241
  959TIP3    H224513   6.259   4.593   0.734  0.4294  2.6231  3.3618
  960TIP3   OH224514   3.661   0.785   1.505 -0.0792  0.6549  0.2765
  960TIP3    H124515   3.737   0.843   1.505  1.0989 -0.8264  0.0539
  960TIP3    H224516   3.666   0.741   1.420 -1.0860  0.3953  0.3489
  961TIP3   OH224517   1.317   5.273   2.065  0.0673  0.8731  0.0047
  961TIP3    H124518   1.324   5.237   2.153 -0.1060  1.1324  0.1265
  961TIP3    H224519   1.270   5.356   2.076 -0.6930  0.5102 -0.4401
  962TIP3   OH224520   5.506   1.950   0.408  0.4232 -0.1833 -0.2818
  962TIP3    H124521   5.571   1.989   0.467  1.2620 -0.3407 -1.0787
  962TIP3    H224522   5.547   1.869   0.379 -0.0630 -0.2004 -0.9263
  963TIP3   OH224523   2.741   1.905   8.416 -0.0162 -0.0487  0.0399
  963TIP3    H124524   2.691   1.967   8.362 -0.4155  0.1575  0.6257
  963TIP3    H224525   2.674   1.847   8.453  0.3720 -0.9298 -0.6233
  964TIP3   OH224526   2.836   5.960   0.444  0.6016  0.1295  0.1868
  964TIP3    H124527   2.741   5.970   0.450  0.3961 -0.9083 -0.9812
  964TIP3    H224528   2.871   6.041   0.481 -0.7521  0.8696 -0.0920
  965TIP3   OH224529   4.301   5.808   2.246  0.2536  0.0181 -0.2080
  965TIP3    H124530   4.326   5.727   2.202  1.5832  1.6790 -2.7234
  965TIP3    H224531   4.205   5.808   2.244  0.0439 -2.6015  2.2250
  966TIP3   OH224532   6.175   4.867   8.563 -0.0740  0.6007  0.2483
  966TIP3    H124533   6.081   4.853   8.551 -0.2619  1.2663  0.9145
  966TIP3    H224534   6.185   4.962   8.566  0.5654  0.5234  0.6508
  967TIP3   OH224535   0.951   0.398   1.543 -0.1943 -0.5605  0.1951
  967TIP3    H124536   0.878   0.377   1.601 -0.7407  0.0131 -0.2666
  967TIP3    H224537   0.916   0.387   1.455 -0.4137  1.8034 -0.0794
  968TIP3   OH224538   1.313   4.453   0.709 -0.1571  0.6447 -0.3437
  968TIP3    H124539   1.240   4.451   0.647 -0.1495  1.5874 -0.4076
  968TIP3    H224540   1.272   4.440   0.795 -0.4836  1.6382 -0.3293
  969TIP3   OH224541   1.293   2.612   7.516  0.2077 -0.0921  0.2710
  969TIP3    H124542   1.357   2.666   7.469  0.3330  0.2960  0.8726
  969TIP3    H224543   1.265   2.666   7.590 -0.0159 -0.6700  0.6207
  970TIP3   OH224544   4.521   0.250   0.771  0.3859  0.5760  0.0695
  970TIP3    H124545   4.603   0.297   0.780 -0.6669  2.3532  0.9421
  970TIP3    H224546   4.475   0.294   0.700  0.5484 -1.0163 -1.0705
  971TIP3   OH224547   0.296   0.773   2.175  0.7445  0.5174 -0.0955
  971TIP3    H124548   0.281   0.760   2.269 -1.4609  1.9952 -0.1691
  971TIP3    H224549   0.392   0.775   2.167  0.9992  0.5603  2.1492
  972TIP3   OH224550   0.872   3.322   0.810  0.0815 -0.2682  0.2364
  972TIP3    H124551   0.828   3.407   0.810  1.5359  0.5316  1.7500
  972TIP3    H224552   0.896   3.307   0.902 -0.5374 -2.5533  0.1059
  973TIP3   OH224553   3.665   2.996   8.321 -0.5085 -0.3685  0.2165
  973TIP3    H124554   3.708   2.931   8.377  3.4661  1.0255 -0.9010
  973TIP3    H224555   3.654   2.953   8.237 -2.5428 -1.0859  0.7937
  974TIP3   OH224556   4.865   0.549   2.077  0.2747  0.0312 -0.0490
  974TIP3    H124557   4.847   0.539   2.170  1.0833  0.6042  0.1731
  974TIP3    H224558   4.844   0.464   2.039  0.4420 -0.3592  0.7280
  975TIP3   OH224559   0.693   2.992   2.646 -0.2309 -0.0418  0.2057
  975TIP3    H124560   0.700   3.012   2.739  2.9215 -1.0556  0.3091
  975TIP3    H224561   0.702   2.897   2.640 -0.2680  0.0069 -1.1351
  976TIP3   OH224562   2.327   0.031   0.454  0.6887  0.1770 -1.1342
  976TIP3    H124563   2.368  -0.031   0.393  0.8043 -0.9103  0.0212
  976TIP3    H224564   2.397   0.056   0.514  0.7530  1.7815 -1.8182
  977TIP3   OH224565   5.789   1.672   2.147 -0.0548 -0.1360  0.5319
  977TIP3    H124566   5.849   1.698   2.078 -2.2289  0.2762 -1.3254
  977TIP3    H224567   5.776   1.751   2.199  0.7542 -0.1537  0.7708
  978TIP3   OH224568   3.877   4.630   0.780  0.1773  0.3474 -0.0396
  978TIP3    H124569   3.785   4.655   0.784  0.1976  0.6227 -1.0908
  978TIP3    H224570   3.875   4.534   0.784 -0.2172  0.3117 -0.8012
  979TIP3   OH224571   1.993   1.845   0.670  0.9486  0.0503 -0.0067
  979TIP3    H124572   1.984   1.935   0.640  1.4406  0.4881  1.1171
  979TIP3    H224573   1.903   1.815   0.681  0.7677  0.9644  1.1993
  980TIP3   OH224574   4.824   5.653   1.203  0.1423  0.2019 -0.1846
  980TIP3    H124575   4.794   5.676   1.290 -0.2655  0.3069 -0.3494
  980TIP3    H224576   4.885   5.581   1.216 -0.0707  0.0875  0.1687
  981TIP3   OH224577   4.027   1.536   7.773  0.2166 -0.1380  0.2036
  981TIP3    H124578   3.976   1.611   7.803 -0.3502 -0.2848 -0.3654
  981TIP3    H224579   3.967   1.461   7.781  0.1401 -0.2203 -1.0089
  982TIP3   OH224580   1.252   0.375   2.684  0.4792  0.0507 -0.5152
  982TIP3    H124581   1.269   0.443   2.619  0.2378  0.6814  0.0763
  982TIP3    H224582   1.313   0.393   2.756 -0.9290  0.8458  0.5190
  983TIP3   OH224583   0.470   5.396   1.505 -0.0665  0.0398 -0.4738
  983TIP3    H124584   0.453   5.475   1.556  0.5750 -0.4158  0.4690
  983TIP3    H224585   0.408   5.401   1.432 -1.0736  0.6496  0.3934
  984TIP3   OH224586   5.199   5.499   2.252  0.0527  0.8535 -0.0419
  984TIP3    H124587   5.268   5.565   2.246  0.7981  0.1043  0.3041
  984TIP3    H224588   5.156   5.502   2.166  1.0261  0.7594 -0.5408
  985TIP3   OH224589   5.116   2.513   0.690  0.2608 -1.0170 -0.2357
  985TIP3    H124590   5.057   2.472   0.626 -0.4623 -0.8727  0.3162
  985TIP3    H224591   5.178   2.563   0.637 -1.2853  0.4164 -0.8080
  986TIP3   OH224592   1.262   1.045   2.037 -0.0224  0.2920 -0.6766
  986TIP3    H124593   1.311   1.098   2.100 -0.7132  0.6812 -0.4618
  986TIP3    H224594   1.300   1.068   1.952 -1.5788  2.6461 -0.8225
  987TIP3   OH224595   4.293   2.065   2.370 -0.3968 -0.2771 -0.8013
  987TIP3    H124596   4.265   2.009   2.442 -0.9419  1.7270  0.6309
  987TIP3    H224597   4.359   2.013   2.324 -0.1683 -1.7240  1.0175
  988TIP3   OH224598   6.523   2.034   8.655  0.1367  0.0563  0.3985
  988TIP3    H124599   6.489   2.090   8.584  1.3843  0.0229 -0.2546
  988TIP3    H224600   6.550   1.954   8.611  1.2417  0.1641  0.8437
  989TIP3   OH224601   0.808   3.847   7.473  0.2043  0.2641  0.0851
  989TIP3    H124602   0.853   3.893   7.402  0.2951  1.0688  0.6481
  989TIP3    H224603   0.784   3.762   7.436  0.7162  0.4722 -0.7378
  990TIP3   OH224604   3.284   0.091   1.309 -0.7363  0.0714 -0.8510
  990TIP3    H124605   3.363   0.146   1.309 -0.2470 -0.6101  0.2786
  990TIP3    H224606   3.247   0.103   1.221  0.3126  0.8405 -1.2085
  991TIP3   OH224607   0.469   2.614   2.031  1.0004 -0.7313  0.2321
  991TIP3    H124608   0.546   2.585   1.982  0.0228 -3.0986 -0.0512
  991TIP3    H224609   0.416   2.535   2.041 -0.9788  0.6292  1.1996
  992TIP3   OH224610   3.094   1.644   8.431 -0.1811  0.6940 -0.3746
  992TIP3    H124611   3.063   1.555   8.413 -0.5662  0.4105  1.4632
  992TIP3    H224612   3.189   1.638   8.431 -0.2100  0.1365  0.3173
  993TIP3   OH224613   0.217   4.586   3.638 -0.4679  0.6848 -0.1611
  993TIP3    H124614   0.141   4.644   3.642 -0.6069  0.4640  0.7451
  993TIP3    H224615   0.214   4.548   3.550 -0.9427  1.2889 -0.4144
  994TIP3   OH224616   2.085   5.177   2.855  0.4545 -0.1894  0.4096
  994TIP3    H124617   2.129   5.110   2.802  0.0756  0.0746 -0.2414
  994TIP3    H224618   2.104   5.151   2.945  0.8784 -0.7976  0.1552
  995TIP3   OH224619   1.767   0.905   8.095  0.1568  0.1267  0.4410
  995TIP3    H124620   1.687   0.853   8.101  0.5857 -0.7130 -0.9116
  995TIP3    H224621   1.770   0.935   8.004  1.2374  0.3850  0.5480
  996TIP3   OH224622   0.472   5.648   0.950 -0.2822 -0.4096 -0.1174
  996TIP3    H124623   0.504   5.558   0.950  0.4802 -0.1795  1.4839
  996TIP3    H224624   0.400   5.648   1.014 -2.4488 -0.5362 -2.3964
  997TIP3   OH224625   0.973   1.186   7.606  0.3399 -0.1664 -0.4364
  997TIP3    H124626   0.927   1.168   7.524  0.8670 -0.0128 -0.7724
  997TIP3    H224627   1.018   1.104   7.627  0.7735  0.0018 -0.6810
  998TIP3   OH224628   6.341   0.163   1.638 -0.2803  0.0146  0.6724
  998TIP3    H124629   6.350   0.230   1.569  1.1191 -2.7498 -2.0773
  998TIP3    H224630   6.298   0.209   1.710 -2.8360  2.8998 -2.3560
  999TIP3   OH224631   0.157   3.882   2.533  0.2279  0.0154 -0.6975
  999TIP3    H124632   0.081   3.827   2.552  0.3179  0.4718  1.1875
  999TIP3    H224633   0.231   3.834   2.570  0.6479  0.2875 -1.1692
 1000TIP3   OH224634   2.869   6.422   7.187 -0.2225  0.1266  0.0078
 1000TIP3    H124635   2.935   6.377   7.240 -0.2920  0.2649  0.2115
 1000TIP3    H224636   2.785   6.389   7.219 -0.2518 -0.0838 -0.2828
 1001TIP3   OH224637   0.855   1.802   1.391  0.6244  0.0724 -0.6699
 1001TIP3    H124638   0.852   1.714   1.355 -2.7220  0.7590 -2.4043
 1001TIP3    H224639   0.886   1.790   1.481  1.9324 -2.5864 -1.3761
 1002TIP3   OH224640   3.709   0.421   0.177  0.2192  0.0472  0.0603
 1002TIP3    H124641   3.655   0.500   0.189 -1.8161 -1.5765  2.7199
 1002TIP3    H224642   3.742   0.402   0.264  0.0359 -2.4257 -0.3505
 1003TIP3   OH224643   3.236   0.748   1.214  0.2028 -0.7137 -0.0064
 1003TIP3    H124644   3.249   0.801   1.136  0.2279 -0.2589  0.3013
 1003TIP3    H224645   3.322   0.710   1.232  0.8568  1.2134  1.2511
 1004TIP3   OH224646   1.501   2.917   2.097 -0.1322  0.0771 -0.1804
 1004TIP3    H124647   1.426   2.975   2.083 -1.1033 -1.4997 -2.1781
 1004TIP3    H224648   1.499   2.896   2.190 -3.0708 -0.9525 -0.3625
 1005TIP3   OH224649   1.536   3.079   1.219  0.5907 -0.1073 -0.7601
 1005TIP3    H124650   1.479   3.108   1.290  2.3644 -1.0822  1.1911
 1005TIP3    H224651   1.551   2.986   1.237  2.8409  0.1413 -1.1071
 1006TIP3   OH224652   6.885   2.412   7.914 -0.1543  0.3097  0.8652
 1006TIP3    H124653   6.896   2.319   7.896  1.8537  0.7219 -0.3264
 1006TIP3    H224654   6.933   2.427   7.996  0.6111  0.5037  0.3902
 1007TIP3   OH224655   6.165   0.365   0.338  0.2367  0.2384  0.3402
 1007TIP3    H124656   6.227   0.437   0.337  0.6515 -0.0230 -3.0175
 1007TIP3    H224657   6.080   0.406   0.354  0.7377  1.1683  0.6485
 1008TIP3   OH224658   2.150   0.747   7.378 -0.5284 -0.2719 -0.1420
 1008TIP3    H124659   2.215   0.705   7.322  0.8379  2.4021 -0.7386
 1008TIP3    H224660   2.135   0.685   7.449  1.7721 -1.4828 -0.6348
 1009TIP3   OH224661   4.617   1.310   1.599  0.0053  0.1460  0.0967
 1009TIP3    H124662   4.619   1.402   1.571 -1.3620  0.6605  1.5384
 1009TIP3    H224663   4.675   1.308   1.674  1.1004 -0.5049 -0.7396
 1010TIP3   OH224664   5.419   6.373   2.191  0.0648 -0.8161  0.5397
 1010TIP3    H124665   5.484   6.437   2.219  0.2014 -0.5299 -0.3928
 1010TIP3    H224666   5.415   6.383   2.095 -0.4588 -1.6740  0.4593
 1011TIP3   OH224667   5.015   2.156   1.371  0.1787  0.0118  0.3435
 1011TIP3    H124668   4.937   2.211   1.373  0.7557  0.8504  0.2979
 1011TIP3    H224669   4.994   2.087   1.308  0.4960  1.8399 -1.9162
 1012TIP3   OH224670   3.431   3.728   2.596  0.2097  0.4887 -0.4658
 1012TIP3    H124671   3.469   3.720   2.684  1.8117  2.1979 -0.9398
 1012TIP3    H224672   3.374   3.805   2.601  0.4506  0.7023 -0.9658
 1013TIP3   OH224673   4.364   5.155   7.358  0.2161  0.2735 -0.1396
 1013TIP3    H124674   4.361   5.246   7.387  3.1199  0.0904  1.0764
 1013TIP3    H224675   4.333   5.105   7.434 -1.0837  0.1703 -0.7030
 1014TIP3   OH224676   1.931   3.584   2.725 -0.6885 -0.1972 -0.2731
 1014TIP3    H124677   2.007   3.608   2.671 -0.8184  0.9149  0.0082
 1014TIP3    H224678   1.907   3.665   2.769 -1.4466 -0.7709  0.3943
 1015TIP3   OH224679   4.956   2.818   2.265  0.0771 -0.0511  0.2138
 1015TIP3    H124680   4.903   2.830   2.187  1.8898  0.1228 -1.0604
 1015TIP3    H224681   4.994   2.731   2.256  1.6998  0.6349 -0.0543
 1016TIP3   OH224682   0.221   2.318   8.174  0.3917  0.2270 -0.6081
 1016TIP3    H124683   0.276   2.302   8.097  1.8787  2.8845 -0.2115
 1016TIP3    H224684   0.179   2.402   8.157 -0.8826 -0.1263  0.6265
 1017TIP3   OH224685   5.760   0.671   2.047 -0.0243 -0.2450 -0.0863
 1017TIP3    H124686   5.665   0.676   2.060 -0.2569 -1.4575 -1.0845
 1017TIP3    H224687   5.797   0.724   2.117 -1.3749 -1.1504  1.3899
 1018TIP3   OH224688   4.715   5.904   7.756 -0.7172 -0.5980  0.1305
 1018TIP3    H124689   4.723   5.852   7.676 -1.4465 -0.2628 -0.1780
 1018TIP3    H224690   4.676   5.987   7.726  1.5505  0.6525  0.4078
 1019TIP3   OH224691   3.742   0.810   8.012 -0.2724 -0.2640 -0.2624
 1019TIP3    H124692   3.686   0.788   8.087 -1.1644  0.9758 -0.5368
 1019TIP3    H224693   3.710   0.754   7.941 -1.3692  0.6215 -0.4897
 1020TIP3   OH224694   4.051   2.894   0.408  0.3112  0.0865 -0.6554
 1020TIP3    H124695   4.074   2.957   0.476 -1.2492 -1.2187  1.2094
 1020TIP3    H224696   4.002   2.945   0.344  1.5636  1.3054 -0.6663
 1021TIP3   OH224697   0.454   2.512   8.247  0.2133 -0.3461 -0.8069
 1021TIP3    H124698   0.519   2.526   8.178  0.0415  0.3338 -0.8475
 1021TIP3    H224699   0.377   2.477   8.201 -0.3999  1.3991 -1.2298
 1022TIP3   OH224700   1.914   0.439   0.884  0.3003 -0.2125  0.4470
 1022TIP3    H124701   1.911   0.517   0.939 -1.3042  0.0032  0.1036
 1022TIP3    H224702   1.921   0.366   0.946  3.6252  0.1951  0.7292
 1023TIP3   OH224703   5.358   3.372   2.310  0.0373 -0.4790  0.3199
 1023TIP3    H124704   5.309   3.411   2.383 -0.0549  0.4848 -0.2451
 1023TIP3    H224705   5.351   3.436   2.240 -0.1705 -1.5520 -0.6609
 1024TIP3   OH224706   6.606   6.149   1.539 -0.2735 -0.0679  0.4863
 1024TIP3    H124707   6.626   6.057   1.523  0.5122  0.2553 -0.4342
 1024TIP3    H224708   6.520   6.162   1.498 -0.3943 -0.3985  0.6362
 1025TIP3   OH224709   1.534   5.185   1.947 -0.2117  0.2634 -0.5648
 1025TIP3    H124710   1.538   5.238   1.867  0.6257  0.5079 -0.3724
 1025TIP3    H224711   1.458   5.218   1.994 -2.6308 -1.9154 -2.6383
 1026TIP3   OH224712   3.782   3.024   3.146 -0.2111  0.0386 -0.0739
 1026TIP3    H124713   3.757   2.933   3.162  1.0778 -0.0856  1.5243
 1026TIP3    H224714   3.877   3.020   3.132 -0.2123  1.1019 -0.4466
 1027TIP3   OH224715   6.147   0.815   0.272 -0.2971 -0.4355 -0.0673
 1027TIP3    H124716   6.072   0.778   0.319  0.4653 -1.6092  0.2747
 1027TIP3    H224717   6.222   0.763   0.302  0.5817  0.3873 -0.7717
 1028TIP3   OH224718   2.445   4.845   7.482  0.7147 -0.2659 -0.4691
 1028TIP3    H124719   2.387   4.920   7.490  1.6397  0.6183 -1.6394
 1028TIP3    H224720   2.387   4.771   7.466 -0.0854  0.7271 -2.4562
 1029TIP3   OH224721   3.299   1.735   1.492  0.3358 -0.0850 -0.4596
 1029TIP3    H124722   3.305   1.667   1.425  0.7118  0.4997 -1.0251
 1029TIP3    H224723   3.317   1.688   1.574  0.0900 -0.7611 -0.7811
 1030TIP3   OH224724   5.984   1.128   2.267  0.0889  0.3434  0.1516
 1030TIP3    H124725   5.919   1.141   2.336 -1.0420 -2.2805 -0.3195
 1030TIP3    H224726   6.059   1.088   2.312  0.4574  1.1726  0.2918
 1031TIP3   OH224727   4.101   5.316   0.671  0.4565  0.5728  0.2690
 1031TIP3    H124728   4.013   5.284   0.651  0.8754 -0.5694  0.1642
 1031TIP3    H224729   4.093   5.412   0.670 -0.6793  0.4863 -0.1722
 1032TIP3   OH224730   6.212   5.711   0.514  0.0404  0.2076 -0.3933
 1032TIP3    H124731   6.151   5.686   0.583  1.7393 -3.6419 -0.0269
 1032TIP3    H224732   6.160   5.708   0.433 -0.4615 -2.7640 -0.0764
 1033TIP3   OH224733   5.500   4.915   8.287 -0.0163  0.2417 -0.0242
 1033TIP3    H124734   5.542   4.851   8.230  1.8005 -0.0323  1.4922
 1033TIP3    H224735   5.527   5.000   8.252 -0.2139  0.1155 -0.4827
 1034TIP3   OH224736   6.617   4.456   0.997  0.3811 -0.0409  0.0194
 1034TIP3    H124737   6.601   4.551   0.999 -0.0912 -0.0193 -2.0645
 1034TIP3    H224738   6.541   4.421   0.950  0.8964 -1.3719  0.1594
 1035TIP3   OH224739   1.623   4.827   8.175 -0.5753  0.0529  0.7234
 1035TIP3    H124740   1.706   4.819   8.221 -0.9778 -2.6283  1.1221
 1035TIP3    H224741   1.629   4.764   8.103 -1.3914  1.5053 -0.6855
 1036TIP3   OH224742   4.622   4.753   0.501 -0.0011  0.4756 -0.3319
 1036TIP3    H124743   4.579   4.703   0.432 -0.2442  0.4862 -0.1888
 1036TIP3    H224744   4.598   4.844   0.484 -1.7027  0.3069  0.8989
 1037TIP3   OH224745   6.250   2.856   8.181  0.7038 -0.1450 -0.7071
 1037TIP3    H124746   6.220   2.788   8.242  0.1842  1.0127  0.3887
 1037TIP3    H224747   6.344   2.863   8.198  0.2090  1.8393  1.8307
 1038TIP3   OH224748   4.196   0.251   2.618 -0.5690  0.8011 -0.3747
 1038TIP3    H124749   4.122   0.301   2.652 -0.3078 -0.4797  2.3234
 1038TIP3    H224750   4.268   0.269   2.678  0.8202  0.5826 -1.8863
 1039TIP3   OH224751   1.024   4.453   8.401 -0.1129 -0.5878  0.0369
 1039TIP3    H124752   0.983   4.372   8.371 -2.1984  0.4860 -0.1990
 1039TIP3    H224753   1.113   4.428   8.424 -0.5798 -2.8515 -0.4121
 1040TIP3   OH224754   6.843   2.997   1.796 -0.9895  1.0517  0.5113
 1040TIP3    H124755   6.750   2.985   1.779 -1.0498  0.8936  0.9516
 1040TIP3    H224756   6.847   3.058   1.869 -0.8834 -1.9202  3.2071
 1041TIP3   OH224757   3.741   1.738   2.064 -0.4019  0.0860 -0.0381
 1041TIP3    H124758   3.753   1.805   1.996  0.3923 -1.7069 -1.7725
 1041TIP3    H224759   3.677   1.677   2.026 -0.7914 -0.3908  1.3284
 1042TIP3   OH224760   1.092   1.733   0.260  0.0871 -0.8358 -0.1891
 1042TIP3    H124761   1.052   1.797   0.319  0.1112 -1.3801  0.4414
 1042TIP3    H224762   1.162   1.780   0.216 -0.6391 -0.1175 -0.6075
 1043TIP3   OH224763   1.073   2.458   2.688 -0.1532 -0.4430 -0.2296
 1043TIP3    H124764   0.998   2.498   2.644 -1.1914 -0.7423  1.2099
 1043TIP3    H224765   1.103   2.390   2.628 -1.5195 -0.8323 -0.4983
 1044TIP3   OH224766   3.741   6.721   7.740  0.3187  0.0349  0.5711
 1044TIP3    H124767   3.669   6.779   7.761 -0.1896 -0.1138 -0.6545
 1044TIP3    H224768   3.812   6.780   7.712 -0.2004  0.1039 -0.6837
 1045TIP3   OH224769   0.263   2.275   1.545 -0.5304 -0.1690  0.3667
 1045TIP3    H124770   0.234   2.277   1.454  0.4458  0.0127  0.0443
 1045TIP3    H224771   0.346   2.226   1.543 -1.1080 -1.2432  1.3448
 1046TIP3   OH224772   3.005   0.112   2.395 -0.2801 -0.0573  0.0331
 1046TIP3    H124773   2.933   0.094   2.335 -0.0630 -0.5436 -0.0821
 1046TIP3    H224774   3.067   0.041   2.380  1.5031  1.7602 -1.8412
 1047TIP3   OH224775   6.741   1.559   2.582  0.4469 -0.5375 -0.5889
 1047TIP3    H124776   6.793   1.541   2.659 -0.1534 -2.9711 -0.6495
 1047TIP3    H224777   6.654   1.580   2.616  0.6651  0.3856 -0.5757
 1048TIP3   OH224778   2.094   3.020   3.127  0.5903  0.1818 -0.0629
 1048TIP3    H124779   2.015   2.993   3.082  0.6534  2.0938 -1.4504
 1048TIP3    H224780   2.066   3.034   3.218 -1.3954  3.1569 -0.9586
 1049TIP3   OH224781   1.851   6.712   0.801 -0.0798 -0.0085  0.0169
 1049TIP3    H124782   1.911   6.653   0.755  1.6186  0.8848  0.9713
 1049TIP3    H224783   1.908   6.767   0.855 -1.6771  1.7195  0.0566
 1050TIP3   OH224784   6.192   3.387   3.542  0.6396  0.5321  0.4522
 1050TIP3    H124785   6.220   3.317   3.600  0.8833  0.0806 -0.1952
 1050TIP3    H224786   6.250   3.460   3.563  2.4025 -0.4089 -0.9100
 1051TIP3   OH224787   2.618   5.153   3.270 -0.3826 -0.1989  0.0051
 1051TIP3    H124788   2.593   5.131   3.359  0.6001  2.0040  0.8818
 1051TIP3    H224789   2.545   5.204   3.236 -0.2531 -0.0414 -0.0383
 1052TIP3   OH224790   3.125   0.425   8.578  0.0827  0.1629  0.3444
 1052TIP3    H124791   3.062   0.494   8.598 -0.1347  0.0268  0.1398
 1052TIP3    H224792   3.201   0.444   8.633 -0.0011  0.5278  0.3348
 1053TIP3   OH224793   4.000   4.915   7.604 -0.2873  0.2237 -0.3075
 1053TIP3    H124794   3.923   4.970   7.592 -0.7037  0.3848  2.4899
 1053TIP3    H224795   3.984   4.839   7.548 -3.0729 -0.3007  1.0293
 1054TIP3   OH224796   2.987   5.752   1.324  0.4022  0.0355 -0.3661
 1054TIP3    H124797   2.956   5.788   1.408 -1.7932 -0.1512 -1.0413
 1054TIP3    H224798   2.957   5.661   1.325  0.3801  0.0285 -1.3342
 1055TIP3   OH224799   2.559   4.934   8.217 -0.0411 -0.2449 -0.3615
 1055TIP3    H124800   2.563   5.028   8.235 -0.0359 -0.3789  0.3394
 1055TIP3    H224801   2.480   4.924   8.164 -1.3587 -0.1337  1.4863
 1056TIP3   OH224802   3.080   5.425   0.592  0.2757 -0.5581  0.0034
 1056TIP3    H124803   3.164   5.381   0.580  1.5518  1.6730  0.2714
 1056TIP3    H224804   3.092   5.513   0.557 -1.6930  0.0986  0.7794
 1057TIP3   OH224805   0.861   4.741   1.553 -0.1699  0.3598 -0.8385
 1057TIP3    H124806   0.799   4.669   1.563  0.4825 -0.2183 -0.9055
 1057TIP3    H224807   0.812   4.818   1.582 -0.2791 -0.3681  1.0392
 1058TIP3   OH224808   3.954   1.708   0.643 -0.0592  0.2220  0.5944
 1058TIP3    H124809   3.924   1.745   0.726  3.1558 -0.1619  2.0944
 1058TIP3    H224810   3.973   1.784   0.588  0.9896  0.6394  1.4988
 1059TIP3   OH224811   4.946   3.147   7.675  0.3063 -0.0145  0.1157
 1059TIP3    H124812   4.990   3.142   7.760  1.4741  2.1105 -0.2811
 1059TIP3    H224813   5.017   3.164   7.613 -0.6058 -0.8602 -1.2110
 1060TIP3   OH224814   5.251   6.735   8.314  0.3514  0.0048  0.2173
 1060TIP3    H124815   5.176   6.679   8.334  1.2480 -0.6336  1.9561
 1060TIP3    H224816   5.326   6.676   8.311  0.8798  0.6901 -1.1291
 1061TIP3   OH224817   6.600   3.498   2.587 -0.0638  0.1391 -0.3364
 1061TIP3    H124818   6.657   3.452   2.649  2.5283  1.2490 -1.7368
 1061TIP3    H224819   6.595   3.587   2.619 -0.2483  0.2781 -0.7357
 1062TIP3   OH224820   5.338   1.832   8.291 -0.4479 -0.8816  0.0561
 1062TIP3    H124821   5.323   1.799   8.203 -0.5524 -1.5263  0.3081
 1062TIP3    H224822   5.434   1.829   8.301 -0.3541  0.2290 -0.4185
 1063TIP3   OH224823   4.284   0.081   8.360 -0.4329 -0.1508 -0.4667
 1063TIP3    H124824   4.330   0.161   8.333  0.8532 -0.8883 -0.5564
 1063TIP3    H224825   4.338   0.010   8.324  0.3426 -1.1645  2.4115
 1064TIP3   OH224826   5.477   1.055   1.591  0.0786 -0.1745  0.8195
 1064TIP3    H124827   5.424   1.010   1.525  0.8367  0.0140  0.0660
 1064TIP3    H224828   5.461   1.006   1.672 -2.2436  0.6400  0.9384
 1065TIP3   OH224829   6.394   5.166   1.898 -0.0795  0.0516  0.0270
 1065TIP3    H124830   6.412   5.249   1.943 -0.0856 -0.9880  2.0535
 1065TIP3    H224831   6.396   5.101   1.968  1.6129 -1.9179 -1.7300
 1066TIP3   OH224832   5.427   6.628   3.195  0.5749  0.3494  0.1104
 1066TIP3    H124833   5.485   6.595   3.263  0.1028  1.7714  1.2628
 1066TIP3    H224834   5.339   6.606   3.224  0.3751  0.8032 -0.1225
 1067TIP3   OH224835   6.037   2.408   8.446 -0.1889 -0.4121 -0.5267
 1067TIP3    H124836   6.086   2.326   8.447  2.9917  1.2069 -3.1675
 1067TIP3    H224837   5.977   2.399   8.371  2.1642  0.4962 -2.6817
 1068TIP3   OH224838   5.264   1.470   7.896 -0.2215  0.1254  0.4227
 1068TIP3    H124839   5.201   1.399   7.891  0.7186 -0.8336  1.5006
 1068TIP3    H224840   5.315   1.463   7.815 -0.6222  0.0608  0.1748
 1069TIP3   OH224841   2.953   0.980   8.496  0.2355  0.0959  0.1774
 1069TIP3    H124842   3.039   1.002   8.461  0.2545 -0.6307 -0.2678
 1069TIP3    H224843   2.892   1.035   8.446  0.3344 -0.3441 -0.4410
 1070TIP3   OH224844   6.387   6.212   0.819 -0.1623  0.2662  0.4263
 1070TIP3    H124845   6.307   6.217   0.767 -1.0329 -0.1255  1.6925
 1070TIP3    H224846   6.458   6.218   0.754 -1.1976  0.7024 -0.7051
 1071TIP3   OH224847   2.500   2.274   1.290  0.4061  0.1948  0.1036
 1071TIP3    H124848   2.526   2.366   1.298  3.3003 -0.6125  1.3756
 1071TIP3    H224849   2.493   2.243   1.380  0.1387 -0.9890 -0.3084
 1072TIP3   OH224850   6.223   1.945   0.391  0.1528  0.6787  0.2059
 1072TIP3    H124851   6.294   1.901   0.437  1.7623  1.7972 -1.1085
 1072TIP3    H224852   6.216   1.900   0.307 -1.6321 -0.2550  0.7815
 1073TIP3   OH224853   3.198   6.282   0.453 -0.5706  0.1823 -0.7854
 1073TIP3    H124854   3.270   6.337   0.483 -0.7996 -0.5292  1.1501
 1073TIP3    H224855   3.131   6.344   0.423 -0.3648  0.9457  0.2885
 1074TIP3   OH224856   5.181   3.521   2.456 -0.4254 -0.5495  0.6192
 1074TIP3    H124857   5.191   3.470   2.536 -2.3346 -3.1952 -0.6579
 1074TIP3    H224858   5.090   3.550   2.457  0.2333  1.6863  0.5980
 1075TIP3   OH224859   2.191   0.424   1.553 -0.3362 -0.4581 -0.3416
 1075TIP3    H124860   2.142   0.348   1.520  0.1849 -0.4870 -1.0694
 1075TIP3    H224861   2.125   0.476   1.599 -1.3482  0.1399 -2.3596
 1076TIP3   OH224862   5.810   1.647   8.045  0.2852 -0.2558 -0.2240
 1076TIP3    H124863   5.827   1.555   8.021 -0.1780 -0.0307 -1.4750
 1076TIP3    H224864   5.728   1.668   8.001  1.3735  1.3440 -1.6104
 1077TIP3   OH224865   0.766   4.843   0.986  0.0162  0.4244 -0.7742
 1077TIP3    H124866   0.817   4.864   1.064  0.0924  1.9894 -1.2265
 1077TIP3    H224867   0.776   4.748   0.977  0.0717  0.2191  1.0580
 1078TIP3   OH224868   5.886   2.323   8.201  0.0830 -0.1002 -0.2958
 1078TIP3    H124869   5.976   2.295   8.184  0.7227  0.5761  1.7639
 1078TIP3    H224870   5.847   2.331   8.113  1.7557 -1.1883 -1.1947
 1079TIP3   OH224871   5.905   4.580   0.410 -0.4391 -0.4666 -0.2491
 1079TIP3    H124872   5.980   4.521   0.419  0.2755  0.2633 -1.2061
 1079TIP3    H224873   5.831   4.521   0.395  0.0976 -1.1645 -0.2495
 1080TIP3   OH224874   0.905   4.084   2.726 -0.3321 -0.5037  0.1432
 1080TIP3    H124875   0.981   4.042   2.685  1.0424  2.6739 -0.8333
 1080TIP3    H224876   0.890   4.033   2.806  3.5977 -0.6225  1.0050
 1081TIP3   OH224877   6.503   4.192   1.796 -0.0479  0.4551  0.6761
 1081TIP3    H124878   6.569   4.261   1.800 -0.1799  0.6268 -0.0732
 1081TIP3    H224879   6.553   4.112   1.776 -0.0680  0.5896  0.0827
 1082TIP3   OH224880   4.757   5.306   1.335 -0.1828  0.4505 -0.7090
 1082TIP3    H124881   4.733   5.225   1.381 -2.0897  2.0994  1.4688
 1082TIP3    H224882   4.681   5.325   1.279  0.7437  0.1985 -2.1067
 1083TIP3   OH224883   5.095   5.428   7.635  0.1103  0.7660  0.2521
 1083TIP3    H124884   5.119   5.351   7.582  0.7816  2.3814 -1.9390
 1083TIP3    H224885   5.170   5.442   7.691  0.5266  0.5428 -0.2369
 1084TIP3   OH224886   4.084   0.648   0.980 -0.1369 -0.1665 -0.1543
 1084TIP3    H124887   4.001   0.694   0.972 -0.3219 -0.8201 -2.9431
 1084TIP3    H224888   4.059   0.555   0.983  0.1906 -0.4629  5.7241
 1085TIP3   OH224889   0.081   5.521   0.081  0.3706  0.4893  0.5366
 1085TIP3    H124890   0.044   5.489   0.164 -0.7576 -1.5756 -0.6790
 1085TIP3    H224891   0.015   5.583   0.048 -1.3742 -1.9489 -0.8297
 1086TIP3   OH224892   1.636   1.760   3.532 -0.2665 -0.2477 -0.1802
 1086TIP3    H124893   1.707   1.818   3.560  0.2597 -0.8132 -0.3346
 1086TIP3    H224894   1.639   1.761   3.437 -0.3048 -0.4659 -0.1852
 1087TIP3   OH224895   1.218   4.711   2.705  0.9858  0.0062 -0.1892
 1087TIP3    H124896   1.279   4.773   2.746  0.4959  0.6800 -0.4667
 1087TIP3    H224897   1.153   4.693   2.773 -0.7009  2.3079 -1.0856
 1088TIP3   OH224898   0.964   6.774   0.145  0.1638  0.4618  0.3647
 1088TIP3    H124899   0.887   6.760   0.090 -0.4725 -0.6689  1.4816
 1088TIP3    H224900   0.986   6.687   0.178  0.9121  1.0076  1.3645
 1089TIP3   OH224901   3.229   4.131   8.563  0.0433  0.2084  0.6543
 1089TIP3    H124902   3.157   4.137   8.626  0.1874 -0.8714  0.9367
 1089TIP3    H224903   3.296   4.189   8.598  0.1701 -0.4815  1.5770
 1090TIP3   OH224904   3.790   6.566   1.673  0.3475  0.3148  0.1185
 1090TIP3    H124905   3.710   6.566   1.620  0.8095 -0.4014 -0.6177
 1090TIP3    H224906   3.764   6.528   1.756  0.1649 -1.0767 -0.5460
 1091TIP3   OH224907   2.534   6.725   2.608 -0.0681  0.0356 -0.5074
 1091TIP3    H124908   2.439   6.737   2.611  0.0815  1.2477  1.1812
 1091TIP3    H224909   2.546   6.631   2.599 -1.4554 -0.4276  1.7474
 1092TIP3   OH224910   0.281   3.866   8.277  0.1293  0.5612 -0.1821
 1092TIP3    H124911   0.261   3.840   8.187  0.1833 -2.4243  0.5606
 1092TIP3    H224912   0.353   3.929   8.268  1.6098 -1.2721 -2.1772
 1093TIP3   OH224913   4.438   3.969   3.246  0.3495 -0.3734 -0.0389
 1093TIP3    H124914   4.498   3.895   3.240  1.2323  0.4124 -1.7905
 1093TIP3    H224915   4.494   4.046   3.246 -0.5986  0.3830 -1.7756
 1094TIP3   OH224916   4.315   3.677   7.589 -0.2129  0.6090 -0.4113
 1094TIP3    H124917   4.222   3.697   7.602 -0.1985  0.0089  0.6789
 1094TIP3    H224918   4.322   3.658   7.495 -1.2446  0.3809 -0.4569
 1095TIP3   OH224919   4.453   0.343   2.120 -0.0952  0.3765  0.2236
 1095TIP3    H124920   4.431   0.250   2.122 -0.9275  0.4082 -2.7086
 1095TIP3    H224921   4.381   0.383   2.071  1.4606  2.1594 -0.7111
 1096TIP3   OH224922   5.219   2.278   7.688  0.0316  0.6062  0.3280
 1096TIP3    H124923   5.140   2.242   7.729  0.4187 -1.2899 -0.4897
 1096TIP3    H224924   5.186   2.343   7.626 -0.9156 -0.1851 -0.0245
 1097TIP3   OH224925   5.884   1.767   8.648  0.7334  0.2745 -0.5141
 1097TIP3    H124926   5.876   1.677   8.617 -0.8049 -0.2146  1.1465
 1097TIP3    H224927   5.800   1.786   8.691  1.6342  1.9037  0.6705
 1098TIP3   OH224928   0.850   0.692   8.508 -0.3302  0.2290  0.2661
 1098TIP3    H124929   0.928   0.639   8.493 -0.3883 -0.1320  1.2040
 1098TIP3    H224930   0.879   0.762   8.565 -0.7064  0.0456  0.6872
 1099TIP3   OH224931   0.036   1.948   0.832 -0.5381  0.4552  0.5175
 1099TIP3    H124932   0.029   2.027   0.779 -1.0753 -0.9296 -1.6049
 1099TIP3    H224933   0.120   1.957   0.878  1.2667  0.6210 -2.5740
 1100TIP3   OH224934   2.820   4.798   2.056 -0.0376 -0.1896  0.1532
 1100TIP3    H124935   2.836   4.890   2.034  0.4351  0.0609  1.4417
 1100TIP3    H224936   2.728   4.784   2.034 -0.2285  0.7176  0.3302
 1101TIP3   OH224937   3.442   5.177   2.004  0.4526  0.1250  0.1648
 1101TIP3    H124938   3.404   5.186   1.917  1.6182  0.9843 -0.2784
 1101TIP3    H224939   3.424   5.261   2.047  1.6962  0.4831  0.0031
 1102TIP3   OH224940   2.692   5.551   0.523 -0.0679 -0.0972 -0.0549
 1102TIP3    H124941   2.758   5.613   0.492 -0.7862  0.2497 -0.9345
 1102TIP3    H224942   2.632   5.604   0.575  1.2061 -0.6960  2.1851
 1103TIP3   OH224943   2.835   1.031   8.123 -0.5370 -0.2295  0.1192
 1103TIP3    H124944   2.874   1.116   8.146  0.1776 -0.1165 -1.3469
 1103TIP3    H224945   2.751   1.054   8.083  0.1656 -0.0964 -1.3428
 1104TIP3   OH224946   4.524   3.281   7.555  0.6858  0.3053  0.2010
 1104TIP3    H124947   4.468   3.261   7.630  0.2440 -0.0717 -0.2225
 1104TIP3    H224948   4.556   3.370   7.572 -0.1693  0.5929  0.3863
 1105TIP3   OH224949   1.041   5.883   2.050  0.1675  0.0589  0.0119
 1105TIP3    H124950   1.074   5.970   2.029 -0.5430 -0.0698 -1.7784
 1105TIP3    H224951   1.098   5.822   2.003 -1.2051 -0.2621 -1.3133
 1106TIP3   OH224952   6.653   0.170   2.547  0.4937  0.4127  0.1728
 1106TIP3    H124953   6.738   0.143   2.582  1.3451  1.8395 -0.7134
 1106TIP3    H224954   6.658   0.265   2.542 -1.1171  0.5179 -0.0532
 1107TIP3   OH224955   5.216   4.498   8.290 -0.1131  0.0267  0.1180
 1107TIP3    H124956   5.186   4.465   8.206  0.9698  0.3331 -0.3986
 1107TIP3    H224957   5.156   4.571   8.309 -0.8630 -0.5533  0.0133
 1108TIP3   OH224958   3.368   0.419   7.531  0.5125 -0.1209 -0.0195
 1108TIP3    H124959   3.281   0.423   7.490  0.0557 -1.8803  0.6741
 1108TIP3    H224960   3.372   0.499   7.585 -1.8280 -1.2070  1.9941
 1109TIP3   OH224961   0.095   1.643   2.946  0.7504 -0.1635 -0.0380
 1109TIP3    H124962   0.106   1.738   2.936  0.4347 -0.2216 -0.9656
 1109TIP3    H224963   0.153   1.621   3.019  2.3512  0.4453 -1.0812
 1110TIP3   OH224964   3.703   2.845   8.091  0.1551 -0.4193  0.0602
 1110TIP3    H124965   3.648   2.768   8.100 -0.5962 -0.0592 -1.1765
 1110TIP3    H224966   3.674   2.885   8.009  1.2713  0.5794  0.1334
 1111TIP3   OH224967   4.659   1.195   2.942  0.0348  0.2570 -0.5225
 1111TIP3    H124968   4.714   1.236   3.008 -1.1633 -0.1249  0.7700
 1111TIP3    H224969   4.619   1.121   2.987 -2.1909  1.0154 -1.1242
 1112TIP3   OH224970   4.836   5.428   2.060  0.0074 -0.2857 -0.0776
 1112TIP3    H124971   4.775   5.501   2.068  0.4444  0.5017 -2.8672
 1112TIP3    H224972   4.923   5.467   2.069  0.2251 -0.5777 -0.8392
 1113TIP3   OH224973   4.946   4.873   0.537  0.1802  0.0298  0.1185
 1113TIP3    H124974   4.909   4.931   0.471  3.0811  0.0871 -1.6277
 1113TIP3    H224975   4.943   4.924   0.618 -0.2266  1.3664 -0.7148
 1114TIP3   OH224976   3.379   3.202   7.935 -0.1739 -0.4344  0.2014
 1114TIP3    H124977   3.438   3.126   7.929 -0.5372 -0.8115  1.1340
 1114TIP3    H224978   3.300   3.168   7.977 -0.0377  0.6185  1.3884
 1115TIP3   OH224979   3.455   4.112   0.277 -0.3579 -0.2111 -0.4121
 1115TIP3    H124980   3.494   4.165   0.208  2.3317 -0.7509  0.5753
 1115TIP3    H224981   3.436   4.174   0.348  1.3640 -0.2930  0.1551
 1116TIP3   OH224982   0.323   5.410   0.350  0.0849  0.1531 -0.2375
 1116TIP3    H124983   0.339   5.501   0.324  0.4294  0.2272  0.2369
 1116TIP3    H224984   0.379   5.396   0.426 -0.6103 -0.1889  0.2285
 1117TIP3   OH224985   5.217   4.271   1.697  0.6499  0.0992 -0.3519
 1117TIP3    H124986   5.280   4.340   1.675  0.8581  0.0824  0.1679
 1117TIP3    H224987   5.195   4.287   1.789 -0.4791  0.3913 -0.6652
 1118TIP3   OH224988   0.058   4.815   1.211 -0.5840 -0.2967  0.0227
 1118TIP3    H124989   0.051   4.903   1.174  2.1756 -0.0693 -0.1199
 1118TIP3    H224990  -0.014   4.767   1.170  0.4819  0.7346 -3.4004
 1119TIP3   OH224991   3.290   3.174   3.153  0.4036 -0.5790 -0.3622
 1119TIP3    H124992   3.325   3.109   3.214  3.1917 -0.5269 -1.7294
 1119TIP3    H224993   3.367   3.220   3.121 -1.2038  1.2251 -1.8884
 1120TIP3   OH224994   0.979   4.425   7.474 -0.0309  0.6798 -0.1071
 1120TIP3    H124995   0.933   4.356   7.426  0.1605 -0.0561  0.7604
 1120TIP3    H224996   1.043   4.459   7.412 -0.4661  0.4298 -0.7014
 1121TIP3   OH224997   0.180   3.232   2.737  0.0332 -0.1702 -0.2415
 1121TIP3    H124998   0.207   3.322   2.722 -0.9175 -0.2964 -3.3082
 1121TIP3    H224999   0.190   3.189   2.652 -0.6665 -2.6647  0.8453
 1122TIP3   OH225000   3.257   0.303   1.697  0.3003  0.2046  0.4590
 1122TIP3    H125001   3.211   0.297   1.614  0.5675 -0.6749  0.3682
 1122TIP3    H225002   3.312   0.382   1.689  1.2982 -0.5768 -0.6928
 1123TIP3   OH225003   0.017   1.692   7.982 -0.2535 -0.2730 -0.2043
 1123TIP3    H125004  -0.048   1.741   7.932 -1.2876  0.5948  1.8766
 1123TIP3    H225005   0.087   1.756   7.999  0.0829 -0.5571 -0.5028
 1124TIP3   OH225006   1.266   4.114   1.384 -0.0226 -0.1598  0.1713
 1124TIP3    H125007   1.186   4.071   1.355 -1.8894  2.2242  1.4297
 1124TIP3    H225008   1.237   4.175   1.452  2.9825  0.3395  1.1358
 1125TIP3   OH225009   3.523   4.218   7.350  0.4329 -0.7252 -0.5632
 1125TIP3    H125010   3.523   4.147   7.415  0.7530 -0.6891 -0.5204
 1125TIP3    H225011   3.483   4.179   7.272 -1.8384 -0.1933  0.2570
 1126TIP3   OH225012   4.473   0.568   8.105  0.4478 -0.0665 -0.0592
 1126TIP3    H125013   4.534   0.518   8.159  0.4961  1.5608  1.4778
 1126TIP3    H225014   4.529   0.622   8.050  0.3841 -0.8440 -0.9110
 1127TIP3   OH225015   6.746   1.878   8.382  0.2670 -0.1691  0.5846
 1127TIP3    H125016   6.689   1.855   8.456  1.2359  1.1999  1.8148
 1127TIP3    H225017   6.698   1.848   8.305 -1.5198 -0.2373  1.6595
 1128TIP3   OH225018   6.162   4.198   3.168  0.0736  0.4035 -0.2952
 1128TIP3    H125019   6.167   4.293   3.157  0.1834  0.2511 -1.7455
 1128TIP3    H225020   6.234   4.178   3.227 -1.2159  1.4297  1.7405
 1129TIP3   OH225021   0.577   3.022   2.349  0.2682  0.4704  0.1558
 1129TIP3    H125022   0.589   3.117   2.343 -0.3737  0.5948  0.7725
 1129TIP3    H225023   0.549   3.007   2.439  0.4183 -0.3158  0.0783
 1130TIP3   OH225024   6.149   0.226   3.230 -0.0853  0.2086 -0.1206
 1130TIP3    H125025   6.094   0.300   3.204 -1.6205 -1.0226 -0.5261
 1130TIP3    H225026   6.087   0.155   3.247  1.3711 -1.2054 -0.4653
 1131TIP3   OH225027   4.728   5.062   1.411 -0.1025  0.1467  0.2960
 1131TIP3    H125028   4.693   4.981   1.372  0.4229 -0.5947  1.3148
 1131TIP3    H225029   4.728   5.045   1.505 -1.0927  1.8068  0.6264
 1132TIP3   OH225030   4.219   2.582   7.565  0.6693  0.3832 -0.6435
 1132TIP3    H125031   4.130   2.579   7.600  0.9716  0.6846  0.1765
 1132TIP3    H225032   4.233   2.496   7.526  0.0192  0.3365 -0.7895
 1133TIP3   OH225033   1.308   2.158   3.303  0.1868  0.1107 -0.1406
 1133TIP3    H125034   1.379   2.108   3.343  0.7146  1.6791  0.9732
 1133TIP3    H225035   1.308   2.130   3.211  0.0469 -2.3467  0.5398
 1134TIP3   OH225036   6.004   3.429   1.039  0.9452  0.8038 -0.0328
 1134TIP3    H125037   5.970   3.339   1.040  0.9865  0.7805 -0.6195
 1134TIP3    H225038   6.098   3.418   1.054  0.7334  0.8651  1.5339
 1135TIP3   OH225039   1.745   4.178   2.697 -0.3235  0.6062  0.6282
 1135TIP3    H125040   1.686   4.104   2.714 -3.1558  2.6739  0.5056
 1135TIP3    H225041   1.714   4.216   2.615  1.9996  1.1316 -0.0876
 1136TIP3   OH225042   4.281   5.490   7.847  0.0789  0.0928 -0.5485
 1136TIP3    H125043   4.323   5.407   7.872 -1.1333 -0.6668 -0.9814
 1136TIP3    H225044   4.256   5.478   7.756 -1.1693  0.4782 -0.2715
 1137TIP3   OH225045   6.618   6.355   1.728  0.3320  0.6127 -0.3706
 1137TIP3    H125046   6.581   6.275   1.690  1.8873  0.0469 -0.7581
 1137TIP3    H225047   6.620   6.338   1.822  1.6518 -0.2817 -0.5283
 1138TIP3   OH225048   4.994   4.103   2.934  0.5268  0.2141  0.4683
 1138TIP3    H125049   4.948   4.020   2.945 -0.8868  1.1603  2.2255
 1138TIP3    H225050   5.053   4.088   2.860  0.2173 -2.2852  0.6389
 1139TIP3   OH225051   1.731   1.919   7.925  0.2751  0.6677 -0.2680
 1139TIP3    H125052   1.763   1.894   8.012  1.3288  2.9976  0.0865
 1139TIP3    H225053   1.767   1.852   7.867  0.5771 -0.2486  0.9114
 1140TIP3   OH225054   5.142   4.202   8.064  0.2723  0.1588 -0.4642
 1140TIP3    H125055   5.192   4.145   8.005  2.6225  2.2052 -0.5989
 1140TIP3    H225056   5.110   4.273   8.008  0.8148  1.0736  0.3598
 1141TIP3   OH225057   1.345   0.167   0.363 -0.9969 -1.0224  0.4349
 1141TIP3    H125058   1.387   0.089   0.398  0.7147 -1.1442 -1.6640
 1141TIP3    H225059   1.269   0.134   0.314 -0.3633 -1.3912 -0.3227
 1142TIP3   OH225060   0.864   3.166   2.008 -0.5563 -0.1875 -0.0029
 1142TIP3    H125061   0.870   3.193   2.100 -1.2516  1.2744 -0.3504
 1142TIP3    H225062   0.947   3.194   1.970  0.7137 -2.8518  0.6279
 1143TIP3   OH225063   5.430   2.469   2.826  0.5091 -0.0671 -0.0694
 1143TIP3    H125064   5.437   2.503   2.916  0.0117  1.2180 -0.4956
 1143TIP3    H225065   5.354   2.410   2.829  1.0724 -0.7859  0.5637
 1144TIP3   OH225066   2.160   6.028   1.693  0.0441  0.3344  0.3951
 1144TIP3    H125067   2.172   5.987   1.778  1.1687 -0.4414 -0.1075
 1144TIP3    H225068   2.249   6.041   1.660 -0.3651  0.8757 -0.5435
 1145TIP3   OH225069   3.011   0.184   1.018 -0.0627 -0.0047 -0.2946
 1145TIP3    H125070   3.053   0.118   1.074 -0.0658  0.3913  0.1829
 1145TIP3    H225071   3.026   0.267   1.063  0.3904  0.3912 -1.1540
 1146TIP3   OH225072   2.830   6.430   1.023 -0.0115 -0.2712  0.5555
 1146TIP3    H125073   2.848   6.378   0.944 -0.6107  0.6358 -0.2056
 1146TIP3    H225074   2.899   6.497   1.023 -0.8345  0.6093 -0.0212
 1147TIP3   OH225075   6.346   6.758   7.780 -0.0439 -0.3770  0.6141
 1147TIP3    H125076   6.345   6.663   7.771 -0.7723 -0.4296  1.2055
 1147TIP3    H225077   6.292   6.776   7.857  2.2192  0.3479  2.1185
 1148TIP3   OH225078   4.837   3.290   8.526 -0.4567  0.4578 -0.1888
 1148TIP3    H125079   4.894   3.366   8.511 -1.4299  1.4016  0.7302
 1148TIP3    H225080   4.857   3.263   8.615 -1.1870  0.5710  0.0112
 1149TIP3   OH225081   0.702   2.005   0.275 -0.0772 -0.2953  0.0392
 1149TIP3    H125082   0.612   2.027   0.297  0.0784  1.0652 -0.5486
 1149TIP3    H225083   0.753   2.082   0.303  0.7221 -0.5121 -0.7621
 1150TIP3   OH225084   6.850   0.242   0.107 -0.6004  0.3884 -0.8599
 1150TIP3    H125085   6.916   0.306   0.081 -1.7898  1.5510 -1.0874
 1150TIP3    H225086   6.788   0.240   0.034 -0.3348 -1.3924 -1.0701
 1151TIP3   OH225087   1.060   6.757   1.389 -0.1099  0.2378 -0.4136
 1151TIP3    H125088   1.125   6.725   1.452  0.3759  1.3436 -0.3292
 1151TIP3    H225089   1.015   6.828   1.435 -0.8811 -0.0277 -0.7394
 1152TIP3   OH225090   0.711   0.033   8.173 -0.1176  0.5236 -0.5748
 1152TIP3    H125091   0.688   0.059   8.262  1.0338  1.5823 -0.5512
 1152TIP3    H225092   0.634  -0.014   8.141 -0.8485  0.7948  0.7084
 1153TIP3   OH225093   4.640   5.923   8.061  0.0461  0.4544  0.3412
 1153TIP3    H125094   4.720   5.968   8.087  1.7085 -2.2415  0.1974
 1153TIP3    H225095   4.596   5.902   8.144 -0.5014  1.7973  0.4231
 1154TIP3   OH225096   0.700   6.522   1.574  0.1879  0.0366 -0.2095
 1154TIP3    H125097   0.605   6.507   1.566  0.0054  1.1177 -0.1947
 1154TIP3    H225098   0.728   6.462   1.643 -0.6554  0.3592  0.4257
 1155TIP3   OH225099   1.840   1.270   2.894  0.0876  0.1458  0.0617
 1155TIP3    H125100   1.854   1.243   2.803  0.0320  1.2971 -0.3015
 1155TIP3    H225101   1.758   1.319   2.893 -1.2690 -1.9557  1.2182
 1156TIP3   OH225102   3.868   2.239   8.392  0.3747 -0.1297 -0.3502
 1156TIP3    H125103   3.846   2.233   8.299 -2.2105 -1.3777  0.2651
 1156TIP3    H225104   3.815   2.312   8.425  0.4888 -0.3612  0.3558
 1157TIP3   OH225105   0.478   1.612   8.196 -0.1516 -0.7820  0.1666
 1157TIP3    H125106   0.480   1.592   8.103  1.2328  1.4410 -0.3495
 1157TIP3    H225107   0.563   1.581   8.229 -0.4878 -1.2329  0.6255
 1158TIP3   OH225108   6.286   3.621   3.249  0.1187 -0.3751 -0.1866
 1158TIP3    H125109   6.200   3.628   3.208 -0.4199  3.2846  1.1936
 1158TIP3    H225110   6.268   3.616   3.342  1.3971 -0.0730  0.0941
 1159TIP3   OH225111   0.296   0.733   2.470 -0.6941 -0.2116  0.3927
 1159TIP3    H125112   0.276   0.775   2.553 -0.6368  1.4329 -0.3695
 1159TIP3    H225113   0.355   0.661   2.493 -2.2123 -1.0212  1.9407
 1160TIP3   OH225114   6.011   3.290   3.349  0.0774 -0.4681  0.4908
 1160TIP3    H125115   6.084   3.325   3.400 -0.0185 -0.5726  0.7010
 1160TIP3    H225116   6.038   3.300   3.258  0.2775 -0.3414  0.5642
 1161TIP3   OH225117   2.765   0.726   1.144 -0.1512  0.3276 -0.0951
 1161TIP3    H125118   2.790   0.785   1.215  0.7446 -1.1481  0.8579
 1161TIP3    H225119   2.672   0.711   1.158 -0.1134  0.5286  0.3949
 1162TIP3   OH225120   0.731   5.786   3.686  0.4136 -0.5605 -0.8597
 1162TIP3    H125121   0.733   5.779   3.782 -0.5467 -2.5448 -0.9427
 1162TIP3    H225122   0.811   5.742   3.657  0.0544 -1.1344 -0.9974
 1163TIP3   OH225123   3.198   2.849   3.257 -0.3830  0.4049  0.1611
 1163TIP3    H125124   3.287   2.884   3.259 -0.6699  1.2672 -1.2186
 1163TIP3    H225125   3.208   2.759   3.289  1.0758  0.2759 -0.5516
 1164TIP3   OH225126   1.880   4.793   0.096 -0.7282 -0.0719 -0.2519
 1164TIP3    H125127   1.875   4.698   0.102 -1.5197  0.0130  0.6939
 1164TIP3    H225128   1.971   4.814   0.119  0.2218 -0.7297 -3.0264
 1165TIP3   OH225129   2.577   0.112   0.116 -0.7820 -0.4109  0.1760
 1165TIP3    H125130   2.626   0.133   0.196 -1.3817 -1.2541  0.7739
 1165TIP3    H225131   2.485   0.123   0.140 -0.9441  0.2179 -0.6689
 1166TIP3   OH225132   5.817   1.099   1.712  1.0641  0.1649  0.1668
 1166TIP3    H125133   5.771   1.146   1.782  1.2691  0.6366 -0.0121
 1166TIP3    H225134   5.782   1.010   1.716 -0.9562  0.8503 -0.8996
 1167TIP3   OH225135   5.152   4.165   8.339  0.0679 -0.0433 -0.2044
 1167TIP3    H125136   5.215   4.237   8.329 -1.9928  1.6150 -2.2949
 1167TIP3    H225137   5.118   4.150   8.251 -0.7478 -2.5406  0.4565
 1168TIP3   OH225138   5.656   6.418   0.956  0.0183 -0.7672  0.2394
 1168TIP3    H125139   5.641   6.351   1.024 -2.1221  0.3152  0.9148
 1168TIP3    H225140   5.598   6.393   0.885 -0.8704  0.3919  0.5342
 1169TIP3   OH225141   3.359   5.437   0.877  0.1986  0.5011 -0.3741
 1169TIP3    H125142   3.333   5.496   0.806  0.9730  1.2438 -0.0596
 1169TIP3    H225143   3.278   5.416   0.922 -0.2119  0.5599 -1.0708
 1170TIP3   OH225144   5.191   3.322   0.060  0.5032  0.6470  0.1297
 1170TIP3    H125145   5.162   3.374  -0.016 -1.8530 -0.7612 -0.0239
 1170TIP3    H225146   5.167   3.375   0.136 -2.5877 -0.3719  0.0011
 1171TIP3   OH225147   0.730   4.234   1.654  0.1001  0.2892  0.0898
 1171TIP3    H125148   0.783   4.308   1.625  1.2928 -0.4260  0.3790
 1171TIP3    H225149   0.792   4.162   1.664 -1.1098 -0.8950 -0.6360
 1172TIP3   OH225150   4.327   6.066   7.268 -0.0847 -0.2066  0.8192
 1172TIP3    H125151   4.401   6.016   7.233  0.8124  2.4700 -1.4855
 1172TIP3    H225152   4.367   6.144   7.306 -1.6461  0.8853  0.3029
 1173TIP3   OH225153   4.846   4.435   2.394  0.1463 -0.0942  0.0146
 1173TIP3    H125154   4.792   4.371   2.439 -0.4581 -0.0387 -0.6174
 1173TIP3    H225155   4.791   4.514   2.390 -0.0625 -0.2828 -1.3520
 1174TIP3   OH225156   3.768   2.110   1.363  0.2100  0.0357 -0.1682
 1174TIP3    H125157   3.713   2.188   1.371 -0.3062 -0.3610  0.1404
 1174TIP3    H225158   3.854   2.145   1.337 -0.4148  0.5736 -1.5862
 1175TIP3   OH225159   6.489   0.879   3.098 -0.6505  0.3944 -0.1810
 1175TIP3    H125160   6.530   0.862   3.183 -1.0246 -1.3484 -0.3103
 1175TIP3    H225161   6.558   0.861   3.034 -0.5598  1.0732 -0.2835
 1176TIP3   OH225162   5.229   4.353   2.312  0.4729  0.1771  0.5717
 1176TIP3    H125163   5.163   4.401   2.263 -0.7093 -1.4439  0.4863
 1176TIP3    H225164   5.262   4.416   2.376 -1.2455  1.0164  0.7025
 1177TIP3   OH225165   6.295   3.349   8.263  0.1318 -0.0806 -0.0848
 1177TIP3    H125166   6.329   3.323   8.349 -0.5081 -0.7750 -0.0277
 1177TIP3    H225167   6.331   3.284   8.203 -0.7718 -0.6070 -0.0754
 1178TIP3   OH225168   2.631   3.074   7.534  0.1288 -0.1759 -0.5255
 1178TIP3    H125169   2.711   3.114   7.567 -0.4999 -1.4431  3.0068
 1178TIP3    H225170   2.632   2.985   7.570 -3.5200  0.2598  1.1438
 1179TIP3   OH225171   6.619   0.241   7.994 -0.2326 -0.4389  0.5982
 1179TIP3    H125172   6.568   0.206   8.066 -1.1096  0.7079  0.5588
 1179TIP3    H225173   6.572   0.320   7.967  1.3103  0.4041  0.2614
 1180TIP3   OH225174   5.410   5.289   1.510  0.5289 -0.4045  0.0683
 1180TIP3    H125175   5.384   5.285   1.602 -0.0741 -2.5836 -0.1235
 1180TIP3    H225176   5.354   5.223   1.467  1.8908 -0.5657 -1.5658
 1181TIP3   OH225177   3.987   2.623   1.851  0.0166  0.3402  0.1879
 1181TIP3    H125178   4.003   2.670   1.932 -0.0469  0.9409 -0.1417
 1181TIP3    H225179   3.985   2.691   1.783  0.6418 -0.2025 -0.3979
 1182TIP3   OH225180   6.643   1.678   0.751  0.3193  0.2183  0.7686
 1182TIP3    H125181   6.595   1.597   0.770 -1.3652  1.2894  1.3357
 1182TIP3    H225182   6.599   1.745   0.804  0.6067  1.8169 -0.9000
 1183TIP3   OH225183   0.934   6.112   8.490  0.3041 -0.0540  0.6338
 1183TIP3    H125184   0.890   6.110   8.575  0.2119  0.8171  0.6089
 1183TIP3    H225185   0.902   6.191   8.448  2.2722  0.8914  0.8085
 1184TIP3   OH225186   4.321   6.575   1.724  0.0112 -0.1019  0.1797
 1184TIP3    H125187   4.236   6.615   1.710  0.3839  0.0841 -1.8571
 1184TIP3    H225188   4.303   6.481   1.726 -0.1636 -0.1011 -1.0019
 1185TIP3   OH225189   0.444   3.876   1.189  0.7188  0.3464 -0.6870
 1185TIP3    H125190   0.481   3.957   1.154  3.2655 -0.6474 -0.4637
 1185TIP3    H225191   0.431   3.894   1.282 -0.9345  1.2000 -1.0396
 1186TIP3   OH225192   2.360   1.160   2.152 -0.3289  0.1323 -0.0718
 1186TIP3    H125193   2.319   1.073   2.147 -0.6315  0.3146 -0.8845
 1186TIP3    H225194   2.368   1.188   2.061  1.9440 -0.0422  0.0033
 1187TIP3   OH225195   2.882   1.204   3.396  0.0028 -0.0496  0.0339
 1187TIP3    H125196   2.875   1.227   3.489 -2.8808  1.6984 -0.5007
 1187TIP3    H225197   2.940   1.271   3.360  0.9327 -0.5859  0.4932
 1188TIP3   OH225198   0.398   2.162   1.950 -0.0834  0.6848 -0.1646
 1188TIP3    H125199   0.400   2.122   1.863 -0.8072  0.3816 -0.0494
 1188TIP3    H225200   0.478   2.131   1.992 -1.9710 -3.2409  1.0175
 1189TIP3   OH225201   1.992   3.737   0.232 -0.0549  0.2862  0.1060
 1189TIP3    H125202   2.037   3.669   0.281 -1.2222  0.2567  1.1820
 1189TIP3    H225203   1.991   3.705   0.142  0.8822 -0.3195  0.3014
 1190TIP3   OH225204   6.017   6.290   6.922  0.1457  0.3942  0.4484
 1190TIP3    H125205   6.011   6.312   6.829  1.5877 -0.0816  0.2087
 1190TIP3    H225206   5.930   6.258   6.945 -0.7926  2.2592 -0.2436
 1191TIP3   OH225207   2.512   6.608   7.347  0.3183 -0.4805 -0.1605
 1191TIP3    H125208   2.557   6.654   7.277  2.2191  0.0964  1.3281
 1191TIP3    H225209   2.420   6.632   7.338  0.5879 -0.0543 -2.1220
 1192TIP3   OH225210   5.923   5.604   1.931  0.2387  0.1765 -0.3794
 1192TIP3    H125211   5.877   5.684   1.903 -0.9606  0.6959  2.6356
 1192TIP3    H225212   5.861   5.534   1.913  0.9282 -0.0196 -2.1895
 1193TIP3   OH225213   5.127   0.926   3.417 -0.1105 -0.0392 -0.1622
 1193TIP3    H125214   5.142   0.845   3.368 -1.6279  1.1954 -2.8812
 1193TIP3    H225215   5.035   0.923   3.442  0.3590 -0.1100  1.7402
 1194TIP3   OH225216   2.620   0.396   8.549 -0.3747  0.0995 -0.0571
 1194TIP3    H125217   2.684   0.326   8.537 -0.6555 -0.0501 -0.7537
 1194TIP3    H225218   2.647   0.464   8.486 -0.9864 -0.0325 -0.4717
 1195TIP3   OH225219   6.811   1.096   0.236  0.2271  0.1440  0.4783
 1195TIP3    H125220   6.818   1.171   0.294  1.9964  0.4593 -0.0721
 1195TIP3    H225221   6.760   1.031   0.285  0.8429  0.7636  1.9744
 1196TIP3   OH225222   5.089   0.580   8.157  0.3956 -0.2860  0.2223
 1196TIP3    H125223   5.078   0.570   8.063  0.1105 -0.9075  0.3154
 1196TIP3    H225224   5.136   0.501   8.184 -0.5900 -0.7171  0.7667
 1197TIP3   OH225225   4.969   0.323   2.385  0.3926 -0.0599 -0.2162
 1197TIP3    H125226   4.898   0.290   2.331  0.4726  0.6114 -0.7516
 1197TIP3    H225227   5.049   0.302   2.336  0.4545  0.7145 -0.4717
 1198TIP3   OH225228   1.585   6.848   7.690 -0.0834  0.0937 -0.1626
 1198TIP3    H125229   1.564   6.930   7.732  0.0605  0.8103 -1.4270
 1198TIP3    H225230   1.651   6.870   7.624 -0.0338 -1.0224 -0.5200
 1199TIP3   OH225231   5.107   5.077   0.744  0.2603  0.1992 -0.1918
 1199TIP3    H125232   5.066   5.004   0.791  0.2162  0.2278 -0.1857
 1199TIP3    H225233   5.089   5.153   0.799  1.6555 -0.0187  0.6066
 1200TIP3   OH225234   5.165   5.877   7.189  0.2555 -0.3247 -1.0414
 1200TIP3    H125235   5.113   5.829   7.254 -0.9226 -3.1499 -3.8205
 1200TIP3    H225236   5.119   5.960   7.179  0.3804  0.1391  1.4975
 1201TIP3   OH225237   2.391   2.098   2.702  0.2421  0.5977  0.0210
 1201TIP3    H125238   2.417   2.008   2.722 -0.1464  0.2841 -0.8416
 1201TIP3    H225239   2.296   2.095   2.696  0.1242  1.3277  1.1807
 1202TIP3   OH225240   6.310   5.870   1.500 -0.3366  0.8691 -0.0113
 1202TIP3    H125241   6.315   5.951   1.550  0.4373 -0.0049  1.3836
 1202TIP3    H225242   6.219   5.841   1.511 -0.4937  1.3140 -0.1320
 1203TIP3   OH225243   1.362   3.695   1.649  0.0659 -0.2549  0.0701
 1203TIP3    H125244   1.293   3.691   1.583 -0.7336 -0.1721  0.8934
 1203TIP3    H225245   1.405   3.779   1.634 -0.4203 -0.0245 -0.0348
 1204TIP3   OH225246   5.758   5.064   1.457  0.1610 -0.1924 -0.0821
 1204TIP3    H125247   5.722   5.041   1.542  0.2664  1.2991  0.3945
 1204TIP3    H225248   5.698   5.025   1.394 -1.9885  1.6699  0.6817
 1205TIP3   OH225249   5.784   3.581   7.439  0.0357  0.5181  0.2660
 1205TIP3    H125250   5.721   3.643   7.402 -1.5599 -0.2326  1.5668
 1205TIP3    H225251   5.742   3.496   7.429  0.4302  0.0911  1.8969
 1206TIP3   OH225252   5.737   0.510   7.644 -0.3454  0.1546  0.1861
 1206TIP3    H125253   5.683   0.573   7.693 -0.6630  0.2757 -0.3187
 1206TIP3    H225254   5.725   0.535   7.552  2.0928  1.4370  0.1331
 1207TIP3   OH225255   2.482   3.985   3.208  0.1025 -0.6600  0.2351
 1207TIP3    H125256   2.459   4.068   3.167  1.8060 -0.2467  0.0159
 1207TIP3    H225257   2.561   3.957   3.161  1.8174 -0.4452  2.7747
 1208TIP3   OH225258   3.221   0.001   2.103  0.6726 -0.8615  0.0937
 1208TIP3    H125259   3.184  -0.030   2.186  1.2636 -0.1010  0.6479
 1208TIP3    H225260   3.153   0.057   2.066 -0.2422 -2.4122 -0.7250
 1209TIP3   OH225261   3.670   0.617   2.642  0.1441 -0.2968  0.0526
 1209TIP3    H125262   3.656   0.711   2.657  1.1194 -0.0798 -0.3249
 1209TIP3    H225263   3.748   0.595   2.693  0.8308 -0.5485 -1.0751
 1210TIP3   OH225264   2.717   1.988   2.810  0.1200  0.3841 -0.1688
 1210TIP3    H125265   2.768   1.954   2.884 -0.4410  0.0585  0.0829
 1210TIP3    H225266   2.742   2.080   2.803  2.6398 -0.3168 -1.6728
 1211TIP3   OH225267   3.529   5.064   3.481  0.7133 -0.0658  0.2242
 1211TIP3    H125268   3.580   5.011   3.543  0.2036  0.9629  1.5825
 1211TIP3    H225269   3.550   5.154   3.506 -1.0403  0.3680  0.1952
 1212TIP3   OH225270   4.080   3.200   2.211 -0.3611 -0.8551  0.2655
 1212TIP3    H125271   4.035   3.149   2.278 -0.8245  0.8168  1.2867
 1212TIP3    H225272   4.016   3.266   2.184  0.2085 -0.7987 -1.0280
 1213TIP3   OH225273   3.259   5.491   0.262  0.7447  0.0329 -0.4014
 1213TIP3    H125274   3.297   5.426   0.204  0.6176 -0.3484 -0.0561
 1213TIP3    H225275   3.193   5.535   0.208  0.4468 -0.4955 -0.4708
 1214TIP3   OH225276   0.508   4.604   0.933 -0.3564 -0.3566 -0.3799
 1214TIP3    H125277   0.447   4.664   0.977  1.6673  1.0045  0.7108
 1214TIP3    H225278   0.529   4.538   0.999 -0.3638 -0.6091 -0.6291
 1215TIP3   OH225279   5.032   1.449   8.582 -0.0111 -0.0637 -0.3882
 1215TIP3    H125280   5.066   1.420   8.497  0.7501  0.6112 -0.3328
 1215TIP3    H225281   4.987   1.373   8.618  1.7652 -1.1314 -0.3097
 1216TIP3   OH225282   0.832   5.441   2.015 -0.2951 -0.5262  0.2055
 1216TIP3    H125283   0.909   5.446   2.071  0.3773  0.3158 -0.7697
 1216TIP3    H225284   0.828   5.526   1.971 -1.5870 -0.6749 -0.0199
 1217TIP3   OH225285   3.437   3.959   1.222 -0.1620  0.0281 -0.6068
 1217TIP3    H125286   3.496   4.023   1.184  1.0141 -0.0157  1.0524
 1217TIP3    H225287   3.357   4.009   1.241  0.4371  0.8203 -0.0972
 1218TIP3   OH225288   3.323   3.867   0.852  0.3703 -0.3502 -0.4061
 1218TIP3    H125289   3.315   3.959   0.827  1.1661 -0.9321 -3.1930
 1218TIP3    H225290   3.412   3.843   0.827  0.5514 -1.6248  1.3221
 1219TIP3   OH225291   5.033   2.869   1.436 -0.5954  0.3079  0.3102
 1219TIP3    H125292   5.056   2.959   1.413 -0.2619  0.1712  0.0951
 1219TIP3    H225293   5.005   2.874   1.528  1.0469  0.3594  0.8313
 1220TIP3   OH225294   3.501   6.207   2.930  0.2243 -0.0715  0.5304
 1220TIP3    H125295   3.536   6.161   2.853 -1.8960  0.3979 -0.7906
 1220TIP3    H225296   3.441   6.145   2.970 -1.4990  0.9234 -0.3883
 1221TIP3   OH225297   4.121   1.341   2.417 -0.2869  0.2529 -0.1045
 1221TIP3    H125298   4.125   1.378   2.505  1.5963  1.5383 -0.6740
 1221TIP3    H225299   4.095   1.415   2.361 -2.0595 -0.6812 -0.6144
 1222TIP3   OH225300   4.786   2.310   0.323 -0.1341  0.1655 -0.5383
 1222TIP3    H125301   4.852   2.370   0.289  1.4688 -1.0172  0.3421
 1222TIP3    H225302   4.726   2.297   0.250  0.6053  1.2872 -1.3755
 1223TIP3   OH225303   0.436   1.452   8.472 -0.2698 -0.2479 -0.0554
 1223TIP3    H125304   0.440   1.547   8.480  2.0489 -0.1622 -1.1891
 1223TIP3    H225305   0.348   1.429   8.501 -1.0345  2.2645 -0.1051
 1224TIP3   OH225306   6.528   3.411   3.123 -0.1544 -0.2091  0.3156
 1224TIP3    H125307   6.492   3.458   3.048 -0.4137  0.8089  1.0461
 1224TIP3    H225308   6.498   3.321   3.112 -2.8979  0.5340  0.8148
 1225TIP3   OH225309   2.521   3.224   0.235 -0.5648 -0.0837 -0.0240
 1225TIP3    H125310   2.460   3.289   0.202 -0.1409  0.2038 -0.2456
 1225TIP3    H225311   2.552   3.177   0.157  0.0327  0.2435  0.0127
 1226TIP3   OH225312   1.596   0.574   1.694 -0.6004 -0.5056  0.0994
 1226TIP3    H125313   1.576   0.619   1.776  2.0226  1.7476 -0.3619
 1226TIP3    H225314   1.611   0.644   1.631 -0.3760 -2.1425 -1.7614
 1227TIP3   OH225315   3.627   5.474   0.281 -0.1298 -0.1810  0.6874
 1227TIP3    H125316   3.612   5.387   0.317  0.4323 -0.8996 -0.7420
 1227TIP3    H225317   3.641   5.459   0.188 -3.9657  1.7952 -0.4375
 1228TIP3   OH225318   3.117   1.672   1.866 -0.4005  0.5628 -0.0064
 1228TIP3    H125319   3.209   1.656   1.843  1.1630  2.7216  3.7446
 1228TIP3    H225320   3.081   1.586   1.884  0.4892 -0.4314 -2.6541
 1229TIP3   OH225321   0.077   6.600   3.418  0.1782  0.0743 -0.4645
 1229TIP3    H125322   0.171   6.613   3.435  0.1731  0.5595 -0.8020
 1229TIP3    H225323   0.041   6.574   3.503  0.6090 -0.0620 -0.3211
 1230TIP3   OH225324   6.086   3.346   7.660  0.2705 -0.4369 -0.0110
 1230TIP3    H125325   6.052   3.270   7.706 -0.6324 -2.0379 -3.0628
 1230TIP3    H225326   6.160   3.312   7.609 -0.6584  0.4484 -2.0694
 1231TIP3   OH225327   0.298   5.697   7.936  0.1342 -0.1704  0.3470
 1231TIP3    H125328   0.310   5.638   7.862  1.1031 -0.8881  1.0680
 1231TIP3    H225329   0.219   5.664   7.980  1.2327 -1.5918  1.3314
 1232TIP3   OH225330   1.321   2.605   3.062 -0.4088  0.7882  0.5962
 1232TIP3    H125331   1.257   2.665   3.100 -0.2726  1.3445 -0.0403
 1232TIP3    H225332   1.401   2.622   3.112 -0.8293 -0.1549  1.6265
 1233TIP3   OH225333   4.406   3.600   0.796  0.2014  0.2189  0.0128
 1233TIP3    H125334   4.455   3.529   0.837  1.7332  2.1531  1.7236
 1233TIP3    H225335   4.316   3.567   0.790  0.9796 -2.0729  0.1338
 1234TIP3   OH225336   5.891   6.387   2.763 -0.0858  0.3337 -0.0497
 1234TIP3    H125337   5.870   6.371   2.855 -3.0304  1.2890 -0.4626
 1234TIP3    H225338   5.950   6.463   2.766  0.2977  0.0168  1.0560
 1235TIP3   OH225339   6.057   5.319   8.572  0.2714 -0.1645 -0.2636
 1235TIP3    H125340   6.031   5.336   8.482  0.1567  0.4701 -0.1197
 1235TIP3    H225341   6.130   5.258   8.565  1.2855  1.0641 -0.8878
 1236TIP3   OH225342   1.366   3.533   1.211  0.3333 -0.3490 -0.6065
 1236TIP3    H125343   1.303   3.570   1.273  1.2309  1.0589 -0.4933
 1236TIP3    H225344   1.449   3.572   1.236  0.7114  0.2639 -2.7196
 1237TIP3   OH225345   4.341   3.191   3.020  0.1360 -0.7475 -0.0388
 1237TIP3    H125346   4.414   3.171   3.080  1.6704 -0.2557 -1.6555
 1237TIP3    H225347   4.295   3.107   3.010  0.5038 -1.0856  0.9603
 1238TIP3   OH225348   1.309   3.627   0.234  0.5837  0.1456 -0.0746
 1238TIP3    H125349   1.322   3.612   0.141 -2.1022  2.7735 -1.0611
 1238TIP3    H225350   1.327   3.721   0.246 -0.0795  0.0728  1.8151
 1239TIP3   OH225351   3.320   5.379   3.094 -0.7618 -0.7261  0.4515
 1239TIP3    H125352   3.413   5.392   3.073 -1.3612  1.1168 -1.4371
 1239TIP3    H225353   3.282   5.341   3.015 -1.7996 -0.5542  0.8444
 1240TIP3   OH225354   5.911   4.733   3.520  0.0110 -0.8710  0.0974
 1240TIP3    H125355   5.823   4.748   3.555 -0.9433 -0.8082 -2.1743
 1240TIP3    H225356   5.927   4.640   3.533 -0.3693 -0.8729  0.5678
 1241TIP3   OH225357   2.568   1.381   3.307  0.6719 -0.5049  0.2244
 1241TIP3    H125358   2.594   1.323   3.379  1.1599 -0.1448  0.3460
 1241TIP3    H225359   2.651   1.411   3.270  0.4231 -0.1478 -0.0496
 1242TIP3   OH225360   3.355   0.030   3.297 -0.1899 -0.2006  1.0411
 1242TIP3    H125361   3.264   0.053   3.317  0.3622  0.3059  3.1314
 1242TIP3    H225362   3.352   0.000   3.206 -2.5975 -1.0471  1.3216
 1243TIP3   OH225363   3.946   5.727   0.247 -0.0408 -0.5286  0.7056
 1243TIP3    H125364   4.004   5.803   0.245 -0.9705  0.3280  2.7122
 1243TIP3    H225365   3.895   5.732   0.167  0.3009  0.6593  0.5569
 1244TIP3   OH225366   3.337   4.646   2.701 -0.2750 -0.4668 -0.2813
 1244TIP3    H125367   3.345   4.603   2.786 -0.0838  0.8048  0.3554
 1244TIP3    H225368   3.425   4.675   2.680 -0.4034 -0.3812 -0.7099
 1245TIP3   OH225369   0.901   4.942   8.616 -0.0846 -0.0025 -0.5565
 1245TIP3    H125370   0.937   5.016   8.666 -0.5944 -0.9278  1.2522
 1245TIP3    H225371   0.808   4.963   8.605 -0.4026 -0.6935  0.6382
 1246TIP3   OH225372   1.387   5.216   1.279  0.1025 -0.0609 -0.7189
 1246TIP3    H125373   1.443   5.266   1.338  1.3346 -0.0563 -1.8248
 1246TIP3    H225374   1.367   5.276   1.207  0.9568 -0.8756 -1.6735
 1247TIP3   OH225375   5.059   4.296   0.021  0.5013  0.0021 -0.0048
 1247TIP3    H125376   5.142   4.307  -0.026 -0.0548 -1.0428 -1.3189
 1247TIP3    H225377   4.992   4.311  -0.046 -0.3518 -0.3436  0.7487
 1248TIP3   OH225378   1.991   0.469   3.056 -0.1264  0.4358  0.9099
 1248TIP3    H125379   1.970   0.400   3.119 -2.2393  0.3775  0.2098
 1248TIP3    H225380   2.018   0.544   3.110  0.6901 -0.4205  1.7255
 1249TIP3   OH225381   4.736   2.384   8.293  0.4447 -0.4007 -0.1116
 1249TIP3    H125382   4.760   2.404   8.203  1.0177  0.7229  0.2641
 1249TIP3    H225383   4.735   2.470   8.337  1.5472 -1.0464  1.2477
 1250TIP3   OH225384   5.720   3.921   2.945 -0.1997 -0.0775  0.0516
 1250TIP3    H125385   5.645   3.931   3.004  0.0271 -0.7377  0.4684
 1250TIP3    H225386   5.790   3.972   2.986  0.2249 -1.2719  0.8512
 1251TIP3   OH225387   0.265   4.107   0.541 -0.2487 -0.3915  0.0497
 1251TIP3    H125388   0.361   4.101   0.532 -0.3197 -0.5528 -0.7032
 1251TIP3    H225389   0.236   4.141   0.456 -0.8781 -0.5699  0.1928
 1252TIP3   OH225390   6.785   0.785   0.548 -0.1343  0.6786 -0.3936
 1252TIP3    H125391   6.866   0.754   0.589 -0.4808 -0.0281 -0.2351
 1252TIP3    H225392   6.732   0.817   0.621 -0.0457  1.0558 -0.4887
 1253TIP3   OH225393   2.913   6.428   2.728 -0.9234 -0.3606 -0.4329
 1253TIP3    H125394   2.876   6.393   2.647 -2.5491  0.7692 -0.2356
 1253TIP3    H225395   2.894   6.522   2.723 -0.3263 -0.1535  0.8999
 1254TIP3   OH225396   6.820   3.422   0.516 -0.6796  0.5754 -0.5633
 1254TIP3    H125397   6.748   3.390   0.571  0.5106 -1.0715  0.1352
 1254TIP3    H225398   6.793   3.403   0.427 -2.0554  2.0334 -0.4868
 1255TIP3   OH225399   0.252   1.127   2.556  0.0036 -0.3505  0.5117
 1255TIP3    H125400   0.171   1.108   2.603 -0.0222 -0.8576  0.2645
 1255TIP3    H225401   0.228   1.119   2.464  0.5713 -1.4810  0.4518
 1256TIP3   OH225402   5.066   1.784   7.863  0.6082  0.3171 -0.4000
 1256TIP3    H125403   5.057   1.701   7.911 -0.1908  0.0258 -1.0287
 1256TIP3    H225404   5.076   1.758   7.771 -0.1159  0.9135 -0.6665
 1257TIP3   OH225405   4.090   2.718   0.679 -0.2214 -0.4840 -0.7060
 1257TIP3    H125406   4.091   2.797   0.626  0.5651 -1.3139 -1.9846
 1257TIP3    H225407   4.084   2.647   0.615 -0.1629 -1.4862  0.3756
 1258TIP3   OH225408   1.170   2.487   0.300 -0.2156 -0.1453 -0.4049
 1258TIP3    H125409   1.159   2.567   0.249  0.0241 -1.4263 -2.6191
 1258TIP3    H225410   1.241   2.440   0.256 -0.0941 -1.4124  1.0591
 1259TIP3   OH225411   2.674   5.586   2.470 -0.3255  0.3224 -0.7048
 1259TIP3    H125412   2.725   5.597   2.550 -0.8340  1.3405 -0.5135
 1259TIP3    H225413   2.737   5.594   2.399 -0.1753  1.3696 -0.4617
 1260TIP3   OH225414   2.964   2.372   2.014  0.2157 -0.6276 -0.4874
 1260TIP3    H125415   2.897   2.412   2.068 -1.6384  0.2671 -3.2057
 1260TIP3    H225416   2.919   2.353   1.931  2.8111 -1.9703 -1.7007
 1261TIP3   OH225417   5.156   4.870   1.156  0.0429  0.0947  0.1711
 1261TIP3    H125418   5.230   4.848   1.100 -0.6652 -0.2499 -0.6590
 1261TIP3    H225419   5.109   4.938   1.107  0.2034  0.8317  1.0242
 1262TIP3   OH225420   0.918   5.355   7.895 -0.4084 -0.6570 -0.1367
 1262TIP3    H125421   0.956   5.279   7.939  1.0191 -0.9944 -1.8699
 1262TIP3    H225422   0.907   5.420   7.965  2.2112 -0.9925  0.6876
 1263TIP3   OH225423   3.049   4.937   1.061  0.0113 -0.1560  0.3392
 1263TIP3    H125424   2.965   4.891   1.072  0.4549 -1.3971 -1.1678
 1263TIP3    H225425   3.026   5.029   1.067 -1.8402 -0.3755 -1.9166
 1264TIP3   OH225426   4.800   4.885   2.803 -0.2596  0.4657 -0.0412
 1264TIP3    H125427   4.801   4.893   2.899 -0.5998  1.2731 -0.1019
 1264TIP3    H225428   4.821   4.793   2.787  0.5753  0.4919  0.7878
 1265TIP3   OH225429   0.839   4.475   8.622 -0.2009  0.4087 -0.1569
 1265TIP3    H125430   0.917   4.484   8.569 -0.4371  0.0603 -0.5727
 1265TIP3    H225431   0.840   4.550   8.681  0.3756  0.4722 -0.2462
 1266TIP3   OH225432   6.063   2.366   1.147 -0.0373 -0.2761 -0.2453
 1266TIP3    H125433   6.078   2.423   1.072  0.4750  1.4241  1.0893
 1266TIP3    H225434   6.053   2.279   1.109  0.5472  0.4710 -2.2451
 1267TIP3   OH225435   1.072   5.693   8.658 -0.1539 -0.3585 -0.1581
 1267TIP3    H125436   1.155   5.653   8.686 -0.7875 -1.9806 -0.5029
 1267TIP3    H225437   1.048   5.645   8.579 -0.5902  1.2403 -1.0244
 1268TIP3   OH225438   3.137   3.346   8.421 -0.1300 -0.6465  0.1945
 1268TIP3    H125439   3.218   3.295   8.426  0.7598  0.7039  0.3799
 1268TIP3    H225440   3.154   3.411   8.352 -1.1670 -0.5218  0.0354
 1269TIP3   OH225441   4.410   1.565   1.495 -0.2116 -0.0209 -0.4937
 1269TIP3    H125442   4.331   1.617   1.479 -0.4967 -0.2935  0.0076
 1269TIP3    H225443   4.462   1.575   1.415 -1.2726 -0.7670 -1.3100
 1270TIP3   OH225444   6.141   0.986   7.996 -0.2930 -0.4551 -0.1348
 1270TIP3    H125445   6.186   0.904   8.017 -0.8392 -0.4008  1.3143
 1270TIP3    H225446   6.177   1.012   7.911  1.4141 -1.1050  0.3591
 1271TIP3   OH225447   5.021   4.036   1.764 -0.1606 -0.3951 -0.3476
 1271TIP3    H125448   4.943   4.030   1.708 -0.4358 -0.1418  0.0008
 1271TIP3    H225449   5.094   4.047   1.703 -0.3435 -1.0678 -0.6970
 1272TIP3   OH225450   0.949   5.302   0.804 -0.0348 -0.4511  0.2385
 1272TIP3    H125451   0.887   5.254   0.859 -0.0950 -0.0229  0.5547
 1272TIP3    H225452   0.915   5.392   0.803 -0.6008 -0.6550 -1.3338
 1273TIP3   OH225453   2.497   3.279   1.290  0.1737  0.1240  0.0602
 1273TIP3    H125454   2.403   3.266   1.280  0.3945 -1.4825 -0.2033
 1273TIP3    H225455   2.528   3.201   1.336  1.5423  0.0368 -0.9418
 1274TIP3   OH225456   2.632   5.975   8.199  0.1355 -0.5077 -0.1546
 1274TIP3    H125457   2.696   6.002   8.265 -0.4877  0.3667  0.1104
 1274TIP3    H225458   2.662   6.018   8.119  0.5893 -1.1378 -0.3334
 1275TIP3   OH225459   6.156   1.142   0.038 -0.1174  0.5488  0.1294
 1275TIP3    H125460   6.088   1.201   0.072 -2.2790 -0.6201 -1.8881
 1275TIP3    H225461   6.182   1.181  -0.045  1.0990  0.4958  0.4640
 1276TIP3   OH225462   2.397   2.570   1.404  0.0730 -0.2388 -0.0095
 1276TIP3    H125463   2.325   2.523   1.362 -0.3990 -1.4032  1.9478
 1276TIP3    H225464   2.451   2.601   1.332 -1.8431 -0.2057 -1.5068
 1277TIP3   OH225465   5.318   6.289   0.258  0.1926 -0.7104  0.0388
 1277TIP3    H125466   5.356   6.212   0.217  1.5440  0.1294 -0.3647
 1277TIP3    H225467   5.225   6.284   0.239  0.4996 -1.4073 -1.3587
 1278TIP3   OH225468   5.652   0.442   2.350  0.0067 -0.1506 -0.0240
 1278TIP3    H125469   5.635   0.360   2.304  0.5805  0.7663 -1.9618
 1278TIP3    H225470   5.566   0.472   2.379 -0.3057 -1.0138 -0.0280
 1279TIP3   OH225471   1.824   1.935   2.855  0.0556 -0.1180  0.3333
 1279TIP3    H125472   1.838   1.908   2.945 -2.1070 -0.4992  0.6075
 1279TIP3    H225473   1.850   1.860   2.802  0.5784 -0.1758  0.6662
 1280TIP3   OH225474   0.774   1.591   1.198  0.0372 -0.2430  0.6155
 1280TIP3    H125475   0.697   1.535   1.190 -0.7800  0.8665  0.3675
 1280TIP3    H225476   0.772   1.645   1.119  0.8266  0.0996  0.8214
 1281TIP3   OH225477   3.677   1.637   1.637 -0.3812 -0.1586 -0.6277
 1281TIP3    H125478   3.696   1.727   1.608  1.1144 -0.0674  0.4994
 1281TIP3    H225479   3.762   1.593   1.633 -1.4109 -2.1463 -3.0481
 1282TIP3   OH225480   4.121   5.580   0.610  0.3205 -0.1441  0.0756
 1282TIP3    H125481   4.148   5.672   0.604 -1.6772  0.4378 -0.5438
 1282TIP3    H225482   4.170   5.537   0.540 -0.4799  0.9215 -1.1772
 1283TIP3   OH225483   3.466   3.137   2.072  0.2829 -0.5184 -0.1995
 1283TIP3    H125484   3.467   3.059   2.016 -2.9701  0.0764 -1.3138
 1283TIP3    H225485   3.385   3.130   2.122  0.2836  1.7703  0.2540
 1284TIP3   OH225486   0.853   0.220   2.603 -0.6109  0.1694  0.1496
 1284TIP3    H125487   0.900   0.161   2.543 -2.0356 -0.6185 -0.2301
 1284TIP3    H225488   0.903   0.215   2.684  0.3315 -0.1541 -0.4327
 1285TIP3   OH225489   6.229   3.992   2.634 -0.3439 -0.7478  0.5359
 1285TIP3    H125490   6.142   3.952   2.643 -1.0084  0.2087 -1.1280
 1285TIP3    H225491   6.273   3.939   2.568 -0.6932  0.3259 -0.6033
 1286TIP3   OH225492   0.947   2.404   2.265  0.1481  0.5853  0.1569
 1286TIP3    H125493   0.890   2.429   2.192  0.7827 -1.1508 -0.9877
 1286TIP3    H225494   0.911   2.321   2.296  0.5098  0.7948  1.1617
 1287TIP3   OH225495   6.538   3.044   1.924 -0.0101 -0.4145 -0.0722
 1287TIP3    H125496   6.517   3.032   2.016 -1.0264  0.3082 -0.1902
 1287TIP3    H225497   6.503   2.966   1.881 -0.3928 -0.2986  0.0304
 1288TIP3   OH225498   1.964   5.869   0.244  0.4617 -0.0595 -0.3292
 1288TIP3    H125499   2.051   5.869   0.205  0.0853  1.0191 -1.2189
 1288TIP3    H225500   1.973   5.815   0.323  1.9550  0.1566 -0.3248
 1289TIP3   OH225501   5.510   2.222   7.539  0.7278 -0.2533 -0.4691
 1289TIP3    H125502   5.459   2.289   7.493  0.8514 -0.0638 -0.3307
 1289TIP3    H225503   5.532   2.261   7.623 -0.7801 -1.1509  0.3901
 1290TIP3   OH225504   6.079   3.461   1.344 -0.3706 -0.3433  0.1638
 1290TIP3    H125505   5.994   3.418   1.355 -0.3772 -0.3432  0.1145
 1290TIP3    H225506   6.095   3.457   1.250  0.0988 -1.1416  0.2693
 1291TIP3   OH225507   6.795   0.684   7.818  0.2593  0.3155 -0.3728
 1291TIP3    H125508   6.815   0.663   7.727  0.4643  1.9876 -0.7475
 1291TIP3    H225509   6.774   0.778   7.817 -1.5917 -0.0241  1.0005
 1292TIP3   OH225510   3.686   3.362   8.504 -0.0823 -0.3877 -0.3751
 1292TIP3    H125511   3.719   3.346   8.593  0.4302  1.1122 -0.2654
 1292TIP3    H225512   3.764   3.355   8.448  0.3352  2.2603 -0.2302
 1293TIP3   OH225513   2.750   2.098   2.083 -0.6116  0.5204 -0.0289
 1293TIP3    H125514   2.838   2.065   2.094 -0.6017  1.0434  1.8567
 1293TIP3    H225515   2.757   2.164   2.014 -0.2005 -1.6115 -2.1634
 1294TIP3   OH225516   5.171   0.872   2.077  0.5367  0.2104 -0.1780
 1294TIP3    H125517   5.174   0.782   2.046 -0.7886 -0.3372  1.1464
 1294TIP3    H225518   5.237   0.876   2.146 -1.7508 -0.8826  2.3012
 1295TIP3   OH225519   0.148   1.238   8.107 -0.0464 -0.3265  0.2384
 1295TIP3    H125520   0.157   1.168   8.043 -1.1956 -0.4214  0.1545
 1295TIP3    H225521   0.191   1.205   8.186 -2.6551 -2.2058  1.0026
 1296TIP3   OH225522   0.541   5.197   2.802 -1.0095 -0.6706 -0.0545
 1296TIP3    H125523   0.585   5.281   2.802  1.5583 -1.9182 -0.0497
 1296TIP3    H225524   0.462   5.211   2.750 -0.5061  1.6290 -0.3069
 1297TIP3   OH225525   4.935   0.948   8.226 -0.1460 -0.0194  0.3904
 1297TIP3    H125526   4.878   0.928   8.151  1.4002 -1.2765 -0.5271
 1297TIP3    H225527   4.936   1.043   8.230 -1.5004  0.0552 -0.1874
 1298TIP3   OH225528   3.286   3.008   8.422 -0.1203 -0.3021  0.1907
 1298TIP3    H125529   3.351   3.071   8.389 -0.5327 -0.0508 -0.1605
 1298TIP3    H225530   3.314   2.924   8.385  2.4450 -1.0569  3.4202
 1299TIP3   OH225531   4.087   5.348   1.670 -0.5678 -0.3646  0.1271
 1299TIP3    H125532   4.176   5.318   1.689  0.1809  0.4711 -1.7675
 1299TIP3    H225533   4.060   5.296   1.594 -1.2598  0.1665 -0.0013
 1300TIP3   OH225534   4.636   4.251   1.451 -0.1062 -0.1530 -0.1502
 1300TIP3    H125535   4.572   4.180   1.446 -2.0188  1.5438 -1.5396
 1300TIP3    H225536   4.594   4.324   1.405  2.6191  1.2537 -0.5803
 1301TIP3   OH225537   4.997   4.851   0.833 -0.2031 -0.5814 -0.4311
 1301TIP3    H125538   5.047   4.770   0.820 -0.4257 -1.0776  1.5787
 1301TIP3    H225539   4.913   4.823   0.867  1.2988  0.4894  5.1313
 1302TIP3   OH225540   1.206   6.593   2.641  0.1875 -0.3755 -0.0046
 1302TIP3    H125541   1.181   6.622   2.729 -1.7618 -4.8754  1.2336
 1302TIP3    H225542   1.141   6.633   2.584 -1.4850 -0.9885  1.3501
 1303TIP3   OH225543   3.935   5.538   7.638 -0.2644 -0.2961 -0.0723
 1303TIP3    H125544   3.923   5.445   7.658 -1.6159 -0.4351 -1.3931
 1303TIP3    H225545   4.027   5.544   7.610 -0.3248 -1.3528 -0.5468
 1304TIP3   OH225546   4.368   4.077   2.182 -0.0456 -0.3159 -0.1275
 1304TIP3    H125547   4.415   4.091   2.100 -0.4406 -0.4151 -0.3726
 1304TIP3    H225548   4.325   3.992   2.172 -1.3058  0.3254 -0.4210
 1305TIP3   OH225549   3.975   2.455   0.889 -0.8136  0.7528 -0.1037
 1305TIP3    H125550   4.003   2.376   0.843 -0.4573  1.3668 -0.9678
 1305TIP3    H225551   3.917   2.499   0.827 -1.7892  0.6932  0.7421
 1306TIP3   OH225552   5.041   6.808   2.851  0.2498 -0.7257 -0.4963
 1306TIP3    H125553   5.027   6.713   2.860  0.9335 -0.9390 -1.5168
 1306TIP3    H225554   5.024   6.843   2.939  0.1317 -1.8136 -0.0664
 1307TIP3   OH225555   3.778   1.097   2.368 -0.6410 -0.2364  0.2731
 1307TIP3    H125556   3.791   1.042   2.291  4.0165  1.9652 -0.8525
 1307TIP3    H225557   3.820   1.048   2.439  1.7739  0.8730 -0.3163
 1308TIP3   OH225558   6.556   6.488   2.964 -0.4898  0.1964  0.0705
 1308TIP3    H125559   6.584   6.533   2.884 -0.1735  0.5541  0.3785
 1308TIP3    H225560   6.517   6.406   2.933  1.1333 -0.4560 -0.3648
 1309TIP3   OH225561   0.997   1.309   2.076 -0.1667 -0.2256  0.4120
 1309TIP3    H125562   0.953   1.348   2.151  1.3168 -0.0763  1.2483
 1309TIP3    H225563   0.985   1.215   2.087 -1.4583 -0.1453 -0.1495
 1310TIP3   OH225564   0.172   0.945   0.203  0.0067  0.2175 -0.1409
 1310TIP3    H125565   0.083   0.927   0.235  0.2935  0.7420  0.9934
 1310TIP3    H225566   0.177   1.040   0.197 -0.1050  0.1533 -2.0557
 1311TIP3   OH225567   5.289   6.468   3.399 -0.0904 -0.0295  0.1513
 1311TIP3    H125568   5.376   6.505   3.415 -0.0055 -0.6662  1.2747
 1311TIP3    H225569   5.234   6.507   3.468 -0.6745  0.2974 -0.4953
 1312TIP3   OH225570   1.886   0.128   8.392  0.2772 -0.6622 -0.6230
 1312TIP3    H125571   1.843   0.124   8.477 -1.6821  1.1436 -1.4314
 1312TIP3    H225572   1.895   0.036   8.365  1.2353 -1.2788  1.6090
 1313TIP3   OH225573   5.979   2.635   3.278 -0.3996  0.8018 -0.0407
 1313TIP3    H125574   5.987   2.673   3.366 -1.0155 -0.3604  0.5246
 1313TIP3    H225575   6.069   2.610   3.255  0.0094  2.4290 -0.3793
 1314TIP3   OH225576   5.100   5.160   8.112  0.1690  0.0192 -0.0548
 1314TIP3    H125577   5.095   5.076   8.158  0.4046  0.2281  0.3694
 1314TIP3    H225578   5.011   5.194   8.113 -0.0548 -0.5374 -0.8349
 1315TIP3   OH225579   4.235   4.460   2.037  0.4452  0.5232  0.1769
 1315TIP3    H125580   4.234   4.556   2.034 -0.2872  0.5050 -0.4296
 1315TIP3    H225581   4.320   4.439   2.077  1.4392  1.3801 -1.3599
 1316TIP3   OH225582   2.100   4.342   0.537  0.0700  0.3614  0.3760
 1316TIP3    H125583   2.010   4.312   0.523  1.0695 -1.3516 -4.0834
 1316TIP3    H225584   2.092   4.434   0.561 -2.8530  0.5499 -0.9953
 1317TIP3   OH225585   4.947   5.501   3.181 -0.1827  0.2200 -0.0584
 1317TIP3    H125586   4.999   5.571   3.141 -1.5317  1.0754 -0.3684
 1317TIP3    H225587   5.011   5.434   3.203  1.1632  1.5273  0.2248
 1318TIP3   OH225588   6.063   3.553   0.753 -0.5724 -0.2008  0.5185
 1318TIP3    H125589   6.018   3.513   0.827  2.6886 -2.5792  1.4561
 1318TIP3    H225590   6.069   3.646   0.776 -0.2195 -0.7606  2.9944
 1319TIP3   OH225591   4.657   2.624   0.322  0.1793 -0.2897  0.0093
 1319TIP3    H125592   4.725   2.656   0.263 -0.3448 -2.1210 -1.7080
 1319TIP3    H225593   4.702   2.611   0.406  1.1330  1.5881 -0.1722
 1320TIP3   OH225594   2.216   2.693   0.876  0.2770 -0.1586  0.4791
 1320TIP3    H125595   2.158   2.620   0.858  0.3228  0.0215 -0.4958
 1320TIP3    H225596   2.303   2.654   0.883  0.0151 -0.4738  2.3068
 1321TIP3   OH225597   5.583   5.683   1.118  0.3081  0.2340  0.3910
 1321TIP3    H125598   5.591   5.642   1.204  0.8654 -1.4282 -0.3930
 1321TIP3    H225599   5.603   5.775   1.132  1.1016 -0.1468  1.9252
 1322TIP3   OH225600   3.960   3.020   1.433 -0.4475  0.7793  0.7795
 1322TIP3    H125601   4.053   3.019   1.453 -0.4640  1.2658  0.8889
 1322TIP3    H225602   3.942   2.933   1.396  0.3563  1.2466 -0.7363
 1323TIP3   OH225603   5.712   3.890   3.418 -0.1167  0.5185 -0.3738
 1323TIP3    H125604   5.621   3.863   3.426 -0.6598  2.2247 -0.2946
 1323TIP3    H225605   5.711   3.954   3.346  0.6253  2.0240  0.8971
 1324TIP3   OH225606   4.555   1.881   0.642  0.3450 -0.1375 -0.2099
 1324TIP3    H125607   4.610   1.958   0.653  2.0151 -1.4265  0.9482
 1324TIP3    H225608   4.472   1.904   0.685  0.8655  0.9373  0.2427
 1325TIP3   OH225609   4.527   6.753   8.552 -0.4506 -0.1953  0.1310
 1325TIP3    H125610   4.561   6.733   8.464 -1.0062  0.0969 -0.1539
 1325TIP3    H225611   4.561   6.683   8.607  0.4016 -0.0633 -0.1994
 1326TIP3   OH225612   5.179   1.215   1.715 -0.0457  0.0720  0.4972
 1326TIP3    H125613   5.201   1.150   1.648  0.2313  0.0904  0.5704
 1326TIP3    H225614   5.092   1.245   1.690  0.7658  1.4073 -0.8976
 1327TIP3   OH225615   4.534   3.855   7.405 -0.0894 -0.0887 -0.0863
 1327TIP3    H125616   4.471   3.927   7.402  0.9279  0.8371 -0.2237
 1327TIP3    H225617   4.513   3.802   7.329 -2.9392 -1.8382  1.7440
 1328TIP3   OH225618   4.501   4.225   0.275 -0.3324 -0.1349 -0.0156
 1328TIP3    H125619   4.501   4.132   0.249  1.3060  0.2186 -1.4995
 1328TIP3    H225620   4.437   4.265   0.216 -0.4741 -0.1884  0.1003
 1329TIP3   OH225621   4.946   2.870   2.908  0.4731 -0.0096 -0.2957
 1329TIP3    H125622   4.970   2.945   2.963 -0.2394  0.2125 -0.2765
 1329TIP3    H225623   4.876   2.827   2.956 -0.6023  0.5551 -1.3250
 1330TIP3   OH225624   6.683   4.774   0.007  0.2422  0.1928  0.1722
 1330TIP3    H125625   6.602   4.817  -0.022 -0.9956 -2.2851 -0.2720
 1330TIP3    H225626   6.751   4.840  -0.009 -1.5669  2.1580  0.0213
 1331TIP3   OH225627   4.009   2.331   8.627  0.2337 -0.3895  0.3601
 1331TIP3    H125628   3.977   2.257   8.576  0.4678 -0.6429  0.5784
 1331TIP3    H225629   3.942   2.398   8.617  0.0248 -0.6291  0.1569
 1332TIP3   OH225630   5.849   0.749   8.568  0.0693  0.2084  0.1927
 1332TIP3    H125631   5.915   0.802   8.523  1.0821 -2.2826 -1.4714
 1332TIP3    H225632   5.773   0.752   8.510  1.2534 -2.7047 -1.7440
 1333TIP3   OH225633   4.537   0.506   2.629  0.3363 -0.1876 -0.8744
 1333TIP3    H125634   4.587   0.428   2.606 -0.2258 -1.2034  1.0903
 1333TIP3    H225635   4.460   0.472   2.675 -0.9531  1.4462 -1.7206
 1334TIP3   OH225636   2.511   3.339   0.966  0.1059 -0.0345  0.1539
 1334TIP3    H125637   2.455   3.363   0.892  1.8258 -1.0475 -1.5638
 1334TIP3    H225638   2.452   3.293   1.025 -1.1165 -0.1616 -1.0915
 1335TIP3   OH225639   6.445   5.831   3.377  0.0091 -0.4750  0.0321
 1335TIP3    H125640   6.480   5.762   3.433  1.5637 -1.0189 -1.5102
 1335TIP3    H225641   6.355   5.804   3.359  0.1591 -1.3784  0.5392
 1336TIP3   OH225642   0.030   0.766   1.453  0.3275 -0.4724  0.0700
 1336TIP3    H125643   0.061   0.763   1.544  0.2114 -0.4197  0.1116
 1336TIP3    H225644   0.107   0.792   1.403  0.0817  0.7718  0.3036
 1337TIP3   OH225645   0.935   5.440   2.789  0.1264 -0.5589 -0.0648
 1337TIP3    H125646   0.853   5.479   2.819 -1.2384 -1.2879 -2.5959
 1337TIP3    H225647   0.952   5.369   2.852 -0.8833 -0.0583  0.8030
 1338TIP3   OH225648   1.556   1.610   7.613  0.1503 -0.1598  0.3114
 1338TIP3    H125649   1.478   1.555   7.602 -0.1729  0.5069 -0.8827
 1338TIP3    H225650   1.521   1.698   7.626  0.6641 -0.2201  2.3023
 1339TIP3   OH225651   2.148   2.700   3.470 -0.3208  0.2410 -0.8629
 1339TIP3    H125652   2.230   2.663   3.503  0.4090 -0.2710 -3.0748
 1339TIP3    H225653   2.099   2.723   3.548 -0.4890 -4.5800  0.7736
 1340TIP3   OH225654   1.704   3.958   8.222 -0.2830 -0.2498  0.1617
 1340TIP3    H125655   1.619   3.948   8.180  0.0103  0.6181 -0.6952
 1340TIP3    H225656   1.731   4.047   8.199 -0.1715  0.3298  2.3701
 1341TIP3   OH225657   1.204   2.319   0.973  0.5731 -0.1350 -0.3729
 1341TIP3    H125658   1.256   2.351   1.047  1.0729 -0.7888 -0.4265
 1341TIP3    H225659   1.269   2.283   0.912  0.0371 -1.5747 -0.1417
 1342TIP3   OH225660   0.443   3.099   1.832 -0.6680 -0.0207  0.0003
 1342TIP3    H125661   0.537   3.119   1.832 -0.6852  0.0596 -0.1333
 1342TIP3    H225662   0.438   3.006   1.809 -0.4481 -0.8363  2.8822
 1343TIP3   OH225663   6.084   1.091   8.336 -0.4528 -0.3418  0.1854
 1343TIP3    H125664   6.066   1.172   8.383 -0.1772 -0.0457 -0.2069
 1343TIP3    H225665   6.014   1.086   8.271  0.6156  0.6297 -1.1101
 1344TIP3   OH225666   2.110   1.169   2.468 -0.2298 -0.2652 -0.2388
 1344TIP3    H125667   2.065   1.167   2.384  0.7830 -0.4639 -0.8013
 1344TIP3    H225668   2.110   1.077   2.497  0.9976 -0.5041 -0.9193
 1345TIP3   OH225669   6.817   6.512   7.891 -0.7994  0.4006  0.0655
 1345TIP3    H125670   6.768   6.562   7.827 -0.2378  1.3100  0.3354
 1345TIP3    H225671   6.798   6.420   7.870  0.5818  0.6013 -2.4023
 1346TIP3   OH225672   6.168   1.023   7.187 -0.2171  0.1339 -0.0994
 1346TIP3    H125673   6.140   0.945   7.236 -0.6958  1.1826  1.3821
 1346TIP3    H225674   6.105   1.030   7.115 -0.3723 -0.6475 -0.0534
 1347TIP3   OH225675   4.209   2.081   1.046  0.3150 -0.5376 -0.0839
 1347TIP3    H125676   4.166   2.027   1.111  1.2021 -1.0914  0.0601
 1347TIP3    H225677   4.140   2.103   0.983 -0.3285 -0.7862  0.5232
 1348TIP3   OH225678   5.585   3.768   1.332 -0.3517  0.1714 -0.0319
 1348TIP3    H125679   5.558   3.707   1.401  0.8093  1.0657  1.2714
 1348TIP3    H225680   5.508   3.778   1.277 -0.7497 -2.0439  0.0076
 1349TIP3   OH225681   1.430   5.464   7.842 -0.0853  0.3906 -0.8787
 1349TIP3    H125682   1.428   5.559   7.827  1.0887  1.0763  2.4230
 1349TIP3    H225683   1.468   5.455   7.930 -0.7647 -3.1355 -0.8252
 1350TIP3   OH225684   0.197   0.829   2.715  0.4752 -0.3598  0.3972
 1350TIP3    H125685   0.131   0.893   2.742  1.1730  0.5224  0.0691
 1350TIP3    H225686   0.271   0.844   2.775  0.7138 -0.7329  0.2004
 1351TIP3   OH225687   3.856   1.567   2.734 -0.7027  0.0945 -0.9772
 1351TIP3    H125688   3.817   1.653   2.747 -2.3662 -0.6797 -0.5929
 1351TIP3    H225689   3.938   1.570   2.784  0.0112  1.8989 -2.1376
 1352TIP3   OH225690   2.191   1.218   1.332  0.3403 -0.5954  0.0689
 1352TIP3    H125691   2.190   1.301   1.382  1.8932 -0.7013  0.3406
 1352TIP3    H225692   2.158   1.242   1.246 -0.1242  0.1106  0.4290
 1353TIP3   OH225693   0.350   4.296   2.409  0.0204  0.1118 -0.0449
 1353TIP3    H125694   0.325   4.271   2.498 -0.1029  0.5434  0.0477
 1353TIP3    H225695   0.321   4.223   2.354 -1.4173  0.5643  0.0704
 1354TIP3   OH225696   5.650   1.622   2.821 -0.1323 -0.2963  0.1002
 1354TIP3    H125697   5.724   1.598   2.765  1.2598 -0.0491  1.7702
 1354TIP3    H225698   5.573   1.610   2.765  0.8710 -3.6154 -0.7651
 1355TIP3   OH225699   3.819   1.507   0.477 -0.0601  0.0655 -0.4146
 1355TIP3    H125700   3.901   1.539   0.515 -0.2025 -0.3559  0.2640
 1355TIP3    H225701   3.774   1.586   0.448  0.6187  0.2997 -0.8780
 1356TIP3   OH225702   1.014   2.359   8.007 -0.4366  0.1808 -1.2100
 1356TIP3    H125703   0.983   2.362   7.917  1.5400 -0.1541 -1.9495
 1356TIP3    H225704   1.085   2.424   8.010 -2.9838  3.1782  1.2083
 1357TIP3   OH225705   4.845   4.615   0.601 -0.0837  0.3779 -0.0940
 1357TIP3    H125706   4.915   4.679   0.612 -0.4204  0.6864  0.3555
 1357TIP3    H225707   4.777   4.662   0.552  1.2458 -0.8783 -3.3583
 1358TIP3   OH225708   4.800   2.805   1.313 -0.1146  0.4125 -0.4435
 1358TIP3    H125709   4.876   2.812   1.371  0.5585  1.0509 -1.3703
 1358TIP3    H225710   4.743   2.877   1.339  0.2973  0.8456 -0.7305
 1359TIP3   OH225711   2.948   0.588   0.840  0.3742  0.1477 -0.9383
 1359TIP3    H125712   2.889   0.566   0.769  2.3404 -0.2922 -2.5198
 1359TIP3    H225713   2.960   0.683   0.833 -0.4119  0.3044 -0.3512
 1360TIP3   OH225714   6.606   5.144   1.283  0.1125 -0.3604  0.1341
 1360TIP3    H125715   6.555   5.065   1.268 -0.3053  0.2362 -1.9175
 1360TIP3    H225716   6.544   5.204   1.324 -0.5979  0.0020 -1.3890
 1361TIP3   OH225717   5.022   1.792   1.338 -0.3000 -0.5269 -0.4045
 1361TIP3    H125718   5.052   1.706   1.369 -0.9158 -0.9298 -0.9056
 1361TIP3    H225719   5.103   1.843   1.328 -0.0402 -0.4148  1.6844
 1362TIP3   OH225720   4.010   2.090   0.332 -0.2850  0.2909 -0.0035
 1362TIP3    H125721   4.034   2.054   0.247 -1.7150  1.2682 -0.8435
 1362TIP3    H225722   4.017   2.015   0.392  0.6334 -0.4341 -0.9677
 1363TIP3   OH225723   1.660   6.743   3.247  0.0896 -0.0663  0.5713
 1363TIP3    H125724   1.638   6.744   3.154 -0.1170  1.1060  0.6119
 1363TIP3    H225725   1.727   6.811   3.256 -0.1432  0.0710  1.3279
 1364TIP3   OH225726   6.535   6.478   1.485  0.0803 -1.0406 -0.5517
 1364TIP3    H125727   6.567   6.419   1.554 -0.5125 -0.8413 -0.0909
 1364TIP3    H225728   6.581   6.560   1.501 -0.2110 -0.9304 -0.2514
 1365TIP3   OH225729   1.226   5.469   1.788  0.8817 -1.0413  0.0727
 1365TIP3    H125730   1.179   5.389   1.812 -1.8949  0.4012 -0.1649
 1365TIP3    H225731   1.199   5.487   1.698  2.7001 -0.6281 -0.4355
 1366TIP3   OH225732   6.684   6.753   7.372 -0.3712 -0.3855 -0.2230
 1366TIP3    H125733   6.609   6.806   7.401  0.6514  0.6097  0.7051
 1366TIP3    H225734   6.648   6.665   7.358 -1.7253  0.1010  0.0844
 1367TIP3   OH225735   5.431   4.024   2.244 -0.0113  0.1174  0.4925
 1367TIP3    H125736   5.477   3.947   2.276  2.0396  0.5941 -1.0888
 1367TIP3    H225737   5.423   4.081   2.320 -0.9118 -1.3044  1.5133
 1368TIP3   OH225738   2.967   6.594   2.375 -0.1296  0.3448  0.1256
 1368TIP3    H125739   3.016   6.635   2.304  1.0220 -1.0821  0.0545
 1368TIP3    H225740   2.877   6.626   2.363 -0.1642 -0.4600 -2.5008
 1369TIP3   OH225741   6.800   6.750   1.645  0.0395  0.1353  0.6746
 1369TIP3    H125742   6.753   6.785   1.569  1.2182  0.5087  0.0991
 1369TIP3    H225743   6.892   6.762   1.624  0.4413 -1.6596  1.2641
 1370TIP3   OH225744   6.416   3.501   1.290  0.2275  0.3157  0.3136
 1370TIP3    H125745   6.490   3.470   1.343  0.3119  0.3389  0.2101
 1370TIP3    H225746   6.411   3.595   1.308  1.9086  0.8749 -1.6752
 1371TIP3   OH225747   5.440   1.191   0.254  0.1416 -0.1824  0.4620
 1371TIP3    H125748   5.402   1.195   0.167 -0.1072  1.0832  0.6091
 1371TIP3    H225749   5.522   1.143   0.243  0.0883 -0.0665 -0.4530
 1372TIP3   OH225750   5.753   5.161   0.063  0.1821  0.4437 -0.3940
 1372TIP3    H125751   5.691   5.171  -0.010  1.6954 -0.5405 -1.9161
 1372TIP3    H225752   5.825   5.220   0.042  1.4241 -1.0824 -0.6586
 1373TIP3   OH225753   5.612   1.037   7.983 -0.1825  0.0564 -0.3558
 1373TIP3    H125754   5.574   1.035   8.071 -0.4641  1.1927 -0.4400
 1373TIP3    H225755   5.706   1.030   7.997 -0.3231 -1.8691 -0.0961
 1374TIP3   OH225756   5.621   6.244   7.763  0.3763 -0.0972 -0.0381
 1374TIP3    H125757   5.606   6.334   7.732 -0.7600  0.0133  0.7623
 1374TIP3    H225758   5.686   6.254   7.833  0.4722  0.0653 -0.1492
 1375TIP3   OH225759   1.020   0.402   0.283 -0.2129  0.3110  0.2352
 1375TIP3    H125760   1.053   0.313   0.295  1.0120  0.8126  0.8246
 1375TIP3    H225761   0.965   0.398   0.205  4.0624  0.0415 -3.1981
 1376TIP3   OH225762   2.866   0.438   1.439  0.0432 -0.4291 -0.0791
 1376TIP3    H125763   2.942   0.478   1.396  1.2212 -0.0027  2.2555
 1376TIP3    H225764   2.796   0.502   1.429 -0.0320 -0.7395 -2.0895
 1377TIP3   OH225765   6.699   6.790   3.341 -0.3050  0.1560  0.0484
 1377TIP3    H125766   6.614   6.777   3.384  0.3071  0.3470  1.3407
 1377TIP3    H225767   6.761   6.802   3.412  0.5716  1.6311 -0.8954
 1378TIP3   OH225768   5.464   3.675   8.523  0.2908 -0.3141  0.7083
 1378TIP3    H125769   5.535   3.663   8.460  0.8262  0.3447  1.1691
 1378TIP3    H225770   5.496   3.742   8.583 -1.3253  1.1712  0.0146
 1379TIP3   OH225771   0.728   4.306   3.444 -0.1616  0.0139 -0.5412
 1379TIP3    H125772   0.690   4.230   3.488  0.0627  0.8249  1.1427
 1379TIP3    H225773   0.670   4.378   3.466  1.8153  1.1358  1.4774
 1380TIP3   OH225774   6.099   0.859   0.002 -0.2411  0.1764 -0.1936
 1380TIP3    H125775   6.098   0.826   0.092 -0.4047  0.2111 -0.1811
 1380TIP3    H225776   6.091   0.954   0.011 -0.3174  0.1751 -0.2454
 1381TIP3   OH225777   6.053   3.035   0.907  0.0902 -0.2106  0.0088
 1381TIP3    H125778   6.063   2.944   0.935 -0.0754 -0.1094  0.4046
 1381TIP3    H225779   6.114   3.045   0.834  0.7835 -0.3768  0.5608
 1382TIP3   OH225780   5.094   3.979   0.984  0.8530 -0.2692  0.4213
 1382TIP3    H125781   5.134   3.908   0.935  0.2315 -0.1333 -0.2981
 1382TIP3    H225782   5.032   4.019   0.923  0.5016  0.2859  1.1216
 1383TIP3   OH225783   1.326   2.407   1.489  0.2865  0.4537  0.4712
 1383TIP3    H125784   1.362   2.489   1.455  1.3195 -0.1451  0.0892
 1383TIP3    H225785   1.245   2.433   1.532  0.1966  1.5636 -0.3365
 1384TIP3   OH225786   0.080   2.386   2.586  0.1572  0.3378  0.5085
 1384TIP3    H125787   0.173   2.382   2.564  0.4022  1.9254  1.1361
 1384TIP3    H225788   0.035   2.370   2.503  0.9612 -1.1508  0.3287
 1385TIP3   OH225789   2.802   6.863   1.838  0.3481 -0.2939 -0.6072
 1385TIP3    H125790   2.724   6.813   1.858  0.6128 -0.2427  0.6151
 1385TIP3    H225791   2.773   6.954   1.837  0.3102 -0.3061 -0.5909
 1386TIP3   OH225792   4.313   3.089   2.478  0.2958  0.0513 -0.2708
 1386TIP3    H125793   4.258   3.074   2.555 -1.2491 -1.8303 -1.6582
 1386TIP3    H225794   4.375   3.017   2.478 -0.4058 -0.5778 -1.3307
 1387TIP3   OH225795   6.023   2.344   1.724 -0.4080  0.0854  0.0995
 1387TIP3    H125796   6.084   2.309   1.789  1.6430 -1.5427 -2.4583
 1387TIP3    H225797   6.036   2.439   1.727 -0.1532  0.0213  1.7954
 1388TIP3   OH225798   5.633   6.597   2.282 -0.3009  0.3620 -0.7187
 1388TIP3    H125799   5.684   6.516   2.284  1.4956  1.4475  0.2740
 1388TIP3    H225800   5.679   6.656   2.341 -1.0775  2.3988 -2.0216
 1389TIP3   OH225801   5.267   5.065   1.353 -0.1481  0.6192 -0.3737
 1389TIP3    H125802   5.286   5.094   1.264 -1.6254  0.0212 -0.9194
 1389TIP3    H225803   5.172   5.072   1.361 -0.2244 -0.8935  0.5905
 1390TIP3   OH225804   5.656   3.375   1.099  0.3924 -0.2948 -0.4534
 1390TIP3    H125805   5.570   3.412   1.120  0.5299 -0.9118  1.4367
 1390TIP3    H225806   5.638   3.285   1.073  0.4911 -0.5999  0.5029
 1391TIP3   OH225807   0.678   2.452   1.057 -0.0203  0.4349 -0.3368
 1391TIP3    H125808   0.637   2.451   0.971  1.2006  0.5744 -0.9482
 1391TIP3    H225809   0.763   2.495   1.043 -0.3957  1.7903  1.2218
 1392TIP3   OH225810   0.077   1.682   0.309  0.2393  0.1485 -0.7891
 1392TIP3    H125811  -0.002   1.692   0.256 -0.1459  0.2283 -0.2007
 1392TIP3    H225812   0.045   1.666   0.398  0.8841  0.4918 -0.4899
 1393TIP3   OH225813   6.490   0.430   0.226  0.0976  0.0031 -0.2582
 1393TIP3    H125814   6.480   0.411   0.132 -0.6764 -0.4551 -0.0914
 1393TIP3    H225815   6.561   0.372   0.254  2.4057  2.2446 -1.1514
 1394TIP3   OH225816   6.117   6.699   2.259 -0.0144 -0.4165 -0.5019
 1394TIP3    H125817   6.192   6.756   2.237 -0.9911  0.5696 -1.3917
 1394TIP3    H225818   6.069   6.747   2.326 -0.1916 -0.7490 -0.3903
 1395TIP3   OH225819   5.013   3.359   0.820 -0.0240 -0.2426 -0.1486
 1395TIP3    H125820   5.010   3.269   0.788 -1.8107 -0.6844  1.1101
 1395TIP3    H225821   5.091   3.396   0.779  1.3672 -2.6609  0.1011
 1396TIP3   OH225822   6.508   3.102   3.809 -0.2733 -0.5202  0.2945
 1396TIP3    H125823   6.536   3.054   3.887  0.8173  0.2239  0.3790
 1396TIP3    H225824   6.588   3.141   3.775 -1.1279  1.3497  0.3033
 1397TIP3   OH225825   1.743   2.928   1.996  0.1559  0.1377  0.1272
 1397TIP3    H125826   1.652   2.925   2.027  0.4460  0.0634  0.9752
 1397TIP3    H225827   1.736   2.962   1.906 -0.6783  0.4445  0.3000
 1398TIP3   OH225828   4.038   4.153   3.247  0.0991  0.3283 -0.2530
 1398TIP3    H125829   4.041   4.160   3.151  3.1712  0.2926 -0.2567
 1398TIP3    H225830   4.013   4.241   3.276 -1.7840  0.1023 -1.0480
 1399TIP3   OH225831   5.056   4.229   1.455  0.0846  0.1019  0.1785
 1399TIP3    H125832   5.113   4.289   1.406  0.2816 -0.2647 -0.0547
 1399TIP3    H225833   5.065   4.255   1.546  0.3991  0.2381  0.1089
 1400TIP3   OH225834   4.817   3.986   0.528  0.1183  0.8795  0.5769
 1400TIP3    H125835   4.735   3.988   0.576 -0.4728 -0.0589 -0.3725
 1400TIP3    H225836   4.808   4.056   0.463 -0.2456  0.2870 -0.0183
 1401TIP3   OH225837   0.324   1.761   2.459  0.0058  0.6673 -0.2943
 1401TIP3    H125838   0.322   1.691   2.393 -3.1242  1.5958 -1.3763
 1401TIP3    H225839   0.275   1.725   2.533  0.4207  0.9117  0.1084
 1402TIP3   OH225840   5.890   6.161   7.344 -0.3932 -0.0579  0.0897
 1402TIP3    H125841   5.895   6.207   7.260 -0.6685 -0.3083 -0.0650
 1402TIP3    H225842   5.799   6.133   7.351 -0.4808  0.3610  0.6906
 1403TIP3   OH225843   3.504   1.521   1.437  0.0720 -0.5252 -0.0193
 1403TIP3    H125844   3.538   1.568   1.513 -0.8725  2.7176 -1.4349
 1403TIP3    H225845   3.424   1.479   1.468  1.7908 -2.8052  1.6936
 1404TIP3   OH225846   3.885   2.034   2.865  0.2446  1.0267 -0.2115
 1404TIP3    H125847   3.925   2.044   2.778  0.8956 -2.0418 -0.3735
 1404TIP3    H225848   3.957   2.007   2.922 -0.3196  2.3275  1.1614
 1405TIP3   OH225849   5.514   3.181   2.784 -0.0838 -0.6698 -0.0471
 1405TIP3    H125850   5.510   3.093   2.820  0.7810 -0.7024  0.0039
 1405TIP3    H225851   5.450   3.182   2.714 -0.8132 -1.0265  0.6053
 1406TIP3   OH225852   4.641   0.029   7.023  0.1436  0.6398 -0.1238
 1406TIP3    H125853   4.572  -0.037   7.015  0.9985 -0.3423  0.2647
 1406TIP3    H225854   4.712  -0.017   7.068  0.7053  1.8917  0.2928
 1407TIP3   OH225855   0.106   0.323   3.299 -0.0422 -0.0786  0.2140
 1407TIP3    H125856   0.043   0.253   3.318 -0.7589  0.6200  0.4314
 1407TIP3    H225857   0.191   0.281   3.311 -0.4566 -0.5356  1.7849
 1408TIP3   OH225858   5.280   1.123   1.260  0.0135 -0.6206  0.2380
 1408TIP3    H125859   5.204   1.123   1.201  1.0896  1.0753 -1.2570
 1408TIP3    H225860   5.275   1.208   1.304  0.7674 -0.6942  0.4750
 1409TIP3   OH225861   1.511   6.265   1.843  0.7620 -0.6013  0.3724
 1409TIP3    H125862   1.434   6.284   1.788  0.1917 -0.5342  1.1846
 1409TIP3    H225863   1.580   6.246   1.780  0.6487  1.4370 -0.4575
 1410TIP3   OH225864   0.255   2.816   3.158  0.2961 -0.6269 -0.4549
 1410TIP3    H125865   0.214   2.836   3.242 -0.2785  1.9108 -1.2340
 1410TIP3    H225866   0.205   2.742   3.124 -0.9917 -0.2068  0.4355
 1411TIP3   OH225867   5.431   1.948   3.127 -0.1295 -0.4128  0.4184
 1411TIP3    H125868   5.417   2.020   3.189 -2.4813 -1.1757  0.8808
 1411TIP3    H225869   5.464   1.876   3.180  1.4698  0.0420  0.0885
 1412TIP3   OH225870   0.328   0.905   1.518 -0.1392  0.2975 -0.1913
 1412TIP3    H125871   0.277   0.967   1.568 -0.2132  0.0620  0.0293
 1412TIP3    H225872   0.293   0.910   1.429 -0.3192  0.3775 -0.1153
 1413TIP3   OH225873   0.876   0.840   3.455  0.6297 -0.0693  0.1443
 1413TIP3    H125874   0.811   0.777   3.425  0.7822 -1.3061  2.1655
 1413TIP3    H225875   0.829   0.894   3.519  0.6302  1.6172 -1.2048
 1414TIP3   OH225876   3.168   2.105   1.374 -0.3834  0.5816 -0.1201
 1414TIP3    H125877   3.241   2.107   1.313 -0.9782  2.5881 -0.8745
 1414TIP3    H225878   3.144   2.013   1.381  0.8680  0.1217 -1.4814
 1415TIP3   OH225879   2.244   2.286   3.619  0.0225 -0.2011  0.4008
 1415TIP3    H125880   2.256   2.229   3.543 -1.3159 -1.6979  1.2472
 1415TIP3    H225881   2.330   2.286   3.662  0.3530 -0.6376 -0.2380
 1416TIP3   OH225882   4.285   5.292   1.396  0.2730  0.1582  0.6899
 1416TIP3    H125883   4.246   5.260   1.314  1.0313 -0.6584  0.6318
 1416TIP3    H225884   4.244   5.377   1.410  1.2205  1.0344 -1.3651
 1417TIP3   OH225885   1.551   0.327   0.198  0.0590 -0.2086 -0.2967
 1417TIP3    H125886   1.513   0.260   0.256 -0.2674  0.8594  0.7821
 1417TIP3    H225887   1.512   0.309   0.112 -1.6545 -0.1590  0.4179
 1418TIP3   OH225888   1.143   5.294   1.001  0.1954  0.6016  0.2259
 1418TIP3    H125889   1.191   5.214   0.982 -1.7187 -1.0272  1.7640
 1418TIP3    H225890   1.087   5.308   0.925 -0.9495 -0.7557  0.7796
 1419TIP3   OH225891   4.977   1.631   1.020  0.0254 -0.6404 -0.3248
 1419TIP3    H125892   5.009   1.545   0.994 -1.7613 -1.0776 -1.2749
 1419TIP3    H225893   5.019   1.647   1.105 -0.2425 -2.8390  0.3043
 1420TIP3   OH225894   1.735   2.917   8.635 -0.1405  0.0011  0.1647
 1420TIP3    H125895   1.718   2.901   8.728  3.0101  1.4037  1.1197
 1420TIP3    H225896   1.757   2.830   8.600 -0.2272 -0.3743  1.0159
 1421TIP3   OH225897   6.547   2.821   7.787  0.2807 -0.1619  0.4696
 1421TIP3    H125898   6.452   2.829   7.793  0.4327  0.5039  2.7205
 1421TIP3    H225899   6.564   2.727   7.786 -0.4391 -0.3231 -1.8791
 1422TIP3   OH225900   2.032   5.354   2.385 -0.3426 -0.1577  0.2231
 1422TIP3    H125901   2.100   5.350   2.318 -0.0144 -0.6848  0.5793
 1422TIP3    H225902   2.058   5.288   2.449  0.0059  1.1928  1.5031
 1423TIP3   OH225903   2.379   5.048   1.108 -0.2256 -0.3648  0.6195
 1423TIP3    H125904   2.412   4.998   1.033 -0.0793 -1.1831  1.2196
 1423TIP3    H225905   2.306   5.098   1.073  1.1121  0.8628 -0.5567
 1424TIP3   OH225906   6.854   4.088   1.498 -0.1438 -0.0846  0.2196
 1424TIP3    H125907   6.795   4.161   1.516 -1.3417 -0.7347 -0.8562
 1424TIP3    H225908   6.811   4.040   1.427  1.5820 -0.7193 -0.4503
 1425TIP3   OH225909   6.498   3.024   0.064 -0.2138 -0.5732  0.2037
 1425TIP3    H125910   6.584   2.987   0.042  0.3347  0.0678  1.2059
 1425TIP3    H225911   6.437   2.952   0.047  0.4874 -0.9945 -0.6653
 1426TIP3   OH225912   1.214   6.843   7.703 -0.6349  0.2442 -0.5170
 1426TIP3    H125913   1.168   6.836   7.620 -0.9410  1.0546 -0.4305
 1426TIP3    H225914   1.145   6.850   7.769 -0.3949  0.1087 -0.2508
 1427TIP3   OH225915   3.375   2.359   1.143  0.0131 -0.0697 -0.7707
 1427TIP3    H125916   3.304   2.403   1.191 -0.7869 -0.2586 -1.7385
 1427TIP3    H225917   3.361   2.385   1.052  1.1966 -0.1281 -0.9841
 1428TIP3   OH225918   4.427   3.963   8.596 -0.8959  0.4921 -0.9129
 1428TIP3    H125919   4.340   4.002   8.606 -0.6974  1.1680 -1.7235
 1428TIP3    H225920   4.422   3.910   8.517 -0.6986  0.1704 -0.7128
 1429TIP3   OH225921   4.081   6.182   8.045  0.0399 -0.2060  0.1780
 1429TIP3    H125922   4.156   6.226   8.006 -0.0480  0.8519  1.1317
 1429TIP3    H225923   4.007   6.209   7.991 -0.1891  1.8217  1.3890
 1430TIP3   OH225924   4.057   5.793   8.228  0.1718  0.1688 -0.3810
 1430TIP3    H125925   3.963   5.807   8.237 -0.5710 -4.2123  1.1221
 1430TIP3    H225926   4.068   5.766   8.137 -0.6266 -1.9388  0.0786
 1431TIP3   OH225927   1.871   4.510   8.148  0.1119  0.0028  0.1003
 1431TIP3    H125928   1.928   4.585   8.135 -1.1448  0.8590 -0.5981
 1431TIP3    H225929   1.875   4.461   8.065 -0.6491  0.4132 -0.1865
 1432TIP3   OH225930   5.200   5.675   8.035  0.0725 -0.2989  0.7619
 1432TIP3    H125931   5.193   5.598   7.978 -1.0632  0.8437 -0.7276
 1432TIP3    H225932   5.112   5.689   8.069 -0.6418  2.2922 -1.7730
 1433TIP3   OH225933   6.513   2.898   8.059  0.1468 -0.0110  0.1182
 1433TIP3    H125934   6.584   2.883   8.121  0.1996 -1.8121 -0.3164
 1433TIP3    H225935   6.534   2.843   7.984 -0.0186  1.9775 -1.4770
 1434TIP3   OH225936   0.732   4.211   8.180 -0.2467 -0.0803  0.0130
 1434TIP3    H125937   0.714   4.217   8.086 -1.5624  0.0432  0.2517
 1434TIP3    H225938   0.681   4.136   8.210 -1.0397  0.7716  0.8790
 1435TIP3   OH225939   4.641   1.342   0.377  0.2562  0.0286 -0.1429
 1435TIP3    H125940   4.569   1.281   0.394 -0.7058  1.5826  1.8122
 1435TIP3    H225941   4.597   1.421   0.345  1.2011  0.6776  0.1565
 1436TIP3   OH225942   4.517   0.548   1.644 -0.1375  0.4532  0.4212
 1436TIP3    H125943   4.516   0.544   1.739 -0.0477 -1.3451  0.3880
 1436TIP3    H225944   4.426   0.559   1.619 -0.2768 -0.0358  0.7047
 1437TIP3   OH225945   4.589   3.433   3.491 -0.2210  0.6059  0.0404
 1437TIP3    H125946   4.684   3.434   3.491 -0.1759 -0.8638  0.4834
 1437TIP3    H225947   4.566   3.358   3.547 -1.6021 -0.0532 -1.3313
 1438TIP3   OH225948   5.930   3.841   3.225 -0.2611 -0.2656  0.2936
 1438TIP3    H125949   5.966   3.756   3.198 -0.2304 -0.2354  0.2371
 1438TIP3    H225950   5.835   3.830   3.221 -0.2557 -0.2022 -0.0185
 1439TIP3   OH225951   3.220   3.993   3.477 -0.0115 -0.0664 -0.1670
 1439TIP3    H125952   3.277   3.933   3.526  0.4738  2.7875  3.1421
 1439TIP3    H225953   3.265   4.077   3.479 -2.6281  1.4762 -0.6526
 1440TIP3   OH225954   2.500   6.749   1.110  0.1872 -0.0097  0.0413
 1440TIP3    H125955   2.489   6.837   1.146 -1.0618 -0.7718  1.6327
 1440TIP3    H225956   2.577   6.714   1.154 -1.2108 -0.8595  1.9666
 1441TIP3   OH225957   2.768   5.059   0.864 -0.4563 -0.0988 -0.1170
 1441TIP3    H125958   2.722   5.133   0.903 -1.8811 -1.7967  1.5866
 1441TIP3    H225959   2.770   4.992   0.932  0.5842 -1.7384 -1.6526
 1442TIP3   OH225960   5.489   0.182   8.350  0.5422  0.0361 -0.3880
 1442TIP3    H125961   5.519   0.142   8.268 -0.3659  1.3008 -1.3704
 1442TIP3    H225962   5.405   0.141   8.368  0.9239 -0.5358  0.1616
 1443TIP3   OH225963   1.128   0.612   0.052  0.1287  0.2470  0.3157
 1443TIP3    H125964   1.076   0.691   0.059 -0.1248 -0.0392  2.3714
 1443TIP3    H225965   1.087   0.550   0.113  2.2087 -0.3385  1.2182
 1444TIP3   OH225966   0.348   5.762   2.183 -0.0009  0.0660 -0.0459
 1444TIP3    H125967   0.323   5.687   2.130 -1.6434  0.3692  0.2603
 1444TIP3    H225968   0.295   5.834   2.149  1.9463  1.2730 -0.7217
 1445TIP3   OH225969   4.059   6.645   0.428  0.2447 -0.0731  0.1269
 1445TIP3    H125970   3.966   6.640   0.452  0.3899  1.3791  1.0856
 1445TIP3    H225971   4.066   6.726   0.377  0.8532 -0.5753 -0.5944
 1446TIP3   OH225972   6.182   4.990   1.412 -0.0817  0.9993 -0.9481
 1446TIP3    H125973   6.114   4.936   1.453  0.8423 -0.0064 -0.6686
 1446TIP3    H225974   6.210   5.049   1.481  1.1174 -0.3522 -0.2120
 1447TIP3   OH225975   1.698   2.204   8.648  0.2240 -0.1589 -0.0002
 1447TIP3    H125976   1.611   2.192   8.687  0.7059 -0.9708  0.8583
 1447TIP3    H225977   1.690   2.286   8.598 -0.0922  1.6942  2.8530
 1448TIP3   OH225978   4.462   4.966   7.906 -0.4082 -0.3710  0.3827
 1448TIP3    H125979   4.449   5.056   7.875  0.5665  0.5283  2.4329
 1448TIP3    H225980   4.534   4.933   7.852 -0.1137  0.4255  0.2745
 1449TIP3   OH225981   6.562   4.565   1.943  0.2512 -0.2585 -0.4059
 1449TIP3    H125982   6.593   4.503   2.010 -1.3869 -1.7829 -0.9745
 1449TIP3    H225983   6.591   4.527   1.860 -0.5932 -0.1543 -0.7551
 1450TIP3   OH225984   6.647   0.593   0.823 -0.4598  0.2406 -0.0144
 1450TIP3    H125985   6.607   0.608   0.908 -0.2279 -0.6504  0.2582
 1450TIP3    H225986   6.580   0.548   0.772  0.1800 -1.3459  0.4758
 1451TIP3   OH225987   5.227   4.958   8.338  0.1406 -0.2734  0.4269
 1451TIP3    H125988   5.209   5.051   8.345 -2.1937 -0.7750  2.3626
 1451TIP3    H225989   5.317   4.953   8.305  0.8078  2.6457  1.5455
 1452TIP3   OH225990   3.832   6.522   2.960 -0.6500 -0.2753 -0.3375
 1452TIP3    H125991   3.763   6.469   3.000 -1.7835  1.2341 -0.1938
 1452TIP3    H225992   3.914   6.482   2.991 -1.4711 -1.1554  0.7871
 1453TIP3   OH225993   6.696   0.890   1.806  0.1443  0.0785  0.2871
 1453TIP3    H125994   6.666   0.817   1.860  2.3632 -0.9713  0.2152
 1453TIP3    H225995   6.771   0.925   1.854 -0.1971  1.6137 -0.2546
 1454TIP3   OH225996   0.840   3.575   8.088  0.4764 -0.5579  0.7327
 1454TIP3    H125997   0.855   3.513   8.017 -0.5901 -2.2029  1.8521
 1454TIP3    H225998   0.824   3.658   8.045 -2.4795 -1.9241 -1.1763
 1455TIP3   OH225999   5.029   0.311   1.831  0.1081 -0.1807  0.3485
 1455TIP3    H126000   4.935   0.327   1.835  0.3441  1.7093 -0.5120
 1455TIP3    H226001   5.049   0.264   1.911 -1.5122 -0.3219  0.7067
 1456TIP3   OH226002   1.816   2.468   1.748 -1.5891 -0.3197 -0.4961
 1456TIP3    H126003   1.780   2.488   1.662 -1.4842 -0.3336 -0.5432
 1456TIP3    H226004   1.777   2.534   1.806 -3.3454 -1.6286 -0.1392
 1457TIP3   OH226005   0.613   6.233   8.516  0.1038  0.4225 -0.4341
 1457TIP3    H126006   0.548   6.302   8.507  2.0811  2.5678  0.5173
 1457TIP3    H226007   0.603   6.180   8.437 -2.7526  0.5976 -0.3004
 1458TIP3   OH226008   6.776   1.143   3.188 -0.3380  0.4414  0.4024
 1458TIP3    H126009   6.805   1.234   3.182 -0.8083  0.5219 -1.0869
 1458TIP3    H226010   6.853   1.092   3.162 -0.5653  0.5139 -0.4608
 1459TIP3   OH226011   3.799   3.639   1.968  0.6046 -0.4947 -0.4069
 1459TIP3    H126012   3.720   3.642   1.914  0.2911 -0.1492  0.0543
 1459TIP3    H226013   3.769   3.666   2.055  1.0042 -1.4876  0.0531
 1460TIP3   OH226014   5.838   0.704   1.086  0.3612  0.1354 -0.1470
 1460TIP3    H126015   5.745   0.717   1.104  1.1061  2.3607  2.7485
 1460TIP3    H226016   5.859   0.767   1.017 -0.5091 -1.5533 -2.0670
 1461TIP3   OH226017   3.057   1.676   7.378  0.4855 -0.1005  0.4528
 1461TIP3    H126018   3.102   1.718   7.452 -1.4599  1.9779  0.5968
 1461TIP3    H226019   3.079   1.583   7.386  2.8527  0.4853  1.7608
 1462TIP3   OH226020   5.983   3.007   2.238  0.1996 -0.2370 -0.5707
 1462TIP3    H126021   6.058   3.029   2.184  0.7331  0.3663  0.4038
 1462TIP3    H226022   5.910   3.055   2.199  0.1958 -1.1487 -1.7689
 1463TIP3   OH226023   2.076   1.639   8.079  0.3852  0.0845 -0.2978
 1463TIP3    H126024   2.017   1.628   8.004 -0.1096 -0.5608  0.1671
 1463TIP3    H226025   2.126   1.558   8.083 -0.3280 -0.3382  0.6746
 1464TIP3   OH226026   6.365   0.726   7.798  0.0478 -0.2616 -0.0507
 1464TIP3    H126027   6.380   0.727   7.703  1.2316  0.2991  0.1199
 1464TIP3    H226028   6.396   0.811   7.828  2.0970 -1.3323  1.1572
 1465TIP3   OH226029   0.251   2.441   2.288  0.4882 -0.1402  0.2867
 1465TIP3    H126030   0.303   2.405   2.216 -0.9112  0.9627 -1.3593
 1465TIP3    H226031   0.189   2.500   2.246 -0.5665  0.3675  2.3976
 1466TIP3   OH226032   4.499   4.812   1.839 -0.1132 -0.0487 -0.6064
 1466TIP3    H126033   4.482   4.904   1.860 -0.5847 -0.1993 -0.3177
 1466TIP3    H226034   4.419   4.766   1.865 -0.4932 -0.3348 -2.2093
 1467TIP3   OH226035   0.443   0.667   7.633 -0.0734 -0.1785 -0.2254
 1467TIP3    H126036   0.514   0.675   7.569  1.6268 -0.8721  1.4840
 1467TIP3    H226037   0.369   0.713   7.592  1.3621  0.6824 -2.0279
 1468TIP3   OH226038   1.424   2.314   2.772 -0.4720  0.0589 -0.2072
 1468TIP3    H126039   1.334   2.325   2.803 -0.3513  0.1292  0.1223
 1468TIP3    H226040   1.479   2.342   2.846 -0.1790 -0.0667 -0.3742
 1469TIP3   OH226041   6.391   1.893   2.201 -0.4227  0.1294 -0.0527
 1469TIP3    H126042   6.391   1.903   2.296  0.5610 -2.1682  0.2660
 1469TIP3    H226043   6.481   1.913   2.175  0.1861 -2.2048 -0.0183
 1470TIP3   OH226044   6.623   2.557   7.832  0.4889 -0.1862  0.3286
 1470TIP3    H126045   6.624   2.513   7.747  1.6281  2.0178 -0.8642
 1470TIP3    H226046   6.692   2.513   7.883  0.4799 -0.8625 -0.2370
 1471TIP3   OH226047   3.213   0.783   1.742  0.1353 -0.0061  0.4216
 1471TIP3    H126048   3.298   0.797   1.701  0.4257  0.7841  1.2529
 1471TIP3    H226049   3.153   0.767   1.668  0.3477  2.8064 -0.4979
 1472TIP3   OH226050   4.691   0.367   1.961 -0.0171  0.2806  0.1543
 1472TIP3    H126051   4.676   0.274   1.977  0.5909  0.5902  3.1948
 1472TIP3    H226052   4.613   0.410   1.998 -0.7638  0.9904 -2.1129
 1473TIP3   OH226053   3.958   3.745   7.942  0.0286  0.3364  0.1197
 1473TIP3    H126054   3.940   3.808   8.011 -0.2504  0.2693  0.1062
 1473TIP3    H226055   3.924   3.785   7.862 -0.9864 -0.2282  0.2524
 1474TIP3   OH226056   0.738   5.240   3.941 -0.4422 -0.4088 -0.0257
 1474TIP3    H126057   0.787   5.242   4.023  1.2567  1.8089 -0.9863
 1474TIP3    H226058   0.750   5.151   3.909  0.5891 -0.7345  1.1497
 1475TIP3   OH226059   5.433   5.494   8.093 -0.0216 -0.1812 -0.3805
 1475TIP3    H126060   5.360   5.554   8.079  0.2074  0.5422  1.3568
 1475TIP3    H226061   5.487   5.503   8.015 -1.2653 -0.0064 -1.2535
 1476TIP3   OH226062   3.635   0.792   1.063 -0.3775 -0.2206 -0.0695
 1476TIP3    H126063   3.711   0.748   1.028  0.7988  0.9233  0.9397
 1476TIP3    H226064   3.572   0.792   0.991  0.8807 -0.4495 -1.2083
 1477TIP3   OH226065   3.472   6.821   2.252  0.2619  0.2220  0.1147
 1477TIP3    H126066   3.408   6.834   2.183  0.5104  1.2723  0.0605
 1477TIP3    H226067   3.544   6.880   2.230  1.5249 -1.3372 -0.1414
 1478TIP3   OH226068   6.730   0.555   3.005  0.1806 -0.4533  0.4962
 1478TIP3    H126069   6.740   0.646   2.976 -1.2171 -0.6756 -0.8113
 1478TIP3    H226070   6.810   0.536   3.053  1.1735  1.0063 -0.5035
 1479TIP3   OH226071   3.829   2.223   1.637 -0.3530 -0.3134  0.0125
 1479TIP3    H126072   3.848   2.276   1.559  1.3767  1.0454  1.2694
 1479TIP3    H226073   3.777   2.281   1.693 -0.1230 -0.6496  0.5800
 1480TIP3   OH226074   4.610   2.985   7.878  0.0520  0.3471 -0.0190
 1480TIP3    H126075   4.624   2.891   7.870  0.3976  0.4977 -1.3273
 1480TIP3    H226076   4.614   3.002   7.972  0.4594 -0.8657  0.1939
 1481TIP3   OH226077   6.060   5.938   0.368  0.0151 -0.3788  0.4653
 1481TIP3    H126078   5.992   6.003   0.385  0.0690  0.0166 -0.7581
 1481TIP3    H226079   6.068   5.936   0.272  0.6261 -1.5539  0.5260
 1482TIP3   OH226080   2.290   5.805   7.504 -0.2909 -0.2291  0.1982
 1482TIP3    H126081   2.278   5.766   7.591  2.6884  0.6205  1.1016
 1482TIP3    H226082   2.265   5.896   7.515 -0.4064 -0.2405  0.0236
 1483TIP3   OH226083   3.386   0.446   0.071  0.1661 -0.0384 -0.2709
 1483TIP3    H126084   3.414   0.382   0.137  0.5864  0.1250 -0.2896
 1483TIP3    H226085   3.415   0.530   0.105  1.7573 -0.0992 -1.3656
 1484TIP3   OH226086   0.210   6.517   7.892 -0.4789 -0.2028  0.2079
 1484TIP3    H126087   0.116   6.536   7.891 -0.3757  0.3092  0.3884
 1484TIP3    H226088   0.215   6.425   7.866 -0.8364  0.5820 -3.1870
 1485TIP3   OH226089   1.858   1.404   8.508 -0.0401  0.6876 -0.4981
 1485TIP3    H126090   1.890   1.398   8.418  2.3654  0.3160  0.3163
 1485TIP3    H226091   1.862   1.314   8.540  1.4875  1.1388  0.6890
 1486TIP3   OH226092   4.996   5.363   0.528 -0.5538 -0.5840  0.4633
 1486TIP3    H126093   5.087   5.374   0.557 -0.5250 -1.7342  0.8442
 1486TIP3    H226094   4.943   5.379   0.605 -0.7610  1.0885  0.0157
 1487TIP3   OH226095   5.507   4.847   2.651  0.0003 -0.0050 -0.1725
 1487TIP3    H126096   5.462   4.878   2.573 -0.6939  1.1729  0.6598
 1487TIP3    H226097   5.575   4.788   2.618 -1.1279 -0.5746 -1.5618
 1488TIP3   OH226098   1.378   1.514   7.890  1.0174 -0.0660  0.3832
 1488TIP3    H126099   1.295   1.522   7.842  0.3655 -1.5338  1.1859
 1488TIP3    H226100   1.444   1.502   7.822  0.1509 -1.8219 -0.2049
 1489TIP3   OH226101   4.302   0.798   3.316  0.3984  0.0502  0.0816
 1489TIP3    H126102   4.243   0.785   3.243  0.4875  1.6811 -0.3319
 1489TIP3    H226103   4.362   0.724   3.313 -0.1183 -0.3382 -0.9815
 1490TIP3   OH226104   1.542   0.415   3.508  0.4869  0.1320 -0.0609
 1490TIP3    H126105   1.491   0.420   3.588 -0.4726  1.4077 -0.7174
 1490TIP3    H226106   1.575   0.325   3.506 -1.3067 -0.5774  0.6421
 1491TIP3   OH226107   0.290   3.903   2.829 -0.1053  0.5386  0.4990
 1491TIP3    H126108   0.323   3.900   2.918 -1.5871 -1.0913  1.0428
 1491TIP3    H226109   0.363   3.870   2.775  1.8215  4.0795  0.6550
 1492TIP3   OH226110   3.087   0.149   8.586  0.1052 -0.1579  0.2576
 1492TIP3    H126111   3.114   0.240   8.594  1.6951 -0.3725 -1.8796
 1492TIP3    H226112   3.168   0.100   8.573 -0.8691 -1.5859 -0.8270
 1493TIP3   OH226113   0.959   5.879   7.993 -0.2964  0.2350 -0.6038
 1493TIP3    H126114   0.865   5.874   8.012  0.1244 -1.5922  1.4300
 1493TIP3    H226115   0.991   5.947   8.050 -0.2323  0.1804 -0.5748
 1494TIP3   OH226116   3.331   6.734   1.505  0.0924  0.3194 -0.2408
 1494TIP3    H126117   3.286   6.669   1.451  0.9966 -1.6685  1.2914
 1494TIP3    H226118   3.294   6.818   1.476 -2.8865 -0.9918 -0.6851
 1495TIP3   OH226119   1.971   4.089   8.357  0.2138  0.7620  0.4867
 1495TIP3    H126120   1.908   4.021   8.379 -0.6205  1.8280  1.4957
 1495TIP3    H226121   2.056   4.045   8.362 -0.3692 -0.4681  0.0042
 1496TIP3   OH226122   2.870   6.723   3.275  0.2723  0.4262  0.0700
 1496TIP3    H126123   2.796   6.730   3.215 -1.1869 -0.5222  1.6645
 1496TIP3    H226124   2.844   6.655   3.337  2.7849 -0.4271  0.3043
 1497TIP3   OH226125   6.599   5.108   2.242  0.4677  0.4987  0.0438
 1497TIP3    H126126   6.660   5.169   2.284  0.5336  0.0765  0.5818
 1497TIP3    H226127   6.653   5.056   2.183  1.4331 -2.2717  3.0075
 1498TIP3   OH226128   0.998   1.738   2.803 -0.3883 -0.2853 -0.1991
 1498TIP3    H126129   1.045   1.681   2.864 -2.3240 -0.4601  1.2232
 1498TIP3    H226130   1.001   1.824   2.845 -1.5983 -0.3718  0.0960
 1499TIP3   OH226131   1.102   5.726   1.535  0.3467  0.0025  0.2946
 1499TIP3    H126132   1.057   5.700   1.455 -0.5592  0.0645  0.7724
 1499TIP3    H226133   1.032   5.750   1.595  0.9885 -0.5139  1.2797
 1500TIP3   OH226134   0.941   4.809   1.286 -0.1803  0.0047 -0.4668
 1500TIP3    H126135   0.915   4.805   1.378 -0.0302  0.6851 -0.3900
 1500TIP3    H226136   0.989   4.892   1.278 -1.5824  0.7618 -1.5121
 1501TIP3   OH226137   5.034   5.868   8.203 -0.4445 -0.5124  0.3996
 1501TIP3    H126138   5.001   5.830   8.285 -0.3807  0.1437  0.7375
 1501TIP3    H226139   4.957   5.874   8.147 -0.3733 -1.5765  0.1529
 1502TIP3   OH226140   3.149   1.037   0.052 -0.4341 -0.1859 -0.1141
 1502TIP3    H126141   3.109   1.056   0.136 -0.1571  0.2055 -0.0690
 1502TIP3    H226142   3.076   1.014  -0.005 -0.8307  1.4741 -0.3017
 1503TIP3   OH226143   6.878   0.488   1.281 -0.1486 -0.0102  0.2797
 1503TIP3    H126144   6.851   0.579   1.299  0.4259  0.4288 -0.9677
 1503TIP3    H226145   6.836   0.467   1.198  0.6197 -0.4910  0.0078
 1504TIP3   OH226146   1.099   4.805   8.113  0.1645  0.8773  0.8944
 1504TIP3    H126147   1.191   4.820   8.090  0.0749  1.9382  1.1671
 1504TIP3    H226148   1.052   4.806   8.030  0.5436 -0.9905  0.6147
 1505TIP3   OH226149   6.520   1.794   8.550  0.4498 -0.2531 -0.4284
 1505TIP3    H126150   6.476   1.743   8.482  1.8106 -0.1852 -1.3906
 1505TIP3    H226151   6.504   1.745   8.630 -2.4076  0.3804 -0.4718
 1506TIP3   OH226152   3.617   1.331   0.526 -0.4717  0.4469 -0.8376
 1506TIP3    H126153   3.605   1.338   0.621  1.2529  1.5861 -0.6592
 1506TIP3    H226154   3.704   1.367   0.510 -0.3623 -0.5490 -2.7715
 1507TIP3   OH226155   2.043   5.549   1.432 -0.9792  0.1664 -0.1415
 1507TIP3    H126156   1.981   5.549   1.360 -1.5097  0.1843  0.3099
 1507TIP3    H226157   2.001   5.600   1.501 -0.3365  0.4353  0.0611
 1508TIP3   OH226158   4.901   6.655   0.526 -0.1481  0.1759 -0.2782
 1508TIP3    H126159   4.937   6.619   0.446 -1.6737  1.0682 -1.4256
 1508TIP3    H226160   4.950   6.612   0.596  1.4222 -0.4069 -1.6701
 1509TIP3   OH226161   6.436   0.687   0.577  0.8043 -0.2009 -0.4147
 1509TIP3    H126162   6.505   0.744   0.611  1.2405  0.2957 -2.0639
 1509TIP3    H226163   6.355   0.722   0.615  1.2391  0.4799 -0.1028
 1510TIP3   OH226164   3.877   5.099   1.226 -0.3763  0.3050 -0.5073
 1510TIP3    H126165   3.911   5.029   1.169  1.9915  0.6221  0.4232
 1510TIP3    H226166   3.799   5.060   1.266 -0.6290 -0.8365 -1.9920
 1511TIP3   OH226167   2.388   4.140   2.547 -0.1151 -0.3613  0.0589
 1511TIP3    H126168   2.451   4.113   2.480  0.6732 -0.8527  0.9608
 1511TIP3    H226169   2.347   4.219   2.512 -0.4572 -1.1521 -1.4314
 1512TIP3   OH226170   6.138   5.431   0.434 -0.9691 -0.2857 -0.3465
 1512TIP3    H126171   6.053   5.429   0.391 -1.1820  1.2007 -0.0503
 1512TIP3    H226172   6.193   5.483   0.376 -0.9130  0.6795  0.5365
 1513TIP3   OH226173   0.421   1.105   2.186  0.1371 -0.0743 -0.3081
 1513TIP3    H126174   0.386   1.146   2.107 -1.4336  2.5702  1.5888
 1513TIP3    H226175   0.515   1.095   2.169 -0.3878 -1.2585 -3.0879
 1514TIP3   OH226176   5.310   6.644   7.700  0.0919  0.1527  0.2355
 1514TIP3    H126177   5.319   6.730   7.658  0.8586 -0.5192 -1.0130
 1514TIP3    H226178   5.215   6.629   7.703 -0.1054  1.3860  1.2360
 1515TIP3   OH226179   1.580   1.306   3.620  0.4564  0.4808 -0.0800
 1515TIP3    H126180   1.590   1.232   3.680  1.0818 -0.4950 -1.3359
 1515TIP3    H226181   1.602   1.383   3.673 -2.3926  0.0881  1.8988
 1516TIP3   OH226182   0.226   1.598   1.514 -0.1402  0.1881 -0.0380
 1516TIP3    H126183   0.202   1.540   1.587  2.0572  2.3240  2.6224
 1516TIP3    H226184   0.143   1.623   1.475 -1.5595 -0.0681  2.5839
 1517TIP3   OH226185   0.516   3.388   7.389 -0.3313  0.5348  0.1475
 1517TIP3    H126186   0.543   3.430   7.470 -1.9324 -1.9334  2.1407
 1517TIP3    H226187   0.433   3.431   7.365 -0.6555  0.2531  0.7392
 1518TIP3   OH226188   4.266   3.159   7.429  0.1821  0.1272  0.3583
 1518TIP3    H126189   4.359   3.173   7.446 -0.0053  1.2028  0.5402
 1518TIP3    H226190   4.223   3.188   7.509 -0.5027  2.3741 -0.7413
 1519TIP3   OH226191   1.404   4.592   7.884 -0.2934  0.6925  0.7498
 1519TIP3    H126192   1.493   4.627   7.891  1.0310 -2.1222 -0.3872
 1519TIP3    H226193   1.370   4.630   7.803  1.2797 -0.7766 -0.7012
 1520TIP3   OH226194   4.664   1.320   8.572  0.0413  0.0509  0.3614
 1520TIP3    H126195   4.592   1.378   8.548 -0.6227 -0.3489  1.2972
 1520TIP3    H226196   4.686   1.345   8.662  0.8111 -0.1024  0.2247
 1521TIP3   OH226197   4.181   4.459   2.984  0.5683  0.1923  0.5274
 1521TIP3    H126198   4.139   4.432   3.066  0.5502 -1.3564  0.0413
 1521TIP3    H226199   4.229   4.539   3.007 -1.4927  1.2562  1.4136
 1522TIP3   OH226200   1.985   4.167   2.547  0.0931  0.3465 -0.8568
 1522TIP3    H126201   2.037   4.089   2.566  1.3046  1.5634  1.1939
 1522TIP3    H226202   1.907   4.157   2.601 -0.0717  0.2504 -1.1108
 1523TIP3   OH226203   2.410   1.826   2.348  0.3616  0.1497 -1.0277
 1523TIP3    H126204   2.484   1.820   2.409 -1.4634  0.0441  1.3579
 1523TIP3    H226205   2.388   1.919   2.345  0.5657  0.1790 -1.7113
 1524TIP3   OH226206   1.134   5.533   2.622 -0.2227  0.0992 -0.9921
 1524TIP3    H126207   1.059   5.495   2.667  0.7132 -0.8700 -0.2117
 1524TIP3    H226208   1.153   5.472   2.551  0.8559 -0.5733 -0.1573
 1525TIP3   OH226209   0.457   2.517   1.404 -0.1595 -0.0064 -0.6326
 1525TIP3    H126210   0.502   2.592   1.365  0.9093 -0.4414 -0.2745
 1525TIP3    H226211   0.405   2.554   1.475  0.5164  0.3774 -0.3295
 1526TIP3   OH226212   6.489   2.253   8.165  0.1370  0.9049 -0.1378
 1526TIP3    H126213   6.431   2.329   8.158  0.0815  0.8726 -0.0324
 1526TIP3    H226214   6.536   2.251   8.082  0.5588  1.3918  0.0866
 1527TIP3   OH226215   3.717   1.959   8.153 -0.5727  1.3325 -0.0154
 1527TIP3    H126216   3.786   1.893   8.163 -1.4648  0.2074 -0.9947
 1527TIP3    H226217   3.702   1.992   8.242 -1.8278 -1.5945  0.9779
 1528TIP3   OH226218   5.613   3.665   0.754 -0.5482  0.0066 -0.1294
 1528TIP3    H126219   5.597   3.573   0.777 -0.3981  0.4373  1.7902
 1528TIP3    H226220   5.688   3.691   0.807  0.2502  0.9035 -1.6262
 1529TIP3   OH226221   1.433   0.679   3.605 -0.0034  0.0038 -0.2112
 1529TIP3    H126222   1.374   0.608   3.627 -1.4252  0.5849 -1.9647
 1529TIP3    H226223   1.409   0.750   3.665  0.0136 -0.2804  0.1355
 1530TIP3   OH226224   5.070   1.376   0.952  1.2156 -0.2976  0.1409
 1530TIP3    H126225   5.142   1.393   0.891  2.4769  0.9116  1.8853
 1530TIP3    H226226   5.000   1.340   0.897  1.7620  2.0338 -2.2638
 1531TIP3   OH226227   0.305   2.944   2.850  0.0890 -0.3781 -0.4312
 1531TIP3    H126228   0.241   2.877   2.824  0.4790 -0.4747 -1.1709
 1531TIP3    H226229   0.295   3.013   2.784 -0.7580  0.6037  0.6902
 1532TIP3   OH226230   0.980   5.635   7.155 -0.2007 -0.1632 -0.0038
 1532TIP3    H126231   0.932   5.714   7.178 -0.0595 -0.4363  1.3196
 1532TIP3    H226232   1.043   5.624   7.226 -0.3261 -1.5473 -0.0840
 1533TIP3   OH226233   2.096   2.458   0.821  0.1450  0.3969  0.2897
 1533TIP3    H126234   2.108   2.384   0.762 -1.3978  0.0836  0.3341
 1533TIP3    H226235   2.019   2.503   0.788  0.3926  1.3216  0.9483
 1534TIP3   OH226236   5.275   5.522   0.314  0.2010 -0.0627 -0.2112
 1534TIP3    H126237   5.331   5.589   0.354  0.7265 -0.7084  0.1525
 1534TIP3    H226238   5.305   5.517   0.223 -0.4580  0.8349 -0.4985
 1535TIP3   OH226239   6.457   4.764   2.948 -0.7495 -0.1510 -0.0222
 1535TIP3    H126240   6.495   4.685   2.912  0.6698  0.3085  0.4164
 1535TIP3    H226241   6.387   4.787   2.887 -0.4915 -1.1551 -0.7109
 1536TIP3   OH226242   0.958   0.084   1.531  0.2560 -0.1144  0.2472
 1536TIP3    H126243   0.954   0.160   1.589 -1.6852  1.1434 -1.4248
 1536TIP3    H226244   0.870   0.047   1.535  0.6855 -1.2432 -0.3482
 1537TIP3   OH226245   0.614   1.201   2.685 -0.3300 -0.2159  0.3415
 1537TIP3    H126246   0.676   1.246   2.742  1.4662 -3.4502  1.1715
 1537TIP3    H226247   0.668   1.163   2.616 -1.9444 -0.0381 -1.0969
 1538TIP3   OH226248   0.154   4.205   0.977  0.0644 -0.2653  0.2512
 1538TIP3    H126249   0.182   4.114   0.986 -0.2512 -0.3229  0.6672
 1538TIP3    H226250   0.065   4.200   0.942 -0.7646 -0.2010  2.1811
 1539TIP3   OH226251   6.124   2.089   0.027  0.3808  0.7194  0.0054
 1539TIP3    H126252   6.156   2.011  -0.019  1.6816  0.8650  0.5961
 1539TIP3    H226253   6.038   2.106  -0.010  0.7283 -0.0895 -1.2364
 1540TIP3   OH226254   6.805   3.661   0.349  0.3099 -0.4641  0.0234
 1540TIP3    H126255   6.734   3.606   0.315  0.0460  0.6311 -1.3192
 1540TIP3    H226256   6.860   3.679   0.273  0.5123  0.9138  0.4669
 1541TIP3   OH226257   5.939   6.871   1.241  0.8464  0.2139  0.3118
 1541TIP3    H126258   5.948   6.807   1.312  0.5129  0.6645  0.7577
 1541TIP3    H226259   5.866   6.927   1.267  1.7335  1.3739  0.3743
 1542TIP3   OH226260   4.166   1.073   0.544 -0.6754 -0.1679  0.2271
 1542TIP3    H126261   4.232   1.013   0.579  1.2044  0.7832 -1.5004
 1542TIP3    H226262   4.133   1.029   0.466 -1.6627 -0.3576  0.7407
 1543TIP3   OH226263   4.746   1.762   0.929  0.4068  0.4989  0.1188
 1543TIP3    H126264   4.688   1.794   0.998 -0.4474  0.0450 -0.3677
 1543TIP3    H226265   4.799   1.695   0.971 -0.0873  0.2484  0.3514
 1544TIP3   OH226266   2.046   5.168   8.566 -0.9253 -0.4433 -0.1797
 1544TIP3    H126267   2.139   5.156   8.586 -1.6078 -0.9203  3.5007
 1544TIP3    H226268   2.023   5.091   8.515  0.7434 -0.0138 -1.7229
 1545TIP3   OH226269   3.871   6.195   3.553  0.2415  0.2859 -0.2680
 1545TIP3    H126270   3.896   6.282   3.521  1.7529  0.3590  0.9884
 1545TIP3    H226271   3.954   6.153   3.574 -0.5417 -0.9464  0.4838
 1546TIP3   OH226272   1.754   2.100   7.729  0.0026 -0.1855 -0.2378
 1546TIP3    H126273   1.732   2.045   7.804  0.7881 -1.0895 -0.6357
 1546TIP3    H226274   1.745   2.190   7.761  0.0961 -0.5517  0.8696
 1547TIP3   OH226275   2.355   0.268   8.120  0.6565 -0.6437 -0.1721
 1547TIP3    H126276   2.414   0.279   8.194 -0.4246 -0.0588  0.6417
 1547TIP3    H226277   2.321   0.356   8.103  0.9319 -0.7507 -1.4204
 1548TIP3   OH226278   1.169   2.846   2.881  0.4977 -0.8988 -0.0821
 1548TIP3    H126279   1.127   2.838   2.966 -0.2177 -0.2560 -0.3667
 1548TIP3    H226280   1.178   2.756   2.850  1.6771 -1.2199  1.0941
 1549TIP3   OH226281   5.020   2.042   1.039 -0.5464 -0.1839  0.6040
 1549TIP3    H126282   5.032   1.973   0.974 -0.9423 -0.1132  0.4521
 1549TIP3    H226283   4.961   2.005   1.104 -2.5051  0.7238 -0.5889
 1550TIP3   OH226284   5.576   3.518   0.304 -0.3004 -0.4436 -0.6962
 1550TIP3    H126285   5.633   3.586   0.268 -1.0359 -0.8541 -2.8039
 1550TIP3    H226286   5.633   3.469   0.363  1.0031  0.3427 -1.2408
 1551TIP3   OH226287   4.994   2.834   7.324  0.3096  0.0695 -0.0972
 1551TIP3    H126288   4.962   2.762   7.270 -0.7847  0.0306  0.5828
 1551TIP3    H226289   4.948   2.911   7.292  0.4130  0.2193  0.1137
 1552TIP3   OH226290   0.788   3.857   8.029 -0.1462 -0.6375 -0.0860
 1552TIP3    H126291   0.799   3.890   8.118  0.6881  1.7061 -0.9692
 1552TIP3    H226292   0.710   3.902   7.996  1.1847  0.7997 -1.4302
 1553TIP3   OH226293   6.384   4.092   0.929  0.2224  0.0724  0.4332
 1553TIP3    H126294   6.456   4.039   0.895 -0.5560  0.1090 -1.3716
 1553TIP3    H226295   6.312   4.077   0.868 -0.4387  2.1758  0.6169
 1554TIP3   OH226296   0.337   1.828   1.908 -0.2357  0.0453 -0.5676
 1554TIP3    H126297   0.379   1.885   1.844 -0.4073  0.8310  0.0020
 1554TIP3    H226298   0.341   1.877   1.990 -0.6457 -0.6438 -0.1223
 1555TIP3   OH226299   6.088   2.649   7.646  0.3326  0.7652  0.0198
 1555TIP3    H126300   6.092   2.566   7.599  1.4122  1.3895 -1.0501
 1555TIP3    H226301   6.040   2.708   7.588  0.4281  1.1575  0.3268
 1556TIP3   OH226302   0.287   4.814   3.090  1.0669  0.0501 -0.2533
 1556TIP3    H126303   0.263   4.830   3.181 -0.8324 -1.4358 -0.4210
 1556TIP3    H226304   0.307   4.900   3.055 -0.4923  0.9778  0.9723
 1557TIP3   OH226305   2.352   3.029   7.536  0.1035  0.4470 -0.4636
 1557TIP3    H126306   2.446   3.043   7.546  0.0645  1.3557 -1.1967
 1557TIP3    H226307   2.324   3.097   7.474 -0.5911 -1.3214 -2.2044
 1558TIP3   OH226308   2.159   0.461   8.389 -0.4341  0.1303 -0.0649
 1558TIP3    H126309   2.219   0.506   8.450  0.9752  0.5652 -1.7057
 1558TIP3    H226310   2.073   0.467   8.432  0.1891  1.9760  1.0601
 1559TIP3   OH226311   0.861   5.153   1.789  0.1696  0.1717 -0.7097
 1559TIP3    H126312   0.818   5.168   1.873  1.3023 -1.1413  0.1434
 1559TIP3    H226313   0.851   5.236   1.742  0.3688  1.2771  1.1030
 1560TIP3   OH226314   2.295   6.587   1.538 -0.3261 -0.2320  0.6044
 1560TIP3    H126315   2.319   6.499   1.566  0.6631 -0.6400 -1.3597
 1560TIP3    H226316   2.287   6.581   1.443 -1.9048  1.4258  0.5627
 1561TIP3   OH226317   2.059   5.510   1.121 -0.2530  0.0515 -0.5547
 1561TIP3    H126318   2.077   5.575   1.189 -0.4379 -1.0100  0.5457
 1561TIP3    H226319   2.066   5.426   1.166  0.8761 -0.7580 -2.1375
 1562TIP3   OH226320   1.094   4.467   7.717 -0.0978  0.0391 -0.3246
 1562TIP3    H126321   1.154   4.538   7.699 -1.2883  1.1437 -0.0795
 1562TIP3    H226322   1.057   4.444   7.632  0.7334 -0.7106 -0.4896
 1563TIP3   OH226323   6.191   3.900   3.020  0.0401  0.4407 -0.0611
 1563TIP3    H126324   6.229   3.912   3.107 -0.3431 -0.6696  0.2798
 1563TIP3    H226325   6.125   3.832   3.032  1.4710 -1.3677 -1.6128
 1564TIP3   OH226326   1.913   4.019   1.244  0.4795 -0.4165 -0.1290
 1564TIP3    H126327   1.973   3.974   1.304  0.9345 -0.1040 -0.3492
 1564TIP3    H226328   1.934   4.112   1.255  0.2336 -0.3263 -0.4250
 1565TIP3   OH226329   2.440   2.527   0.834  0.2490 -0.0339  0.2240
 1565TIP3    H126330   2.480   2.440   0.840 -2.8519 -1.5765  0.4506
 1565TIP3    H226331   2.457   2.556   0.745 -0.3570 -1.8249 -0.5182
 1566TIP3   OH226332   3.000   3.081   0.991  0.0601  0.0459  0.7144
 1566TIP3    H126333   3.030   3.095   0.901 -1.5377  0.3212  0.1904
 1566TIP3    H226334   2.975   3.169   1.021 -2.4860 -0.4294  0.2284
 1567TIP3   OH226335   6.463   0.981   1.720  0.2684 -0.0395  0.3346
 1567TIP3    H126336   6.542   0.933   1.744 -0.6710 -1.0540  1.5456
 1567TIP3    H226337   6.485   1.073   1.737  1.0490 -0.3491  1.0774
 1568TIP3   OH226338   5.215   0.963   1.480  0.2552 -0.1022 -0.5197
 1568TIP3    H126339   5.152   0.894   1.461  0.2178  0.4140 -2.4225
 1568TIP3    H226340   5.218   1.016   1.400  2.4301  0.4110 -0.1579
 1569TIP3   OH226341   4.133   3.584   0.222 -0.1168  0.2713  0.2365
 1569TIP3    H126342   4.165   3.504   0.180 -1.7996  0.2525 -1.1291
 1569TIP3    H226343   4.205   3.611   0.279  1.0609 -1.4168 -0.3493
 1570TIP3   OH226344   5.557   6.032   0.116 -0.0595 -0.0291  0.0496
 1570TIP3    H126345   5.515   5.995   0.038 -0.5800  0.2826  0.1774
 1570TIP3    H226346   5.566   6.125   0.097  0.5097 -0.0815  0.0567
 1571TIP3   OH226347   1.940   2.571   8.610 -0.4083  0.2715 -0.1504
 1571TIP3    H126348   1.974   2.595   8.524  1.0866  0.8913  0.5919
 1571TIP3    H226349   1.851   2.540   8.592  0.1228 -0.2998 -1.9936
 1572TIP3   OH226350   1.316   3.389   3.574  0.3126 -0.0791 -0.4087
 1572TIP3    H126351   1.310   3.475   3.532 -0.2249 -0.3234 -0.8507
 1572TIP3    H226352   1.345   3.407   3.663 -0.7202  0.6399 -0.2093
 1573TIP3   OH226353   2.245   5.830   2.323  0.0404  0.2188  0.8143
 1573TIP3    H126354   2.178   5.896   2.340 -0.9524 -1.2981  3.5885
 1573TIP3    H226355   2.198   5.759   2.279  0.0863 -0.3260  1.6244
 1574TIP3   OH226356   4.826   5.092   0.440  0.8810  0.3349 -0.2664
 1574TIP3    H126357   4.770   5.103   0.363  0.9237  0.2951 -0.3034
 1574TIP3    H226358   4.900   5.152   0.425  0.4559  0.9724  0.1577
 1575TIP3   OH226359   1.831   1.337   2.359  0.2877  0.0375  0.0042
 1575TIP3    H126360   1.779   1.398   2.306  0.3761  1.0228  1.0204
 1575TIP3    H226361   1.903   1.311   2.301  0.6637  1.4811 -0.2224
 1576TIP3   OH226362   6.409   3.877   8.511 -0.1897 -0.7382 -0.4900
 1576TIP3    H126363   6.421   3.790   8.549 -0.2401 -0.8496 -0.7335
 1576TIP3    H226364   6.319   3.901   8.533  0.8345  0.7436  2.7097
 1577TIP3   OH226365   6.843   3.976   1.238 -0.8256  0.1622 -0.0705
 1577TIP3    H126366   6.825   3.882   1.241  0.9007 -0.2449 -1.4295
 1577TIP3    H226367   6.931   3.983   1.202 -0.0954  2.2336  1.8462
 1578TIP3   OH226368   1.846   3.660   3.427 -0.6906  0.2253 -0.0762
 1578TIP3    H126369   1.762   3.618   3.446  0.6441 -2.0858  1.3304
 1578TIP3    H226370   1.868   3.706   3.508  0.6099 -1.5517  0.6516
 1579TIP3   OH226371   1.450   1.084   0.363  0.2862 -0.0271  0.1600
 1579TIP3    H126372   1.453   1.061   0.270  2.2070  0.5000  0.0500
 1579TIP3    H226373   1.410   1.008   0.405 -0.0310 -0.5414 -1.0175
 1580TIP3   OH226374   6.714   5.930   2.652  0.6334 -0.1097  0.2564
 1580TIP3    H126375   6.796   5.951   2.697  0.6564  1.4241 -0.4643
 1580TIP3    H226376   6.649   5.922   2.722  1.3874 -1.4549  0.8480
 1581TIP3   OH226377   4.473   2.948   2.880  0.1020 -0.6778 -0.1540
 1581TIP3    H126378   4.501   2.911   2.964  1.1410 -0.2298 -0.2865
 1581TIP3    H226379   4.377   2.951   2.886  0.1794  0.0616  1.3255
 1582TIP3   OH226380   3.506   2.664   8.130 -1.1186 -0.1202 -0.2078
 1582TIP3    H126381   3.511   2.586   8.186  0.2797 -0.2385 -0.4350
 1582TIP3    H226382   3.471   2.631   8.047 -0.0978 -0.6369 -0.4592
 1583TIP3   OH226383   2.413   4.579   0.345  0.3160 -0.1625 -0.0681
 1583TIP3    H126384   2.379   4.494   0.317 -2.4233  1.4644 -2.2759
 1583TIP3    H226385   2.469   4.607   0.273 -1.0428  1.0211 -0.7182
 1584TIP3   OH226386   1.705   1.536   8.091 -0.1108  0.2374  0.1962
 1584TIP3    H126387   1.784   1.491   8.121  0.9937  1.8598 -0.1589
 1584TIP3    H226388   1.700   1.513   7.998 -0.5131 -0.4789  0.3845
 1585TIP3   OH226389   5.189   1.567   8.352  0.2797  0.0306  0.2024
 1585TIP3    H126390   5.247   1.640   8.376  1.3676 -1.2450  1.7366
 1585TIP3    H226391   5.247   1.491   8.348 -1.0029 -0.9653 -0.1247
 1586TIP3   OH226392   3.361   6.543   7.396  0.1595 -0.5516  0.0251
 1586TIP3    H126393   3.426   6.559   7.328  0.6386 -0.5141  0.4866
 1586TIP3    H226394   3.288   6.601   7.373  1.0610  0.8570  0.5560
 1587TIP3   OH226395   0.218   1.941   0.487 -0.5702 -0.6016  0.3940
 1587TIP3    H126396   0.164   2.016   0.508 -1.1751 -0.9731  0.1822
 1587TIP3    H226397   0.156   1.871   0.467 -0.0204 -1.2898  1.0427
 1588TIP3   OH226398   2.411   1.275   8.352  0.0802 -0.3807 -0.6556
 1588TIP3    H126399   2.355   1.351   8.359 -2.6557 -2.2574 -0.5453
 1588TIP3    H226400   2.401   1.246   8.261  0.7002 -0.8577 -0.5816
 1589TIP3   OH226401   6.016   4.755   0.175 -0.2215  0.3843 -0.0282
 1589TIP3    H126402   5.981   4.666   0.166  0.2841  0.1344  0.4355
 1589TIP3    H226403   5.938   4.810   0.188 -0.6644  0.2309 -1.8007
 1590TIP3   OH226404   6.813   5.852   8.198  0.0464  0.0325 -0.0678
 1590TIP3    H126405   6.790   5.943   8.180 -1.3354 -0.1706  0.5454
 1590TIP3    H226406   6.729   5.806   8.198  0.6870 -1.1662  0.0533
 1591TIP3   OH226407   3.456   2.523   2.090 -0.3434  0.1599  0.8305
 1591TIP3    H126408   3.505   2.553   2.013 -1.8286  0.4421 -0.0538
 1591TIP3    H226409   3.489   2.435   2.106  2.0592  1.1278  1.7121
 1592TIP3   OH226410   6.615   6.584   7.711 -0.3580 -0.5171 -0.3490
 1592TIP3    H126411   6.578   6.598   7.624  0.8711 -1.9337 -1.1469
 1592TIP3    H226412   6.547   6.538   7.760 -0.2627 -1.6816 -1.2817
 1593TIP3   OH226413   6.874   1.086   1.927  0.5428  0.3120  0.2649
 1593TIP3    H126414   6.909   1.160   1.976 -0.0357  1.4689 -1.0150
 1593TIP3    H226415   6.902   1.009   1.977  0.1110  1.4130  2.3105
 1594TIP3   OH226416   3.153   5.978   0.897 -0.1178 -0.2443  0.7889
 1594TIP3    H126417   3.145   6.069   0.927  2.5920  0.8822 -1.4595
 1594TIP3    H226418   3.068   5.939   0.917 -0.4028  1.8311  4.6518
 1595TIP3   OH226419   3.944   1.193   1.066  0.2649 -0.2982  0.5046
 1595TIP3    H126420   3.943   1.099   1.082 -0.4799 -0.8005 -2.0629
 1595TIP3    H226421   3.865   1.209   1.014  2.1752  1.1049 -2.1744
 1596TIP3   OH226422   2.065   3.642   1.357 -1.0665 -0.1263 -0.0343
 1596TIP3    H126423   2.021   3.558   1.344 -0.2733 -0.3682 -1.2861
 1596TIP3    H226424   2.124   3.650   1.282  0.9260  0.2581  1.5049
 1597TIP3   OH226425   1.493   5.724   0.290 -0.2582 -0.0047 -0.0270
 1597TIP3    H126426   1.480   5.736   0.385  0.7690 -0.2652  0.1621
 1597TIP3    H226427   1.547   5.799   0.264 -0.6715  0.1503 -0.4371
 1598TIP3   OH226428   1.028   2.313   0.495  0.4672 -0.1566 -0.5071
 1598TIP3    H126429   1.022   2.277   0.584  0.2594  1.1161  0.0186
 1598TIP3    H226430   1.115   2.351   0.490  0.3111  0.1929 -0.6648
 1599TIP3   OH226431   2.732   1.894   2.531 -0.2978  0.1333  0.1874
 1599TIP3    H126432   2.693   1.924   2.613  0.9769 -0.1834  0.9409
 1599TIP3    H226433   2.757   1.973   2.485 -3.9155  0.5019 -1.4705
 1600TIP3   OH226434   1.666   5.916   0.200  0.2536  0.5504  0.1909
 1600TIP3    H126435   1.637   5.961   0.121 -0.7304  0.7505  0.6548
 1600TIP3    H226436   1.762   5.916   0.193  0.1867 -0.8733 -1.8076
 1601TIP3   OH226437   0.246   2.505   0.097 -0.3688 -0.1531  0.2233
 1601TIP3    H126438   0.206   2.446   0.033  2.5567 -2.3208  0.2258
 1601TIP3    H226439   0.232   2.593   0.060  0.1114 -1.2205 -2.7840
 1602TIP3   OH226440   2.482   2.600   3.103 -0.4859 -0.4086  0.8873
 1602TIP3    H126441   2.484   2.640   3.190 -0.2395 -1.7763  1.5409
 1602TIP3    H226442   2.469   2.673   3.043 -0.2149  0.6137  2.0369
 1603TIP3   OH226443   2.150   2.388   2.501 -0.1531 -0.4173 -0.2537
 1603TIP3    H126444   2.079   2.369   2.562 -1.3507 -0.3537 -1.5928
 1603TIP3    H226445   2.107   2.412   2.419  1.4001  0.7736 -0.7800
 1604TIP3   OH226446   3.080   3.978   1.027  0.0005  0.2295 -0.5918
 1604TIP3    H126447   3.071   4.071   1.047  1.9892  0.2333  0.6113
 1604TIP3    H226448   3.174   3.965   1.018 -0.3465 -1.3330 -2.6777
 1605TIP3   OH226449   4.556   1.157   2.340 -0.1237  0.0012  0.2646
 1605TIP3    H126450   4.615   1.119   2.404  0.1391 -0.8862 -0.4782
 1605TIP3    H226451   4.534   1.085   2.282 -1.3343  0.4943  0.0727
 1606TIP3   OH226452   6.334   2.013   8.192 -0.0316  0.4931 -0.1688
 1606TIP3    H126453   6.383   2.077   8.139  1.6131 -0.9274 -0.4344
 1606TIP3    H226454   6.401   1.957   8.230 -1.2459  0.6643  2.4362
 1607TIP3   OH226455   0.283   1.419   2.748 -0.1770  1.0519  0.8905
 1607TIP3    H126456   0.265   1.332   2.711 -0.6660  1.5563 -0.0942
 1607TIP3    H226457   0.349   1.403   2.815  1.1505  0.1542 -0.5406
 1608TIP3   OH226458   2.984   5.499   1.123  0.0996  0.0145  0.1722
 1608TIP3    H126459   2.946   5.482   1.037 -0.0958  1.5233 -0.0626
 1608TIP3    H226460   3.047   5.569   1.108  1.1100 -0.6811  1.0218
 1609TIP3   OH226461   1.389   1.443   0.626  0.7647 -0.1199 -0.6827
 1609TIP3    H126462   1.456   1.416   0.564 -0.1908 -1.3095 -1.2181
 1609TIP3    H226463   1.317   1.383   0.612 -0.0829  0.5763  0.5070
 1610TIP3   OH226464   6.012   6.157   8.059 -0.2848  0.4071  0.6261
 1610TIP3    H126465   6.040   6.067   8.043  2.7758  1.3853 -0.0230
 1610TIP3    H226466   6.083   6.196   8.108 -1.8047  2.3658  1.3910
 1611TIP3   OH226467   4.969   6.337   0.728 -0.0558 -0.4364  0.0870
 1611TIP3    H126468   4.966   6.294   0.814 -1.8800 -1.0468 -0.2527
 1611TIP3    H226469   4.891   6.393   0.726 -0.9662 -1.6776 -1.7854
 1612TIP3   OH226470   4.430   6.722   3.113  0.1718  0.3665  0.6890
 1612TIP3    H126471   4.443   6.809   3.149  1.6498 -0.8312  3.3964
 1612TIP3    H226472   4.464   6.663   3.181 -0.4418 -2.3024 -1.1616
 1613TIP3   OH226473   6.281   0.261   7.837 -0.4408 -0.8211 -0.3225
 1613TIP3    H126474   6.365   0.222   7.814 -0.0215  0.5140 -1.1651
 1613TIP3    H226475   6.220   0.227   7.771 -0.5417 -1.6400  0.1759
 1614TIP3   OH226476   6.184   5.495   1.864 -0.4782 -0.5328  0.1999
 1614TIP3    H126477   6.100   5.538   1.881  0.0322  0.8912 -0.6266
 1614TIP3    H226478   6.182   5.415   1.915 -1.3854  0.6238  2.0701
 1615TIP3   OH226479   6.210   4.061   0.714  0.0907  0.3550 -0.0217
 1615TIP3    H126480   6.166   4.052   0.630  1.2985  0.0407 -0.6331
 1615TIP3    H226481   6.155   4.124   0.763 -0.0938  1.3021 -1.3941
 1616TIP3   OH226482   6.163   4.861   3.592 -0.4486 -0.1455 -0.7197
 1616TIP3    H126483   6.176   4.956   3.584 -0.7876 -0.2072 -2.5103
 1616TIP3    H226484   6.077   4.846   3.552 -1.3901 -0.9762  1.5046
 1617TIP3   OH226485   4.240   0.616   0.498 -0.2589 -0.0561 -0.6938
 1617TIP3    H126486   4.294   0.660   0.433  1.3153  0.3726  0.8243
 1617TIP3    H226487   4.198   0.687   0.546 -1.1841 -0.3576 -1.0420
 1618TIP3   OH226488   4.477   1.627   2.509  0.0694 -0.3291 -0.1629
 1618TIP3    H126489   4.402   1.684   2.520 -0.1185 -0.6105  0.0412
 1618TIP3    H226490   4.440   1.538   2.507  0.5385 -0.6265  1.8608
 1619TIP3   OH226491   4.016   0.348   7.401 -0.2364  0.5130 -0.0292
 1619TIP3    H126492   3.996   0.311   7.315  0.0628  0.0401  0.0988
 1619TIP3    H226493   4.076   0.285   7.441 -0.2536  0.8019  0.4680
 1620TIP3   OH226494   0.545   3.739   2.464  0.1158  0.6683 -0.0495
 1620TIP3    H126495   0.634   3.721   2.496  0.8011  1.5050 -1.3686
 1620TIP3    H226496   0.526   3.827   2.495 -0.1736  0.5844  0.0181
 1621TIP3   OH226497   1.814   4.440   0.481  0.6544 -0.2287 -0.2071
 1621TIP3    H126498   1.851   4.515   0.434  1.0072 -0.2461  0.0425
 1621TIP3    H226499   1.727   4.469   0.508  1.0208  0.3105  0.4177
 1622TIP3   OH226500   2.480   0.319   2.913 -0.0366 -0.0017  0.1369
 1622TIP3    H126501   2.489   0.252   2.845  0.9501  0.3021 -0.0521
 1622TIP3    H226502   2.408   0.375   2.883 -0.4574 -0.6079 -0.0091
 1623TIP3   OH226503   3.939   1.972   3.659  0.2776  0.3264 -0.2617
 1623TIP3    H126504   3.977   1.927   3.735 -2.0228 -0.9803  0.2080
 1623TIP3    H226505   3.933   2.064   3.687  0.2615  0.0141  0.8274
 1624TIP3   OH226506   0.574   3.811   1.428 -0.1681  0.5679  0.4307
 1624TIP3    H126507   0.636   3.881   1.446 -0.5966  0.8046  1.0243
 1624TIP3    H226508   0.592   3.746   1.496  0.4138 -0.0320 -0.2821
 1625TIP3   OH226509   1.575   4.548   8.198  0.2769  0.2354  0.3054
 1625TIP3    H126510   1.605   4.540   8.108 -0.2875 -0.9823  0.2074
 1625TIP3    H226511   1.557   4.641   8.209 -0.8021  0.2415 -1.2162
 1626TIP3   OH226512   6.493   5.297   8.389 -0.0510  0.4156  0.6704
 1626TIP3    H126513   6.537   5.215   8.366 -1.8476 -0.7777  1.1945
 1626TIP3    H226514   6.512   5.356   8.316 -0.4391 -1.1829 -0.8022
 1627TIP3   OH226515   5.516   1.733   8.605  0.0384 -0.3786  0.0023
 1627TIP3    H126516   5.525   1.811   8.661  1.6626 -0.3220 -0.2641
 1627TIP3    H226517   5.523   1.767   8.516  2.4202 -0.9174 -0.1025
 1628TIP3   OH226518   4.513   2.180   8.062 -0.0215  0.4056 -0.2423
 1628TIP3    H126519   4.499   2.181   7.967  0.1939  1.3100 -0.2730
 1628TIP3    H226520   4.437   2.225   8.098 -0.7908 -1.1279  0.1323
 1629TIP3   OH226521   4.731   2.934   0.869 -0.4446 -0.4274  0.6905
 1629TIP3    H126522   4.710   2.985   0.791  0.0434 -1.7394 -0.3481
 1629TIP3    H226523   4.732   2.843   0.839 -0.7536 -1.0236  2.3494
 1630TIP3   OH226524   2.534   5.774   8.652 -0.2850  0.0126 -0.1116
 1630TIP3    H126525   2.507   5.819   8.732  0.0619  1.3781 -0.7407
 1630TIP3    H226526   2.563   5.687   8.682  0.6578  0.7988  1.3563
 1631TIP3   OH226527   3.619   5.407   1.078  0.2852  0.1931  0.1966
 1631TIP3    H126528   3.524   5.406   1.079  0.2838 -1.1408  0.7535
 1631TIP3    H226529   3.642   5.411   0.985 -0.2595  2.9987  0.1058
 1632TIP3   OH226530   2.611   6.312   1.833 -0.0216  0.1417 -0.2112
 1632TIP3    H126531   2.672   6.337   1.902  0.8063  1.1597 -1.2617
 1632TIP3    H226532   2.539   6.268   1.878  1.0826 -0.3207  1.1477
 1633TIP3   OH226533   2.223   1.507   1.380 -0.3805  0.1388 -0.4662
 1633TIP3    H126534   2.296   1.489   1.321 -0.8377 -1.0742 -0.6905
 1633TIP3    H226535   2.251   1.583   1.431  1.1659 -0.5050 -0.3029
 1634TIP3   OH226536   4.457   3.719   3.402  0.5060 -0.2330 -0.2898
 1634TIP3    H126537   4.371   3.728   3.444  1.5644  0.8707  1.8225
 1634TIP3    H226538   4.491   3.636   3.435  1.6333  0.9615  1.7974
 1635TIP3   OH226539   6.379   4.208   3.758 -0.0957  0.1196  0.5048
 1635TIP3    H126540   6.417   4.124   3.784  1.9328  1.3829  1.8781
 1635TIP3    H226541   6.437   4.274   3.795 -1.4554  2.1719 -0.7712
 1636TIP3   OH226542   6.447   0.570   1.509 -0.0462 -0.2145 -0.5577
 1636TIP3    H126543   6.379   0.619   1.556 -0.9206 -0.3615 -1.6153
 1636TIP3    H226544   6.526   0.580   1.562 -0.6678  0.7636  0.2073
 1637TIP3   OH226545   3.065   2.419   2.666 -0.1116  0.2789 -0.1692
 1637TIP3    H126546   3.082   2.443   2.575 -0.4869  0.6315 -0.1471
 1637TIP3    H226547   3.061   2.503   2.713 -0.3756  0.1220  0.0917
 1638TIP3   OH226548   3.817   5.598   8.301 -0.4462 -0.0093 -0.6481
 1638TIP3    H126549   3.796   5.691   8.301  1.2793  0.4314 -1.5733
 1638TIP3    H226550   3.872   5.586   8.378  0.5458  0.0796 -1.3200
 1639TIP3   OH226551   2.533   0.914   0.957 -0.2242  0.5210 -0.0331
 1639TIP3    H126552   2.484   0.832   0.965  1.7345 -0.6067  0.8515
 1639TIP3    H226553   2.516   0.960   1.039 -3.2108  2.1938 -1.4210
 1640TIP3   OH226554   2.003   0.223   1.462 -1.0638 -0.2206 -0.3634
 1640TIP3    H126555   2.061   0.201   1.390  1.2276 -0.6088  1.4751
 1640TIP3    H226556   1.929   0.268   1.421  0.2046 -0.2737 -2.8834
 1641TIP3   OH226557   5.622   4.963   1.669 -0.2062 -0.3160 -1.0677
 1641TIP3    H126558   5.534   4.934   1.693 -0.3284  0.3609 -0.6827
 1641TIP3    H226559   5.681   4.905   1.718 -0.4404 -0.2193 -0.6744
 1642TIP3   OH226560   3.041   1.175   7.437 -0.5354 -0.4403  0.1357
 1642TIP3    H126561   3.054   1.093   7.390 -0.8840 -0.5382  0.2102
 1642TIP3    H226562   3.031   1.150   7.529 -0.4629 -0.2983  0.1837
 1643TIP3   OH226563   3.468   5.976   1.274  0.6642  0.4657 -0.1451
 1643TIP3    H126564   3.394   5.929   1.236 -1.0481  2.4639  0.4775
 1643TIP3    H226565   3.544   5.943   1.227 -0.6309 -1.4474 -1.0643
 1644TIP3   OH226566   5.259   6.541   0.493  0.4065 -0.7943  0.2104
 1644TIP3    H126567   5.338   6.488   0.481  1.6236  0.8070  0.7170
 1644TIP3    H226568   5.230   6.522   0.582  0.2331 -1.3590  0.0359
 1645TIP3   OH226569   0.549   2.286   1.552 -0.2241 -0.1014 -0.6612
 1645TIP3    H126570   0.543   2.334   1.469  0.4913  1.0731 -0.0623
 1645TIP3    H226571   0.565   2.354   1.617 -0.2399 -1.0682  0.3746
 1646TIP3   OH226572   4.456   3.928   1.169  0.0008  0.5429 -0.2105
 1646TIP3    H126573   4.494   3.853   1.216 -0.9287  0.5314  0.5452
 1646TIP3    H226574   4.388   3.889   1.113 -0.2133  0.7786 -0.1140
 1647TIP3   OH226575   4.610   6.656   1.157 -0.6510 -0.7724  0.4236
 1647TIP3    H126576   4.605   6.680   1.250  2.0636 -1.3526  0.8201
 1647TIP3    H226577   4.669   6.722   1.119 -1.4131 -0.7750 -0.8169
 1648TIP3   OH226578   3.860   1.423   8.606  0.3881 -0.1280  0.1806
 1648TIP3    H126579   3.848   1.373   8.687 -1.3526  0.0063  0.0485
 1648TIP3    H226580   3.953   1.444   8.605  1.0426 -2.5884  0.6827
 1649TIP3   OH226581   1.363   3.613   8.601 -0.4029 -0.0406 -0.0625
 1649TIP3    H126582   1.457   3.614   8.619 -0.7302  0.4673  1.9079
 1649TIP3    H226583   1.347   3.694   8.554 -0.0609  0.6384  0.9597
 1650TIP3   OH226584   2.494   3.827   0.369  0.2169  0.1202 -0.1026
 1650TIP3    H126585   2.551   3.845   0.444 -0.3292 -1.1194  0.6498
 1650TIP3    H226586   2.423   3.890   0.377  1.1387  1.2901 -0.7170
 1651TIP3   OH226587   0.442   5.270   8.634  0.5863 -0.0270  0.1092
 1651TIP3    H126588   0.505   5.326   8.679  0.1701 -0.0015  0.6740
 1651TIP3    H226589   0.376   5.251   8.701  0.9988 -1.6368  0.0902
 1652TIP3   OH226590   3.073   6.718   1.875 -0.2540 -0.0120 -0.3184
 1652TIP3    H126591   2.983   6.716   1.842  0.7383 -2.9958 -3.4028
 1652TIP3    H226592   3.121   6.769   1.811  0.5868 -0.0023  0.3074
 1653TIP3   OH226593   6.169   4.584   1.420 -0.3908  0.4409 -0.4731
 1653TIP3    H126594   6.142   4.541   1.339 -2.9388 -0.2811  0.6314
 1653TIP3    H226595   6.218   4.517   1.467  1.5902  1.0448 -1.5954
 1654TIP3   OH226596   2.600   4.295   2.206  0.3842  0.0038 -0.2226
 1654TIP3    H126597   2.640   4.380   2.188 -0.6360  0.2469 -1.4742
 1654TIP3    H226598   2.670   4.231   2.190  0.8491  0.5394 -0.3457
 1655TIP3   OH226599   4.538   2.153   8.581  0.3748  0.2280  0.2656
 1655TIP3    H126600   4.528   2.196   8.497 -0.0884  0.6927  0.5525
 1655TIP3    H226601   4.615   2.096   8.571  1.0983  1.2453 -0.0602
 1656TIP3   OH226602   2.081   2.846   0.706  0.6494 -0.3841  0.0205
 1656TIP3    H126603   2.119   2.804   0.629  1.6460 -0.8436  0.7301
 1656TIP3    H226604   2.110   2.791   0.779  0.8600  0.7953  0.8478
 1657TIP3   OH226605   5.939   4.030   8.202  0.0932 -0.1619 -0.0199
 1657TIP3    H126606   5.877   3.975   8.155 -1.6414 -0.2755  2.2358
 1657TIP3    H226607   6.025   4.001   8.172 -0.8784 -0.4530 -2.7638
 1658TIP3   OH226608   0.468   4.818   3.559  0.3365  0.1100  0.6586
 1658TIP3    H126609   0.418   4.780   3.632 -0.6846 -0.7227 -0.4246
 1658TIP3    H226610   0.553   4.840   3.597  0.4407 -1.8609  1.7194
 1659TIP3   OH226611   6.723   6.060   0.974  0.1615  0.2829 -0.4031
 1659TIP3    H126612   6.810   6.023   0.992 -0.7144 -0.7650  2.1257
 1659TIP3    H226613   6.702   6.110   1.053 -2.5960 -1.6717  0.2243
 1660TIP3   OH226614   1.687   4.206   1.269  0.0394 -0.3715 -0.0816
 1660TIP3    H126615   1.707   4.141   1.202  1.9857 -0.0508  0.1126
 1660TIP3    H226616   1.773   4.234   1.301 -0.6562  2.8553 -0.6909
 1661TIP3   OH226617   0.860   1.998   8.298 -0.2648  0.2700 -0.1560
 1661TIP3    H126618   0.766   1.989   8.288 -0.3658 -0.1036  1.0142
 1661TIP3    H226619   0.875   2.093   8.298 -1.1314  0.5284  3.3266
 1662TIP3   OH226620   1.160   3.943   2.656 -0.2934 -0.3974  0.4691
 1662TIP3    H126621   1.167   3.923   2.563 -1.0319  0.1135  0.2953
 1662TIP3    H226622   1.211   3.875   2.699 -2.1005 -2.2505 -0.1299
 1663TIP3   OH226623   5.264   4.413   8.556 -0.0070  0.0063 -0.2633
 1663TIP3    H126624   5.199   4.436   8.490 -2.2903 -1.9559  1.1531
 1663TIP3    H226625   5.272   4.491   8.611  0.3510  0.9332 -1.5921
 1664TIP3   OH226626   3.133   5.022   3.430 -0.4028  0.5041 -0.1583
 1664TIP3    H126627   3.156   5.115   3.418 -1.0955  0.4259 -2.4486
 1664TIP3    H226628   3.200   4.975   3.382  0.5409 -0.3101  1.8345
 1665TIP3   OH226629   1.603   3.545   3.490 -0.3402  0.0372 -0.1173
 1665TIP3    H126630   1.509   3.563   3.486 -0.4667 -0.7279 -1.6748
 1665TIP3    H226631   1.613   3.484   3.563 -1.2648 -0.8854 -0.7368
 1666TIP3   OH226632   5.653   4.136   1.549  0.3186  0.4701  0.2641
 1666TIP3    H126633   5.666   4.058   1.603  0.0831  0.4383  0.2730
 1666TIP3    H226634   5.733   4.187   1.562 -0.0367  0.8067  1.2206
 1667TIP3   OH226635   1.258   6.777   0.653  0.3563  0.0350 -0.3600
 1667TIP3    H126636   1.271   6.857   0.704  0.5252  1.3030 -2.3077
 1667TIP3    H226637   1.270   6.706   0.717  0.3403  1.5318  1.3840
 1668TIP3   OH226638   3.501   1.407   8.528 -0.3139  0.2673  0.0527
 1668TIP3    H126639   3.501   1.479   8.591  0.2952 -0.5501  1.0264
 1668TIP3    H226640   3.518   1.329   8.581 -1.2500 -0.6367 -0.9414
 1669TIP3   OH226641   0.261   1.582   1.876 -0.5738 -0.1469 -0.2757
 1669TIP3    H126642   0.208   1.569   1.955  1.6326 -0.8059  1.1971
 1669TIP3    H226643   0.292   1.672   1.882  1.5165 -0.8698  0.9713
 1670TIP3   OH226644   1.041   1.568   0.028 -0.4491 -0.0302  0.5567
 1670TIP3    H126645   0.988   1.631  -0.022  0.5550  0.6915  0.3726
 1670TIP3    H226646   1.036   1.600   0.119  2.3424  2.0575  0.0957
 1671TIP3   OH226647   1.643   6.312   7.667  0.2450 -0.0858 -0.0532
 1671TIP3    H126648   1.576   6.321   7.734 -0.1976 -0.5546 -0.4281
 1671TIP3    H226649   1.614   6.368   7.595 -0.4946 -1.3716 -0.7923
 1672TIP3   OH226650   0.575   0.916   8.194 -0.0503 -0.6005 -0.4392
 1672TIP3    H126651   0.603   0.971   8.267 -0.2832 -0.2056 -0.6370
 1672TIP3    H226652   0.628   0.946   8.120  0.7065 -1.4956 -0.2796
 1673TIP3   OH226653   2.383   0.924   7.502  0.2379  0.1263  1.2296
 1673TIP3    H126654   2.324   0.870   7.451  0.4710  2.4688 -1.8851
 1673TIP3    H226655   2.327   0.975   7.561 -0.4262 -0.3289  0.9844
 1674TIP3   OH226656   2.766   2.307   7.823  0.1055  0.4989  0.4701
 1674TIP3    H126657   2.775   2.315   7.728  0.7709 -0.3097  0.4613
 1674TIP3    H226658   2.775   2.214   7.841 -0.0527  0.6398  1.3289
 1675TIP3   OH226659   2.329   0.139   1.483 -0.0181 -0.1037  0.3578
 1675TIP3    H126660   2.342   0.094   1.566 -0.4692 -0.4519  0.2482
 1675TIP3    H226661   2.405   0.196   1.474 -0.4098  0.6305  1.4517
 1676TIP3   OH226662   5.418   4.499   1.702  0.3505 -0.4623 -1.0209
 1676TIP3    H126663   5.436   4.453   1.784  2.1467  2.4124  0.3503
 1676TIP3    H226664   5.494   4.478   1.647  1.0303  0.5737 -0.5001
 1677TIP3   OH226665   3.609   4.701   2.015  0.2087  0.2166  0.7782
 1677TIP3    H126666   3.631   4.610   2.035  1.6903 -0.0258 -1.5619
 1677TIP3    H226667   3.693   4.743   1.997 -0.5880  1.5670  0.0071
 1678TIP3   OH226668   1.616   6.368   8.576  0.6278  0.3516  0.2878
 1678TIP3    H126669   1.628   6.276   8.554  2.7819  0.9509 -1.4875
 1678TIP3    H226670   1.534   6.393   8.533  0.3951 -0.5598  0.1861
 1679TIP3   OH226671   3.053   1.462   1.052  0.0420 -0.3809  0.6270
 1679TIP3    H126672   3.039   1.543   1.101  0.1228 -0.3443  0.5897
 1679TIP3    H226673   3.117   1.413   1.103  0.3177 -0.2290  0.4242
 1680TIP3   OH226674   6.807   5.309   8.327  0.1352 -0.0742  0.7253
 1680TIP3    H126675   6.815   5.336   8.419  1.0733  0.7712  0.4139
 1680TIP3    H226676   6.754   5.229   8.330 -2.5872  1.6169  1.7304
 1681TIP3   OH226677   1.910   5.017   0.775 -0.0664 -0.2653  0.3612
 1681TIP3    H126678   1.963   4.948   0.816 -0.3234  0.1842  1.4889
 1681TIP3    H226679   1.819   4.989   0.789 -0.1660 -0.9656 -1.4451
 1682TIP3   OH226680   4.245   3.163   1.208  0.4461  0.4070  0.2925
 1682TIP3    H126681   4.173   3.204   1.257  0.0232 -0.2662  0.2519
 1682TIP3    H226682   4.254   3.076   1.248 -0.2920 -0.3780 -1.1836
 1683TIP3   OH226683   5.150   6.472   2.729  0.1557  0.3728  0.0887
 1683TIP3    H126684   5.167   6.518   2.811  0.1738  0.5139  0.0059
 1683TIP3    H226685   5.084   6.525   2.686  0.2980  0.4125 -0.0824
 1684TIP3   OH226686   1.467   4.782   1.140 -0.1792  0.4118  0.2293
 1684TIP3    H126687   1.371   4.785   1.139 -0.2738 -0.9514 -2.2376
 1684TIP3    H226688   1.489   4.737   1.222 -1.7822 -1.0752 -0.0953
 1685TIP3   OH226689   5.036   6.297   0.297  0.0904 -0.0107 -0.4761
 1685TIP3    H126690   5.011   6.244   0.373 -1.2689 -1.1367 -1.6683
 1685TIP3    H226691   4.982   6.376   0.303  1.8752  1.2017  1.1113
 1686TIP3   OH226692   2.689   2.417   3.323  0.3381  0.1935  0.2269
 1686TIP3    H126693   2.630   2.342   3.322  0.2722  0.2507 -0.5150
 1686TIP3    H226694   2.771   2.383   3.288  0.3020  0.4759 -0.1322
 1687TIP3   OH226695   3.349   2.231   3.160  0.0594 -0.0881 -0.5626
 1687TIP3    H126696   3.411   2.159   3.147 -0.0728 -0.1638 -0.7812
 1687TIP3    H226697   3.387   2.283   3.231  1.1834  0.7750 -1.7736
 1688TIP3   OH226698   0.171   0.304   2.562  0.2343  0.3806 -0.7271
 1688TIP3    H126699   0.252   0.337   2.522  0.4041  1.7312  0.6190
 1688TIP3    H226700   0.103   0.364   2.531  0.1902  0.7696  0.0714
 1689TIP3   OH226701   6.868   1.584   8.406  0.1634 -0.3796  0.3631
 1689TIP3    H126702   6.846   1.672   8.436  1.1316 -0.0742  0.2387
 1689TIP3    H226703   6.960   1.592   8.378  0.8867 -1.8805  2.1246
 1690TIP3   OH226704   1.829   5.041   3.295 -0.1126 -0.1635  0.5031
 1690TIP3    H126705   1.836   5.114   3.233 -0.4161  0.9238  1.7159
 1690TIP3    H226706   1.915   4.999   3.292  1.1577  2.1226  2.0100
 1691TIP3   OH226707   5.830   6.201   0.518  0.3507  0.0989 -0.4349
 1691TIP3    H126708   5.811   6.133   0.454  1.3415 -0.3921 -0.2272
 1691TIP3    H226709   5.869   6.272   0.468 -0.5568  0.4791 -0.6307
 1692TIP3   OH226710   0.646   1.364   2.129 -0.0180  0.4810 -0.0798
 1692TIP3    H126711   0.648   1.317   2.212  0.8672 -0.3029 -0.5274
 1692TIP3    H226712   0.712   1.321   2.075  0.5451  1.9942 -0.6491
 1693TIP3   OH226713   1.348   6.072   2.889  0.5115  0.4403  0.0310
 1693TIP3    H126714   1.340   6.114   2.974 -1.5294 -0.0502  0.1271
 1693TIP3    H226715   1.334   6.143   2.825  1.1284  0.6388  0.1134
 1694TIP3   OH226716   0.561   2.565   0.793 -0.2990 -0.0198  0.1578
 1694TIP3    H126717   0.616   2.534   0.722 -0.1051  1.1578 -0.2183
 1694TIP3    H226718   0.592   2.654   0.811 -0.2793 -0.3232  1.7741
 1695TIP3   OH226719   0.238   6.331   1.570  0.2835 -0.0796  0.1160
 1695TIP3    H126720   0.304   6.262   1.562  1.0902  0.6648  0.1104
 1695TIP3    H226721   0.154   6.285   1.571  0.7419 -0.9900 -0.9553
 1696TIP3   OH226722   2.863   0.784   7.807 -0.0171  0.1345  0.0545
 1696TIP3    H126723   2.953   0.793   7.778 -0.0619  2.2038  0.4471
 1696TIP3    H226724   2.812   0.837   7.745 -0.7217  0.4895  0.9136
 1697TIP3   OH226725   1.762   4.256   0.921  0.2197  0.0034  0.3769
 1697TIP3    H126726   1.818   4.332   0.904 -0.9698  0.6607 -0.7489
 1697TIP3    H226727   1.822   4.181   0.920  1.1121  0.7052 -0.5930
 1698TIP3   OH226728   3.867   3.111   8.498 -0.0890 -0.3734  0.1914
 1698TIP3    H126729   3.902   3.031   8.538  0.0115 -0.9427 -1.0057
 1698TIP3    H226730   3.797   3.080   8.441  2.0513 -0.0436 -2.8603
 1699TIP3   OH226731   0.776   3.530   1.466 -0.3010  0.3159 -0.1696
 1699TIP3    H126732   0.696   3.538   1.517 -0.7467 -1.9142 -0.3885
 1699TIP3    H226733   0.754   3.468   1.396  1.3690  0.3225 -0.7466
 1700TIP3   OH226734   0.729   0.300   8.512  0.6530 -1.1757  0.1434
 1700TIP3    H126735   0.821   0.276   8.522  1.3204  0.8963 -0.5793
 1700TIP3    H226736   0.715   0.300   8.417  0.1625 -0.5932  0.2131
 1701TIP3   OH226737   4.271   0.380   8.115 -0.4911  0.2118 -0.4350
 1701TIP3    H126738   4.195   0.394   8.172  1.2544  1.7684  1.7228
 1701TIP3    H226739   4.322   0.461   8.123  1.7461 -1.0278 -1.2084
 1702TIP3   OH226740   3.170   3.734   8.526 -0.2961 -0.5817  0.1186
 1702TIP3    H126741   3.083   3.696   8.524 -0.1271 -1.3772  3.3039
 1702TIP3    H226742   3.158   3.823   8.558 -0.0702  0.0087 -1.3397
 1703TIP3   OH226743   5.101   0.586   2.422 -0.1865 -0.5234 -0.5676
 1703TIP3    H126744   5.057   0.660   2.381 -1.1085 -1.0049 -0.4873
 1703TIP3    H226745   5.036   0.515   2.419 -0.1788 -0.6633  1.4042
 1704TIP3   OH226746   4.157   2.769   2.371 -0.6496 -0.0412 -0.3446
 1704TIP3    H126747   4.225   2.833   2.354 -0.4635  0.0105  0.5796
 1704TIP3    H226748   4.204   2.686   2.379 -0.9392 -0.4333 -2.1217
 1705TIP3   OH226749   5.553   0.803   7.551 -0.3728 -0.3182 -0.0998
 1705TIP3    H126750   5.618   0.871   7.538  0.2797 -0.9457 -0.1958
 1705TIP3    H226751   5.507   0.797   7.468 -0.7206  0.2857  0.0411
 1706TIP3   OH226752   4.693   4.448   2.967 -0.8915  0.1272  0.1983
 1706TIP3    H126753   4.678   4.358   2.939  2.7780 -0.8195  0.7471
 1706TIP3    H226754   4.628   4.463   3.036 -2.4777 -1.5461 -0.8499
 1707TIP3   OH226755   2.768   2.766   0.162  0.4451 -0.4037 -0.4945
 1707TIP3    H126756   2.837   2.702   0.148  0.0459 -0.9391 -0.0375
 1707TIP3    H226757   2.695   2.716   0.197  0.3798  0.4122  0.5976
 1708TIP3   OH226758   0.890   1.163   7.318 -0.1777 -0.3031  0.0031
 1708TIP3    H126759   0.910   1.070   7.314  0.1496 -0.2215 -0.4465
 1708TIP3    H226760   0.925   1.198   7.235  0.5975  0.3777  0.6014
 1709TIP3   OH226761   2.105   0.711   7.881 -0.3893  0.0118  0.1592
 1709TIP3    H126762   2.170   0.707   7.811  0.7117  1.7085  0.9837
 1709TIP3    H226763   2.035   0.765   7.846 -0.9619 -1.1007 -0.4336
 1710TIP3   OH226764   3.453   3.731   2.884  0.3321  0.2231  0.1476
 1710TIP3    H126765   3.513   3.726   2.958  1.5630 -0.0901 -0.8322
 1710TIP3    H226766   3.372   3.693   2.917  0.8913 -0.0476  1.2876
 1711TIP3   OH226767   2.294   5.679   1.979  0.3782  0.2769  0.1780
 1711TIP3    H126768   2.385   5.656   1.997 -0.0754 -1.4227  0.4402
 1711TIP3    H226769   2.246   5.651   2.056 -0.4087  1.0260 -0.0169
 1712TIP3   OH226770   4.471   0.504   8.456  0.1761 -0.2342  0.5531
 1712TIP3    H126771   4.565   0.484   8.456  0.2390  0.0611  0.5209
 1712TIP3    H226772   4.437   0.462   8.535  0.3373 -0.3361  0.5687
 1713TIP3   OH226773   6.539   6.031   0.520 -0.2807  0.1566  0.1998
 1713TIP3    H126774   6.609   6.049   0.582  2.5202 -0.6291 -2.4660
 1713TIP3    H226775   6.542   6.105   0.459 -1.4883 -0.1194 -0.2179
 1714TIP3   OH226776   1.466   3.767   8.358  0.3942  0.2071  0.5156
 1714TIP3    H126777   1.442   3.812   8.277  0.3228 -0.5967  0.0760
 1714TIP3    H226778   1.504   3.835   8.414 -0.6192  1.0011  0.2596
 1715TIP3   OH226779   0.782   5.196   0.060 -0.0489  1.0906 -0.1023
 1715TIP3    H126780   0.754   5.287   0.067  0.5379  1.3518 -1.0423
 1715TIP3    H226781   0.702   5.148   0.038 -0.5542  1.2185  1.3135
 1716TIP3   OH226782   0.715   3.076   3.127  0.2224 -0.1103 -0.2011
 1716TIP3    H126783   0.673   3.123   3.199  0.5623 -0.0830 -0.0202
 1716TIP3    H226784   0.800   3.050   3.162 -0.4226 -1.9402  0.1428
 1717TIP3   OH226785   3.662   4.501   2.453  0.5585 -0.0697 -0.2146
 1717TIP3    H126786   3.610   4.519   2.375  0.9538  0.6836 -0.3182
 1717TIP3    H226787   3.682   4.407   2.448 -2.4834 -0.8845  0.8956
 1718TIP3   OH226788   1.524   0.982   0.113 -0.5932  0.3013 -0.0874
 1718TIP3    H126789   1.467   0.925   0.062 -0.1465  0.3032 -0.5934
 1718TIP3    H226790   1.610   0.941   0.109 -0.6683 -0.0389  1.1897
 1719TIP3   OH226791   2.598   1.853   0.964 -0.2174 -0.3178  0.2410
 1719TIP3    H126792   2.546   1.919   1.009 -0.2973 -0.5754  0.5316
 1719TIP3    H226793   2.594   1.878   0.872 -2.4741 -1.3867 -0.0309
 1720TIP3   OH226794   0.062   3.436   7.705  0.3929  0.1218 -0.5603
 1720TIP3    H126795   0.012   3.386   7.769  0.4785 -1.5966 -1.7599
 1720TIP3    H226796  -0.003   3.469   7.643  0.4676  0.3646 -0.5108
 1721TIP3   OH226797   5.025   4.564   8.558  0.0286 -0.5869  0.0446
 1721TIP3    H126798   4.950   4.604   8.514 -0.7956 -2.0039  0.1065
 1721TIP3    H226799   5.089   4.635   8.566 -0.5286  0.1803 -1.7559
 1722TIP3   OH226800   2.094   6.033   7.569  0.1062 -0.0005  0.5409
 1722TIP3    H126801   1.998   6.033   7.578  0.0515  1.0230  0.0915
 1722TIP3    H226802   2.124   6.079   7.647  0.1630  0.7121  0.0997
 1723TIP3   OH226803   0.340   3.626   1.025 -0.7442  0.0395  0.6655
 1723TIP3    H126804   0.268   3.649   1.084 -1.4125 -0.5915  0.1066
 1723TIP3    H226805   0.417   3.669   1.064 -1.7090  2.2319  0.2961
 1724TIP3   OH226806   2.636   1.904   1.372 -0.2483  0.5467 -0.0656
 1724TIP3    H126807   2.581   1.826   1.369 -1.1894  1.2184 -0.5749
 1724TIP3    H226808   2.653   1.917   1.466 -4.1301  2.4613  0.5745
 1725TIP3   OH226809   3.654   6.134   3.233  0.3683  0.0093 -0.0701
 1725TIP3    H126810   3.744   6.163   3.219  1.0179 -0.8476  1.8530
 1725TIP3    H226811   3.653   6.043   3.204  0.2089 -0.0647  0.1619
 1726TIP3   OH226812   3.692   3.572   1.488  0.2264  0.4076 -0.2752
 1726TIP3    H126813   3.655   3.656   1.514  0.8899  0.8241 -0.6404
 1726TIP3    H226814   3.770   3.563   1.543 -0.3926 -0.4507  0.4805
 1727TIP3   OH226815   0.317   3.240   0.729 -0.3044  0.0103 -0.3419
 1727TIP3    H126816   0.237   3.227   0.677 -0.5481  2.4923 -0.7178
 1727TIP3    H226817   0.287   3.239   0.820 -0.3589 -1.4428 -0.3668
 1728TIP3   OH226818   1.937   0.699   1.041  0.3696  0.6555 -0.1751
 1728TIP3    H126819   1.855   0.748   1.042  0.5271  0.9310  1.0225
 1728TIP3    H226820   1.958   0.685   1.133  3.5482  3.8192 -0.1866
 1729TIP3   OH226821   3.217   6.554   2.685 -0.0667 -0.1693  0.5262
 1729TIP3    H126822   3.287   6.490   2.671  0.9881  1.1645 -0.5288
 1729TIP3    H226823   3.140   6.501   2.703  0.6724 -1.7621 -0.7336
 1730TIP3   OH226824   0.094   6.414   2.666  0.1380 -0.2263  0.0099
 1730TIP3    H126825   0.190   6.413   2.675  0.0322  1.3868  2.2086
 1730TIP3    H226826   0.064   6.467   2.740 -2.3846  0.6289 -1.5090
 1731TIP3   OH226827   0.277   3.607   3.025  0.3626 -0.1835 -0.3036
 1731TIP3    H126828   0.341   3.586   2.957  0.6154  0.7423 -0.3623
 1731TIP3    H226829   0.315   3.682   3.071  0.4795 -1.1354  1.2342
 1732TIP3   OH226830   2.612   0.710   0.472 -0.4893  0.3541  1.4256
 1732TIP3    H126831   2.522   0.738   0.488 -0.1362  2.4525  0.1961
 1732TIP3    H226832   2.615   0.690   0.378  0.2825  0.2052  1.4723
 1733TIP3   OH226833   0.663   0.615   1.421  0.2387  0.1806 -0.3995
 1733TIP3    H126834   0.657   0.551   1.350  2.5109  0.6682 -1.1242
 1733TIP3    H226835   0.586   0.598   1.476  0.6747 -3.1051 -0.6030
 1734TIP3   OH226836   0.751   1.634   8.189  0.0873 -0.6344 -0.0315
 1734TIP3    H126837   0.806   1.686   8.247 -0.9103  1.9671 -1.2264
 1734TIP3    H226838   0.789   1.647   8.102 -2.2945  1.3412 -0.9188
 1735TIP3   OH226839   1.441   4.585   8.478  0.0986 -0.0521  0.1953
 1735TIP3    H126840   1.524   4.599   8.434  0.9710 -0.4281  1.6329
 1735TIP3    H226841   1.451   4.628   8.563 -1.1198 -0.2472  0.4688
 1736TIP3   OH226842   6.285   2.309   1.315 -0.2339  0.7128 -0.3480
 1736TIP3    H126843   6.256   2.334   1.227  0.3408 -0.8253 -1.0079
 1736TIP3    H226844   6.219   2.248   1.346 -0.1254  0.7953  0.0478
 1737TIP3   OH226845   3.084   4.109   7.251 -0.2753  0.5717 -0.3563
 1737TIP3    H126846   3.025   4.094   7.325  1.0770  0.8775  0.8392
 1737TIP3    H226847   3.141   4.180   7.280  0.6445  0.3258 -1.4793
 1738TIP3   OH226848   5.790   3.131   1.892 -0.3502  0.7231 -0.6163
 1738TIP3    H126849   5.841   3.115   1.971 -1.6522  1.4954  0.4214
 1738TIP3    H226850   5.854   3.162   1.828  1.2269 -2.4935 -0.8228
 1739TIP3   OH226851   6.727   0.792   8.267  0.6218 -0.3659  0.0415
 1739TIP3    H126852   6.718   0.866   8.327 -1.4072 -0.1051 -0.4948
 1739TIP3    H226853   6.752   0.719   8.323 -1.4390 -0.1843  1.3294
 1740TIP3   OH226854   0.560   0.425   7.455 -0.0652  0.9003 -0.7131
 1740TIP3    H126855   0.466   0.438   7.472  0.4623  1.7297  2.0872
 1740TIP3    H226856   0.593   0.512   7.435  0.3363  0.8564 -0.2637
 1741TIP3   OH226857   0.194   6.022   2.098 -0.7904  1.1818  0.1628
 1741TIP3    H126858   0.173   5.992   2.009  0.0409 -1.1692  0.6738
 1741TIP3    H226859   0.122   5.988   2.152 -0.7998  1.7689  0.5238
 1742TIP3   OH226860   0.385   0.565   8.331  0.0173  0.0217 -0.2733
 1742TIP3    H126861   0.364   0.512   8.255 -0.2906  2.4588 -2.0106
 1742TIP3    H226862   0.479   0.582   8.324  0.3949 -1.2740  1.0137
 1743TIP3   OH226863   6.843   5.234   2.942 -0.3717 -0.5472  0.2285
 1743TIP3    H126864   6.825   5.165   2.878  0.5366 -0.8935  0.3309
 1743TIP3    H226865   6.919   5.280   2.907 -1.6109  1.1276 -0.3978
 1744TIP3   OH226866   4.495   2.801   0.099  0.4921  0.3630  0.1206
 1744TIP3    H126867   4.525   2.729   0.154  1.8815 -0.3425 -1.4557
 1744TIP3    H226868   4.428   2.762   0.043  0.2195  0.6739  0.2244
 1745TIP3   OH226869   2.061   1.003   1.984  0.0208 -0.5134 -0.2579
 1745TIP3    H126870   2.121   0.995   1.910 -1.3039 -0.1290 -1.4074
 1745TIP3    H226871   1.998   0.931   1.971 -0.6787  0.0352  0.0512
 1746TIP3   OH226872   2.929   3.127   8.197 -0.1023  0.3791  0.4872
 1746TIP3    H126873   2.945   3.117   8.291  1.8446 -0.7693  0.0960
 1746TIP3    H226874   2.878   3.049   8.173 -0.6922  0.7264  0.5927
 1747TIP3   OH226875   4.901   1.993   0.651 -0.4404  0.3984 -0.4921
 1747TIP3    H126876   4.950   2.072   0.675  0.5229  0.3002 -1.9989
 1747TIP3    H226877   4.837   1.982   0.721  2.2893 -0.0326  2.1179
 1748TIP3   OH226878   1.187   1.717   7.864  0.6588  0.4478 -0.1315
 1748TIP3    H126879   1.226   1.700   7.778 -0.2276  1.5754 -0.7782
 1748TIP3    H226880   1.135   1.796   7.852 -2.8366 -1.5676  0.3222
 1749TIP3   OH226881   1.525   6.207   0.296 -0.1791 -0.3261  0.0142
 1749TIP3    H126882   1.583   6.147   0.249  1.1641  0.9429 -0.0241
 1749TIP3    H226883   1.548   6.294   0.263 -1.4763  0.3088  0.6856
 1750TIP3   OH226884   0.927   4.917   7.913  0.0188  0.0730 -0.3087
 1750TIP3    H126885   0.992   4.986   7.905 -1.0113  1.0776 -0.2465
 1750TIP3    H226886   0.921   4.880   7.825  1.3321 -0.6794 -0.1139
 1751TIP3   OH226887   1.232   4.786   1.524  0.0457 -0.3477  0.1518
 1751TIP3    H126888   1.324   4.801   1.503 -0.0615  0.7176  0.3825
 1751TIP3    H226889   1.185   4.855   1.476 -0.9341 -2.4853 -2.2084
 1752TIP3   OH226890   4.586   2.173   1.482  0.1492  0.3387  0.1785
 1752TIP3    H126891   4.589   2.085   1.519 -1.5092 -0.2741 -1.0695
 1752TIP3    H226892   4.660   2.218   1.524  0.6879 -1.4441  1.2741
 1753TIP3   OH226893   1.049   6.779   2.490  0.1394  0.2002 -0.3579
 1753TIP3    H126894   1.012   6.758   2.404 -0.5120  0.4410 -0.1389
 1753TIP3    H226895   1.086   6.866   2.479 -0.0453  0.2787 -0.3662
 1754TIP3   OH226896   2.829   0.942   1.312  0.2817 -0.0169 -0.0155
 1754TIP3    H126897   2.863   0.982   1.392  1.8926  2.2794 -1.7207
 1754TIP3    H226898   2.761   1.002   1.282  0.5254 -0.2089 -0.9857
 1755TIP3   OH226899   4.445   1.380   2.244 -0.1537 -0.7559  0.1408
 1755TIP3    H126900   4.486   1.324   2.310  0.2279 -2.1086 -1.1857
 1755TIP3    H226901   4.496   1.364   2.164 -2.2639 -1.2456 -1.1653
 1756TIP3   OH226902   0.631   4.754   0.294  0.1646  0.2736 -0.0264
 1756TIP3    H126903   0.664   4.838   0.325  1.3686 -0.1786  0.0005
 1756TIP3    H226904   0.669   4.744   0.207 -1.8519  0.7830 -1.0172
 1757TIP3   OH226905   0.325   1.479   0.606  0.0132 -0.6112  0.1498
 1757TIP3    H126906   0.231   1.487   0.624  0.4294  2.0227  1.7285
 1757TIP3    H226907   0.350   1.565   0.571  1.4402 -2.0584 -2.7059
 1758TIP3   OH226908   5.445   3.542   1.150 -0.0921 -0.1216 -0.1836
 1758TIP3    H126909   5.435   3.552   1.244  1.7596  0.3275  0.0216
 1758TIP3    H226910   5.402   3.620   1.113  1.0678  0.8676  0.4620
 1759TIP3   OH226911   2.332   3.997   7.693  0.1162 -0.0950 -0.7295
 1759TIP3    H126912   2.307   3.974   7.782 -1.7667 -0.4144 -1.2950
 1759TIP3    H226913   2.306   3.921   7.641  1.3661  0.0027 -1.5485
 1760TIP3   OH226914   0.356   5.827   8.188 -0.0589  0.5642 -0.1182
 1760TIP3    H126915   0.341   5.786   8.103  0.1843  0.4166 -0.0905
 1760TIP3    H226916   0.386   5.756   8.245 -0.9429  0.5078  0.2975
 1761TIP3   OH226917   0.784   6.007   3.497  0.4304 -0.2698 -0.3034
 1761TIP3    H126918   0.795   5.933   3.439  2.1917 -0.3827  0.1199
 1761TIP3    H226919   0.754   5.969   3.579 -0.2692 -0.3199 -0.5807
 1762TIP3   OH226920   4.751   3.607   7.403  0.3865  0.6690  0.7052
 1762TIP3    H126921   4.667   3.570   7.376  0.2308  0.0998  1.9164
 1762TIP3    H226922   4.798   3.534   7.444 -0.1692  1.8098  3.6856
 1763TIP3   OH226923   4.379   0.734   0.252 -0.3860 -0.0425  0.1824
 1763TIP3    H126924   4.390   0.648   0.213 -0.4430 -1.7574  3.6230
 1763TIP3    H226925   4.458   0.783   0.227  0.7963 -1.9183  0.0872
 1764TIP3   OH226926   5.654   5.726   0.610 -0.3322  0.5072 -0.2054
 1764TIP3    H126927   5.702   5.710   0.528  0.1455  0.5428  0.0648
 1764TIP3    H226928   5.597   5.650   0.620  1.3066 -0.6534  0.6418
 1765TIP3   OH226929   6.028   5.890   2.545 -0.3638 -0.6159  0.0547
 1765TIP3    H126930   6.024   5.984   2.524 -0.5255 -0.9612 -1.6782
 1765TIP3    H226931   5.966   5.878   2.617 -4.0573 -0.0761 -2.7168
 1766TIP3   OH226932   5.451   5.765   1.503  0.5316  0.0869 -0.3375
 1766TIP3    H126933   5.523   5.712   1.470  3.1371  1.1369  3.1535
 1766TIP3    H226934   5.486   5.854   1.508 -0.5343  0.4578  2.4838
 1767TIP3   OH226935   5.646   0.882   1.812  0.1378 -0.4561  0.0025
 1767TIP3    H126936   5.698   0.863   1.891  1.4191 -0.1465 -0.7440
 1767TIP3    H226937   5.648   0.800   1.763  1.6162  0.1120 -0.9510
 1768TIP3   OH226938   6.000   6.727   1.489  0.0349  0.3189 -0.0997
 1768TIP3    H126939   6.090   6.731   1.455 -0.1718 -0.9867 -0.8670
 1768TIP3    H226940   6.008   6.684   1.574  0.4445  2.8010  1.2205
 1769TIP3   OH226941   0.757   2.978   0.107 -0.0625 -0.6087  0.2001
 1769TIP3    H126942   0.839   2.932   0.089  0.1749  0.2730 -1.0955
 1769TIP3    H226943   0.694   2.907   0.122  0.9413 -1.2987  1.4362
 1770TIP3   OH226944   0.160   4.511   2.085  0.4321  0.5352 -0.2090
 1770TIP3    H126945   0.128   4.435   2.036 -2.4061  0.1216  1.9681
 1770TIP3    H226946   0.107   4.584   2.054  0.8369  0.9176 -0.0056
 1771TIP3   OH226947   5.879   1.360   7.197  0.2196 -0.1555 -0.0790
 1771TIP3    H126948   5.959   1.402   7.165 -0.4709  1.3594  0.1016
 1771TIP3    H226949   5.811   1.387   7.136 -0.2322 -1.1879 -0.0615
 1772TIP3   OH226950   4.855   2.696   1.613 -0.2500  0.0531 -0.3157
 1772TIP3    H126951   4.912   2.629   1.574  0.1857  1.4236 -2.1733
 1772TIP3    H226952   4.903   2.725   1.691  0.3141 -0.6621 -0.3847
 1773TIP3   OH226953   2.092   4.304   8.132  0.0849  0.0456 -0.8727
 1773TIP3    H126954   2.068   4.339   8.217  3.4904 -0.6922  0.5676
 1773TIP3    H226955   2.017   4.251   8.105 -1.9451  1.9768  0.5614
 1774TIP3   OH226956   4.376   0.683   2.863  0.1556 -0.1187  0.3642
 1774TIP3    H126957   4.288   0.655   2.837  0.5995 -1.5824  0.3217
 1774TIP3    H226958   4.379   0.667   2.957  1.1882 -2.6517 -0.0020
 1775TIP3   OH226959   5.170   4.943   2.107  0.9279 -0.3007  1.0091
 1775TIP3    H126960   5.160   5.018   2.166  0.0449 -0.2162  0.7591
 1775TIP3    H226961   5.087   4.896   2.114  1.2146 -0.8706  0.6267
 1776TIP3   OH226962   4.217   6.406   8.485  0.1358  0.3141 -0.2660
 1776TIP3    H126963   4.247   6.418   8.575 -0.1564  1.5201 -0.3184
 1776TIP3    H226964   4.296   6.379   8.437  0.4380  0.3356  0.2164
 1777TIP3   OH226965   2.327   5.188   0.637  0.2958  0.4556  0.2749
 1777TIP3    H126966   2.239   5.223   0.621  0.8999  1.5248 -0.8437
 1777TIP3    H226967   2.354   5.227   0.720 -0.7324 -0.8487  1.2769
 1778TIP3   OH226968   6.776   1.777   0.103  0.4648 -0.2326 -0.0901
 1778TIP3    H126969   6.749   1.869   0.109  2.0463  0.2543  0.2215
 1778TIP3    H226970   6.694   1.727   0.103 -0.4296  1.1848 -0.5255
 1779TIP3   OH226971   0.667   0.927   0.314 -0.1801 -0.0736 -0.2714
 1779TIP3    H126972   0.587   0.914   0.262 -0.5159  2.3711 -0.4998
 1779TIP3    H226973   0.688   1.020   0.302  3.0420 -0.7317 -0.6669
 1780TIP3   OH226974   0.511   5.462   7.880 -0.0491  0.0086 -0.3439
 1780TIP3    H126975   0.432   5.413   7.902  0.0383 -0.1859 -0.4588
 1780TIP3    H226976   0.486   5.515   7.804 -0.0401 -0.1293 -0.4434
 1781TIP3   OH226977   0.485   4.345   1.732 -0.2833 -0.3534  0.2389
 1781TIP3    H126978   0.462   4.289   1.807  1.2784 -1.0276  0.2447
 1781TIP3    H226979   0.570   4.313   1.704  0.2856  1.5128 -0.2753
 1782TIP3   OH226980   3.083   6.465   8.548  0.1314  0.3985  0.2242
 1782TIP3    H126981   3.014   6.506   8.495 -1.7808  0.2487  2.4098
 1782TIP3    H226982   3.056   6.373   8.554  1.4518 -0.0313 -0.2163
 1783TIP3   OH226983   3.444   5.743   0.954 -0.1929 -0.2190 -0.0442
 1783TIP3    H126984   3.522   5.768   0.904 -0.3115  4.0235  1.4939
 1783TIP3    H226985   3.477   5.724   1.042 -0.7880  1.2224  0.5128
 1784TIP3   OH226986   5.450   2.318   2.506 -0.3139  0.7140  0.8457
 1784TIP3    H126987   5.375   2.305   2.564 -0.2501 -0.8570  0.6268
 1784TIP3    H226988   5.412   2.316   2.418 -0.2932  2.2059  0.7789
 1785TIP3   OH226989   0.451   6.855   8.546 -0.2565  0.3912  0.4008
 1785TIP3    H126990   0.425   6.818   8.462  1.4461 -1.2294  0.5283
 1785TIP3    H226991   0.414   6.795   8.611 -3.4689  2.7776  1.0740
 1786TIP3   OH226992   0.155   5.382   8.208 -0.3224 -0.0266  0.0160
 1786TIP3    H126993   0.077   5.343   8.248  0.2007 -1.5411 -0.3739
 1786TIP3    H226994   0.223   5.373   8.275 -0.1598  0.1196 -0.1303
 1787TIP3   OH226995   6.161   0.315   8.090  0.2954  0.0647  0.0146
 1787TIP3    H126996   6.217   0.308   8.168 -1.2386 -4.1925  0.9978
 1787TIP3    H226997   6.212   0.276   8.020 -0.4859 -1.7670  0.4063
 1788TIP3   OH226998   3.234   4.986   0.855  0.0825  0.0427 -0.2141
 1788TIP3    H126999   3.174   5.026   0.792 -0.3906 -1.1829 -0.5868
 1788TIP3    H227000   3.176   4.936   0.913  0.6400 -0.0623  0.2560
 1789TIP3   OH227001   3.989   5.250   8.403  0.0335 -0.1525  0.0032
 1789TIP3    H127002   3.898   5.221   8.419 -0.5344  2.3487  1.8849
 1789TIP3    H227003   3.985   5.296   8.319 -0.4624 -0.0218  0.0916
 1790TIP3   OH227004   1.325   4.941   8.327  0.5790  0.1722 -0.0480
 1790TIP3    H127005   1.340   4.881   8.254  0.8963  0.6733 -0.4038
 1790TIP3    H227006   1.232   4.933   8.346  0.7342 -0.8680  0.3012
 1791TIP3   OH227007   3.055   0.823   0.720 -0.0648  0.3999  0.1665
 1791TIP3    H127008   3.123   0.788   0.663 -0.5580  0.2570 -0.3444
 1791TIP3    H227009   2.990   0.860   0.660 -1.0301 -0.5557  0.5811
 1792TIP3   OH227010   0.326   3.804   8.020  0.2728 -0.8597  0.4020
 1792TIP3    H127011   0.416   3.770   8.016  0.6892  0.1595  0.5859
 1792TIP3    H227012   0.324   3.873   7.953  0.3815  0.7593  1.9929
 1793TIP3   OH227013   6.488   4.416   2.246 -0.0096  0.4103 -0.5828
 1793TIP3    H127014   6.536   4.490   2.284 -0.3616  0.7960 -0.8702
 1793TIP3    H227015   6.555   4.361   2.206  0.0945  1.6712 -2.2322
 1794TIP3   OH227016   5.276   5.168   0.292 -0.0305 -0.8647 -0.0657
 1794TIP3    H127017   5.237   5.251   0.264  0.4831 -1.2808 -2.2618
 1794TIP3    H227018   5.212   5.102   0.266  0.8104 -1.3301 -1.0295
 1795TIP3   OH227019   3.142   1.422   7.416  0.2328 -0.5967 -0.5662
 1795TIP3    H127020   3.201   1.350   7.437 -0.5470 -1.1685 -0.2790
 1795TIP3    H227021   3.060   1.379   7.390 -0.1666  0.1799 -0.6243
 1796TIP3   OH227022   5.515   6.130   8.022 -0.1431 -0.0879  0.3144
 1796TIP3    H127023   5.583   6.081   8.068  1.2247  0.0095 -1.4891
 1796TIP3    H227024   5.561   6.171   7.949 -2.0814  0.3724 -0.7012
 1797TIP3   OH227025   3.667   1.945   1.816 -0.3818 -0.5154 -0.6763
 1797TIP3    H127026   3.712   1.933   1.733 -0.6418  0.3598 -0.9521
 1797TIP3    H227027   3.574   1.945   1.792 -0.4264  1.9987 -0.7349
 1798TIP3   OH227028   4.331   1.838   3.161 -0.5961  0.0823  0.4258
 1798TIP3    H127029   4.285   1.888   3.229  0.8709  1.6098  0.3632
 1798TIP3    H227030   4.380   1.904   3.112 -1.2311 -1.0454 -1.8505
 1799TIP3   OH227031   2.099   2.084   2.682 -0.4025 -0.0843  0.1501
 1799TIP3    H127032   2.041   2.009   2.692 -0.0160 -0.6211 -1.3453
 1799TIP3    H227033   2.041   2.160   2.680 -0.7271 -0.1391  2.9382
 1800TIP3   OH227034   0.114   0.794   1.705 -1.0493 -0.1689 -0.1552
 1800TIP3    H127035   0.134   0.886   1.720 -2.6083  0.2268 -0.3475
 1800TIP3    H227036   0.163   0.747   1.773 -1.4848  0.9212  0.9377
 1801TIP3   OH227037   3.732   3.692   8.534 -0.0901  0.3555  0.6718
 1801TIP3    H127038   3.800   3.630   8.506 -0.6083  0.0804  0.0110
 1801TIP3    H227039   3.662   3.682   8.470  0.4963  2.8571 -0.4525
 1802TIP3   OH227040   1.561   2.663   2.415  0.1096  0.0647 -0.1156
 1802TIP3    H127041   1.628   2.597   2.396 -0.5181 -1.3362  2.0580
 1802TIP3    H227042   1.493   2.614   2.462  0.1567  2.4110  2.7001
 1803TIP3   OH227043   2.187   6.567   2.371 -0.0586  0.1276  0.1303
 1803TIP3    H127044   2.229   6.507   2.310  2.3332  2.0244 -0.2380
 1803TIP3    H227045   2.207   6.532   2.457 -1.5145 -1.3297 -0.0782
 1804TIP3   OH227046   5.218   0.043   7.333  0.2122  0.0877  0.2568
 1804TIP3    H127047   5.197   0.112   7.396 -2.3000 -1.1044  0.8675
 1804TIP3    H227048   5.148   0.048   7.267 -0.3724 -2.1276  0.6141
 1805TIP3   OH227049   0.831   6.716   1.800  0.6608 -0.5275 -0.2400
 1805TIP3    H127050   0.918   6.753   1.810  0.4857 -0.5262  1.5569
 1805TIP3    H227051   0.784   6.779   1.745  1.4647 -0.0213 -0.3667
 1806TIP3   OH227052   1.763   1.143   1.845 -0.5239 -0.4703  0.2726
 1806TIP3    H127053   1.714   1.217   1.810  0.3159  0.1245  0.3334
 1806TIP3    H227054   1.818   1.180   1.913  0.3110 -1.0488 -0.0669
 1807TIP3   OH227055   4.950   1.718   1.639 -0.4788  0.0611  0.0337
 1807TIP3    H127056   4.935   1.724   1.733 -0.8292  1.1339 -0.0794
 1807TIP3    H227057   4.994   1.800   1.616  1.3963 -0.9999 -0.4345
 1808TIP3   OH227058   3.270   3.540   8.053  0.2777 -0.0301 -0.0788
 1808TIP3    H127059   3.305   3.457   8.086  1.9626  0.2964 -0.9003
 1808TIP3    H227060   3.291   3.604   8.120  2.1410  0.3210 -0.9376
 1809TIP3   OH227061   6.471   0.055   0.300 -0.3477  0.2094  0.6153
 1809TIP3    H127062   6.404   0.063   0.368  0.4554  0.5194  1.3777
 1809TIP3    H227063   6.527   0.132   0.312  1.8825 -1.5137  1.9024
 1810TIP3   OH227064   1.680   2.649   0.246 -0.3512 -0.3166 -0.2023
 1810TIP3    H127065   1.616   2.667   0.177  1.3802  0.1789 -1.7587
 1810TIP3    H227066   1.765   2.670   0.206  0.8046 -1.0213  1.7526
 1811TIP3   OH227067   1.838   4.605   2.687 -0.3728 -0.0581 -0.1983
 1811TIP3    H127068   1.900   4.677   2.698 -0.2475 -0.1534 -0.2850
 1811TIP3    H227069   1.891   4.530   2.662 -0.7174  0.3585 -2.3743
 1812TIP3   OH227070   2.616   0.122   0.950 -0.7454 -0.4152 -0.3164
 1812TIP3    H127071   2.657   0.199   0.991 -2.4569  1.0179 -1.1618
 1812TIP3    H227072   2.543   0.100   1.007  0.0487 -1.7969  0.2069
 1813TIP3   OH227073   2.101   6.740   1.307 -0.2994  0.1426  0.5851
 1813TIP3    H127074   2.183   6.695   1.290 -1.1237 -0.4831 -2.2896
 1813TIP3    H227075   2.047   6.676   1.353  0.3163  0.0772  1.2313
 1814TIP3   OH227076   5.852   6.679   0.284  0.1916  0.2641  0.0334
 1814TIP3    H127077   5.788   6.609   0.270  0.4700 -0.3337  1.5486
 1814TIP3    H227078   5.840   6.704   0.376  2.2429  0.0251  0.3964
 1815TIP3   OH227079   3.271   6.379   1.520  0.1240 -0.1398  0.5265
 1815TIP3    H127080   3.179   6.405   1.529  0.1128 -0.0290  0.1389
 1815TIP3    H227081   3.267   6.289   1.487  0.1444  0.0888 -0.1189
 1816TIP3   OH227082   0.359   2.239   0.695  0.3296 -0.4222  0.3785
 1816TIP3    H127083   0.322   2.246   0.783 -0.8855 -0.4318 -0.1105
 1816TIP3    H227084   0.400   2.324   0.680  1.2170 -0.6810  1.2279
 1817TIP3   OH227085   0.074   6.280   1.206 -0.1111 -0.0329 -0.7544
 1817TIP3    H127086  -0.008   6.313   1.170 -0.4571 -1.3452 -1.2399
 1817TIP3    H227087   0.054   6.261   1.298 -0.2455  0.0192 -0.7728
 1818TIP3   OH227088   0.562   0.155   7.387 -0.0591 -0.3988  0.5321
 1818TIP3    H127089   0.494   0.147   7.454 -0.9892  0.6384 -0.2463
 1818TIP3    H227090   0.574   0.249   7.377 -0.9541 -0.4688 -1.7257
 1819TIP3   OH227091   0.994   2.532   0.019  0.1281  0.1290 -0.0355
 1819TIP3    H127092   0.972   2.466   0.086  0.8224 -0.5063 -0.4137
 1819TIP3    H227093   0.914   2.543  -0.031  0.2163 -1.0489 -0.4698
 1820TIP3   OH227094   3.548   5.210   0.401 -0.1203 -0.0028  0.1663
 1820TIP3    H127095   3.499   5.140   0.358 -0.1662  0.0346  0.1579
 1820TIP3    H227096   3.606   5.165   0.462 -0.2930 -0.0362  0.3048
 1821TIP3   OH227097   3.928   4.471   8.194  0.1955 -0.3678 -0.1886
 1821TIP3    H127098   3.885   4.555   8.182 -1.7616 -0.9898  1.8863
 1821TIP3    H227099   3.893   4.416   8.123  0.5703  0.1819 -0.8193
 1822TIP3   OH227100   2.389   4.404   1.528 -0.4615 -0.5585 -0.1078
 1822TIP3    H127101   2.452   4.455   1.579 -0.9206 -0.2425  0.1547
 1822TIP3    H227102   2.332   4.470   1.488  2.0992 -0.4466 -4.1694
 1823TIP3   OH227103   5.745   2.264   2.030 -0.3132  0.4727  0.0797
 1823TIP3    H127104   5.695   2.200   2.080 -0.2358  1.8271  2.0071
 1823TIP3    H227105   5.818   2.214   1.992 -0.3738 -0.6260  1.3316
 1824TIP3   OH227106   4.867   6.662   8.142  0.6128  0.5812  0.1063
 1824TIP3    H127107   4.945   6.607   8.139 -0.5116 -1.1152  0.5873
 1824TIP3    H227108   4.895   6.739   8.193  2.8650  1.6644 -2.4897
 1825TIP3   OH227109   5.167   3.048   2.000  0.1464 -0.4256 -0.1794
 1825TIP3    H127110   5.241   3.092   1.958  0.1659 -0.1234  0.1578
 1825TIP3    H227111   5.192   3.043   2.093  0.3604 -1.5953 -0.2875
 1826TIP3   OH227112   6.294   6.687   0.243 -0.7911 -0.3010  0.4837
 1826TIP3    H127113   6.347   6.609   0.257 -0.0629 -0.1151 -1.0114
 1826TIP3    H227114   6.334   6.754   0.298 -1.3387 -0.9205  1.6690
 1827TIP3   OH227115   3.909   1.457   0.790  0.2042  0.0493 -0.5936
 1827TIP3    H127116   3.945   1.531   0.742 -0.2897  0.7721  0.1348
 1827TIP3    H227117   3.920   1.382   0.730  1.0182  0.6306 -1.1946
 1828TIP3   OH227118   0.206   3.961   0.754 -0.0724  0.7544 -0.0428
 1828TIP3    H127119   0.220   4.020   0.680  2.2825  0.7809  0.3261
 1828TIP3    H227120   0.237   3.876   0.723 -0.3831  0.4472  0.4747
 1829TIP3   OH227121   1.032   2.770   8.235 -0.1217 -0.3151  0.1930
 1829TIP3    H127122   1.075   2.812   8.310 -0.0589  0.1908 -0.1182
 1829TIP3    H227123   1.098   2.713   8.197 -0.1905 -0.6627  0.5912
 1830TIP3   OH227124   6.365   3.853   7.438 -0.1538  0.3286  0.2870
 1830TIP3    H127125   6.401   3.767   7.419 -0.6560  0.0997  0.3693
 1830TIP3    H227126   6.439   3.903   7.472 -0.1446 -0.4547  1.4644
 1831TIP3   OH227127   2.256   3.441   8.425  0.0352 -0.0586 -0.3683
 1831TIP3    H127128   2.161   3.431   8.415 -0.1414  1.1221  0.0443
 1831TIP3    H227129   2.293   3.392   8.351 -0.9183  0.1096 -0.9705
 1832TIP3   OH227130   4.197   0.027   3.016 -0.2797 -0.6850 -0.3526
 1832TIP3    H127131   4.252   0.004   3.091 -0.8233  0.7430  0.5274
 1832TIP3    H227132   4.121  -0.030   3.024 -0.8866  0.2556  0.8932
 1833TIP3   OH227133   1.785   1.155   2.649  0.3814 -0.4282  0.0804
 1833TIP3    H127134   1.777   1.229   2.590 -2.2266  0.4179  1.3265
 1833TIP3    H227135   1.739   1.083   2.604  1.2264 -0.7363 -0.2983
 1834TIP3   OH227136   4.996   0.631   1.208 -0.0259  0.0668  0.8656
 1834TIP3    H127137   4.917   0.682   1.191  0.5032  0.9398  0.9487
 1834TIP3    H227138   5.067   0.695   1.204  0.6441 -0.6428  1.1306
 1835TIP3   OH227139   4.508   2.559   7.455 -0.4685 -0.5575 -0.0254
 1835TIP3    H127140   4.412   2.555   7.453 -0.4327 -1.8022 -0.0649
 1835TIP3    H227141   4.530   2.539   7.546 -0.2223 -1.1108 -0.2055
 1836TIP3   OH227142   2.951   3.979   0.731  0.4590  0.1820  0.6730
 1836TIP3    H127143   2.931   3.899   0.683  2.8510 -0.7304  1.0646
 1836TIP3    H227144   2.967   3.949   0.821  1.0470  1.1606  0.9031
 1837TIP3   OH227145   2.464   6.068   1.166 -0.2331 -0.1883 -0.3989
 1837TIP3    H127146   2.521   6.004   1.209 -1.2001 -1.4827 -0.9515
 1837TIP3    H227147   2.378   6.053   1.207 -0.4688  0.8069 -0.5102
 1838TIP3   OH227148   0.555   0.146   2.574  0.9004 -0.0209  0.6306
 1838TIP3    H127149   0.647   0.172   2.577  0.7127  0.8480 -0.5132
 1838TIP3    H227150   0.554   0.067   2.520  0.9086  0.3664  0.0505
 1839TIP3   OH227151   0.842   0.473   0.081 -0.3796 -0.4420 -0.3688
 1839TIP3    H127152   0.818   0.480  -0.011  0.3778 -1.0235 -0.6165
 1839TIP3    H227153   0.806   0.552   0.121  2.2401  1.6299 -1.8171
 1840TIP3   OH227154   3.086   3.165   0.749  1.0135  0.0233  0.3851
 1840TIP3    H127155   3.021   3.131   0.689  1.4950  0.2740 -0.2888
 1840TIP3    H227156   3.166   3.118   0.728  1.2046  0.1546  0.7923
 1841TIP3   OH227157   6.415   0.108   7.667 -0.0538 -0.1250 -0.0227
 1841TIP3    H127158   6.392   0.034   7.723 -0.8569  0.5623  0.5814
 1841TIP3    H227159   6.339   0.121   7.611 -1.0615  1.8212  1.6211
 1842TIP3   OH227160   3.101   3.525   2.532 -1.1049  0.1738 -0.8210
 1842TIP3    H127161   3.133   3.531   2.442 -1.4053  1.2060 -0.8769
 1842TIP3    H227162   3.054   3.607   2.546  1.3197  1.3420  1.1909
 1843TIP3   OH227163   4.503   6.729   2.846 -0.8595  0.3876 -0.3504
 1843TIP3    H127164   4.504   6.727   2.941 -1.6111  0.8892 -0.3227
 1843TIP3    H227165   4.423   6.777   2.824 -0.0995  1.2847 -1.2206
 1844TIP3   OH227166   1.089   6.822   1.825 -0.3771 -0.0983 -0.0079
 1844TIP3    H127167   1.133   6.750   1.870  1.7813  1.7484  1.0403
 1844TIP3    H227168   1.155   6.859   1.767 -1.8004  0.3516 -1.4258
 1845TIP3   OH227169   6.504   3.308   8.606 -0.1379  0.1468  0.7790
 1845TIP3    H127170   6.599   3.305   8.611  0.2122  1.6461 -2.2412
 1845TIP3    H227171   6.479   3.223   8.570  0.0781 -0.1592  1.3511
 1846TIP3   OH227172   2.216   3.572   2.120  0.5659  0.5903 -0.0300
 1846TIP3    H127173   2.250   3.586   2.208  1.3670 -0.8241 -0.0936
 1846TIP3    H227174   2.185   3.658   2.093 -2.0132  0.6313  2.5585
 1847TIP3   OH227175   5.582   1.317   1.216 -0.5024 -0.0967  0.5573
 1847TIP3    H127176   5.667   1.273   1.223 -0.6039 -0.5595 -0.9230
 1847TIP3    H227177   5.531   1.280   1.288 -0.8468 -3.0742 -1.0685
 1848TIP3   OH227178   2.478   1.217   8.614  0.0395 -0.1236 -0.3028
 1848TIP3    H127179   2.453   1.228   8.523  3.2416  0.0387 -1.2739
 1848TIP3    H227180   2.460   1.302   8.655  1.2388  0.7448 -1.5223
 1849TIP3   OH227181   2.340   3.834   1.437  0.6411  0.0853 -0.4350
 1849TIP3    H127182   2.361   3.884   1.358 -0.5524  0.1679 -0.7218
 1849TIP3    H227183   2.325   3.745   1.405 -2.3403  0.5908 -0.7604
 1850TIP3   OH227184   1.465   3.317   0.068  0.2407  0.5771 -0.1270
 1850TIP3    H127185   1.423   3.358  -0.007 -1.4720 -0.8667 -0.0476
 1850TIP3    H227186   1.393   3.276   0.116  1.8032 -3.3191 -0.7420
 1851TIP3   OH227187   4.249   3.576   2.720 -0.2390 -1.0429 -0.3889
 1851TIP3    H127188   4.337   3.585   2.684 -0.1635 -0.3987 -0.0745
 1851TIP3    H227189   4.216   3.666   2.724  0.1850 -0.9329  2.1810
 1852TIP3   OH227190   0.235   4.139   0.211  0.8023 -0.4001 -0.3350
 1852TIP3    H127191   0.281   4.221   0.230 -2.6891  1.7061 -0.1256
 1852TIP3    H227192   0.243   4.128   0.116  0.8693  0.5160 -0.4419
 1853TIP3   OH227193   1.563   6.438   0.779  0.1936  0.6040  0.0140
 1853TIP3    H127194   1.609   6.429   0.695  0.9962  0.2302  0.4823
 1853TIP3    H227195   1.478   6.395   0.764  0.2445  0.7246 -0.6632
 1854TIP3   OH227196   2.226   2.912   1.041  0.4101  0.1307  0.8014
 1854TIP3    H127197   2.187   2.897   1.126 -0.6243 -0.3426  0.2630
 1854TIP3    H227198   2.211   2.830   0.993  2.0959 -0.0931  0.5758
 1855TIP3   OH227199   0.150   4.855   8.229  0.4964  0.1738 -0.2526
 1855TIP3    H127200   0.152   4.935   8.282  1.5549 -0.0279  0.0471
 1855TIP3    H227201   0.228   4.861   8.174  2.0264 -1.7366  1.4951
 1856TIP3   OH227202   5.229   0.091   0.751  0.4281 -0.3089 -0.7238
 1856TIP3    H127203   5.140   0.061   0.772  0.3953 -0.3162 -0.8753
 1856TIP3    H227204   5.234   0.178   0.792  0.7874 -0.8309  0.3859
 1857TIP3   OH227205   1.323   4.315   7.863  0.1324  0.1325 -0.1304
 1857TIP3    H127206   1.369   4.399   7.869 -1.0677  0.7901  0.0619
 1857TIP3    H227207   1.329   4.291   7.770  0.2519  0.5546 -0.2311
 1858TIP3   OH227208   6.210   0.739   8.469  0.2596  0.0212  0.5114
 1858TIP3    H127209   6.152   0.668   8.444  1.0756 -0.3645 -0.3370
 1858TIP3    H227210   6.171   0.775   8.549 -0.0041 -1.5536  1.1222
 1859TIP3   OH227211   0.418   3.872   3.085 -0.0431  0.0634 -0.3442
 1859TIP3    H127212   0.460   3.947   3.045 -1.5953  1.3166  0.2685
 1859TIP3    H227213   0.420   3.890   3.179  0.0908 -0.9579 -0.1333
 1860TIP3   OH227214   2.808   6.689   2.691 -0.2878 -0.5157 -0.2601
 1860TIP3    H127215   2.841   6.755   2.630  0.1801  2.0414  2.5477
 1860TIP3    H227216   2.714   6.685   2.674 -0.3728  1.1071 -0.3537
 1861TIP3   OH227217   2.685   2.580   3.529 -0.0352  0.3275  0.2814
 1861TIP3    H127218   2.685   2.517   3.457 -0.6107 -0.7637  1.1907
 1861TIP3    H227219   2.772   2.571   3.568  0.6150  1.5991 -0.8171
 1862TIP3   OH227220   0.044   1.478   0.526  0.1990  0.0893 -0.1321
 1862TIP3    H127221  -0.027   1.535   0.557 -1.5098 -1.3058 -1.2893
 1862TIP3    H227222   0.036   1.399   0.580  1.7723  0.4027  0.6256
 1863TIP3   OH227223   4.672   1.030   0.086  0.1386 -0.3991  0.0867
 1863TIP3    H127224   4.750   1.014   0.034  0.6604  0.7026  0.5025
 1863TIP3    H227225   4.618   0.953   0.073  1.4041 -1.2899 -0.0118
 1864TIP3   OH227226   2.132   5.933   0.601  0.6937 -0.1621 -0.0350
 1864TIP3    H127227   2.176   5.965   0.680  1.1281  0.4474 -0.5087
 1864TIP3    H227228   2.155   5.998   0.533  0.0302 -0.4768 -0.5701
 1865TIP3   OH227229   3.589   3.647   1.136 -0.5097  0.5637 -0.1791
 1865TIP3    H127230   3.507   3.647   1.185 -1.2270 -1.1466 -1.3192
 1865TIP3    H227231   3.635   3.569   1.166 -0.0885  0.5637 -0.8112
 1866TIP3   OH227232   1.875   2.013   1.722 -0.5215 -0.4104  0.1353
 1866TIP3    H127233   1.810   1.945   1.739 -0.8906 -0.9101 -2.6797
 1866TIP3    H227234   1.827   2.095   1.734 -1.3452 -0.7576 -0.6574
 1867TIP3   OH227235   3.415   6.569   2.086  0.2631 -0.4703  0.3410
 1867TIP3    H127236   3.327   6.569   2.124 -0.5859  2.8683 -1.3195
 1867TIP3    H227237   3.421   6.485   2.041 -2.5683 -0.3486 -0.4568
 1868TIP3   OH227238   4.378   0.492   1.062 -0.3443 -0.0883  0.1691
 1868TIP3    H127239   4.294   0.482   1.016 -0.1378  0.9155 -0.4754
 1868TIP3    H227240   4.424   0.410   1.047 -1.2468 -0.6910  0.6110
 1869TIP3   OH227241   6.739   1.415   2.149 -0.4396 -0.3029  0.0268
 1869TIP3    H127242   6.756   1.509   2.153  3.0643 -0.8170  0.6217
 1869TIP3    H227243   6.714   1.392   2.239 -2.1527  0.1110 -0.3037
 1870TIP3   OH227244   5.403   1.434   2.810 -0.6720  0.5910 -0.0956
 1870TIP3    H127245   5.471   1.386   2.857  0.5404  0.5196 -1.8427
 1870TIP3    H227246   5.356   1.483   2.879 -0.1328 -0.8686  1.3638
 1871TIP3   OH227247   0.557   3.515   7.635 -0.1869  0.5818 -0.3515
 1871TIP3    H127248   0.482   3.506   7.694  1.3922  1.2432  1.8641
 1871TIP3    H227249   0.575   3.609   7.632  0.7754  0.4065 -0.5404
 1872TIP3   OH227250   3.666   2.135   1.077  0.3483 -0.0008 -0.7571
 1872TIP3    H127251   3.615   2.054   1.084  0.2022  0.1585  0.2542
 1872TIP3    H227252   3.735   2.126   1.144 -0.7000  1.4126  0.5903
 1873TIP3   OH227253   0.415   1.367   1.960 -0.3702 -0.0696 -0.3382
 1873TIP3    H127254   0.504   1.361   1.996  0.0702 -2.2193 -1.6243
 1873TIP3    H227255   0.411   1.454   1.920  1.5622 -0.3569 -1.2525
 1874TIP3   OH227256   6.483   6.493   0.262  0.0596  0.2725 -0.0230
 1874TIP3    H127257   6.578   6.488   0.277  0.0827 -0.7300 -0.4016
 1874TIP3    H227258   6.474   6.479   0.168 -0.4666  0.4301  0.0035
 1875TIP3   OH227259   3.873   3.236   2.519 -0.3186  0.1100 -0.4671
 1875TIP3    H127260   3.877   3.161   2.461 -3.2694  0.3495 -1.1416
 1875TIP3    H227261   3.779   3.251   2.532  0.2079  2.2946  1.4591
 1876TIP3   OH227262   5.186   6.592   0.810  0.1961 -0.2745 -0.4148
 1876TIP3    H127263   5.204   6.526   0.876 -0.1209 -0.8180 -0.8609
 1876TIP3    H227264   5.095   6.618   0.827 -0.1562 -0.9995 -1.1241
 1877TIP3   OH227265   0.178   3.580   1.247  0.7478 -0.1550  0.8295
 1877TIP3    H127266   0.240   3.509   1.262 -0.8773 -1.9043 -0.3533
 1877TIP3    H227267   0.092   3.539   1.254 -0.2490  1.5368 -0.6739
 1878TIP3   OH227268   5.792   4.977   0.296 -0.0071 -0.7561  0.3497
 1878TIP3    H127269   5.796   5.040   0.225  0.1176  0.9338  1.7736
 1878TIP3    H227270   5.751   4.899   0.258 -0.0659  0.1377 -1.4934
 1879TIP3   OH227271   5.943   5.763   0.677  0.5555  0.0221  0.4298
 1879TIP3    H127272   5.885   5.796   0.608  0.9499 -1.1872 -0.5136
 1879TIP3    H227273   5.889   5.763   0.756 -0.1343  0.7225 -0.0249
 1880TIP3   OH227274   2.539   3.271   2.499 -0.0285 -0.4648  0.2302
 1880TIP3    H127275   2.461   3.261   2.444 -1.5236  0.0041  2.1297
 1880TIP3    H227276   2.529   3.204   2.566  1.7947 -1.0876 -0.0615
 1881TIP3   OH227277   3.906   2.799   1.021 -0.0530 -0.3923 -0.0532
 1881TIP3    H127278   3.823   2.770   1.060  1.3009 -0.2067  3.3153
 1881TIP3    H227279   3.925   2.882   1.064  2.0196 -0.5817 -0.4853
 1882TIP3   OH227280   4.443   0.461   7.324  0.2053 -0.6116 -0.3550
 1882TIP3    H127281   4.379   0.390   7.329 -0.7975  0.2885  0.1757
 1882TIP3    H227282   4.428   0.501   7.238 -2.0079  1.3802  0.8261
 1883TIP3   OH227283   2.706   2.263   1.557 -0.3185 -0.5903  0.3237
 1883TIP3    H127284   2.716   2.346   1.509  1.3802 -0.8797  0.1162
 1883TIP3    H227285   2.775   2.207   1.521 -2.4140 -2.6728 -0.6670
 1884TIP3   OH227286   6.397   3.096   8.422 -0.0437  0.3384  0.1645
 1884TIP3    H127287   6.302   3.099   8.435 -0.5243 -2.1625 -1.9169
 1884TIP3    H227288   6.423   3.009   8.451  1.3554  0.4479 -0.6559
 1885TIP3   OH227289   1.517   3.499   1.893 -0.1960 -0.0101 -0.1997
 1885TIP3    H127290   1.601   3.545   1.892  0.6305 -1.4154  1.1685
 1885TIP3    H227291   1.539   3.408   1.874 -1.4675 -0.3222 -0.2567
 1886TIP3   OH227292   0.799   4.191   2.473  0.0452 -0.1047 -0.8301
 1886TIP3    H127293   0.793   4.286   2.487  0.4642 -0.2658  0.5669
 1886TIP3    H227294   0.887   4.179   2.437 -0.3873  0.1226 -2.0249
 1887TIP3   OH227295   6.118   0.815   2.691  0.2715 -0.1393  0.8020
 1887TIP3    H127296   6.186   0.864   2.645  0.0395 -0.6292 -0.1044
 1887TIP3    H227297   6.098   0.742   2.632 -0.1854 -0.6795  1.6033
 1888TIP3   OH227298   1.838   5.684   0.425  0.2202 -0.2301 -0.0952
 1888TIP3    H127299   1.871   5.609   0.474 -1.4917 -0.8319  0.1717
 1888TIP3    H227300   1.752   5.657   0.393  0.2299  1.0549 -1.3270
 1889TIP3   OH227301   4.905   3.345   1.108  0.0307 -0.0405 -0.3941
 1889TIP3    H127302   4.975   3.371   1.048  0.5026 -1.3378 -0.4479
 1889TIP3    H227303   4.890   3.252   1.088 -1.3594  0.0849 -0.0230
 1890TIP3   OH227304   6.866   1.159   8.616 -0.4560 -0.0420 -0.2678
 1890TIP3    H127305   6.777   1.173   8.583 -0.4033  0.5855 -0.1725
 1890TIP3    H227306   6.854   1.135   8.708 -0.5825 -1.3676 -0.6124
 1891TIP3   OH227307   4.566   6.525   7.147  0.5425 -0.0721 -0.0200
 1891TIP3    H127308   4.533   6.612   7.122  2.2725  0.8129  0.5833
 1891TIP3    H227309   4.511   6.500   7.221  0.4655  0.8355  0.2493
 1892TIP3   OH227310   5.264   6.147   1.633  0.0881 -0.6213  0.0852
 1892TIP3    H127311   5.188   6.121   1.580  0.4282 -0.9355 -0.2554
 1892TIP3    H227312   5.231   6.216   1.690 -0.6614 -1.2868  0.4892
 1893TIP3   OH227313   5.217   2.301   2.597  0.1319 -0.0517 -0.7578
 1893TIP3    H127314   5.177   2.220   2.568  1.6862 -0.3324 -2.2767
 1893TIP3    H227315   5.163   2.370   2.558 -1.3757 -0.2954  0.7917
 1894TIP3   OH227316   5.245   3.739   1.649 -0.4422  0.4083 -0.0671
 1894TIP3    H127317   5.221   3.801   1.581 -0.5677  0.5213  0.0801
 1894TIP3    H227318   5.177   3.671   1.645  0.2652 -0.2798 -0.9359
 1895TIP3   OH227319   4.153   4.515   8.657  0.2596 -0.6402  0.4554
 1895TIP3    H127320   4.192   4.601   8.673 -2.0521  0.3062  1.4924
 1895TIP3    H227321   4.121   4.520   8.567  0.2828 -0.4750  0.4555
 1896TIP3   OH227322   4.513   5.512   1.788 -0.1791 -0.3909  0.0230
 1896TIP3    H127323   4.566   5.433   1.780  0.0091 -0.2169 -0.4620
 1896TIP3    H227324   4.435   5.484   1.837 -0.4349 -1.0330 -0.7345
 1897TIP3   OH227325   5.854   5.060   2.119 -0.2004  0.2356  0.3309
 1897TIP3    H127326   5.914   5.123   2.158 -0.5589  0.6884  0.1506
 1897TIP3    H227327   5.776   5.110   2.096  0.2256  0.1238 -1.5336
 1898TIP3   OH227328   0.722   0.847   1.947  0.2864 -0.0846  0.1348
 1898TIP3    H127329   0.793   0.804   1.898  1.5046  1.0797  0.8030
 1898TIP3    H227330   0.689   0.779   2.005  0.3947 -0.8355 -0.6583
 1899TIP3   OH227331   1.410   0.807   8.592 -0.7172 -0.1094  0.4135
 1899TIP3    H127332   1.488   0.793   8.539  1.4527  1.2889  2.9757
 1899TIP3    H227333   1.344   0.838   8.530  0.5420 -1.8346 -1.9358
 1900TIP3   OH227334   4.255   0.816   2.001 -0.5349  0.2674 -0.0923
 1900TIP3    H127335   4.223   0.835   2.089 -0.7872  1.6366 -0.4540
 1900TIP3    H227336   4.192   0.859   1.943 -0.0221 -0.0720 -0.9178
 1901TIP3   OH227337   0.505   2.779   3.023 -0.3898  0.1851  0.0550
 1901TIP3    H127338   0.419   2.786   3.063 -0.4533 -0.1881 -0.0075
 1901TIP3    H227339   0.489   2.785   2.929 -0.4642 -0.8046 -0.0108
 1902TIP3   OH227340   2.354   3.354   3.179 -0.1950 -0.2066 -0.6176
 1902TIP3    H127341   2.360   3.384   3.270 -1.1988 -1.8809  0.0602
 1902TIP3    H227342   2.260   3.358   3.159 -0.1962 -1.4990 -0.9623
 1903TIP3   OH227343   4.735   6.107   6.800 -0.5677  0.8189  0.5897
 1903TIP3    H127344   4.677   6.177   6.828 -0.7443  0.5357  0.9439
 1903TIP3    H227345   4.822   6.136   6.826 -0.6371  0.9220  0.7063
 1904TIP3   OH227346   2.217   3.700   8.544  0.4685  0.4466 -0.0692
 1904TIP3    H127347   2.250   3.625   8.496  0.4919  0.9415 -0.8560
 1904TIP3    H227348   2.254   3.691   8.632  2.2797  0.6993 -0.7589
 1905TIP3   OH227349   3.336   0.031   0.355 -0.4022 -0.0556 -0.0553
 1905TIP3    H127350   3.317   0.016   0.263 -1.8013  2.3192 -0.2475
 1905TIP3    H227351   3.252   0.056   0.393  0.5353  1.1725  1.3292
 1906TIP3   OH227352   1.095   6.575   7.516  0.5055  0.6701 -0.6616
 1906TIP3    H127353   1.044   6.609   7.589  1.0870  1.5567 -0.6495
 1906TIP3    H227354   1.117   6.652   7.464  2.3261  0.4222 -0.3409
 1907TIP3   OH227355   1.112   3.628   8.285 -0.3130 -0.0304  0.7743
 1907TIP3    H127356   1.017   3.617   8.288 -0.4020 -0.8689 -2.0943
 1907TIP3    H227357   1.145   3.562   8.345 -1.5045  0.1504  1.6798
 1908TIP3   OH227358   1.162   3.552   0.866 -0.5243 -0.6119 -0.1987
 1908TIP3    H127359   1.074   3.565   0.902 -0.3542 -2.2740  0.9212
 1908TIP3    H227360   1.170   3.621   0.800 -1.8195  0.9878  1.1726
 1909TIP3   OH227361   3.957   1.798   0.227  0.2867  0.3433 -0.0022
 1909TIP3    H127362   4.008   1.733   0.275 -1.1252 -1.3966 -0.7253
 1909TIP3    H227363   4.018   1.834   0.162  1.3231  0.4003  0.9718
 1910TIP3   OH227364   4.685   4.630   0.190 -0.5776  0.1856  0.7225
 1910TIP3    H127365   4.769   4.672   0.206 -0.2998 -0.3766  0.7557
 1910TIP3    H227366   4.707   4.539   0.171 -0.8388  0.7539 -2.9604
 1911TIP3   OH227367   2.484   5.980   0.168  0.0877  0.1044  0.5914
 1911TIP3    H127368   2.548   6.007   0.102  2.4688 -0.6578  2.4578
 1911TIP3    H227369   2.465   6.060   0.218  0.2389  0.1580  0.5627
 1912TIP3   OH227370   0.814   3.938   8.286 -0.7381  0.2838  0.2991
 1912TIP3    H127371   0.779   3.999   8.351  1.4175 -0.4184  2.2352
 1912TIP3    H227372   0.828   3.857   8.334  2.1825  0.1235 -0.6445
 1913TIP3   OH227373   6.068   2.750   2.238 -0.2982 -0.1527 -0.0005
 1913TIP3    H127374   6.000   2.716   2.179  0.2821 -1.7453  0.1919
 1913TIP3    H227375   6.043   2.841   2.253 -3.2297 -1.0442  1.2259
 1914TIP3   OH227376   3.215   5.539   8.528 -0.2017  0.1867  0.4627
 1914TIP3    H127377   3.122   5.560   8.544 -1.3466 -2.8687 -1.3559
 1914TIP3    H227378   3.243   5.493   8.607 -1.1950 -1.3840 -0.0380
 1915TIP3   OH227379   3.081   1.067   0.833  0.0801 -0.0760  0.7603
 1915TIP3    H127380   3.044   1.062   0.921  0.8090  1.0463  1.1569
 1915TIP3    H227381   3.056   0.985   0.791 -2.7224  0.5450  1.0448
 1916TIP3   OH227382   5.770   5.960   7.560 -0.0879 -0.0577  0.2328
 1916TIP3    H127383   5.695   5.965   7.500 -0.4785 -0.1548  0.7023
 1916TIP3    H227384   5.844   5.934   7.504 -0.3766  0.1610 -0.2567
 1917TIP3   OH227385   0.969   4.490   0.473  0.2622 -0.5669  0.1309
 1917TIP3    H127386   0.973   4.494   0.569 -2.1233  2.6174  0.2554
 1917TIP3    H227387   0.876   4.497   0.452  0.6603 -1.7376 -2.4804
 1918TIP3   OH227388   4.313   1.664   2.041  0.0543  0.1034  0.3188
 1918TIP3    H127389   4.289   1.573   2.025  1.4236 -0.2407  0.1000
 1918TIP3    H227390   4.321   1.703   1.954  1.8803 -0.2482  0.2914
 1919TIP3   OH227391   4.264   2.565   2.509  0.3244 -0.1844 -0.1000
 1919TIP3    H127392   4.219   2.487   2.542  0.1983  0.7897  2.1935
 1919TIP3    H227393   4.357   2.547   2.522  0.3067 -0.0707  0.2031
 1920TIP3   OH227394   4.297   4.261   2.845 -0.3619  0.2932  0.2072
 1920TIP3    H127395   4.337   4.186   2.890  0.1962  0.2513 -0.3480
 1920TIP3    H227396   4.269   4.319   2.915 -0.2921 -0.1730  0.6301
 1921TIP3   OH227397   4.163   6.000   3.079  0.1037 -0.5823 -0.8567
 1921TIP3    H127398   4.157   6.086   3.121  1.4193 -0.8632 -0.0341
 1921TIP3    H227399   4.154   5.937   3.150 -1.2146 -1.1564 -1.5030
 1922TIP3   OH227400   3.952   5.079   1.533  0.4771 -0.3396  0.2564
 1922TIP3    H127401   3.943   5.087   1.628 -0.7522  0.2628  0.1127
 1922TIP3    H227402   3.982   4.989   1.519  0.9554 -0.3408  1.2252
 1923TIP3   OH227403   3.596   6.499   7.583 -0.4020  0.3053  0.1679
 1923TIP3    H127404   3.583   6.567   7.649 -2.6147 -0.3692  0.4926
 1923TIP3    H227405   3.510   6.488   7.543  0.2573 -1.2901 -0.8892
 1924TIP3   OH227406   1.201   3.686   1.415 -0.0975  0.0076  0.6805
 1924TIP3    H127407   1.187   3.768   1.367  0.8543 -0.8214 -1.0667
 1924TIP3    H227408   1.134   3.627   1.382 -0.2756 -0.1874  1.3664
 1925TIP3   OH227409   5.085   0.400   1.363  0.4017  0.0409  0.3243
 1925TIP3    H127410   5.019   0.354   1.416  0.3220  1.7797  1.8422
 1925TIP3    H227411   5.034   0.455   1.304  0.4969 -0.1162  0.0955
 1926TIP3   OH227412   5.712   4.226   7.872  0.3930  0.2796  0.1138
 1926TIP3    H127413   5.739   4.223   7.780 -0.0652  1.2708 -0.0616
 1926TIP3    H227414   5.627   4.182   7.873  0.0219  0.9854 -0.0806
 1927TIP3   OH227415   3.706   1.872   2.415  0.4685  0.0509  0.4037
 1927TIP3    H127416   3.691   1.886   2.321  0.9961 -0.9759  0.1524
 1927TIP3    H227417   3.648   1.800   2.438 -0.1014  0.6939  1.0183
 1928TIP3   OH227418   1.954   1.547   1.381 -0.3422  0.2394  0.4669
 1928TIP3    H127419   2.042   1.509   1.382  0.1280  1.2478 -0.5150
 1928TIP3    H227420   1.948   1.590   1.297 -0.9720  2.0457  1.3904
 1929TIP3   OH227421   0.131   5.164   1.546  0.5548  0.0343 -0.3215
 1929TIP3    H127422   0.063   5.097   1.539  0.8683 -0.1671 -1.7172
 1929TIP3    H227423   0.084   5.247   1.537  0.2917 -0.0333  0.3909
 1930TIP3   OH227424   4.816   4.095   2.254 -0.2848  0.2383  0.0010
 1930TIP3    H127425   4.802   4.131   2.166 -2.2334 -0.5605 -0.0674
 1930TIP3    H227426   4.727   4.083   2.289  0.4112 -1.0961  1.4034
 1931TIP3   OH227427   2.444   0.916   1.424  0.0406  0.1389  0.1352
 1931TIP3    H127428   2.424   0.905   1.332  0.2985  0.2249  0.0676
 1931TIP3    H227429   2.488   0.835   1.450 -3.5700 -1.6735  1.1953
 1932TIP3   OH227430   3.227   6.650   8.175  0.0554  0.2615 -0.1739
 1932TIP3    H127431   3.295   6.629   8.112 -0.6111 -0.0837 -0.8048
 1932TIP3    H227432   3.145   6.638   8.126 -0.4792 -0.0725  0.7671
 1933TIP3   OH227433   5.005   5.952   3.118  0.3356  0.1182 -0.7261
 1933TIP3    H127434   5.055   5.886   3.167  0.5475  0.5818 -0.3079
 1933TIP3    H227435   5.071   6.002   3.070  0.2101  0.2685 -0.7428
 1934TIP3   OH227436   2.807   1.558   2.875  0.2146  0.4700  0.4399
 1934TIP3    H127437   2.876   1.502   2.910 -0.5963  0.0217  1.3430
 1934TIP3    H227438   2.854   1.622   2.820  1.3406  0.2066  1.0689
 1935TIP3   OH227439   5.427   4.195   2.477 -0.1202 -0.0910  0.6153
 1935TIP3    H127440   5.366   4.254   2.521  0.1282  0.0491  0.7760
 1935TIP3    H227441   5.494   4.252   2.440 -0.6574 -0.1611 -0.4888
 1936TIP3   OH227442   2.864   2.996   0.607 -0.5248 -0.0054 -0.1778
 1936TIP3    H127443   2.838   3.008   0.516 -0.3986  2.1964  0.0400
 1936TIP3    H227444   2.809   3.057   0.656  2.7761  2.5653  0.6384
 1937TIP3   OH227445   6.236   2.451   0.213  0.1266  0.1855  0.2810
 1937TIP3    H127446   6.258   2.362   0.186  0.6094  0.3364  0.1673
 1937TIP3    H227447   6.142   2.448   0.229  0.1848 -0.4182  0.5586
 1938TIP3   OH227448   3.144   4.585   0.176 -0.3809  0.1341 -0.4298
 1938TIP3    H127449   3.109   4.672   0.195 -0.0474 -0.0249  0.9936
 1938TIP3    H227450   3.237   4.591   0.200  0.0643 -0.1134 -2.0013
 1939TIP3   OH227451   6.577   1.171   0.054  0.1099  0.6031  0.0378
 1939TIP3    H127452   6.610   1.122   0.129 -1.7688 -0.2777  0.3573
 1939TIP3    H227453   6.544   1.104  -0.006  0.8937  1.3378 -1.2386
 1940TIP3   OH227454   4.607   6.330   1.638  0.2656 -0.8449 -0.7274
 1940TIP3    H127455   4.659   6.252   1.619  0.8481 -0.7096  0.2838
 1940TIP3    H227456   4.657   6.377   1.704  0.1738  0.6548 -1.6820
 1941TIP3   OH227457   4.682   4.156   2.881  0.5895  0.2789 -0.5640
 1941TIP3    H127458   4.595   4.147   2.920  1.8960  1.3027  3.0662
 1941TIP3    H227459   4.709   4.066   2.863 -0.3476 -0.2362  0.4598
 1942TIP3   OH227460   1.876   3.915   0.562 -0.5773 -0.0015  0.0623
 1942TIP3    H127461   1.818   3.987   0.539 -0.1238 -0.4838 -2.9896
 1942TIP3    H227462   1.820   3.837   0.558 -0.3801 -0.1498  0.1787
 1943TIP3   OH227463   5.573   6.876   0.353 -0.3538  0.1213  0.0565
 1943TIP3    H127464   5.488   6.872   0.396 -0.3897  1.6497  0.1923
 1943TIP3    H227465   5.625   6.808   0.397 -1.0451  0.1986  1.0332
 1944TIP3   OH227466   6.809   5.702   0.651  0.1823  0.2853  0.1891
 1944TIP3    H127467   6.866   5.675   0.579  0.2621  0.4741  0.1802
 1944TIP3    H227468   6.867   5.749   0.711 -0.1262  1.2310 -0.2399
 1945TIP3   OH227469   3.842   0.399   0.642 -0.5029  0.1608 -0.0689
 1945TIP3    H127470   3.810   0.338   0.576  0.4854  0.5219 -0.9022
 1945TIP3    H227471   3.818   0.485   0.608  0.9434  0.4085 -0.4936
 1946TIP3   OH227472   6.150   3.274   1.513  0.0841  0.3353  0.3880
 1946TIP3    H127473   6.147   3.347   1.451 -1.6140 -1.4072 -1.7545
 1946TIP3    H227474   6.200   3.206   1.468 -1.4776 -1.0916  0.7203
 1947TIP3   OH227475   2.554   1.771   8.567 -0.0158  0.5140 -0.3930
 1947TIP3    H127476   2.568   1.685   8.607 -0.0191 -0.4084 -2.2783
 1947TIP3    H227477   2.486   1.812   8.620  0.1140 -0.5675  0.6402
 1948TIP3   OH227478   6.832   2.196   1.781 -0.0238  0.2523 -0.2903
 1948TIP3    H127479   6.817   2.101   1.779  4.2496 -0.5745 -1.2762
 1948TIP3    H227480   6.766   2.231   1.722 -1.1747 -2.1819 -0.5965
 1949TIP3   OH227481   1.335   1.545   0.246  0.0529  0.2577  0.2398
 1949TIP3    H127482   1.316   1.611   0.313 -1.0060  0.4580 -0.2382
 1949TIP3    H227483   1.251   1.503   0.230  0.5533 -0.6496 -0.0675
 1950TIP3   OH227484   3.654   2.440   2.350 -0.3236  0.4761  0.1514
 1950TIP3    H127485   3.594   2.367   2.335 -0.6744  0.6529  0.6941
 1950TIP3    H227486   3.706   2.445   2.269 -1.3795  0.6511 -0.5371
 1951TIP3   OH227487   3.342   3.521   0.778  0.5141  0.5973  0.3302
 1951TIP3    H127488   3.335   3.456   0.848  0.4910 -0.7786 -0.9064
 1951TIP3    H227489   3.266   3.578   0.791  0.0540 -0.1341  0.9421
 1952TIP3   OH227490   5.028   1.570   8.046 -0.0365  0.0551  0.0848
 1952TIP3    H127491   5.120   1.564   8.072  0.4869  0.7958 -1.4709
 1952TIP3    H227492   4.987   1.494   8.087  0.7016  1.0669  2.8999
 1953TIP3   OH227493   3.118   4.802   2.752  0.3097 -0.3961 -0.1468
 1953TIP3    H127494   3.112   4.818   2.846 -0.9869 -1.4198 -0.0281
 1953TIP3    H227495   3.196   4.748   2.741 -0.4583 -1.6931  0.5723
 1954TIP3   OH227496   5.356   0.047   1.725  0.0870 -0.2081 -0.1345
 1954TIP3    H127497   5.350   0.059   1.630  1.6118 -0.2656 -0.2630
 1954TIP3    H227498   5.368   0.136   1.759  0.5449 -0.2805 -0.0983
 1955TIP3   OH227499   1.930   6.168   0.442  0.5234  0.3828 -0.3880
 1955TIP3    H127500   1.905   6.080   0.471  1.2910 -0.1415 -1.2864
 1955TIP3    H227501   1.897   6.174   0.353  0.0382  1.2010 -0.1593
 1956TIP3   OH227502   3.111   3.256   2.545 -0.4211 -0.7113 -0.0920
 1956TIP3    H127503   3.085   3.245   2.453  0.9821  1.8641 -0.8851
 1956TIP3    H227504   3.094   3.348   2.564  4.2034  0.2729  0.4974
 1957TIP3   OH227505   5.808   6.831   1.691 -0.2158  0.4606 -0.5750
 1957TIP3    H127506   5.886   6.861   1.738 -1.5109 -0.2360  2.2571
 1957TIP3    H227507   5.841   6.791   1.611  2.2553  0.8901  0.1692
 1958TIP3   OH227508   0.943   4.826   2.794 -0.4152 -0.1737 -0.2645
 1958TIP3    H127509   0.889   4.896   2.829 -1.5686 -0.9395 -0.4611
 1958TIP3    H227510   0.995   4.868   2.726  0.1788  0.8355  0.7823
 1959TIP3   OH227511   2.852   2.378   0.001 -0.3240  0.0977 -0.2375
 1959TIP3    H127512   2.850   2.373  -0.094 -1.1598  0.8879 -0.2744
 1959TIP3    H227513   2.894   2.461   0.021  0.3206 -0.3011  0.1011
 1960TIP3   OH227514   0.570   0.895   1.421 -0.0362  0.3105  0.3139
 1960TIP3    H127515   0.481   0.877   1.450  0.3562  1.2764  2.2821
 1960TIP3    H227516   0.610   0.809   1.409 -1.3362 -0.1437 -1.0908
 1961TIP3   OH227517   1.154   3.674   2.497 -0.1068 -0.6214 -0.3550
 1961TIP3    H127518   1.124   3.667   2.588 -2.8588 -0.5014 -1.1474
 1961TIP3    H227519   1.179   3.585   2.473  0.1334 -0.7527  0.3549
 1962TIP3   OH227520   6.476   2.904   0.894  0.0058 -0.0463  0.2308
 1962TIP3    H127521   6.416   2.976   0.873  1.8053  0.9320 -1.9969
 1962TIP3    H227522   6.439   2.865   0.973 -1.9058  2.3402  0.6543
 1963TIP3   OH227523   6.215   4.268   2.071 -0.0288 -0.1253  0.2625
 1963TIP3    H127524   6.192   4.353   2.108  0.6874  0.2632 -0.1832
 1963TIP3    H227525   6.210   4.208   2.146 -2.1836 -0.0292  0.2681
 1964TIP3   OH227526   5.585   1.970   7.526 -0.0333 -0.7145 -0.7800
 1964TIP3    H127527   5.567   2.064   7.521 -0.1333 -0.6093  0.8295
 1964TIP3    H227528   5.505   1.928   7.492 -1.1733 -0.2031  1.0892
 1965TIP3   OH227529   1.287   1.692   8.118  0.0174  0.3197  0.3019
 1965TIP3    H127530   1.286   1.672   8.024  1.8040  0.9053  0.1277
 1965TIP3    H227531   1.208   1.744   8.132 -0.5528 -0.2241 -0.7626
 1966TIP3   OH227532   6.711   3.311   7.523  0.5051  0.2500 -0.0497
 1966TIP3    H127533   6.798   3.296   7.485  1.4755  2.2974  1.1936
 1966TIP3    H227534   6.720   3.391   7.574 -1.7770 -0.2333  1.2815
 1967TIP3   OH227535   4.140   2.016   3.021  0.2971 -0.0808  0.3932
 1967TIP3    H127536   4.139   2.110   3.007  0.2362  0.1410  1.7052
 1967TIP3    H227537   4.233   1.994   3.030  0.3653 -0.3003 -0.7877
 1968TIP3   OH227538   3.480   1.725   3.272 -0.3555 -0.0074  0.2735
 1968TIP3    H127539   3.434   1.804   3.299 -0.2830  0.1689 -0.1031
 1968TIP3    H227540   3.423   1.653   3.298 -1.4294  0.2423 -1.2291
 1969TIP3   OH227541   1.661   2.091   2.026 -0.1796  0.1605  0.2635
 1969TIP3    H127542   1.664   2.186   2.036 -1.8182  0.4038 -1.0341
 1969TIP3    H227543   1.720   2.072   1.953  0.0211  0.1946  0.4163
 1970TIP3   OH227544   1.674   1.896   7.567  0.2991 -0.3489 -0.8832
 1970TIP3    H127545   1.694   1.977   7.613  1.9704  0.3649 -2.7368
 1970TIP3    H227546   1.579   1.887   7.574  0.3258  0.6188  1.1634
 1971TIP3   OH227547   0.860   4.002   3.683  0.4218  0.3251 -0.2652
 1971TIP3    H127548   0.782   4.006   3.627  0.8313  0.2101 -0.8516
 1971TIP3    H227549   0.848   3.923   3.735 -0.1161  0.6038  0.0416
 1972TIP3   OH227550   1.398   1.038   2.509 -0.3693  0.2471  0.4182
 1972TIP3    H127551   1.322   1.040   2.451  0.8127 -0.5927 -1.2447
 1972TIP3    H227552   1.428   0.947   2.506  0.9514  0.6498  0.6594
 1973TIP3   OH227553   3.272   0.846   0.956  0.3199  0.0179 -0.1813
 1973TIP3    H127554   3.184   0.865   0.924  1.2931  0.0604 -3.1109
 1973TIP3    H227555   3.310   0.932   0.976 -0.1390  0.0220  0.7311
 1974TIP3   OH227556   3.793   2.529   3.214 -0.0693 -0.1821 -0.0349
 1974TIP3    H127557   3.709   2.486   3.231  0.1542 -0.4540  0.4013
 1974TIP3    H227558   3.838   2.472   3.153  0.2401 -0.5893  0.5680
 1975TIP3   OH227559   6.705   3.161   0.228  0.5985 -0.3319 -0.5274
 1975TIP3    H127560   6.662   3.121   0.304  0.4211  1.6259  0.4590
 1975TIP3    H227561   6.728   3.087   0.172  2.9440 -2.1911  2.5182
 1976TIP3   OH227562   3.642   2.325   0.405  0.6788 -0.1653  0.2956
 1976TIP3    H127563   3.703   2.311   0.477  0.5439  0.1471  0.4691
 1976TIP3    H227564   3.669   2.262   0.338  1.0827 -0.1482  0.4421
 1977TIP3   OH227565   6.106   5.495   3.208 -0.7521  0.1008 -0.5434
 1977TIP3    H127566   6.122   5.415   3.258  0.4372 -0.2642 -1.4504
 1977TIP3    H227567   6.138   5.566   3.264  1.1648 -0.3547 -0.9924
 1978TIP3   OH227568   1.772   5.262   2.085  0.1919 -0.4736  0.3234
 1978TIP3    H127569   1.762   5.354   2.060  1.1999 -0.8954 -1.9378
 1978TIP3    H227570   1.691   5.220   2.057 -0.4068 -0.2589  1.6560
 1979TIP3   OH227571   5.228   6.586   1.924  0.1460  0.8392 -0.1824
 1979TIP3    H127572   5.254   6.646   1.994 -0.3612  0.6480  0.1764
 1979TIP3    H227573   5.183   6.641   1.860 -1.5904  0.6384  0.8177
 1980TIP3   OH227574   5.954   5.007   1.707  0.5156  0.7308 -0.5549
 1980TIP3    H127575   5.971   4.921   1.667 -0.1441  0.2265  0.2082
 1980TIP3    H227576   5.938   5.065   1.633  0.3726  0.0563 -1.0643
 1981TIP3   OH227577   0.387   1.272   0.843  0.2735  0.4179 -0.6367
 1981TIP3    H127578   0.395   1.335   0.771 -1.4549 -0.4559 -1.6573
 1981TIP3    H227579   0.339   1.319   0.911 -0.2030  0.5032 -1.0268
 1982TIP3   OH227580   5.649   0.835   3.361  0.4196 -0.0146  0.6723
 1982TIP3    H127581   5.573   0.785   3.333 -0.5110 -0.1707  3.2033
 1982TIP3    H227582   5.631   0.925   3.334  0.5694 -0.4345 -0.9592
 1983TIP3   OH227583   4.518   6.093   7.861  0.2084  0.4868 -0.1217
 1983TIP3    H127584   4.563   6.021   7.904 -0.3837  1.1725  1.7629
 1983TIP3    H227585   4.584   6.163   7.856  0.2023  0.4971 -0.0641
 1984TIP3   OH227586   5.603   5.342   1.136  0.7569 -0.0974 -0.1558
 1984TIP3    H127587   5.664   5.271   1.156  1.2376  0.0797 -0.9645
 1984TIP3    H227588   5.620   5.364   1.045  0.4749  0.9309  0.0212
 1985TIP3   OH227589   3.741   0.042   1.930 -0.1298  0.0346 -0.1516
 1985TIP3    H127590   3.675  -0.016   1.970 -0.5075 -0.1417 -1.0215
 1985TIP3    H227591   3.700   0.073   1.850  1.0116 -0.4171 -0.9288
 1986TIP3   OH227592   2.477   5.350   8.375  0.3082 -0.0371  0.4314
 1986TIP3    H127593   2.462   5.396   8.458 -1.1370 -0.8929  0.6821
 1986TIP3    H227594   2.440   5.263   8.389  0.3705 -0.3193 -0.9904
 1987TIP3   OH227595   6.007   2.980   2.532  0.6282  0.0582 -0.4278
 1987TIP3    H127596   5.966   3.044   2.590 -0.5671 -0.6216 -0.4908
 1987TIP3    H227597   5.954   2.982   2.452 -0.1826 -1.8241  0.0115
 1988TIP3   OH227598   1.278   2.118   3.033  0.6297 -0.0947 -0.1821
 1988TIP3    H127599   1.230   2.192   2.997 -0.0162 -1.3971 -2.1336
 1988TIP3    H227600   1.348   2.101   2.969  2.4529  0.4574  1.5675
 1989TIP3   OH227601   1.373   4.221   1.164 -0.4939  0.2282  0.4161
 1989TIP3    H127602   1.349   4.176   1.244  3.4284 -2.5029  0.3106
 1989TIP3    H227603   1.420   4.299   1.193  0.5437 -0.5330  0.8254
 1990TIP3   OH227604   0.962   2.053   2.051 -0.8803 -0.2048 -0.9109
 1990TIP3    H127605   1.030   2.110   2.013 -1.3018  1.9466  1.3093
 1990TIP3    H227606   1.001   1.966   2.051  3.0138  1.2448  2.3931
 1991TIP3   OH227607   4.995   2.099   8.365 -0.1306 -0.3264  0.2866
 1991TIP3    H127608   5.077   2.136   8.334 -0.2018  0.2287  0.7503
 1991TIP3    H227609   4.955   2.169   8.417 -1.6131 -0.0256 -1.1671
 1992TIP3   OH227610   5.351   4.917   2.414 -0.2475 -0.6196  0.3946
 1992TIP3    H127611   5.263   4.937   2.447 -0.2743 -0.7718  0.4142
 1992TIP3    H227612   5.387   5.003   2.392  0.5842 -0.2660  2.8014
 1993TIP3   OH227613   3.102   0.096   0.504  0.0481 -0.3179 -0.7274
 1993TIP3    H127614   3.030   0.064   0.449 -0.8094  0.0957  0.1275
 1993TIP3    H227615   3.063   0.105   0.591  0.8886  0.8214 -0.4543
 1994TIP3   OH227616   6.076   1.497   0.128  0.4422  0.0464 -0.3598
 1994TIP3    H127617   6.077   1.511   0.223  0.2084 -0.4539 -0.2845
 1994TIP3    H227618   5.985   1.474   0.109  1.0757 -2.7774 -0.2817
 1995TIP3   OH227619   3.500   1.611   0.949 -0.0731 -0.2031 -0.4195
 1995TIP3    H127620   3.493   1.535   1.007  0.1025  0.0740 -0.0346
 1995TIP3    H227621   3.474   1.578   0.863  2.6375 -1.4198 -0.8757
 1996TIP3   OH227622   3.399   5.590   7.624  0.2541 -0.1351  0.5434
 1996TIP3    H127623   3.382   5.629   7.710 -0.9938  0.6902 -0.0534
 1996TIP3    H227624   3.494   5.596   7.614  0.1815  2.4589  0.6648
 1997TIP3   OH227625   5.128   5.162   2.246  0.2570  0.1000 -0.2712
 1997TIP3    H127626   5.114   5.098   2.316  1.2811  1.4757  1.2523
 1997TIP3    H227627   5.041   5.198   2.229  0.1660  0.6835  1.2622
 1998TIP3   OH227628   1.730   6.438   0.999  0.8802 -0.1956  0.0350
 1998TIP3    H127629   1.689   6.446   0.913  0.6151 -1.2809  0.0439
 1998TIP3    H227630   1.659   6.456   1.061  0.9354  0.0108  0.0416
 1999TIP3   OH227631   1.250   5.160   8.139  0.2544  0.4376  0.5264
 1999TIP3    H127632   1.342   5.154   8.112  0.2972 -0.8921  0.8689
 1999TIP3    H227633   1.237   5.083   8.195 -0.8345  1.0971  1.2054
 2000TIP3   OH227634   4.798   0.653   0.778  0.5628 -0.4266  0.1482
 2000TIP3    H127635   4.754   0.686   0.700 -0.3675 -0.9205  0.4489
 2000TIP3    H227636   4.729   0.645   0.843  1.4525  0.6467  1.2575
 2001TIP3   OH227637   3.196   3.491   0.530 -0.1079  0.2459 -0.4746
 2001TIP3    H127638   3.258   3.528   0.467 -0.4304 -0.6678 -1.3690
 2001TIP3    H227639   3.242   3.494   0.614  0.9873 -0.0240 -1.0450
 2002TIP3   OH227640   6.218   5.852   8.396  0.2200 -0.3506  0.4925
 2002TIP3    H127641   6.200   5.763   8.368  2.4082 -0.3655 -1.0692
 2002TIP3    H227642   6.307   5.849   8.432  1.0230  1.4646 -1.1687
 2003TIP3   OH227643   1.952   2.740   2.684 -0.3927  0.6848 -0.1925
 2003TIP3    H127644   2.039   2.701   2.680  0.0298  1.6147 -0.1997
 2003TIP3    H227645   1.900   2.678   2.737  0.4357  0.4462  0.3518
 2004TIP3   OH227646   1.977   6.452   3.008 -0.5542  0.1605 -0.5884
 2004TIP3    H127647   1.960   6.537   3.047  1.3808  0.7579 -0.9428
 2004TIP3    H227648   1.981   6.391   3.082 -0.8162  0.5811 -0.2291
 2005TIP3   OH227649   0.796   2.425   2.599 -0.2634  0.0159  0.2725
 2005TIP3    H127650   0.811   2.422   2.505 -0.1815  1.5989  0.2129
 2005TIP3    H227651   0.714   2.376   2.611 -0.3925 -0.0114 -0.6359
 2006TIP3   OH227652   1.943   1.621   7.846 -0.5115  0.6088 -0.0043
 2006TIP3    H127653   1.951   1.649   7.755  0.4222 -1.3740 -0.5895
 2006TIP3    H227654   1.849   1.617   7.862 -0.7003  0.1588 -1.1545
 2007TIP3   OH227655   1.408   4.178   3.466 -0.0649  0.3847  0.6653
 2007TIP3    H127656   1.502   4.197   3.466  0.1971 -0.7654 -0.1616
 2007TIP3    H227657   1.403   4.085   3.488 -1.1040  0.7181  1.9263
 2008TIP3   OH227658   2.374   2.934   0.610  0.3361  0.0022 -0.0106
 2008TIP3    H127659   2.328   2.898   0.686  0.0444  0.5211  0.0685
 2008TIP3    H227660   2.426   2.862   0.576 -0.1889 -0.4708  0.1806
 2009TIP3   OH227661   2.429   6.328   0.441  0.1832  0.0626  0.1813
 2009TIP3    H127662   2.414   6.358   0.352  2.4301  0.6449 -0.0649
 2009TIP3    H227663   2.411   6.405   0.496 -1.5770 -0.3993  0.3359
 2010TIP3   OH227664   3.187   2.646   7.565 -0.1875 -0.5334  0.0198
 2010TIP3    H127665   3.121   2.601   7.618  0.3281 -0.5593  0.6551
 2010TIP3    H227666   3.248   2.577   7.539 -0.3088 -0.4798 -0.4177
 2011TIP3   OH227667   2.339   4.762   8.535  0.3720 -0.3069  0.1541
 2011TIP3    H127668   2.426   4.799   8.518  0.0450 -0.3681 -2.0451
 2011TIP3    H227669   2.278   4.820   8.489 -0.4722 -1.6243 -0.4858
 2012TIP3   OH227670   0.440   2.812   8.587  0.1494  0.1688  0.0759
 2012TIP3    H127671   0.384   2.755   8.535 -0.6174 -0.6141  1.6960
 2012TIP3    H227672   0.466   2.882   8.527  0.8036 -1.6497 -1.8563
 2013TIP3   OH227673   6.614   6.567   8.343 -0.0702 -0.0283  0.6330
 2013TIP3    H127674   6.595   6.653   8.382  1.2562  0.9195 -0.7150
 2013TIP3    H227675   6.533   6.518   8.354 -0.4614  0.9454  2.5683
 2014TIP3   OH227676   2.377   3.544   8.017 -0.4441  0.7544 -0.0595
 2014TIP3    H127677   2.385   3.548   7.922 -2.1914 -2.9414 -0.5204
 2014TIP3    H227678   2.306   3.605   8.037  0.2704  1.9496 -0.9968
 2015TIP3   OH227679   6.076   4.022   2.037  0.1348  0.0308  0.3594
 2015TIP3    H127680   6.143   4.084   2.009  1.9874 -1.9679  0.1601
 2015TIP3    H227681   6.102   3.997   2.125 -1.6619  0.8670  1.2010
 2016TIP3   OH227682   1.028   4.962   1.998 -0.2963  0.2957  1.1939
 2016TIP3    H127683   0.973   4.893   2.035 -1.0971  0.7948  0.9483
 2016TIP3    H227684   0.977   4.998   1.926  0.4986  0.5446  0.7361
 2017TIP3   OH227685   6.742   3.181   3.682 -0.3392 -0.7361 -0.9919
 2017TIP3    H127686   6.757   3.255   3.623 -1.6966 -0.2472 -0.7710
 2017TIP3    H227687   6.751   3.103   3.626  0.6118 -0.3945 -1.3329
 2018TIP3   OH227688   4.489   0.675   3.117 -0.1879 -0.7065  0.4238
 2018TIP3    H127689   4.473   0.620   3.194 -0.4683 -1.0386  0.1282
 2018TIP3    H227690   4.579   0.705   3.128 -0.6709  0.4467  1.6354
 2019TIP3   OH227691   3.396   1.552   0.697  0.5561 -0.2660  0.2411
 2019TIP3    H127692   3.318   1.514   0.656  1.9957 -1.2841 -1.7441
 2019TIP3    H227693   3.384   1.646   0.691 -0.0481 -0.4109 -1.0777
 2020TIP3   OH227694   2.166   0.720   0.203 -0.1958  0.5454  0.2888
 2020TIP3    H127695   2.142   0.647   0.261 -0.3350  0.9925  0.8060
 2020TIP3    H227696   2.095   0.725   0.140 -1.4932  1.8030  1.7538
 2021TIP3   OH227697   3.142   2.743   3.581  0.0468 -0.2739  0.2084
 2021TIP3    H127698   3.199   2.805   3.625  0.7555 -0.4940 -0.3864
 2021TIP3    H227699   3.200   2.693   3.523 -0.6540 -0.8714  0.0026
 2022TIP3   OH227700   3.243   2.688   1.422  0.0212 -0.0945 -0.0543
 2022TIP3    H127701   3.333   2.711   1.398 -0.5058  1.8456 -0.3420
 2022TIP3    H227702   3.218   2.620   1.359  0.0429  2.0365 -2.5688
 2023TIP3   OH227703   1.906   2.555   0.631 -0.5015 -0.4063 -0.5289
 2023TIP3    H127704   1.830   2.599   0.593  0.2826  1.0542 -0.4462
 2023TIP3    H227705   1.958   2.526   0.556  0.6223  1.7388 -0.6384
 2024TIP3   OH227706   3.980   5.266   7.655  0.0532  1.1660  0.3380
 2024TIP3    H127707   3.911   5.236   7.595  3.0965  0.1118 -3.0313
 2024TIP3    H227708   3.975   5.206   7.729 -0.3813 -1.2649 -1.5363
 2025TIP3   OH227709   5.110   4.852   7.745 -0.6946  0.1921 -0.1511
 2025TIP3    H127710   5.098   4.765   7.784  0.1470 -0.1805 -0.6733
 2025TIP3    H227711   5.038   4.861   7.683 -0.9586 -0.0135  0.1242
 2026TIP3   OH227712   2.192   4.900   0.878  0.5106  0.1228 -0.2083
 2026TIP3    H127713   2.132   4.847   0.931  0.0324  0.9304  0.0701
 2026TIP3    H227714   2.279   4.877   0.910  0.4011 -1.2635 -0.7944
 2027TIP3   OH227715   4.853   0.604   2.848 -0.8064  0.1986 -0.2237
 2027TIP3    H127716   4.834   0.516   2.879  0.0284  0.6721  1.7977
 2027TIP3    H227717   4.862   0.595   2.753  0.1177 -2.0587  0.0213
 2028TIP3   OH227718   4.087   6.506   0.885  0.2090 -0.4666 -0.0706
 2028TIP3    H127719   4.118   6.507   0.794  1.1835  0.4006  0.2417
 2028TIP3    H227720   4.033   6.428   0.891  2.2012 -2.0039 -0.7420
 2029TIP3   OH227721   3.591   1.153   2.692 -0.4988  0.0958  0.3035
 2029TIP3    H127722   3.604   1.245   2.669  1.7326 -0.6187 -1.5877
 2029TIP3    H227723   3.643   1.141   2.771 -0.3399  0.3167  0.2337
 2030TIP3   OH227724   1.647   2.851   2.851  1.1488 -0.5115  0.8270
 2030TIP3    H127725   1.568   2.868   2.799  0.3896  0.7841  2.3032
 2030TIP3    H227726   1.652   2.756   2.855 -1.1699 -0.6762  1.8221
 2031TIP3   OH227727   0.813   6.512   1.296  0.1837  0.1642 -0.5770
 2031TIP3    H127728   0.864   6.592   1.310  1.2435 -0.6584  0.6284
 2031TIP3    H227729   0.734   6.524   1.349  0.3750  0.4036 -0.3405
 2032TIP3   OH227730   6.246   0.408   2.868 -0.0759  0.5293  0.9799
 2032TIP3    H127731   6.314   0.412   2.936  0.2519  1.3466  0.6155
 2032TIP3    H227732   6.174   0.459   2.904 -0.7432 -0.8375  1.6217
 2033TIP3   OH227733   2.456   4.369   3.080 -0.3957  0.2075  0.1622
 2033TIP3    H127734   2.390   4.302   3.062  0.7160 -0.6395 -0.8943
 2033TIP3    H227735   2.538   4.321   3.089  0.3688  1.3926 -0.2559
 2034TIP3   OH227736   6.594   0.240   1.711 -0.2688  0.2874  0.2799
 2034TIP3    H127737   6.614   0.180   1.783 -0.7190 -0.8328 -0.5058
 2034TIP3    H227738   6.523   0.198   1.663  0.0338  1.0089 -0.8372
 2035TIP3   OH227739   2.708   1.600   0.686  0.1274 -0.1959 -0.7474
 2035TIP3    H127740   2.643   1.665   0.662 -0.9088 -1.7163 -2.3459
 2035TIP3    H227741   2.685   1.575   0.775 -0.7212  0.1738 -0.8528
 2036TIP3   OH227742   3.385   0.936   8.641  0.5896 -0.5296  0.4005
 2036TIP3    H127743   3.304   0.970   8.680 -0.0436  0.1560 -1.4053
 2036TIP3    H227744   3.455   0.988   8.681  0.0823 -0.5748  1.3817
 2037TIP3   OH227745   4.586   1.929   1.086 -0.1519 -0.0024  0.1580
 2037TIP3    H127746   4.522   1.874   1.131 -0.6967 -0.6681 -1.3678
 2037TIP3    H227747   4.571   2.017   1.121 -0.9060 -0.4064  0.8836
 2038TIP3   OH227748   0.800   4.468   2.545 -0.1223  0.5713 -0.0412
 2038TIP3    H127749   0.849   4.507   2.618 -0.6606  0.0439  0.6131
 2038TIP3    H227750   0.711   4.499   2.557 -0.7787 -1.5223  1.0400
 2039TIP3   OH227751   2.603   1.297   2.123 -0.0402  0.6813  0.0694
 2039TIP3    H127752   2.514   1.272   2.150 -0.5196  2.7345  0.5720
 2039TIP3    H227753   2.591   1.344   2.041  0.5357  1.2118  0.2812
 2040TIP3   OH227754   0.747   5.002   4.139  0.0255  0.3549  0.0427
 2040TIP3    H127755   0.757   5.003   4.044  2.0903  1.5072  0.2209
 2040TIP3    H227756   0.713   4.915   4.159 -0.1143 -0.0183 -1.7127
 2041TIP3   OH227757   0.150   0.234   0.816  0.5386  0.1696 -0.7250
 2041TIP3    H127758   0.154   0.145   0.782 -0.4702 -0.0738 -0.2195
 2041TIP3    H227759   0.066   0.240   0.861  0.6973  1.3006 -0.5349
 2042TIP3   OH227760   1.352   3.072   0.632 -0.2526 -0.8722  0.2849
 2042TIP3    H127761   1.439   3.037   0.653 -0.2428 -1.5192 -0.7597
 2042TIP3    H227762   1.356   3.091   0.538 -0.2135  2.1124  0.7811
 2043TIP3   OH227763   1.156   4.708   3.269 -0.7420 -0.9155  0.1418
 2043TIP3    H127764   1.225   4.699   3.334  2.1857 -0.2248 -2.6145
 2043TIP3    H227765   1.101   4.631   3.280  0.2191 -1.2988  2.7072
 2044TIP3   OH227766   3.407   6.001   3.630  0.2804 -0.3454  0.1597
 2044TIP3    H127767   3.475   6.010   3.563  0.6824 -1.3168  0.4255
 2044TIP3    H227768   3.441   5.936   3.690  0.1217  0.8436  1.5880
 2045TIP3   OH227769   5.922   6.047   1.946  0.3634 -0.1704  0.2352
 2045TIP3    H127770   5.843   6.002   1.976  0.0888  0.1745  0.0381
 2045TIP3    H227771   5.914   6.046   1.851  0.2667  0.4558  0.2375
 2046TIP3   OH227772   2.350   3.708   0.152  0.0301  0.6152 -0.5851
 2046TIP3    H127773   2.293   3.785   0.153  0.4423  0.9242 -0.4426
 2046TIP3    H227774   2.408   3.720   0.226 -1.3871 -0.9952  0.8912
 2047TIP3   OH227775   1.390   6.793   8.457  0.3720 -0.0333  0.3280
 2047TIP3    H127776   1.447   6.748   8.394 -1.5664 -0.5899 -1.0982
 2047TIP3    H227777   1.410   6.752   8.541  1.9314 -0.3309 -0.1492
 2048TIP3   OH227778   1.434   5.905   0.012 -0.0380 -0.3514  0.4902
 2048TIP3    H127779   1.355   5.901  -0.042 -0.8422 -1.2613  1.6694
 2048TIP3    H227780   1.401   5.915   0.101  1.2279  0.1316  0.9287
 2049TIP3   OH227781   4.946   5.791   8.491 -0.6717 -0.5781 -0.3092
 2049TIP3    H127782   4.872   5.851   8.483  0.1457  0.3655 -0.9686
 2049TIP3    H227783   4.922   5.733   8.563 -0.8001  1.5068  1.3947
 2050TIP3   OH227784   4.088   0.685   0.007  0.5115 -0.0026  0.0706
 2050TIP3    H127785   4.146   0.624   0.052  1.1625  0.7389  0.2566
 2050TIP3    H227786   4.038   0.630  -0.054 -1.3045 -1.2743  2.4892
 2051TIP3   OH227787   2.864   0.122   3.110 -0.7073  0.0075  0.0260
 2051TIP3    H127788   2.782   0.167   3.132 -0.3080  0.5715  0.3846
 2051TIP3    H227789   2.837   0.033   3.087 -1.4258  0.2042  0.0890
 2052TIP3   OH227790   6.140   0.502   1.325  0.4617 -0.0132 -0.3017
 2052TIP3    H127791   6.151   0.539   1.237  0.1935  0.7450 -0.0269
 2052TIP3    H227792   6.054   0.460   1.322  0.4634 -0.0108 -0.4151
 2053TIP3   OH227793   3.808   4.590   1.735 -0.3234  0.5589 -0.1305
 2053TIP3    H127794   3.827   4.523   1.801  0.6120  0.4000 -0.5441
 2053TIP3    H227795   3.817   4.673   1.782 -1.7404  0.4074  0.4480
 2054TIP3   OH227796   3.717   5.429   8.664  0.0441  0.0898 -0.3370
 2054TIP3    H127797   3.648   5.367   8.641  0.1422 -0.0158 -0.3466
 2054TIP3    H227798   3.792   5.374   8.687  0.0613  0.2013 -0.1272
 2055TIP3   OH227799   5.355   2.261   8.140 -0.9117 -0.0768 -0.2894
 2055TIP3    H127800   5.364   2.181   8.088  2.3420  0.9575 -1.5869
 2055TIP3    H227801   5.352   2.331   8.075  3.2085  1.2502  0.6305
 2056TIP3   OH227802   2.925   1.704   0.475 -0.4186 -0.2199  0.3104
 2056TIP3    H127803   2.901   1.612   0.462 -0.0755 -0.3769  0.7717
 2056TIP3    H227804   2.901   1.722   0.566 -0.7218  0.2234  0.1458
 2057TIP3   OH227805   1.464   6.682   2.625 -0.5647 -0.4581  0.7139
 2057TIP3    H127806   1.377   6.643   2.632  0.1111 -2.4156 -0.7947
 2057TIP3    H227807   1.523   6.607   2.613  0.8808  0.9449 -1.9999
 2058TIP3   OH227808   1.672   0.786   2.744  0.1528  0.0928  0.2928
 2058TIP3    H127809   1.684   0.738   2.826 -1.1005  1.2440  1.1989
 2058TIP3    H227810   1.638   0.871   2.771  1.8716  1.3792 -1.2650
 2059TIP3   OH227811   0.438   5.370   0.868 -0.2895 -0.0631  0.1799
 2059TIP3    H127812   0.504   5.352   0.801  0.4810 -0.7398  1.0720
 2059TIP3    H227813   0.363   5.403   0.820  0.7770  0.9716 -0.8590
 2060TIP3   OH227814   1.627   6.488   2.507 -0.1964  0.0739 -0.1963
 2060TIP3    H127815   1.598   6.527   2.425  1.8784 -1.4328 -1.7527
 2060TIP3    H227816   1.718   6.515   2.517 -0.4809  0.4735  1.8204
 2061TIP3   OH227817   4.288   1.277   2.807  0.0911  0.4888 -0.3838
 2061TIP3    H127818   4.250   1.192   2.830  0.4853  0.0914 -1.1642
 2061TIP3    H227819   4.220   1.321   2.756  0.8345 -0.4677 -2.3060
 2062TIP3   OH227820   6.773   6.106   8.103 -0.2812  0.3338 -0.2658
 2062TIP3    H127821   6.702   6.073   8.048 -1.0530  0.3983  0.6669
 2062TIP3    H227822   6.763   6.201   8.101 -0.4943  0.3221  0.2220
 2063TIP3   OH227823   0.326   1.289   1.498  0.3006  0.0476 -0.0310
 2063TIP3    H127824   0.324   1.364   1.438  0.3013  0.0553 -0.0214
 2063TIP3    H227825   0.418   1.262   1.500  0.4064  0.4154  0.4206
 2064TIP3   OH227826   6.507   4.823   1.983  0.3467  0.2880  0.0060
 2064TIP3    H127827   6.582   4.845   2.039 -0.8011 -1.7537  2.5783
 2064TIP3    H227828   6.521   4.731   1.961 -0.6933  0.2961 -0.7127
 2065TIP3   OH227829   1.545   3.426   1.603  0.2073 -0.0747  0.0544
 2065TIP3    H127830   1.516   3.516   1.622  0.0459 -0.1851  0.3242
 2065TIP3    H227831   1.531   3.378   1.684  0.0367 -0.4125 -0.1719
 2066TIP3   OH227832   0.061   1.848   2.071  0.5533 -0.2095 -0.3815
 2066TIP3    H127833  -0.000   1.871   2.140 -0.7886  1.1796 -1.9479
 2066TIP3    H227834   0.114   1.926   2.058  0.0318 -0.0310 -1.6372
 2067TIP3   OH227835   0.119   1.000   0.694  0.4402 -0.1297  0.2476
 2067TIP3    H127836   0.057   1.073   0.685 -1.2103 -1.7309 -4.9337
 2067TIP3    H227837   0.102   0.966   0.782 -1.6342  3.1786  1.3390
 2068TIP3   OH227838   2.147   0.649   2.152  0.2230  0.0618 -0.5025
 2068TIP3    H127839   2.083   0.686   2.092 -0.4124  0.1697  0.2261
 2068TIP3    H227840   2.176   0.568   2.109  0.5012  0.6168 -1.3919
 2069TIP3   OH227841   1.653   0.332   8.248  0.0687  0.3275 -0.1701
 2069TIP3    H127842   1.592   0.274   8.293  2.5532 -1.6890  0.8287
 2069TIP3    H227843   1.626   0.328   8.156 -2.3188  0.9181  0.4536
 2070TIP3   OH227844   5.381   0.538   2.444 -0.0852 -0.1061  0.0341
 2070TIP3    H127845   5.294   0.573   2.424 -0.2827  0.8555  2.2243
 2070TIP3    H227846   5.378   0.521   2.538  1.7507 -1.1204 -0.0447
 2071TIP3   OH227847   1.277   5.490   2.851 -0.2848 -0.3721 -0.4123
 2071TIP3    H127848   1.367   5.483   2.819 -0.5269  0.1498 -1.2302
 2071TIP3    H227849   1.227   5.524   2.777 -1.0518 -0.0965  0.2113
 2072TIP3   OH227850   5.444   5.714   7.888 -0.7856 -0.1459 -0.1794
 2072TIP3    H127851   5.429   5.636   7.835 -0.9266 -0.5898  0.5017
 2072TIP3    H227852   5.358   5.735   7.925 -0.6722  0.1058 -0.0538
 2073TIP3   OH227853   4.874   5.925   1.848 -0.0961 -0.3594 -0.5760
 2073TIP3    H127854   4.802   5.869   1.876  0.6114 -1.7530 -1.4439
 2073TIP3    H227855   4.947   5.865   1.833  0.9224  0.8869 -0.8167
 2074TIP3   OH227856   5.536   2.132   2.148  0.0435  0.9361 -0.3055
 2074TIP3    H127857   5.492   2.073   2.210  0.7476 -0.9515 -1.5142
 2074TIP3    H227858   5.520   2.220   2.183  0.2575 -0.0149  2.4426
 2075TIP3   OH227859   6.536   6.659   0.957 -0.0934  0.1063 -0.3108
 2075TIP3    H127860   6.479   6.734   0.975 -2.5354 -2.0735  1.9479
 2075TIP3    H227861   6.539   6.611   1.040  2.3223 -1.7168 -1.3259
 2076TIP3   OH227862   0.513   4.914   0.757  0.4479 -0.4367 -0.0702
 2076TIP3    H127863   0.483   4.916   0.666  0.4512  1.8812 -0.0909
 2076TIP3    H227864   0.439   4.950   0.806  1.3143  0.5454  0.5279
 2077TIP3   OH227865   2.420   6.693   1.747 -0.4562  0.0285 -0.2132
 2077TIP3    H127866   2.382   6.658   1.666 -0.2393 -0.5609 -0.0652
 2077TIP3    H227867   2.415   6.788   1.737 -1.0132 -0.0385 -0.6463
 2078TIP3   OH227868   2.426   6.729   8.142  0.4828 -0.2356  0.4396
 2078TIP3    H127869   2.499   6.756   8.199  0.8961 -0.3904 -0.0120
 2078TIP3    H227870   2.352   6.781   8.173  0.2891 -1.4533  2.1636
 2079TIP3   OH227871   3.825   0.518   1.249 -0.4321 -0.1859 -0.2419
 2079TIP3    H127872   3.823   0.519   1.345  0.1344  0.5394 -0.2224
 2079TIP3    H227873   3.758   0.455   1.224 -0.2105 -0.7881  0.6411
 2080TIP3   OH227874   1.120   6.500   3.173  0.0759  0.0698 -0.1451
 2080TIP3    H127875   1.112   6.405   3.179 -0.9466 -0.0088 -2.0062
 2080TIP3    H227876   1.212   6.516   3.152 -0.1166 -0.6634 -1.6714
 2081TIP3   OH227877   5.867   0.458   1.488 -0.6779 -0.0984  0.7675
 2081TIP3    H127878   5.872   0.537   1.542  0.9549 -0.4789  1.2172
 2081TIP3    H227879   5.938   0.402   1.519 -0.2690 -0.7288 -1.1468
 2082TIP3   OH227880   5.055   3.221   2.425 -0.5950 -0.1376  0.6976
 2082TIP3    H127881   4.992   3.274   2.375 -0.9396  0.5884  1.8695
 2082TIP3    H227882   5.092   3.281   2.489  1.7884 -0.3883 -0.3464
 2083TIP3   OH227883   0.815   5.133   1.411  0.7585  0.2474  0.2510
 2083TIP3    H127884   0.794   5.068   1.478  0.3780  1.5086  1.4033
 2083TIP3    H227885   0.737   5.137   1.357 -0.2260  1.5344  1.7027
 2084TIP3   OH227886   5.258   6.274   7.997 -0.0648 -0.0280 -0.1204
 2084TIP3    H127887   5.345   6.234   8.000  0.1941  0.3559 -1.5995
 2084TIP3    H227888   5.275   6.366   7.977 -0.7948  0.1799  0.1740
 2085TIP3   OH227889   3.608   2.656   2.592  0.0933  0.4957 -0.0718
 2085TIP3    H127890   3.623   2.749   2.607  1.6763  0.0268  1.6120
 2085TIP3    H227891   3.539   2.633   2.654  2.3943 -0.1713  2.4317
 2086TIP3   OH227892   4.214   1.110   1.452  0.0432 -0.2293  0.3908
 2086TIP3    H127893   4.264   1.047   1.400  0.8351  0.7194 -0.0519
 2086TIP3    H227894   4.158   1.154   1.388 -0.3238 -0.3155  0.6518
 2087TIP3   OH227895   2.766   3.576   8.337  0.7966  0.3735  0.2860
 2087TIP3    H127896   2.701   3.606   8.273 -0.5481 -0.1974  1.3477
 2087TIP3    H227897   2.758   3.481   8.337  1.0269  0.3467  1.0320
 2088TIP3   OH227898   5.575   0.139   2.222 -0.5881 -0.1144 -0.1962
 2088TIP3    H127899   5.532   0.168   2.302 -2.4616 -3.3160  0.1402
 2088TIP3    H227900   5.625   0.062   2.249  0.0399 -0.3073 -1.8255
 2089TIP3   OH227901   2.978   6.721   1.588  0.0859  0.3797 -0.1583
 2089TIP3    H127902   2.990   6.702   1.495  0.1968  0.4545 -0.1605
 2089TIP3    H227903   2.884   6.734   1.599  0.0802  0.4348 -0.2723
 2090TIP3   OH227904   0.304   5.285   2.679  0.4421 -0.2086 -0.7651
 2090TIP3    H127905   0.247   5.246   2.613 -1.8809  0.5357  0.7150
 2090TIP3    H227906   0.248   5.299   2.755  2.3157  1.6420  0.3834
 2091TIP3   OH227907   5.219   1.581   1.929 -0.2788 -0.7713 -0.1231
 2091TIP3    H127908   5.226   1.578   1.833  0.4952 -1.3297 -0.0617
 2091TIP3    H227909   5.150   1.517   1.950 -1.5790  0.4922 -0.3854
 2092TIP3   OH227910   6.106   3.874   1.220 -0.4589 -0.2672  0.3963
 2092TIP3    H127911   6.029   3.818   1.232 -1.2383  0.7917  0.5640
 2092TIP3    H227912   6.094   3.913   1.134  0.0239 -0.2818  0.3184
 2093TIP3   OH227913   2.830   2.705   3.201 -0.2482  0.6565 -0.0003
 2093TIP3    H127914   2.784   2.625   3.173  0.8870  0.5548 -1.7610
 2093TIP3    H227915   2.896   2.675   3.263 -1.2466  0.5450  1.0346
 2094TIP3   OH227916   5.567   4.606   2.056 -0.3513 -0.3745  0.1364
 2094TIP3    H127917   5.507   4.665   2.102 -0.7115 -0.1536 -0.6094
 2094TIP3    H227918   5.510   4.539   2.018 -0.0275 -0.7082  0.2352
 2095TIP3   OH227919   2.601   3.388   3.541  0.1209 -0.1518  0.5339
 2095TIP3    H127920   2.671   3.339   3.497 -1.1432 -1.7178  0.1583
 2095TIP3    H227921   2.627   3.479   3.534  1.1708 -0.5471 -1.3242
 2096TIP3   OH227922   6.203   2.441   7.881  0.3385 -0.1379  0.1302
 2096TIP3    H127923   6.136   2.505   7.904 -0.7724  0.0235 -3.1085
 2096TIP3    H227924   6.160   2.356   7.889  1.0270 -0.3827  1.8417
 2097TIP3   OH227925   6.223   0.908   2.299 -0.0760 -0.4515 -0.4100
 2097TIP3    H127926   6.242   0.919   2.393 -0.2154  0.9296 -0.5206
 2097TIP3    H227927   6.186   0.820   2.292 -0.6696 -0.3383  0.9420
 2098TIP3   OH227928   2.638   3.478   2.673 -0.2049  0.6517 -0.4464
 2098TIP3    H127929   2.673   3.535   2.604  0.3069 -1.0216 -1.6461
 2098TIP3    H227930   2.565   3.433   2.631 -0.9413  0.8036  0.6509
 2099TIP3   OH227931   0.439   2.814   1.828 -0.1906  0.2421  0.3262
 2099TIP3    H127932   0.465   2.758   1.902 -0.5963  0.3205  0.5300
 2099TIP3    H227933   0.344   2.812   1.829 -0.1990  0.2354 -0.2072
 2100TIP3   OH227934   1.653   6.111   1.130  0.0315 -0.3995 -0.3097
 2100TIP3    H127935   1.716   6.158   1.185  0.4899 -1.6153  0.2546
 2100TIP3    H227936   1.568   6.130   1.168 -0.1562  2.3502 -1.8672
 2101TIP3   OH227937   5.131   3.520   0.227 -0.0029  0.4681  0.2018
 2101TIP3    H127938   5.069   3.579   0.185  0.3433  2.1392  1.9180
 2101TIP3    H227939   5.217   3.551   0.199  0.1725 -1.5737 -1.8251
 2102TIP3   OH227940   1.224   2.029   2.291  0.1160  0.2780 -0.1884
 2102TIP3    H127941   1.311   2.003   2.261  0.2620  0.4870  0.0457
 2102TIP3    H227942   1.211   2.116   2.253  0.3084  0.5494  0.3664
 2103TIP3   OH227943   5.766   5.704   0.907 -0.1843 -0.3979 -0.4989
 2103TIP3    H127944   5.683   5.675   0.870 -0.8411  0.7132  0.0444
 2103TIP3    H227945   5.770   5.662   0.993  0.9093 -2.2482 -1.4022
 2104TIP3   OH227946   2.970   5.880   7.695 -0.0104 -0.3098 -0.0514
 2104TIP3    H127947   3.052   5.835   7.714  0.5091  0.2692 -0.8437
 2104TIP3    H227948   2.997   5.962   7.652 -0.9982 -0.1303 -0.3525
 2105TIP3   OH227949   0.950   2.300   1.731 -0.3924  0.4392 -0.1181
 2105TIP3    H127950   0.974   2.377   1.679  1.6844 -1.2928 -1.9298
 2105TIP3    H227951   0.988   2.226   1.683 -2.0249 -1.7092  1.7020
 2106TIP3   OH227952   3.469   2.956   3.234 -0.2329  0.2262 -0.0383
 2106TIP3    H127953   3.515   2.885   3.190 -1.4304 -0.4745 -0.2139
 2106TIP3    H227954   3.534   3.026   3.242  0.6958 -0.5322 -0.7198
 2107TIP3   OH227955   5.293   5.972   7.817 -0.1476  0.2192 -0.2226
 2107TIP3    H127956   5.307   6.008   7.905 -0.4113  0.7752 -0.4039
 2107TIP3    H227957   5.347   6.027   7.760  0.8390 -0.7954 -0.2841
 2108TIP3   OH227958   1.190   5.562   7.996  0.1751  0.3227 -0.6936
 2108TIP3    H127959   1.211   5.477   7.957 -1.3540 -0.8963  0.9693
 2108TIP3    H227960   1.275   5.604   8.010  1.1559 -1.8882  0.4516
 2109TIP3   OH227961   3.367   5.036   0.313  0.6670 -0.1537 -0.1925
 2109TIP3    H127962   3.290   5.040   0.257 -0.1779  2.6329  0.9747
 2109TIP3    H227963   3.355   4.958   0.367 -0.8076 -0.3261 -0.7378
 2110TIP3   OH227964   6.871   6.236   1.725  0.0660 -0.3090  0.0827
 2110TIP3    H127965   6.889   6.150   1.688 -0.4524 -0.5089  0.2890
 2110TIP3    H227966   6.776   6.238   1.736  0.1056  0.1719  0.3644
 2111TIP3   OH227967   0.476   6.494   8.580  0.6464  0.3164  0.2571
 2111TIP3    H127968   0.402   6.547   8.609  0.6386  0.5840 -0.2448
 2111TIP3    H227969   0.537   6.496   8.654 -0.5691 -1.3478  1.3656
 2112TIP3   OH227970   6.383   0.069   2.637  0.8030 -0.3142  0.5668
 2112TIP3    H127971   6.323   0.140   2.614  0.3102 -0.7023  0.6372
 2112TIP3    H227972   6.470   0.104   2.620  0.4947 -0.3361 -1.2398
 2113TIP3   OH227973   4.184   1.972   3.448  0.5360 -0.1928 -0.5300
 2113TIP3    H127974   4.234   2.053   3.460  1.4000 -0.5569 -1.4538
 2113TIP3    H227975   4.093   2.000   3.446  0.6951  0.5365  0.8676
 2114TIP3   OH227976   3.177   5.680   1.030  0.8520  0.1903 -0.3865
 2114TIP3    H127977   3.264   5.646   1.008  0.8207 -0.8289  0.9383
 2114TIP3    H227978   3.163   5.752   0.968  3.4248  1.6527  0.5592
 2115TIP3   OH227979   3.300   6.025   0.428 -0.2455  0.3258  0.0549
 2115TIP3    H127980   3.267   6.114   0.417  1.0394  0.9002  0.6592
 2115TIP3    H227981   3.282   6.004   0.520  0.5103  0.4146  0.2259
 2116TIP3   OH227982   0.850   0.569   0.474 -0.5076  0.4844 -0.1560
 2116TIP3    H127983   0.778   0.539   0.529 -0.4607  2.0370  0.8058
 2116TIP3    H227984   0.907   0.492   0.465 -0.6876  0.0801  1.6970
 2117TIP3   OH227985   0.723   0.328   0.642 -0.2732 -0.0828 -0.0551
 2117TIP3    H127986   0.691   0.418   0.647 -2.0164 -0.6661 -0.1230
 2117TIP3    H227987   0.661   0.277   0.694 -0.1432 -1.4552 -1.1815
 2118TIP3   OH227988   6.659   2.794   2.376  0.1125  0.1118  0.3146
 2118TIP3    H127989   6.715   2.717   2.386 -0.0879 -0.1175 -0.2676
 2118TIP3    H227990   6.578   2.772   2.421  0.7668  0.7542  1.8546
 2119TIP3   OH227991   5.096   4.116   2.391 -0.2172  0.2338  0.1513
 2119TIP3    H127992   5.032   4.103   2.321  0.5487  1.5964 -0.8622
 2119TIP3    H227993   5.160   4.177   2.354  0.3221  0.8534  1.9818
 2120TIP3   OH227994   4.917   6.568   0.209  0.4584  0.0990  0.6020
 2120TIP3    H127995   4.899   6.660   0.192 -0.1300  0.1208  1.3221
 2120TIP3    H227996   4.893   6.524   0.127  4.3365  0.9545 -1.2203
 2121TIP3   OH227997   4.463   3.550   2.554  0.1119  0.7867  0.1640
 2121TIP3    H127998   4.409   3.627   2.536  0.2929  0.8735 -0.0060
 2121TIP3    H227999   4.543   3.564   2.504  0.2642  0.6223  0.3568
 2122TIP3   OH228000   1.000   1.587   1.343  0.0872 -0.0557  0.6446
 2122TIP3    H128001   1.031   1.608   1.255 -0.9320 -0.8850  0.0614
 2122TIP3    H228002   0.908   1.566   1.331  0.2179 -1.3725  1.7197
 2123TIP3   OH228003   0.050   5.685   1.452 -0.0935 -0.1904  0.1575
 2123TIP3    H128004  -0.026   5.694   1.510 -0.1848 -1.0331  0.1854
 2123TIP3    H228005   0.012   5.660   1.368  0.1026  0.1722 -0.0412
 2124TIP3   OH228006   1.819   6.469   8.366 -0.6349  0.2511 -0.1173
 2124TIP3    H128007   1.872   6.487   8.288 -0.3856  1.7383  0.3595
 2124TIP3    H228008   1.729   6.471   8.334 -0.5579  1.2751 -0.3246
 2125TIP3   OH228009   0.160   3.569   8.055 -0.0550 -0.1683  0.1334
 2125TIP3    H128010   0.196   3.657   8.066 -1.5921  0.8675 -2.2685
 2125TIP3    H228011   0.072   3.584   8.021 -0.1207 -2.6347 -0.9695
 2126TIP3   OH228012   2.559   2.128   0.271  0.9314  1.2380  0.3554
 2126TIP3    H128013   2.637   2.073   0.259 -1.0794 -1.2708 -2.8868
 2126TIP3    H228014   2.571   2.201   0.210  0.9552  1.1440  0.2485
 2127TIP3   OH228015   5.347   0.970   0.048 -0.3580 -0.8863  0.4765
 2127TIP3    H128016   5.310   0.928  -0.030  0.0384  0.8651 -0.7065
 2127TIP3    H228017   5.418   1.025   0.015 -3.0259  3.5582  1.2965
 2128TIP3   OH228018   6.192   1.016   2.048  0.3132 -0.5074 -0.6006
 2128TIP3    H128019   6.195   0.973   2.134 -0.1280  0.3385 -0.1475
 2128TIP3    H228020   6.275   1.063   2.042 -0.0734  0.2439 -0.1930
 2129TIP3   OH228021   0.692   3.544   0.751 -0.3060  0.3969  0.0172
 2129TIP3    H128022   0.648   3.622   0.787 -0.1470  0.1648  0.7300
 2129TIP3    H228023   0.644   3.525   0.670 -1.4537  0.2234  0.7097
 2130TIP3   OH228024   4.715   5.524   3.012  0.4571 -0.1074 -0.1806
 2130TIP3    H128025   4.744   5.611   3.041  1.3822 -0.6493  0.5776
 2130TIP3    H228026   4.783   5.465   3.044  0.3116 -1.0137 -1.4634
 2131TIP3   OH228027   0.185   5.894   1.317 -0.4499  0.1822  0.2382
 2131TIP3    H128028   0.262   5.851   1.279 -0.9472 -0.1334 -0.4371
 2131TIP3    H228029   0.136   5.823   1.358 -0.4162  0.3733  0.6142
 2132TIP3   OH228030   0.330   5.095   2.955 -0.0672 -0.1617  0.2318
 2132TIP3    H128031   0.418   5.114   2.921  0.6002 -2.3302  0.6382
 2132TIP3    H228032   0.284   5.179   2.949  2.2544  1.2362  0.7444
 2133TIP3   OH228033   0.176   4.505   1.087  0.2052 -0.7547 -0.5201
 2133TIP3    H128034   0.246   4.534   1.145 -0.5439 -2.3416  1.2708
 2133TIP3    H228035   0.206   4.422   1.052 -0.2305 -0.8064 -0.7770
 2134TIP3   OH228036   1.790   6.793   8.074 -0.7059 -0.6000 -0.0160
 2134TIP3    H128037   1.787   6.887   8.057  1.1703 -0.5222 -0.0553
 2134TIP3    H228038   1.744   6.754   8.000 -1.2906  0.2557 -0.1205
 2135TIP3   OH228039   4.655   0.110   8.507 -0.3689  0.3893  0.6365
 2135TIP3    H128040   4.735   0.070   8.474  0.4366  0.1947  2.6364
 2135TIP3    H228041   4.597   0.037   8.525 -0.4909  0.4331  0.4219
 2136TIP3   OH228042   1.597   2.523   1.155 -0.4770 -0.4698  0.1281
 2136TIP3    H128043   1.690   2.514   1.176 -0.4899  0.0037  0.4013
 2136TIP3    H228044   1.579   2.616   1.166 -1.0367 -0.5934  0.3033
 2137TIP3   OH228045   4.553   2.333   0.839 -0.0768  0.1124  0.5403
 2137TIP3    H128046   4.571   2.364   0.751 -0.1604 -1.2428  0.0215
 2137TIP3    H228047   4.503   2.404   0.880 -1.8958 -0.0632 -1.2008
 2138TIP3   OH228048   5.793   5.333   7.637  0.3336  0.1073  0.2269
 2138TIP3    H128049   5.769   5.424   7.621 -0.5066 -0.2475 -0.6245
 2138TIP3    H228050   5.874   5.320   7.586 -0.0340  0.1409 -0.3756
 2139TIP3   OH228051   3.997   1.285   8.325 -0.3367  0.6012 -1.0640
 2139TIP3    H128052   3.908   1.301   8.294 -0.1441  0.7192 -1.5647
 2139TIP3    H228053   4.001   1.190   8.335 -1.0557  0.7122  0.6263
 2140TIP3   OH228054   5.341   1.871   7.396 -0.2338 -0.4559 -0.2962
 2140TIP3    H128055   5.395   1.793   7.407 -0.1931 -0.4135 -0.1874
 2140TIP3    H228056   5.265   1.841   7.347 -0.6909 -0.7847  0.5862
 2141TIP3   OH228057   2.092   6.845   0.627  0.7789  0.6741  0.2675
 2141TIP3    H128058   2.035   6.802   0.564  1.3084 -1.2824  1.0632
 2141TIP3    H228059   2.177   6.850   0.582  1.1324 -0.6358  0.7566
 2142TIP3   OH228060   6.599   1.424   1.084 -0.6467  0.2198 -0.7364
 2142TIP3    H128061   6.680   1.453   1.041  0.5582 -1.3760  0.3268
 2142TIP3    H228062   6.535   1.420   1.013  0.9221 -1.0100 -2.1852
 2143TIP3   OH228063   2.704   1.451   0.941  0.0930 -0.2842 -0.4106
 2143TIP3    H128064   2.705   1.520   1.007 -1.5978  1.2085 -1.8541
 2143TIP3    H228065   2.794   1.418   0.939  0.1764 -0.4997  2.6696
 2144TIP3   OH228066   2.184   1.738   1.209  0.3146  0.2636  0.5864
 2144TIP3    H128067   2.133   1.788   1.272  0.3166 -2.3073  2.8082
 2144TIP3    H228068   2.121   1.674   1.173  0.4745  1.2549 -1.6354
 2145TIP3   OH228069   0.366   6.723   1.193 -0.4001 -0.4236  0.0230
 2145TIP3    H128070   0.422   6.649   1.172 -1.9024 -1.3584 -0.8487
 2145TIP3    H228071   0.372   6.732   1.288  1.1745 -0.5170 -0.0487
 2146TIP3   OH228072   6.209   2.756   1.777  0.3808 -0.0545 -0.6362
 2146TIP3    H128073   6.198   2.846   1.806  2.1041 -0.3862  1.2281
 2146TIP3    H228074   6.124   2.733   1.738 -0.5349  1.8983  0.0819
 2147TIP3   OH228075   3.812   4.023   0.229  0.1646  0.5199 -0.3963
 2147TIP3    H128076   3.893   4.049   0.272  0.2026  1.9431 -1.2291
 2147TIP3    H228077   3.811   4.075   0.148 -1.5797  0.5547 -0.3932
 2148TIP3   OH228078   3.781   4.375   8.439 -0.0184 -0.0176  0.3445
 2148TIP3    H128079   3.805   4.392   8.348 -0.9752 -0.2353  0.0363
 2148TIP3    H228080   3.730   4.294   8.436  0.7394 -0.5350  1.2050
 2149TIP3   OH228081   2.876   1.882   1.577  0.1767 -0.2417 -0.0287
 2149TIP3    H128082   2.872   1.925   1.662 -0.7462 -2.4253  1.1084
 2149TIP3    H228083   2.839   1.795   1.592 -1.1677 -0.2935 -2.9346
 2150TIP3   OH228084   4.108   3.578   2.071  0.5908  0.4354  0.3689
 2150TIP3    H128085   4.036   3.546   2.017  2.1295 -0.4587 -1.2558
 2150TIP3    H228086   4.099   3.530   2.153 -0.3203 -0.0836 -0.0190
 2151TIP3   OH228087   0.882   3.713   8.624 -0.1562  0.6504  0.4951
 2151TIP3    H128088   0.858   3.691   8.534 -1.4000  0.3742  0.8712
 2151TIP3    H228089   0.844   3.643   8.676 -0.0482  1.1805  1.2971
 2152TIP3   OH228090   6.250   4.343   2.743  0.6613 -0.4682  0.2839
 2152TIP3    H128091   6.269   4.270   2.802  0.5163 -1.3590 -0.7448
 2152TIP3    H228092   6.328   4.398   2.747 -0.0112  0.4360  2.6211
 2153TIP3   OH228093   4.952   3.570   1.469  0.0629  0.6311  0.2770
 2153TIP3    H128094   4.865   3.529   1.467 -0.9229  2.6275 -0.1766
 2153TIP3    H228095   4.990   3.541   1.552 -1.1505 -0.0460  0.6208
 2154TIP3   OH228096   4.627   5.666   7.962 -0.2477  0.1586 -0.3032
 2154TIP3    H128097   4.644   5.760   7.969  1.1634 -0.0782 -0.3832
 2154TIP3    H228098   4.626   5.649   7.868  0.1629 -0.0167 -0.2774
 2155TIP3   OH228099   6.303   3.107   0.759 -0.1742 -0.1047  0.3248
 2155TIP3    H128100   6.297   3.202   0.744  0.3677 -0.2332 -0.7749
 2155TIP3    H228101   6.280   3.068   0.675 -0.7211 -0.9626  0.8701
 2156TIP3   OH228102   4.332   6.474   0.084  0.0593  0.7039 -0.6323
 2156TIP3    H128103   4.308   6.567   0.089 -2.4195  0.0531  1.7389
 2156TIP3    H228104   4.323   6.442   0.174 -0.1754 -2.0825 -1.5511
 2157TIP3   OH228105   3.219   4.576   3.194 -0.5599  0.4330 -0.2958
 2157TIP3    H128106   3.184   4.500   3.241  0.2528  0.7368  0.8589
 2157TIP3    H228107   3.144   4.631   3.176 -0.9435  0.1095  0.2971
 2158TIP3   OH228108   5.249   0.371   8.284  0.3422  0.6001 -0.0795
 2158TIP3    H128109   5.263   0.392   8.376 -0.3770  0.3363  0.0958
 2158TIP3    H228110   5.241   0.276   8.282  0.7261  0.5735 -0.4694
 2159TIP3   OH228111   0.341   2.545   2.534  0.0707  0.0637 -0.1078
 2159TIP3    H128112   0.286   2.544   2.455 -0.2365 -1.1546  0.1025
 2159TIP3    H228113   0.299   2.610   2.591  1.4322  2.5105 -1.6726
 2160TIP3   OH228114   2.971   0.692   8.414 -0.6990  0.0786 -0.1148
 2160TIP3    H128115   2.959   0.781   8.446 -1.6846 -0.5109  1.2477
 2160TIP3    H228116   3.052   0.662   8.455 -0.7408  0.1075 -0.0119
 2161TIP3   OH228117   3.267   0.314   0.618 -0.1229  0.2150  0.3934
 2161TIP3    H128118   3.260   0.383   0.683 -0.3559  0.6189 -0.0501
 2161TIP3    H228119   3.187   0.262   0.628 -0.1255  0.2354  0.4749
 2162TIP3   OH228120   2.040   3.304   3.071  0.0425 -0.0950  0.6661
 2162TIP3    H128121   1.951   3.306   3.038  0.1548 -2.9192 -0.0562
 2162TIP3    H228122   2.032   3.273   3.161  0.2017  1.8049  1.3922
 2163TIP3   OH228123   6.640   0.666   8.044 -0.2881 -0.1603  0.0236
 2163TIP3    H128124   6.704   0.685   7.976 -1.7229  1.3051 -0.9913
 2163TIP3    H228125   6.667   0.719   8.119 -0.1452  0.1964 -0.2830
 2164TIP3   OH228126   2.012   5.550   0.240 -0.2669  0.3918  0.1003
 2164TIP3    H128127   1.991   5.487   0.171  0.7839 -0.2935  0.3840
 2164TIP3    H228128   1.928   5.588   0.265 -0.7664 -0.0259 -0.9075
 2165TIP3   OH228129   2.726   0.586   8.381 -0.1474  0.1219  0.2876
 2165TIP3    H128130   2.716   0.605   8.288 -0.1880 -1.5133 -0.0688
 2165TIP3    H228131   2.811   0.623   8.404  0.2550 -0.2127 -0.6161
 2166TIP3   OH228132   3.042   6.452   1.790 -0.5314 -0.4715  0.7427
 2166TIP3    H128133   3.065   6.542   1.812 -3.8367  0.2243  1.9063
 2166TIP3    H228134   3.109   6.399   1.831  1.4609  1.3977  0.0929
 2167TIP3   OH228135   0.886   1.445   2.283 -0.0411  0.1315 -0.2315
 2167TIP3    H128136   0.826   1.416   2.352  0.1431 -0.5214 -0.3374
 2167TIP3    H228137   0.900   1.538   2.300  0.2696 -0.1007  0.8179
 2168TIP3   OH228138   5.007   3.144   1.367  0.0677  0.3289 -0.6593
 2168TIP3    H128139   5.078   3.206   1.378  0.2200  0.5685 -2.6240
 2168TIP3    H228140   4.968   3.167   1.283  0.2326 -2.3229 -1.5497
 2169TIP3   OH228141   2.059   4.713   8.131  0.2925 -0.5975 -0.0256
 2169TIP3    H128142   2.075   4.779   8.199 -0.7011 -0.6198  0.2523
 2169TIP3    H228143   2.044   4.764   8.051 -2.3875 -0.3303  0.5659
 2170TIP3   OH228144   5.796   0.173   0.440  0.4344 -0.3857  0.3663
 2170TIP3    H128145   5.762   0.086   0.458 -0.4246 -0.2346 -0.4296
 2170TIP3    H228146   5.761   0.195   0.354  0.4385  0.8481  0.6629
 2171TIP3   OH228147   3.893   0.926   0.796  0.3506 -0.5294 -0.2771
 2171TIP3    H128148   3.841   1.005   0.813  0.6558 -0.2160 -0.7854
 2171TIP3    H228149   3.830   0.864   0.758 -0.0501 -0.7915  0.7625
 2172TIP3   OH228150   6.009   3.201   1.745 -0.0609 -0.2187 -0.1902
 2172TIP3    H128151   6.067   3.207   1.669 -2.0237 -0.7644 -1.8248
 2172TIP3    H228152   6.021   3.284   1.790  0.9082  0.2869 -1.3234
 2173TIP3   OH228153   1.560   6.523   8.300 -0.2097 -0.2369  0.3127
 2173TIP3    H128154   1.492   6.585   8.274  0.7847  0.3468 -0.9843
 2173TIP3    H228155   1.573   6.468   8.223 -0.8187 -1.8707  1.3200
 2174TIP3   OH228156   4.271   3.408   0.492  0.0829  0.0830 -0.0512
 2174TIP3    H128157   4.308   3.486   0.452 -0.7108  0.7898  0.5508
 2174TIP3    H228158   4.178   3.429   0.504 -0.0317 -0.7429  0.6193
 2175TIP3   OH228159   6.840   3.771   8.548 -0.6215 -0.3400 -0.1802
 2175TIP3    H128160   6.825   3.691   8.598 -0.8215 -1.2019 -1.5621
 2175TIP3    H228161   6.936   3.779   8.543 -0.5976 -0.7577 -0.4262
 2176TIP3   OH228162   5.523   2.935   1.580  0.1952 -0.3864 -0.1870
 2176TIP3    H128163   5.478   2.902   1.503 -0.4301 -0.4867  0.2166
 2176TIP3    H228164   5.520   3.030   1.571  0.5242 -0.4022 -0.5079
 2177TIP3   OH228165   3.283   5.965   2.747  0.5327 -0.1938  0.2355
 2177TIP3    H128166   3.307   6.025   2.677 -1.7516  0.6930  0.1129
 2177TIP3    H228167   3.223   6.015   2.803  0.6456 -1.5377  1.6441
 2178TIP3   OH228168   2.969   5.535   0.848 -0.1083 -0.0307 -0.2550
 2178TIP3    H128169   2.989   5.627   0.829 -0.7427  0.2945  0.5936
 2178TIP3    H228170   2.996   5.488   0.768  0.5503  0.8352 -0.5658
 2179TIP3   OH228171   2.859   4.314   0.424 -0.1570 -0.2496  0.0197
 2179TIP3    H128172   2.858   4.409   0.431  1.5441 -0.2151  0.1796
 2179TIP3    H228173   2.891   4.283   0.509  0.4952 -0.8882 -0.4461
 2180TIP3   OH228174   3.385   6.681   0.501  0.7643 -0.3322 -0.3469
 2180TIP3    H128175   3.321   6.681   0.429 -0.2579  1.9024  0.4626
 2180TIP3    H228176   3.442   6.755   0.482 -1.0848  2.0019  2.3073
 2181TIP3   OH228177   6.624   5.525   1.411 -0.3716  0.0703  0.4819
 2181TIP3    H128178   6.572   5.578   1.473 -1.8861  0.0187 -0.6904
 2181TIP3    H228179   6.570   5.520   1.333  1.9397  1.0336 -1.2978
 2182TIP3   OH228180   2.201   2.223   0.672  0.0418  0.1549 -0.3445
 2182TIP3    H128181   2.225   2.148   0.726 -0.5314  0.2888  0.1046
 2182TIP3    H228182   2.250   2.210   0.590  1.5598  0.3640  0.4872
 2183TIP3   OH228183   5.433   3.709   0.543 -0.2603 -0.1137 -0.2658
 2183TIP3    H128184   5.425   3.622   0.504  0.0472 -0.8505  1.2109
 2183TIP3    H228185   5.505   3.699   0.606 -0.7501  0.9931  0.4880
 2184TIP3   OH228186   1.557   2.349   2.123 -0.6320  0.1158 -0.2046
 2184TIP3    H128187   1.483   2.360   2.182  0.0378 -2.1348  1.1853
 2184TIP3    H228188   1.632   2.339   2.182  0.2288 -1.1265 -1.4601
 2185TIP3   OH228189   3.581   2.292   3.526  0.4388 -0.4391 -0.2633
 2185TIP3    H128190   3.523   2.317   3.454  0.3223 -2.0909 -0.8010
 2185TIP3    H228191   3.647   2.235   3.485  1.1017 -0.4206  0.7289
 2186TIP3   OH228192   5.543   3.868   0.319  0.4629 -0.3289  0.0514
 2186TIP3    H128193   5.477   3.813   0.362  0.5080  0.3712  1.0459
 2186TIP3    H228194   5.609   3.806   0.289 -0.4407 -1.0080 -0.6055
 2187TIP3   OH228195   0.084   5.604   8.379 -0.0332 -0.1295  0.0964
 2187TIP3    H128196   0.073   5.520   8.422 -0.3324 -0.8659 -1.3591
 2187TIP3    H228197   0.179   5.616   8.373  0.0140 -0.6488 -0.2222
 2188TIP3   OH228198   3.249   6.463   2.364 -0.1968  0.0023 -0.0659
 2188TIP3    H128199   3.193   6.499   2.295 -1.3905  0.6529  1.1960
 2188TIP3    H228200   3.295   6.539   2.400 -0.1314 -0.2180  0.3233
 2189TIP3   OH228201   1.844   4.568   3.363 -0.4292  0.1466 -0.2903
 2189TIP3    H128202   1.804   4.655   3.366 -0.5925  0.0781 -0.4174
 2189TIP3    H228203   1.866   4.547   3.454 -0.1575  0.4276 -0.2905
 2190TIP3   OH228204   5.824   1.320   0.697  0.3898 -0.3441 -0.0628
 2190TIP3    H128205   5.834   1.383   0.768 -1.5934  0.0286 -0.0555
 2190TIP3    H228206   5.896   1.258   0.709  1.4220  0.9853  0.8930
 2191TIP3   OH228207   2.014   6.547   8.590 -0.2638 -0.0349 -0.2097
 2191TIP3    H128208   1.954   6.599   8.644  0.8208  0.7206  0.3151
 2191TIP3    H228209   1.959   6.481   8.549 -1.3633  0.3159  0.6557
 2192TIP3   OH228210   2.213   1.733   8.635 -0.5555  0.7315 -0.0274
 2192TIP3    H128211   2.276   1.797   8.667 -0.5701  0.6157  0.2359
 2192TIP3    H228212   2.214   1.663   8.701 -0.4324  0.3920 -0.3873
 2193TIP3   OH228213   3.497   2.517   0.590  0.3233  0.2523 -0.2888
 2193TIP3    H128214   3.431   2.459   0.628  1.9378 -1.0328  0.6936
 2193TIP3    H228215   3.538   2.466   0.521  1.3454  0.4385  0.1598
 2194TIP3   OH228216   0.405   4.289   8.378 -0.2156  0.0485  0.2390
 2194TIP3    H128217   0.373   4.265   8.465 -0.2193  0.6517  0.4109
 2194TIP3    H228218   0.495   4.319   8.393  0.1908 -0.9588 -0.1389
 2195TIP3   OH228219   3.459   3.109   0.838  0.6315 -0.2604  0.5604
 2195TIP3    H128220   3.364   3.118   0.827  0.6219  1.8946  1.8167
 2195TIP3    H228221   3.474   3.015   0.837 -1.4579 -0.6458 -0.1200
 2196TIP3   OH228222   5.937   1.607   7.587 -0.0161  0.4156 -0.0677
 2196TIP3    H128223   5.908   1.622   7.497 -0.9519  0.0164  0.1481
 2196TIP3    H228224   5.867   1.644   7.641  0.7881  1.1352  0.5118
 2197TIP3   OH228225   4.040   2.723   2.115  0.5167  0.3637  0.1070
 2197TIP3    H128226   3.951   2.693   2.096  0.2151  1.1709  0.2085
 2197TIP3    H228227   4.039   2.740   2.210  1.1512 -0.8100  0.3503
 2198TIP3   OH228228   1.876   1.198   8.191 -0.4624 -0.0825  0.1860
 2198TIP3    H128229   1.937   1.167   8.124  0.3210  0.1997  0.7632
 2198TIP3    H228230   1.898   1.290   8.202  0.0375 -0.3348  1.4830
 2199TIP3   OH228231   6.247   6.244   8.210 -0.2889 -0.4283  0.1803
 2199TIP3    H128232   6.277   6.225   8.299 -0.1773 -0.2981  0.1702
 2199TIP3    H228233   6.319   6.218   8.154 -1.1025 -2.4551 -0.0413
 2200TIP3   OH228234   6.243   1.301   2.806  0.3040 -0.1507  0.1805
 2200TIP3    H128235   6.153   1.318   2.831 -0.1875 -2.2746  0.0479
 2200TIP3    H228236   6.288   1.281   2.888  0.2872 -0.5888  0.0841
 2201TIP3   OH228237   4.794   1.506   8.265 -0.0287 -0.6862  0.5064
 2201TIP3    H128238   4.841   1.541   8.340 -0.8335 -0.0818  0.7437
 2201TIP3    H228239   4.811   1.411   8.267  0.1180 -0.6418  1.3261
 2202TIP3   OH228240   1.658   5.497   0.286 -0.7081 -0.3123  0.0415
 2202TIP3    H128241   1.592   5.563   0.309 -0.0327  0.2760  0.3471
 2202TIP3    H228242   1.653   5.491   0.191 -2.3159 -1.4751  0.1460
 2203TIP3   OH228243   2.127   4.588   0.664 -0.4205  0.3148 -0.3642
 2203TIP3    H128244   2.222   4.596   0.653 -0.5537  0.0367 -1.9211
 2203TIP3    H228245   2.093   4.675   0.640 -0.6197  0.1133 -0.8369
 2204TIP3   OH228246   6.521   1.012   0.299 -0.4441 -0.0608 -0.0406
 2204TIP3    H128247   6.439   1.060   0.295  0.3515  1.3258 -0.4588
 2204TIP3    H228248   6.558   1.033   0.384 -1.0973 -1.7371  0.7083
 2205TIP3   OH228249   4.584   5.526   0.272  0.2778  0.2515  0.2611
 2205TIP3    H128250   4.608   5.618   0.283  1.5079  0.0081 -0.1644
 2205TIP3    H228251   4.510   5.528   0.212  0.9871  0.9220 -0.6280
 2206TIP3   OH228252   5.510   0.988   1.163  0.2171 -0.2666  0.5284
 2206TIP3    H128253   5.446   1.059   1.169  1.0006  0.3887  1.5711
 2206TIP3    H228254   5.466   0.914   1.204 -0.5854 -0.3903 -0.5068
 2207TIP3   OH228255   0.786   5.959   0.174  0.5274  0.4441 -0.5138
 2207TIP3    H128256   0.839   6.037   0.187  1.2835 -0.3242  1.4056
 2207TIP3    H228257   0.717   5.965   0.240 -0.3439  0.2204 -1.3683
 2208TIP3   OH228258   6.344   2.100   7.715  0.1907  0.1516 -0.2499
 2208TIP3    H128259   6.349   2.182   7.665  0.7622  1.2040  1.4701
 2208TIP3    H228260   6.251   2.089   7.734  0.2262  0.9476  0.3858
 2209TIP3   OH228261   4.480   4.534   0.396  0.0352  0.6370 -0.1514
 2209TIP3    H128262   4.477   4.475   0.321 -0.3183 -1.2843  1.3141
 2209TIP3    H228263   4.541   4.492   0.457 -1.1800  1.1169  1.4552
 2210TIP3   OH228264   3.016   2.555   3.311  0.1585  0.3144  0.3406
 2210TIP3    H128265   3.107   2.568   3.338  0.1120  0.8909  0.2272
 2210TIP3    H228266   2.999   2.463   3.329  0.7107  0.2450  0.5294
 2211TIP3   OH228267   2.737   5.225   1.675  0.1476  0.2659 -0.4551
 2211TIP3    H128268   2.790   5.249   1.751 -0.1739 -1.0788  0.2341
 2211TIP3    H228269   2.647   5.228   1.707 -0.3403  3.3208 -1.8339
 2212TIP3   OH228270   3.421   4.801   0.723  0.2965 -0.1575  0.3363
 2212TIP3    H128271   3.396   4.732   0.661  2.7563  0.2218 -1.2579
 2212TIP3    H228272   3.346   4.859   0.726 -0.9136 -1.6288 -0.1699
 2213TIP3   OH228273   3.825   0.843   1.977  0.8288  0.3233  0.6538
 2213TIP3    H128274   3.883   0.769   1.966 -1.6531 -1.6404 -0.2569
 2213TIP3    H228275   3.770   0.842   1.898 -1.3110  1.2018  2.0430
 2214TIP3   OH228276   2.197   6.148   0.411 -0.0602  0.0417 -0.3599
 2214TIP3    H128277   2.110   6.178   0.438 -0.0381  0.0344 -0.2807
 2214TIP3    H228278   2.246   6.229   0.395 -0.0419  0.0468 -0.2784
 2215TIP3   OH228279   6.757   0.420   2.503  0.3780 -0.1199  0.0566
 2215TIP3    H128280   6.743   0.447   2.413 -1.3018 -0.1556  0.2843
 2215TIP3    H228281   6.785   0.500   2.548  1.7706 -0.2202 -0.5814
 2216TIP3   OH228282   3.125   0.761   2.059  0.3409 -0.3890 -0.2013
 2216TIP3    H128283   3.137   0.704   1.983 -4.3125 -0.5509 -1.1345
 2216TIP3    H228284   3.031   0.779   2.060  0.9124  3.7815  2.6063
 2217TIP3   OH228285   2.746   6.866   2.495 -0.4162  0.5884 -0.2677
 2217TIP3    H128286   2.748   6.961   2.504  0.0495  0.4648  1.4366
 2217TIP3    H228287   2.656   6.841   2.517 -0.3201  0.5794  0.1199
 2218TIP3   OH228288   0.868   3.137   2.847 -0.4045  1.0560  0.3336
 2218TIP3    H128289   0.785   3.116   2.891  0.8890  1.6438  3.3494
 2218TIP3    H228290   0.904   3.210   2.898  2.6763 -0.1867  0.1564
 2219TIP3   OH228291   3.899   1.891   0.827 -0.3452 -0.2773  0.3945
 2219TIP3    H128292   3.805   1.907   0.834 -0.2403 -0.3362  2.4125
 2219TIP3    H228293   3.936   1.975   0.802 -0.9310 -0.2880 -0.5489
 2220TIP3   OH228294   0.483   3.237   8.590 -0.2120 -0.4525 -0.4961
 2220TIP3    H128295   0.404   3.186   8.575 -0.0600 -0.3398 -1.7139
 2220TIP3    H228296   0.519   3.201   8.671 -1.2984 -0.7533 -0.1212
 2221TIP3   OH228297   4.363   5.977   2.814 -0.5549 -0.8808 -0.1982
 2221TIP3    H128298   4.441   5.942   2.859 -0.0120 -0.3627 -0.7157
 2221TIP3    H228299   4.388   5.980   2.722 -0.9271 -0.0141 -0.2797
 2222TIP3   OH228300   3.364   2.312   0.776  0.5662  0.0744 -0.5843
 2222TIP3    H128301   3.430   2.243   0.780  1.4253  0.9133  0.7717
 2222TIP3    H228302   3.402   2.384   0.827 -0.7393  1.1670 -1.0851
 2223TIP3   OH228303   4.522   0.043   8.042  0.3033 -0.3232 -0.0309
 2223TIP3    H128304   4.487   0.131   8.050 -1.0105 -0.8087 -0.2476
 2223TIP3    H228305   4.581   0.034   8.117 -1.0949  0.0499  1.1630
 2224TIP3   OH228306   1.520   4.854   1.542  0.3286 -0.4220  0.4612
 2224TIP3    H128307   1.600   4.848   1.593  0.7222 -0.6020 -0.1736
 2224TIP3    H228308   1.454   4.882   1.605  1.1416  0.9377  0.7502
 2225TIP3   OH228309   4.022   5.427   8.126  0.3212  0.0429 -1.0258
 2225TIP3    H128310   4.101   5.474   8.099  0.9422 -0.7745 -0.6727
 2225TIP3    H228311   3.952   5.492   8.122  1.0608  0.8381 -1.1185
 2226TIP3   OH228312   0.697   5.215   2.284 -0.1814  0.1127 -0.6130
 2226TIP3    H128313   0.743   5.282   2.335  2.1929  0.8424 -3.4463
 2226TIP3    H228314   0.747   5.135   2.299 -1.3775 -0.4597  0.5809
 2227TIP3   OH228315   3.770   3.241   0.062  0.2095  0.2703  0.0465
 2227TIP3    H128316   3.804   3.181  -0.004  0.0983  0.3254 -0.0595
 2227TIP3    H228317   3.841   3.246   0.127 -0.1135 -0.6474  0.4967
 2228TIP3   OH228318   0.004   2.867   2.872 -0.6435 -0.4740  0.1332
 2228TIP3    H128319  -0.089   2.850   2.888 -0.5678 -0.6195  0.4262
 2228TIP3    H228320   0.027   2.807   2.800 -0.4600 -1.4076  0.9442
 2229TIP3   OH228321   1.965   1.448   8.231  0.2361 -0.2916  0.2442
 2229TIP3    H128322   1.976   1.543   8.232  0.0703 -0.2048 -1.8623
 2229TIP3    H228323   2.037   1.416   8.176 -1.6463 -1.0374 -1.9288
 2230TIP3   OH228324   2.427   4.865   1.603 -0.7414 -0.2400  0.5017
 2230TIP3    H128325   2.342   4.853   1.644 -1.4820 -1.1587 -1.2122
 2230TIP3    H228326   2.408   4.886   1.512  0.8212 -2.2030 -0.3750
 2231TIP3   OH228327   1.053   2.005   2.879 -0.1176 -0.3194  0.5178
 2231TIP3    H128328   1.063   1.963   2.965 -0.1869 -1.1824  0.1135
 2231TIP3    H228329   1.142   2.008   2.844 -0.0405  0.3364  0.7474
 2232TIP3   OH228330   6.589   4.002   1.319 -0.9059  0.0662 -0.4037
 2232TIP3    H128331   6.671   3.988   1.272 -0.1170  0.1153  0.9006
 2232TIP3    H228332   6.574   4.097   1.315  0.1872  0.3312  1.0403
 2233TIP3   OH228333   6.647   5.050   2.767  0.1317 -0.3299  0.0116
 2233TIP3    H128334   6.562   5.038   2.725  1.1664  1.0394 -2.7408
 2233TIP3    H228335   6.705   4.987   2.723  0.9256 -0.0374  0.6103
 2234TIP3   OH228336   2.832   2.805   8.369  0.0532  0.0101  0.1271
 2234TIP3    H128337   2.903   2.870   8.367  1.2272 -1.1919 -2.1546
 2234TIP3    H228338   2.803   2.800   8.278 -0.5605 -2.0337  0.3865
 2235TIP3   OH228339   2.256   2.411   1.916  0.0006 -0.0841  0.2836
 2235TIP3    H128340   2.280   2.483   1.858 -0.2043  0.7341  1.1882
 2235TIP3    H228341   2.166   2.389   1.890 -0.1441  0.3743  0.3833
 2236TIP3   OH228342   6.282   6.784   1.524  0.0800 -0.0103  0.3511
 2236TIP3    H128343   6.300   6.865   1.573 -1.8693  1.5071 -1.2580
 2236TIP3    H228344   6.356   6.776   1.465 -0.1630  1.1898 -0.1489
 2237TIP3   OH228345   4.993   6.333   1.658 -0.3278  0.3851  0.7124
 2237TIP3    H128346   4.963   6.382   1.581  0.2464 -0.4361 -0.0520
 2237TIP3    H228347   4.924   6.269   1.674 -0.6313  0.8067  1.1353
 2238TIP3   OH228348   1.597   1.890   1.103 -0.4068  0.3098 -0.2428
 2238TIP3    H128349   1.584   1.795   1.109 -0.4993  0.1771 -1.9185
 2238TIP3    H228350   1.510   1.923   1.079  0.1585  0.5055 -2.1490
 2239TIP3   OH228351   3.381   5.662   0.668  0.2296  0.0510 -0.0942
 2239TIP3    H128352   3.465   5.641   0.628 -0.1532 -0.1287 -0.8119
 2239TIP3    H228353   3.404   5.692   0.756  0.8912 -2.1494  0.5573
 2240TIP3   OH228354   5.959   1.817   0.749 -0.0549  0.1777  0.4932
 2240TIP3    H128355   5.864   1.824   0.753 -0.1818 -0.6433 -0.5513
 2240TIP3    H228356   5.976   1.724   0.765  0.4193 -0.0487 -1.1226
 2241TIP3   OH228357   1.859   6.757   8.331 -0.4184  0.4786  0.1671
 2241TIP3    H128358   1.924   6.687   8.337  1.9320  2.6247  1.6003
 2241TIP3    H228359   1.828   6.754   8.240  1.0175 -1.1916 -0.3154
 2242TIP3   OH228360   5.590   4.841   7.443 -0.0990 -0.7836 -0.0925
 2242TIP3    H128361   5.596   4.748   7.422  0.1162 -0.1239 -3.4798
 2242TIP3    H228362   5.508   4.849   7.493  0.2231 -2.8273  0.8603
 2243TIP3   OH228363   0.450   4.604   1.733 -0.2232 -0.3285  0.1184
 2243TIP3    H128364   0.414   4.621   1.820 -0.2426 -0.2465  0.0946
 2243TIP3    H228365   0.432   4.512   1.717 -0.9733 -0.1455 -0.1453
 2244TIP3   OH228366   3.729   6.218   1.675  0.0986  0.4651  0.1075
 2244TIP3    H128367   3.814   6.250   1.644  0.3178 -0.6977 -0.5821
 2244TIP3    H228368   3.681   6.197   1.595 -0.2354 -0.3676  0.5097
 2245TIP3   OH228369   4.184   4.436   3.379 -0.0283 -0.0003 -0.8408
 2245TIP3    H128370   4.203   4.522   3.415  0.5474 -0.5232  0.1275
 2245TIP3    H228371   4.095   4.444   3.344  0.8044  1.6125 -2.7950
 2246TIP3   OH228372   6.328   4.390   8.138  0.1804 -0.1880  0.4735
 2246TIP3    H128373   6.409   4.345   8.164  0.6600  0.8831  0.8737
 2246TIP3    H228374   6.337   4.403   8.043 -0.1228 -1.2261  0.2884
 2247TIP3   OH228375   5.009   0.094   2.603  0.6197 -0.2362 -0.0649
 2247TIP3    H128376   5.015   0.059   2.692  0.8879  0.6038  0.2555
 2247TIP3    H228377   5.008   0.189   2.614 -0.4234 -0.1281 -0.9055
 2248TIP3   OH228378   4.732   1.576   1.509  0.3086  0.2237  0.3747
 2248TIP3    H128379   4.810   1.618   1.544  0.1657  0.7824  0.0270
 2248TIP3    H228380   4.760   1.539   1.425 -0.3143  2.3273 -0.8285
 2249TIP3   OH228381   0.132   4.274   1.916 -0.4662  0.3468  0.4198
 2249TIP3    H128382   0.216   4.229   1.928 -0.7825  0.2519  2.7926
 2249TIP3    H228383   0.068   4.203   1.915 -0.6317  0.5030  0.0703
 2250TIP3   OH228384   2.279   0.887   2.163 -0.3734 -0.4197 -0.5974
 2250TIP3    H128385   2.342   0.826   2.126 -1.3473 -1.1017 -1.1822
 2250TIP3    H228386   2.194   0.845   2.149 -1.0128  0.7713 -0.4235
 2251TIP3   OH228387   0.717   6.385   1.852 -0.0738  0.7281  0.4342
 2251TIP3    H128388   0.624   6.384   1.832  0.2077 -0.1332 -0.9365
 2251TIP3    H228389   0.721   6.407   1.945 -1.9474 -3.9140  1.9252
 2252TIP3   OH228390   6.526   5.648   8.654  0.2962  0.1130  0.0576
 2252TIP3    H128391   6.620   5.629   8.642  0.1008 -0.5953 -0.4520
 2252TIP3    H228392   6.519   5.676   8.745  0.7755 -1.4073  0.5991
 2253TIP3   OH228393   2.978   3.541   0.366  0.7213  0.3304  0.0769
 2253TIP3    H128394   3.023   3.624   0.351 -0.2371  1.0720  1.1416
 2253TIP3    H228395   3.014   3.508   0.448  1.3497 -0.5031 -0.5135
 2254TIP3   OH228396   0.591   3.281   2.362 -0.6484 -0.1158 -0.5085
 2254TIP3    H128397   0.616   3.287   2.454 -0.6858 -1.2610 -0.4096
 2254TIP3    H228398   0.658   3.331   2.315 -0.5326  0.3282  0.1137
 2255TIP3   OH228399   0.091   5.055   1.084 -0.5900  0.2009 -0.2349
 2255TIP3    H128400   0.058   5.105   1.158 -0.6316 -0.8096  0.4512
 2255TIP3    H228401   0.184   5.080   1.078  0.2155 -1.7757  2.0181
 2256TIP3   OH228402   3.507   0.640   1.269 -0.2229  0.0096  0.1266
 2256TIP3    H128403   3.560   0.685   1.203  1.5244 -0.8040  0.9082
 2256TIP3    H228404   3.510   0.548   1.243 -1.8860  0.0323 -0.2102
 2257TIP3   OH228405   6.747   3.327   7.908 -0.0907 -0.0587 -0.7266
 2257TIP3    H128406   6.702   3.303   7.989 -0.1672 -0.1743 -0.8026
 2257TIP3    H228407   6.753   3.422   7.911 -0.4700 -0.0314 -0.7828
 2258TIP3   OH228408   0.748   6.489   3.543  0.0962 -0.0389  0.1246
 2258TIP3    H128409   0.801   6.420   3.504  1.4775  0.5749  0.8578
 2258TIP3    H228410   0.806   6.531   3.606 -0.9295  1.3518  0.1853
 2259TIP3   OH228411   0.411   4.853   8.122  0.7126 -0.3782 -0.3001
 2259TIP3    H128412   0.368   4.783   8.073  1.6816 -2.0416  1.1097
 2259TIP3    H228413   0.461   4.902   8.056 -0.1409 -0.8732 -1.3409
 2260TIP3   OH228414   4.177   1.705   1.338 -0.2547 -0.2234  0.2274
 2260TIP3    H128415   4.105   1.713   1.275 -1.1546 -0.0938  1.2469
 2260TIP3    H228416   4.256   1.720   1.286 -1.0782  1.9245 -0.4844
 2261TIP3   OH228417   6.014   3.501   0.301 -0.1440 -0.2360 -0.1149
 2261TIP3    H128418   6.089   3.544   0.341 -0.9205  1.0480  0.0357
 2261TIP3    H228419   5.954   3.484   0.374  0.1359 -1.5860 -0.1788
 2262TIP3   OH228420   1.496   6.474   2.038  0.0674 -0.5173  0.2093
 2262TIP3    H128421   1.448   6.544   1.995  0.3951  0.7906  1.8455
 2262TIP3    H228422   1.532   6.421   1.967  1.0771  1.8506 -1.1349
 2263TIP3   OH228423   4.065   0.458   0.317 -0.2626 -0.0781 -0.6439
 2263TIP3    H128424   4.011   0.515   0.373  0.0963 -1.7341  1.5440
 2263TIP3    H228425   4.153   0.495   0.323  0.0562 -0.9939  1.1167
 2264TIP3   OH228426   0.544   4.219   1.395 -0.0530  0.0153  0.4082
 2264TIP3    H128427   0.592   4.228   1.477  0.5767  1.0643 -0.0427
 2264TIP3    H228428   0.452   4.223   1.420  0.1270  2.0099  0.9459
 2265TIP3   OH228429   0.247   6.379   1.042 -0.8041  0.2255 -0.1534
 2265TIP3    H128430   0.187   6.445   1.006 -1.6369  0.0252  0.8124
 2265TIP3    H228431   0.194   6.332   1.107 -0.1186 -1.1501 -0.5525
 2266TIP3   OH228432   3.022   3.009   8.441 -0.1281  0.0260  0.0460
 2266TIP3    H128433   3.117   3.014   8.445 -0.1767  0.9726  0.1576
 2266TIP3    H228434   2.995   2.989   8.531 -0.1058  1.1820  0.3210
 2267TIP3   OH228435   2.472   4.890   0.869 -0.2719  0.1026  0.5615
 2267TIP3    H128436   2.544   4.827   0.879 -0.3816  0.1425  1.8127
 2267TIP3    H228437   2.471   4.911   0.776  2.6212  1.6133  0.7769
 2268TIP3   OH228438   5.507   0.733   2.138  0.0355  0.0155  0.0602
 2268TIP3    H128439   5.502   0.814   2.189  1.1495  0.3320 -0.3063
 2268TIP3    H228440   5.437   0.741   2.074 -0.6548  0.1221  0.8049
 2269TIP3   OH228441   0.551   4.685   8.554 -0.1377  0.1388  0.0573
 2269TIP3    H128442   0.547   4.594   8.583 -0.1595 -0.0579 -0.5465
 2269TIP3    H228443   0.459   4.711   8.543 -0.1872  0.6593  1.4909
 2270TIP3   OH228444   3.072   4.816   0.552  0.5423  0.3540  0.4697
 2270TIP3    H128445   3.058   4.890   0.610 -1.4967  0.0637  0.4094
 2270TIP3    H228446   2.985   4.781   0.535  1.1611 -0.2857 -1.8417
 2271TIP3   OH228447   4.501   0.894   7.677 -0.4871  0.0666  0.1926
 2271TIP3    H128448   4.452   0.847   7.744 -1.4416  1.4423  0.4924
 2271TIP3    H228449   4.471   0.857   7.594 -1.6271  0.4942  0.4016
 2272TIP3   OH228450   5.258   5.871   2.726  0.0466  0.0577  0.5346
 2272TIP3    H128451   5.305   5.903   2.649 -1.0093 -1.6134 -0.9064
 2272TIP3    H228452   5.168   5.900   2.713 -0.3506 -1.0772  0.5804
 2273TIP3   OH228453   6.201   2.797   0.654 -0.0332 -0.5839  0.3947
 2273TIP3    H128454   6.293   2.808   0.630  0.2324 -2.1868  0.5022
 2273TIP3    H228455   6.175   2.716   0.609 -0.6162 -1.5607  2.3662
 2274TIP3   OH228456   2.183   4.109   8.590 -0.1614 -0.1371  0.5221
 2274TIP3    H128457   2.168   4.034   8.532 -1.7190 -0.5340  1.3800
 2274TIP3    H228458   2.221   4.176   8.533  0.6313 -1.3337 -0.4094
 2275TIP3   OH228459   4.351   6.732   8.238 -0.6275 -0.2241 -0.0863
 2275TIP3    H128460   4.287   6.729   8.309  0.7933 -1.0737  1.2139
 2275TIP3    H228461   4.346   6.645   8.198 -0.2493 -0.3175  0.0667
 2276TIP3   OH228462   1.400   2.352   2.338 -0.0860  0.5113 -0.3469
 2276TIP3    H128463   1.429   2.355   2.429 -1.4714 -2.4693  0.3258
 2276TIP3    H228464   1.328   2.415   2.334 -0.5521  0.0894  0.8802
 2277TIP3   OH228465   1.027   3.425   0.571 -0.2797 -0.1924  0.1053
 2277TIP3    H128466   0.994   3.399   0.657  1.5116  0.2180  0.9725
 2277TIP3    H228467   0.963   3.390   0.509 -1.6857 -0.3877  1.5959
 2278TIP3   OH228468   4.834   1.405   0.762  0.1942  0.0731  0.0826
 2278TIP3    H128469   4.759   1.463   0.746  1.5720  2.2067  1.0729
 2278TIP3    H228470   4.909   1.452   0.726  1.3070 -1.3116  0.5237
 2279TIP3   OH228471   5.338   1.723   2.113  0.0293 -0.3931 -0.2788
 2279TIP3    H128472   5.260   1.726   2.168  0.3784 -0.4275  0.2284
 2279TIP3    H228473   5.314   1.665   2.040 -0.9866  0.9209 -1.0523
 2280TIP3   OH228474   4.418   5.719   3.454 -0.3901 -0.3164 -0.0664
 2280TIP3    H128475   4.360   5.686   3.522  0.1052  0.7016  0.8946
 2280TIP3    H228476   4.377   5.800   3.424 -0.7472 -0.8982 -1.2009
 2281TIP3   OH228477   2.904   5.988   1.020 -0.0521 -0.4561  0.2875
 2281TIP3    H128478   2.880   6.024   1.105  1.6195 -0.8186  0.9554
 2281TIP3    H228479   2.869   5.899   1.022 -2.7008  0.4439 -0.6937
 2282TIP3   OH228480   5.973   0.132   2.917 -0.0826 -0.6716 -0.5431
 2282TIP3    H128481   6.051   0.172   2.879  1.0860 -0.6303  1.7204
 2282TIP3    H228482   5.939   0.075   2.848  0.3178  1.3834 -2.5432
 2283TIP3   OH228483   3.020   5.505   0.091  0.6606  0.6035 -0.3154
 2283TIP3    H128484   2.970   5.571   0.043 -1.4310  0.2496  1.2307
 2283TIP3    H228485   2.954   5.460   0.145  2.8161  1.1085  3.0326
 2284TIP3   OH228486   2.172   6.136   0.809 -0.1383  0.0110  0.5096
 2284TIP3    H128487   2.087   6.174   0.830  0.2404  0.7123  0.8593
 2284TIP3    H228488   2.200   6.094   0.890  0.1938  0.4840  0.6482
 2285TIP3   OH228489   5.657   4.726   2.472 -0.3890  0.4912  0.3060
 2285TIP3    H128490   5.609   4.772   2.404 -0.4078 -1.2073 -0.8912
 2285TIP3    H228491   5.747   4.753   2.461 -0.7137  2.0527  1.1903
 2286TIP3   OH228492   0.226   1.073   8.324 -0.1496 -0.8004 -0.0352
 2286TIP3    H128493   0.303   1.077   8.380  0.5093 -1.4389 -0.8594
 2286TIP3    H228494   0.162   1.022   8.373  0.2746 -1.0112  0.3022
 2287TIP3   OH228495   0.383   2.261   7.977 -0.7740 -0.2491 -0.0034
 2287TIP3    H128496   0.406   2.275   7.886 -2.7927 -1.2556 -0.7282
 2287TIP3    H228497   0.439   2.189   8.006  0.2311  0.4108 -0.2593
 2288TIP3   OH228498   0.435   4.733   7.708  0.7360  0.1515 -0.5881
 2288TIP3    H128499   0.525   4.701   7.721  0.3302 -0.5372  0.6269
 2288TIP3    H228500   0.411   4.701   7.621 -0.3108 -4.7227  1.1589
 2289TIP3   OH228501   0.397   4.334   0.366  0.2035 -0.1801 -1.1328
 2289TIP3    H128502   0.384   4.337   0.461  1.7619  0.4738 -0.9125
 2289TIP3    H228503   0.340   4.403   0.331 -1.1196 -1.0604 -0.8002
 2290TIP3   OH228504   5.178   4.788   8.534 -0.0475 -0.4748 -0.5911
 2290TIP3    H128505   5.110   4.839   8.578 -0.0269 -0.4267 -0.6149
 2290TIP3    H228506   5.216   4.848   8.470  0.0039 -0.5072 -0.5913
 2291TIP3   OH228507   3.703   4.278   0.985  0.1631 -0.7334 -0.0063
 2291TIP3    H128508   3.777   4.270   0.925 -0.0495  1.0081 -0.5696
 2291TIP3    H228509   3.743   4.300   1.070  0.3593 -1.4036  0.0828
 2292TIP3   OH228510   0.149   6.853   0.643 -0.3681 -0.6824  0.2264
 2292TIP3    H128511   0.117   6.777   0.692  1.8022 -0.3754  2.3170
 2292TIP3    H228512   0.242   6.834   0.629 -0.5806 -0.1114 -2.7215
 2293TIP3   OH228513   2.114   5.972   2.585 -0.1689 -0.5292 -0.3257
 2293TIP3    H128514   2.044   5.938   2.529 -1.6979  0.6788  0.7695
 2293TIP3    H228515   2.172   6.019   2.526 -2.0929  1.2727 -0.8824
 2294TIP3   OH228516   2.559   4.685   2.392 -0.6074 -0.5988 -0.1050
 2294TIP3    H128517   2.486   4.648   2.341 -0.0086 -1.0752 -0.6319
 2294TIP3    H228518   2.573   4.772   2.355 -0.2655 -0.8900 -0.6767
 2295TIP3   OH228519   4.865   2.372   8.650 -0.7973  0.8735 -0.3482
 2295TIP3    H128520   4.909   2.393   8.732 -1.7168  0.4906  0.2652
 2295TIP3    H228521   4.785   2.425   8.651 -0.9698  0.6368 -0.8479
 2296TIP3   OH228522   5.183   3.668   0.852  0.2718  0.4927 -0.0828
 2296TIP3    H128523   5.203   3.593   0.796  0.0209 -2.0618  3.0038
 2296TIP3    H228524   5.102   3.704   0.817  0.7300 -0.2326 -1.9992
 2297TIP3   OH228525   2.106   2.722   1.914  0.0870 -0.3694 -0.4057
 2297TIP3    H128526   2.062   2.652   1.962  1.9158 -1.4384 -0.1678
 2297TIP3    H228527   2.149   2.775   1.982  1.2056 -0.8433 -0.7083
 2298TIP3   OH228528   4.996   4.518   1.241  0.0509  0.6694 -0.4266
 2298TIP3    H128529   4.943   4.471   1.176  1.1065 -0.9043 -0.1886
 2298TIP3    H228530   4.932   4.560   1.298 -0.9358 -0.4116 -0.6978
 2299TIP3   OH228531   5.949   3.382   0.055  0.3218 -0.1559  0.2142
 2299TIP3    H128532   5.871   3.434   0.037  1.6715  1.8240 -0.3058
 2299TIP3    H228533   5.980   3.414   0.140  0.9815 -0.3661  0.0613
 2300TIP3   OH228534   1.349   1.495   3.816  0.5291 -0.1597 -0.2794
 2300TIP3    H128535   1.254   1.481   3.815  0.7037 -1.5190 -1.3294
 2300TIP3    H228536   1.363   1.563   3.881 -1.1979  0.2607 -0.3075
 2301TIP3   OH228537   1.963   0.096   2.077 -0.3806 -0.0297 -0.1714
 2301TIP3    H128538   1.952   0.122   2.169 -1.3695  0.2155 -0.3453
 2301TIP3    H228539   1.928   0.007   2.074  2.6008 -1.3407  0.3355
 2302TIP3   OH228540   0.480   5.080   3.865 -0.3468  0.4735  0.1106
 2302TIP3    H128541   0.509   5.166   3.898 -0.4393  0.4649  0.2126
 2302TIP3    H228542   0.561   5.029   3.859  0.0279  1.2127 -1.9165
 2303TIP3   OH228543   2.424   6.380   3.339  0.4234 -0.2932 -0.3683
 2303TIP3    H128544   2.516   6.371   3.363  0.2308 -1.9721 -0.1289
 2303TIP3    H228545   2.385   6.295   3.360 -0.3359 -1.0453 -4.0774
 2304TIP3   OH228546   5.179   6.610   6.619  0.6166 -0.3642  0.4326
 2304TIP3    H128547   5.137   6.527   6.596  0.8604 -0.0556 -1.2656
 2304TIP3    H228548   5.107   6.669   6.640  0.3574 -0.6355  0.3077
 2305TIP3   OH228549   0.502   0.434   0.223 -0.4167  0.1688  0.1356
 2305TIP3    H128550   0.569   0.370   0.248 -0.0183  0.9489  1.1329
 2305TIP3    H228551   0.535   0.474   0.142  1.2811  1.8382  1.5706
 2306TIP3   OH228552   2.701   4.063   0.470  0.1011 -0.3054 -0.5863
 2306TIP3    H128553   2.765   4.132   0.485  0.5352 -0.9474  0.6404
 2306TIP3    H228554   2.672   4.076   0.380  0.0861  1.5228 -0.3388
 2307TIP3   OH228555   2.922   6.754   0.008 -0.2520 -0.1849 -0.4813
 2307TIP3    H128556   2.957   6.677   0.053  0.6524  0.8033  0.5543
 2307TIP3    H228557   2.939   6.737  -0.085 -1.2094 -1.7854 -0.4007
 2308TIP3   OH228558   3.338   6.651   0.943 -0.0918  0.2793  0.3079
 2308TIP3    H128559   3.395   6.728   0.934 -0.2639  0.6533  2.1150
 2308TIP3    H228560   3.353   6.601   0.862 -0.1977  2.3240 -1.0573
 2309TIP3   OH228561   3.460   3.718   2.045  0.2239 -0.0467 -0.5684
 2309TIP3    H128562   3.480   3.710   2.139 -1.3744 -0.3651 -0.2290
 2309TIP3    H228563   3.420   3.635   2.021 -2.3027  1.1237 -0.7308
 2310TIP3   OH228564   1.295   4.959   2.012  0.0645  0.2516  0.2156
 2310TIP3    H128565   1.320   5.034   2.066  1.1076  0.4164 -0.4617
 2310TIP3    H228566   1.200   4.952   2.022  0.1946  0.4936  1.7691
 2311TIP3   OH228567   6.087   1.211   2.511  0.4460 -0.2208 -0.2744
 2311TIP3    H128568   6.081   1.144   2.579  0.5785 -0.0340 -0.0780
 2311TIP3    H228569   6.181   1.231   2.507  0.2533  0.9545  0.6411
 2312TIP3   OH228570   2.558   5.246   0.956 -0.4346  0.1809  1.1377
 2312TIP3    H128571   2.521   5.176   1.011  0.9188  0.0765  1.9815
 2312TIP3    H228572   2.487   5.308   0.945 -1.6922 -1.3479  0.3222
 2313TIP3   OH228573   0.742   6.431   2.121  0.6598 -0.0292  0.3912
 2313TIP3    H128574   0.651   6.405   2.139  0.8360  0.7688  2.9644
 2313TIP3    H228575   0.785   6.423   2.206  2.3891  1.9519 -0.2233
 2314TIP3   OH228576   1.641   2.601   2.773  0.3399  0.2368  0.7058
 2314TIP3    H128577   1.643   2.512   2.807 -0.2402  0.0271  0.2017
 2314TIP3    H228578   1.574   2.600   2.704 -0.4111  1.2893  1.3743
 2315TIP3   OH228579   1.738   5.748   1.095  0.2740 -0.2437  0.6040
 2315TIP3    H128580   1.749   5.760   1.000 -0.7658 -0.5294  0.4295
 2315TIP3    H228581   1.649   5.713   1.104  0.3023 -0.0640  1.7013
 2316TIP3   OH228582   4.783   3.069   1.498 -0.1663  0.3164 -0.3126
 2316TIP3    H128583   4.856   3.095   1.442  0.0896  0.4613  0.0873
 2316TIP3    H228584   4.720   3.029   1.438  0.4115 -0.1680 -0.6009
 2317TIP3   OH228585   4.300   5.953   3.404  0.0298  0.2852 -0.8865
 2317TIP3    H128586   4.316   6.037   3.361  0.3851 -0.1750 -1.6564
 2317TIP3    H228587   4.229   5.972   3.466  0.4581  1.2701 -0.6786
 2318TIP3   OH228588   6.774   0.204   3.455  0.2276  0.1435  0.3270
 2318TIP3    H128589   6.715   0.130   3.471  2.2876 -1.8294 -0.5963
 2318TIP3    H228590   6.846   0.190   3.518  1.2849  0.5956 -0.7485
 2319TIP3   OH228591   3.934   4.613   2.202 -0.2625  0.3544  0.1339
 2319TIP3    H128592   4.026   4.637   2.209 -0.2439  0.5101 -0.5735
 2319TIP3    H228593   3.898   4.672   2.137 -0.6421 -0.3302 -0.2952
 2320TIP3   OH228594   0.946   6.004   0.736  0.9606 -0.0752  0.1509
 2320TIP3    H128595   0.919   5.930   0.682 -0.9370  1.0689 -0.5237
 2320TIP3    H228596   1.010   6.051   0.683 -1.1285  1.2277 -1.3503
 2321TIP3   OH228597   4.236   1.635   7.627  0.1438  0.1150 -0.3353
 2321TIP3    H128598   4.158   1.615   7.678  0.6541 -1.2875 -0.0554
 2321TIP3    H228599   4.223   1.587   7.545  0.5138  0.2118 -0.4526
 2322TIP3   OH228600   2.800   4.030   1.147 -0.5635 -0.4611 -0.0055
 2322TIP3    H128601   2.783   4.112   1.193 -2.5208  0.5226 -2.3163
 2322TIP3    H228602   2.891   4.037   1.119 -0.4084  0.4568  0.6770
 2323TIP3   OH228603   0.958   3.716   2.121  0.2809  0.4388  0.1268
 2323TIP3    H128604   0.904   3.771   2.178  1.7940  1.1031  0.9614
 2323TIP3    H228605   0.896   3.682   2.056 -1.5785 -0.5823  2.2721
 2324TIP3   OH228606   5.406   3.537   3.290  0.5805  0.3338 -0.4533
 2324TIP3    H128607   5.315   3.565   3.295  0.1536 -0.7253 -1.6717
 2324TIP3    H228608   5.452   3.613   3.253  0.6460  1.6738  2.1491
 2325TIP3   OH228609   1.168   4.489   1.173 -0.2287  0.1016  0.8344
 2325TIP3    H128610   1.233   4.513   1.107 -1.1597 -1.6835 -0.8200
 2325TIP3    H228611   1.169   4.393   1.173 -1.8164  0.0645  1.8427
 2326TIP3   OH228612   5.546   2.794   1.167  0.1287 -0.3907 -0.0305
 2326TIP3    H128613   5.545   2.776   1.073  1.7517  0.6771 -0.2918
 2326TIP3    H228614   5.627   2.754   1.199 -0.7360 -1.3496  1.0804
 2327TIP3   OH228615   5.785   6.086   3.720 -0.0593  0.2628  0.3938
 2327TIP3    H128616   5.722   6.079   3.793  0.3156 -0.1187  0.6846
 2327TIP3    H228617   5.851   6.020   3.739  1.0308  1.3911  0.6763
 2328TIP3   OH228618   6.671   1.993   0.950  0.3791  0.4028  0.2107
 2328TIP3    H128619   6.758   1.985   0.910  2.5474 -1.6842  4.6866
 2328TIP3    H228620   6.683   1.968   1.041 -4.5444  2.4028  1.7676
 2329TIP3   OH228621   4.887   2.479   1.382  0.2423  0.2857  0.1206
 2329TIP3    H128622   4.835   2.433   1.316 -1.1631 -0.2330  1.5531
 2329TIP3    H228623   4.876   2.428   1.462  1.5266  1.1800  0.9091
 2330TIP3   OH228624   6.726   4.883   0.441 -0.5603  0.0716  0.1584
 2330TIP3    H128625   6.718   4.919   0.529  1.6441 -0.3223  0.5776
 2330TIP3    H228626   6.705   4.790   0.451  1.3467 -0.3570  0.6858
 2331TIP3   OH228627   4.351   5.777   8.072  0.1733  0.0417 -0.3411
 2331TIP3    H128628   4.438   5.767   8.033  0.9423 -0.4030  1.3692
 2331TIP3    H228629   4.365   5.834   8.148 -1.1390  0.4083 -0.3466
 2332TIP3   OH228630   5.113   6.062   8.412 -0.4861  0.2675  0.6339
 2332TIP3    H128631   5.070   6.060   8.326 -1.7113  0.9282  1.1937
 2332TIP3    H228632   5.114   5.971   8.441  0.6809 -0.0754 -0.4119
 2333TIP3   OH228633   0.938   5.569   8.067 -0.3503 -0.3673 -0.1634
 2333TIP3    H128634   1.026   5.560   8.031 -0.0457  1.1050  0.1583
 2333TIP3    H228635   0.920   5.663   8.064 -1.6414 -0.5717  0.4136
 2334TIP3   OH228636   4.620   0.996   1.059  0.0409 -0.4883 -0.3131
 2334TIP3    H128637   4.540   0.949   1.036 -1.3288  0.7787  1.6615
 2334TIP3    H228638   4.598   1.088   1.048  0.0248  0.0919  3.4945
 2335TIP3   OH228639   0.383   6.219   0.543 -0.5558 -0.1419  0.5340
 2335TIP3    H128640   0.325   6.200   0.618 -0.2862  0.4854  0.9152
 2335TIP3    H228641   0.426   6.136   0.524  0.3936 -0.0100  1.9653
 2336TIP3   OH228642   4.094   5.597   1.780 -0.3005 -0.6257 -0.1917
 2336TIP3    H128643   4.074   5.574   1.871 -2.4734 -1.6335 -0.8537
 2336TIP3    H228644   4.076   5.517   1.731 -2.5557  0.8091 -1.9137
 2337TIP3   OH228645   5.497   1.270   8.026 -0.0501 -0.0456 -0.3047
 2337TIP3    H128646   5.522   1.180   8.003 -0.7384 -0.2635 -0.2524
 2337TIP3    H228647   5.515   1.321   7.947  1.2975 -0.0248 -0.0055
 2338TIP3   OH228648   0.021   5.824   3.319 -0.3831  0.0523  0.2911
 2338TIP3    H128649   0.107   5.793   3.289 -0.9611 -1.4582  0.1218
 2338TIP3    H228650   0.041   5.899   3.374  1.0501 -0.2294  0.1997
 2339TIP3   OH228651   6.042   5.394   7.810 -0.4240 -0.1749  0.4486
 2339TIP3    H128652   6.030   5.302   7.832  1.9553 -1.0414 -1.3783
 2339TIP3    H228653   5.953   5.427   7.796 -1.3127 -2.4530  0.2535
 2340TIP3   OH228654   6.738   3.859   2.427  0.2128 -0.2351  0.7699
 2340TIP3    H128655   6.643   3.847   2.427  0.0956 -0.3738 -2.6746
 2340TIP3    H228656   6.751   3.954   2.428 -0.4058  0.1735 -4.2831
 2341TIP3   OH228657   2.473   4.959   2.172  0.5090 -0.0777  0.1322
 2341TIP3    H128658   2.405   5.010   2.128 -0.5425 -1.2720  0.2948
 2341TIP3    H228659   2.555   4.999   2.145 -0.2213  0.8335 -0.8129
 2342TIP3   OH228660   1.199   2.375   2.952  0.6342  0.2917 -0.5541
 2342TIP3    H128661   1.244   2.443   3.003  3.1135  1.0632 -3.4467
 2342TIP3    H228662   1.136   2.423   2.898  1.0203  0.0761 -1.2109
 2343TIP3   OH228663   3.386   2.864   1.910  0.0151  0.1598 -0.2512
 2343TIP3    H128664   3.431   2.800   1.965  0.9098 -0.2206 -1.4051
 2343TIP3    H228665   3.328   2.811   1.855 -1.6017  0.6074  0.9148
 2344TIP3   OH228666   1.371   4.467   2.087 -0.1301 -0.2577  0.6912
 2344TIP3    H128667   1.320   4.457   2.007  0.7324  0.4384  0.0338
 2344TIP3    H228668   1.323   4.531   2.139 -0.6669 -0.6736  0.7126
 2345TIP3   OH228669   0.916   4.748   0.668  0.2696 -0.4974 -0.1907
 2345TIP3    H128670   0.834   4.723   0.711  0.4002 -0.8872 -0.1651
 2345TIP3    H228671   0.903   4.726   0.576  0.4390 -0.8090 -0.1435
 2346TIP3   OH228672   5.661   0.770   8.109  0.1383 -0.4147  0.4392
 2346TIP3    H128673   5.655   0.793   8.201  0.3260 -0.1066  0.3757
 2346TIP3    H228674   5.571   0.773   8.077  0.0536 -0.6873  0.6505
 2347TIP3   OH228675   5.539   0.076   7.854  0.1915  0.2745 -0.2411
 2347TIP3    H128676   5.456   0.107   7.817 -0.8240 -2.0966 -0.1122
 2347TIP3    H228677   5.575   0.018   7.786 -0.0489 -1.5108  1.1000
 2348TIP3   OH228678   2.913   2.539   0.252  1.0342  0.5636  0.3085
 2348TIP3    H128679   2.875   2.472   0.310 -2.2409  2.4316  0.5953
 2348TIP3    H228680   2.986   2.576   0.302  2.0811 -1.8369  0.6686
 2349TIP3   OH228681   2.700   2.011   0.040  1.0222 -0.4928  0.3551
 2349TIP3    H128682   2.780   2.051   0.074  1.8487 -1.1589 -0.7362
 2349TIP3    H228683   2.731   1.947  -0.024 -0.3837 -0.9282  0.0826
 2350TIP3   OH228684   1.719   6.714   7.390 -0.3775  0.1244 -0.3763
 2350TIP3    H128685   1.788   6.731   7.454  0.4621  0.9731 -1.4738
 2350TIP3    H228686   1.686   6.800   7.366  0.8370  0.0375 -2.6830
 2351TIP3   OH228687   5.811   3.707   1.984  0.0702  0.1784  0.2639
 2351TIP3    H128688   5.727   3.746   1.965  0.0915 -0.7820 -2.1453
 2351TIP3    H228689   5.875   3.776   1.967 -0.0781  0.0532 -0.8638
 2352TIP3   OH228690   1.737   0.814   0.049 -0.1124 -0.2846  0.0603
 2352TIP3    H128691   1.684   0.737   0.030  1.4087 -1.0965 -1.0708
 2352TIP3    H228692   1.795   0.823  -0.026  0.6336  1.2117  0.7657
 2353TIP3   OH228693   2.205   3.215   3.428  0.2025  0.5211 -0.4229
 2353TIP3    H128694   2.230   3.305   3.447 -0.1507  0.2858  1.3408
 2353TIP3    H228695   2.112   3.219   3.407  0.6865  0.8404 -2.7631
 2354TIP3   OH228696   2.788   4.916   2.367  0.0259  0.1034  0.6113
 2354TIP3    H128697   2.837   4.936   2.288 -0.3118 -1.2179  0.0269
 2354TIP3    H228698   2.850   4.867   2.422 -0.7423 -2.1908 -0.4260
 2355TIP3   OH228699   6.183   2.648   1.496 -0.2132  0.2796 -0.1599
 2355TIP3    H128700   6.104   2.620   1.450 -1.2327  1.9393  0.4955
 2355TIP3    H228701   6.154   2.720   1.553  1.3596 -0.4507  1.6855
 2356TIP3   OH228702   1.680   4.428   3.180 -0.5474 -0.0630 -0.0104
 2356TIP3    H128703   1.590   4.403   3.199 -0.7818 -0.2212 -1.2704
 2356TIP3    H228704   1.712   4.466   3.262 -1.7319 -0.0621  0.4676
 2357TIP3   OH228705   0.439   3.892   3.960 -0.1918  0.4693 -0.6450
 2357TIP3    H128706   0.467   3.935   3.879  0.1108  0.4607 -0.5472
 2357TIP3    H228707   0.389   3.959   4.007  1.3601  1.1571  0.1031
 2358TIP3   OH228708   3.004   1.377   2.952 -0.4128 -0.3500 -1.0852
 2358TIP3    H128709   3.046   1.311   3.006 -0.5522 -0.2365 -0.8326
 2358TIP3    H228710   3.072   1.407   2.891 -0.2937 -0.5753 -1.0609
 2359TIP3   OH228711   4.905   4.346   0.609 -0.2245 -0.4562 -0.1455
 2359TIP3    H128712   4.841   4.313   0.545 -0.9656 -1.6124  1.1115
 2359TIP3    H228713   4.897   4.441   0.604  0.2488 -0.4833 -2.2368
 2360TIP3   OH228714   5.488   5.624   0.862  0.1873 -0.1814  0.5165
 2360TIP3    H128715   5.460   5.537   0.833  0.5590 -0.5637  1.2853
 2360TIP3    H228716   5.500   5.615   0.956 -1.1849  1.0826  0.8568
 2361TIP3   OH228717   3.477   2.685   1.287 -0.3955 -0.3360  0.5532
 2361TIP3    H128718   3.493   2.594   1.262  0.5583 -0.0315  0.0268
 2361TIP3    H228719   3.510   2.737   1.213  0.8962  0.5132  1.6794
 2362TIP3   OH228720   3.167   4.453   1.472 -0.7448  0.6653 -0.3130
 2362TIP3    H128721   3.250   4.461   1.519 -1.0877  0.4167  0.3389
 2362TIP3    H228722   3.131   4.541   1.471 -0.7138  0.6801 -0.1535
 2363TIP3   OH228723   3.794   0.401   1.522  0.4563 -0.4913 -0.2569
 2363TIP3    H128724   3.702   0.373   1.522  0.1276  0.5477  0.2450
 2363TIP3    H228725   3.841   0.326   1.485 -0.4276 -1.5366  0.6529
 2364TIP3   OH228726   2.271   0.514   1.107  0.6176 -0.1443  0.1380
 2364TIP3    H128727   2.186   0.525   1.150  1.0452 -1.1154  1.2737
 2364TIP3    H228728   2.269   0.425   1.071  1.0874 -0.1118  0.0218
 2365TIP3   OH228729   3.982   6.646   8.019 -0.4344  0.1415  0.1215
 2365TIP3    H128730   3.960   6.623   7.929  0.9429  1.1833 -0.5090
 2365TIP3    H228731   3.959   6.568   8.070  0.2965 -1.0865 -1.3558
 2366TIP3   OH228732   2.736   5.706   8.077 -0.1042  0.3588  0.9114
 2366TIP3    H128733   2.732   5.756   8.158 -1.0878  1.4364  0.2109
 2366TIP3    H228734   2.741   5.772   8.007 -1.6288 -0.4795 -0.0421
 2367TIP3   OH228735   6.724   5.674   3.151  0.0080 -0.2347 -0.1743
 2367TIP3    H128736   6.766   5.588   3.156  0.8868  0.1648 -0.6446
 2367TIP3    H228737   6.783   5.733   3.199 -0.1250  0.2870 -0.6402
 2368TIP3   OH228738   0.298   2.597   1.615 -0.1143  0.1115 -0.6280
 2368TIP3    H128739   0.277   2.688   1.634  0.4218 -0.3630  3.0082
 2368TIP3    H228740   0.224   2.548   1.652  1.5199 -1.0215  1.3822
 2369TIP3   OH228741   1.390   4.793   0.072 -0.3257 -0.5160 -0.6208
 2369TIP3    H128742   1.346   4.877   0.063  1.1954  0.1915 -2.0987
 2369TIP3    H228743   1.469   4.813   0.123  1.4148 -0.3993 -3.1529
 2370TIP3   OH228744   3.172   5.005   7.915  0.2333  0.5235  0.0735
 2370TIP3    H128745   3.128   4.923   7.937  0.1808  0.6026  0.2700
 2370TIP3    H228746   3.240   4.980   7.852 -1.2890  0.6604 -1.7036
 2371TIP3   OH228747   1.265   6.328   1.695  0.4545  0.4171 -0.3528
 2371TIP3    H128748   1.244   6.235   1.690  1.7590  0.0988 -0.2574
 2371TIP3    H228749   1.180   6.372   1.692 -0.1751 -0.7678 -0.4594
 2372TIP3   OH228750   1.324   6.313   8.155 -0.2815  0.3649 -0.2105
 2372TIP3    H128751   1.360   6.283   8.238 -0.4764 -1.5271 -0.7631
 2372TIP3    H228752   1.295   6.233   8.111  2.0099  0.9958 -3.1837
 2373TIP3   OH228753   6.460   0.567   1.226 -0.3689  0.2977 -0.5029
 2373TIP3    H128754   6.384   0.618   1.196  0.0449  1.8991  1.0165
 2373TIP3    H228755   6.456   0.573   1.321  2.1807  1.2600 -0.3829
 2374TIP3   OH228756   3.906   4.325   0.786  0.4075  0.1888 -0.0402
 2374TIP3    H128757   3.867   4.254   0.736 -1.6469  0.7309  0.7223
 2374TIP3    H228758   3.997   4.328   0.756 -0.5246  0.0140 -3.1894
 2375TIP3   OH228759   1.996   0.188   8.139  0.7322  0.3458  0.5434
 2375TIP3    H128760   1.975   0.191   8.232  0.2553  1.0899  0.4126
 2375TIP3    H228761   1.917   0.217   8.095  1.2738  0.9702 -0.0472
 2376TIP3   OH228762   0.065   6.597   2.876 -0.0260 -0.1455 -0.7471
 2376TIP3    H128763   0.130   6.659   2.843  0.4791  0.6661  1.5727
 2376TIP3    H228764   0.012   6.648   2.937  0.3796 -1.9466  1.2272
 2377TIP3   OH228765   0.405   4.583   2.001  0.0350  0.7381 -0.0753
 2377TIP3    H128766   0.460   4.521   2.049  0.2377  0.1464 -1.0309
 2377TIP3    H228767   0.317   4.568   2.034 -0.0381 -0.6074 -0.8097
 2378TIP3   OH228768   1.081   6.244   2.625  0.0559 -0.2098 -0.8525
 2378TIP3    H128769   1.124   6.283   2.702  1.0451  1.2112 -2.0605
 2378TIP3    H228770   0.999   6.292   2.616 -0.7550 -1.3725  0.1352
 2379TIP3   OH228771   2.567   6.467   2.552 -0.3210  0.4326 -0.5737
 2379TIP3    H128772   2.537   6.382   2.584  0.6435 -0.3737 -1.6702
 2379TIP3    H228773   2.660   6.454   2.534  0.4671  2.4504  1.5151
 2380TIP3   OH228774   2.912   4.632   1.178 -0.5933 -0.1692  0.2340
 2380TIP3    H128775   2.984   4.592   1.129  0.3463  3.2435 -1.4242
 2380TIP3    H228776   2.946   4.639   1.268  0.6188  0.1398 -0.2288
 2381TIP3   OH228777   0.818   6.205   0.846 -0.0652 -0.1293  0.4840
 2381TIP3    H128778   0.833   6.123   0.798  0.4663 -0.4827  1.2229
 2381TIP3    H228779   0.727   6.228   0.827 -0.2180 -0.8917  0.2556
 2382TIP3   OH228780   5.379   5.083   1.963 -0.3945 -0.0743 -0.0147
 2382TIP3    H128781   5.325   5.072   2.041 -0.4630 -2.3433 -0.3133
 2382TIP3    H228782   5.465   5.107   1.996  0.4175 -3.9566  1.0991
 2383TIP3   OH228783   4.950   0.912   0.173  0.1445 -0.3442 -0.5194
 2383TIP3    H128784   4.940   0.895   0.079  0.5693 -1.4720 -0.3698
 2383TIP3    H228785   5.044   0.919   0.186  0.0594  3.4253 -0.7508
 2384TIP3   OH228786   1.364   3.902   8.153 -0.2875 -0.1248  0.2486
 2384TIP3    H128787   1.348   3.994   8.133 -0.9057 -0.3508 -0.3269
 2384TIP3    H228788   1.277   3.866   8.173 -0.2863 -0.9229 -1.0313
 2385TIP3   OH228789   3.423   2.712   2.377  0.1163  0.2757 -0.3013
 2385TIP3    H128790   3.504   2.673   2.408  0.3322  0.2345 -0.9146
 2385TIP3    H228791   3.449   2.796   2.339 -0.5600  2.0379  2.7636
 2386TIP3   OH228792   5.160   2.949   8.010  0.4439 -0.0751 -0.7363
 2386TIP3    H128793   5.196   2.903   7.934 -0.4533 -0.4227 -0.9641
 2386TIP3    H228794   5.084   2.898   8.036  0.7199  0.0517  0.3986
 2387TIP3   OH228795   1.280   0.515   0.963 -0.0243  0.4076  0.3414
 2387TIP3    H128796   1.205   0.575   0.969 -1.5397 -1.5167  2.0568
 2387TIP3    H228797   1.294   0.485   1.053  2.1085 -0.1828 -0.1194
 2388TIP3   OH228798   4.476   0.077   2.633  0.0120  0.5717 -0.0673
 2388TIP3    H128799   4.392   0.072   2.678  1.0937  0.0399  2.0263
 2388TIP3    H228800   4.488  -0.009   2.594  0.2762  0.1093  1.0034
 2389TIP3   OH228801   5.822   4.237   2.437 -0.2586  0.0121  0.1172
 2389TIP3    H128802   5.856   4.285   2.513  0.8109  0.6744 -0.7452
 2389TIP3    H228803   5.735   4.273   2.422  1.6414  4.1441 -2.4483
 2390TIP3   OH228804   2.971   6.873   7.878  0.2571 -0.4095  0.3844
 2390TIP3    H128805   2.936   6.935   7.814  0.5061  0.4616  1.0721
 2390TIP3    H228806   2.894   6.831   7.916  0.0919 -0.6120 -0.1637
 2391TIP3   OH228807   5.684   3.942   1.729  0.1228 -0.3497 -0.1655
 2391TIP3    H128808   5.614   3.932   1.793 -0.9602  0.4362 -1.1864
 2391TIP3    H228809   5.762   3.906   1.773 -0.3282  1.1015  1.9982
 2392TIP3   OH228810   0.472   2.027   2.996  0.4689  0.9959  0.1458
 2392TIP3    H128811   0.494   2.030   3.089 -1.6581 -0.1748  0.7471
 2392TIP3    H228812   0.531   1.962   2.959  2.2055  2.3779  0.3580
 2393TIP3   OH228813   2.353   1.350   2.372 -0.0789 -0.2350  0.2633
 2393TIP3    H128814   2.347   1.261   2.336 -1.0321 -1.2310  2.6867
 2393TIP3    H228815   2.294   1.402   2.317 -1.4262 -1.6649  0.2760
 2394TIP3   OH228816   4.671   6.345   6.968  0.0426 -0.3160  0.0992
 2394TIP3    H128817   4.614   6.394   7.027  1.2146  0.0085  0.9804
 2394TIP3    H228818   4.757   6.348   7.009  0.5643 -1.3801 -0.8676
 2395TIP3   OH228819   5.775   2.974   1.299 -0.3340  0.2145  0.1299
 2395TIP3    H128820   5.768   2.891   1.251  1.9116  0.8301 -1.4291
 2395TIP3    H228821   5.784   2.948   1.391 -0.0379 -1.2569 -0.2855
 2396TIP3   OH228822   4.034   3.855   8.561 -0.2712  0.3360 -0.3571
 2396TIP3    H128823   3.969   3.906   8.513 -0.6638  1.3420  1.1627
 2396TIP3    H228824   3.988   3.778   8.591 -0.0942 -0.1636 -1.3257
 2397TIP3   OH228825   1.386   0.007   7.461 -0.1524 -0.5336  0.4659
 2397TIP3    H128826   1.427  -0.045   7.530  0.0697 -2.0872 -0.7974
 2397TIP3    H228827   1.457   0.028   7.401 -0.6935 -0.9263 -0.3285
 2398TIP3   OH228828   2.708   0.845   8.587 -0.0987 -0.3716 -0.1488
 2398TIP3    H128829   2.673   0.852   8.499  0.5161 -1.4070 -0.5011
 2398TIP3    H228830   2.755   0.927   8.601  1.5132 -0.9603 -1.5996
 2399TIP3   OH228831   1.736   0.113   1.795  0.6517  0.7156 -0.0625
 2399TIP3    H128832   1.657   0.165   1.804  0.1387  0.2956 -1.7627
 2399TIP3    H228833   1.716   0.031   1.840  1.4844  1.8958  2.6784
 2400TIP3   OH228834   2.259   0.813   0.947  0.3345 -0.8315 -0.5296
 2400TIP3    H128835   2.174   0.782   0.979  0.2561 -0.9451 -0.8427
 2400TIP3    H228836   2.238   0.894   0.899  0.1584 -1.7591 -2.0907
 2401TIP3   OH228837   6.080   1.615   0.485  0.1399 -0.3480 -0.4738
 2401TIP3    H128838   5.996   1.602   0.441 -1.1012  1.4223  1.1447
 2401TIP3    H228839   6.062   1.592   0.577  0.7912  1.9341  0.2957
 2402TIP3   OH228840   4.338   1.763   2.886 -1.5168  0.0728  0.3244
 2402TIP3    H128841   4.380   1.678   2.875 -2.2339 -0.3898  1.0306
 2402TIP3    H228842   4.327   1.772   2.981 -1.7264  0.8154  0.2390
 2403TIP3   OH228843   4.220   6.699   8.472  0.5461  0.5194 -0.1073
 2403TIP3    H128844   4.200   6.606   8.486 -2.1814  1.0718  0.3562
 2403TIP3    H228845   4.289   6.718   8.534 -0.1970 -0.7874  1.2064
 2404TIP3   OH228846   5.522   2.087   0.163 -0.1194 -0.0285  0.2681
 2404TIP3    H128847   5.456   2.111   0.098 -0.4892  1.3376  1.1014
 2404TIP3    H228848   5.471   2.054   0.238  0.1910  0.1151  0.5472
 2405TIP3   OH228849   3.869   5.482   0.896  0.1007 -0.3791  0.3978
 2405TIP3    H128850   3.852   5.528   0.979 -0.4481 -0.1208  0.1493
 2405TIP3    H228851   3.885   5.392   0.922  0.7992 -0.1307  0.8632
 2406TIP3   OH228852   4.746   5.298   0.245  0.0758 -0.1424  0.7582
 2406TIP3    H128853   4.730   5.385   0.282  0.2308  0.5194 -0.6698
 2406TIP3    H228854   4.659   5.263   0.226  0.0427  0.1789  0.2961
 2407TIP3   OH228855   0.507   2.885   0.978  0.3778  0.4135  0.0481
 2407TIP3    H128856   0.571   2.860   0.911 -0.3104 -0.5452 -0.2650
 2407TIP3    H228857   0.531   2.975   1.000  2.4500 -0.2129  0.6389
 2408TIP3   OH228858   6.755   5.352   7.516  0.6284 -0.5130  0.2095
 2408TIP3    H128859   6.786   5.272   7.558 -0.5866 -1.1620 -0.0686
 2408TIP3    H228860   6.660   5.342   7.513  0.3518  1.3978  1.0730
 2409TIP3   OH228861   1.209   3.508   3.000  0.4747  0.0219  0.1787
 2409TIP3    H128862   1.126   3.521   3.044 -0.2404  0.8014 -1.3257
 2409TIP3    H228863   1.189   3.450   2.926  0.7569  1.9881 -1.5264
 2410TIP3   OH228864   4.076   4.545   2.679 -0.3426  0.5669  0.9279
 2410TIP3    H128865   4.046   4.471   2.626 -0.4302  1.0519  0.2797
 2410TIP3    H228866   4.006   4.610   2.670  0.3712  1.2807  0.3177
 2411TIP3   OH228867   2.409   4.546   3.291 -0.1727 -0.4378 -0.1445
 2411TIP3    H128868   2.437   4.498   3.213 -0.5186 -0.6686 -0.1235
 2411TIP3    H228869   2.348   4.488   3.335  0.8663 -0.7743  0.8952
 2412TIP3   OH228870   1.471   4.073   8.427 -0.3921  0.2915  0.0119
 2412TIP3    H128871   1.388   4.089   8.471  0.0385  1.0573  0.5627
 2412TIP3    H228872   1.455   4.101   8.336 -0.7588  0.3441  0.0897
 2413TIP3   OH228873   5.334   6.458   2.542  0.0685 -0.4596 -0.0931
 2413TIP3    H128874   5.295   6.458   2.630  0.6205 -0.3116  0.1553
 2413TIP3    H228875   5.419   6.501   2.554 -0.6720  1.3732 -1.0738
 2414TIP3   OH228876   6.630   4.295   3.125 -0.1854 -0.0735  0.6829
 2414TIP3    H128877   6.690   4.332   3.189 -0.1621  1.1672 -0.0239
 2414TIP3    H228878   6.679   4.296   3.043 -0.8878  0.2032  0.2568
 2415TIP3   OH228879   4.926   1.015   1.583  0.2147 -0.0899 -0.1800
 2415TIP3    H128880   4.949   0.943   1.524 -0.3194 -0.9309  0.6053
 2415TIP3    H228881   4.974   0.997   1.664  0.2276  0.5490 -0.0358
 2416TIP3   OH228882   1.105   6.128   0.564 -0.6216 -0.3788 -0.0219
 2416TIP3    H128883   1.076   6.211   0.525 -0.8945 -1.6121 -2.7151
 2416TIP3    H228884   1.201   6.131   0.557 -0.6825 -0.7564 -1.2847
 2417TIP3   OH228885   0.501   6.565   3.194 -0.4205  0.4167 -0.1687
 2417TIP3    H128886   0.571   6.630   3.203 -0.8462  0.8705 -0.0861
 2417TIP3    H228887   0.536   6.486   3.235 -0.8386  1.3137  2.0932
 2418TIP3   OH228888   4.374   1.825   8.265 -1.0314  0.2626  0.1990
 2418TIP3    H128889   4.357   1.801   8.356  0.1655 -0.5247  0.2365
 2418TIP3    H228890   4.468   1.843   8.262 -0.5405 -2.1253 -1.3791
 2419TIP3   OH228891   5.019   4.911   2.375 -0.1830 -0.2435 -0.0829
 2419TIP3    H128892   4.928   4.908   2.404  0.0119 -2.8716  0.4802
 2419TIP3    H228893   5.047   4.820   2.375  1.5393  0.1610 -3.2623
 2420TIP3   OH228894   6.669   6.133   1.243  0.0432  0.4552 -0.5547
 2420TIP3    H128895   6.714   6.060   1.285 -0.2290  1.0511  0.8339
 2420TIP3    H228896   6.686   6.208   1.301 -1.1567  1.0935 -0.9919
 2421TIP3   OH228897   2.569   2.784   0.514  0.0686  0.6790  0.0400
 2421TIP3    H128898   2.659   2.766   0.541 -0.2071 -0.3719  0.2910
 2421TIP3    H228899   2.578   2.837   0.434  0.8949  1.6260  0.7400
 2422TIP3   OH228900   2.061   4.409   2.635 -0.5801 -0.5735 -0.2270
 2422TIP3    H128901   2.131   4.438   2.577 -1.2784 -0.7745 -1.1924
 2422TIP3    H228902   2.038   4.322   2.603 -0.9169 -0.7258  0.4128
 2423TIP3   OH228903   0.279   4.878   3.366 -0.2344 -0.5946  0.4084
 2423TIP3    H128904   0.271   4.965   3.404 -2.1802 -0.5486  0.0036
 2423TIP3    H228905   0.353   4.838   3.411  0.6302  1.2194  0.6692
 2424TIP3   OH228906   6.119   1.805   0.148 -0.1854  0.3327 -0.1754
 2424TIP3    H128907   6.069   1.734   0.109  0.1917 -0.4222  0.6844
 2424TIP3    H228908   6.131   1.868   0.076  1.2214 -1.3788 -1.5588
 2425TIP3   OH228909   1.960   6.622   3.404 -0.2240 -0.2524  0.2575
 2425TIP3    H128910   1.881   6.665   3.438 -0.3927 -0.6332  0.3613
 2425TIP3    H228911   1.950   6.530   3.430 -0.4584 -0.6067 -0.9891
 2426TIP3   OH228912   3.117   2.453   0.978  0.1476  0.2906 -0.1177
 2426TIP3    H128913   3.141   2.545   0.992 -1.2458  0.7722 -0.7445
 2426TIP3    H228914   3.048   2.436   1.041  0.3359 -0.3043 -0.0678
 2427TIP3   OH228915   1.239   5.540   2.126 -0.8984 -0.0111  0.4999
 2427TIP3    H128916   1.256   5.591   2.046 -0.6841 -2.4209 -1.1120
 2427TIP3    H228917   1.317   5.553   2.179 -0.3996  0.5084 -0.3322
 2428TIP3   OH228918   3.732   3.426   1.172 -0.3143  0.4018  0.6267
 2428TIP3    H128919   3.785   3.373   1.231 -1.2884  0.2658  1.4035
 2428TIP3    H228920   3.666   3.365   1.138  0.3833  0.4176 -0.8086
 2429TIP3   OH228921   2.929   1.910   2.981  0.7639 -0.1427  0.2915
 2429TIP3    H128922   2.976   1.847   3.034 -1.8664 -1.7889  0.8412
 2429TIP3    H228923   2.929   1.990   3.033  0.0218 -1.1258  1.8722
 2430TIP3   OH228924   6.133   2.497   2.687  0.1777 -0.1605  0.2630
 2430TIP3    H128925   6.091   2.515   2.771 -1.3058 -1.0090 -0.2676
 2430TIP3    H228926   6.135   2.582   2.643 -0.9992 -0.0994  0.3018
 2431TIP3   OH228927   5.170   3.264   7.247 -0.1481 -0.0991 -0.1168
 2431TIP3    H128928   5.259   3.297   7.260  0.9095 -2.3193 -1.2574
 2431TIP3    H228929   5.122   3.339   7.211  1.7931  0.6156 -1.3757
 2432TIP3   OH228930   2.929   1.872   1.870 -0.0568 -0.0779 -0.2320
 2432TIP3    H128931   3.008   1.821   1.886  0.9718  1.6851  0.6081
 2432TIP3    H228932   2.860   1.824   1.917  0.4882 -1.5605 -0.8630
 2433TIP3   OH228933   3.754   5.688   1.438 -0.4072 -0.3111  0.4159
 2433TIP3    H128934   3.824   5.752   1.424 -0.3226 -0.5233 -0.1481
 2433TIP3    H228935   3.772   5.652   1.525 -1.6190  1.8801  1.6537
 2434TIP3   OH228936   1.903   6.100   3.426  0.1565  0.3461 -0.7523
 2434TIP3    H128937   1.827   6.063   3.471  0.0590  1.6015  0.1502
 2434TIP3    H228938   1.975   6.041   3.450 -0.3942 -0.5038 -1.1254
 2435TIP3   OH228939   1.033   0.714   1.011  0.8161  0.4786  0.5586
 2435TIP3    H128940   1.028   0.641   0.948  1.8366 -0.3944  1.4475
 2435TIP3    H228941   1.055   0.790   0.958 -2.0608  0.5947 -0.6836
 2436TIP3   OH228942   1.304   5.792   7.758 -0.3347  0.2430 -0.0796
 2436TIP3    H128943   1.392   5.778   7.794  0.0785 -0.3534 -1.2821
 2436TIP3    H228944   1.304   5.882   7.727  0.0767  0.0531 -0.6491
 2437TIP3   OH228945   4.206   3.887   2.736  0.0586  0.3581 -0.1524
 2437TIP3    H128946   4.252   3.900   2.819  0.0772  0.3606 -0.1631
 2437TIP3    H228947   4.192   3.975   2.702  1.5401  0.3146 -0.9699
 2438TIP3   OH228948   4.751   5.680   1.702 -0.0111 -0.1664 -0.1375
 2438TIP3    H128949   4.682   5.613   1.709  2.2226 -2.7613 -0.9778
 2438TIP3    H228950   4.743   5.712   1.612  0.1647 -0.8575 -0.4114
 2439TIP3   OH228951   0.249   2.062   8.650  0.3490 -0.1141 -0.4936
 2439TIP3    H128952   0.183   2.002   8.616 -0.1434  1.9205 -3.5420
 2439TIP3    H228953   0.333   2.025   8.621  0.5705 -1.8243  1.9757
 2440TIP3   OH228954   5.729   4.483   0.713 -0.2831  0.1565  0.5839
 2440TIP3    H128955   5.807   4.523   0.751 -0.7305  0.5201  1.1433
 2440TIP3    H228956   5.726   4.395   0.751  1.7881 -1.2252 -2.1425
 2441TIP3   OH228957   3.460   3.880   3.219 -0.1512 -0.6501  0.0703
 2441TIP3    H128958   3.525   3.820   3.257  0.1494 -1.2560 -1.3337
 2441TIP3    H228959   3.385   3.824   3.199  0.6747 -0.9245 -2.6070
 2442TIP3   OH228960   4.320   1.562   8.202 -0.1263  0.4839  0.4368
 2442TIP3    H128961   4.303   1.655   8.216  1.2180  0.7636  0.3788
 2442TIP3    H228962   4.392   1.542   8.262 -0.3656 -0.5073  0.4063
 2443TIP3   OH228963   1.410   5.776   1.072 -0.0517 -0.0173  0.4782
 2443TIP3    H128964   1.384   5.707   1.011  1.6277 -0.6475  0.4347
 2443TIP3    H228965   1.336   5.784   1.132 -1.4225  0.0826 -1.1467
 2444TIP3   OH228966   1.642   5.519   2.004 -0.0325 -0.8394  0.0479
 2444TIP3    H128967   1.582   5.526   2.079  1.9218 -0.2686  1.6606
 2444TIP3    H228968   1.585   5.502   1.929 -2.5100  2.4908  0.9516
 2445TIP3   OH228969   1.139   0.607   8.452  0.8693  0.6564 -0.0017
 2445TIP3    H128970   1.099   0.521   8.441  0.0460  1.1162 -0.7949
 2445TIP3    H228971   1.155   0.614   8.546 -0.2841  0.1483  0.2569
 2446TIP3   OH228972   5.339   4.724   2.175 -0.1575 -0.1910 -0.0736
 2446TIP3    H128973   5.307   4.800   2.126 -1.1674  0.9976  2.2961
 2446TIP3    H228974   5.348   4.755   2.265  3.8326 -1.6190  0.2449
 2447TIP3   OH228975   0.072   0.864   2.044 -0.2298 -0.1502  0.0404
 2447TIP3    H128976   0.012   0.790   2.048 -0.8056  0.2314 -1.1769
 2447TIP3    H228977   0.150   0.833   2.091 -1.1466 -0.8426  1.1698
 2448TIP3   OH228978   3.078   0.588   2.977 -0.0189 -0.4270  0.1451
 2448TIP3    H128979   3.009   0.523   2.966  0.6772 -0.9075 -1.9065
 2448TIP3    H228980   3.047   0.645   3.047 -1.4470 -1.9313  0.8002
 2449TIP3   OH228981   5.780   1.361   1.859  0.4509 -0.4131  0.0515
 2449TIP3    H128982   5.808   1.342   1.948  0.7052  1.4758  0.4202
 2449TIP3    H228983   5.715   1.431   1.869  0.4763 -0.1851 -1.2318
 2450TIP3   OH228984   5.119   4.632   0.701  0.3001 -0.4356  0.1539
 2450TIP3    H128985   5.146   4.619   0.610 -1.0949 -0.4872 -0.2779
 2450TIP3    H228986   5.090   4.545   0.730  1.0990 -0.5043  0.7887
 2451TIP3   OH228987   1.801   3.356   2.829  0.2624  0.1180  0.6692
 2451TIP3    H128988   1.711   3.379   2.804  0.2115 -0.0574  0.6921
 2451TIP3    H228989   1.854   3.428   2.796  0.3663 -0.7299 -1.1037
 2452TIP3   OH228990   0.510   2.834   8.287  0.7007  0.5590 -0.1006
 2452TIP3    H128991   0.587   2.886   8.310  0.9031 -0.3580  1.4132
 2452TIP3    H228992   0.529   2.746   8.321 -0.1372 -0.2190 -1.5336
 2453TIP3   OH228993   3.289   3.080   0.067  0.4550 -0.0937  0.1273
 2453TIP3    H128994   3.291   3.092  -0.029  1.0352  2.2863  0.3571
 2453TIP3    H228995   3.216   3.136   0.096  0.8152 -0.1263  1.1307
 2454TIP3   OH228996   6.507   3.947   3.797  0.4279  0.3620 -0.4119
 2454TIP3    H128997   6.580   3.885   3.804 -0.7093 -0.9557  0.2034
 2454TIP3    H228998   6.449   3.909   3.731 -0.3290  0.7387  0.0233
 2455TIP3   OH228999   5.375   2.065   8.579 -0.1449 -0.5654  0.4709
 2455TIP3    H129000   5.378   2.161   8.574  0.4512 -0.6134 -0.5017
 2455TIP3    H229001   5.282   2.044   8.577 -0.2875 -0.0664 -1.7818
 2456TIP3   OH229002   4.167   2.720   0.929 -0.2848  0.0807 -0.2634
 2456TIP3    H129003   4.121   2.702   0.847 -0.5892 -2.8125  0.4188
 2456TIP3    H229004   4.101   2.760   0.986 -0.8311 -0.3214 -0.6034
 2457TIP3   OH229005   0.327   3.144   8.148  0.0948 -0.1659  0.5623
 2457TIP3    H129006   0.399   3.132   8.209 -0.1435 -0.0525  0.8692
 2457TIP3    H229007   0.281   3.222   8.180  0.3881  0.3169 -0.1770
 2458TIP3   OH229008   6.629   5.972   2.939 -0.2460  0.2043 -0.1129
 2458TIP3    H129009   6.713   5.926   2.941 -0.8440 -0.9902 -1.0300
 2458TIP3    H229010   6.629   6.025   3.018  1.4288  0.3428 -0.1667
 2459TIP3   OH229011   6.261   2.865   0.003 -0.0647 -0.0851  0.1280
 2459TIP3    H129012   6.236   2.781   0.041 -2.0287 -0.2510 -1.3472
 2459TIP3    H229013   6.264   2.925   0.078 -0.9562 -0.9925  0.9231
 2460TIP3   OH229014   1.946   1.675   2.286  0.2243 -0.0763 -0.1897
 2460TIP3    H129015   2.005   1.682   2.361  0.5316 -1.8679 -0.2137
 2460TIP3    H229016   1.946   1.762   2.247 -0.6762  1.1875  2.4169
 2461TIP3   OH229017   4.555   6.360   8.211  0.2600  0.4095 -0.5115
 2461TIP3    H129018   4.622   6.420   8.179  0.4476 -0.6759 -2.3049
 2461TIP3    H229019   4.479   6.378   8.156  0.0215 -0.3354 -0.4318
 2462TIP3   OH229020   5.590   5.170   2.134 -0.4053  0.1438 -0.1656
 2462TIP3    H129021   5.633   5.256   2.127  1.0573 -0.6302 -1.3412
 2462TIP3    H229022   5.544   5.173   2.218  1.3266  1.3444  0.8028
 2463TIP3   OH229023   3.016   6.824   1.363  0.3400  0.2486  0.1204
 2463TIP3    H129024   3.069   6.794   1.289 -0.7798  0.1638 -0.6776
 2463TIP3    H229025   3.048   6.912   1.382  1.1756 -0.0399  0.0533
 2464TIP3   OH229026   4.230   3.033   1.514  0.0024  0.0379 -0.0546
 2464TIP3    H129027   4.324   3.050   1.517 -0.0356  0.2425 -0.0015
 2464TIP3    H229028   4.221   2.942   1.543  0.0588  0.4652  1.3792
 2465TIP3   OH229029   0.523   6.010   7.482 -0.1540 -0.3361 -0.5893
 2465TIP3    H129030   0.445   6.005   7.538 -0.0100  0.0031 -0.3586
 2465TIP3    H229031   0.589   6.053   7.536  0.2155 -0.6776 -0.7677
 2466TIP3   OH229032   3.505   6.357   0.943  0.4145  0.2208 -0.2989
 2466TIP3    H129033   3.454   6.346   0.862  0.4146  1.7755 -0.5516
 2466TIP3    H229034   3.440   6.351   1.013  0.1611  0.4312 -0.5147
 2467TIP3   OH229035   0.717   3.104   1.769  0.6727  0.0841 -0.0487
 2467TIP3    H129036   0.754   3.178   1.817  0.3473  1.3357 -1.6545
 2467TIP3    H229037   0.793   3.052   1.744  0.9282  0.0077  0.8592
 2468TIP3   OH229038   4.122   4.983   2.583 -0.2707 -0.1044  0.1064
 2468TIP3    H129039   4.208   5.009   2.550 -0.3984 -0.4446 -0.5251
 2468TIP3    H229040   4.063   5.053   2.553 -0.4601 -0.6307 -0.7908
 2469TIP3   OH229041   4.856   2.390   1.847  0.0491 -0.1862 -0.5197
 2469TIP3    H129042   4.845   2.434   1.931  1.3728 -1.6378  0.4754
 2469TIP3    H229043   4.945   2.413   1.819  1.1269 -2.7642  0.4587
 2470TIP3   OH229044   5.051   2.142   1.907 -0.4574 -0.2260  0.0013
 2470TIP3    H129045   5.074   2.050   1.908  2.1717  0.3262  1.8467
 2470TIP3    H229046   5.083   2.174   1.822  2.4004 -0.3167  0.9171
 2471TIP3   OH229047   3.618   4.617   0.783 -0.4051 -0.1848  0.0016
 2471TIP3    H129048   3.560   4.693   0.778 -0.8929 -0.4797  0.9726
 2471TIP3    H229049   3.608   4.575   0.698  0.5927  1.3301 -0.9134
 2472TIP3   OH229050   0.343   3.294   1.658 -0.5015 -0.7179 -0.5095
 2472TIP3    H129051   0.373   3.296   1.749  1.3997 -0.0833 -1.1156
 2472TIP3    H229052   0.256   3.254   1.663  0.0151 -1.7272  1.4530
 2473TIP3   OH229053   3.994   1.638   1.820 -0.4662  0.1344 -0.2211
 2473TIP3    H129054   3.966   1.730   1.819 -0.5275  0.1463 -1.9594
 2473TIP3    H229055   3.983   1.610   1.729  0.3256 -1.3639  0.1199
 2474TIP3   OH229056   0.727   3.431   2.846  0.2162 -0.1741 -0.0293
 2474TIP3    H129057   0.786   3.395   2.912  0.1696 -0.2349 -0.0206
 2474TIP3    H229058   0.689   3.509   2.887 -0.2565 -0.5369  0.2366
 2475TIP3   OH229059   4.850   2.435   8.013 -0.3155  0.0376  0.5607
 2475TIP3    H129060   4.839   2.346   7.981  3.6319 -1.1808  1.9679
 2475TIP3    H229061   4.869   2.487   7.935  1.3310 -1.2526  0.0376
 2476TIP3   OH229062   0.812   4.988   8.148 -0.1040  0.3599 -0.4412
 2476TIP3    H129063   0.761   4.911   8.174 -1.4111  0.6545 -1.9917
 2476TIP3    H229064   0.880   4.953   8.090  0.9559  0.0878  0.9022
 2477TIP3   OH229065   4.953   2.356   0.532 -0.3689 -0.5308  0.2749
 2477TIP3    H129066   5.029   2.359   0.473  0.8346 -0.3779  1.7731
 2477TIP3    H229067   4.878   2.347   0.473  0.8580 -1.5358 -1.2322
 2478TIP3   OH229068   1.002   2.877   0.180 -0.1128  0.0025 -0.1866
 2478TIP3    H129069   1.081   2.824   0.170  0.7115  0.5810  2.3078
 2478TIP3    H229070   1.034   2.967   0.177 -0.4634  0.2368  1.8344
 2479TIP3   OH229071   4.657   1.593   0.082 -0.4106  0.5455 -0.0325
 2479TIP3    H129072   4.578   1.611   0.133  0.0124 -1.8901  1.6620
 2479TIP3    H229073   4.728   1.597   0.146 -0.0112 -4.1781  0.1463
 2480TIP3   OH229074   5.739   6.151   1.406 -0.2177  0.5990  0.1982
 2480TIP3    H129075   5.659   6.133   1.454  0.5932 -3.7253  0.2668
 2480TIP3    H229076   5.714   6.146   1.314 -0.1783  0.1774  0.2120
 2481TIP3   OH229077   4.217   3.976   7.513  0.1573  0.5363  0.5100
 2481TIP3    H129078   4.129   4.008   7.535 -0.2696 -0.8741  0.9610
 2481TIP3    H229079   4.223   3.984   7.418 -2.4487 -3.8889 -0.3020
 2482TIP3   OH229080   5.535   3.305   7.833 -0.7083  0.3520  0.4165
 2482TIP3    H129081   5.517   3.296   7.739  1.8696 -0.8830 -0.0356
 2482TIP3    H229082   5.611   3.362   7.837 -0.6837  0.2558  1.7686
 2483TIP3   OH229083   5.221   2.313   2.865 -0.3164  0.2517 -0.3810
 2483TIP3    H129084   5.219   2.222   2.896  1.1540 -0.0448 -1.0875
 2483TIP3    H229085   5.228   2.305   2.770 -0.0941  1.1063 -0.4393
 2484TIP3   OH229086   2.207   4.572   7.906  0.2217 -0.3475 -0.2527
 2484TIP3    H129087   2.164   4.622   7.836  2.3178  2.6826  0.4084
 2484TIP3    H229088   2.172   4.609   7.987  1.1819 -0.5597  0.2768
 2485TIP3   OH229089   1.602   4.909   1.974  0.0843  0.2034  0.0218
 2485TIP3    H129090   1.595   5.004   1.968 -0.1430  0.1055 -1.5669
 2485TIP3    H229091   1.515   4.880   2.001  0.3291  0.4706  1.1535
 2486TIP3   OH229092   4.495   4.843   0.788 -0.0427  0.4913 -0.0391
 2486TIP3    H129093   4.511   4.853   0.694 -0.1363 -1.3223 -0.2929
 2486TIP3    H229094   4.571   4.794   0.820 -0.1818  0.7894  0.7659
 2487TIP3   OH229095   3.200   1.887   7.750  0.3028  0.2325 -0.6683
 2487TIP3    H129096   3.121   1.833   7.754 -0.1028  0.7785 -1.0641
 2487TIP3    H229097   3.242   1.862   7.668 -0.3094  1.0628 -1.2615
 2488TIP3   OH229098   0.208   5.618   1.080 -0.1078  0.0303  0.1698
 2488TIP3    H129099   0.128   5.653   1.119  0.5104 -0.5891  2.1444
 2488TIP3    H229100   0.237   5.550   1.141 -0.8489 -3.5416 -3.0974
 2489TIP3   OH229101   5.415   3.087   1.876 -0.1540 -0.0103  0.4484
 2489TIP3    H129102   5.436   3.173   1.912 -0.4527 -0.2033  1.1062
 2489TIP3    H229103   5.492   3.034   1.895  0.1081  0.1575 -0.1283
 2490TIP3   OH229104   3.226   0.502   1.457  0.2161 -0.3552 -0.0206
 2490TIP3    H129105   3.226   0.466   1.368 -2.0923 -2.8153  0.8503
 2490TIP3    H229106   3.178   0.584   1.449  0.7049 -0.1569 -1.1660
 2491TIP3   OH229107   1.673   6.540   3.433  0.1681  0.3132 -0.1319
 2491TIP3    H129108   1.628   6.467   3.390 -1.5875  0.3310  1.5462
 2491TIP3    H229109   1.650   6.617   3.381 -2.6055  0.4651  1.1706
 2492TIP3   OH229110   6.346   4.345   8.504  0.0976  0.4677 -0.3758
 2492TIP3    H129111   6.270   4.399   8.526 -1.8779 -2.5684  0.8979
 2492TIP3    H229112   6.344   4.340   8.408  0.1534  2.3141 -0.5050
 2493TIP3   OH229113   0.824   3.240   0.477  0.1578 -0.3530 -0.6346
 2493TIP3    H129114   0.828   3.147   0.499  3.3271  0.3174  2.4476
 2493TIP3    H229115   0.744   3.271   0.521  0.9879 -1.0439  1.5122
 2494TIP3   OH229116   6.632   2.262   1.123  0.0696 -0.6374  1.1438
 2494TIP3    H129117   6.726   2.270   1.141 -0.0786 -0.6371  1.9715
 2494TIP3    H229118   6.595   2.227   1.205 -0.4916 -1.7168  0.4532
 2495TIP3   OH229119   4.987   3.959   7.863  0.1634  0.0829  0.0602
 2495TIP3    H129120   5.082   3.973   7.865 -0.0124  1.5668 -0.4342
 2495TIP3    H229121   4.950   4.046   7.877 -1.1262 -0.3682 -0.3942
 2496TIP3   OH229122   0.100   4.375   2.730 -0.1444 -0.6284  0.0323
 2496TIP3    H129123   0.155   4.414   2.798  1.2031  2.3003 -2.4747
 2496TIP3    H229124   0.132   4.285   2.722  2.4122  0.1285  0.6303
 2497TIP3   OH229125   5.883   6.676   8.295  0.2355  0.2012 -0.3948
 2497TIP3    H129126   5.863   6.592   8.337  0.9388 -0.2946 -1.0150
 2497TIP3    H229127   5.870   6.741   8.363  2.8711 -0.7058  1.1148
 2498TIP3   OH229128   5.298   1.492   1.144  0.0530  0.2946 -0.0267
 2498TIP3    H129129   5.390   1.491   1.171  0.3122 -2.4770 -0.6452
 2498TIP3    H229130   5.301   1.492   1.048 -0.5746  0.0468 -0.0534
 2499TIP3   OH229131   0.058   6.444   0.099  0.5506  0.3905  0.0358
 2499TIP3    H129132   0.044   6.445   0.193  1.4499  0.9053  0.1782
 2499TIP3    H229133  -0.005   6.508   0.065 -0.3343 -0.3788  0.1858
 2500TIP3   OH229134   0.172   5.187   2.448  0.6836  0.3912  0.0491
 2500TIP3    H129135   0.251   5.134   2.457  1.8907  1.9746 -0.6758
 2500TIP3    H229136   0.149   5.179   2.355  1.0315  1.2937 -0.1273
 2501TIP3   OH229137   6.629   3.717   2.752 -0.0818 -0.0817 -0.1786
 2501TIP3    H129138   6.621   3.810   2.733 -0.5985 -0.2880 -1.0567
 2501TIP3    H229139   6.562   3.701   2.819 -0.6668  0.0032 -0.7296
 2502TIP3   OH229140   5.689   4.169   2.000  0.3013 -0.3032 -0.0425
 2502TIP3    H129141   5.685   4.105   1.929 -0.0101  0.7412 -0.9936
 2502TIP3    H229142   5.750   4.131   2.063  2.4459 -0.2047 -1.9477
 2503TIP3   OH229143   6.802   4.124   8.289  0.3180  0.2715  0.4204
 2503TIP3    H129144   6.724   4.084   8.251  1.5287 -1.5854 -0.2054
 2503TIP3    H229145   6.769   4.202   8.333 -1.6971  0.2684 -0.9539
 2504TIP3   OH229146   5.888   0.622   8.003  0.0953 -0.0289  0.4336
 2504TIP3    H129147   5.908   0.540   8.048  2.0863 -0.2900 -0.7975
 2504TIP3    H229148   5.813   0.658   8.050  0.5033 -1.5029  2.3194
 2505TIP3   OH229149   1.811   0.998   7.855  0.2563 -0.4420 -0.2038
 2505TIP3    H129150   1.773   1.082   7.831  1.0659  0.5058  1.6370
 2505TIP3    H229151   1.880   0.983   7.790 -0.7474 -0.3353 -1.3126
 2506TIP3   OH229152   2.793   0.239   1.829  0.1420 -0.2967 -0.2056
 2506TIP3    H129153   2.722   0.251   1.893  0.4271  1.2408 -0.1500
 2506TIP3    H229154   2.854   0.310   1.848  0.2829  0.1388 -2.1462
 2507TIP3   OH229155   0.863   4.005   3.056 -0.1951 -0.1264 -0.3308
 2507TIP3    H129156   0.853   4.044   3.143  0.0579  2.0529 -1.1987
 2507TIP3    H229157   0.958   3.997   3.045 -0.1122  1.4058 -1.0749
 2508TIP3   OH229158   6.725   4.364   1.777  0.2024 -0.3933 -0.1739
 2508TIP3    H129159   6.807   4.322   1.800 -0.5121 -0.7401  1.9006
 2508TIP3    H229160   6.737   4.392   1.686  2.0849 -1.6508 -0.3593
 2509TIP3   OH229161   4.795   6.072   2.955 -0.6272  0.7589  0.1913
 2509TIP3    H129162   4.878   6.102   2.992 -0.9571  1.5895  0.2805
 2509TIP3    H229163   4.750   6.153   2.929 -0.1469  0.2472 -2.6320
 2510TIP3   OH229164   4.821   1.339   2.264 -0.0445 -0.1456 -0.0260
 2510TIP3    H129165   4.816   1.262   2.321  0.6815 -0.7053 -0.6965
 2510TIP3    H229166   4.832   1.303   2.176  1.3987  0.7071 -0.2340
 2511TIP3   OH229167   2.604   6.137   3.366  0.5368  0.1958 -0.3384
 2511TIP3    H129168   2.699   6.146   3.376  0.4229  0.0126  1.1509
 2511TIP3    H229169   2.593   6.071   3.297  1.5410 -1.2363  0.7992
 2512TIP3   OH229170   4.028   0.667   1.905 -0.2385 -0.2888  0.2929
 2512TIP3    H129171   3.987   0.592   1.862 -0.2526 -0.7477  1.0792
 2512TIP3    H229172   4.087   0.703   1.839  1.4511 -2.3456  0.5495
 2513TIP3   OH229173   6.663   2.899   7.540 -0.2292 -0.2379 -0.6456
 2513TIP3    H129174   6.623   2.898   7.627 -0.2250  0.1007 -0.6393
 2513TIP3    H229175   6.590   2.919   7.481  0.1646  1.8533 -0.5005
 2514TIP3   OH229176   1.392   2.823   0.370 -0.5695 -0.0793 -0.7624
 2514TIP3    H129177   1.407   2.916   0.354 -1.9618  0.3050  0.0601
 2514TIP3    H229178   1.478   2.789   0.397 -0.1141  1.0163 -0.7875
 2515TIP3   OH229179   3.839   5.106   7.263 -0.0960 -0.6368  0.7040
 2515TIP3    H129180   3.828   5.188   7.311  0.4709 -0.1945  0.1071
 2515TIP3    H229181   3.856   5.040   7.330  2.5274  0.2807  1.0517
 2516TIP3   OH229182   2.731   4.007   2.793  0.5812  0.3824  0.3275
 2516TIP3    H129183   2.754   3.916   2.812 -2.0902 -0.2906  0.7840
 2516TIP3    H229184   2.705   4.006   2.701  0.1123  0.5567  0.4544
 2517TIP3   OH229185   6.663   6.155   8.378  0.4244  0.5005  0.1012
 2517TIP3    H129186   6.725   6.218   8.416  0.7181  0.0460  0.3772
 2517TIP3    H229187   6.696   6.140   8.290  1.3588 -0.5926  0.6176
 2518TIP3   OH229188   6.706   5.022   0.690  0.2168  0.2029  0.2424
 2518TIP3    H129189   6.746   5.050   0.772 -2.6369 -0.4950  1.9888
 2518TIP3    H229190   6.646   5.093   0.667  0.7590  0.2548 -1.1320
 2519TIP3   OH229191   6.834   3.844   0.676 -0.3109 -0.3869 -0.3434
 2519TIP3    H129192   6.887   3.923   0.684 -1.0890  0.0613  0.6405
 2519TIP3    H229193   6.817   3.817   0.767  0.8488 -2.3302 -0.6440
 2520TIP3   OH229194   5.325   3.449   0.428 -0.1267 -0.4807 -0.5757
 2520TIP3    H129195   5.395   3.474   0.367 -0.7694  1.5664 -0.5355
 2520TIP3    H229196   5.249   3.435   0.372 -0.1875 -0.7250 -0.4321
 2521TIP3   OH229197   2.253   2.816   8.344 -0.8237 -0.5100 -0.0948
 2521TIP3    H129198   2.174   2.862   8.375 -0.7071 -0.7994  0.6329
 2521TIP3    H229199   2.307   2.886   8.306 -1.4536 -0.3168 -0.6744
 2522TIP3   OH229200   1.993   1.302   3.176 -0.4952  0.0309  0.6517
 2522TIP3    H129201   1.920   1.278   3.232 -0.4821  0.9447  1.0753
 2522TIP3    H229202   2.070   1.291   3.231 -0.2387 -1.3937  0.0629
 2523TIP3   OH229203   1.193   2.748   7.748 -0.5578 -0.9261 -0.1817
 2523TIP3    H129204   1.167   2.840   7.738  0.8213 -0.6946 -2.0840
 2523TIP3    H229205   1.214   2.739   7.841 -0.5782  0.7224  0.0126
 2524TIP3   OH229206   2.034   1.927   7.824 -0.3907 -0.0345  0.2876
 2524TIP3    H129207   2.114   1.941   7.875 -1.3155  0.5235  1.6404
 2524TIP3    H229208   1.970   1.986   7.863 -1.9809 -1.7409  0.3975
 2525TIP3   OH229209   0.332   6.193   2.594  0.1707 -0.0316  0.4560
 2525TIP3    H129210   0.366   6.134   2.661  0.3907  0.3780  0.7075
 2525TIP3    H229211   0.354   6.281   2.626  0.3578  0.1629 -0.1960
 2526TIP3   OH229212   1.633   6.472   7.999  0.0329  0.2896  0.3840
 2526TIP3    H129213   1.665   6.390   8.037 -0.0844 -0.1338 -0.4124
 2526TIP3    H229214   1.540   6.457   7.982 -0.3142  1.0723  1.5029
 2527TIP3   OH229215   0.794   1.874   0.795  0.1788 -0.2204  0.1619
 2527TIP3    H129216   0.702   1.899   0.788  0.1332 -0.0514  1.2615
 2527TIP3    H229217   0.806   1.809   0.726 -0.1749  1.4018 -1.5139
 2528TIP3   OH229218   0.493   3.688   8.424 -0.2339 -0.6903  0.0605
 2528TIP3    H129219   0.569   3.739   8.452  1.1197 -2.8766  0.6409
 2528TIP3    H229220   0.507   3.671   8.331  0.1333 -1.2982  0.2222
 2529TIP3   OH229221   1.958   6.273   0.846 -0.2943  0.6032 -0.4840
 2529TIP3    H129222   1.963   6.358   0.802 -0.2834  0.3611 -0.9519
 2529TIP3    H229223   1.895   6.287   0.917 -0.7341  0.8455 -0.9146
 2530TIP3   OH229224   3.574   1.046   2.055 -0.1484 -0.0671 -0.3370
 2530TIP3    H129225   3.668   1.061   2.063 -0.2440  0.3031  0.1214
 2530TIP3    H229226   3.558   1.041   1.961  0.3293 -0.1320 -0.4163
 2531TIP3   OH229227   0.485   5.750   2.872  0.6316  0.1147 -0.0745
 2531TIP3    H129228   0.426   5.676   2.890  1.1273 -0.6412 -1.4330
 2531TIP3    H229229   0.531   5.764   2.955 -2.3371  1.6127  1.5053
 2532TIP3   OH229230   4.373   0.227   1.323  0.3398  0.2221  0.1870
 2532TIP3    H129231   4.323   0.155   1.284 -1.6662  1.8717 -0.5296
 2532TIP3    H229232   4.312   0.301   1.321  2.6121  2.1909  0.0242
 2533TIP3   OH229233   3.608   1.320   0.154  0.0237  0.2998  0.8101
 2533TIP3    H129234   3.683   1.316   0.212  0.9420  1.1581 -0.2684
 2533TIP3    H229235   3.546   1.379   0.199  0.0150 -0.3366  1.6525
 2534TIP3   OH229236   6.121   3.474   1.690 -0.0748 -0.1831  0.1545
 2534TIP3    H129237   6.202   3.515   1.718  0.5246 -1.6438  0.6258
 2534TIP3    H229238   6.147   3.413   1.621 -0.8203 -0.3746  0.0303
 2535TIP3   OH229239   5.628   6.456   1.481 -0.2162 -0.4349 -0.2132
 2535TIP3    H129240   5.579   6.417   1.553  0.4127 -0.1993  0.3497
 2535TIP3    H229241   5.703   6.398   1.469 -0.5601 -0.7272 -0.9888
 2536TIP3   OH229242   4.687   3.611   0.979  0.2932 -0.3577 -0.1615
 2536TIP3    H129243   4.719   3.576   0.896  1.6297 -0.9297  0.5675
 2536TIP3    H229244   4.717   3.703   0.979  0.2329 -0.3380 -0.3412
 2537TIP3   OH229245   3.941   3.014   0.157 -0.2166  0.5227  0.6295
 2537TIP3    H129246   3.950   3.094   0.208 -1.5814  1.0717  0.0641
 2537TIP3    H229247   4.003   3.024   0.084 -0.8808  1.4134  0.1630
 2538TIP3   OH229248   2.969   4.730   8.200  0.4796 -0.3539 -0.6494
 2538TIP3    H129249   3.007   4.725   8.288 -1.9459 -1.1501  0.4515
 2538TIP3    H229250   2.926   4.816   8.198  0.1768 -0.5092 -0.8805
 2539TIP3   OH229251   1.020   5.644   8.385 -0.1658  0.7177  0.1004
 2539TIP3    H129252   1.003   5.691   8.303  0.2040 -1.2454 -1.1822
 2539TIP3    H229253   0.981   5.558   8.371  0.0621  0.2841  1.9402
 2540TIP3   OH229254   2.530   4.865   0.327 -0.2148 -0.1905 -0.4192
 2540TIP3    H129255   2.537   4.900   0.238 -0.8982  1.2906  0.0725
 2540TIP3    H229256   2.483   4.782   0.318 -1.4285  0.5639 -1.3264
 2541TIP3   OH229257   1.026   2.324   1.218 -0.6056  1.2935 -0.6932
 2541TIP3    H129258   1.110   2.293   1.253  0.1700  3.6376 -0.2870
 2541TIP3    H229259   1.029   2.301   1.125 -0.5461 -0.6313 -0.2671
 2542TIP3   OH229260   4.656   3.369   0.294 -0.1066 -0.4762  0.3188
 2542TIP3    H129261   4.689   3.428   0.361 -0.6697  0.1391  0.0687
 2542TIP3    H229262   4.733   3.345   0.242  0.3567 -1.0569  1.2379
 2543TIP3   OH229263   5.480   6.583   8.371 -0.2333 -0.5094 -0.2388
 2543TIP3    H129264   5.525   6.639   8.434  0.0925  0.6174 -1.4370
 2543TIP3    H229265   5.550   6.546   8.317 -0.5045 -1.5374  0.0852
 2544TIP3   OH229266   2.728   6.763   2.952  0.3547  0.5670  0.0949
 2544TIP3    H129267   2.664   6.693   2.957 -0.5588  1.2807 -1.1027
 2544TIP3    H229268   2.778   6.744   2.872  0.2109  1.1761 -0.1458
 2545TIP3   OH229269   5.328   2.537   1.577  0.2257  0.0050  0.2341
 2545TIP3    H129270   5.291   2.552   1.490  1.7673  1.9091 -0.1574
 2545TIP3    H229271   5.332   2.442   1.586 -0.4516 -0.2237 -1.5505
 2546TIP3   OH229272   6.581   3.993   3.015 -0.0982  0.0233 -0.1813
 2546TIP3    H129273   6.520   4.066   3.022 -2.2883 -1.8293  1.7202
 2546TIP3    H229274   6.656   4.020   3.069 -1.1203  0.6878  0.9600
 2547TIP3   OH229275   4.696   0.324   0.017 -0.3883 -0.0117  0.1255
 2547TIP3    H129276   4.713   0.403  -0.034 -0.9015 -0.2836 -0.4893
 2547TIP3    H229277   4.689   0.254  -0.048 -0.5235 -0.4624  0.6112
 2548TIP3   OH229278   5.749   0.735   2.408 -0.2297 -0.2679 -0.1790
 2548TIP3    H129279   5.707   0.668   2.354  2.0049 -1.8038 -0.1757
 2548TIP3    H229280   5.799   0.788   2.346  0.2231 -0.3748  0.0867
 2549TIP3   OH229281   6.207   4.766   2.760  0.2269  0.2599  0.4226
 2549TIP3    H129282   6.131   4.765   2.818  0.2111  0.2438  0.4014
 2549TIP3    H229283   6.194   4.691   2.702  0.5011 -0.0281  0.7329
 2550TIP3   OH229284   5.137   1.519   1.667  0.2215 -0.3074 -0.2825
 2550TIP3    H129285   5.069   1.578   1.634  0.4571 -0.1304 -0.4565
 2550TIP3    H229286   5.090   1.457   1.723 -0.1191 -0.3432 -0.6066
 2551TIP3   OH229287   0.338   0.077   8.259 -0.3912  1.1240 -0.4245
 2551TIP3    H129288   0.300   0.160   8.287  1.6560  1.6465  0.9924
 2551TIP3    H229289   0.301   0.013   8.320 -0.4039  1.3099 -0.2370
 2552TIP3   OH229290   3.840   0.184   2.177  0.0625  0.1957 -0.0736
 2552TIP3    H129291   3.809   0.275   2.169  1.1105  0.5952  0.2183
 2552TIP3    H229292   3.788   0.135   2.113 -0.2309  1.0765 -0.5296
 2553TIP3   OH229293   4.019   3.870   0.848  0.1364  0.5613 -0.4245
 2553TIP3    H129294   3.985   3.780   0.838  1.4589  0.1008 -0.9597
 2553TIP3    H229295   3.963   3.922   0.790  1.1408 -0.4132 -2.3821
 2554TIP3   OH229296   4.724   2.395   7.711  0.2428  0.5321  0.4229
 2554TIP3    H129297   4.670   2.327   7.670  1.3265  0.1884 -0.5032
 2554TIP3    H229298   4.666   2.471   7.716 -0.7304 -0.1930  0.6893
 2555TIP3   OH229299   0.269   3.156   2.478  0.1781 -0.2315 -0.4738
 2555TIP3    H129300   0.309   3.224   2.424 -0.0806  1.3463  1.2298
 2555TIP3    H229301   0.185   3.138   2.435 -0.0040  0.9476 -0.6468
 2556TIP3   OH229302   1.632   1.205   1.445 -0.1224 -0.2160 -0.2630
 2556TIP3    H129303   1.561   1.248   1.493  0.0951  0.1229 -0.2418
 2556TIP3    H229304   1.593   1.124   1.412 -0.7793  0.4012 -1.0427
 2557TIP3   OH229305   1.807   2.326   7.876 -0.7705 -0.4508 -0.1470
 2557TIP3    H129306   1.776   2.398   7.930 -1.9352 -0.9361 -0.1449
 2557TIP3    H229307   1.862   2.274   7.934 -0.4328  0.0930  0.0238
 2558TIP3   OH229308   4.864   0.924   3.486  0.1185 -0.3917  0.3486
 2558TIP3    H129309   4.831   1.004   3.444  0.4725 -1.7282 -2.7579
 2558TIP3    H229310   4.785   0.880   3.518 -0.3888 -0.1173 -0.4788
 2559TIP3   OH229311   1.370   6.421   3.164  0.0898  0.2052  0.0475
 2559TIP3    H129312   1.319   6.342   3.147  0.0468 -0.0507  1.2221
 2559TIP3    H229313   1.453   6.389   3.199  0.5896  0.6521 -0.7069
 2560TIP3   OH229314   3.793   4.229   2.155  0.7821 -0.6485  0.3120
 2560TIP3    H129315   3.745   4.212   2.236  0.5802 -0.0548  0.3217
 2560TIP3    H229316   3.783   4.149   2.104 -0.7013 -0.3449  0.0803
 2561TIP3   OH229317   3.052   0.240   7.630  0.1551 -0.1951  0.7782
 2561TIP3    H129318   2.962   0.229   7.658 -0.4493  0.0726 -0.9512
 2561TIP3    H229319   3.052   0.321   7.578  1.7763  0.8224  2.2421
 2562TIP3   OH229320   0.247   0.144   2.126  0.1085 -0.0477  0.5256
 2562TIP3    H129321   0.161   0.121   2.090  0.4187  0.7855 -0.8412
 2562TIP3    H229322   0.234   0.146   2.220 -0.7697 -2.3324  0.5347
 2563TIP3   OH229323   1.726   4.612   8.451 -0.5620 -0.1212 -0.2002
 2563TIP3    H129324   1.743   4.705   8.436  0.7193 -0.1459  0.9580
 2563TIP3    H229325   1.705   4.605   8.544  0.9476 -1.1662  0.1056
 2564TIP3   OH229326   0.426   0.595   1.546  0.6495  0.0374 -0.0183
 2564TIP3    H129327   0.375   0.579   1.467  0.8925  0.9573 -0.3677
 2564TIP3    H229328   0.402   0.683   1.573 -0.0964 -0.5892  1.4500
 2565TIP3   OH229329   2.576   3.782   2.315 -0.6513 -0.3313 -0.1995
 2565TIP3    H129330   2.523   3.769   2.236 -0.7548 -0.6145 -0.0827
 2565TIP3    H229331   2.570   3.877   2.331 -0.0704 -0.1668 -0.9197
 2566TIP3   OH229332   6.617   6.674   1.871  0.1213  0.1616  0.0158
 2566TIP3    H129333   6.685   6.620   1.913 -1.2423 -1.1619  0.5875
 2566TIP3    H229334   6.649   6.686   1.781  0.5194 -1.5405 -0.1064
 2567TIP3   OH229335   5.451   2.399   2.046 -0.0198  0.5040  0.1162
 2567TIP3    H129336   5.541   2.380   2.019 -0.0606  1.2098 -0.5364
 2567TIP3    H229337   5.446   2.495   2.046 -0.5913  0.4760  0.7504
 2568TIP3   OH229338   4.319   2.920   0.511 -0.3622 -0.5138  0.1172
 2568TIP3    H129339   4.320   2.826   0.489 -0.9314 -0.6483  0.6371
 2568TIP3    H229340   4.370   2.926   0.592 -1.3199 -0.5500  0.7297
 2569TIP3   OH229341   6.152   3.151   2.091  0.1511 -0.3442 -0.0809
 2569TIP3    H129342   6.149   3.187   2.180 -0.4747 -0.6975  0.0512
 2569TIP3    H229343   6.183   3.223   2.037  1.6331 -0.4508  0.5743
 2570TIP3   OH229344   6.658   3.966   1.733 -0.8764 -0.5718  0.5094
 2570TIP3    H129345   6.727   3.921   1.685 -1.3507  0.3801 -1.1605
 2570TIP3    H229346   6.603   3.896   1.768 -0.0448 -1.3085  0.3523
 2571TIP3   OH229347   6.560   0.703   2.334  0.6084 -0.6321  0.0830
 2571TIP3    H129348   6.558   0.797   2.318  0.7240 -0.7528 -0.6463
 2571TIP3    H229349   6.651   0.678   2.321  0.6679 -0.7757  0.7187
 2572TIP3   OH229350   6.084   0.216   2.235 -0.3341  0.3926 -0.1689
 2572TIP3    H129351   6.020   0.173   2.179 -0.4556 -0.0690  0.3243
 2572TIP3    H229352   6.053   0.307   2.241  0.5822  0.8889 -2.1949
 2573TIP3   OH229353   2.429   0.974   2.419  0.8424 -0.0658 -0.5074
 2573TIP3    H129354   2.381   0.939   2.344 -2.1124 -0.2144  1.3074
 2573TIP3    H229355   2.377   1.049   2.447  1.3407 -0.5418  1.8916
 2574TIP3   OH229356   5.187   0.871   8.491  0.4578 -0.4342  0.0086
 2574TIP3    H129357   5.122   0.802   8.502  0.3736 -0.2984  0.3881
 2574TIP3    H229358   5.262   0.828   8.451 -0.1702 -0.4271 -1.2127
 2575TIP3   OH229359   2.790   1.206   8.394  0.0344  0.3634  0.3834
 2575TIP3    H129360   2.818   1.253   8.473 -0.5752  0.5564  0.4938
 2575TIP3    H229361   2.840   1.246   8.323 -0.0378  0.7785  0.5606
 2576TIP3   OH229362   4.902   6.716   2.344  0.1074  0.5207 -0.3062
 2576TIP3    H129363   4.956   6.729   2.267  0.6762 -0.8892 -0.1581
 2576TIP3    H229364   4.954   6.662   2.403 -1.9784 -2.2553 -0.8003
 2577TIP3   OH229365   6.821   3.347   3.048  0.1594 -0.2931  0.0841
 2577TIP3    H129366   6.732   3.312   3.040  0.4777 -0.7105 -2.1635
 2577TIP3    H229367   6.878   3.271   3.043  0.7281  0.1950 -1.3728
 2578TIP3   OH229368   0.759   1.850   1.863 -0.3332 -0.1153  0.5941
 2578TIP3    H129369   0.791   1.781   1.922  3.5881  0.9038  0.0046
 2578TIP3    H229370   0.780   1.818   1.776 -1.7294  0.3711  0.0649
 2579TIP3   OH229371   0.972   2.056   0.151  1.0336 -0.4660  0.0015
 2579TIP3    H129372   0.969   2.037   0.057 -0.5702 -0.8157  0.1011
 2579TIP3    H229373   0.882   2.079   0.174  1.8379  1.9452  1.0066
 2580TIP3   OH229374   0.445   1.346   2.984 -0.0304  0.0390 -0.4141
 2580TIP3    H129375   0.493   1.278   3.031 -2.1339 -2.1017 -1.1271
 2580TIP3    H229376   0.355   1.336   3.013 -0.5454  2.0534 -1.1645
 2581TIP3   OH229377   1.263   1.982   2.705  0.5614  0.2647 -0.0687
 2581TIP3    H129378   1.344   2.027   2.683  1.4553 -1.4215 -0.3710
 2581TIP3    H229379   1.285   1.889   2.703 -1.4797 -0.2687 -0.5710
 2582TIP3   OH229380   1.862   0.512   2.624  0.3735 -0.0503 -0.2713
 2582TIP3    H129381   1.804   0.555   2.562 -1.3371  0.8379  1.8412
 2582TIP3    H229382   1.825   0.424   2.635  0.5215 -0.1142 -0.2718
 2583TIP3   OH229383   1.630   0.107   2.851  0.0614 -0.2504  0.7469
 2583TIP3    H129384   1.672   0.172   2.907  0.1422  1.6728 -1.3753
 2583TIP3    H229385   1.685   0.029   2.858  1.6813  0.8881  1.1317
 2584TIP3   OH229386   3.888   3.266   1.351  0.3767 -0.4994  0.4144
 2584TIP3    H129387   3.894   3.171   1.352  0.1305 -0.5206 -0.1281
 2584TIP3    H229388   3.832   3.287   1.426  0.8000 -0.7486  0.8073
 2585TIP3   OH229389   1.360   3.930   2.005 -0.0797 -0.2265  0.5489
 2585TIP3    H129390   1.278   3.938   2.055 -0.3425  1.3638 -0.0612
 2585TIP3    H229391   1.405   4.013   2.021  0.1989 -0.0047 -1.1871
 2586TIP3   OH229392   2.704   2.473   1.963  0.0506 -0.5224  0.0810
 2586TIP3    H129393   2.649   2.517   1.899  1.3134  1.8771  0.4895
 2586TIP3    H229394   2.648   2.464   2.041 -0.3325  0.2182 -0.0950
 2587TIP3   OH229395   5.534   4.533   7.621  0.4689  0.1865  0.5559
 2587TIP3    H129396   5.555   4.440   7.623 -2.0737 -0.4739  0.1771
 2587TIP3    H229397   5.473   4.542   7.547 -1.6981  1.5386  2.3752
 2588TIP3   OH229398   0.743   0.671   3.040  0.1791 -0.3050 -0.1432
 2588TIP3    H129399   0.764   0.756   3.001 -0.3141 -0.3972 -0.6187
 2588TIP3    H229400   0.718   0.616   2.966 -0.3984 -0.5981  0.2615
 2589TIP3   OH229401   1.766   1.223   3.324  0.3615  0.1208 -0.2207
 2589TIP3    H129402   1.696   1.288   3.317  2.2661  2.3093 -0.4499
 2589TIP3    H229403   1.766   1.198   3.416 -0.9062 -0.1760 -0.2818
 2590TIP3   OH229404   3.099   1.931   0.548  0.5418  0.1272  0.1970
 2590TIP3    H129405   3.115   1.893   0.461  0.9375  0.9806 -0.1168
 2590TIP3    H229406   3.047   1.865   0.594 -0.3831  0.0108 -0.9687
 2591TIP3   OH229407   1.785   2.291   0.729  0.0648 -0.4804 -0.0986
 2591TIP3    H129408   1.846   2.362   0.709  1.0697 -1.4405 -0.5632
 2591TIP3    H229409   1.784   2.286   0.824  1.6103 -1.1703 -0.0899
 2592TIP3   OH229410   5.586   0.705   1.210  0.2789  0.6288  0.8363
 2592TIP3    H129411   5.572   0.743   1.297 -0.1213 -0.8329  1.4452
 2592TIP3    H229412   5.577   0.611   1.224  2.4143  0.1687 -0.3636
 2593TIP3   OH229413   0.363   6.096   1.476  0.3914  0.0100  0.5325
 2593TIP3    H129414   0.317   6.031   1.423 -0.1814 -1.0910  2.3323
 2593TIP3    H229415   0.435   6.125   1.420 -0.7584 -0.3533 -1.2337
 2594TIP3   OH229416   3.273   3.004   0.626  0.2393 -0.6651 -0.1107
 2594TIP3    H129417   3.351   2.949   0.621  0.2293 -0.6536 -0.3872
 2594TIP3    H229418   3.208   2.959   0.572  0.4990  0.0673 -1.0467
 2595TIP3   OH229419   1.531   5.995   8.145 -0.3174  0.1685  0.4874
 2595TIP3    H129420   1.479   5.918   8.123 -0.6478  0.6736 -0.5745
 2595TIP3    H229421   1.547   6.039   8.061 -2.0097  2.4118  1.2235
 2596TIP3   OH229422   6.410   4.254   3.286 -0.2956 -0.6067 -0.8652
 2596TIP3    H129423   6.474   4.265   3.215  0.0648 -0.8286 -0.5807
 2596TIP3    H229424   6.458   4.208   3.354 -0.1665  0.9620  0.1623
 2597TIP3   OH229425   4.494   3.103   3.272  0.7279  0.2196  0.2395
 2597TIP3    H129426   4.510   3.018   3.232  0.6954  0.9690 -1.4522
 2597TIP3    H229427   4.549   3.104   3.350  1.4272 -1.0038 -0.2160
 2598TIP3   OH229428   5.723   2.002   8.009 -0.0650  0.1315 -0.2410
 2598TIP3    H129429   5.778   2.002   7.930 -0.7365 -1.7206 -0.7759
 2598TIP3    H229430   5.636   2.027   7.977  0.1701  1.8370  0.3842
 2599TIP3   OH229431   4.241   5.579   0.331 -0.6756  0.0623  0.0013
 2599TIP3    H129432   4.283   5.602   0.247 -1.7685  0.1239 -0.5476
 2599TIP3    H229433   4.242   5.661   0.381 -1.3928  0.4378 -0.5694
 2600TIP3   OH229434   6.475   1.154   0.706 -0.9299 -0.0611  0.1801
 2600TIP3    H129435   6.418   1.091   0.663 -0.6141  0.2449 -0.6976
 2600TIP3    H229436   6.422   1.234   0.712 -1.4019 -0.4358  1.4733
 2601TIP3   OH229437   5.862   0.980   2.868 -0.7373  0.4561 -0.5914
 2601TIP3    H129438   5.833   0.958   2.779 -0.7855 -3.8624  0.2851
 2601TIP3    H229439   5.786   1.023   2.907 -1.9766 -0.6170 -1.6946
 2602TIP3   OH229440   6.845   0.645   2.298  0.3995  0.1381 -0.1629
 2602TIP3    H129441   6.906   0.571   2.304  0.5693  0.2966  0.1095
 2602TIP3    H229442   6.822   0.649   2.205  3.6614  2.3286 -1.0412
 2603TIP3   OH229443   1.232   4.194   0.487 -0.4824  0.1231  0.7765
 2603TIP3    H129444   1.203   4.106   0.464  0.8583  0.4117 -2.6233
 2603TIP3    H229445   1.326   4.185   0.502  0.2322  1.2395 -2.3055
 2604TIP3   OH229446   5.850   5.135   7.008  0.2779  0.2022 -0.6287
 2604TIP3    H129447   5.882   5.114   7.096 -1.0709 -2.2832 -0.6293
 2604TIP3    H229448   5.755   5.126   7.015  0.0438  1.3330 -2.0429
 2605TIP3   OH229449   6.480   5.413   2.020  0.1856 -0.0327  0.1489
 2605TIP3    H129450   6.465   5.451   1.934 -3.3020 -1.3745 -0.0076
 2605TIP3    H229451   6.566   5.373   2.014  1.9390  3.4974 -1.2054
 2606TIP3   OH229452   0.144   2.782   1.769  0.1985 -0.1013  0.2934
 2606TIP3    H129453   0.082   2.853   1.754 -1.1410 -1.8736 -4.4817
 2606TIP3    H229454   0.100   2.724   1.832 -1.4061  0.4123 -0.3197
 2607TIP3   OH229455   4.292   2.355   7.444 -0.1311  0.2213  0.0411
 2607TIP3    H129456   4.225   2.368   7.376  0.8289 -0.0134 -0.9936
 2607TIP3    H229457   4.302   2.260   7.449  0.0619  0.2512  0.2406
 2608TIP3   OH229458   6.074   6.009   0.787  0.4443 -0.0145  0.4242
 2608TIP3    H129459   6.114   6.031   0.703  0.1611  2.1887  0.7975
 2608TIP3    H229460   6.055   5.916   0.781  1.6903 -0.1995 -1.4096
 2609TIP3   OH229461   0.713   5.410   2.539 -0.1322 -0.7570 -0.3443
 2609TIP3    H129462   0.644   5.444   2.597 -1.1465 -1.5783 -1.0280
 2609TIP3    H229463   0.779   5.375   2.599 -1.7801 -2.8201  0.4105
 2610TIP3   OH229464   0.540   5.822   8.627  0.2999 -0.1580  0.0587
 2610TIP3    H129465   0.465   5.873   8.597  0.2980  0.2544  0.7404
 2610TIP3    H229466   0.561   5.858   8.713  1.7292  0.1991 -0.4180
 2611TIP3   OH229467   2.999   5.772   0.665  0.3383 -0.0181 -0.2128
 2611TIP3    H129468   2.936   5.790   0.596  0.8933 -0.8155 -0.9503
 2611TIP3    H229469   3.085   5.786   0.624  0.6832  2.1759  1.0694
 2612TIP3   OH229470   5.889   5.329   0.368 -0.0567 -0.2597  0.2502
 2612TIP3    H129471   5.812   5.338   0.312 -0.9054 -0.2806  1.3850
 2612TIP3    H229472   5.867   5.256   0.427  1.2057 -0.8729 -0.0026
 2613TIP3   OH229473   1.719   0.210   2.406  0.7785  0.2816 -0.1611
 2613TIP3    H129474   1.705   0.274   2.476  0.6559  2.3814 -2.0083
 2613TIP3    H229475   1.646   0.149   2.414 -0.4694  1.7664  0.2144
 2614TIP3   OH229476   1.903   2.710   1.382  0.1190  0.1691 -0.2156
 2614TIP3    H129477   1.945   2.725   1.466 -2.2902  2.9602  0.6686
 2614TIP3    H229478   1.844   2.636   1.396  0.0119  0.3831  0.4738
 2615TIP3   OH229479   5.254   4.536   3.405  0.0001  0.0971  0.1643
 2615TIP3    H129480   5.165   4.508   3.382 -0.4602  0.5794  1.3002
 2615TIP3    H229481   5.309   4.461   3.381 -1.0211 -1.2133  1.6961
 2616TIP3   OH229482   6.657   0.256   8.563  0.4096  0.5930  0.3527
 2616TIP3    H129483   6.574   0.215   8.590 -0.5279  1.6309 -0.8484
 2616TIP3    H229484   6.633   0.347   8.543  1.6886  0.6954 -0.7941
 2617TIP3   OH229485   3.201   6.035   2.127 -0.7984  0.0596 -0.4645
 2617TIP3    H129486   3.128   5.991   2.084 -0.5162 -1.5016  0.5573
 2617TIP3    H229487   3.272   5.971   2.126  0.8823  1.8123 -2.1490
 2618TIP3   OH229488   2.397   5.285   1.430  0.2715 -0.0696 -0.2304
 2618TIP3    H129489   2.402   5.352   1.362 -0.6213 -0.4773 -0.7120
 2618TIP3    H229490   2.320   5.310   1.482  0.3979 -0.2873  0.0660
 2619TIP3   OH229491   2.242   3.413   1.885  0.2327  0.0297  0.0594
 2619TIP3    H129492   2.265   3.496   1.844 -0.0648 -0.3749 -0.9626
 2619TIP3    H229493   2.204   3.438   1.970  0.0191  0.9373 -0.2924
 2620TIP3   OH229494   0.767   6.254   0.069  0.4098 -0.1345  0.1005
 2620TIP3    H129495   0.708   6.245  -0.006  0.5873 -1.0744  0.0641
 2620TIP3    H229496   0.742   6.337   0.109 -1.1112 -0.6280  0.2316
 2621TIP3   OH229497   1.674   3.149   2.273  0.5336  0.0271 -0.5987
 2621TIP3    H129498   1.659   3.079   2.336  0.8065  2.8830  2.9586
 2621TIP3    H229499   1.752   3.122   2.225  0.2791 -2.3205  0.1762
 2622TIP3   OH229500   4.780   0.382   0.730 -0.4450 -0.3572 -0.0721
 2622TIP3    H129501   4.804   0.336   0.649  1.2206  1.9173 -0.9733
 2622TIP3    H229502   4.788   0.475   0.708 -3.0071  0.4220  1.8566
 2623TIP3   OH229503   6.228   1.879   8.547 -0.1105 -0.4085 -0.0444
 2623TIP3    H129504   6.176   1.877   8.467  0.7050  1.7419 -0.6983
 2623TIP3    H229505   6.256   1.788   8.560 -3.5038 -1.5618  0.0705
 2624TIP3   OH229506   5.652   2.906   1.833 -0.5194 -0.3807 -0.2115
 2624TIP3    H129507   5.709   2.982   1.843 -0.8250 -0.4276  2.9615
 2624TIP3    H229508   5.603   2.923   1.753 -0.3014  2.6057  0.1726
 2625TIP3   OH229509   4.983   4.468   0.866  0.4622 -0.1183 -0.7964
 2625TIP3    H129510   5.007   4.376   0.880  1.5822  0.0834 -1.3267
 2625TIP3    H229511   4.903   4.464   0.813 -0.1787 -0.7815  0.1709
 2626TIP3   OH229512   1.491   4.036   0.760 -0.1677  0.2634  0.7326
 2626TIP3    H129513   1.410   3.987   0.752  0.0857 -0.4118  1.9820
 2626TIP3    H229514   1.559   3.969   0.775  0.6762  0.7911 -0.5293
 2627TIP3   OH229515   5.438   0.554   8.187  0.4185  0.6289 -0.3407
 2627TIP3    H129516   5.368   0.502   8.227  0.9381  0.1329 -0.0688
 2627TIP3    H229517   5.518   0.522   8.228  1.3380 -1.8299 -3.5962
 2628TIP3   OH229518   3.764   5.036   7.510 -0.3041 -0.1552 -0.0983
 2628TIP3    H129519   3.695   4.970   7.514 -0.6136 -0.1030 -2.8168
 2628TIP3    H229520   3.718   5.120   7.516  0.0127 -0.0841  2.4926
 2629TIP3   OH229521   4.529   6.561   0.876  0.2585 -0.1163 -0.9528
 2629TIP3    H129522   4.558   6.589   0.962  2.0092 -1.7833 -0.9216
 2629TIP3    H229523   4.451   6.614   0.858  0.0113  0.4752  1.4982
 2630TIP3   OH229524   6.087   3.887   0.393 -0.1232 -0.4473  0.6458
 2630TIP3    H129525   6.180   3.889   0.415 -0.0405 -1.4432  0.4026
 2630TIP3    H229526   6.053   3.970   0.427  0.8293 -0.1170  0.8166
 2631TIP3   OH229527   3.573   6.646   3.168 -0.3991 -0.7484  0.2827
 2631TIP3    H129528   3.602   6.554   3.164  1.8938 -0.0646 -0.9169
 2631TIP3    H229529   3.601   6.676   3.255  0.3997 -0.7568  0.0385
 2632TIP3   OH229530   3.778   4.010   3.279 -0.4821 -0.1336  0.1934
 2632TIP3    H129531   3.864   4.049   3.296 -0.5715  1.0727 -1.8306
 2632TIP3    H229532   3.797   3.918   3.259  0.1010 -0.3531  1.6440
 2633TIP3   OH229533   5.449   1.471   8.508  0.2176  0.6593 -0.0257
 2633TIP3    H129534   5.522   1.450   8.449  0.2011  0.6392 -0.0387
 2633TIP3    H229535   5.471   1.557   8.544 -0.5429  1.4165 -1.2854
 2634TIP3   OH229536   0.036   1.388   2.850 -0.0210  0.1798 -0.5164
 2634TIP3    H129537   0.052   1.442   2.928  0.7271 -1.9953  0.9333
 2634TIP3    H229538   0.115   1.397   2.797  0.0834  0.5194 -0.3040
 2635TIP3   OH229539   3.273   5.261   3.370  0.0294 -0.3746 -0.0516
 2635TIP3    H129540   3.354   5.220   3.339  2.1732  1.6024  2.4400
 2635TIP3    H229541   3.247   5.319   3.299  1.3854 -0.2861 -0.5041
 2636TIP3   OH229542   2.360   4.466   1.029  0.5730 -0.4514 -0.3716
 2636TIP3    H129543   2.391   4.393   1.082  1.0804 -0.3523 -0.5327
 2636TIP3    H229544   2.330   4.426   0.947  3.8221 -0.2144 -1.8108
 2637TIP3   OH229545   6.474   1.615   8.348  0.1544  0.0869  0.2669
 2637TIP3    H129546   6.394   1.654   8.315  0.5931  0.5526 -0.2719
 2637TIP3    H229547   6.534   1.615   8.273  0.9293  0.4982  0.8647
 2638TIP3   OH229548   1.053   0.086   2.047 -0.1803  0.2337  0.0031
 2638TIP3    H129549   1.032   0.058   1.958 -0.5051 -0.8016  0.3965
 2638TIP3    H229550   0.982   0.145   2.071  0.3890  1.2650 -0.7438
 2639TIP3   OH229551   5.205   2.794   2.870  0.2204 -0.2099  0.1833
 2639TIP3    H129552   5.219   2.723   2.932 -2.1336 -0.2246  0.7717
 2639TIP3    H229553   5.123   2.835   2.898  0.6447  1.6908 -1.1426
 2640TIP3   OH229554   1.677   1.231   7.720 -0.2673 -0.0067 -0.0576
 2640TIP3    H129555   1.746   1.213   7.656 -0.5575 -0.8926 -0.1352
 2640TIP3    H229556   1.595   1.218   7.672 -0.5375  2.1402 -0.2844
 2641TIP3   OH229557   6.278   4.795   1.815  0.0531 -0.0361  0.4245
 2641TIP3    H129558   6.203   4.841   1.853 -0.8565 -0.6702 -0.5464
 2641TIP3    H229559   6.346   4.801   1.881 -1.3803 -0.8648  2.0503
 2642TIP3   OH229560   2.807   5.096   0.579 -0.1224 -0.0835 -0.1009
 2642TIP3    H129561   2.751   5.174   0.569  1.5922  1.2815  0.4477
 2642TIP3    H229562   2.797   5.071   0.671 -0.3979 -0.3067 -0.1896
 2643TIP3   OH229563   3.101   5.537   2.030  0.1581  0.0824 -0.2154
 2643TIP3    H129564   3.109   5.468   2.096 -1.6682 -0.4214 -0.4927
 2643TIP3    H229565   3.106   5.619   2.081  1.7793 -0.2128  0.1701
 2644TIP3   OH229566   4.086   3.459   1.356 -0.3057  0.3176 -0.3319
 2644TIP3    H129567   4.085   3.407   1.436 -1.4097  1.3391  0.3640
 2644TIP3    H229568   4.008   3.431   1.309 -1.7981  2.3175  0.7749
 2645TIP3   OH229569   5.869   2.529   0.985  0.2073  0.5206 -0.0482
 2645TIP3    H129570   5.891   2.436   0.972  1.4779  0.8818 -0.6202
 2645TIP3    H229571   5.937   2.576   0.936 -0.0714  1.7678  0.7434
 2646TIP3   OH229572   4.861   4.281   2.722 -0.1752  0.5373  0.5960
 2646TIP3    H129573   4.942   4.311   2.765  0.4133 -1.6295  1.0870
 2646TIP3    H229574   4.816   4.228   2.787 -1.9629  1.5612  0.2665
 2647TIP3   OH229575   1.616   5.781   8.405 -0.1747 -0.2263 -0.1173
 2647TIP3    H129576   1.544   5.796   8.467  0.0711 -0.1327  0.1499
 2647TIP3    H229577   1.606   5.690   8.378 -0.7936 -0.0221 -0.6011
 2648TIP3   OH229578   0.660   4.578   7.753  0.3981 -0.2657 -0.2771
 2648TIP3    H129579   0.731   4.622   7.798  0.5850  0.3561 -1.1531
 2648TIP3    H229580   0.696   4.556   7.667  0.1604 -1.7186 -0.0337
 2649TIP3   OH229581   4.772   3.031   2.608  0.4009 -0.3163 -0.0198
 2649TIP3    H129582   4.859   3.000   2.631 -0.1645 -1.7637  0.2719
 2649TIP3    H229583   4.780   3.126   2.607  1.4534 -0.3345  2.1588
 2650TIP3   OH229584   0.989   2.986   1.082 -0.6210 -0.2840 -0.2842
 2650TIP3    H129585   0.952   2.909   1.126 -1.5074  0.1229 -0.2813
 2650TIP3    H229586   1.076   2.959   1.054 -0.0270 -0.5737  1.7072
 2651TIP3   OH229587   5.496   3.232   0.217 -0.8083 -0.1474 -0.8453
 2651TIP3    H129588   5.511   3.287   0.139 -2.8056  1.8047  0.0260
 2651TIP3    H229589   5.564   3.259   0.278 -0.6761  0.0632 -1.0808
 2652TIP3   OH229590   6.030   2.946   0.299 -0.3872 -0.6411  0.4930
 2652TIP3    H129591   6.085   3.000   0.241 -2.0860  1.4958  0.7167
 2652TIP3    H229592   6.064   2.857   0.288  3.2416  0.5045  0.8153
 2653TIP3   OH229593   1.436   1.887   0.713  0.4966 -0.0238 -0.2485
 2653TIP3    H129594   1.515   1.935   0.741  0.5885 -0.2031 -0.1996
 2653TIP3    H229595   1.371   1.906   0.781  0.3811  0.4325 -0.4877
 2654TIP3   OH229596   4.856   6.088   7.340  0.0263  0.0068  0.5030
 2654TIP3    H129597   4.898   6.129   7.264 -3.6177  1.7643 -0.8042
 2654TIP3    H229598   4.822   6.006   7.306 -1.9971  1.0000  0.0155
 2655TIP3   OH229599   4.454   1.341   7.776 -0.1659  0.0700  0.0911
 2655TIP3    H129600   4.537   1.355   7.823  0.1750 -1.4499  0.0123
 2655TIP3    H229601   4.386   1.366   7.839  0.3337  0.1723  0.6007
 2656TIP3   OH229602   5.988   6.274   2.083 -0.3905 -0.4127 -0.1613
 2656TIP3    H129603   6.081   6.294   2.077 -1.0360  2.7445 -1.5354
 2656TIP3    H229604   5.972   6.212   2.012  0.7194 -1.4723  0.4754
 2657TIP3   OH229605   0.147   3.341   8.223  0.2164 -0.0042  0.1518
 2657TIP3    H129606   0.119   3.385   8.303  2.0719  0.5280  0.5630
 2657TIP3    H229607   0.159   3.412   8.160 -2.4300 -0.5255 -1.0414
 2658TIP3   OH229608   4.300   4.530   0.737 -0.1969  0.1993 -0.0875
 2658TIP3    H129609   4.252   4.449   0.720  0.7241 -0.7182  1.4233
 2658TIP3    H229610   4.241   4.581   0.793 -0.3274  0.0715 -0.1084
 2659TIP3   OH229611   0.419   5.848   7.294  0.6776 -0.1074 -0.0770
 2659TIP3    H129612   0.355   5.810   7.355 -0.5108  0.3735 -0.9914
 2659TIP3    H229613   0.479   5.897   7.350 -0.3264  0.2338  0.7282
 2660TIP3   OH229614   4.659   1.176   1.876  0.1200  0.1772 -0.1324
 2660TIP3    H129615   4.591   1.123   1.918 -0.3865  2.4354  2.0717
 2660TIP3    H229616   4.623   1.265   1.875  2.0526  0.9947 -1.2280
 2661TIP3   OH229617   0.662   4.694   0.742 -0.0865  0.1695 -0.1819
 2661TIP3    H129618   0.613   4.776   0.733  0.8920  0.8957  0.7883
 2661TIP3    H229619   0.616   4.647   0.812 -1.0146 -0.4060 -1.1588
 2662TIP3   OH229620   4.953   0.589   7.918 -0.2102  0.3744 -0.4288
 2662TIP3    H129621   4.947   0.632   7.833  0.4394  0.2697 -0.5299
 2662TIP3    H229622   4.980   0.499   7.898 -1.8088 -0.1912 -0.2418
 2663TIP3   OH229623   3.705   1.344   1.432 -0.1642  0.3207  0.0472
 2663TIP3    H129624   3.627   1.399   1.428  0.5662  1.4139  0.5665
 2663TIP3    H229625   3.730   1.344   1.525  0.7987  0.4667 -0.2056
 2664TIP3   OH229626   0.879   4.106   2.157 -0.2066 -0.4166 -0.4911
 2664TIP3    H129627   0.840   4.051   2.224  0.8352  0.2324  0.7055
 2664TIP3    H229628   0.942   4.161   2.205 -0.9861  1.6022 -1.6549
 2665TIP3   OH229629   1.999   4.426   1.973 -0.0674 -0.0479  0.3062
 2665TIP3    H129630   2.079   4.455   1.929 -1.3027  1.0801 -1.3502
 2665TIP3    H229631   2.007   4.331   1.979  1.2216  0.0188 -0.1643
 2666TIP3   OH229632   6.271   6.828   8.412 -0.3995 -0.2162  0.1536
 2666TIP3    H129633   6.222   6.903   8.376 -0.2631 -0.3878 -0.3979
 2666TIP3    H229634   6.258   6.834   8.506 -0.1368  0.6888  0.1425
 2667TIP3   OH229635   2.532   0.384   0.440  0.8210 -0.6557 -0.2671
 2667TIP3    H129636   2.452   0.387   0.389  0.4368  0.8707  0.3590
 2667TIP3    H229637   2.504   0.399   0.530  1.8429  0.4614 -0.1044
 2668TIP3   OH229638   3.353   2.355   7.808 -0.0908 -0.0797  0.6373
 2668TIP3    H129639   3.281   2.411   7.778 -0.2089 -0.1181  0.8457
 2668TIP3    H229640   3.422   2.416   7.835 -0.0347 -0.0432  0.4143
 2669TIP3   OH229641   0.697   4.509   3.012 -0.4027  0.6173 -0.2277
 2669TIP3    H129642   0.753   4.552   2.948 -0.8644  0.5301 -0.6907
 2669TIP3    H229643   0.610   4.546   2.998 -0.6341  0.1461 -0.0767
 2670TIP3   OH229644   3.481   1.385   2.163  0.7555 -0.4935 -0.0709
 2670TIP3    H129645   3.530   1.338   2.231 -2.5003 -3.2259  0.6254
 2670TIP3    H229646   3.460   1.318   2.098  1.2186  1.4381 -2.3506
 2671TIP3   OH229647   0.357   4.562   8.282 -0.2209 -0.1053  0.3762
 2671TIP3    H129648   0.389   4.479   8.317 -0.9278 -0.2050  0.8102
 2671TIP3    H229649   0.305   4.537   8.206  0.0048 -0.0146  0.1909
 2672TIP3   OH229650   1.721   4.843   1.741 -0.7501 -0.4380  0.0405
 2672TIP3    H129651   1.776   4.919   1.720  0.7067 -1.6464 -0.7820
 2672TIP3    H229652   1.687   4.861   1.829  0.8696  0.4635  0.5328
 2673TIP3   OH229653   4.427   1.124   0.164 -0.1889  0.8596 -0.1966
 2673TIP3    H129654   4.453   1.068   0.238 -0.2311 -0.7381 -1.3425
 2673TIP3    H229655   4.510   1.155   0.128  0.4191 -3.4008 -3.2091
 2674TIP3   OH229656   1.312   0.581   2.538  0.4205 -0.1669  0.7653
 2674TIP3    H129657   1.300   0.551   2.448  1.0236 -1.0723  0.9717
 2674TIP3    H229658   1.374   0.653   2.532  0.7229 -0.4485  0.4926
 2675TIP3   OH229659   5.634   3.304   0.470  0.1972 -0.0457  0.3459
 2675TIP3    H129660   5.582   3.267   0.541 -0.1860  0.6932  0.4645
 2675TIP3    H229661   5.707   3.243   0.459 -0.7228 -1.1308  0.1252
 2676TIP3   OH229662   4.683   5.282   1.878 -0.3355  0.1059  0.1249
 2676TIP3    H129663   4.758   5.257   1.824  0.4585  0.2384  1.1452
 2676TIP3    H229664   4.719   5.294   1.965 -1.9885 -2.6565  1.3326
 2677TIP3   OH229665   0.582   0.158   0.212 -0.2640  0.4726 -0.1809
 2677TIP3    H129666   0.524   0.159   0.135 -2.0773 -2.0152  1.0264
 2677TIP3    H229667   0.525   0.135   0.285  1.4187  2.6920  1.9911
 2678TIP3   OH229668   6.606   3.794   0.145  0.0173  0.0937 -0.4112
 2678TIP3    H129669   6.587   3.726   0.080 -1.7624  0.4039 -0.2532
 2678TIP3    H229670   6.659   3.857   0.098  0.0242 -0.4324 -1.1325
 2679TIP3   OH229671   5.068   0.360   8.631 -0.4039 -0.3547 -0.0285
 2679TIP3    H129672   5.064   0.450   8.665  2.6892  0.3825 -1.2127
 2679TIP3    H229673   5.006   0.360   8.558 -0.3782  0.8965 -0.0877
 2680TIP3   OH229674   3.069   6.083   8.408 -0.4916 -0.5001 -0.3628
 2680TIP3    H129675   3.160   6.058   8.427  0.1475  1.6759 -0.3643
 2680TIP3    H229676   3.073   6.129   8.325 -1.5169  0.0896 -0.1001
 2681TIP3   OH229677   5.168   5.033   2.593 -0.2950 -0.4092 -0.1042
 2681TIP3    H129678   5.109   5.104   2.568  1.1407  0.4410 -1.2200
 2681TIP3    H229679   5.111   4.956   2.599 -1.6277  0.5164 -0.4182
 2682TIP3   OH229680   6.445   0.148   8.192 -0.4626 -0.3551  0.4079
 2682TIP3    H129681   6.498   0.111   8.262  0.5601  2.7801  1.4996
 2682TIP3    H229682   6.358   0.111   8.205  0.2354 -1.5705  1.9193
 2683TIP3   OH229683   0.891   3.044   2.446  0.5280  0.0403 -0.2531
 2683TIP3    H129684   0.830   3.049   2.520  0.6785 -0.6033 -0.0859
 2683TIP3    H229685   0.870   3.122   2.394  0.2200  0.3433  0.3059
 2684TIP3   OH229686   5.994   3.799   0.123 -0.4589 -0.0216  0.3708
 2684TIP3    H129687   6.028   3.802   0.213 -0.1736  0.0307  0.2612
 2684TIP3    H229688   5.976   3.890   0.101  2.4086  0.3726 -0.7389
 2685TIP3   OH229689   3.897   0.764   8.333  0.2684  0.0939 -0.6081
 2685TIP3    H129690   3.873   0.673   8.312 -2.0910  0.3019  0.7926
 2685TIP3    H229691   3.851   0.782   8.415  1.7758  2.1576 -0.1439
 2686TIP3   OH229692   4.849   1.646   8.541 -0.1292  0.6062  0.0168
 2686TIP3    H129693   4.785   1.651   8.612 -0.3398 -0.2201 -0.1084
 2686TIP3    H229694   4.917   1.588   8.575  0.3801  1.1729 -0.0016
 2687TIP3   OH229695   2.268   0.925   2.734  0.0345  0.8616  0.3259
 2687TIP3    H129696   2.315   0.929   2.651 -1.3281  1.5357 -0.4529
 2687TIP3    H229697   2.204   0.855   2.722 -0.5403  1.3327  0.5981
 2688TIP3   OH229698   1.962   4.503   1.639  0.0742 -0.3670 -0.3842
 2688TIP3    H129699   1.924   4.430   1.687 -0.0655  0.1376  0.2927
 2688TIP3    H229700   1.960   4.576   1.701  1.2538 -0.0786 -0.6618
 2689TIP3   OH229701   3.050   6.486   0.796 -0.7868 -0.1548 -0.7212
 2689TIP3    H129702   3.129   6.527   0.762  0.1700 -0.2639  1.1894
 2689TIP3    H229703   2.981   6.510   0.735  0.2834  1.9163 -1.1870
 2690TIP3   OH229704   3.765   0.879   7.597 -0.4247 -0.6517  0.3213
 2690TIP3    H129705   3.758   0.953   7.658  0.2018 -0.5789  0.3169
 2690TIP3    H229706   3.791   0.919   7.514  0.4554 -0.9161  0.4530
 2691TIP3   OH229707   3.010   6.168   2.612 -0.5749 -0.4703 -0.3266
 2691TIP3    H129708   3.090   6.182   2.562 -0.2324 -2.8026 -0.5260
 2691TIP3    H229709   3.034   6.190   2.702  0.0823 -0.5348 -0.4815
 2692TIP3   OH229710   1.575   6.873   0.395 -0.1251 -0.2126  0.2901
 2692TIP3    H129711   1.637   6.856   0.325  0.4211  1.1564  0.4272
 2692TIP3    H229712   1.613   6.830   0.472 -0.2813 -0.9510 -0.0396
 2693TIP3   OH229713   2.325   2.782   1.549 -0.5191  0.0015 -0.1785
 2693TIP3    H129714   2.381   2.846   1.504  0.4701 -0.8035 -0.1322
 2693TIP3    H229715   2.338   2.700   1.501 -2.2898 -0.0368 -0.6495
 2694TIP3   OH229716   3.038   4.878   2.497  0.5464 -0.3872 -0.1045
 2694TIP3    H129717   3.020   4.881   2.591 -1.3816  0.9263 -0.4631
 2694TIP3    H229718   3.121   4.925   2.488  0.4755 -0.0319  0.8914
 2695TIP3   OH229719   0.646   5.387   1.083  0.0877  0.1647 -0.1191
 2695TIP3    H129720   0.643   5.323   1.154  2.3787 -0.9943 -0.9625
 2695TIP3    H229721   0.562   5.378   1.039 -0.2620 -1.1384  0.7574
 2696TIP3   OH229722   0.554   1.089   8.442 -0.5679  0.2061 -0.7658
 2696TIP3    H129723   0.483   1.066   8.502 -0.4331  1.0899 -0.2412
 2696TIP3    H229724   0.614   1.143   8.494  1.3314 -1.7890 -0.7462
 2697TIP3   OH229725   4.774   3.699   8.352  0.1651 -0.1015 -0.4570
 2697TIP3    H129726   4.721   3.726   8.277  0.0242  0.5295 -0.1288
 2697TIP3    H229727   4.793   3.780   8.399  0.4570 -0.4654  0.0599
 2698TIP3   OH229728   6.191   3.224   7.945  0.2887  1.1747 -0.2152
 2698TIP3    H129729   6.162   3.189   8.029 -0.5660  1.1843 -0.4983
 2698TIP3    H229730   6.285   3.207   7.943  0.2226  0.6861  0.5068
 2699TIP3   OH229731   5.455   1.400   3.215 -0.6110  0.3147 -0.8131
 2699TIP3    H129732   5.470   1.493   3.231  1.3271  0.0053 -0.5859
 2699TIP3    H229733   5.450   1.360   3.301  1.3214 -0.1423 -0.8656
 2700TIP3   OH229734   6.708   6.356   2.608 -0.0435 -1.0659  0.0270
 2700TIP3    H129735   6.690   6.444   2.641 -1.5922 -1.4374  0.2243
 2700TIP3    H229736   6.803   6.347   2.616  0.2015  0.7375 -0.3920
 2701TIP3   OH229737   4.558   3.416   7.314 -0.1466  0.0679 -0.1810
 2701TIP3    H129738   4.516   3.353   7.374 -1.9587 -0.5767 -2.0184
 2701TIP3    H229739   4.626   3.365   7.270 -0.8755 -0.3239 -0.8710
 2702TIP3   OH229740   4.857   1.822   2.401 -0.2376  0.4507 -0.2471
 2702TIP3    H129741   4.877   1.831   2.308 -0.3959  1.0338 -0.2276
 2702TIP3    H229742   4.782   1.763   2.403 -0.1572  0.3379 -0.4826
 2703TIP3   OH229743   4.962   2.653   2.015  0.1780  0.6362  0.7815
 2703TIP3    H129744   5.031   2.628   2.076  0.8445 -0.1862 -0.2557
 2703TIP3    H229745   5.003   2.715   1.955  1.1884 -2.3939 -1.9774
 2704TIP3   OH229746   2.973   5.734   8.460 -0.0518  0.4230 -0.0952
 2704TIP3    H129747   2.911   5.687   8.404  1.7814  1.0928 -2.9328
 2704TIP3    H229748   2.922   5.806   8.497 -1.5898 -0.6430 -0.0634
 2705TIP3   OH229749   6.640   6.376   0.801  0.5220 -0.7361 -0.3449
 2705TIP3    H129750   6.648   6.380   0.896  1.2908  0.2000 -0.4325
 2705TIP3    H229751   6.605   6.461   0.776 -0.4267 -1.2550 -0.8523
 2706TIP3   OH229752   3.229   2.767   7.808 -0.2826 -0.5460  0.4881
 2706TIP3    H129753   3.190   2.740   7.725  0.4846 -2.0028  0.5765
 2706TIP3    H229754   3.319   2.791   7.786 -0.5820  0.8015  0.6293
 2707TIP3   OH229755   3.309   5.930   2.389  0.1704  0.3643 -0.4399
 2707TIP3    H129756   3.264   6.000   2.434  0.6540 -0.3797  1.2853
 2707TIP3    H229757   3.304   5.953   2.296 -0.6824  2.0485 -0.0024
 2708TIP3   OH229758   6.790   4.555   0.151  0.0274  0.0342 -0.7982
 2708TIP3    H129759   6.726   4.511   0.208  0.2525  0.6228 -0.0820
 2708TIP3    H229760   6.743   4.631   0.116 -0.3441 -0.7018 -1.9975
 2709TIP3   OH229761   1.534   4.395   3.737 -0.0965  0.5354 -0.0224
 2709TIP3    H129762   1.447   4.368   3.709 -0.3337  0.8842  0.3643
 2709TIP3    H229763   1.549   4.478   3.692 -1.1620  1.9540  2.0880
 2710TIP3   OH229764   6.146   3.799   0.817 -0.0849 -0.1858  0.4246
 2710TIP3    H129765   6.106   3.852   0.886  0.5313 -0.0602  0.7002
 2710TIP3    H229766   6.178   3.863   0.753 -1.2063 -0.3295 -0.3014
 2711TIP3   OH229767   4.010   6.394   8.307 -0.2012  0.0340 -0.4870
 2711TIP3    H129768   4.024   6.303   8.280 -2.3271 -0.9458  1.4503
 2711TIP3    H229769   4.076   6.409   8.375 -0.2264 -0.2745 -0.3923
 2712TIP3   OH229770   2.546   0.546   1.069 -0.5740  0.4453  0.0992
 2712TIP3    H129771   2.531   0.549   0.975 -0.0337 -3.4935 -0.3022
 2712TIP3    H229772   2.467   0.505   1.105 -1.0569  2.4879  1.5223
 2713TIP3   OH229773   1.259   4.246   8.660 -0.4148  0.2570 -0.5767
 2713TIP3    H129774   1.247   4.282   8.748 -1.7803 -0.6658 -0.3590
 2713TIP3    H229775   1.251   4.151   8.672  3.2929 -0.2701 -1.0766
 2714TIP3   OH229776   3.971   5.357   2.931 -0.5418 -0.3476 -0.7969
 2714TIP3    H129777   3.903   5.412   2.971 -2.0109 -1.3316 -1.8197
 2714TIP3    H229778   4.053   5.398   2.957 -1.5037  0.6758  0.8075
 2715TIP3   OH229779   4.325   0.208   7.451 -0.2248 -0.0710  0.4979
 2715TIP3    H129780   4.245   0.163   7.480  0.3185 -1.8414 -0.5948
 2715TIP3    H229781   4.316   0.214   7.356  0.4996  0.6220  0.4638
 2716TIP3   OH229782   4.615   6.056   7.530  0.3629 -0.3811 -0.4095
 2716TIP3    H129783   4.690   6.080   7.477 -0.1199  0.0835 -0.9027
 2716TIP3    H229784   4.545   6.115   7.500 -0.3315 -1.1368 -0.3158
 2717TIP3   OH229785   2.575   3.851   0.635  0.1706 -0.1578 -0.5080
 2717TIP3    H129786   2.653   3.806   0.666  0.2132 -0.1010 -0.5315
 2717TIP3    H229787   2.583   3.940   0.670  0.1344 -0.1422 -0.5386
 2718TIP3   OH229788   1.399   4.298   7.246  0.3351 -0.3306 -0.7971
 2718TIP3    H129789   1.488   4.318   7.217  1.3638 -0.6869  1.7778
 2718TIP3    H229790   1.410   4.221   7.303 -1.7997 -1.0843 -1.3283
 2719TIP3   OH229791   6.581   0.910   1.230 -0.3663  0.3703  0.1845
 2719TIP3    H129792   6.564   0.990   1.179  0.4921  0.9834  0.8333
 2719TIP3    H229793   6.523   0.917   1.305 -0.4381  0.2790  0.1379
 2720TIP3   OH229794   2.292   1.053   0.577 -0.1589 -0.2053  0.0941
 2720TIP3    H129795   2.297   1.016   0.490  0.7460 -0.2555  0.1599
 2720TIP3    H229796   2.203   1.087   0.584 -0.3397 -0.5086 -0.7185
 2721TIP3   OH229797   0.697   4.276   0.529 -0.2195  0.1014  0.2163
 2721TIP3    H129798   0.735   4.361   0.551  0.5398 -0.6442  1.8990
 2721TIP3    H229799   0.772   4.217   0.521 -0.8881 -1.4046  3.6271
 2722TIP3   OH229800   3.327   1.206   0.282  0.3932 -0.3164  0.0378
 2722TIP3    H129801   3.307   1.208   0.375 -1.2011  0.7831 -0.2928
 2722TIP3    H229802   3.243   1.221   0.238  0.8565 -2.1300 -1.6255
 2723TIP3   OH229803   5.638   5.917   3.069  0.1917  0.3483 -0.6379
 2723TIP3    H129804   5.620   5.956   3.154 -1.3877  2.7546 -1.9504
 2723TIP3    H229805   5.553   5.908   3.027  0.8586 -1.4018 -1.7496
 2724TIP3   OH229806   0.971   5.384   3.219  0.1326  0.4113 -0.0566
 2724TIP3    H129807   1.054   5.430   3.207 -0.0868  0.9444  0.4352
 2724TIP3    H229808   0.996   5.300   3.256  0.7551 -0.9234 -3.1721
 2725TIP3   OH229809   0.944   4.551   8.101  0.7692  0.0104 -0.3016
 2725TIP3    H129810   0.926   4.617   8.034 -2.1054  1.5472  1.7626
 2725TIP3    H229811   0.863   4.499   8.106  1.8167 -1.6438  0.3233
 2726TIP3   OH229812   1.895   6.254   8.563  0.0555  0.1546  0.2144
 2726TIP3    H129813   1.977   6.244   8.515  0.6466 -2.7739  1.6563
 2726TIP3    H229814   1.833   6.285   8.496  1.6319 -0.3985 -1.6039
 2727TIP3   OH229815   1.568   4.497   1.280 -0.2943 -0.4972 -0.0050
 2727TIP3    H129816   1.589   4.404   1.288 -0.2428 -0.3826  1.3593
 2727TIP3    H229817   1.513   4.503   1.201  1.2709 -1.3958 -1.2161
 2728TIP3   OH229818   5.005   6.123   0.050  0.0598 -0.2432  0.2125
 2728TIP3    H129819   5.039   6.164   0.129 -0.1273  0.7540 -0.2130
 2728TIP3    H229820   5.048   6.169  -0.022  0.1168 -1.0386 -0.2786
 2729TIP3   OH229821   2.610   4.728   3.349  0.4006 -0.6173 -0.1751
 2729TIP3    H129822   2.530   4.678   3.335  0.1291 -0.1922 -0.1684
 2729TIP3    H229823   2.679   4.662   3.356  0.1726 -0.9508 -0.9824
 2730TIP3   OH229824   5.975   4.824   3.260 -0.0400  0.1322  0.2746
 2730TIP3    H129825   5.992   4.917   3.277 -1.6982  0.6666 -0.7705
 2730TIP3    H229826   5.950   4.788   3.346  1.2010  0.4688  0.8071
 2731TIP3   OH229827   4.114   1.633   0.384 -0.4291 -0.4377 -0.3462
 2731TIP3    H129828   4.177   1.565   0.411 -1.5744 -0.9304  1.2651
 2731TIP3    H229829   4.150   1.714   0.421 -0.0729 -0.4949 -0.5615
 2732TIP3   OH229830   4.913   5.593   8.075 -0.6698 -0.1809 -0.5467
 2732TIP3    H129831   4.938   5.546   7.996  0.5721 -1.4425  0.5364
 2732TIP3    H229832   4.895   5.682   8.046 -1.4175 -0.8987 -2.4083
 2733TIP3   OH229833   1.001   5.057   1.189 -0.1157 -0.9501 -0.2009
 2733TIP3    H129834   0.942   5.072   1.115  0.6870  0.0732 -0.6661
 2733TIP3    H229835   1.010   5.143   1.230 -0.9201 -1.5940  1.4024
 2734TIP3   OH229836   3.545   2.366   8.195  0.0815  0.5484 -0.9614
 2734TIP3    H129837   3.594   2.420   8.257  0.1631 -1.2835  0.6680
 2734TIP3    H229838   3.454   2.395   8.205 -0.0329 -0.2211  0.6599
 2735TIP3   OH229839   1.086   0.356   8.396 -0.3277  0.0061 -0.0641
 2735TIP3    H129840   1.023   0.305   8.346 -0.7888 -0.0295  0.5387
 2735TIP3    H229841   1.155   0.294   8.419 -1.1546 -0.5021  1.1372
 2736TIP3   OH229842   3.651   2.946   2.625 -0.1691  0.1872 -0.6055
 2736TIP3    H129843   3.642   3.022   2.683 -0.7307  0.1131 -0.5877
 2736TIP3    H229844   3.607   2.973   2.544  1.8904  0.8546 -1.5648
 2737TIP3   OH229845   4.898   5.655   0.052 -0.3310  0.2164  0.2644
 2737TIP3    H129846   4.947   5.590   0.103  1.2205 -0.0357 -1.4299
 2737TIP3    H229847   4.849   5.705   0.117  0.8639 -0.6480  1.9031
 2738TIP3   OH229848   0.268   3.813   1.392 -0.1414  0.2754 -0.0250
 2738TIP3    H129849   0.344   3.760   1.417 -0.2487  0.1792  0.1034
 2738TIP3    H229850   0.207   3.749   1.353  0.2027  0.4932 -0.9376
 2739TIP3   OH229851   4.958   5.636   2.835  0.1243  0.6238  0.5882
 2739TIP3    H129852   4.952   5.540   2.832  0.8175  0.5943 -1.7786
 2739TIP3    H229853   5.046   5.655   2.803  0.7485  2.0411  2.9636
 2740TIP3   OH229854   0.026   5.062   1.878  0.3913 -0.0001  0.2082
 2740TIP3    H129855  -0.007   5.032   1.793  1.2954  1.6014 -0.7721
 2740TIP3    H229856   0.095   5.125   1.855 -0.1525  1.3790  2.1115
 2741TIP3   OH229857   0.179   6.108   0.752  0.5806 -0.2775 -0.0025
 2741TIP3    H129858   0.178   6.054   0.673  0.5201  0.5939 -0.6033
 2741TIP3    H229859   0.089   6.138   0.762 -0.2544 -3.0190  2.2868
 2742TIP3   OH229860   3.767   1.516   8.348 -0.1101  0.0610  0.4366
 2742TIP3    H129861   3.738   1.438   8.302  2.6199  0.3468 -2.0892
 2742TIP3    H229862   3.813   1.484   8.425  0.2723 -0.7865 -0.1388
 2743TIP3   OH229863   1.213   2.729   0.168  0.3626  0.4579  0.0085
 2743TIP3    H129864   1.246   2.778   0.093  1.3928 -0.4480 -0.1678
 2743TIP3    H229865   1.275   2.748   0.238  1.1820 -1.0648 -0.2484
 2744TIP3   OH229866   2.854   0.775   2.131 -1.1508 -0.3527  0.2002
 2744TIP3    H129867   2.778   0.831   2.111 -0.6662  0.2955  0.1596
 2744TIP3    H229868   2.838   0.745   2.221 -0.9541  0.6185  0.5701
 2745TIP3   OH229869   0.755   1.048   2.493  0.3559 -0.0948  0.3016
 2745TIP3    H129870   0.691   1.007   2.435  1.7194 -1.3016 -0.4176
 2745TIP3    H229871   0.831   1.063   2.436  2.6281 -3.4064  2.1599
 2746TIP3   OH229872   5.084   1.805   0.105  0.3841  0.3539 -1.1617
 2746TIP3    H129873   5.071   1.810   0.010  2.6368  0.8950 -1.5172
 2746TIP3    H229874   5.124   1.889   0.127  1.1070 -0.2766  0.0189
 2747TIP3   OH229875   5.032   6.518   1.296  0.6548 -0.0895 -0.3532
 2747TIP3    H129876   5.110   6.560   1.258  2.0097 -2.0645  0.0598
 2747TIP3    H229877   5.017   6.565   1.378 -0.1624  1.9362 -1.5962
 2748TIP3   OH229878   5.138   2.090   7.969  0.5921 -0.2989 -0.0510
 2748TIP3    H129879   5.119   2.162   7.908 -0.2969  0.4564  1.0691
 2748TIP3    H229880   5.053   2.051   7.987  0.5622  0.5752  1.9747
 2749TIP3   OH229881   0.920   1.202   7.887  0.1858  0.2769  0.6425
 2749TIP3    H129882   0.926   1.215   7.793 -1.1383  0.8774  0.6167
 2749TIP3    H229883   1.000   1.153   7.910  0.5656  0.1986 -0.7547
 2750TIP3   OH229884   6.062   3.756   8.292  0.5709  0.2778  0.1476
 2750TIP3    H129885   6.097   3.785   8.208  0.0135 -0.4857 -0.3666
 2750TIP3    H229886   6.047   3.662   8.280  2.5117 -0.3144  1.8178
 2751TIP3   OH229887   6.325   6.599   1.874  0.4400 -0.1920  0.0846
 2751TIP3    H129888   6.347   6.544   1.799  0.9284 -2.4830  1.7905
 2751TIP3    H229889   6.410   6.633   1.903  0.4405 -0.4860  0.4333
 2752TIP3   OH229890   4.757   2.731   7.827 -0.3344 -0.5648 -0.5586
 2752TIP3    H129891   4.818   2.663   7.797  2.5409  1.8344 -0.6115
 2752TIP3    H229892   4.800   2.770   7.903 -2.4988  0.4151  0.2409
 2753TIP3   OH229893   1.678   1.407   1.786 -0.1160 -0.0729  0.0316
 2753TIP3    H129894   1.601   1.462   1.772  0.2370  0.6392  0.7940
 2753TIP3    H229895   1.722   1.406   1.702 -0.0041  1.0281  0.0588
 2754TIP3   OH229896   5.750   6.450   8.384  0.6990  0.0441 -0.0531
 2754TIP3    H129897   5.787   6.425   8.469 -1.3355  2.1645  1.6129
 2754TIP3    H229898   5.715   6.369   8.347  1.8870 -0.9690  0.9869
 2755TIP3   OH229899   6.388   1.970   1.834  0.2911  0.0509 -0.1583
 2755TIP3    H129900   6.435   1.969   1.917  0.0117 -0.5274 -0.0014
 2755TIP3    H229901   6.437   1.910   1.778  0.1281 -0.0394 -0.2072
 2756TIP3   OH229902   2.980   0.168   2.077 -1.0338 -0.0666  0.2831
 2756TIP3    H129903   2.953   0.170   1.985 -0.4068  1.6813  0.0952
 2756TIP3    H229904   2.924   0.102   2.117 -0.9868 -1.2338 -1.4454
 2757TIP3   OH229905   3.375   5.343   7.744 -0.1524 -0.1267  0.1583
 2757TIP3    H129906   3.378   5.431   7.707  2.9830  0.4774  1.5806
 2757TIP3    H229907   3.369   5.285   7.667 -3.0101  1.1930 -0.7765
 2758TIP3   OH229908   3.910   5.370   1.323  0.5298  0.1785  0.2832
 2758TIP3    H129909   3.910   5.294   1.265  0.8070  0.3990 -0.0061
 2758TIP3    H229910   3.868   5.338   1.403 -2.5884  0.6656 -1.0443
 2759TIP3   OH229911   2.523   4.369   1.928 -0.9550  0.0060  0.0647
 2759TIP3    H129912   2.531   4.315   2.007 -2.5668 -1.5473 -0.7607
 2759TIP3    H229913   2.562   4.315   1.859 -0.5828  0.8667 -0.4104
 2760TIP3   OH229914   5.408   6.733   2.179 -0.6828  0.6664  0.2564
 2760TIP3    H129915   5.472   6.691   2.237 -0.1735 -0.0707 -0.8025
 2760TIP3    H229916   5.341   6.767   2.238 -0.2248 -0.1368  1.2785
 2761TIP3   OH229917   1.585   4.042   1.060 -0.0984 -0.7910 -0.4624
 2761TIP3    H129918   1.638   4.084   0.993  1.1044 -2.3597 -0.5464
 2761TIP3    H229919   1.517   4.106   1.080  1.9547  1.4324 -0.1467
 2762TIP3   OH229920   0.555   6.578   2.373 -0.3852  0.2408  0.2432
 2762TIP3    H129921   0.488   6.628   2.326  1.7016  0.6503 -2.5464
 2762TIP3    H229922   0.534   6.486   2.355 -1.6608  0.2100  1.6598
 2763TIP3   OH229923   6.683   4.775   8.319 -0.1139  0.5035 -0.4245
 2763TIP3    H129924   6.600   4.744   8.354  0.4558  1.7046  2.1608
 2763TIP3    H229925   6.745   4.704   8.337  0.1057  0.9812  0.7691
 2764TIP3   OH229926   5.693   1.037   0.380 -0.0820 -0.1724  0.0730
 2764TIP3    H129927   5.740   1.001   0.456  0.6969 -1.2390 -0.8686
 2764TIP3    H229928   5.721   0.981   0.307 -1.4664  0.3027 -0.8452
 2765TIP3   OH229929   1.813   1.588   2.063 -0.1122 -0.5233  0.1915
 2765TIP3    H129930   1.856   1.647   2.002  0.1496 -1.5187 -0.6265
 2765TIP3    H229931   1.855   1.605   2.147 -0.2348  0.6242  0.0333
 2766TIP3   OH229932   5.796   0.183   0.732  0.3356  0.3616 -0.4966
 2766TIP3    H129933   5.816   0.190   0.639  0.3417  0.2356 -0.5053
 2766TIP3    H229934   5.737   0.107   0.738  0.2634  0.4248 -0.4101
 2767TIP3   OH229935   3.675   5.464   7.850  0.2324 -0.1643  0.3139
 2767TIP3    H129936   3.592   5.502   7.878 -0.5449 -0.1623 -1.8013
 2767TIP3    H229937   3.731   5.539   7.833  0.4681 -0.1454  1.1605
 2768TIP3   OH229938   5.870   1.202   1.242 -0.0642  0.6749  0.1370
 2768TIP3    H129939   5.908   1.140   1.305  1.3716  0.9070 -0.4624
 2768TIP3    H229940   5.885   1.288   1.282 -0.8582  0.7186  0.3493
 2769TIP3   OH229941   0.615   0.577   0.645 -0.4481  0.4744 -0.5720
 2769TIP3    H129942   0.633   0.671   0.645 -2.3499  0.9225  1.3359
 2769TIP3    H229943   0.527   0.570   0.607 -2.1894  0.0705  3.0327
 2770TIP3   OH229944   4.345   4.375   8.048  0.1790  0.1028  0.5602
 2770TIP3    H129945   4.314   4.356   7.959  0.9592  0.8323  0.1091
 2770TIP3    H229946   4.343   4.291   8.093 -1.4348 -0.0579  0.2476
 2771TIP3   OH229947   5.351   3.715   2.406 -0.4523  0.1174  0.3941
 2771TIP3    H129948   5.303   3.633   2.416 -0.8987  0.2870 -0.3117
 2771TIP3    H229949   5.428   3.692   2.353 -0.2999  0.0496  0.6454
 2772TIP3   OH229950   4.282   2.594   1.281  0.0359  0.0533 -0.1653
 2772TIP3    H129951   4.374   2.618   1.295 -0.2168  2.1834 -1.6450
 2772TIP3    H229952   4.270   2.514   1.331  2.3537  0.4296  1.1234
 2773TIP3   OH229953   1.981   6.316   2.532 -0.4327 -0.6256  0.1110
 2773TIP3    H129954   1.950   6.407   2.530  1.1546 -0.0595 -0.3332
 2773TIP3    H229955   1.979   6.291   2.624  0.0927  0.2209  0.3569
 2774TIP3   OH229956   3.817   2.365   8.101 -0.1886 -0.4229  0.0335
 2774TIP3    H129957   3.773   2.400   8.178 -0.0217 -1.7452  0.7614
 2774TIP3    H229958   3.822   2.439   8.040  0.0768  0.7751  1.4525
 2775TIP3   OH229959   4.423   3.114   8.515  0.5570 -0.0378  0.9613
 2775TIP3    H129960   4.341   3.103   8.564 -0.0205  0.9205  0.2359
 2775TIP3    H229961   4.437   3.208   8.512 -0.9218  0.2493 -2.9919
 2776TIP3   OH229962   6.475   1.532   2.011 -0.6537  0.4176  0.1537
 2776TIP3    H129963   6.562   1.571   2.017  0.2425 -1.4317 -0.1193
 2776TIP3    H229964   6.476   1.461   2.074 -1.9205  0.2537  0.0210
 2777TIP3   OH229965   3.373   3.463   0.248 -0.0749  0.0547 -0.2417
 2777TIP3    H129966   3.288   3.419   0.248  0.0558 -0.1991  0.2840
 2777TIP3    H229967   3.437   3.392   0.247  0.1354  0.2332  0.2512
 2778TIP3   OH229968   0.967   3.603   2.725 -0.0404 -0.1976  0.1051
 2778TIP3    H129969   0.991   3.510   2.737  0.5935 -0.1365 -0.6183
 2778TIP3    H229970   0.941   3.632   2.813  0.4167 -0.8788  0.4785
 2779TIP3   OH229971   5.960   0.136   7.930  0.2397 -0.5092 -1.0183
 2779TIP3    H129972   6.041   0.182   7.952 -0.6219  1.7503 -2.3025
 2779TIP3    H229973   5.966   0.120   7.836 -1.7150  1.7941 -1.6326
 2780TIP3   OH229974   6.638   0.169   7.518  0.5119  0.1218 -0.3341
 2780TIP3    H129975   6.635   0.101   7.450  1.5943 -2.8358  2.3284
 2780TIP3    H229976   6.558   0.156   7.569  1.0426  0.4341  0.5949
 2781TIP3   OH229977   6.597   3.790   3.430  0.1019  0.0084  0.1180
 2781TIP3    H129978   6.548   3.805   3.510 -0.1985  1.8374 -0.3469
 2781TIP3    H229979   6.647   3.871   3.418  0.5692 -0.4536 -1.2337
 2782TIP3   OH229980   5.594   4.920   1.290 -0.9695  0.1414 -0.1382
 2782TIP3    H129981   5.593   4.851   1.357  1.1415 -0.2750 -0.4596
 2782TIP3    H229982   5.506   4.917   1.252 -1.0124 -2.2749 -0.0247
 2783TIP3   OH229983   1.812   2.984   0.405  0.3944  0.5830 -0.2226
 2783TIP3    H129984   1.880   2.952   0.346  0.9918  1.3602  0.0256
 2783TIP3    H229985   1.843   3.071   0.432 -0.9949  1.2178 -0.5966
 2784TIP3   OH229986   0.373   6.040   8.479  0.8016  0.4096 -0.4985
 2784TIP3    H129987   0.300   6.026   8.418  0.2272  0.7832  0.0878
 2784TIP3    H229988   0.418   6.118   8.446 -0.3927  1.4997  0.3667
 2785TIP3   OH229989   4.315   3.761   2.513 -0.2043 -0.0174 -0.1428
 2785TIP3    H129990   4.273   3.820   2.576  0.8172  0.4912  0.0777
 2785TIP3    H229991   4.374   3.817   2.463  0.5323 -0.7964 -0.1594
 2786TIP3   OH229992   6.423   6.407   2.483 -0.0747  0.7233 -0.4496
 2786TIP3    H129993   6.508   6.368   2.504 -0.8702  0.7561  3.6601
 2786TIP3    H229994   6.425   6.494   2.524 -1.4123  1.5744 -2.0486
 2787TIP3   OH229995   4.553   1.233   1.357  0.7290  0.3951 -0.2226
 2787TIP3    H129996   4.572   1.140   1.369  2.3999  0.4938 -1.8074
 2787TIP3    H229997   4.568   1.271   1.444  3.2277 -0.3408 -0.2507
 2788TIP3   OH229998   2.221   5.014   7.510 -0.0643 -0.1354 -0.0118
 2788TIP3    H129999   2.203   5.102   7.477  0.7117 -0.8044 -2.4983
 2788TIP3    H230000   2.139   4.985   7.550 -0.0128  2.0746  1.9235
 2789TIP3   OH230001   5.209   6.277   1.301  0.8780  0.2227  0.0633
 2789TIP3    H130002   5.146   6.348   1.304 -0.5473 -0.9779 -0.3814
 2789TIP3    H230003   5.178   6.214   1.365  1.4030 -0.5618 -0.4297
 2790TIP3   OH230004   3.622   1.841   0.782  0.1752  0.0501  0.4761
 2790TIP3    H130005   3.558   1.827   0.712  0.6580 -0.2147  0.0811
 2790TIP3    H230006   3.605   1.770   0.844 -0.0726  0.1197  0.4880
 2791TIP3   OH230007   1.401   1.858   7.632  0.7466 -0.3285  0.1735
 2791TIP3    H130008   1.368   1.948   7.629 -0.5142 -0.7401  0.5971
 2791TIP3    H230009   1.327   1.805   7.602  0.7571 -1.3654  1.8519
 2792TIP3   OH230010   5.879   5.493   0.654 -0.7598 -0.0718 -0.1589
 2792TIP3    H130011   5.859   5.488   0.561  1.8643 -1.6144 -0.7325
 2792TIP3    H230012   5.922   5.578   0.665  0.2058 -0.4778 -0.6757
 2793TIP3   OH230013   1.729   3.899   3.840 -0.3469 -0.0493 -0.1899
 2793TIP3    H130014   1.733   3.897   3.936  0.2251 -0.5218 -0.2194
 2793TIP3    H230015   1.707   3.990   3.819 -0.3422  0.0892  0.3854
 2794TIP3   OH230016   6.200   3.993   7.820 -0.5763 -0.4898  0.0020
 2794TIP3    H130017   6.246   4.049   7.758 -1.6686  1.8821  1.1944
 2794TIP3    H230018   6.137   3.946   7.766  0.7160 -1.0055 -1.1158
 2795TIP3   OH230019   5.031   6.164   2.036 -0.1228 -0.6898 -0.7828
 2795TIP3    H130020   4.937   6.176   2.024 -0.2473 -0.6683  0.1119
 2795TIP3    H230021   5.071   6.240   1.992 -0.7192  1.1426  1.6424
 2796TIP3   OH230022   5.017   0.938   1.856 -0.0347  0.0087 -0.2506
 2796TIP3    H130023   4.953   0.867   1.849  1.7745 -1.6231 -1.5867
 2796TIP3    H230024   5.057   0.925   1.942 -1.9835  1.5720  0.9714
 2797TIP3   OH230025   2.403   4.140   8.319 -0.3565 -0.3438  0.3855
 2797TIP3    H130026   2.493   4.170   8.316 -0.4149 -0.2245 -0.3283
 2797TIP3    H230027   2.407   4.049   8.288 -0.9944  0.9418 -4.0967
 2798TIP3   OH230028   6.452   6.278   3.461 -0.1986  0.1536 -0.3515
 2798TIP3    H130029   6.407   6.242   3.537  1.1635  0.6531  0.7362
 2798TIP3    H230030   6.392   6.343   3.426 -0.0289  1.4493  1.6033
 2799TIP3   OH230031   3.643   3.103   1.791  0.2040 -0.3741 -0.1759
 2799TIP3    H130032   3.662   3.009   1.783 -0.2348 -0.6509  1.5508
 2799TIP3    H230033   3.664   3.124   1.882 -1.5732  0.7508  0.0271
 2800TIP3   OH230034   1.108   3.205   1.912 -0.1461 -0.0950  0.0755
 2800TIP3    H130035   1.173   3.257   1.958  1.8846 -0.1774 -2.5127
 2800TIP3    H230036   1.127   3.115   1.937  0.5975 -0.0952 -0.4618
 2801TIP3   OH230037   1.525   0.616   1.984 -0.5144  0.5609  0.4633
 2801TIP3    H130038   1.535   0.586   2.075  0.3904  0.2565  0.2741
 2801TIP3    H230039   1.441   0.662   1.983 -0.0807  1.4365  1.6942
 2802TIP3   OH230040   5.238   5.637   0.042  0.3757  0.2128  0.2514
 2802TIP3    H130041   5.188   5.718   0.054 -0.2333 -0.1026 -0.0992
 2802TIP3    H230042   5.329   5.666   0.034 -0.0484  1.1036 -2.2107
 2803TIP3   OH230043   4.950   4.830   1.353 -0.1881  0.4227  0.1307
 2803TIP3    H130044   4.931   4.922   1.374 -0.5434  0.4610 -0.3530
 2803TIP3    H230045   5.003   4.834   1.273 -0.1342  0.2054  0.1538
 2804TIP3   OH230046   4.108   1.506   8.442 -0.5511 -0.1947  0.1727
 2804TIP3    H130047   4.061   1.425   8.419  0.1012 -0.6105  0.2802
 2804TIP3    H230048   4.196   1.477   8.465 -0.6001  0.4339  1.2105
 2805TIP3   OH230049   4.627   6.028   1.140  0.3843  0.3462  1.1677
 2805TIP3    H130050   4.571   6.031   1.218  0.0856  1.2975  0.9275
 2805TIP3    H230051   4.607   5.943   1.101 -0.1975  0.2734  1.5981
 2806TIP3   OH230052   1.818   5.799   0.840 -0.1893  0.3419 -0.3045
 2806TIP3    H130053   1.885   5.730   0.841  0.0079  0.5036 -1.3095
 2806TIP3    H230054   1.860   5.873   0.798 -1.0971  0.3315 -1.2909
 2807TIP3   OH230055   1.580   1.518   2.307  0.0860 -0.2112  0.0540
 2807TIP3    H130056   1.571   1.461   2.383 -0.4295 -0.8630 -0.4938
 2807TIP3    H230057   1.589   1.458   2.232 -2.0627  0.3689 -0.7465
 2808TIP3   OH230058   6.270   5.132   8.525  0.1938 -0.5721 -0.3334
 2808TIP3    H130059   6.248   5.120   8.433  0.8222 -2.3176 -0.2946
 2808TIP3    H230060   6.353   5.179   8.524 -0.9030  1.4428 -0.5776
 2809TIP3   OH230061   2.481   5.514   1.242 -0.1879 -0.1670 -0.1731
 2809TIP3    H130062   2.558   5.486   1.192  0.2822  1.0531 -0.1746
 2809TIP3    H230063   2.407   5.488   1.188  0.2431 -0.7668 -0.4904
 2810TIP3   OH230064   4.045   2.191   1.805 -0.1393 -0.2174 -0.2452
 2810TIP3    H130065   3.960   2.234   1.793 -1.3260 -2.2912  0.2275
 2810TIP3    H230066   4.082   2.185   1.717 -1.0741 -0.4196 -0.6338
 2811TIP3   OH230067   0.840   1.714   8.584 -0.0335  0.3145  0.2248
 2811TIP3    H130068   0.823   1.806   8.606  0.2540  0.6743 -0.9459
 2811TIP3    H230069   0.754   1.679   8.560 -0.4193 -0.1987  2.2147
 2812TIP3   OH230070   3.647   6.139   8.623  0.6474  0.1308 -0.5320
 2812TIP3    H130071   3.641   6.195   8.700  2.9948  0.3696 -0.4725
 2812TIP3    H230072   3.586   6.179   8.560 -1.6343 -0.3227  1.2505
 2813TIP3   OH230073   3.999   1.740   1.149 -0.2239 -0.1472 -0.5838
 2813TIP3    H130074   3.954   1.665   1.110 -0.6073  0.1859 -0.7906
 2813TIP3    H230075   3.986   1.811   1.085  0.0976  0.1034 -0.3701
 2814TIP3   OH230076   2.383   3.086   3.121  0.8686 -0.3553 -0.1353
 2814TIP3    H130077   2.297   3.045   3.131 -0.1483  0.7971 -3.1741
 2814TIP3    H230078   2.372   3.175   3.155  1.6415 -0.9340  1.7634
 2815TIP3   OH230079   1.902   5.215   0.400 -0.5305  0.0478 -0.3160
 2815TIP3    H130080   1.828   5.201   0.341  0.3548  0.8499 -1.6608
 2815TIP3    H230081   1.979   5.190   0.349  0.2145  0.2171  0.6957
 2816TIP3   OH230082   0.794   3.495   7.796 -0.7184 -0.0979  0.0202
 2816TIP3    H130083   0.701   3.474   7.797 -0.2378 -2.5906  0.4848
 2816TIP3    H230084   0.801   3.574   7.742 -3.2336  1.1163  1.3352
 2817TIP3   OH230085   2.839   5.519   1.435 -0.4473  0.0007 -0.1399
 2817TIP3    H130086   2.927   5.504   1.470 -1.0676 -1.2075  0.9731
 2817TIP3    H230087   2.807   5.432   1.412 -1.0616  0.5160 -1.3005
 2818TIP3   OH230088   6.854   4.712   2.202 -0.8949 -0.4837  0.2006
 2818TIP3    H130089   6.881   4.711   2.110  2.4060  0.2615  1.0563
 2818TIP3    H230090   6.873   4.800   2.232  0.4392 -1.3819  2.1879
 2819TIP3   OH230091   0.003   4.223   0.363  0.0171 -0.2264  0.3238
 2819TIP3    H130092   0.056   4.303   0.358  0.3338 -0.4809 -0.7323
 2819TIP3    H230093   0.062   4.153   0.334 -0.1443 -0.9147  1.5906
 2820TIP3   OH230094   0.253   3.520   2.685  0.1153  0.1941  0.0636
 2820TIP3    H130095   0.329   3.545   2.736  0.0040  2.1005 -0.6148
 2820TIP3    H230096   0.178   3.553   2.735 -0.5835 -3.6962  1.9421
 2821TIP3   OH230097   1.325   5.873   1.456 -0.3784  0.2352 -0.3823
 2821TIP3    H130098   1.276   5.816   1.515 -0.6564  1.9971  1.2288
 2821TIP3    H230099   1.388   5.816   1.412 -0.4662 -1.2595  1.3273
 2822TIP3   OH230100   3.705   3.333   8.055  0.4349  0.3686 -0.5460
 2822TIP3    H130101   3.784   3.324   8.002  1.4655 -0.8406  1.1042
 2822TIP3    H230102   3.647   3.265   8.022  2.0952 -2.2008  1.4841
 2823TIP3   OH230103   2.559   0.279   8.306 -0.0263  0.2055  0.0337
 2823TIP3    H130104   2.557   0.316   8.395 -0.0172  1.6928 -0.5481
 2823TIP3    H230105   2.616   0.203   8.313  0.2200  0.4764  1.2400
 2824TIP3   OH230106   2.992   5.925   2.336  0.6575 -0.0643 -0.5361
 2824TIP3    H130107   2.970   5.980   2.261  1.0814  0.7497 -0.0667
 2824TIP3    H230108   2.981   5.981   2.412  0.8066 -0.7133 -0.0253
 2825TIP3   OH230109   6.798   3.346   1.192  0.2353  0.1754 -0.3214
 2825TIP3    H130110   6.767   3.400   1.265  2.3027 -0.7263  1.3490
 2825TIP3    H230111   6.874   3.299   1.228 -0.1631 -2.1999 -2.3282
 2826TIP3   OH230112   5.480   2.410   7.849  0.0179  0.5528 -0.1788
 2826TIP3    H130113   5.398   2.401   7.801  0.5172  1.5922 -1.2954
 2826TIP3    H230114   5.459   2.468   7.922 -0.3275  0.4982 -0.2321
 2827TIP3   OH230115   5.512   2.428   1.324 -0.7746  0.0897 -0.2301
 2827TIP3    H130116   5.547   2.400   1.408  0.0595  0.7778 -0.3311
 2827TIP3    H230117   5.575   2.396   1.260 -0.2950  1.3499 -0.4164
 2828TIP3   OH230118   0.080   5.972   1.065  0.2406 -0.1756  0.1230
 2828TIP3    H130119   0.143   5.920   1.016  2.5353  1.1122  1.5134
 2828TIP3    H230120   0.095   5.949   1.157  0.9242  2.3876  0.7342
 2829TIP3   OH230121   3.612   0.416   8.048  0.6028  0.6748  0.1253
 2829TIP3    H130122   3.598   0.354   7.976 -0.1381 -1.0141  1.6333
 2829TIP3    H230123   3.527   0.460   8.058  1.0743  1.8466 -0.8213
 2830TIP3   OH230124   0.133   4.478   0.339  0.0252 -1.0379 -0.4915
 2830TIP3    H130125   0.065   4.544   0.334  1.2947  0.4189  0.5653
 2830TIP3    H230126   0.212   4.522   0.308  0.9052 -2.0294  0.2526
 2831TIP3   OH230127   2.175   6.723   8.385  0.2312  0.9902 -0.2802
 2831TIP3    H130128   2.204   6.783   8.315  0.1662 -0.8416 -1.9637
 2831TIP3    H230129   2.193   6.771   8.466  0.1836  3.2701 -1.5225
 2832TIP3   OH230130   1.286   4.702   2.176 -0.4540 -0.0660  0.1784
 2832TIP3    H130131   1.313   4.763   2.108  0.6905 -1.0903 -0.3202
 2832TIP3    H230132   1.260   4.758   2.249 -2.1835  1.0668 -1.2302
 2833TIP3   OH230133   1.920   2.197   8.252  0.2911 -0.1842  0.1758
 2833TIP3    H130134   1.883   2.115   8.284  0.7451 -0.8618 -0.9653
 2833TIP3    H230135   1.852   2.234   8.195 -0.1784  0.5929  1.1990
 2834TIP3   OH230136   3.619   1.041   1.782  0.6630 -0.0687  0.1611
 2834TIP3    H130137   3.614   0.946   1.770 -1.4814  0.2527 -2.4873
 2834TIP3    H230138   3.711   1.062   1.767  0.9050 -1.5816 -0.7083
 2835TIP3   OH230139   0.524   5.233   1.697 -0.4630 -0.6298 -0.0018
 2835TIP3    H130140   0.568   5.279   1.768 -2.2759  1.1328  0.0736
 2835TIP3    H230141   0.532   5.291   1.622 -0.7548 -1.2966 -0.5551
 2836TIP3   OH230142   0.487   2.969   0.357  0.0004  0.0861 -0.3343
 2836TIP3    H130143   0.415   2.936   0.411 -0.0602  0.2643 -0.3073
 2836TIP3    H230144   0.557   2.988   0.420  0.4757 -1.1398 -0.4621
 2837TIP3   OH230145   1.319   0.057   2.040  1.1203  0.3265  0.2672
 2837TIP3    H130146   1.347   0.090   1.955  0.9694  1.0505  0.4951
 2837TIP3    H230147   1.225   0.074   2.043  1.2281  0.8660  0.8181
 2838TIP3   OH230148   0.833   2.251   0.318 -0.2447 -0.2483  0.0026
 2838TIP3    H130149   0.916   2.261   0.364  0.3874 -1.6116 -0.7648
 2838TIP3    H230150   0.822   2.332   0.269  1.3601 -0.5900 -0.9906
 2839TIP3   OH230151   2.719   2.240   1.839 -0.0349 -0.0418  0.4625
 2839TIP3    H130152   2.706   2.254   1.745  0.6305 -0.9885  0.2215
 2839TIP3    H230153   2.702   2.326   1.878  1.9569  0.9859 -0.7548
 2840TIP3   OH230154   6.468   4.495   2.813 -0.4897 -1.0264 -0.2308
 2840TIP3    H130155   6.528   4.487   2.739  0.0637 -1.9782  0.2947
 2840TIP3    H230156   6.521   4.472   2.889 -1.1548 -0.4571  0.4154
 2841TIP3   OH230157   2.932   5.965   8.094  0.1396 -0.1789  0.5624
 2841TIP3    H130158   2.875   6.038   8.071  0.6426  0.1022  0.1893
 2841TIP3    H230159   3.019   5.993   8.066  0.8937  0.3743  3.2363
 2842TIP3   OH230160   2.514   0.757   3.390  0.5567 -0.1645 -0.1056
 2842TIP3    H130161   2.588   0.722   3.339 -0.3262 -0.0166 -1.5435
 2842TIP3    H230162   2.437   0.725   3.344 -0.2922 -0.2405  1.3289
 2843TIP3   OH230163   2.588   4.920   8.481  0.1911  0.1017  0.3213
 2843TIP3    H130164   2.594   4.931   8.386 -0.9863 -3.1805 -0.2477
 2843TIP3    H230165   2.667   4.871   8.505  0.2096  0.4341  0.9698
 2844TIP3   OH230166   4.135   3.919   0.576 -0.2323 -0.2726 -0.2936
 2844TIP3    H130167   4.171   3.991   0.525  0.9940 -0.5973  0.0843
 2844TIP3    H230168   4.211   3.878   0.617 -1.0923 -0.6741  0.9475
 2845TIP3   OH230169   5.623   3.106   0.985 -0.5942 -0.1131  0.3464
 2845TIP3    H130170   5.669   3.032   0.945 -0.9504  0.6992 -1.7004
 2845TIP3    H230171   5.530   3.088   0.968 -0.8414 -0.2264  1.7322
 2846TIP3   OH230172   3.779   4.716   8.169  0.2824  0.0561  0.7415
 2846TIP3    H130173   3.749   4.803   8.196 -0.0147 -0.0219  0.6715
 2846TIP3    H230174   3.704   4.679   8.122  1.1598  0.6088 -1.1777
 2847TIP3   OH230175   3.059   6.854   0.227  0.2930 -0.3900  0.2452
 2847TIP3    H130176   3.019   6.822   0.146 -0.2818 -0.0766  0.3908
 2847TIP3    H230177   3.073   6.947   0.211  0.6002 -0.4197  0.3415
 2848TIP3   OH230178   3.813   0.646   0.930  0.1189 -0.2340 -0.1152
 2848TIP3    H130179   3.787   0.555   0.938 -1.8414  0.2173 -0.7695
 2848TIP3    H230180   3.792   0.669   0.839 -1.6770  1.4719  0.6535
 2849TIP3   OH230181   1.628   3.164   0.972  0.2584  0.0132 -0.1250
 2849TIP3    H130182   1.603   3.116   1.051 -0.9340 -1.1659 -1.1727
 2849TIP3    H230183   1.576   3.245   0.976 -0.9001 -0.6982 -0.3850
 2850TIP3   OH230184   0.805   4.207   1.313 -0.0535  0.0596 -0.4848
 2850TIP3    H130185   0.863   4.211   1.390  0.7872  1.8089 -1.1512
 2850TIP3    H230186   0.717   4.210   1.350  0.0436 -4.2550  0.6611
 2851TIP3   OH230187   5.491   1.779   1.654  0.1222  0.0777 -0.4524
 2851TIP3    H130188   5.509   1.872   1.660 -0.1642  0.0518  1.0940
 2851TIP3    H230189   5.400   1.773   1.626 -0.3184  0.2916  0.8849
 2852TIP3   OH230190   0.718   3.462   1.161  0.5864 -0.2900  0.2369
 2852TIP3    H130191   0.759   3.376   1.169  0.1824 -0.5408 -0.2898
 2852TIP3    H230192   0.645   3.447   1.102  0.7095  0.4873 -0.1174
 2853TIP3   OH230193   4.901   6.620   0.841 -0.3728 -0.5537 -0.0067
 2853TIP3    H130194   4.817   6.666   0.839  0.3048  0.6906 -1.4585
 2853TIP3    H230195   4.899   6.571   0.923 -0.9171  2.5433  2.0090
 2854TIP3   OH230196   0.182   6.705   8.103 -0.5673  0.4377 -0.4539
 2854TIP3    H130197   0.269   6.744   8.104 -0.4324  0.1470 -0.6044
 2854TIP3    H230198   0.190   6.631   8.042 -0.3185 -0.9366  1.1579
 2855TIP3   OH230199   5.434   3.130   8.037  0.2672 -1.0747  0.0729
 2855TIP3    H130200   5.462   3.179   8.114 -2.1800 -1.1323  1.1034
 2855TIP3    H230201   5.413   3.197   7.972 -0.4252 -0.8501  0.5103
 2856TIP3   OH230202   4.552   1.177   8.145  0.6352  0.7887  0.6136
 2856TIP3    H130203   4.470   1.215   8.177  0.1043 -0.3055  0.6018
 2856TIP3    H230204   4.599   1.151   8.224  0.3536  0.1749  0.5824
 2857TIP3   OH230205   5.945   4.536   0.873  0.2220  0.5286  0.1621
 2857TIP3    H130206   6.031   4.539   0.832 -0.9719  1.2846 -2.5692
 2857TIP3    H230207   5.946   4.608   0.937  1.0910  1.6603 -1.0741
 2858TIP3   OH230208   4.735   2.622   1.072 -0.1789  0.0957  0.6749
 2858TIP3    H130209   4.801   2.555   1.051 -1.4363 -0.4952 -1.8834
 2858TIP3    H230210   4.784   2.704   1.075  0.7633 -0.3602 -0.8930
 2859TIP3   OH230211   5.931   1.517   8.529  0.3125  0.1222 -0.1617
 2859TIP3    H130212   5.934   1.551   8.440  2.5255 -1.5421 -0.8266
 2859TIP3    H230213   5.882   1.435   8.522 -0.5578  0.5613  0.4421
 2860TIP3   OH230214   5.418   0.481   0.295  0.0559 -0.4517 -0.0720
 2860TIP3    H130215   5.483   0.462   0.227 -1.7012 -0.1899 -1.9260
 2860TIP3    H230216   5.413   0.576   0.298 -0.0611 -0.4661  0.2293
 2861TIP3   OH230217   2.676   2.058   0.706 -0.1957  0.2232 -0.0021
 2861TIP3    H130218   2.663   2.057   0.611 -0.9424  1.5443  0.0695
 2861TIP3    H230219   2.761   2.100   0.719  0.7851 -1.6255 -0.1382
 2862TIP3   OH230220   2.364   2.087   2.409 -0.2758 -0.2020  1.0021
 2862TIP3    H130221   2.330   2.100   2.497  0.3166  1.7972  1.0019
 2862TIP3    H230222   2.450   2.129   2.410 -0.4619  0.2940 -0.6318
 2863TIP3   OH230223   3.867   2.732   0.122  0.8758  0.4595  0.2332
 2863TIP3    H130224   3.908   2.671   0.062 -0.6523  0.2056 -0.5907
 2863TIP3    H230225   3.884   2.818   0.084 -1.2126  0.2377 -1.3657
 2864TIP3   OH230226   4.751   6.089   0.254 -0.3467 -0.0579  0.7893
 2864TIP3    H130227   4.750   6.101   0.159  1.5269 -0.7589  0.6429
 2864TIP3    H230228   4.790   6.003   0.267 -1.7863 -0.5554  2.1909
 2865TIP3   OH230229   2.185   2.979   2.415 -0.3923  0.2154 -0.5593
 2865TIP3    H130230   2.153   2.891   2.433 -1.7967  0.6588 -0.7648
 2865TIP3    H230231   2.272   2.966   2.376  0.3579 -0.9694  1.3589
 2866TIP3   OH230232   2.514   6.146   7.434  0.2432  0.5945 -0.1509
 2866TIP3    H130233   2.428   6.135   7.474  0.6673 -0.5801  0.4685
 2866TIP3    H230234   2.533   6.061   7.394  0.9788  0.9419 -0.5582
 2867TIP3   OH230235   3.724   4.248   2.461  0.1126 -0.3666  0.9631
 2867TIP3    H130236   3.692   4.161   2.437  1.6682 -0.6921 -0.0512
 2867TIP3    H230237   3.710   4.254   2.556 -1.1976 -1.1931  0.8443
 2868TIP3   OH230238   3.659   1.400   2.648  0.1377 -0.1378  0.4375
 2868TIP3    H130239   3.733   1.453   2.677 -0.1336  0.3275  0.2908
 2868TIP3    H230240   3.672   1.390   2.554 -0.9020  1.4379  0.0896
 2869TIP3   OH230241   5.651   4.957   8.529 -0.3150  0.1846  0.3576
 2869TIP3    H130242   5.570   4.951   8.479 -0.2754 -1.5311  0.4294
 2869TIP3    H230243   5.703   5.023   8.484 -0.5595 -0.8196 -1.4819
 2870TIP3   OH230244   3.482   0.404   8.464  0.9422  0.4044 -0.1087
 2870TIP3    H130245   3.446   0.407   8.552  0.1040 -2.9560 -0.2207
 2870TIP3    H230246   3.405   0.403   8.407  1.4420  1.0347 -0.8122
 2871TIP3   OH230247   4.785   0.218   2.231  0.3085 -0.5143  0.4989
 2871TIP3    H130248   4.753   0.182   2.148  1.1514 -1.1466  0.4337
 2871TIP3    H230249   4.775   0.146   2.294  0.5624 -0.3526  0.7247
 2872TIP3   OH230250   2.916   1.808   0.756  0.7627  0.0978  0.1897
 2872TIP3    H130251   2.906   1.716   0.779  0.4157 -0.2677 -1.2967
 2872TIP3    H230252   2.900   1.855   0.838  0.6279 -1.1378  0.9052
 2873TIP3   OH230253   2.018   5.271   1.236  0.1790  0.2028  0.4514
 2873TIP3    H130254   2.028   5.252   1.329 -0.7319  0.4605  0.6145
 2873TIP3    H230255   2.020   5.186   1.194 -0.0545  0.0273  0.7844
 2874TIP3   OH230256   4.855   3.892   0.086  0.4535  0.4158 -0.8900
 2874TIP3    H130257   4.820   3.846   0.163 -0.3635  1.6902 -0.4775
 2874TIP3    H230258   4.931   3.940   0.119  0.1248  0.9342 -0.8859
 2875TIP3   OH230259   0.635   3.824   0.856 -0.0194 -0.3687  0.3553
 2875TIP3    H130260   0.608   3.915   0.874 -0.5621 -0.6300  0.8912
 2875TIP3    H230261   0.642   3.784   0.942  1.1575 -0.5858  0.1671
 2876TIP3   OH230262   3.321   5.479   1.228  0.2800  0.4012 -0.1574
 2876TIP3    H130263   3.283   5.401   1.268  0.5014 -0.0683 -0.8391
 2876TIP3    H230264   3.268   5.552   1.262  0.5752  0.0470  1.1088
 2877TIP3   OH230265   4.636   3.042   1.996 -0.4919  0.0396  0.1414
 2877TIP3    H130266   4.687   3.121   1.977 -1.6219  0.7563 -0.0699
 2877TIP3    H230267   4.611   3.009   1.910  3.3699 -2.9956 -0.0667
 2878TIP3   OH230268   6.426   2.502   8.043 -0.4459 -1.1210  0.1021
 2878TIP3    H130269   6.481   2.507   7.965 -0.1748  0.4804  0.3633
 2878TIP3    H230270   6.337   2.494   8.009 -0.4324  0.6297 -0.4281
 2879TIP3   OH230271   3.604   5.276   2.550  0.4259  0.4936 -0.5097
 2879TIP3    H130272   3.597   5.317   2.637 -2.0102 -1.4870  0.3452
 2879TIP3    H230273   3.637   5.188   2.567  0.1884  0.1731 -1.6123
 2880TIP3   OH230274   0.018   5.337   2.632  0.3162  0.3318  0.8305
 2880TIP3    H130275   0.066   5.287   2.566  0.6212 -0.1903  1.4322
 2880TIP3    H230276  -0.041   5.393   2.582  1.5218  0.9714  0.0670
 2881TIP3   OH230277   2.264   0.617   1.789  0.2700 -0.3442 -1.0289
 2881TIP3    H130278   2.322   0.574   1.726  0.2625 -0.9425 -0.6375
 2881TIP3    H230279   2.241   0.548   1.852 -0.2675  0.0712 -0.7562
 2882TIP3   OH230280   6.845   0.568   7.553 -0.0861  0.4205 -0.2114
 2882TIP3    H130281   6.909   0.582   7.484 -0.6887 -0.5386 -0.9897
 2882TIP3    H230282   6.766   0.612   7.522  0.3291  2.1971  1.0529
 2883TIP3   OH230283   4.286   5.371   1.908 -0.1070  0.5857 -0.5051
 2883TIP3    H130284   4.272   5.277   1.905 -2.4027  0.8534  0.1740
 2883TIP3    H230285   4.213   5.405   1.959  1.1938  2.6606  0.1259
 2884TIP3   OH230286   3.317   4.819   8.505 -0.3970  0.4232  0.7357
 2884TIP3    H130287   3.343   4.866   8.585  1.9002  2.0254 -0.8343
 2884TIP3    H230288   3.306   4.888   8.439 -0.2919 -0.9967 -0.8216
 2885TIP3   OH230289   0.576   5.623   8.142 -0.3910 -0.0301  0.1506
 2885TIP3    H130290   0.536   5.575   8.069 -0.3776  0.6400 -0.3111
 2885TIP3    H230291   0.637   5.561   8.181  1.0216  0.1670 -1.5965
 2886TIP3   OH230292   4.238   1.002   2.874 -0.2184  0.7414  0.2465
 2886TIP3    H130293   4.325   0.975   2.904  0.5978  2.0576 -0.7844
 2886TIP3    H230294   4.185   0.923   2.876  1.1723 -0.2114  0.3290
 2887TIP3   OH230295   4.520   6.224   2.247  0.2002 -0.4386  0.5883
 2887TIP3    H130296   4.568   6.223   2.330 -0.3426 -0.8607  0.9081
 2887TIP3    H230297   4.463   6.147   2.252  0.4003 -0.6576 -0.3221
 2888TIP3   OH230298   0.968   1.988   1.705  0.0545  0.4028  0.6527
 2888TIP3    H130299   0.899   1.982   1.771  1.0129  1.5497  1.8134
 2888TIP3    H230300   1.046   1.952   1.748  0.7045  1.1954  0.1712
 2889TIP3   OH230301   3.300   5.266   0.515  0.1135  0.3462  0.3333
 2889TIP3    H130302   3.369   5.225   0.463  0.7431 -0.9159  2.0737
 2889TIP3    H230303   3.345   5.302   0.591 -1.1052 -0.5080  1.5109
 2890TIP3   OH230304   5.430   2.860   2.200 -0.4156 -0.2557 -0.1820
 2890TIP3    H130305   5.367   2.795   2.167 -0.5427 -1.0179  1.4822
 2890TIP3    H230306   5.376   2.937   2.220 -0.8083 -0.8098  0.9701
 2891TIP3   OH230307   4.978   6.642   7.071  0.2161  0.0062 -0.4226
 2891TIP3    H130308   4.912   6.695   7.117 -0.4803 -0.5100 -0.8220
 2891TIP3    H230309   4.936   6.557   7.058  0.7930 -0.1828 -1.0939
 2892TIP3   OH230310   3.008   4.821   0.177 -0.4744  0.0502 -0.3326
 2892TIP3    H130311   2.936   4.856   0.229  0.6043  0.1631  1.1650
 2892TIP3    H230312   3.059   4.898   0.152  0.4727 -0.1727  0.7715
 2893TIP3   OH230313   3.694   2.771   3.173  0.4452 -0.2150  0.0492
 2893TIP3    H130314   3.767   2.709   3.183  1.4967  0.2431 -3.4235
 2893TIP3    H230315   3.618   2.724   3.207  0.9764 -4.0062 -3.2766
 2894TIP3   OH230316   4.786   2.316   1.589 -0.5759 -0.7565 -0.3291
 2894TIP3    H130317   4.809   2.228   1.617  2.3818 -0.6694 -2.1277
 2894TIP3    H230318   4.810   2.372   1.663  0.0461 -1.1997 -0.1928
 2895TIP3   OH230319   2.210   0.429   2.906 -0.0407 -0.5423 -0.7973
 2895TIP3    H130320   2.198   0.338   2.880 -1.3485 -0.9107  0.9016
 2895TIP3    H230321   2.128   0.452   2.949 -0.2843  1.9130 -2.4074
 2896TIP3   OH230322   6.085   0.111   0.992 -0.4516 -0.2618 -0.4569
 2896TIP3    H130323   6.020   0.149   1.052  1.3824  0.5893  1.1006
 2896TIP3    H230324   6.102   0.024   1.028 -1.4119 -0.8852 -1.4518
 2897TIP3   OH230325   6.620   5.842   0.814  0.6341  0.1576  0.6616
 2897TIP3    H130326   6.678   5.792   0.757 -1.3363 -0.3884 -1.0117
 2897TIP3    H230327   6.661   5.929   0.819  0.8611  0.2752 -1.7575
 2898TIP3   OH230328   2.271   5.054   0.044  0.3232  0.2372  0.6543
 2898TIP3    H130329   2.261   4.984  -0.021  1.8780  1.8600 -1.4358
 2898TIP3    H230330   2.361   5.045   0.075 -0.1453  0.0132  2.0303
 2899TIP3   OH230331   6.800   1.355   0.322  0.5619  0.2568  0.0205
 2899TIP3    H130332   6.893   1.360   0.300  0.1022  2.0826 -1.7688
 2899TIP3    H230333   6.791   1.409   0.400  1.0664 -0.3712  0.5273
 2900TIP3   OH230334   4.834   0.742   1.899  0.1971  0.2194 -0.8642
 2900TIP3    H130335   4.843   0.674   1.966 -0.7762  1.2141  0.3205
 2900TIP3    H230336   4.822   0.694   1.818 -1.9590 -1.0705  0.1396
 2901TIP3   OH230337   2.362   3.362   0.459  0.4078 -0.2543 -0.6270
 2901TIP3    H130338   2.413   3.433   0.498 -0.3654  0.2666 -0.5308
 2901TIP3    H230339   2.427   3.300   0.426  1.1038 -0.2635  0.6748
 2902TIP3   OH230340   3.392   5.017   8.083  0.2736  0.1795  0.3016
 2902TIP3    H130341   3.312   5.031   8.032 -0.3586 -0.1172  1.1768
 2902TIP3    H230342   3.452   5.086   8.054 -0.8514  1.3596  0.6974
 2903TIP3   OH230343   5.932   4.774   8.536  0.3327  0.2815  0.1537
 2903TIP3    H130344   5.934   4.743   8.626  0.3177 -1.8997 -0.5232
 2903TIP3    H230345   5.865   4.719   8.494  2.6861 -1.2220 -1.9289
 2904TIP3   OH230346   0.650   5.457   2.867 -0.4088 -0.5990 -0.7808
 2904TIP3    H130347   0.666   5.407   2.947 -1.6139 -1.6071 -1.1330
 2904TIP3    H230348   0.592   5.528   2.894 -0.1593 -0.4569 -0.6140
 2905TIP3   OH230349   6.483   0.925   7.389 -0.1382 -0.0319  0.0079
 2905TIP3    H130350   6.469   1.008   7.344 -0.0635 -0.5989 -1.0847
 2905TIP3    H230351   6.399   0.907   7.433 -0.0662  0.7402  0.4723
 2906TIP3   OH230352   1.909   5.290   0.952 -0.3714  0.0743 -0.3159
 2906TIP3    H130353   1.949   5.219   0.901  0.9440 -1.3753  2.4847
 2906TIP3    H230354   1.973   5.309   1.020 -1.4504  2.8419  0.0380
 2907TIP3   OH230355   3.001   0.373   2.271  0.0056  0.1223 -0.0396
 2907TIP3    H130356   2.999   0.303   2.206 -1.1879 -0.7056  0.8621
 2907TIP3    H230357   3.042   0.334   2.348  2.5911  1.4520 -0.5965
 2908TIP3   OH230358   3.974   4.849   1.144 -0.1791  0.4562  0.5831
 2908TIP3    H130359   3.915   4.780   1.173  0.9525 -0.5942  0.4526
 2908TIP3    H230360   4.052   4.839   1.199 -0.0863  1.7875  0.7226
 2909TIP3   OH230361   3.133   5.302   0.935 -0.0892  0.3699 -0.3157
 2909TIP3    H130362   3.119   5.215   0.899 -0.8270  0.3538 -0.0011
 2909TIP3    H230363   3.076   5.306   1.012 -2.0185  1.9876 -1.7051
 2910TIP3   OH230364   5.268   2.060   2.931 -0.4416 -0.3720 -0.1489
 2910TIP3    H130365   5.238   1.972   2.908  2.0753 -1.3832  0.1112
 2910TIP3    H230366   5.325   2.046   3.007 -1.7447  1.8170  1.3472
 2911TIP3   OH230367   0.620   5.747   2.106  0.2676  0.1532 -0.1498
 2911TIP3    H130368   0.662   5.750   2.192  0.9192 -0.3668 -0.4358
 2911TIP3    H230369   0.526   5.742   2.125  0.3492  0.9461  0.5096
 2912TIP3   OH230370   3.941   5.142   8.083  0.1194 -0.0821  0.1089
 2912TIP3    H130371   3.869   5.116   8.025  1.2064 -0.5564 -1.0905
 2912TIP3    H230372   3.937   5.238   8.085 -0.5495 -0.1017  0.0898
 2913TIP3   OH230373   5.929   0.586   0.192  0.0721 -0.1771  0.0130
 2913TIP3    H130374   6.002   0.640   0.160  0.5275 -0.6536  0.2213
 2913TIP3    H230375   5.860   0.649   0.211  0.9448  0.4547  1.2278
 2914TIP3   OH230376   1.250   2.486   8.046  0.3897 -0.1688  0.1082
 2914TIP3    H130377   1.337   2.481   8.086  0.6306 -0.2005 -0.4100
 2914TIP3    H230378   1.234   2.580   8.036  0.6197 -0.1764 -0.3406
 2915TIP3   OH230379   3.067   1.855   1.377  0.0786  0.1029  0.1939
 2915TIP3    H130380   2.999   1.845   1.443  1.7219  1.1686  2.1835
 2915TIP3    H230381   3.134   1.792   1.402  1.2274  1.3080  0.2750
 2916TIP3   OH230382   4.136   4.923   3.608  0.2221 -0.2743  0.3505
 2916TIP3    H130383   4.156   4.954   3.696 -0.1364  1.8030 -0.2450
 2916TIP3    H230384   4.207   4.956   3.553  0.1888 -1.1284 -0.2365
 2917TIP3   OH230385   3.774   0.503   8.300  0.5955  0.4294  0.6110
 2917TIP3    H130386   3.773   0.425   8.355  1.5491 -0.1110 -0.1047
 2917TIP3    H230387   3.726   0.478   8.221 -0.3071  1.0310  0.9483
 2918TIP3   OH230388   6.624   3.484   3.702 -0.4492 -0.4029 -0.3589
 2918TIP3    H130389   6.706   3.495   3.749 -0.5100 -2.3569  0.3097
 2918TIP3    H230390   6.557   3.478   3.771 -0.7857 -1.3851 -0.7464
 2919TIP3   OH230391   3.175   2.431   1.295  0.4142 -0.2352 -0.2280
 2919TIP3    H130392   3.080   2.431   1.307  0.3981 -0.1543 -0.3658
 2919TIP3    H230393   3.206   2.368   1.361  0.2003 -0.8381 -0.6893
 2920TIP3   OH230394   2.651   4.650   0.830 -0.1659 -0.2433 -0.1391
 2920TIP3    H130395   2.627   4.574   0.776  1.2854  0.1240 -1.3621
 2920TIP3    H230396   2.657   4.615   0.919 -2.1455 -0.9623 -0.2488
 2921TIP3   OH230397   1.285   1.296   2.980 -0.3781 -0.6607 -0.1062
 2921TIP3    H130398   1.332   1.233   2.925 -0.6931 -0.3795 -0.7131
 2921TIP3    H230399   1.326   1.380   2.961 -0.6694 -0.5193 -0.1181
 2922TIP3   OH230400   1.781   3.355   0.830  0.3920 -0.3687  0.3079
 2922TIP3    H130401   1.772   3.287   0.897 -0.7736 -0.5797 -0.0460
 2922TIP3    H230402   1.745   3.433   0.871  1.6828  0.0434  0.6947
 2923TIP3   OH230403   0.200   4.572   2.338 -0.4368 -0.2095 -0.3841
 2923TIP3    H130404   0.239   4.508   2.279 -1.4846 -0.1258 -1.2106
 2923TIP3    H230405   0.145   4.626   2.281  1.5994  2.4558  0.0109
 2924TIP3   OH230406   4.996   2.490   0.206 -0.9546  0.4539  0.4425
 2924TIP3    H130407   5.053   2.509   0.282  0.5639 -0.4079 -0.4247
 2924TIP3    H230408   5.024   2.552   0.139 -1.9984  0.9257  0.4317
 2925TIP3   OH230409   3.464   2.321   0.192 -0.0969 -0.0763  0.0388
 2925TIP3    H130410   3.525   2.324   0.266  1.6833  0.5201 -1.3890
 2925TIP3    H230411   3.394   2.262   0.221  1.4388 -1.2555  1.5324
 2926TIP3   OH230412   2.169   5.273   8.245 -0.2172 -0.2649 -0.0023
 2926TIP3    H130413   2.168   5.194   8.298 -1.6760  0.6812  1.4803
 2926TIP3    H230414   2.193   5.343   8.306  0.8492  0.4807 -1.2266
 2927TIP3   OH230415   2.873   4.594   0.399 -0.1245  0.1565  0.2261
 2927TIP3    H130416   2.808   4.628   0.459 -0.0258  0.0089  0.4214
 2927TIP3    H230417   2.956   4.631   0.430 -0.1321  0.4497 -0.1012
 2928TIP3   OH230418   4.413   5.008   1.279 -0.1801 -0.2211  0.1200
 2928TIP3    H130419   4.376   4.953   1.348 -0.5891  1.3956  1.2357
 2928TIP3    H230420   4.338   5.051   1.240  0.0478 -1.1503 -1.4117
 2929TIP3   OH230421   1.897   5.571   2.484  0.0777 -0.1360 -0.3472
 2929TIP3    H130422   1.920   5.572   2.577  0.0333 -0.1700 -0.3357
 2929TIP3    H230423   1.932   5.488   2.452 -1.9547 -1.2653  0.1653
 2930TIP3   OH230424   2.408   3.568   1.370 -0.1384  0.2547 -0.0877
 2930TIP3    H130425   2.386   3.607   1.285  0.5182  1.0576  0.0908
 2930TIP3    H230426   2.427   3.477   1.351  1.2953  0.7240 -1.0325
 2931TIP3   OH230427   3.002   0.597   2.461 -0.2812  0.0185 -0.1319
 2931TIP3    H130428   3.027   0.543   2.536 -0.9853 -0.7941 -0.4697
 2931TIP3    H230429   3.007   0.538   2.386  2.0203  1.2158 -1.0158
 2932TIP3   OH230430   4.815   3.919   1.302 -0.2206  0.2894  0.8320
 2932TIP3    H130431   4.838   4.012   1.297  0.2662  0.1927  1.1784
 2932TIP3    H230432   4.767   3.911   1.384  0.7099  0.0458  1.3739
 2933TIP3   OH230433   1.247   6.497   0.466  0.2116  0.0219 -0.4433
 2933TIP3    H130434   1.231   6.562   0.398  0.9175 -0.0066 -0.6478
 2933TIP3    H230435   1.240   6.546   0.548 -0.5810  0.0679 -0.5369
 2934TIP3   OH230436   1.822   5.069   1.610 -0.3209 -0.3400 -0.6608
 2934TIP3    H130437   1.835   5.159   1.638 -0.5276 -0.6311  0.4545
 2934TIP3    H230438   1.760   5.074   1.538 -0.6716  0.3841 -0.3175
 2935TIP3   OH230439   4.895   5.216   7.582  0.1969  0.5038 -0.1320
 2935TIP3    H130440   4.970   5.199   7.525  1.1087  0.2573  1.1189
 2935TIP3    H230441   4.820   5.181   7.533  1.1459 -0.9754 -0.5919
 2936TIP3   OH230442   1.690   2.143   2.676  0.5873 -0.2149  0.3495
 2936TIP3    H130443   1.697   2.118   2.768 -0.3326 -0.5913  0.3273
 2936TIP3    H230444   1.601   2.119   2.651  1.2364 -1.4210 -1.0180
 2937TIP3   OH230445   6.848   5.132   7.635  0.3094  0.3595 -0.1326
 2937TIP3    H130446   6.907   5.118   7.709 -1.5600  0.5009  1.4715
 2937TIP3    H230447   6.859   5.054   7.581  0.2091 -0.7507  1.3887
 2938TIP3   OH230448   0.790   0.210   1.723 -0.4497  0.2884 -0.0929
 2938TIP3    H130449   0.700   0.200   1.692  0.3370 -1.0149 -2.1834
 2938TIP3    H230450   0.799   0.145   1.793 -1.3551  1.0845  0.8069
 2939TIP3   OH230451   6.059   3.033   3.036 -0.1025  1.1353  0.1731
 2939TIP3    H130452   6.074   3.113   3.087 -1.5108  1.9747 -0.6846
 2939TIP3    H230453   5.971   3.005   3.059  0.3554 -0.1950  0.4439
 2940TIP3   OH230454   4.832   3.167   3.264  0.2389 -0.0359 -0.0867
 2940TIP3    H130455   4.908   3.192   3.317  0.5126  0.5369 -0.7366
 2940TIP3    H230456   4.761   3.155   3.327  1.0593 -1.3631  0.6108
 2941TIP3   OH230457   1.696   1.495   7.819 -0.6715 -0.7165  0.0497
 2941TIP3    H130458   1.719   1.402   7.812 -0.9927 -0.7934 -0.0139
 2941TIP3    H230459   1.654   1.516   7.736  0.8992 -0.0728 -0.5992
 2942TIP3   OH230460   1.015   1.011   1.409 -0.4239  0.2274 -0.5841
 2942TIP3    H130461   0.955   0.948   1.370  0.3699 -0.9340  0.0094
 2942TIP3    H230462   0.977   1.030   1.495 -1.1372  1.2889 -1.1038
 2943TIP3   OH230463   5.204   2.032   0.251 -0.2265 -0.0113 -0.2451
 2943TIP3    H130464   5.219   2.004   0.341 -0.4951  0.1641 -0.1446
 2943TIP3    H230465   5.221   2.126   0.251  0.5694 -0.1491 -0.5583
 2944TIP3   OH230466   1.101   2.799   1.530 -0.5447  0.1062 -0.3365
 2944TIP3    H130467   1.170   2.837   1.475 -0.6769 -0.0192 -0.5948
 2944TIP3    H230468   1.023   2.801   1.474 -0.9643  1.0755  0.2670
 2945TIP3   OH230469   5.565   1.359   0.855  0.0023 -0.0512  0.0495
 2945TIP3    H130470   5.595   1.380   0.767  1.8509 -0.6073  0.4910
 2945TIP3    H230471   5.562   1.263   0.857  0.0458 -0.0452  0.5945
 2946TIP3   OH230472   2.088   5.147   1.505  0.2673 -0.0335  0.3321
 2946TIP3    H130473   2.165   5.095   1.480 -0.0478 -0.3566  0.0278
 2946TIP3    H230474   2.018   5.083   1.517 -0.4323  0.3911 -1.1970
 2947TIP3   OH230475   3.905   3.800   0.458 -0.0460 -0.4768 -0.2115
 2947TIP3    H130476   3.983   3.844   0.492 -0.2695  0.6054 -1.0350
 2947TIP3    H230477   3.867   3.757   0.534  0.1635  0.8259  0.6686
 2948TIP3   OH230478   1.474   4.432   7.545 -0.0234 -0.0036  0.4973
 2948TIP3    H130479   1.422   4.373   7.490  0.1071  0.3649 -0.0334
 2948TIP3    H230480   1.441   4.519   7.523  1.1729  0.2800 -0.2388
 2949TIP3   OH230481   0.266   6.367   3.686 -0.3494 -0.0999 -0.0333
 2949TIP3    H130482   0.295   6.455   3.662 -1.6464  0.9802  2.0501
 2949TIP3    H230483   0.344   6.312   3.673  0.1403  1.0315 -2.6044
 2950TIP3   OH230484   0.833   3.216   8.141 -0.0552 -0.3223  0.5886
 2950TIP3    H130485   0.894   3.244   8.073  1.3006  0.2488  1.9817
 2950TIP3    H230486   0.888   3.197   8.217 -1.4921 -1.1927  1.4674
 2951TIP3   OH230487   2.717   1.115   0.024  0.4634 -0.3827 -0.0895
 2951TIP3    H130488   2.789   1.175   0.004  1.6482 -1.7470 -0.0892
 2951TIP3    H230489   2.638   1.164   0.003  1.3974  1.0939 -0.2819
 2952TIP3   OH230490   6.111   1.478   2.140 -0.6183  0.1019 -0.6579
 2952TIP3    H130491   6.062   1.406   2.101  0.7719 -0.8871 -0.6550
 2952TIP3    H230492   6.193   1.480   2.090 -0.4531  1.3984 -0.3613
 2953TIP3   OH230493   2.316   2.431   0.244 -0.4541  0.0353 -0.4395
 2953TIP3    H130494   2.286   2.521   0.232  0.5491  0.6407  1.1976
 2953TIP3    H230495   2.260   2.379   0.187 -2.2940  1.4727 -0.0448
 2954TIP3   OH230496   5.675   0.498   8.317 -0.1094 -0.0523 -0.2541
 2954TIP3    H130497   5.745   0.519   8.256  1.5043  1.3793  1.9251
 2954TIP3    H230498   5.719   0.460   8.393 -1.2921  2.8680  2.1145
 2955TIP3   OH230499   0.933   3.641   1.010 -0.5872  0.1929  0.0954
 2955TIP3    H130500   0.970   3.729   1.001 -1.1797  0.4036 -0.3188
 2955TIP3    H230501   0.850   3.655   1.057 -2.0769  0.2266 -2.3619
 2956TIP3   OH230502   5.244   4.461   1.384 -0.3666  0.1083 -0.1647
 2956TIP3    H130503   5.158   4.502   1.392 -0.4385 -0.0703 -0.0278
 2956TIP3    H230504   5.297   4.526   1.337  0.3712  1.6668  2.5569
 2957TIP3   OH230505   1.535   3.949   2.352  0.0959  0.2619  0.0473
 2957TIP3    H130506   1.485   3.949   2.271  0.0518 -0.7064  0.0696
 2957TIP3    H230507   1.626   3.959   2.324  0.0978 -0.2647 -0.1298
 2958TIP3   OH230508   4.523   2.437   1.662  0.3991 -0.1151 -0.2956
 2958TIP3    H130509   4.537   2.529   1.643 -0.2986  0.6842  2.5732
 2958TIP3    H230510   4.610   2.402   1.683  0.3157  0.7675  1.7488
 2959TIP3   OH230511   6.638   4.736   1.128 -0.4014  0.2174 -0.1735
 2959TIP3    H130512   6.559   4.692   1.160 -0.0091  0.8206  1.7398
 2959TIP3    H230513   6.619   4.755   1.036 -1.0563 -2.8343 -0.7915
 2960TIP3   OH230514   6.184   0.608   8.051 -0.6840  0.0673 -0.5383
 2960TIP3    H130515   6.158   0.517   8.069 -2.1710  0.7347  0.9493
 2960TIP3    H230516   6.102   0.654   8.035 -0.0923  1.4150  0.1189
 2961TIP3   OH230517   3.975   6.395   0.581  0.1718 -0.6025  0.2178
 2961TIP3    H130518   4.019   6.474   0.549 -0.2208 -0.0190  1.0511
 2961TIP3    H230519   4.040   6.326   0.572 -0.1065 -0.6154 -2.3097
 2962TIP3   OH230520   1.656   0.780   1.470  0.2654  0.4519  0.6873
 2962TIP3    H130521   1.686   0.816   1.554 -0.3446 -0.5286  1.3532
 2962TIP3    H230522   1.619   0.855   1.424  1.1813  1.1298  1.0200
 2963TIP3   OH230523   2.891   4.962   7.400 -0.0364 -0.7891 -0.3162
 2963TIP3    H130524   2.975   4.957   7.354  0.3949  0.0924  0.3486
 2963TIP3    H230525   2.908   4.920   7.484 -0.5768 -1.5867 -0.5919
 2964TIP3   OH230526   0.967   0.983   2.747 -1.4298 -0.2498  0.1576
 2964TIP3    H130527   1.041   0.932   2.714 -0.7639 -1.3912  3.1141
 2964TIP3    H230528   0.904   0.983   2.675  0.4343 -1.3154 -1.5806
 2965TIP3   OH230529   6.194   3.325   3.109  0.2939  0.0891  0.0896
 2965TIP3    H130530   6.274   3.274   3.112  0.8938  0.9354 -0.7979
 2965TIP3    H230531   6.209   3.390   3.039 -1.1357  0.2868 -0.0785
 2966TIP3   OH230532   2.682   5.935   1.945  0.2523  0.5232 -0.0083
 2966TIP3    H130533   2.606   5.992   1.937  0.0074 -0.0263 -2.5156
 2966TIP3    H230534   2.690   5.894   1.859  3.9260  1.2088 -0.1535
 2967TIP3   OH230535   5.970   5.385   8.315 -0.6282 -0.5530 -0.2070
 2967TIP3    H130536   5.998   5.414   8.228  0.0092  0.2603  0.2484
 2967TIP3    H230537   5.914   5.455   8.348 -0.9733 -0.9145 -0.0089
 2968TIP3   OH230538   4.294   4.659   1.615  0.3778  0.4464 -0.0472
 2968TIP3    H130539   4.290   4.629   1.524  0.9693 -0.9092  0.3495
 2968TIP3    H230540   4.329   4.585   1.664 -1.0589  0.7178  1.4976
 2969TIP3   OH230541   1.036   5.355   8.310 -0.0429 -0.7142  0.0498
 2969TIP3    H130542   1.100   5.324   8.245  1.4766  1.6372  0.3092
 2969TIP3    H230543   0.951   5.343   8.267  0.8841  0.5821 -2.3856
 2970TIP3   OH230544   0.332   4.357   3.152 -0.0794  0.2860  0.1924
 2970TIP3    H130545   0.423   4.348   3.179  0.0985  2.6054  0.5752
 2970TIP3    H230546   0.325   4.303   3.073  1.0537 -1.5241  1.2718
 2971TIP3   OH230547   6.516   5.716   1.590  0.0253  0.0619  0.4272
 2971TIP3    H130548   6.438   5.765   1.561  0.3295  0.0555 -0.4318
 2971TIP3    H230549   6.507   5.712   1.685 -1.7314 -1.1036  0.2670
 2972TIP3   OH230550   5.718   5.544   8.434 -0.6307  0.3705  0.3384
 2972TIP3    H130551   5.730   5.510   8.523  1.2109  0.6080  0.2323
 2972TIP3    H230552   5.703   5.466   8.381 -0.1255  0.0583  0.6410
 2973TIP3   OH230553   3.373   4.814   1.930  0.5458 -0.1093 -0.7820
 2973TIP3    H130554   3.320   4.752   1.979  0.0259 -0.8846 -2.2500
 2973TIP3    H230555   3.463   4.784   1.942  0.4890  0.0725  0.1615
 2974TIP3   OH230556   6.424   6.193   8.007  0.2723  0.0333 -0.3022
 2974TIP3    H130557   6.360   6.167   7.941  0.1318 -1.1934  0.2990
 2974TIP3    H230558   6.506   6.154   7.978  0.3888  0.1978 -0.1952
 2975TIP3   OH230559   2.806   3.179   0.384  0.2060  0.4274  0.0811
 2975TIP3    H130560   2.735   3.239   0.359 -0.3945 -0.5783 -0.7178
 2975TIP3    H230561   2.865   3.232   0.438 -1.8071  0.9573  1.8831
 2976TIP3   OH230562   1.282   0.326   0.550  0.1473  0.3220 -1.2534
 2976TIP3    H130563   1.282   0.274   0.630  0.5009  1.2723 -0.6164
 2976TIP3    H230564   1.307   0.264   0.481  1.9875 -0.0744 -0.3027
 2977TIP3   OH230565   5.026   6.032   7.697 -0.4083 -0.2285 -0.2677
 2977TIP3    H130566   4.975   5.957   7.728 -0.2384  0.2795  1.3040
 2977TIP3    H230567   5.116   6.011   7.718  0.0526 -0.9002 -2.6034
 2978TIP3   OH230568   5.429   0.744   1.440 -0.4431  0.2178 -0.5831
 2978TIP3    H130569   5.355   0.800   1.463 -0.8035 -0.4519 -0.0928
 2978TIP3    H230570   5.403   0.656   1.467  0.7332  0.0459  0.0826
 2979TIP3   OH230571   0.764   1.358   8.269  0.0846  0.2960  0.0049
 2979TIP3    H130572   0.828   1.373   8.340  0.4511  0.7305 -0.4086
 2979TIP3    H230573   0.741   1.446   8.240  0.9306  0.1168 -1.2957
 2980TIP3   OH230574   1.412   1.760   3.953 -0.4916 -0.0051 -0.0332
 2980TIP3    H130575   1.418   1.855   3.946  2.9471 -0.2603 -2.7847
 2980TIP3    H230576   1.501   1.731   3.971 -0.9098 -2.8184 -1.8752
 2981TIP3   OH230577   3.176   2.171   2.731 -0.0616 -0.0496 -0.1135
 2981TIP3    H130578   3.195   2.161   2.824  1.9774 -2.8903 -0.6972
 2981TIP3    H230579   3.119   2.248   2.726 -0.0317  0.3580  3.4089
 2982TIP3   OH230580   5.884   1.265   3.083 -0.0260  0.2724  0.0126
 2982TIP3    H130581   5.807   1.207   3.079 -1.0863  1.6056  0.2411
 2982TIP3    H230582   5.877   1.308   3.168 -0.1922  1.9284 -0.8010
 2983TIP3   OH230583   2.220   0.509   8.145 -0.0312 -0.7501  0.2679
 2983TIP3    H130584   2.136   0.523   8.103 -0.8051 -1.1934  1.5974
 2983TIP3    H230585   2.198   0.481   8.234  1.5078  1.0645  1.3084
 2984TIP3   OH230586   4.086   4.226   1.529  0.3696 -0.0030 -0.4838
 2984TIP3    H130587   3.992   4.207   1.520  0.4168  0.2726 -1.8675
 2984TIP3    H230588   4.120   4.156   1.584 -0.9107  0.7616  1.4038
 2985TIP3   OH230589   2.895   1.311   8.628 -0.1589  0.1511  0.3784
 2985TIP3    H130590   2.957   1.357   8.571  1.1880 -1.4680  0.4509
 2985TIP3    H230591   2.911   1.347   8.715  1.6160 -1.0649  0.6178
 2986TIP3   OH230592   3.078   3.779   0.287 -0.4353  0.0242 -0.0777
 2986TIP3    H130593   3.128   3.823   0.355  0.8570 -1.8218  0.2582
 2986TIP3    H230594   3.114   3.812   0.205  1.3541 -1.1974  0.1635
 2987TIP3   OH230595   4.352   6.517   8.057  0.7472 -0.5478 -0.0115
 2987TIP3    H130596   4.299   6.465   7.997 -1.6648  0.9584  0.6640
 2987TIP3    H230597   4.400   6.578   8.000  0.5318 -0.8905 -0.5628
 2988TIP3   OH230598   4.692   4.783   8.012  0.2317  0.0027 -0.1078
 2988TIP3    H130599   4.707   4.793   7.918  0.7477 -2.2894 -0.3251
 2988TIP3    H230600   4.719   4.867   8.049 -0.5748  1.1926 -2.0413
 2989TIP3   OH230601   0.623   1.586   3.455  0.0902  0.6552  0.3042
 2989TIP3    H130602   0.676   1.650   3.409  1.9722  0.3265  1.8676
 2989TIP3    H230603   0.582   1.634   3.527 -1.3323  0.7786 -0.5414
 2990TIP3   OH230604   0.605   3.373   8.061 -0.4334 -0.2944 -0.2971
 2990TIP3    H130605   0.687   3.341   8.098 -0.4579  0.2958  0.2730
 2990TIP3    H230606   0.537   3.335   8.116 -0.4237  1.9134  1.3942
 2991TIP3   OH230607   5.620   3.712   2.777  0.0811 -0.1233 -0.2956
 2991TIP3    H130608   5.639   3.665   2.858  0.8061  0.9946  0.2031
 2991TIP3    H230609   5.658   3.799   2.790 -1.0609  0.5555 -1.2604
 2992TIP3   OH230610   6.445   0.451   3.055 -0.0979  0.1510  0.8719
 2992TIP3    H130611   6.529   0.477   3.017 -0.4908 -0.5555 -0.5604
 2992TIP3    H230612   6.469   0.412   3.139  0.9266  0.7052  0.8608
 2993TIP3   OH230613   4.286   0.744   1.431 -0.6135  0.0565 -0.2107
 2993TIP3    H130614   4.274   0.658   1.471 -0.2972 -0.7093 -1.6770
 2993TIP3    H230615   4.198   0.773   1.409 -0.7558  0.3161  0.6670
 2994TIP3   OH230616   4.598   3.258   2.414 -0.3084 -0.4340  0.1006
 2994TIP3    H130617   4.552   3.208   2.347 -1.0085 -0.5259  0.6383
 2994TIP3    H230618   4.687   3.269   2.379 -1.0245  0.7407 -1.4825
 2995TIP3   OH230619   4.987   3.821   2.689  0.6010 -0.0340  0.2460
 2995TIP3    H130620   4.947   3.845   2.772  0.2358  1.5931 -0.3735
 2995TIP3    H230621   4.948   3.881   2.625  2.4366  0.1619 -0.7416
 2996TIP3   OH230622   4.502   0.954   2.576 -0.0706  0.0928 -0.4470
 2996TIP3    H130623   4.521   1.040   2.613 -0.9672  0.8697 -1.7302
 2996TIP3    H230624   4.413   0.960   2.543 -0.7822 -1.8758  0.9099
 2997TIP3   OH230625   6.686   1.929   3.178  0.2081 -0.6052 -0.1318
 2997TIP3    H130626   6.651   1.905   3.263 -1.8815  1.2331 -0.3868
 2997TIP3    H230627   6.639   1.874   3.116 -0.2259 -0.0831 -0.2739
 2998TIP3   OH230628   1.771   6.015   8.630  0.0438 -0.2682 -0.2884
 2998TIP3    H130629   1.839   5.949   8.641 -0.0691 -0.3731 -0.2070
 2998TIP3    H230630   1.818   6.097   8.620  0.1896 -0.3891 -0.5826
 2999TIP3   OH230631   0.410   0.396   2.174  0.0892  0.3149  0.3924
 2999TIP3    H130632   0.494   0.409   2.129  0.5298  0.7935  1.3180
 2999TIP3    H230633   0.372   0.319   2.132  1.2304 -0.2204  0.2968
 3000TIP3   OH230634   2.352   3.446   3.479  0.0554  0.1503  0.1168
 3000TIP3    H130635   2.430   3.427   3.530  1.0039  1.5707 -0.7446
 3000TIP3    H230636   2.332   3.538   3.499 -0.8212  0.0882 -0.4135
 3001TIP3   OH230637   2.977   2.141   0.020  0.7496 -0.5942 -0.1583
 3001TIP3    H130638   2.924   2.220   0.030 -0.1152 -1.1869  0.1384
 3001TIP3    H230639   2.977   2.124  -0.074  0.7786 -0.3490 -0.2043
 3002TIP3   OH230640   3.691   5.501   2.429  0.1916  0.3303 -0.5544
 3002TIP3    H130641   3.679   5.416   2.472  1.0405  0.9540  1.0269
 3002TIP3    H230642   3.611   5.513   2.377 -2.4838  0.8620  3.2565
 3003TIP3   OH230643   0.139   0.634   0.925 -0.2770  0.4058 -0.2864
 3003TIP3    H130644   0.199   0.596   0.860 -1.4626  0.1376 -1.2680
 3003TIP3    H230645   0.076   0.564   0.944 -0.6113  0.8536  0.2970
 3004TIP3   OH230646   0.984   4.221   1.119 -0.7967 -0.1190  0.3737
 3004TIP3    H130647   0.942   4.270   1.049 -2.0513  0.0798  1.2396
 3004TIP3    H230648   0.923   4.226   1.193  0.6325 -0.0282  1.6107
 3005TIP3   OH230649   4.600   1.737   1.669  0.3681  0.0816  0.1251
 3005TIP3    H130650   4.508   1.716   1.686  0.3067  0.1991 -0.0546
 3005TIP3    H230651   4.638   1.656   1.636  1.1698 -0.9922  3.3708
 3006TIP3   OH230652   5.309   1.384   7.602 -0.2424 -0.1087 -0.2410
 3006TIP3    H130653   5.350   1.301   7.578  1.8529  0.8496 -0.2299
 3006TIP3    H230654   5.280   1.421   7.519  0.2734 -0.1413 -0.4414
 3007TIP3   OH230655   3.404   0.786   2.328  0.3592 -0.5684  0.3820
 3007TIP3    H130656   3.379   0.694   2.328  0.1964 -0.5270 -0.0704
 3007TIP3    H230657   3.411   0.809   2.236 -0.2983  0.0585  0.4795
 3008TIP3   OH230658   0.846   4.711   0.122 -0.5108  0.4524  0.4098
 3008TIP3    H130659   0.936   4.681   0.130 -0.3586  0.8581  0.2747
 3008TIP3    H230660   0.851   4.806   0.138 -0.8772  0.5116  0.1938
 3009TIP3   OH230661   1.491   3.929   1.750 -0.4095  0.5770  0.2000
 3009TIP3    H130662   1.447   4.012   1.733  2.4296  2.1394 -0.1075
 3009TIP3    H230663   1.484   3.917   1.844  1.0414  2.4113  0.6043
 3010TIP3   OH230664   4.324   1.843   0.418 -0.1488  0.0956 -0.4462
 3010TIP3    H130665   4.411   1.809   0.399  0.5369 -0.0086  2.4359
 3010TIP3    H230666   4.333   1.938   0.416  0.9064  0.1703  2.7877
 3011TIP3   OH230667   3.842   1.557   1.329 -0.3896 -0.1393  0.2988
 3011TIP3    H130668   3.862   1.573   1.237 -2.3297  1.4347  0.0867
 3011TIP3    H230669   3.764   1.502   1.327  0.3213 -1.2007  1.0358
 3012TIP3   OH230670   3.372   4.522   2.441  0.5707  0.1504 -0.1409
 3012TIP3    H130671   3.380   4.588   2.511 -0.4171 -0.7753  0.8892
 3012TIP3    H230672   3.336   4.445   2.485  0.4706 -0.6530 -1.5763
 3013TIP3   OH230673   6.316   0.927   8.290 -0.0684 -0.5938  0.2515
 3013TIP3    H130674   6.257   0.990   8.333  0.7615 -0.3260  1.0207
 3013TIP3    H230675   6.283   0.842   8.318 -1.5824 -0.5824 -1.2835
 3014TIP3   OH230676   6.132   3.818   7.583 -0.1862 -0.5976  0.1190
 3014TIP3    H130677   6.117   3.746   7.521  1.5799 -0.2837 -0.7243
 3014TIP3    H230678   6.214   3.858   7.554 -0.8954  1.5002  0.8214
 3015TIP3   OH230679   5.777   0.842   0.137  0.2968 -0.1420 -0.1331
 3015TIP3    H130680   5.732   0.905   0.081 -1.8920 -1.8250 -0.4090
 3015TIP3    H230681   5.859   0.822   0.091 -0.4863  0.0843 -1.6709
 3016TIP3   OH230682   5.669   2.755   2.293 -0.5645 -0.6123 -0.2633
 3016TIP3    H130683   5.714   2.770   2.210  0.7782 -1.3358  0.2952
 3016TIP3    H230684   5.580   2.787   2.279 -0.5024 -1.1773 -2.1189
 3017TIP3   OH230685   3.971   6.772   1.942 -0.3360  0.0616 -0.4527
 3017TIP3    H130686   4.022   6.791   2.022  0.2974  0.3750 -0.9217
 3017TIP3    H230687   3.880   6.788   1.968 -0.1666 -0.1337  0.2949
 3018TIP3   OH230688   2.466   0.881   7.851  0.1597  0.2798 -0.2087
 3018TIP3    H130689   2.453   0.787   7.862 -1.8140  0.5720  0.1802
 3018TIP3    H230690   2.403   0.906   7.783  0.6014  1.3434 -0.2444
 3019TIP3   OH230691   5.784   1.921   2.253 -0.2878 -0.2495 -0.1148
 3019TIP3    H130692   5.697   1.959   2.263 -0.2152 -0.1652  0.2174
 3019TIP3    H230693   5.841   1.974   2.309 -0.0184 -0.2894 -0.3475
 3020TIP3   OH230694   6.526   0.392   3.499 -0.2327  0.3265  0.1532
 3020TIP3    H130695   6.448   0.339   3.512  0.1601 -0.3959 -0.3457
 3020TIP3    H230696   6.575   0.384   3.580  0.6074 -1.4323 -0.4809
 3021TIP3   OH230697   1.228   5.433   0.674  0.0981 -0.0284  0.0796
 3021TIP3    H130698   1.211   5.525   0.651 -1.0860  0.2617  1.9252
 3021TIP3    H230699   1.149   5.387   0.648 -0.4844 -0.0085  1.7357
 3022TIP3   OH230700   0.865   1.517   0.816  0.4950 -0.0548 -0.1356
 3022TIP3    H130701   0.927   1.502   0.745  0.4307  2.9605 -0.9443
 3022TIP3    H230702   0.779   1.509   0.776  0.3295 -1.8269  0.4614
 3023TIP3   OH230703   2.017   4.669   8.538 -0.0038  0.1267 -0.3853
 3023TIP3    H130704   1.937   4.619   8.554  0.4858 -0.5122  0.1162
 3023TIP3    H230705   1.992   4.733   8.471 -1.3030  0.8581  0.7468
 3024TIP3   OH230706   3.629   3.603   8.166 -0.2121 -0.1619 -0.4502
 3024TIP3    H130707   3.625   3.575   8.257 -0.0557  0.8596 -0.1142
 3024TIP3    H230708   3.638   3.522   8.116  0.7457 -0.6709  0.5077
 3025TIP3   OH230709   0.718   3.572   0.116 -0.6249 -0.3460 -0.3224
 3025TIP3    H130710   0.743   3.482   0.136 -1.4545 -0.7535 -1.0419
 3025TIP3    H230711   0.641   3.564   0.060  0.9673  0.6918 -2.8975
 3026TIP3   OH230712   4.043   0.750   7.653 -0.0562  1.0143  0.3526
 3026TIP3    H130713   3.949   0.758   7.636 -0.0723 -0.0012 -0.0928
 3026TIP3    H230714   4.084   0.783   7.573 -0.1094 -1.7508 -0.9452
 3027TIP3   OH230715   0.457   6.870   2.376 -0.1618  0.0463  0.1765
 3027TIP3    H130716   0.449   6.903   2.287 -0.8304  0.0084  0.2192
 3027TIP3    H230717   0.381   6.814   2.389 -0.2002  0.2361  0.8457
 3028TIP3   OH230718   4.210   6.560   2.505 -0.1285  0.1783  0.3029
 3028TIP3    H130719   4.146   6.619   2.543 -0.6519  0.6653 -1.2284
 3028TIP3    H230720   4.207   6.579   2.411  2.0435 -0.0009  0.1377
 3029TIP3   OH230721   4.346   6.275   1.747  0.2754 -0.3289  0.3469
 3029TIP3    H130722   4.431   6.289   1.706 -0.2644 -0.0353 -0.7058
 3029TIP3    H230723   4.366   6.227   1.828  1.3756 -0.7327 -0.1465
 3030TIP3   OH230724   3.004   4.237   1.133  0.6181 -0.2315 -0.2000
 3030TIP3    H130725   2.912   4.260   1.150  0.2589 -0.7392 -1.3479
 3030TIP3    H230726   3.041   4.316   1.095  0.5916 -0.1065  0.0311
 3031TIP3   OH230727   4.138   5.999   1.784 -0.3887  0.1479 -0.3663
 3031TIP3    H130728   4.051   6.019   1.748 -1.1284 -0.9387  0.7415
 3031TIP3    H230729   4.191   5.978   1.707 -1.3736 -0.1431 -0.9942
 3032TIP3   OH230730   5.744   3.681   0.179  0.3475  0.1745  0.6868
 3032TIP3    H130731   5.834   3.700   0.203 -0.5260  2.8096  2.2445
 3032TIP3    H230732   5.721   3.747   0.113 -0.4570 -0.4574  0.3044
 3033TIP3   OH230733   1.917   3.532   1.605  0.1625 -0.3777  0.3000
 3033TIP3    H130734   1.968   3.577   1.539 -1.1680  0.7457 -0.0147
 3033TIP3    H230735   1.888   3.451   1.563 -0.1519  0.0356 -0.2977
 3034TIP3   OH230736   4.969   4.350   3.058 -0.6171 -0.4006 -0.1553
 3034TIP3    H130737   4.978   4.270   3.007 -0.2551 -0.3829 -0.1258
 3034TIP3    H230738   4.888   4.390   3.027 -1.6566 -1.5611  0.9297
 3035TIP3   OH230739   6.445   1.500   2.607 -0.5199  0.1709 -0.1954
 3035TIP3    H130740   6.383   1.518   2.537 -0.4199 -2.1307 -0.9766
 3035TIP3    H230741   6.405   1.538   2.685 -0.3255  3.3943 -1.5084
 3036TIP3   OH230742   2.492   1.765   0.668 -0.2437  0.3433  0.6804
 3036TIP3    H130743   2.427   1.737   0.732  0.0001  0.0058  0.7853
 3036TIP3    H230744   2.460   1.849   0.636 -0.9025  0.0208  0.4807
 3037TIP3   OH230745   2.782   6.372   8.499  0.2163  0.1125  0.7546
 3037TIP3    H130746   2.774   6.445   8.560 -2.4031 -0.9279  1.8298
 3037TIP3    H230747   2.699   6.372   8.451  1.5454 -0.1463 -1.6384
 3038TIP3   OH230748   2.674   5.141   1.234  0.3529 -0.3146  0.5587
 3038TIP3    H130749   2.720   5.135   1.317  0.6282  0.9388  0.5053
 3038TIP3    H230750   2.582   5.129   1.257 -0.1556  4.1899  1.7605
 3039TIP3   OH230751   4.286   3.361   2.298  0.1193 -0.2943 -0.5313
 3039TIP3    H130752   4.230   3.439   2.301 -0.0141 -0.3436 -1.4391
 3039TIP3    H230753   4.225   3.289   2.284  0.3959 -0.3523 -1.4958
 3040TIP3   OH230754   2.430   3.831   3.428  0.1213 -0.3803 -0.3213
 3040TIP3    H130755   2.521   3.803   3.434  0.8392  1.9909  1.6742
 3040TIP3    H230756   2.427   3.884   3.348  0.7874  0.3236  0.0997
 3041TIP3   OH230757   0.033   4.742   1.939 -0.6927  0.1473 -0.3584
 3041TIP3    H130758   0.109   4.800   1.944  1.7951 -2.8816  0.0515
 3041TIP3    H230759   0.017   4.733   1.845  0.8078 -0.6538 -0.5825
 3042TIP3   OH230760   1.431   5.901   1.762  0.2722 -0.1692  0.2012
 3042TIP3    H130761   1.488   5.960   1.714  1.2635  0.4216  2.0008
 3042TIP3    H230762   1.479   5.882   1.843 -1.5854 -0.5900  1.2667
 3043TIP3   OH230763   3.298   1.653   1.224  0.0914  0.6041  0.1244
 3043TIP3    H130764   3.231   1.631   1.160  0.2910 -1.7047  0.6212
 3043TIP3    H230765   3.352   1.719   1.180 -0.8468  0.4311 -1.3655
 3044TIP3   OH230766   5.691   0.735   1.500 -0.2230 -0.1711  0.3516
 3044TIP3    H130767   5.599   0.755   1.481  0.0343 -0.3747 -1.2325
 3044TIP3    H230768   5.688   0.673   1.573 -1.2711  0.9636  1.3074
 3045TIP3   OH230769   2.689   2.191   3.066 -0.0634  0.3678  0.5420
 3045TIP3    H130770   2.634   2.195   3.144  0.7314 -1.0006  1.2165
 3045TIP3    H230771   2.776   2.169   3.100  0.3692  0.0983 -0.7086
 3046TIP3   OH230772   2.362   5.909   2.889  0.5638 -0.4369 -0.0697
 3046TIP3    H130773   2.306   5.976   2.930  0.1021 -0.1800 -1.0799
 3046TIP3    H230774   2.324   5.826   2.917 -0.8647 -0.2786 -1.3535
 3047TIP3   OH230775   1.786   0.535   3.284 -0.1318  1.0251  0.1627
 3047TIP3    H130776   1.814   0.444   3.285  0.8102  1.2833 -0.8640
 3047TIP3    H230777   1.867   0.586   3.291 -0.6355  1.7837  0.6361
 3048TIP3   OH230778   4.889   4.605   2.772 -0.3308 -0.4654  0.8654
 3048TIP3    H130779   4.805   4.561   2.786  0.3159 -1.2258  2.6616
 3048TIP3    H230780   4.936   4.548   2.711 -1.4761  0.5325 -1.0569
 3049TIP3   OH230781   6.323   0.969   2.585  0.2921 -0.0203 -0.1295
 3049TIP3    H130782   6.354   1.060   2.583 -0.7695  0.3526 -1.4814
 3049TIP3    H230783   6.403   0.917   2.587  0.9375  0.9408 -0.1388
 3050TIP3   OH230784   4.089   3.037   0.627  0.1948 -0.6928 -0.1001
 3050TIP3    H130785   4.039   3.094   0.685 -0.9392 -1.4874 -0.2496
 3050TIP3    H230786   4.181   3.055   0.647 -0.1242  1.2075 -0.2008
 3051TIP3   OH230787   4.288   3.331   8.079  0.3460 -0.7470 -0.3573
 3051TIP3    H130788   4.354   3.377   8.027 -0.3566 -1.4023 -1.9155
 3051TIP3    H230789   4.214   3.392   8.084  1.6637  0.7998  3.0774
 3052TIP3   OH230790   0.594   3.689   0.403 -0.4234  0.6951 -0.2888
 3052TIP3    H130791   0.575   3.617   0.463 -0.8882  0.9657 -0.1105
 3052TIP3    H230792   0.676   3.663   0.360 -1.2514 -0.5619 -1.1831
 3053TIP3   OH230793   1.523   6.570   2.274 -0.3381 -0.2292 -0.2191
 3053TIP3    H130794   1.497   6.661   2.259  2.0868  0.3667 -1.3169
 3053TIP3    H230795   1.533   6.533   2.186  0.1184 -1.1094  0.1888
 3054TIP3   OH230796   2.007   6.573   1.927 -0.3191  0.0035  0.1741
 3054TIP3    H130797   2.086   6.523   1.908 -0.8274 -1.4922  1.7342
 3054TIP3    H230798   2.029   6.625   2.004 -0.4059  0.7902 -0.3100
 3055TIP3   OH230799   0.708   5.910   8.413  0.3673 -0.4724 -0.2228
 3055TIP3    H130800   0.750   5.989   8.447  1.3990 -1.1017  0.0033
 3055TIP3    H230801   0.665   5.870   8.488 -0.2357 -0.0908 -0.3561
 3056TIP3   OH230802   3.660   6.563   1.049  0.1853 -0.1398  0.0442
 3056TIP3    H130803   3.625   6.558   1.138 -0.8224  1.0839 -0.2463
 3056TIP3    H230804   3.627   6.485   1.005  0.1847 -0.4413  0.5745
 3057TIP3   OH230805   3.807   5.871   8.316  0.7242  0.1741  0.2325
 3057TIP3    H130806   3.769   5.934   8.256  0.4158 -1.0730 -0.9359
 3057TIP3    H230807   3.814   5.918   8.400 -0.4261  1.4073 -0.3333
 3058TIP3   OH230808   6.492   2.810   1.796 -0.2601  0.8220 -0.5178
 3058TIP3    H130809   6.400   2.782   1.790  0.1316 -0.3333 -1.4607
 3058TIP3    H230810   6.527   2.797   1.708  0.4876  2.4899 -0.4848
 3059TIP3   OH230811   3.404   0.047   7.489 -0.0990  0.0989 -0.1228
 3059TIP3    H130812   3.445   0.132   7.475  0.3725 -0.2592 -1.0090
 3059TIP3    H230813   3.359   0.028   7.407  1.2010 -1.2528 -0.5792
 3060TIP3   OH230814   6.106   6.615   0.670  0.4778  0.1839  0.1309
 3060TIP3    H130815   6.015   6.602   0.696  0.6344 -1.2948  0.0150
 3060TIP3    H230816   6.154   6.546   0.715  1.2181 -0.4461 -1.5395
 3061TIP3   OH230817   6.137   6.487   7.100 -0.2937 -0.1338 -0.2290
 3061TIP3    H130818   6.117   6.421   7.034  0.9359 -0.2607 -0.4995
 3061TIP3    H230819   6.227   6.469   7.126  0.2565  1.7109 -0.6614
 3062TIP3   OH230820   5.847   1.549   0.344  0.2800  0.1797  0.1226
 3062TIP3    H130821   5.786   1.609   0.387  1.0448  0.7842  0.3778
 3062TIP3    H230822   5.804   1.464   0.351 -1.1069  0.7736 -0.7990
 3063TIP3   OH230823   6.769   4.840   2.582 -0.0461  0.5952 -0.2926
 3063TIP3    H130824   6.851   4.836   2.534 -0.4174  1.6056 -1.0457
 3063TIP3    H230825   6.702   4.841   2.513 -0.8045 -1.7199  0.3036
 3064TIP3   OH230826   5.684   5.135   7.374  0.1913  0.5460  0.5693
 3064TIP3    H130827   5.598   5.140   7.415  0.4228 -1.2830  1.4139
 3064TIP3    H230828   5.718   5.050   7.402  2.0432  0.9908 -0.1989
 3065TIP3   OH230829   4.341   0.001   7.692  0.3428 -1.2354  0.0869
 3065TIP3    H130830   4.320   0.080   7.742  0.9234 -0.9501 -0.1178
 3065TIP3    H230831   4.263  -0.053   7.700  0.5786 -1.4057  1.7242
 3066TIP3   OH230832   0.755   1.768   3.068  0.0932  0.3022 -0.3295
 3066TIP3    H130833   0.713   1.789   3.152 -0.2487 -1.5717  0.0163
 3066TIP3    H230834   0.761   1.672   3.068  1.1582  0.3372 -1.9462
 3067TIP3   OH230835   2.554   6.872   8.541  0.0352 -0.0782 -0.1197
 3067TIP3    H130836   2.459   6.862   8.538 -0.0990  1.1730 -0.8580
 3067TIP3    H230837   2.568   6.944   8.603  0.4995 -0.2398 -0.0360
 3068TIP3   OH230838   5.574   4.133   8.148 -0.4232 -0.2031  0.3384
 3068TIP3    H130839   5.518   4.108   8.075 -0.5794 -0.6474  0.6056
 3068TIP3    H230840   5.524   4.199   8.196  0.3239  1.2560 -0.8243
 3069TIP3   OH230841   0.418   4.471   2.803 -0.6388  0.3190  0.0627
 3069TIP3    H130842   0.385   4.419   2.876 -0.2057 -0.6507 -0.4110
 3069TIP3    H230843   0.457   4.548   2.843  1.6415 -1.2518  1.0767
 3070TIP3   OH230844   5.202   0.276   7.506  0.7310 -0.1490  0.2904
 3070TIP3    H130845   5.278   0.320   7.544  0.3802  0.9378 -0.2107
 3070TIP3    H230846   5.136   0.345   7.498 -0.2750 -1.0531  0.6095
 3071TIP3   OH230847   3.317   4.826   0.461 -0.1466 -1.3849 -0.2294
 3071TIP3    H130848   3.225   4.842   0.483  0.1992 -0.1319  0.3787
 3071TIP3    H230849   3.327   4.731   0.469 -1.6741 -1.7065 -1.4920
 3072TIP3   OH230850   0.233   2.447   1.216 -0.0727 -0.4826  0.1111
 3072TIP3    H130851   0.304   2.510   1.206  0.5124 -1.0185  0.8005
 3072TIP3    H230852   0.170   2.490   1.274  0.0369 -0.2865  0.0821
 3073TIP3   OH230853   6.114   3.084   8.198  0.1631  0.0218  0.0263
 3073TIP3    H130854   6.082   3.076   8.288  1.3793 -0.3745  0.4463
 3073TIP3    H230855   6.157   3.000   8.181 -1.5107 -0.5809 -1.5475
 3074TIP3   OH230856   5.987   6.585   2.047  0.4038 -0.3808 -0.1362
 3074TIP3    H130857   5.963   6.493   2.062 -0.3856 -0.1046  0.3541
 3074TIP3    H230858   6.033   6.611   2.127 -1.2247  0.2375  0.6609
 3075TIP3   OH230859   0.863   2.167   7.783  0.0883 -0.3319  0.1201
 3075TIP3    H130860   0.948   2.137   7.750 -1.2467 -2.8334 -1.4413
 3075TIP3    H230861   0.816   2.196   7.704 -0.6728  0.5218  0.8736
 3076TIP3   OH230862   5.620   3.657   1.684  0.2474  0.2700  0.2627
 3076TIP3    H130863   5.699   3.607   1.704  0.0376 -0.2871 -0.2894
 3076TIP3    H230864   5.652   3.741   1.650  0.6354 -0.6244 -1.6894
 3077TIP3   OH230865   1.237   6.341   2.824  0.1421  0.2154 -0.0736
 3077TIP3    H130866   1.192   6.424   2.836  1.0123  0.7698 -0.5216
 3077TIP3    H230867   1.329   6.361   2.840  0.4244 -0.5545 -0.6568
 3078TIP3   OH230868   2.944   4.602   2.278 -0.3307  1.0893 -0.2717
 3078TIP3    H130869   2.909   4.666   2.215  1.5542  2.2870 -0.1877
 3078TIP3    H230870   3.037   4.622   2.282  0.0398 -0.6935  0.9571
 3079TIP3   OH230871   6.274   3.200   3.714  0.5740 -0.6811  0.1512
 3079TIP3    H130872   6.319   3.121   3.743 -0.2994 -0.8327  1.1544
 3079TIP3    H230873   6.264   3.253   3.793 -0.6351 -0.4794 -0.1033
 3080TIP3   OH230874   3.883   3.905   7.729  0.7152 -0.6222 -0.1562
 3080TIP3    H130875   3.905   3.997   7.745  1.3288 -0.5558 -1.3194
 3080TIP3    H230876   3.843   3.905   7.642 -0.7096 -1.2512  0.4645
 3081TIP3   OH230877   2.329   3.189   8.547 -0.0137  0.5034  0.1174
 3081TIP3    H130878   2.349   3.270   8.500  1.9364 -0.2733 -0.4574
 3081TIP3    H230879   2.386   3.191   8.624 -0.4669 -0.0124  0.4794
 3082TIP3   OH230880   5.019   1.151   1.118 -0.0652 -0.1618  0.1693
 3082TIP3    H130881   5.022   1.235   1.074 -2.0047  0.1040  0.4543
 3082TIP3    H230882   4.945   1.157   1.177  0.3589 -1.7306  0.9284
 3083TIP3   OH230883   2.306   0.209   8.453 -0.2234 -0.5231  0.2399
 3083TIP3    H130884   2.381   0.252   8.414 -0.4339 -1.0893 -0.8304
 3083TIP3    H230885   2.230   0.254   8.416 -0.4241 -0.6720  0.4632
 3084TIP3   OH230886   2.923   4.250   0.710 -0.1269 -0.8381 -0.3954
 3084TIP3    H130887   2.843   4.243   0.761 -1.2332  0.8434 -1.7873
 3084TIP3    H230888   2.957   4.160   0.706 -1.4972 -1.4428  0.8933
 3085TIP3   OH230889   5.984   1.797   1.365  0.5266 -0.0550 -0.1211
 3085TIP3    H130890   5.916   1.845   1.413 -0.7087 -0.2401 -1.6051
 3085TIP3    H230891   6.014   1.730   1.426 -1.3593 -0.6099  0.2602
 3086TIP3   OH230892   4.055   0.674   2.372 -0.0677 -0.1379 -0.3467
 3086TIP3    H130893   4.025   0.730   2.300  0.4604 -0.4110 -0.7921
 3086TIP3    H230894   4.051   0.585   2.338  0.5315 -0.2416 -0.1754
 3087TIP3   OH230895   2.372   6.516   2.146 -0.1056 -0.1959  1.0366
 3087TIP3    H130896   2.419   6.445   2.189  1.0567  0.0723  0.2428
 3087TIP3    H230897   2.319   6.472   2.079  1.0158 -0.3023  0.1848
 3088TIP3   OH230898   1.246   5.719   1.887 -0.4617  0.3410 -0.3628
 3088TIP3    H130899   1.220   5.640   1.840 -2.5464  1.0729 -0.5225
 3088TIP3    H230900   1.304   5.765   1.827 -0.3278 -0.4014 -0.8164
 3089TIP3   OH230901   4.911   4.297   8.462 -0.0751 -0.1131 -0.3919
 3089TIP3    H130902   4.932   4.383   8.425  0.9435 -0.3801 -0.4579
 3089TIP3    H230903   4.975   4.238   8.424 -0.7953 -0.9270 -0.3841
 3090TIP3   OH230904   4.326   4.208   1.405 -0.0312 -0.2123 -0.0304
 3090TIP3    H130905   4.250   4.233   1.457  1.0116  2.4129  0.3843
 3090TIP3    H230906   4.304   4.236   1.316  0.4272  0.5575  0.0913
 3091TIP3   OH230907   5.425   0.765   7.321 -0.7792 -0.9937 -0.3384
 3091TIP3    H130908   5.406   0.843   7.269 -1.3441  0.5893  2.1105
 3091TIP3    H230909   5.341   0.721   7.331 -0.9429 -0.5171  0.4186
 3092TIP3   OH230910   5.054   6.729   2.117  0.2110  0.5519  0.6890
 3092TIP3    H130911   5.105   6.654   2.146  0.0478 -0.1929 -0.8295
 3092TIP3    H230912   4.986   6.691   2.061 -0.1066  1.7906  0.2036
 3093TIP3   OH230913   6.447   0.230   1.187 -0.4297 -0.1537  0.1499
 3093TIP3    H130914   6.433   0.298   1.121 -0.7444  1.6749  2.0176
 3093TIP3    H230915   6.399   0.260   1.264  1.3212 -1.3292  1.8054
 3094TIP3   OH230916   6.188   2.288   1.987 -0.1984  0.0934  0.1880
 3094TIP3    H130917   6.191   2.379   1.958 -0.2869  0.6088  1.6872
 3094TIP3    H230918   6.272   2.274   2.030 -0.7047 -0.1073  1.1357
 3095TIP3   OH230919   1.397   2.228   0.807  0.1864  0.0207 -0.2071
 3095TIP3    H130920   1.471   2.182   0.847 -0.5107 -0.6480  0.3601
 3095TIP3    H230921   1.431   2.260   0.724  1.0993 -0.3182  0.0195
 3096TIP3   OH230922   6.366   4.544   0.296  0.0432 -0.1514 -0.5022
 3096TIP3    H130923   6.376   4.633   0.261  0.7321  0.3206  0.8496
 3096TIP3    H230924   6.428   4.492   0.245  1.5466  0.6640  0.4459
 3097TIP3   OH230925   4.909   1.360   0.364 -0.3400 -0.4067 -0.1245
 3097TIP3    H130926   4.921   1.426   0.432 -2.6341  0.6166 -0.6209
 3097TIP3    H230927   4.817   1.334   0.373 -0.5915 -0.5126 -2.5758
 3098TIP3   OH230928   0.415   5.536   2.648  0.0132 -0.5218  0.7403
 3098TIP3    H130929   0.427   5.523   2.742 -0.9051  0.0761  0.9524
 3098TIP3    H230930   0.376   5.454   2.617  2.0332 -1.4623  0.5091
 3099TIP3   OH230931   6.181   3.113   0.154 -0.7366 -0.3938  0.2273
 3099TIP3    H130932   6.198   3.167   0.077  2.7027 -2.4346 -0.6803
 3099TIP3    H230933   6.246   3.141   0.219 -0.8926 -1.4148  0.8517
 3100TIP3   OH230934   5.227   0.777   1.205 -0.5238  0.7314  0.0424
 3100TIP3    H130935   5.203   0.788   1.113  0.3862  0.9416 -0.1749
 3100TIP3    H230936   5.254   0.686   1.213 -1.5897  0.4286  0.3418
 3101TIP3   OH230937   1.940   2.711   0.983 -0.2347 -0.6072 -0.4365
 3101TIP3    H130938   1.868   2.735   0.925 -0.5495  0.9680  0.5337
 3101TIP3    H230939   1.945   2.783   1.045  1.7691 -1.0025 -0.0807
 3102TIP3   OH230940   3.186   5.672   0.474 -0.1157 -0.0789 -0.5095
 3102TIP3    H130941   3.231   5.651   0.393  0.5287  1.0584 -0.4745
 3102TIP3    H230942   3.252   5.664   0.542 -0.6508 -1.0250 -0.0797
 3103TIP3   OH230943   1.132   6.775   8.425 -0.4084 -0.3354  0.1509
 3103TIP3    H130944   1.226   6.765   8.438 -0.5783 -0.3593  1.5014
 3103TIP3    H230945   1.124   6.828   8.346  0.7047 -1.4084 -0.7111
 3104TIP3   OH230946   5.547   0.400   0.627 -0.4025  0.1266  0.1100
 3104TIP3    H130947   5.465   0.438   0.658 -0.5050  1.7281 -1.9433
 3104TIP3    H230948   5.525   0.307   0.612 -1.2062  0.0441  1.6219
 3105TIP3   OH230949   4.453   1.520   2.960 -1.1006 -0.4992 -0.5716
 3105TIP3    H130950   4.395   1.448   2.933 -0.1837 -1.4300 -0.1000
 3105TIP3    H230951   4.529   1.477   2.997 -1.9485  0.6661  2.8728
 3106TIP3   OH230952   1.210   2.684   2.024  0.2787 -0.6612  0.5576
 3106TIP3    H130953   1.302   2.658   2.020  0.7877  1.1615 -1.3285
 3106TIP3    H230954   1.162   2.602   2.029  1.9650 -1.6788  0.9903
 3107TIP3   OH230955   5.090   2.083   2.485  0.3703  0.2118  0.3606
 3107TIP3    H130956   5.126   2.004   2.525 -1.3197 -1.8609 -1.8706
 3107TIP3    H230957   5.119   2.078   2.393 -1.4108  1.0678 -0.2946
 3108TIP3   OH230958   2.674   0.394   2.303 -0.4735  0.1184  0.2007
 3108TIP3    H130959   2.595   0.363   2.347  0.3068 -0.7902  1.0075
 3108TIP3    H230960   2.735   0.413   2.374  0.1342  0.5409 -0.4261
 3109TIP3   OH230961   3.398   1.643   7.634 -0.2604  0.2169  0.8571
 3109TIP3    H130962   3.339   1.598   7.694 -0.8111  0.7065  0.6902
 3109TIP3    H230963   3.422   1.577   7.569 -0.6475  0.0201  0.9125
 3110TIP3   OH230964   0.691   5.882   8.123  0.3999 -0.2444 -0.2239
 3110TIP3    H130965   0.687   5.786   8.123 -0.3263 -0.2223  0.2280
 3110TIP3    H230966   0.658   5.907   8.209  0.1549  0.4346 -0.5121
 3111TIP3   OH230967   1.950   6.247   2.259  0.3482  0.8011 -0.8759
 3111TIP3    H130968   1.857   6.239   2.238  0.2799  1.1846 -0.7317
 3111TIP3    H230969   1.952   6.267   2.352  0.5666  0.9992 -0.9222
 3112TIP3   OH230970   2.149   0.101   1.268  0.0069 -0.3957  0.3322
 3112TIP3    H130971   2.138   0.007   1.261  0.1084 -0.4552  0.9175
 3112TIP3    H230972   2.224   0.113   1.326 -0.3229  0.0454  0.6803
 3113TIP3   OH230973   5.908   0.483   2.284 -0.1191 -0.4810 -0.2311
 3113TIP3    H130974   5.887   0.506   2.193 -0.9425  1.0889  0.3150
 3113TIP3    H230975   5.822   0.476   2.327  0.3108  0.9901  0.9176
 3114TIP3   OH230976   6.103   5.577   1.268  0.7915  0.1689 -0.2672
 3114TIP3    H130977   6.144   5.552   1.185  0.1139 -1.4531 -0.1651
 3114TIP3    H230978   6.059   5.497   1.297  1.2872  0.6128  1.8239
 3115TIP3   OH230979   1.587   6.108   7.885 -0.4291 -1.0688  0.8700
 3115TIP3    H130980   1.553   6.191   7.851  0.2943 -0.9284  0.4574
 3115TIP3    H230981   1.530   6.041   7.848 -0.7221 -0.7889  0.8110
 3116TIP3   OH230982   3.965   4.849   0.018  0.0431 -0.3274  0.3889
 3116TIP3    H130983   3.928   4.888   0.098 -0.1267  1.7969 -0.6651
 3116TIP3    H230984   3.889   4.813  -0.028 -0.1097  0.1132  0.2990
 3117TIP3   OH230985   3.807   1.489   2.205 -0.1026 -0.3428  0.0752
 3117TIP3    H130986   3.765   1.568   2.171 -2.1434 -0.7532  1.4893
 3117TIP3    H230987   3.897   1.516   2.223 -0.5711  1.4799 -0.1023
 3118TIP3   OH230988   0.540   2.739   1.262  0.6758 -0.0704 -0.1801
 3118TIP3    H130989   0.564   2.787   1.341 -0.2632 -0.0301  0.0882
 3118TIP3    H230990   0.533   2.805   1.194 -0.2548  0.1395  0.1072
 3119TIP3   OH230991   6.083   6.079   3.721  0.6938  0.2193 -0.2530
 3119TIP3    H130992   6.102   6.034   3.639  1.3988  0.3667 -0.1721
 3119TIP3    H230993   6.079   6.010   3.787  0.0222  0.0884 -0.4174
 3120TIP3   OH230994   6.093   5.308   1.648 -0.4509 -0.4649  0.0259
 3120TIP3    H130995   6.074   5.304   1.742  0.7412 -0.6977  0.2754
 3120TIP3    H230996   6.168   5.249   1.636  0.9335  1.3212 -0.6593
 3121TIP3   OH230997   6.483   5.101   0.480  0.4849  0.1836  0.3568
 3121TIP3    H130998   6.407   5.052   0.510 -0.0265  0.5554 -0.3225
 3121TIP3    H230999   6.492   5.173   0.543 -0.8804  1.2480 -0.6251
 3122TIP3   OH231000   4.189   5.855   0.810  0.3288 -0.4058  0.0146
 3122TIP3    H131001   4.166   5.936   0.856  1.6435 -0.4428  0.7657
 3122TIP3    H231002   4.107   5.805   0.808 -0.4212  0.7907 -0.1738
 3123TIP3   OH231003   3.745   5.050   7.909 -0.1123  1.0317  0.0593
 3123TIP3    H131004   3.768   4.959   7.888 -1.0408  0.6088  0.8041
 3123TIP3    H231005   3.673   5.070   7.849 -0.8880  0.7704  0.8912
 3124TIP3   OH231006   4.063   4.193   8.486  0.2919 -0.0892 -0.1445
 3124TIP3    H131007   4.143   4.184   8.537  0.0032 -2.6873  0.0235
 3124TIP3    H231008   4.082   4.259   8.420  2.2370  0.0116  0.4782
 3125TIP3   OH231009   6.318   0.610   0.350  0.6578 -0.0842 -0.0559
 3125TIP3    H131010   6.387   0.575   0.295  0.0570 -0.5298 -0.5454
 3125TIP3    H231011   6.362   0.636   0.431  1.6416  1.1182 -0.9457
 3126TIP3   OH231012   0.369   6.765   0.254 -0.3286 -0.1943  0.4405
 3126TIP3    H131013   0.400   6.792   0.341 -1.7698 -0.2407  1.0002
 3126TIP3    H231014   0.310   6.692   0.272 -1.1858  0.2549 -0.5260
 3127TIP3   OH231015   3.102   0.234   0.251  0.1852 -0.3069 -0.2404
 3127TIP3    H131016   3.131   0.323   0.229  1.7816 -0.8696 -0.5874
 3127TIP3    H231017   3.139   0.218   0.337  1.7006 -1.3382 -1.0286
 3128TIP3   OH231018   2.517   6.517   0.613  0.5220  0.4189  0.0862
 3128TIP3    H131019   2.598   6.467   0.619  0.3525  0.0882 -0.3009
 3128TIP3    H231020   2.521   6.578   0.687  0.9847  0.2072  0.2429
 3129TIP3   OH231021   5.627   3.857   2.334  0.9397 -0.4060  0.3399
 3129TIP3    H131022   5.672   3.933   2.298 -1.0265  1.0298  0.7652
 3129TIP3    H231023   5.649   3.857   2.427 -1.1035  1.3081  0.9172
 3130TIP3   OH231024   2.230   6.632   0.055  0.7131  0.1883  0.0319
 3130TIP3    H131025   2.285   6.687  -0.001  0.8797 -1.5013 -1.5582
 3130TIP3    H231026   2.158   6.605  -0.002  0.9758 -1.7223  0.5551
 3131TIP3   OH231027   5.055   0.170   0.492  0.1995  0.1441  0.3932
 3131TIP3    H131028   5.029   0.103   0.556  2.0970 -0.7173  0.3317
 3131TIP3    H231029   5.149   0.181   0.506  0.5301  0.4626 -1.7614
 3132TIP3   OH231030   1.091   0.537   1.808 -0.7289  0.1176 -0.5550
 3132TIP3    H131031   1.184   0.539   1.831 -0.8150 -0.3092 -0.1709
 3132TIP3    H231032   1.086   0.476   1.734 -1.0208 -1.7659  0.9325
 3133TIP3   OH231033   4.111   2.856   8.276 -0.0909  0.4402 -0.0686
 3133TIP3    H131034   4.167   2.927   8.245 -0.8497  1.4893  0.8926
 3133TIP3    H231035   4.081   2.812   8.196 -0.7742  2.1137 -0.7720
 3134TIP3   OH231036   1.899   3.191   0.622  0.3993  0.0400  0.3047
 3134TIP3    H131037   1.866   3.244   0.695  0.4355  0.8054 -0.2206
 3134TIP3    H231038   1.922   3.255   0.555  0.5098 -0.6483 -0.3236
 3135TIP3   OH231039   4.803   0.980   0.856  0.2614  0.0364 -0.5924
 3135TIP3    H131040   4.769   0.989   0.946  1.7623 -2.5514  0.3484
 3135TIP3    H231041   4.748   1.039   0.804 -2.7794 -0.6977  1.4884
 3136TIP3   OH231042   2.327   3.741   0.887 -0.6127 -0.1533 -0.0209
 3136TIP3    H131043   2.247   3.794   0.885  0.1611  1.0677  0.1001
 3136TIP3    H231044   2.388   3.788   0.829  0.2620 -0.6520  0.4731
 3137TIP3   OH231045   4.669   3.598   2.396  0.2747 -0.5001  0.0567
 3137TIP3    H131046   4.644   3.579   2.305 -0.1906  0.7915 -0.1123
 3137TIP3    H231047   4.673   3.693   2.400  1.1689 -0.5600  1.1770
 3138TIP3   OH231048   3.615   3.485   2.837  0.4643  0.2945  0.2973
 3138TIP3    H131049   3.601   3.557   2.898 -3.7137  0.8429 -0.9793
 3138TIP3    H231050   3.640   3.527   2.755  0.7456  0.0414  0.2505
 3139TIP3   OH231051   2.538   2.288   0.873 -0.6175  0.0124  0.8662
 3139TIP3    H131052   2.482   2.265   0.947  0.3589 -0.1711  1.5650
 3139TIP3    H231053   2.568   2.204   0.839  0.3485  0.1469  1.3743
 3140TIP3   OH231054   5.819   2.953   1.598  0.6028  0.0452  0.1148
 3140TIP3    H131055   5.802   2.907   1.680  0.6689 -1.4762 -0.6869
 3140TIP3    H231056   5.735   2.992   1.574  1.0190  2.2275  1.8601
 3141TIP3   OH231057   0.547   3.864   2.735  0.2633  0.6368  0.1383
 3141TIP3    H131058   0.549   3.939   2.675 -2.2819  1.7964  1.3619
 3141TIP3    H231059   0.564   3.902   2.821 -1.3956 -0.1041  0.8218
 3142TIP3   OH231060   6.418   5.484   1.746 -0.3458  0.3006 -0.2908
 3142TIP3    H131061   6.415   5.514   1.655  0.1094 -1.0232 -0.7551
 3142TIP3    H231062   6.330   5.502   1.780 -0.7690  0.0664 -1.2333
 3143TIP3   OH231063   6.692   5.252   7.906 -0.4104  0.5719 -0.4606
 3143TIP3    H131064   6.645   5.237   7.824  0.4111 -0.1225 -0.8223
 3143TIP3    H231065   6.772   5.199   7.897  0.1363  1.2388  0.3873
 3144TIP3   OH231066   5.309   3.769   1.174  0.5082 -0.3761  0.0830
 3144TIP3    H131067   5.317   3.865   1.169  0.4051 -0.0629  3.4583
 3144TIP3    H231068   5.216   3.754   1.188  0.6064 -0.9511  0.1411
 3145TIP3   OH231069   5.111   2.506   2.190  0.4375  0.4055 -0.0815
 3145TIP3    H131070   5.153   2.534   2.271  1.1682  1.5132 -0.8154
 3145TIP3    H231071   5.183   2.488   2.130 -0.1013  1.2910 -1.0240
 3146TIP3   OH231072   6.120   5.844   0.125 -0.2808  0.7305  0.1356
 3146TIP3    H131073   6.098   5.783   0.055  0.7424  0.6306 -0.1164
 3146TIP3    H231074   6.144   5.789   0.199  0.3393  0.8175  0.0061
 3147TIP3   OH231075   0.719   2.093   1.021 -0.2182  1.2625 -0.3209
 3147TIP3    H131076   0.697   2.013   0.973  0.4039  1.4404 -0.9068
 3147TIP3    H231077   0.707   2.164   0.958 -0.7540  1.6392  0.1943
 3148TIP3   OH231078   3.348   4.951   3.191  0.2492 -0.5289  0.0897
 3148TIP3    H131079   3.371   4.972   3.100  2.6171  0.9291  0.9340
 3148TIP3    H231080   3.421   4.898   3.222  0.2784  0.3345  1.5943
 3149TIP3   OH231081   0.406   4.984   0.213  0.7678  0.4574  0.1139
 3149TIP3    H131082   0.422   4.990   0.307  2.3991  2.1612 -0.2237
 3149TIP3    H231083   0.491   4.962   0.175  0.1044 -0.3548 -0.9938
 3150TIP3   OH231084   2.428   6.816   7.706  0.2569  0.5380 -0.1083
 3150TIP3    H131085   2.437   6.827   7.800 -0.0942  0.0878 -0.0216
 3150TIP3    H231086   2.471   6.893   7.669  1.4076  0.1526  0.3902
 3151TIP3   OH231087   2.256   4.688   1.154 -0.6096 -0.0419 -0.1531
 3151TIP3    H131088   2.298   4.615   1.109 -2.7591 -0.3582 -1.8122
 3151TIP3    H231089   2.182   4.712   1.097 -2.2336  0.9264  2.1934
 3152TIP3   OH231090   0.948   4.162   0.531  0.3858 -0.0694 -0.4909
 3152TIP3    H131091   0.952   4.130   0.440  0.3135  0.0166 -0.5239
 3152TIP3    H231092   1.035   4.200   0.546  0.1863  0.4785 -0.7291
 3153TIP3   OH231093   0.948   0.769   1.820  0.1597 -0.6417  0.1481
 3153TIP3    H131094   1.009   0.696   1.831 -0.6697 -1.1127  2.0580
 3153TIP3    H231095   0.950   0.789   1.726 -2.1999 -5.4111 -1.2461
 3154TIP3   OH231096   1.466   0.616   2.269 -0.8151  0.4450  0.2311
 3154TIP3    H131097   1.393   0.558   2.250  0.6650 -1.2405 -0.6543
 3154TIP3    H231098   1.536   0.557   2.299  0.3513  1.9255  0.5557
 3155TIP3   OH231099   2.861   6.148   3.321  0.8684 -0.5000  0.2516
 3155TIP3    H131100   2.887   6.140   3.229  0.5369 -1.0460  0.2044
 3155TIP3    H231101   2.938   6.186   3.364 -0.2372  3.7019 -0.9392
 3156TIP3   OH231102   4.898   1.675   1.895  0.4091  0.2873 -0.7767
 3156TIP3    H131103   4.819   1.677   1.949  0.7890 -0.6546 -0.1600
 3156TIP3    H231104   4.939   1.590   1.915  1.6354  0.8002 -1.0001
 3157TIP3   OH231105   1.310   6.882   3.567 -0.1786 -0.2637 -0.5102
 3157TIP3    H131106   1.215   6.890   3.570 -0.0581  0.9078  0.5670
 3157TIP3    H231107   1.330   6.810   3.627 -0.2630  0.8259  0.8706
 3158TIP3   OH231108   4.100   5.647   7.981  0.0367 -0.3804 -0.2554
 3158TIP3    H131109   4.182   5.693   7.997  0.0363 -0.7788  1.0163
 3158TIP3    H231110   4.123   5.578   7.919  0.4488  0.1247 -0.6672
 3159TIP3   OH231111   1.302   5.487   0.341  0.1746 -0.1499 -0.2394
 3159TIP3    H131112   1.338   5.550   0.279  1.1397 -0.2590  0.1946
 3159TIP3    H231113   1.225   5.531   0.377 -0.3469 -0.0559 -1.4337
 3160TIP3   OH231114   0.835   6.877   2.938  0.4307  0.4333  0.2101
 3160TIP3    H131115   0.741   6.879   2.917  0.8450  1.0811 -1.8091
 3160TIP3    H231116   0.847   6.795   2.985 -0.9711 -0.1639 -0.4039
 3161TIP3   OH231117   4.536   1.544   8.362  0.4214  0.0851 -0.4016
 3161TIP3    H131118   4.549   1.612   8.428  2.2531 -0.0355 -0.5855
 3161TIP3    H231119   4.617   1.542   8.312  0.3624 -2.0927 -0.5454
 3162TIP3   OH231120   3.005   6.442   1.477 -0.1403 -0.2846 -0.8066
 3162TIP3    H131121   2.909   6.434   1.481 -0.2568  0.5093 -1.5213
 3162TIP3    H231122   3.027   6.502   1.548  0.1977 -2.8216  1.3647
 3163TIP3   OH231123   6.887   4.972   3.084 -0.3060  0.5913 -0.5060
 3163TIP3    H131124   6.906   4.980   2.991  1.2358 -0.3463 -0.3154
 3163TIP3    H231125   6.910   4.882   3.105 -0.0339  0.9671  0.8997
 3164TIP3   OH231126   1.668   4.653   7.901 -0.0347  0.7400  0.2930
 3164TIP3    H131127   1.729   4.708   7.852  1.3078  0.3818  1.4965
 3164TIP3    H231128   1.716   4.572   7.915 -1.4094 -0.1666 -0.1034
 3165TIP3   OH231129   2.602   6.123   0.493 -0.2450  0.1314  0.5293
 3165TIP3    H131130   2.537   6.183   0.456  0.0092  0.1899  0.1705
 3165TIP3    H231131   2.681   6.176   0.503 -0.3058  0.1126  1.1551
 3166TIP3   OH231132   6.590   1.789   8.119 -0.3059 -0.2806  0.1353
 3166TIP3    H131133   6.580   1.696   8.097  0.4963 -0.4202  0.3423
 3166TIP3    H231134   6.647   1.824   8.050 -1.0904  0.2006 -0.2838
 3167TIP3   OH231135   4.389   0.075   2.097  0.4396 -0.2133  0.3118
 3167TIP3    H131136   4.310   0.042   2.140  0.2909  0.2311  0.3794
 3167TIP3    H231137   4.392   0.027   2.014  0.7748 -1.1390  0.8351
 3168TIP3   OH231138   4.443   3.723   7.910 -0.1346 -0.5026 -0.3119
 3168TIP3    H131139   4.465   3.639   7.950  0.0891  0.5340  1.8514
 3168TIP3    H231140   4.526   3.770   7.905 -0.5341  0.2930  0.2587
 3169TIP3   OH231141   0.825   6.128   2.262 -0.1402 -0.1762 -0.2457
 3169TIP3    H131142   0.888   6.163   2.326 -0.4418 -0.7498  0.3817
 3169TIP3    H231143   0.859   6.042   2.240 -1.6210 -1.2689  1.4859
 3170TIP3   OH231144   3.286   1.800   2.046  0.1023 -0.0184 -0.5079
 3170TIP3    H131145   3.279   1.827   2.138  0.5032  1.3882 -0.8669
 3170TIP3    H231146   3.200   1.764   2.025 -0.1996  0.2635  0.2305
 3171TIP3   OH231147   4.295   1.239   8.261 -0.3681 -0.1518  0.0008
 3171TIP3    H131148   4.310   1.326   8.298  1.9359  0.2463 -1.6492
 3171TIP3    H231149   4.238   1.195   8.324  0.6303  1.6126  2.2535
 3172TIP3   OH231150   1.659   0.410   2.209 -0.0523  0.0023  0.2498
 3172TIP3    H131151   1.689   0.352   2.280  1.0200  0.0656 -0.1358
 3172TIP3    H231152   1.586   0.363   2.170  1.5297 -1.7253 -0.8169
 3173TIP3   OH231153   5.980   1.224   1.538 -0.2961 -0.2702 -0.3315
 3173TIP3    H131154   5.994   1.312   1.573 -1.1389  0.5039 -1.8553
 3173TIP3    H231155   5.921   1.182   1.601 -1.2024  0.8261 -0.4266
 3174TIP3   OH231156   0.053   1.153   1.370  0.1873  0.3159  0.3970
 3174TIP3    H131157  -0.025   1.124   1.417  0.2489  0.3661  0.5271
 3174TIP3    H231158   0.123   1.152   1.435  0.4395 -0.3692  0.1218
 3175TIP3   OH231159   2.238   4.322   8.445 -0.2759 -0.0601 -0.3595
 3175TIP3    H131160   2.270   4.261   8.378  0.6244  1.6394 -1.5503
 3175TIP3    H231161   2.300   4.395   8.443  0.0644 -0.1374  2.6956
 3176TIP3   OH231162   0.118   0.421   8.587 -0.3543  0.0807 -0.3143
 3176TIP3    H131163   0.159   0.350   8.537  0.5986  1.9866 -2.3875
 3176TIP3    H231164   0.179   0.439   8.658 -1.0491 -1.7177  0.8227
 3177TIP3   OH231165   2.407   6.083   8.467  0.0970  0.1616  0.3610
 3177TIP3    H131166   2.328   6.136   8.480  0.3850  0.5987  0.3594
 3177TIP3    H231167   2.465   6.108   8.539  0.6680  0.6669 -0.2521
 3178TIP3   OH231168   4.452   0.918   0.636  0.4158 -0.5436  0.6933
 3178TIP3    H131169   4.536   0.874   0.619  1.5246  0.4925  2.9483
 3178TIP3    H231170   4.407   0.861   0.698 -0.6431 -1.1550 -0.6038
 3179TIP3   OH231171   0.034   5.448   7.754 -0.8392  0.4359  0.0668
 3179TIP3    H131172   0.008   5.399   7.675 -1.1060  0.8819 -0.1303
 3179TIP3    H231173   0.113   5.495   7.728 -0.8493  0.4727  0.1013
 3180TIP3   OH231174   2.767   6.692   1.268  0.1080  0.0899  0.1540
 3180TIP3    H131175   2.852   6.667   1.233  0.3532 -0.8863  1.3840
 3180TIP3    H231176   2.784   6.772   1.318  0.2302  0.1176  0.0674
 3181TIP3   OH231177   3.193   5.057   8.304  0.3539  0.1119 -0.0685
 3181TIP3    H131178   3.247   5.020   8.234 -2.0244 -0.3765 -1.7993
 3181TIP3    H231179   3.227   5.145   8.316  2.1812 -0.5080 -0.2862
 3182TIP3   OH231180   5.639   3.359   2.305 -0.2620  0.3377  0.2449
 3182TIP3    H131181   5.543   3.357   2.300 -0.2824  0.7271  0.4450
 3182TIP3    H231182   5.662   3.452   2.297  0.0095  0.4187  1.6855
 3183TIP3   OH231183   3.280   0.103   8.294 -0.6414 -0.2055  0.2630
 3183TIP3    H131184   3.356   0.061   8.254 -1.2780 -1.0186 -0.1242
 3183TIP3    H231185   3.280   0.073   8.384  0.0474  0.5811  0.5356
 3184TIP3   OH231186   6.227   6.421   2.864  0.3213  0.1774  0.6681
 3184TIP3    H131187   6.266   6.389   2.945  0.0229 -1.4493  0.2019
 3184TIP3    H231188   6.138   6.448   2.889  0.9184  1.7189  1.2687
 3185TIP3   OH231189   3.007   6.462   0.419 -0.1334 -0.4068 -0.1127
 3185TIP3    H131190   2.950   6.508   0.481 -0.5733 -1.1424  0.0420
 3185TIP3    H231191   3.079   6.523   0.403 -0.5297  0.1960  0.3464
 3186TIP3   OH231192   2.470   1.715   1.295  0.3623  0.5607 -0.2217
 3186TIP3    H131193   2.451   1.677   1.210  0.3287  2.4787 -1.1158
 3186TIP3    H231194   2.389   1.706   1.345  0.7200 -1.5896  0.0659
 3187TIP3   OH231195   0.003   4.460   2.493  0.1363 -0.0298  0.7324
 3187TIP3    H131196   0.060   4.510   2.435 -0.1344 -1.0204 -0.4157
 3187TIP3    H231197   0.051   4.458   2.577  0.3921  1.6547  0.6613
 3188TIP3   OH231198   3.826   4.948   0.843  0.6612 -0.1201  0.1581
 3188TIP3    H131199   3.886   4.912   0.908 -0.0644 -0.3710  0.6987
 3188TIP3    H231200   3.812   5.038   0.871 -0.9461 -0.6986  1.3222
 3189TIP3   OH231201   1.111   2.225   2.539 -0.1818  0.8350 -0.7018
 3189TIP3    H131202   1.079   2.188   2.622 -1.6403  2.7234 -0.3583
 3189TIP3    H231203   1.040   2.209   2.477  0.5252  0.2548 -1.3761
 3190TIP3   OH231204   0.549   4.052   2.535  0.0878  1.1058  0.0369
 3190TIP3    H131205   0.495   4.119   2.492  0.5329  1.1484 -0.4652
 3190TIP3    H231206   0.639   4.083   2.524  0.2941  0.4413 -0.1671
 3191TIP3   OH231207   4.584   4.504   0.715 -0.1748  0.1088 -0.0344
 3191TIP3    H131208   4.613   4.587   0.678 -0.9113 -0.1859 -1.3352
 3191TIP3    H231209   4.495   4.522   0.747  0.2257  0.1983  1.0505
 3192TIP3   OH231210   6.226   4.755   8.031 -0.6933 -0.5858 -0.3804
 3192TIP3    H131211   6.262   4.831   7.986  0.2107 -1.0251 -0.4242
 3192TIP3    H231212   6.141   4.740   7.990 -0.5491 -0.0493 -0.8809
 3193TIP3   OH231213   2.247   6.478   1.858 -0.1456 -0.1875  0.1791
 3193TIP3    H131214   2.293   6.423   1.794  1.1948  0.7125  0.3294
 3193TIP3    H231215   2.279   6.567   1.840  0.4021  0.0750  2.1893
 3194TIP3   OH231216   5.384   5.226   2.334 -0.0243  0.1222 -0.4267
 3194TIP3    H131217   5.336   5.218   2.416  1.0763  0.3722  0.2675
 3194TIP3    H231218   5.318   5.251   2.269 -0.9232 -0.1736  0.3557
 3195TIP3   OH231219   1.302   2.961   1.782  0.4347 -0.1476  0.0293
 3195TIP3    H131220   1.311   2.927   1.871  1.3224 -0.8571 -0.3131
 3195TIP3    H231221   1.208   2.978   1.772  0.3163 -0.1190  1.0705
 3196TIP3   OH231222   6.422   3.125   0.325 -0.0042  0.9164  0.3895
 3196TIP3    H131223   6.417   3.044   0.376  1.1576  0.7103  0.2053
 3196TIP3    H231224   6.436   3.095   0.235 -2.6634  1.2518 -0.2176
 3197TIP3   OH231225   0.993   0.736   2.177  0.3055 -0.5295  0.2377
 3197TIP3    H131226   0.926   0.743   2.245  0.2696  1.8885  0.0341
 3197TIP3    H231227   1.070   0.777   2.215  0.3514  0.6557 -1.0846
 3198TIP3   OH231228   3.228   1.131   8.468  0.1193  0.4708  0.0616
 3198TIP3    H131229   3.232   1.105   8.560 -1.4053 -2.7132 -0.6173
 3198TIP3    H231230   3.277   1.063   8.422  0.5510  1.8073 -1.5325
 3199TIP3   OH231231   1.688   4.699   2.896 -0.3063 -0.3892  0.2666
 3199TIP3    H131232   1.725   4.692   2.808 -0.2463 -2.3044  0.4064
 3199TIP3    H231233   1.647   4.614   2.911  0.4153 -0.4073  2.4101
 3200TIP3   OH231234   5.162   3.508   8.519  0.1854  0.1001  0.2714
 3200TIP3    H131235   5.094   3.509   8.452  0.7550 -0.1140 -0.3196
 3200TIP3    H231236   5.162   3.597   8.554 -1.5966 -0.3465  1.5285
 3201TIP3   OH231237   2.796   3.469   3.279 -0.4818 -0.0009 -0.3457
 3201TIP3    H131238   2.849   3.411   3.224 -0.9403  0.4145 -1.2393
 3201TIP3    H231239   2.830   3.556   3.262 -1.1638  0.2219 -0.6106
 3202TIP3   OH231240   0.002   6.769   1.923 -0.0531 -0.1621 -0.4361
 3202TIP3    H131241  -0.019   6.782   1.831 -2.8523  1.0220  0.2651
 3202TIP3    H231242  -0.026   6.850   1.966  1.7295 -0.4325  1.4361
 3203TIP3   OH231243   5.677   5.218   1.810  0.1033  0.1481 -0.2277
 3203TIP3    H131244   5.616   5.175   1.749  2.0258 -0.4113 -1.8824
 3203TIP3    H231245   5.761   5.175   1.793  1.4245  2.3561  0.4248
 3204TIP3   OH231246   4.291   3.942   7.979  0.6072 -0.5072  0.1285
 3204TIP3    H131247   4.330   3.967   7.895  0.4190  0.8547  0.4306
 3204TIP3    H231248   4.307   3.848   7.985  3.7213 -0.0879  0.1607
 3205TIP3   OH231249   4.937   0.817   2.350  0.2078 -0.2945  0.0361
 3205TIP3    H131250   4.865   0.826   2.287 -0.9685  1.9676  1.5639
 3205TIP3    H231251   5.012   0.857   2.307 -0.7787  1.9600  0.2700
 3206TIP3   OH231252   0.458   4.941   1.022  0.1359  0.0107  0.0901
 3206TIP3    H131253   0.427   4.892   1.098 -0.0955 -2.2471 -1.3889
 3206TIP3    H231254   0.550   4.916   1.013  0.5906  1.4234  0.4425
 3207TIP3   OH231255   5.486   2.798   7.799 -0.2100 -0.4961  0.8805
 3207TIP3    H131256   5.452   2.762   7.881  0.3464 -1.3671  0.7508
 3207TIP3    H231257   5.408   2.810   7.745 -0.3892 -2.2160  0.6790
 3208TIP3   OH231258   3.645   5.620   8.113  0.7054 -0.1077  0.3864
 3208TIP3    H131259   3.707   5.612   8.185  1.7207  3.4219  0.0893
 3208TIP3    H231260   3.699   5.640   8.036 -0.6181  2.8969  0.0885
 3209TIP3   OH231261   3.649   0.011   1.063  0.5073 -0.1981  0.1124
 3209TIP3    H131262   3.627   0.098   1.096  1.1587  1.0300 -2.4716
 3209TIP3    H231263   3.610  -0.049   1.127 -1.8220  1.9399  0.8631
 3210TIP3   OH231264   6.048   2.666   0.036 -0.2725 -0.0036  0.0704
 3210TIP3    H131265   6.019   2.586   0.080 -0.2276  0.6127  1.2727
 3210TIP3    H231266   5.974   2.726   0.047  0.9977  1.2716  2.3108
 3211TIP3   OH231267   3.565   5.899   7.624  0.0595  0.3917  1.1529
 3211TIP3    H131268   3.581   5.806   7.607 -2.0952 -0.3419  2.8127
 3211TIP3    H231269   3.593   5.942   7.543  1.4436 -1.6238  0.4593
 3212TIP3   OH231270   5.406   4.883   1.017 -0.1947 -0.3568  0.0507
 3212TIP3    H131271   5.417   4.808   0.958 -0.7231  1.8530 -3.1722
 3212TIP3    H231272   5.489   4.929   1.013  0.0306 -0.5565  1.7661
 3213TIP3   OH231273   3.941   6.285   1.027 -0.3237 -0.0323  0.1525
 3213TIP3    H131274   4.031   6.255   1.023 -0.4774 -0.4453 -0.3679
 3213TIP3    H231275   3.934   6.331   1.110  0.0185 -1.1122  0.7946
 3214TIP3   OH231276   3.222   5.784   7.787  0.2296  0.3668  0.1459
 3214TIP3    H131277   3.302   5.822   7.824 -0.0271  0.5436  0.5338
 3214TIP3    H231278   3.170   5.760   7.864 -0.6563  1.4710 -0.0876
 3215TIP3   OH231279   3.992   3.470   0.479  0.1902 -0.4385 -0.0278
 3215TIP3    H131280   3.985   3.539   0.413 -0.8637  1.0145  1.5071
 3215TIP3    H231281   3.910   3.421   0.471  0.6650 -1.1374 -0.6986
 3216TIP3   OH231282   0.104   5.698   7.251  0.4316  0.0449 -0.4281
 3216TIP3    H131283   0.110   5.635   7.179 -1.2555  0.8265 -1.3144
 3216TIP3    H231284   0.193   5.702   7.286  0.5427 -3.1394 -0.0234
 3217TIP3   OH231285   4.653   0.267   2.567  0.2262  0.2706  0.7509
 3217TIP3    H131286   4.566   0.227   2.563 -0.6093  2.1051 -0.9287
 3217TIP3    H231287   4.710   0.207   2.520 -0.1089 -0.9108  1.8006
 3218TIP3   OH231288   6.474   5.764   0.497  0.6085  0.3980 -0.0014
 3218TIP3    H131289   6.511   5.852   0.498 -0.8106  1.0288  1.6442
 3218TIP3    H231290   6.379   5.778   0.495  0.3552 -1.0957  0.2902
 3219TIP3   OH231291   4.326   6.085   1.965  0.5287  0.5146  0.3002
 3219TIP3    H131292   4.263   6.046   1.904  1.8607  0.7714 -1.3118
 3219TIP3    H231293   4.275   6.151   2.012 -0.8050 -0.4336  0.2655
 3220TIP3   OH231294   0.315   2.610   7.884  0.5503 -0.3682  0.7897
 3220TIP3    H131295   0.295   2.548   7.954  1.3381 -0.5137  0.9015
 3220TIP3    H231296   0.374   2.674   7.925 -1.8111  1.6597  1.2492
 3221TIP3   OH231297   3.528   2.569   7.847 -0.2926  0.0520 -0.0527
 3221TIP3    H131298   3.620   2.554   7.825 -0.6717 -1.3699 -0.7643
 3221TIP3    H231299   3.503   2.645   7.795  0.9408  1.6447  1.5474
 3222TIP3   OH231300   6.301   4.837   7.656 -0.1100 -0.1245  0.1259
 3222TIP3    H131301   6.223   4.882   7.622  0.6130  1.1243  0.0891
 3222TIP3    H231302   6.317   4.878   7.741 -1.6401 -2.9164  1.9277
 3223TIP3   OH231303   4.947   0.005   0.709  0.5171  0.1910 -0.4926
 3223TIP3    H131304   4.883  -0.054   0.668 -0.4153  2.5382 -2.6970
 3223TIP3    H231305   4.907   0.028   0.793  0.7756 -1.9928  0.2948
 3224TIP3   OH231306   1.650   4.967   0.761  0.2577 -0.4733  0.3111
 3224TIP3    H131307   1.633   5.035   0.696  0.2479  0.9309  1.7266
 3224TIP3    H231308   1.562   4.940   0.790  0.2778 -0.5577  0.2939
 3225TIP3   OH231309   0.434   2.701   2.749  0.0042 -0.0201  0.0612
 3225TIP3    H131310   0.523   2.675   2.725  0.5706  0.9833  0.9686
 3225TIP3    H231311   0.411   2.770   2.687  0.5203  0.8789  0.8517
 3226TIP3   OH231312   5.203   2.796   7.487  0.7392  0.2809 -0.1369
 3226TIP3    H131313   5.152   2.821   7.411  0.3109  0.4888  0.2154
 3226TIP3    H231314   5.187   2.702   7.497  0.2329  0.3876  0.1079
 3227TIP3   OH231315   2.118   2.003   0.152  0.3967 -0.6570 -0.0253
 3227TIP3    H131316   2.118   2.047   0.067  3.7134 -0.3458  0.0020
 3227TIP3    H231317   2.044   1.943   0.149 -1.1155  1.1879 -2.0960
 3228TIP3   OH231318   5.246   6.420   1.026 -0.3421 -0.0159 -0.6263
 3228TIP3    H131319   5.237   6.357   1.097  0.0748  0.5286 -0.0785
 3228TIP3    H231320   5.238   6.506   1.068 -0.4319  0.3123 -1.2880
 3229TIP3   OH231321   1.351   3.093   0.342  0.9385 -0.1642 -0.5546
 3229TIP3    H131322   1.276   3.152   0.350  0.5674 -0.7822  0.8185
 3229TIP3    H231323   1.426   3.147   0.368  0.9546  0.3693 -1.6430
 3230TIP3   OH231324   2.627   4.304   0.204  0.7245 -0.5779 -0.1381
 3230TIP3    H131325   2.558   4.268   0.147  0.9056 -0.5160 -0.4014
 3230TIP3    H231326   2.585   4.315   0.289  0.3108 -0.2098 -0.3851
 3231TIP3   OH231327   0.591   6.213   1.310  0.4757  0.0454  0.1102
 3231TIP3    H131328   0.614   6.272   1.238  0.8603  0.3149  0.4478
 3231TIP3    H231329   0.664   6.152   1.314  0.1953 -0.3056 -0.0765
 3232TIP3   OH231330   2.285   6.342   8.594 -0.2758 -0.0717  0.6464
 3232TIP3    H131331   2.245   6.281   8.656 -0.8758 -1.5307 -1.0870
 3232TIP3    H231332   2.210   6.389   8.557  0.0479  0.5245  0.7416
 3233TIP3   OH231333   6.335   4.101   2.873  0.1354 -0.4745  0.2142
 3233TIP3    H131334   6.293   4.064   2.796  0.8679 -1.5270  0.2872
 3233TIP3    H231335   6.335   4.029   2.937  0.9488 -0.1251  0.6240
 3234TIP3   OH231336   4.766   0.716   8.271 -0.1806  0.4136 -0.3740
 3234TIP3    H131337   4.694   0.753   8.218 -0.0028  0.4307 -0.6030
 3234TIP3    H231338   4.832   0.785   8.273 -0.5271  0.7317  0.5581
 3235TIP3   OH231339   6.361   1.233   2.571 -0.6412  0.4771 -0.3979
 3235TIP3    H131340   6.309   1.260   2.647 -0.0821 -0.3284  0.2804
 3235TIP3    H231341   6.427   1.302   2.561  0.2887 -0.1950  0.8453
 3236TIP3   OH231342   3.503   6.789   1.264  0.3752  0.1564  0.6725
 3236TIP3    H131343   3.515   6.699   1.294  1.8435  0.8349  2.3025
 3236TIP3    H231344   3.415   6.813   1.293  1.0296  0.1482  2.8363
 3237TIP3   OH231345   3.374   2.016   8.526  0.0027 -0.6025 -0.3995
 3237TIP3    H131346   3.374   1.948   8.593  2.3251 -0.4987 -0.2290
 3237TIP3    H231347   3.362   2.097   8.574 -1.1625 -0.7176 -0.4481
 3238TIP3   OH231348   1.880   2.968   0.823 -0.7161 -0.2813 -0.2053
 3238TIP3    H131349   1.954   2.909   0.811 -1.7645 -1.8587  0.6028
 3238TIP3    H231350   1.894   3.038   0.760  0.7769 -1.2070 -0.9674
 3239TIP3   OH231351   5.527   0.838   0.916  0.1342 -0.3670 -0.1137
 3239TIP3    H131352   5.507   0.745   0.917 -0.3768 -0.2642 -0.2348
 3239TIP3    H231353   5.521   0.865   1.007 -1.4367 -0.1136 -0.2629
 3240TIP3   OH231354   5.736   2.074   3.023  0.4131 -0.0866  0.9119
 3240TIP3    H131355   5.672   2.100   2.957  0.5309 -2.1069 -0.0818
 3240TIP3    H231356   5.685   2.068   3.104 -0.4514 -0.7002  0.3394
 3241TIP3   OH231357   0.149   1.087   1.679 -0.0416 -0.2923  0.0238
 3241TIP3    H131358   0.181   1.176   1.693 -1.5244  0.4792 -1.1189
 3241TIP3    H231359   0.066   1.084   1.726 -0.2179 -0.9280 -0.3234
 3242TIP3   OH231360   6.162   0.262   2.623  0.4642 -0.8646 -0.2553
 3242TIP3    H131361   6.109   0.331   2.583 -2.1188 -1.9320  1.1241
 3242TIP3    H231362   6.200   0.303   2.701 -1.6282 -1.1060  0.9519
 3243TIP3   OH231363   3.015   5.174   2.097 -0.4840 -0.1276 -0.1072
 3243TIP3    H131364   3.082   5.106   2.103 -0.1477  0.1280 -0.8491
 3243TIP3    H231365   3.016   5.218   2.183  0.9964  0.5178 -0.4309
 3244TIP3   OH231366   1.714   4.340   7.957 -0.2285 -0.0715  0.5926
 3244TIP3    H131367   1.798   4.362   7.916 -0.4312 -0.0967  0.1546
 3244TIP3    H231368   1.675   4.277   7.897  0.0380 -1.1120  1.4881
 3245TIP3   OH231369   1.688   4.728   1.353 -0.0428  0.5894 -0.0937
 3245TIP3    H131370   1.630   4.787   1.401 -0.2120  1.1352 -0.9673
 3245TIP3    H231371   1.636   4.648   1.342 -0.3903  0.8377 -0.2829
 3246TIP3   OH231372   3.110   3.691   0.781 -0.4281 -0.5730  0.2826
 3246TIP3    H131373   3.165   3.767   0.799  1.1898 -1.6111 -0.0778
 3246TIP3    H231374   3.022   3.718   0.809  0.2467  1.1270  0.9043
 3247TIP3   OH231375   1.856   6.600   1.180  0.4084 -0.6861 -0.0005
 3247TIP3    H131376   1.899   6.675   1.138  0.7032 -0.8673 -0.0247
 3247TIP3    H231377   1.812   6.554   1.108 -2.5345  1.2299  0.3907
 3248TIP3   OH231378   0.556   5.426   2.227 -0.1509  0.2725 -0.0044
 3248TIP3    H131379   0.638   5.378   2.219 -0.9081 -1.1654  0.5818
 3248TIP3    H231380   0.559   5.464   2.315  0.2181  0.8851 -0.2751
 3249TIP3   OH231381   2.956   3.584   0.028  0.1599 -0.5914  0.3824
 3249TIP3    H131382   2.940   3.491   0.015 -1.5699 -0.0021 -2.4958
 3249TIP3    H231383   2.882   3.614   0.081 -3.1295  0.1416 -4.0475
 3250TIP3   OH231384   0.544   3.990   0.012 -0.1308  0.0160 -0.8842
 3250TIP3    H131385   0.603   4.007   0.084 -0.3265  0.4059 -0.8087
 3250TIP3    H231386   0.457   3.983   0.052 -0.6520  2.8767 -1.3091
 3251TIP3   OH231387   4.073   2.562   1.517  0.4244  0.4911  0.3941
 3251TIP3    H131388   4.120   2.578   1.599  3.1909 -1.6389 -0.6006
 3251TIP3    H231389   4.083   2.642   1.466 -1.8827  2.0912  2.2389
 3252TIP3   OH231390   1.433   4.354   0.242  0.0579 -0.1141 -0.5965
 3252TIP3    H131391   1.443   4.345   0.336 -0.3108 -1.4925 -0.6695
 3252TIP3    H231392   1.451   4.446   0.224 -2.1540  0.7410  1.1362
 3253TIP3   OH231393   6.168   5.132   0.336  0.3089  0.0743  0.3730
 3253TIP3    H131394   6.117   5.202   0.377  1.8383  1.7668 -0.4929
 3253TIP3    H231395   6.151   5.055   0.391  0.7614  1.7738  3.0835
 3254TIP3   OH231396   4.533   4.264   3.087  0.1118  0.9698 -0.7349
 3254TIP3    H131397   4.453   4.251   3.138 -0.2563 -0.5022 -1.6060
 3254TIP3    H231398   4.604   4.239   3.147 -0.3631 -1.5808 -1.0959
 3255TIP3   OH231399   6.651   3.905   0.451  0.0874  0.4792 -0.0256
 3255TIP3    H131400   6.708   3.844   0.498 -0.2957 -0.2366 -0.4748
 3255TIP3    H231401   6.621   3.855   0.375 -3.0964 -0.0429  1.4263
 3256TIP3   OH231402   4.842   6.391   2.882  0.6334  0.5765 -0.3068
 3256TIP3    H131403   4.829   6.335   2.806  0.7527 -1.0216  0.8071
 3256TIP3    H231404   4.766   6.374   2.938 -0.1279  2.7082 -0.6108
 3257TIP3   OH231405   1.626   6.450   0.155 -0.4553  0.3089 -0.1344
 3257TIP3    H131406   1.533   6.459   0.176 -0.2324  2.5797  0.1069
 3257TIP3    H231407   1.627   6.419   0.064 -1.4423  0.2067 -0.1231
 3258TIP3   OH231408   2.375   0.796   0.619  0.1231  0.1195  0.0555
 3258TIP3    H131409   2.328   0.879   0.630 -1.2775 -0.5220 -0.8409
 3258TIP3    H231410   2.306   0.730   0.610  1.1959 -1.2427  1.2868
 3259TIP3   OH231411   3.732   0.123   0.717  0.9242 -0.0125 -0.2088
 3259TIP3    H131412   3.722   0.134   0.811 -2.1899  2.1603 -0.6726
 3259TIP3    H231413   3.643   0.125   0.683  2.0420  1.3808 -3.4007
 3260TIP3   OH231414   1.504   0.428   1.473  0.1281 -0.0750 -0.5280
 3260TIP3    H131415   1.542   0.482   1.405  0.4896  1.1125  0.5762
 3260TIP3    H231416   1.526   0.473   1.555  0.2190 -1.7547  0.4245
 3261TIP3   OH231417   6.664   3.996   7.411 -0.0004 -0.1929  0.2013
 3261TIP3    H131418   6.695   4.078   7.449 -2.0709  0.4937  0.5558
 3261TIP3    H231419   6.689   3.929   7.475  1.7641  0.1241 -0.1225
 3262TIP3   OH231420   5.207   5.379   0.001  0.0508  0.0143 -0.2184
 3262TIP3    H131421   5.209   5.474  -0.013 -0.5278 -0.2886 -2.8320
 3262TIP3    H231422   5.114   5.360   0.017  0.3595  0.0177  1.8020
 3263TIP3   OH231423   2.344   1.963   0.508 -0.9068  0.6354 -0.0515
 3263TIP3    H131424   2.355   2.052   0.477 -3.3854  0.7834 -0.7336
 3263TIP3    H231425   2.304   1.972   0.595 -0.9449  0.2017 -0.0200
 3264TIP3   OH231426   1.992   0.171   2.390  0.5435  0.1539 -0.2830
 3264TIP3    H131427   2.018   0.106   2.455 -0.4764 -0.2935 -0.2880
 3264TIP3    H231428   1.897   0.177   2.400  0.3156 -0.1516 -1.9246
 3265TIP3   OH231429   1.388   3.264   8.386 -0.3937 -0.4306  0.0341
 3265TIP3    H131430   1.429   3.195   8.334 -1.7914  0.2273 -2.0317
 3265TIP3    H231431   1.439   3.343   8.366 -2.4044  0.3597 -2.4296
 3266TIP3   OH231432   6.562   5.041   8.644 -0.1790 -0.1844 -0.3129
 3266TIP3    H131433   6.501   5.059   8.716 -0.5120 -1.3740 -0.2713
 3266TIP3    H231434   6.648   5.033   8.687 -0.2519 -0.1216 -0.1554
 3267TIP3   OH231435   5.124   4.106   2.656  0.0119 -0.2522 -0.1718
 3267TIP3    H131436   5.108   4.087   2.563  2.3502 -0.5108 -0.5950
 3267TIP3    H231437   5.178   4.185   2.655  1.0711 -0.9263  0.8709
 3268TIP3   OH231438   1.546   6.802   1.846  0.1202  0.3288  0.0019
 3268TIP3    H131439   1.463   6.756   1.832  0.4515 -0.1496 -0.4112
 3268TIP3    H231440   1.590   6.799   1.761  0.4210  0.8736  0.1312
 3269TIP3   OH231441   3.497   3.260   1.119 -0.0925  0.2478  0.4694
 3269TIP3    H131442   3.428   3.281   1.057  0.0171 -0.3592  0.1363
 3269TIP3    H231443   3.544   3.187   1.080  0.1971  0.0833  1.1031
 3270TIP3   OH231444   2.959   3.695   3.286  0.0784  0.3703 -0.4800
 3270TIP3    H131445   3.005   3.668   3.366 -1.8131  1.2497  0.9853
 3270TIP3    H231446   2.960   3.791   3.291  1.3881  0.5149 -2.4367
 3271TIP3   OH231447   4.455   0.276   7.005 -0.3024 -0.2093  0.0532
 3271TIP3    H131448   4.523   0.342   7.021 -0.3090 -0.2637  0.3007
 3271TIP3    H231449   4.502   0.203   6.963 -0.4827  0.3977 -1.2572
 3272TIP3   OH231450   0.309   1.786   0.227  0.0262 -0.1896  0.2351
 3272TIP3    H131451   0.236   1.726   0.242  0.0135 -0.0873  0.5952
 3272TIP3    H231452   0.300   1.853   0.295  0.8424 -0.5415  0.7114
 3273TIP3   OH231453   4.859   0.946   8.519  0.8037  0.5216 -0.0650
 3273TIP3    H131454   4.891   0.896   8.444  2.0513  0.2647  0.6095
 3273TIP3    H231455   4.928   1.011   8.536 -0.0489  1.4094  0.0763
 3274TIP3   OH231456   1.119   3.782   8.513  0.0478 -0.5442 -0.0635
 3274TIP3    H131457   1.058   3.733   8.568 -1.7415  1.5369 -0.0816
 3274TIP3    H231458   1.127   3.730   8.433 -2.7140 -0.3196 -0.5606
 3275TIP3   OH231459   3.661   4.933   0.614 -0.2625 -0.8067  0.1366
 3275TIP3    H131460   3.708   4.940   0.697 -2.0415  2.7548  1.0217
 3275TIP3    H231461   3.569   4.935   0.638 -0.8314 -0.2930 -1.8890
 3276TIP3   OH231462   6.768   0.492   3.335 -1.0882 -0.2629 -0.3574
 3276TIP3    H131463   6.710   0.435   3.387 -1.4863 -1.8475 -2.4259
 3276TIP3    H231464   6.835   0.432   3.300  1.0656  1.2948  0.8393
 3277TIP3   OH231465   2.437   2.063   2.058  0.1927  0.3568  0.1027
 3277TIP3    H131466   2.447   1.971   2.083 -0.5886  0.6299  1.5292
 3277TIP3    H231467   2.527   2.096   2.052  0.4434 -0.0352  1.4412
 3278TIP3   OH231468   1.202   3.447   8.449 -0.4627 -0.5114 -0.0273
 3278TIP3    H131469   1.258   3.499   8.507  0.2483 -0.5415 -0.6780
 3278TIP3    H231470   1.256   3.373   8.422 -0.4234  0.0146 -1.5120
 3279TIP3   OH231471   6.470   5.608   1.184 -0.4770  0.2383  0.6109
 3279TIP3    H131472   6.403   5.665   1.223 -0.1636  0.6867  0.4940
 3279TIP3    H231473   6.538   5.668   1.153 -0.8152 -0.0913 -0.8425
 3280TIP3   OH231474   1.100   3.487   2.204 -0.2462  0.2331  0.6279
 3280TIP3    H131475   1.174   3.540   2.174 -1.0074  0.5170 -0.8142
 3280TIP3    H231476   1.026   3.548   2.206 -0.4880 -0.0512  2.0321
 3281TIP3   OH231477   6.659   2.826   1.138  0.0934 -0.8034  0.6915
 3281TIP3    H131478   6.644   2.887   1.066 -0.1113 -1.4021  0.2147
 3281TIP3    H231479   6.672   2.881   1.215 -1.5119 -0.1870  0.5523
 3282TIP3   OH231480   3.218   5.850   1.229  0.0729  0.2079  0.3414
 3282TIP3    H131481   3.224   5.790   1.154  0.8189  0.0541  0.5215
 3282TIP3    H231482   3.129   5.839   1.261 -0.2708  0.2939 -0.5433
 3283TIP3   OH231483   6.152   2.504   0.915  0.1571  0.6642  0.1111
 3283TIP3    H131484   6.123   2.530   0.828 -1.7493 -0.9002  0.1924
 3283TIP3    H231485   6.247   2.493   0.907  0.4012  2.9194 -1.0611
 3284TIP3   OH231486   1.830   1.830   8.194 -0.1737 -0.0390  0.3568
 3284TIP3    H131487   1.924   1.843   8.183 -0.6463  3.1530 -1.2048
 3284TIP3    H231488   1.806   1.890   8.265 -1.2519  0.7538 -0.6341
 3285TIP3   OH231489   3.261   4.285   2.554  0.1705  0.1964  0.3837
 3285TIP3    H131490   3.322   4.219   2.586 -0.1535 -0.2895  0.0139
 3285TIP3    H231491   3.208   4.240   2.487 -1.1613  0.3606  1.2807
 3286TIP3   OH231492   3.369   3.744   1.595  0.7648 -0.3478  0.4663
 3286TIP3    H131493   3.369   3.817   1.657 -0.1051  1.3842 -1.4680
 3286TIP3    H231494   3.375   3.666   1.651  0.9611  1.1351  2.6581
 3287TIP3   OH231495   2.924   4.802   1.719 -0.3843 -0.2461  0.0266
 3287TIP3    H131496   2.909   4.721   1.768 -0.8430 -0.0129  0.2809
 3287TIP3    H231497   2.836   4.840   1.708 -0.3586 -0.5805 -1.4774
 3288TIP3   OH231498   1.147   5.938   8.582  0.2778  0.3614  0.2463
 3288TIP3    H131499   1.113   5.858   8.621 -0.6486  0.5312 -0.1947
 3288TIP3    H231500   1.088   5.957   8.509  1.1204  0.8520 -0.3304
 3289TIP3   OH231501   3.716   4.535   1.483  0.6203  0.1610 -0.3136
 3289TIP3    H131502   3.625   4.565   1.494  0.4964 -0.1042 -0.6175
 3289TIP3    H231503   3.756   4.551   1.568 -0.5996 -2.7859  0.9558
 3290TIP3   OH231504   1.210   0.931   1.056 -0.7056 -0.1250 -0.4669
 3290TIP3    H131505   1.138   0.994   1.065 -0.2548  0.1359  2.3287
 3290TIP3    H231506   1.189   0.862   1.119  1.7074  0.2222  0.8189
 3291TIP3   OH231507   3.823   6.421   8.581 -0.5791 -0.6221 -0.5330
 3291TIP3    H131508   3.763   6.479   8.628 -0.6360 -0.4926 -0.7661
 3291TIP3    H231509   3.782   6.409   8.495  0.9953  1.5572 -1.6825
 3292TIP3   OH231510   1.984   2.132   3.181  0.7462  0.1828 -0.1013
 3292TIP3    H131511   1.929   2.062   3.145 -0.0655  0.4293  0.6344
 3292TIP3    H231512   2.021   2.176   3.104 -1.6758  1.2910 -0.7013
 3293TIP3   OH231513   5.131   6.619   8.076  0.6116 -0.6192 -0.1046
 3293TIP3    H131514   5.152   6.713   8.077 -0.4201 -0.3768 -0.3616
 3293TIP3    H231515   5.205   6.579   8.029 -0.3508  0.4617 -2.7596
 3294TIP3   OH231516   5.737   2.241   0.205 -0.4191  0.7190  0.3249
 3294TIP3    H131517   5.734   2.216   0.297 -2.5396  2.7729  0.9325
 3294TIP3    H231518   5.667   2.191   0.163 -0.3516  0.7821  0.1321
 3295TIP3   OH231519   5.208   4.025   1.230  0.4094 -0.0825  0.2679
 3295TIP3    H131520   5.172   3.987   1.149 -0.6873  1.2777  0.0724
 3295TIP3    H231521   5.168   4.112   1.235 -1.7345 -1.0784  3.7032
 3296TIP3   OH231522   6.542   0.982   2.324 -0.1684 -0.0934 -0.3741
 3296TIP3    H131523   6.450   1.005   2.325  0.3069  2.1152 -1.0217
 3296TIP3    H231524   6.580   1.038   2.256  1.7847 -0.3213  0.4451
 3297TIP3   OH231525   0.409   4.088   8.182 -0.4963 -0.2069 -0.2572
 3297TIP3    H131526   0.366   4.110   8.100 -3.4842  0.1547  1.2733
 3297TIP3    H231527   0.403   4.167   8.235 -1.2864 -1.2859  1.3281
 3298TIP3   OH231528   0.870   5.852   0.517  1.0700 -0.2244  0.4495
 3298TIP3    H131529   0.847   5.944   0.504  1.6427  0.0719  1.4282
 3298TIP3    H231530   0.936   5.834   0.451 -0.1150 -0.3740 -0.7383
 3299TIP3   OH231531   5.142   2.750   8.373 -0.2856  0.4411 -0.3216
 3299TIP3    H131532   5.150   2.701   8.455 -0.8516 -0.9156 -1.0344
 3299TIP3    H231533   5.068   2.808   8.386  0.5943  1.3850  0.6600
 3300TIP3   OH231534   4.518   6.728   1.401  0.0131 -0.0263 -0.3498
 3300TIP3    H131535   4.522   6.665   1.473  0.4488  0.1442 -0.2229
 3300TIP3    H231536   4.596   6.782   1.412 -1.5352  2.0979  0.9803
 3301TIP3   OH231537   5.714   5.738   8.031 -0.6120  0.5348  0.3503
 3301TIP3    H131538   5.757   5.694   7.957 -1.3556  2.5875 -1.3944
 3301TIP3    H231539   5.622   5.740   8.007 -0.9477  0.8117  1.6072
 3302TIP3   OH231540   6.462   2.192   8.434 -0.4388  0.2431 -0.4567
 3302TIP3    H131541   6.533   2.152   8.384  0.6914  1.2431  0.3044
 3302TIP3    H231542   6.441   2.272   8.385 -0.5658  0.3028 -0.3027
 3303TIP3   OH231543   2.924   1.792   8.632 -0.2288  0.0891 -0.4110
 3303TIP3    H131544   2.918   1.818   8.724  1.4225  1.2839 -0.6101
 3303TIP3    H231545   2.969   1.708   8.634 -1.3581 -0.5305 -0.0711
 3304TIP3   OH231546   6.609   2.447   7.571  0.0328  0.0463  0.0185
 3304TIP3    H131547   6.523   2.427   7.534 -0.3765  0.5244  0.6779
 3304TIP3    H231548   6.660   2.367   7.558 -0.7555 -0.5162  0.3137
 3305TIP3   OH231549   0.249   4.661   8.518 -0.0768  0.4139  0.9068
 3305TIP3    H131550   0.279   4.655   8.427 -0.1140  0.0171  0.9176
 3305TIP3    H231551   0.233   4.570   8.543  0.6195  0.4566  1.5329
 3306TIP3   OH231552   1.935   6.260   3.183 -0.2481  0.6031  0.5923
 3306TIP3    H131553   2.007   6.255   3.247 -0.2562 -2.8426  0.5341
 3306TIP3    H231554   1.861   6.219   3.227  0.1183 -3.2018 -1.9111
 3307TIP3   OH231555   5.771   3.160   2.485  0.3489  0.1628 -0.3454
 3307TIP3    H131556   5.736   3.138   2.399  0.5388  2.1793 -0.9876
 3307TIP3    H231557   5.703   3.213   2.526  0.7215  0.1476  0.3108
 3308TIP3   OH231558   3.535   5.374   8.235 -0.4874 -0.7255  0.2970
 3308TIP3    H131559   3.561   5.449   8.182 -0.8980  0.2709  1.4649
 3308TIP3    H231560   3.524   5.303   8.172 -0.6691  0.3430 -0.9185
 3309TIP3   OH231561   2.827   5.678   2.682 -0.0564  0.5542 -0.4196
 3309TIP3    H131562   2.874   5.762   2.689  0.0896  0.4046  0.5294
 3309TIP3    H231563   2.786   5.666   2.767  2.1868 -1.6457  0.5024
 3310TIP3   OH231564   6.651   1.833   2.743 -0.0863  0.1092 -0.2124
 3310TIP3    H131565   6.659   1.747   2.784  0.5873 -0.7858 -2.0811
 3310TIP3    H231566   6.725   1.883   2.777 -0.9268  0.2705  1.4944
 3311TIP3   OH231567   0.907   3.929   1.026  0.3681 -0.4095 -0.3437
 3311TIP3    H131568   0.900   3.927   0.931 -0.0501  0.5470 -0.3446
 3311TIP3    H231569   0.825   3.969   1.056  0.7448 -0.1591  0.3868
 3312TIP3   OH231570   1.197   3.911   0.449  0.4840 -0.3371  0.0490
 3312TIP3    H131571   1.189   3.853   0.524 -0.8170 -0.0623  0.1405
 3312TIP3    H231572   1.146   3.869   0.380  1.0079 -0.1819 -0.4464
 3313TIP3   OH231573   2.248   0.227   1.050  0.1575 -0.3704 -0.0891
 3313TIP3    H131574   2.213   0.193   0.967 -0.5648  0.9117 -0.3289
 3313TIP3    H231575   2.191   0.188   1.117  0.2574 -0.7945 -0.2458
 3314TIP3   OH231576   2.928   1.033   1.564  0.4158 -0.0170 -0.4322
 3314TIP3    H131577   2.866   0.988   1.622  0.4919  0.6846  0.2090
 3314TIP3    H231578   2.994   1.068   1.623  0.7998  0.2343 -1.0074
 3315TIP3   OH231579   1.252   6.672   1.584 -0.2107 -0.0291  0.2429
 3315TIP3    H131580   1.228   6.586   1.550 -3.5552  1.2247 -0.9518
 3315TIP3    H231581   1.315   6.706   1.520 -0.4503 -0.7817 -0.4167
 3316TIP3   OH231582   4.830   5.922   0.785  0.9324  0.4175  0.7067
 3316TIP3    H131583   4.780   5.841   0.772  2.5001 -0.3268 -1.2497
 3316TIP3    H231584   4.774   5.991   0.748 -0.1907  0.2046  1.9164
 3317TIP3   OH231585   5.216   1.580   0.063 -0.3833  0.5660 -0.4055
 3317TIP3    H131586   5.145   1.556   0.003 -0.2598 -0.3701 -0.1947
 3317TIP3    H231587   5.205   1.674   0.077 -1.6082  0.4293 -0.3450
 3318TIP3   OH231588   3.695   6.052   8.139  0.0793  0.0708 -0.3272
 3318TIP3    H131589   3.651   6.024   8.059 -0.8776  1.4881 -0.3299
 3318TIP3    H231590   3.744   6.130   8.114 -1.0444  1.1410  0.6372
 3319TIP3   OH231591   2.231   1.209   2.744 -1.1716  0.4893  0.2565
 3319TIP3    H131592   2.188   1.212   2.659 -0.6384  0.6911 -0.0113
 3319TIP3    H231593   2.272   1.122   2.747 -2.8458 -0.3080  1.1444
 3320TIP3   OH231594   3.413   4.620   0.194  0.5581 -0.3886 -0.5609
 3320TIP3    H131595   3.495   4.587   0.230  0.3491 -0.2710  0.0310
 3320TIP3    H231596   3.427   4.714   0.184 -0.0226 -0.0981  1.0227
 3321TIP3   OH231597   5.251   6.109   0.483  0.0531  0.1929  0.7180
 3321TIP3    H131598   5.162   6.073   0.474 -0.4125  1.5573 -0.4943
 3321TIP3    H231599   5.285   6.110   0.394 -0.3037  3.5030  0.5064
 3322TIP3   OH231600   0.843   2.563   0.726  0.1068  0.3178 -0.4128
 3322TIP3    H131601   0.888   2.556   0.810 -1.1693 -1.2920  0.2086
 3322TIP3    H231602   0.903   2.523   0.663 -0.0126 -0.9472  0.2380
 3323TIP3   OH231603   3.718   6.147   0.885  0.0496  0.4955 -0.7709
 3323TIP3    H131604   3.634   6.165   0.927 -1.0583  0.1544 -2.6968
 3323TIP3    H231605   3.777   6.215   0.918 -0.6920  0.1477  1.3789
 3324TIP3   OH231606   6.161   3.694   1.507  0.0022  0.1790 -0.0947
 3324TIP3    H131607   6.181   3.651   1.424  1.3249 -0.5181  0.5456
 3324TIP3    H231608   6.149   3.622   1.569 -1.1521  0.6833  0.3068
 3325TIP3   OH231609   0.100   5.288   0.284 -0.1280  0.1469 -0.4016
 3325TIP3    H131610   0.180   5.334   0.308 -0.4582 -0.2934  1.7325
 3325TIP3    H231611   0.061   5.263   0.368 -0.4886 -3.1381 -1.4313
 3326TIP3   OH231612   4.692   0.791   3.209  0.4191 -0.3530 -0.3774
 3326TIP3    H131613   4.772   0.739   3.221 -0.3807 -1.3254  0.9247
 3326TIP3    H231614   4.712   0.875   3.251  0.9836 -0.3238 -0.6813
 3327TIP3   OH231615   0.030   0.942   8.439  0.2464 -0.1271  0.0084
 3327TIP3    H131616   0.021   1.014   8.502  4.6529  0.0336  0.8061
 3327TIP3    H231617   0.040   0.864   8.494  2.5688 -0.2118 -0.4359
 3328TIP3   OH231618   1.669   0.887   3.418 -0.1042  0.3601  0.0770
 3328TIP3    H131619   1.588   0.933   3.442 -0.0892  0.5915 -0.3150
 3328TIP3    H231620   1.686   0.914   3.328 -0.1342 -0.4719 -0.1890
 3329TIP3   OH231621   2.812   0.980   1.836 -0.2537  0.1483 -0.4789
 3329TIP3    H131622   2.720   0.999   1.851 -0.0535  0.0760  0.9040
 3329TIP3    H231623   2.855   1.000   1.919  0.6822 -1.6890 -0.4792
 3330TIP3   OH231624   0.281   5.345   1.718  0.2589 -0.2295  0.1369
 3330TIP3    H131625   0.300   5.300   1.800  0.6355 -1.7019 -0.7246
 3330TIP3    H231626   0.298   5.280   1.650 -0.2523  0.8870 -1.1094
 3331TIP3   OH231627   4.322   3.482   3.257 -0.6591  0.1881  0.0730
 3331TIP3    H131628   4.306   3.410   3.317 -0.8484  0.7364  0.6972
 3331TIP3    H231629   4.348   3.555   3.314  1.9764 -0.0494 -0.7148
 3332TIP3   OH231630   4.212   2.696   7.965  0.0449 -0.4583 -0.0616
 3332TIP3    H131631   4.140   2.757   7.979  0.1370 -0.8888  3.2698
 3332TIP3    H231632   4.185   2.616   8.012  1.9793 -1.1849 -0.0907
 3333TIP3   OH231633   4.957   2.749   8.068 -0.2538 -0.0381 -0.0054
 3333TIP3    H131634   4.907   2.735   8.149  3.3514  0.4552  2.5295
 3333TIP3    H231635   5.013   2.672   8.060 -0.4334 -0.0023 -2.0227
 3334TIP3   OH231636   4.854   5.405   0.999  0.2033  0.0254 -0.1192
 3334TIP3    H131637   4.768   5.443   0.980  0.2445 -0.5358 -1.5936
 3334TIP3    H231638   4.904   5.477   1.037 -0.8844  0.3774  0.7177
 3335TIP3   OH231639   2.667   0.684   1.435  0.1110  0.2967 -0.0602
 3335TIP3    H131640   2.584   0.639   1.418  1.0967 -1.3065 -0.9559
 3335TIP3    H231641   2.667   0.700   1.529 -1.1024  0.1011 -0.0111
 3336TIP3   OH231642   5.765   5.960   7.827 -1.1094  0.1984 -0.1305
 3336TIP3    H131643   5.672   5.976   7.846 -0.8800  0.3405  0.9232
 3336TIP3    H231644   5.766   5.938   7.733 -2.2070  0.1607 -0.1568
 3337TIP3   OH231645   4.761   2.689   8.292 -0.1498 -0.5931 -0.1814
 3337TIP3    H131646   4.756   2.745   8.370  1.4063  1.4365 -1.4171
 3337TIP3    H231647   4.681   2.710   8.243 -0.0427 -0.1406 -0.1736
 3338TIP3   OH231648   4.257   0.694   8.004 -0.0025  0.1700  0.2246
 3338TIP3    H131649   4.230   0.751   8.076 -0.6557 -1.5262  1.3922
 3338TIP3    H231650   4.325   0.639   8.042 -1.0601 -1.4323 -0.1198
 3339TIP3   OH231651   1.568   1.162   0.690  0.1818  0.8145 -0.3095
 3339TIP3    H131652   1.525   1.170   0.775  0.8261 -1.0008  0.2322
 3339TIP3    H231653   1.539   1.239   0.641 -2.2455  0.5878  0.6487
 3340TIP3   OH231654   4.018   0.046   0.410 -0.5071  0.2309 -0.1052
 3340TIP3    H131655   4.005   0.033   0.503 -0.5114  0.7976 -0.0242
 3340TIP3    H231656   4.109   0.021   0.394 -0.5253  0.0769  0.0392
 3341TIP3   OH231657   5.451   4.725   3.304 -0.4855 -0.4127  0.3720
 3341TIP3    H131658   5.383   4.674   3.348 -1.0003 -0.3785 -0.3684
 3341TIP3    H231659   5.504   4.660   3.258  1.1928 -0.6589  2.4670
 3342TIP3   OH231660   1.411   5.099   2.274 -0.7236  0.8536 -0.1461
 3342TIP3    H131661   1.443   5.016   2.309 -1.7555 -0.6474 -2.5088
 3342TIP3    H231662   1.440   5.164   2.337  1.8016 -1.0561  0.8472
 3343TIP3   OH231663   5.246   5.583   1.497  0.1413  0.0972  0.1116
 3343TIP3    H131664   5.262   5.547   1.409 -0.2852  2.7559 -1.1559
 3343TIP3    H231665   5.321   5.639   1.514  0.3352 -0.5666  1.6070
 3344TIP3   OH231666   5.087   5.716   1.772 -0.2174  0.0143  0.1346
 3344TIP3    H131667   5.086   5.659   1.695 -3.0979  1.5225 -1.1008
 3344TIP3    H231668   5.169   5.765   1.764  1.6923 -2.8502  0.5346
 3345TIP3   OH231669   6.251   5.295   2.776 -0.4010 -0.3107  0.0362
 3345TIP3    H131670   6.184   5.309   2.842 -0.0169  0.8853  0.2089
 3345TIP3    H231671   6.204   5.295   2.693 -0.7402 -0.6262  0.2260
 3346TIP3   OH231672   2.496   3.191   0.615 -0.1118 -0.2247  0.0004
 3346TIP3    H131673   2.422   3.251   0.606 -0.2385 -0.1035  1.5398
 3346TIP3    H231674   2.457   3.106   0.631  0.0760 -0.6508 -1.6898
 3347TIP3   OH231675   4.093   3.425   7.760  0.1840  0.4008 -0.0357
 3347TIP3    H131676   4.185   3.422   7.735  0.0346 -0.7955 -0.4927
 3347TIP3    H231677   4.052   3.480   7.694  0.2528 -0.6222 -0.9587
 3348TIP3   OH231678   1.843   1.167   3.590 -0.1685 -0.3563 -0.1730
 3348TIP3    H131679   1.819   1.110   3.663 -1.1402 -0.9538 -0.9121
 3348TIP3    H231680   1.877   1.246   3.630 -0.3603 -0.8108  0.9130
 3349TIP3   OH231681   4.810   6.130   1.659 -0.0038 -0.2320  0.5019
 3349TIP3    H131682   4.832   6.083   1.739 -0.5507 -1.4230 -0.0263
 3349TIP3    H231683   4.875   6.101   1.595 -0.6693 -0.6889  0.0260
 3350TIP3   OH231684   5.666   4.959   1.002 -0.0878  0.1262 -0.0554
 3350TIP3    H131685   5.733   5.026   1.010 -0.3034  0.6120 -1.8455
 3350TIP3    H231686   5.684   4.898   1.074  1.0743  1.2508  0.6494
 3351TIP3   OH231687   4.751   0.435   8.219  0.2957 -0.4195 -0.2187
 3351TIP3    H131688   4.798   0.378   8.158  1.6097  0.1239  0.2597
 3351TIP3    H231689   4.783   0.523   8.199 -2.3556  0.3595 -1.5681
 3352TIP3   OH231690   5.107   6.080   3.370  0.1717 -0.2945  0.1568
 3352TIP3    H131691   5.139   6.099   3.282 -3.3380 -1.2334 -1.4827
 3352TIP3    H231692   5.148   5.996   3.392 -1.0233 -1.4822 -1.8537
 3353TIP3   OH231693   4.737   4.684   2.433  0.2193  0.1091 -0.0016
 3353TIP3    H131694   4.649   4.650   2.449 -0.1787  0.3911 -1.4255
 3353TIP3    H231695   4.739   4.768   2.478 -1.1315  1.2548 -1.8936
 3354TIP3   OH231696   6.812   4.198   0.820  0.2320 -0.2382  0.5813
 3354TIP3    H131697   6.734   4.252   0.838 -0.3640 -0.7740 -0.3295
 3354TIP3    H231698   6.806   4.177   0.727  1.0279 -0.9881  0.6875
 3355TIP3   OH231699   5.121   1.906   1.812 -0.0855  0.1964 -0.0190
 3355TIP3    H131700   5.078   1.872   1.890  0.3534  2.2018  1.1865
 3355TIP3    H231701   5.215   1.890   1.827  0.1049  1.5915  0.4566
 3356TIP3   OH231702   2.082   2.454   7.883 -0.0224 -0.2246  0.2860
 3356TIP3    H131703   2.090   2.433   7.790  1.3790 -0.4405  0.4412
 3356TIP3    H231704   2.069   2.369   7.925  2.1898 -0.4811  0.5541
 3357TIP3   OH231705   3.833   5.213   0.683 -0.4705  0.1877  0.3700
 3357TIP3    H131706   3.852   5.224   0.776 -1.4730  3.3868  0.3173
 3357TIP3    H231707   3.741   5.236   0.674  0.4417  3.9759 -1.7643
 3358TIP3   OH231708   5.654   5.387   8.236 -0.1950 -0.1630  0.0050
 3358TIP3    H131709   5.678   5.324   8.167  0.7680 -0.3425  0.4760
 3358TIP3    H231710   5.565   5.413   8.215  0.2241  0.1114 -1.5569
 3359TIP3   OH231711   3.236   5.674   7.164  0.5919  0.3961  0.5002
 3359TIP3    H131712   3.286   5.594   7.149  1.5877  1.2878 -1.3360
 3359TIP3    H231713   3.268   5.707   7.248  1.0175 -0.5377  0.7135
 3360TIP3   OH231714   2.837   4.301   1.616 -0.1503 -0.5152 -0.1548
 3360TIP3    H131715   2.904   4.234   1.629  0.8683  0.8021  1.9245
 3360TIP3    H231716   2.755   4.258   1.642  0.4614 -1.0508  0.9850
 3361TIP3   OH231717   1.276   1.360   2.008  0.2851  0.2587  0.4579
 3361TIP3    H131718   1.265   1.421   1.935 -0.0200  1.2151  1.2834
 3361TIP3    H231719   1.188   1.325   2.024 -0.1401  1.8361  1.8593
 3362TIP3   OH231720   4.634   4.449   1.823  0.1902 -0.0604 -0.2688
 3362TIP3    H131721   4.728   4.444   1.840  0.3890  0.6341 -1.0838
 3362TIP3    H231722   4.594   4.452   1.910  0.9167 -0.3959  0.0872
 3363TIP3   OH231723   4.998   6.221   7.915  0.1434  0.6072 -0.1041
 3363TIP3    H131724   5.015   6.190   7.826 -0.0293  1.2788 -0.3821
 3363TIP3    H231725   5.084   6.244   7.950  0.0614  1.9217 -0.7127
 3364TIP3   OH231726   5.401   2.570   8.054  0.6014  0.5619  0.0402
 3364TIP3    H131727   5.435   2.644   8.105 -0.3183  0.6364  0.5789
 3364TIP3    H231728   5.314   2.555   8.090 -0.3591  1.0258 -1.9242
 3365TIP3   OH231729   4.163   5.152   1.196 -0.3812 -0.1027 -0.2070
 3365TIP3    H131730   4.085   5.116   1.237  1.6487 -4.6339  0.3012
 3365TIP3    H231731   4.141   5.156   1.103 -2.0758  1.5442  0.2161
 3366TIP3   OH231732   6.364   4.427   7.837 -0.4012  0.0948 -0.5968
 3366TIP3    H131733   6.325   4.496   7.783 -0.8295  1.1544  1.0068
 3366TIP3    H231734   6.459   4.439   7.825 -0.3439  2.5104  1.3681
 3367TIP3   OH231735   1.883   2.956   1.103 -0.2709  0.7392  0.2811
 3367TIP3    H131736   1.937   3.036   1.103 -0.4605  0.9890 -3.0342
 3367TIP3    H231737   1.834   2.960   1.021 -1.2568 -2.1869  0.6185
 3368TIP3   OH231738   5.816   2.703   1.190  0.2316  0.1335  0.7149
 3368TIP3    H131739   5.840   2.641   1.120 -0.4781  0.4453  0.1821
 3368TIP3    H231740   5.847   2.661   1.270  1.9996  0.2315  0.1433
 3369TIP3   OH231741   3.981   2.507   3.447 -0.2938  0.1464  0.3259
 3369TIP3    H131742   3.894   2.477   3.421 -1.0146  1.2661  1.3458
 3369TIP3    H231743   3.969   2.600   3.468  1.0088  0.1585  1.1038
 3370TIP3   OH231744   2.901   5.688   0.378 -0.2385 -0.3932  0.3851
 3370TIP3    H131745   2.993   5.699   0.402 -0.4720 -0.1904  1.2149
 3370TIP3    H231746   2.868   5.777   0.369 -0.2425 -0.4629 -0.4058
 3371TIP3   OH231747   0.685   1.247   1.124 -0.1653 -0.0417 -0.3376
 3371TIP3    H131748   0.597   1.280   1.143  0.3538  1.5669 -0.4930
 3371TIP3    H231749   0.733   1.260   1.205 -0.0429 -0.8052 -0.2896
 3372TIP3   OH231750   5.634   6.492   0.355 -0.6756 -0.3118  0.6207
 3372TIP3    H131751   5.572   6.448   0.413 -1.3064 -1.3239 -0.8016
 3372TIP3    H231752   5.583   6.518   0.279  0.6891 -1.4377 -0.7307
 3373TIP3   OH231753   3.412   4.543   2.943 -0.2190 -0.1878 -0.0074
 3373TIP3    H131754   3.353   4.584   3.007  0.5198  0.2763  0.3833
 3373TIP3    H231755   3.390   4.450   2.947 -2.8330  0.2204 -1.8138
 3374TIP3   OH231756   2.201   4.764   2.239 -0.1321  0.1993 -0.1575
 3374TIP3    H131757   2.283   4.812   2.224 -0.1457  0.2787  0.0126
 3374TIP3    H231758   2.229   4.674   2.254 -0.0814  0.2107 -0.1802
 3375TIP3   OH231759   3.028   6.140   0.660  0.1475 -0.0223  0.0987
 3375TIP3    H131760   3.045   6.164   0.751 -0.1276  1.2514 -0.1720
 3375TIP3    H231761   3.113   6.145   0.618 -0.2499  3.3868 -0.5798
 3376TIP3   OH231762   4.975   6.647   2.606 -0.2234  0.9134 -0.3777
 3376TIP3    H131763   4.987   6.742   2.600 -2.4128  1.2451 -0.3666
 3376TIP3    H231764   4.891   6.637   2.652 -0.4927 -1.0156 -1.2201
 3377TIP3   OH231765   1.358   2.971   0.081 -0.2808  0.0774 -0.0131
 3377TIP3    H131766   1.452   2.953   0.090 -0.4589  0.0221  2.0875
 3377TIP3    H231767   1.338   3.031   0.152 -1.2566  2.7489 -2.3405
 3378TIP3   OH231768   2.862   5.202   1.433 -0.1927 -0.3393 -0.3041
 3378TIP3    H131769   2.942   5.155   1.457 -0.7193 -1.9509 -1.5143
 3378TIP3    H231770   2.810   5.203   1.514  1.6341  2.1310  0.9457
 3379TIP3   OH231771   0.649   4.062   1.126  0.7543  0.4846  0.3316
 3379TIP3    H131772   0.721   4.103   1.173  0.1012 -0.2508  2.0798
 3379TIP3    H231773   0.605   4.134   1.081  0.4027  1.5416  2.2676
 3380TIP3   OH231774   0.513   3.345   0.998  0.1380 -0.3945 -0.5813
 3380TIP3    H131775   0.542   3.255   1.015  0.3857 -0.3522 -0.7720
 3380TIP3    H231776   0.480   3.343   0.908 -1.3327 -0.6580 -0.0672
 3381TIP3   OH231777   3.782   6.641   2.398 -0.1178 -0.2304  0.2976
 3381TIP3    H131778   3.799   6.705   2.467  0.5928 -0.8503  0.7180
 3381TIP3    H231779   3.863   6.590   2.393 -0.1951 -0.2528 -0.9321
 3382TIP3   OH231780   4.499   3.741   0.542 -0.6923 -0.2777 -0.1019
 3382TIP3    H131781   4.489   3.695   0.626  0.3046 -0.7022 -0.2047
 3382TIP3    H231782   4.530   3.828   0.567 -2.1958  0.2469  0.0668
 3383TIP3   OH231783   2.540   1.553   2.408  0.1372  0.8767  0.5391
 3383TIP3    H131784   2.487   1.549   2.487  0.4519 -0.0928  0.7169
 3383TIP3    H231785   2.483   1.518   2.339 -0.4782  2.6175  0.1168
 3384TIP3   OH231786   6.615   0.912   8.612  0.3601  0.1102  0.2217
 3384TIP3    H131787   6.558   0.838   8.631  1.1298 -0.9513 -1.3296
 3384TIP3    H231788   6.703   0.881   8.635  0.6220  0.7465  0.0979
 3385TIP3   OH231789   6.078   0.565   3.002 -0.1202 -0.4108 -0.0463
 3385TIP3    H131790   6.009   0.508   3.037 -0.0323  0.7694  2.2443
 3385TIP3    H231791   6.132   0.586   3.078  2.6455 -1.0303 -1.7062
 3386TIP3   OH231792   1.866   0.966   1.074  0.1203  0.4676  0.0593
 3386TIP3    H131793   1.844   1.051   1.113  0.4325  0.8705 -0.6312
 3386TIP3    H231794   1.781   0.928   1.050  0.0447  1.0696 -0.6349
 3387TIP3   OH231795   6.141   4.322   1.302 -0.3006  0.3316 -0.4472
 3387TIP3    H131796   6.061   4.285   1.264 -1.6627  0.2265  2.2860
 3387TIP3    H231797   6.142   4.289   1.392  2.7401  0.5351 -0.3314
 3388TIP3   OH231798   2.547   6.013   2.259 -0.1578 -0.0441 -0.6947
 3388TIP3    H131799   2.525   5.953   2.188 -1.5116 -0.7449  0.2611
 3388TIP3    H231800   2.561   5.956   2.335 -0.2747  0.7691 -0.0439
 3389TIP3   OH231801   5.586   3.869   2.019 -0.3164 -0.2704 -0.6478
 3389TIP3    H131802   5.507   3.819   1.999 -0.6009  1.1353 -3.5748
 3389TIP3    H231803   5.563   3.920   2.097 -2.2837 -0.0175 -1.3240
 3390TIP3   OH231804   0.974   1.428   8.062  0.2781  0.0106  0.1575
 3390TIP3    H131805   0.968   1.355   8.001  4.0348  0.9037 -1.5711
 3390TIP3    H231806   0.927   1.500   8.019 -0.7317 -0.4899  0.3942
 3391TIP3   OH231807   4.509   2.569   7.736 -0.1600  0.5334 -0.1889
 3391TIP3    H131808   4.421   2.608   7.741  0.2789  1.6752 -1.0497
 3391TIP3    H231809   4.560   2.618   7.800 -0.1221 -0.0806  0.2561
 3392TIP3   OH231810   1.523   3.639   0.431 -0.0842 -0.0169 -0.1671
 3392TIP3    H131811   1.447   3.637   0.373 -0.2785 -0.8416  0.1021
 3392TIP3    H231812   1.491   3.603   0.514 -0.2050  2.4775  0.9778
 3393TIP3   OH231813   5.365   4.660   1.218  0.3378  0.3908  0.3747
 3393TIP3    H131814   5.294   4.724   1.223  0.1179  0.2384 -0.6320
 3393TIP3    H231815   5.409   4.679   1.135  0.4713 -0.5494  0.2190
 3394TIP3   OH231816   1.685   4.156   3.756  0.4710 -0.1281  0.0144
 3394TIP3    H131817   1.686   4.145   3.661 -0.3197 -0.4445  0.0320
 3394TIP3    H231818   1.637   4.238   3.770 -0.4304 -0.6635  0.1689
 3395TIP3   OH231819   4.102   5.144   8.648 -0.8923 -0.8154  0.5431
 3395TIP3    H131820   4.055   5.211   8.599 -0.5219 -1.4706 -0.7376
 3395TIP3    H231821   4.134   5.190   8.726  0.0869  0.7440 -0.7017
 3396TIP3   OH231822   4.688   0.084   2.945 -0.2824 -0.0733  0.4205
 3396TIP3    H131823   4.731   0.018   3.000  1.0581 -0.4086 -0.9786
 3396TIP3    H231824   4.633   0.033   2.886 -0.1911  0.1517  0.1420
 3397TIP3   OH231825   2.204   5.423   1.589 -0.0498  0.1708 -0.1588
 3397TIP3    H131826   2.137   5.452   1.526 -1.4100 -1.2756  0.5675
 3397TIP3    H231827   2.237   5.505   1.627 -0.6707  0.9677 -1.2420
 3398TIP3   OH231828   4.001   4.935   2.855  0.2676 -0.2059 -0.0612
 3398TIP3    H131829   4.052   4.938   2.774  0.7645  0.0231  0.2553
 3398TIP3    H231830   4.029   4.854   2.898  1.2908  0.5331  0.7014
 3399TIP3   OH231831   5.824   6.477   8.655 -0.2624  0.0981 -0.3121
 3399TIP3    H131832   5.909   6.519   8.671 -1.3631  1.7436  1.6140
 3399TIP3    H231833   5.768   6.548   8.624 -1.0650 -0.9014 -1.2302
 3400TIP3   OH231834   5.691   4.403   0.452 -0.2166 -0.9990 -0.4523
 3400TIP3    H131835   5.731   4.401   0.539  0.2302 -1.0242 -0.6532
 3400TIP3    H231836   5.618   4.464   0.460  1.3504  0.9943 -0.6933
 3401TIP3   OH231837   0.985   4.361   2.072 -0.4044 -0.1246 -0.3917
 3401TIP3    H131838   0.892   4.369   2.050 -0.5266  0.1225  0.1952
 3401TIP3    H231839   1.013   4.282   2.027 -1.0713 -0.5940 -0.0117
 3402TIP3   OH231840   4.489   1.970   0.249 -0.2847 -0.9306  0.0537
 3402TIP3    H131841   4.443   2.053   0.265  0.1248 -0.7074  0.1090
 3402TIP3    H231842   4.580   1.990   0.271 -0.4585 -1.9160  1.8295
 3403TIP3   OH231843   0.603   2.029   1.486  0.0554  0.1728 -0.5220
 3403TIP3    H131844   0.586   2.112   1.531  0.0369 -1.1784  2.1344
 3403TIP3    H231845   0.681   2.046   1.433 -0.1458  1.9649 -0.2972
 3404TIP3   OH231846   3.533   0.648   0.185  0.3142  0.1812 -0.2178
 3404TIP3    H131847   3.583   0.730   0.187 -1.1173  1.0723  0.6745
 3404TIP3    H231848   3.494   0.642   0.273  1.9251 -2.4589  0.4279
 3405TIP3   OH231849   6.358   3.237   1.932  0.8151  0.2845 -0.0330
 3405TIP3    H131850   6.383   3.267   2.020  0.6484  0.7210 -0.1294
 3405TIP3    H231851   6.419   3.166   1.913 -1.3972 -2.3185  1.8885
 3406TIP3   OH231852   0.919   4.563   2.780 -0.1397  0.2288  0.4201
 3406TIP3    H131853   0.984   4.533   2.844  0.4187  1.5595  0.5048
 3406TIP3    H231854   0.921   4.658   2.787 -1.1016  0.3365 -0.5829
 3407TIP3   OH231855   4.401   3.969   7.716 -0.0681 -0.9285  0.0276
 3407TIP3    H131856   4.421   3.892   7.663  0.2633 -0.8038 -0.0320
 3407TIP3    H231857   4.315   3.998   7.685 -0.0018 -1.0205 -0.2472
 3408TIP3   OH231858   0.513   2.481   0.136  0.1960 -0.7865  0.0339
 3408TIP3    H131859   0.417   2.478   0.133  0.1322 -0.0281  0.7380
 3408TIP3    H231860   0.537   2.550   0.074  0.3183 -1.3062 -0.4990
 3409TIP3   OH231861   1.104   3.068   0.760 -0.4577 -0.6052 -0.5062
 3409TIP3    H131862   1.183   3.053   0.708 -0.6382 -0.9871 -0.6802
 3409TIP3    H231863   1.126   3.140   0.818 -0.1684 -0.3349 -0.9450
 3410TIP3   OH231864   3.505   2.667   8.484  0.0256  0.4882  0.6823
 3410TIP3    H131865   3.424   2.667   8.433 -0.4753 -1.1002  1.4035
 3410TIP3    H231866   3.476   2.653   8.574  0.9197  2.7438  1.3877
 3411TIP3   OH231867   5.278   0.949   2.946 -0.5656 -0.3607 -0.2991
 3411TIP3    H131868   5.369   0.935   2.920 -0.5340 -1.0431  0.1573
 3411TIP3    H231869   5.251   0.866   2.986 -1.1346  0.1081  0.3063
 3412TIP3   OH231870   0.417   4.515   1.216 -0.0849 -0.5728  0.7638
 3412TIP3    H131871   0.510   4.501   1.234 -0.4721 -3.6489  0.7859
 3412TIP3    H231872   0.372   4.459   1.279 -1.9343 -0.1559 -0.1442
 3413TIP3   OH231873   4.117   1.913   2.727  0.7643  0.6084  0.1480
 3413TIP3    H131874   4.170   1.846   2.771  0.0628  0.5760  0.9693
 3413TIP3    H231875   4.157   1.996   2.755  0.5229  0.5785  0.5952
 3414TIP3   OH231876   0.823   5.598   3.099 -0.0506  0.2775  0.3393
 3414TIP3    H131877   0.861   5.624   3.015  2.0197 -0.5497  0.9620
 3414TIP3    H231878   0.877   5.524   3.128 -2.6468 -1.5241  0.9531
 3415TIP3   OH231879   0.431   1.728   1.635  0.8423 -0.1016 -0.2724
 3415TIP3    H131880   0.421   1.789   1.562 -2.4189 -0.5150 -0.3013
 3415TIP3    H231881   0.358   1.667   1.626  0.4916 -0.3765  3.1380
 3416TIP3   OH231882   0.354   0.238   8.646  0.3589  0.2897  0.2966
 3416TIP3    H131883   0.391   0.322   8.617 -0.1531  0.5321  0.3276
 3416TIP3    H231884   0.393   0.173   8.588 -0.9521  0.8057 -1.2492
 3417TIP3   OH231885   6.569   4.783   0.851 -0.1964  0.0409 -0.2395
 3417TIP3    H131886   6.477   4.806   0.846 -0.4887 -1.1876 -1.0763
 3417TIP3    H231887   6.614   4.852   0.802 -0.3610  1.9485  2.1246
 3418TIP3   OH231888   1.201   0.861   8.436  0.2524 -0.2183 -0.3102
 3418TIP3    H131889   1.174   0.771   8.451 -0.2061 -0.1806 -0.8793
 3418TIP3    H231890   1.139   0.895   8.371  1.3919 -0.0001 -1.3333
 3419TIP3   OH231891   2.679   0.186   0.364 -0.0923  0.2523  0.2164
 3419TIP3    H131892   2.630   0.261   0.399  0.3081  0.1671  0.9645
 3419TIP3    H231893   2.769   0.217   0.356  0.0538 -0.1104  0.4184
 3420TIP3   OH231894   5.564   1.580   1.204  0.2519 -0.1396 -0.3190
 3420TIP3    H131895   5.565   1.587   1.299  0.3363  0.2318 -0.3480
 3420TIP3    H231896   5.592   1.490   1.187  1.6999  0.2337 -0.0376
 3421TIP3   OH231897   0.363   6.402   3.002 -0.0129 -0.0729 -1.0037
 3421TIP3    H131898   0.322   6.343   3.065  1.0338 -2.6564 -2.5817
 3421TIP3    H231899   0.436   6.441   3.050  0.5383 -1.6832 -0.4696
 3422TIP3   OH231900   1.594   1.313   0.081 -0.3748 -0.2712  0.3929
 3422TIP3    H131901   1.664   1.356   0.131 -0.2622  0.7460 -0.5812
 3422TIP3    H231902   1.574   1.234   0.131  1.4437 -0.5774  0.7162
 3423TIP3   OH231903   1.141   6.323   7.464 -0.0163 -0.4457  0.0596
 3423TIP3    H131904   1.052   6.290   7.447  0.3173 -0.7847 -1.1637
 3423TIP3    H231905   1.130   6.417   7.475 -0.5538 -0.5081  0.1043
 3424TIP3   OH231906   6.689   1.358   2.407 -0.1820 -0.2714 -0.6495
 3424TIP3    H131907   6.699   1.434   2.464  4.0578  0.2395 -1.7217
 3424TIP3    H231908   6.724   1.285   2.457 -2.3352 -1.2161 -0.3944
 3425TIP3   OH231909   3.501   0.528   0.733  0.4445 -0.4618 -0.3540
 3425TIP3    H131910   3.408   0.523   0.757  0.2715  0.8128 -0.7123
 3425TIP3    H231911   3.531   0.437   0.737 -0.3449 -0.6964  1.6419
 3426TIP3   OH231912   4.782   3.508   0.740 -0.2043  0.3545  0.1124
 3426TIP3    H131913   4.750   3.458   0.664 -2.4634  0.5640  0.8549
 3426TIP3    H231914   4.835   3.445   0.789  0.6188 -0.0129 -1.2009
 3427TIP3   OH231915   6.408   4.594   1.154 -0.1800 -0.4716 -0.1409
 3427TIP3    H131916   6.323   4.633   1.175  0.1497 -0.0132  0.3671
 3427TIP3    H231917   6.389   4.502   1.137 -0.4938 -0.8891  2.1858
 3428TIP3   OH231918   4.368   0.751   1.173  0.4574 -0.0166  0.1740
 3428TIP3    H131919   4.350   0.660   1.149  0.0526 -0.1862  1.0927
 3428TIP3    H231920   4.360   0.753   1.268  0.5172  0.9718  0.1668
 3429TIP3   OH231921   1.620   5.434   0.550 -0.4296 -0.2004 -0.7291
 3429TIP3    H131922   1.555   5.457   0.484 -1.0055 -2.1528 -0.8936
 3429TIP3    H231923   1.704   5.452   0.508 -0.7513  3.1529 -0.2207
 3430TIP3   OH231924   0.578   0.482   0.898  0.4732  0.1952  0.3425
 3430TIP3    H131925   0.661   0.441   0.924  0.5159 -2.1272 -2.8939
 3430TIP3    H231926   0.599   0.532   0.820 -0.9506  0.7336  0.2723
 3431TIP3   OH231927   2.197   2.117   8.544  0.7794 -0.0870 -0.2456
 3431TIP3    H131928   2.200   2.205   8.582  1.8444 -0.3290  0.2671
 3431TIP3    H231929   2.286   2.102   8.512  0.3687 -0.6299 -1.1568
 3432TIP3   OH231930   4.456   2.159   1.153 -0.1767  0.4671 -0.1566
 3432TIP3    H131931   4.498   2.241   1.127 -0.3651  1.0615  1.3521
 3432TIP3    H231932   4.368   2.164   1.115 -0.1379  0.8818 -0.1928
 3433TIP3   OH231933   0.032   1.776   2.434 -0.1279  0.4176  0.0744
 3433TIP3    H131934  -0.020   1.695   2.429  0.3980  0.1494 -2.0769
 3433TIP3    H231935   0.106   1.754   2.491 -0.6234 -0.2237  0.4832
 3434TIP3   OH231936   4.017   5.654   2.781 -0.6471  0.8625 -0.4556
 3434TIP3    H131937   4.030   5.565   2.814 -0.0805  0.9549 -0.4193
 3434TIP3    H231938   3.941   5.647   2.723 -0.1515  0.1870 -1.0554
 3435TIP3   OH231939   0.928   5.909   0.996  0.2468  0.2288 -0.3655
 3435TIP3    H131940   0.955   5.821   0.967  2.7736  0.1296  1.8507
 3435TIP3    H231941   0.922   5.960   0.915  1.5057 -1.3174 -1.4993
 3436TIP3   OH231942   3.708   1.060   1.121 -0.0568  0.5532 -0.2775
 3436TIP3    H131943   3.720   1.074   1.215 -1.2528 -0.8151  0.1290
 3436TIP3    H231944   3.704   0.965   1.112  0.1214  0.6700 -1.7350
 3437TIP3   OH231945   6.264   0.788   1.890 -0.4514 -0.1495 -0.4988
 3437TIP3    H131946   6.226   0.807   1.976  0.4608 -3.3044  0.7718
 3437TIP3    H231947   6.246   0.865   1.838  0.9486  2.9673  3.1612
 3438TIP3   OH231948   6.454   6.173   0.257  0.4122 -0.0156 -0.4319
 3438TIP3    H131949   6.364   6.175   0.224  0.6923  1.5024 -1.2010
 3438TIP3    H231950   6.453   6.233   0.332  0.5441 -0.8465  0.2460
 3439TIP3   OH231951   6.757   6.134   0.711  0.3412  0.4853  0.6066
 3439TIP3    H131952   6.737   6.118   0.803 -3.4595  0.7792 -0.0360
 3439TIP3    H231953   6.740   6.227   0.698  2.1436  0.7519 -0.1800
 3440TIP3   OH231954   1.440   0.468   0.739 -0.2639 -0.3047  0.1950
 3440TIP3    H131955   1.372   0.452   0.673 -1.3299  1.3955  0.8181
 3440TIP3    H231956   1.391   0.488   0.819  0.9063  1.7526  0.4661
 3441TIP3   OH231957   0.883   3.675   0.545  0.1451  0.1113 -0.2133
 3441TIP3    H131958   0.946   3.619   0.498  0.8555  0.5063  0.2660
 3441TIP3    H231959   0.862   3.626   0.624 -1.3001 -0.7045 -1.0531
 3442TIP3   OH231960   2.906   0.800   0.281  0.4453  0.0135  0.0629
 3442TIP3    H131961   2.924   0.889   0.251 -3.4439  0.6744 -0.8470
 3442TIP3    H231962   2.881   0.811   0.373 -0.3653 -0.0651 -0.1440
 3443TIP3   OH231963   1.035   2.604   0.516 -0.3741  0.1872  0.4300
 3443TIP3    H131964   1.123   2.632   0.543 -0.0803 -1.3621  1.1591
 3443TIP3    H231965   1.050   2.534   0.453 -1.0929  0.6248 -0.2401
 3444TIP3   OH231966   4.555   1.787   8.523 -0.2266  0.2811  0.2839
 3444TIP3    H131967   4.551   1.734   8.603 -0.6072  1.7412  1.2782
 3444TIP3    H231968   4.635   1.838   8.533 -0.9965  1.4969  0.4381
 3445TIP3   OH231969   1.593   1.048   1.067  0.0176 -0.0196 -0.0045
 3445TIP3    H131970   1.575   0.974   1.009 -0.4055 -0.6212  0.8674
 3445TIP3    H231971   1.554   1.123   1.023 -0.1189 -0.4286 -0.5946
 3446TIP3   OH231972   0.700   3.614   2.069  0.2442  0.0416  0.1589
 3446TIP3    H131973   0.684   3.567   1.987  0.7167  1.0223 -0.5202
 3446TIP3    H231974   0.618   3.660   2.086  0.3031  0.2128 -0.0201
 3447TIP3   OH231975   5.639   4.508   1.521  0.1537 -0.2772 -0.4527
 3447TIP3    H131976   5.713   4.463   1.562  1.3725  0.6752 -1.5519
 3447TIP3    H231977   5.608   4.447   1.454 -1.3715 -1.5174  1.2472
 3448TIP3   OH231978   4.731   6.097   8.646 -0.4713 -1.2212 -0.5639
 3448TIP3    H131979   4.709   6.076   8.555  0.2012 -0.3303 -0.9544
 3448TIP3    H231980   4.826   6.081   8.652 -0.3701 -0.5399 -0.2489
 3449TIP3   OH231981   4.508   0.654   1.916 -0.6535 -0.0555 -0.1356
 3449TIP3    H131982   4.575   0.671   1.983 -0.2748 -1.1965 -0.2043
 3449TIP3    H231983   4.425   0.674   1.959 -0.3846 -0.3909  0.5530
 3450TIP3   OH231984   2.459   5.561   0.340 -0.4912  0.2107 -0.4421
 3450TIP3    H131985   2.404   5.619   0.392 -0.5436 -3.4988  4.2845
 3450TIP3    H231986   2.539   5.550   0.392  0.1368 -2.6776 -1.8113
 3451TIP3   OH231987   4.438   4.272   0.684  0.3873 -0.2535  0.4694
 3451TIP3    H131988   4.459   4.220   0.762  0.6242 -2.2648 -0.8659
 3451TIP3    H231989   4.492   4.350   0.693  0.7108 -0.6227  2.1188
 3452TIP3   OH231990   6.646   5.805   1.092 -0.8312  0.2942  0.4552
 3452TIP3    H131991   6.626   5.862   1.018  2.0156  0.1467 -0.5588
 3452TIP3    H231992   6.641   5.863   1.169 -2.2044  0.8335 -0.0099
 3453TIP3   OH231993   5.842   0.867   1.317 -0.2045  0.0620  0.4298
 3453TIP3    H131994   5.781   0.820   1.373 -1.2418 -0.0363 -0.7259
 3453TIP3    H231995   5.858   0.807   1.244  4.6949 -1.8048  2.5825
 3454TIP3   OH231996   4.585   5.483   0.955  0.2910 -0.3196 -0.2341
 3454TIP3    H131997   4.543   5.420   0.897 -0.3518 -2.1194  2.0247
 3454TIP3    H231998   4.531   5.481   1.034  1.4590  1.5660  0.6559
 3455TIP3   OH231999   4.113   5.544   1.379  0.5355 -0.2836  0.2684
 3455TIP3    H132000   4.031   5.499   1.362  0.4305  0.0666 -0.1704
 3455TIP3    H232001   4.087   5.631   1.410  0.7310  0.1262 -0.6827
 3456TIP3   OH232002   6.153   5.761   2.207 -0.1167 -0.2058 -0.0127
 3456TIP3    H132003   6.105   5.839   2.234 -0.2923 -0.0670 -0.7220
 3456TIP3    H232004   6.088   5.706   2.164 -0.0495 -0.8629  0.7122
 3457TIP3   OH232005   6.231   5.600   0.246  0.5052  0.0671  0.2721
 3457TIP3    H132006   6.218   5.541   0.172  0.9409 -1.1009  1.1020
 3457TIP3    H232007   6.323   5.626   0.240  0.8182 -0.8426  0.9708
 3458TIP3   OH232008   0.952   5.031   0.215  0.1327 -0.4500  0.2602
 3458TIP3    H132009   0.914   5.103   0.164 -1.7691 -0.1512  1.9539
 3458TIP3    H232010   1.046   5.042   0.206 -0.1264  1.5258 -0.5351
 3459TIP3   OH232011   0.642   0.475   1.172 -0.1163  0.0959 -0.2585
 3459TIP3    H132012   0.551   0.462   1.145 -0.6138  1.5530  0.6138
 3459TIP3    H232013   0.685   0.515   1.096 -0.1941 -0.6214 -0.6794
 3460TIP3   OH232014   0.291   0.987   8.582 -0.2969  0.6544  0.4358
 3460TIP3    H132015   0.298   0.893   8.564 -1.8101  0.6351 -0.2812
 3460TIP3    H232016   0.252   0.992   8.669 -0.7096  0.5812  0.2626
 3461TIP3   OH232017   3.186   0.650   0.195  0.6227 -0.6181  0.4551
 3461TIP3    H132018   3.231   0.587   0.251  0.1028 -1.0733  0.3732
 3461TIP3    H232019   3.093   0.629   0.206  0.5347 -1.4459 -1.4080
 3462TIP3   OH232020   5.618   0.463   1.332 -0.3263 -0.4107 -0.3242
 3462TIP3    H132021   5.578   0.445   1.417 -0.4388  1.7373  0.1207
 3462TIP3    H232022   5.712   0.472   1.351 -0.5380  1.7760 -0.0639
 3463TIP3   OH232023   3.686   6.619   0.056  0.2428  0.3033 -0.3192
 3463TIP3    H132024   3.743   6.696   0.050  0.4401  0.0923 -1.3967
 3463TIP3    H232025   3.725   6.565   0.124  1.1756  0.2919 -0.8487
 3464TIP3   OH232026   3.291   0.487   0.378 -0.3303  0.2078  0.0678
 3464TIP3    H132027   3.353   0.416   0.364  0.9045  1.5931 -2.1336
 3464TIP3    H232028   3.232   0.455   0.446  0.4174 -2.7244 -0.5411
 3465TIP3   OH232029   4.078   6.267   1.725 -0.3520  0.3495  0.3194
 3465TIP3    H132030   4.075   6.236   1.634  0.0001  0.6570  0.2006
 3465TIP3    H232031   4.171   6.273   1.745 -0.4268  0.4691  0.6369
 3466TIP3   OH232032   5.120   0.632   0.093  0.0746  0.4090  0.3693
 3466TIP3    H132033   5.199   0.650   0.144 -0.8618  1.8613  1.3735
 3466TIP3    H232034   5.049   0.640   0.157 -0.8670 -1.4187 -0.3831
 3467TIP3   OH232035   4.702   1.174   0.674  0.3850  0.0937 -0.5050
 3467TIP3    H132036   4.743   1.261   0.681 -0.8971  0.5551  2.2061
 3467TIP3    H232037   4.637   1.185   0.604  2.1599  0.4012 -2.2310
 3468TIP3   OH232038   2.246   5.947   1.951 -0.1014 -0.2151  0.4211
 3468TIP3    H132039   2.259   5.852   1.959 -0.7289 -0.2459  1.1993
 3468TIP3    H232040   2.168   5.965   2.003 -0.4737  0.6110 -0.3926
 3469TIP3   OH232041   4.255   0.209   7.890 -0.3230 -0.0994  0.0187
 3469TIP3    H132042   4.266   0.277   7.956  0.5826 -0.4316  0.2219
 3469TIP3    H232043   4.225   0.132   7.940  0.2882 -0.3282  0.0387
 3470TIP3   OH232044   6.169   4.199   8.261  0.3805 -0.6857  0.3804
 3470TIP3    H132045   6.166   4.114   8.218  1.2276 -0.7324  0.3920
 3470TIP3    H232046   6.242   4.245   8.219 -0.2594  0.1675  0.1509
 3471TIP3   OH232047   6.181   0.390   7.391 -0.0518 -0.1271  0.7586
 3471TIP3    H132048   6.104   0.379   7.335  0.3850  1.5767 -0.2366
 3471TIP3    H232049   6.198   0.302   7.425 -3.1811 -0.3622  2.0447
 3472TIP3   OH232050   6.179   5.577   1.548 -0.4416  0.4987  0.0224
 3472TIP3    H132051   6.177   5.575   1.452  1.8271 -1.1229 -0.0855
 3472TIP3    H232052   6.130   5.499   1.574 -0.6538  0.6792  0.1632
 3473TIP3   OH232053   4.174   3.377   3.581  0.3356  0.5352 -0.0099
 3473TIP3    H132054   4.098   3.347   3.631 -0.4406 -1.3732 -2.2028
 3473TIP3    H232055   4.208   3.299   3.538  0.8892  2.0520 -2.5521
 3474TIP3   OH232056   2.713   3.157   0.763  0.3953  0.7525 -0.2678
 3474TIP3    H132057   2.644   3.170   0.698  0.6709 -0.8033 -0.9099
 3474TIP3    H232058   2.667   3.152   0.847 -0.1335  1.0156 -0.5401
 3475TIP3   OH232059   0.799   4.914   2.340  0.1626 -0.5481  0.5747
 3475TIP3    H132060   0.779   4.915   2.246 -0.8818 -0.5863  0.7860
 3475TIP3    H232061   0.869   4.849   2.349  1.3123  0.5084 -0.3633
 3476TIP3   OH232062   0.989   3.615   1.296  0.3535 -0.5346  0.4431
 3476TIP3    H132063   0.920   3.596   1.360 -0.5227  2.1199  0.3948
 3476TIP3    H232064   0.964   3.566   1.218 -1.1217 -0.1316  0.6404
 3477TIP3   OH232065   3.052   4.691   8.459 -0.3272  0.0480 -0.0719
 3477TIP3    H132066   3.047   4.597   8.474 -0.8639  0.2665  1.1910
 3477TIP3    H232067   3.142   4.714   8.483 -0.3331 -0.0620  0.0551
 3478TIP3   OH232068   1.209   5.872   0.452 -0.6705 -0.9057  0.0179
 3478TIP3    H132069   1.220   5.858   0.358 -0.9075  2.2468 -0.5878
 3478TIP3    H232070   1.227   5.965   0.465 -2.7900 -0.7305  2.7397
 3479TIP3   OH232071   1.287   2.623   2.798  0.1031  0.3454  0.1930
 3479TIP3    H132072   1.259   2.534   2.779 -3.0033  1.4625 -1.0531
 3479TIP3    H232073   1.309   2.622   2.891  2.0916 -2.0720 -0.1909
 3480TIP3   OH232074   5.051   0.730   2.679 -0.4298 -0.3358  0.2233
 3480TIP3    H132075   5.048   0.680   2.598 -0.3305 -0.9012  0.5672
 3480TIP3    H232076   5.096   0.673   2.742  1.2812  0.8555  0.1548
 3481TIP3   OH232077   6.418   5.610   2.338 -0.8642  0.1530 -0.8645
 3481TIP3    H132078   6.494   5.572   2.295 -1.2883 -0.6048 -0.9596
 3481TIP3    H232079   6.427   5.705   2.323  1.3620  0.3772  1.2621
 3482TIP3   OH232080   0.955   4.422   3.952  0.0722  0.6898  0.3728
 3482TIP3    H132081   0.972   4.410   4.046  0.8759  0.0725  0.1587
 3482TIP3    H232082   0.981   4.339   3.913 -1.2559  0.5593 -0.2826
 3483TIP3   OH232083   2.849   2.341   1.095  0.1335 -0.0957 -0.0331
 3483TIP3    H132084   2.754   2.330   1.091 -0.0384  1.5076 -1.7633
 3483TIP3    H232085   2.884   2.268   1.044 -0.1212 -0.7926  0.7566
 3484TIP3   OH232086   1.914   4.520   0.203  0.2677 -0.0632 -0.0396
 3484TIP3    H132087   1.985   4.550   0.259  0.1143 -0.5686  0.4286
 3484TIP3    H232088   1.946   4.437   0.166  0.0697 -0.1019 -0.1233
 3485TIP3   OH232089   0.152   4.083   3.215 -0.1731 -0.0576 -0.6284
 3485TIP3    H132090   0.109   4.160   3.253 -1.5588 -1.6284  1.1480
 3485TIP3    H232091   0.243   4.110   3.204 -0.5200  1.6869  0.3659
 3486TIP3   OH232092   5.910   3.606   2.450 -0.4232 -0.1365 -0.4244
 3486TIP3    H132093   5.946   3.518   2.462 -0.8142 -0.3251 -0.6143
 3486TIP3    H232094   5.832   3.592   2.396 -1.7170  0.0701  1.3255
 3487TIP3   OH232095   2.019   2.258   2.026 -0.3045  0.3133 -0.0024
 3487TIP3    H132096   2.029   2.221   1.938  0.5140  0.7239 -0.0903
 3487TIP3    H232097   2.082   2.208   2.080 -1.5410 -0.6605  0.5880
 3488TIP3   OH232098   5.750   2.942   8.570 -1.1272 -0.0292 -0.3820
 3488TIP3    H132099   5.807   3.015   8.591  0.0309 -0.6661 -1.2117
 3488TIP3    H232100   5.751   2.887   8.648 -2.0345  0.8338  0.2577
 3489TIP3   OH232101   4.372   2.340   1.441 -0.3257 -0.6136  0.7320
 3489TIP3    H132102   4.403   2.414   1.493 -1.1657  0.1375  0.1884
 3489TIP3    H232103   4.448   2.284   1.431  1.0822  1.4601 -1.0768
 3490TIP3   OH232104   4.987   5.566   0.311 -0.7799  0.3449  0.4637
 3490TIP3    H132105   4.975   5.482   0.354 -1.6400 -0.8845 -1.9800
 3490TIP3    H232106   5.080   5.568   0.287 -1.2238 -1.1324 -1.6577
 3491TIP3   OH232107   1.685   4.242   7.571  0.0325 -0.3616  0.8005
 3491TIP3    H132108   1.744   4.316   7.576  0.3457 -0.2002 -2.7946
 3491TIP3    H232109   1.604   4.278   7.534 -1.1430 -1.2088  2.4105
 3492TIP3   OH232110   3.561   2.284   2.132 -0.5527  0.0418 -0.2235
 3492TIP3    H132111   3.540   2.234   2.212 -1.4847 -1.4396 -1.3371
 3492TIP3    H232112   3.608   2.222   2.077  0.4640  1.1799 -0.6745
 3493TIP3   OH232113   5.207   4.283   1.151 -0.4187  0.0696  0.3584
 3493TIP3    H132114   5.203   4.375   1.178 -1.8343  0.5026 -1.1482
 3493TIP3    H232115   5.232   4.286   1.059 -0.8498 -1.0444  0.1874
 3494TIP3   OH232116   0.906   4.631   7.842  0.6619 -0.4388  0.4662
 3494TIP3    H132117   0.972   4.562   7.830  2.7458  1.2920  1.4331
 3494TIP3    H232118   0.927   4.697   7.777 -0.8872 -0.3645  0.0043
 3495TIP3   OH232119   1.374   4.959   1.740  0.2673 -0.3819 -0.4993
 3495TIP3    H132120   1.392   5.049   1.713  1.3573 -0.6090 -0.5574
 3495TIP3    H232121   1.352   4.966   1.833 -0.2545  0.0134 -0.6494
 3496TIP3   OH232122   2.538   6.567   1.389  0.0918 -0.2788 -0.6129
 3496TIP3    H132123   2.574   6.511   1.458  0.3603  0.3427 -0.2492
 3496TIP3    H232124   2.613   6.613   1.353 -0.4319  2.0627  1.0647
 3497TIP3   OH232125   1.213   0.462   2.261  0.2359 -0.2665  0.4485
 3497TIP3    H132126   1.164   0.386   2.293 -0.3453  0.5233  1.5003
 3497TIP3    H232127   1.158   0.498   2.191 -0.2316  0.0682  0.9855
 3498TIP3   OH232128   4.764   1.343   2.599 -0.6372 -0.4887  0.4165
 3498TIP3    H132129   4.805   1.280   2.540 -0.1698  1.4126 -1.4178
 3498TIP3    H232130   4.670   1.329   2.588 -0.5833  0.2069 -1.3148
 3499TIP3   OH232131   0.672   1.340   3.337 -0.5373 -0.1341 -0.1104
 3499TIP3    H132132   0.748   1.328   3.394 -1.0984  1.1907  0.9462
 3499TIP3    H232133   0.625   1.415   3.374 -1.3308  0.2836 -1.8660
 3500TIP3   OH232134   5.825   5.444   0.002 -0.4764  0.0201  0.7807
 3500TIP3    H132135   5.842   5.525   0.051 -0.8146  0.4864  0.1545
 3500TIP3    H232136   5.911   5.415  -0.027 -0.4562  0.9127 -0.1281
 3501TIP3   OH232137   0.039   2.257   2.922  0.0473 -0.0614 -0.5381
 3501TIP3    H132138   0.086   2.292   2.997  1.7785  1.2651 -2.1431
 3501TIP3    H232139   0.102   2.260   2.850 -1.9198  0.0111 -2.3665
 3502TIP3   OH232140   1.203   5.351   2.415  0.4169  0.0675  0.2560
 3502TIP3    H132141   1.298   5.344   2.428  0.8147  1.0239 -1.7664
 3502TIP3    H232142   1.173   5.260   2.410  1.4529 -0.2612 -0.4020
 3503TIP3   OH232143   0.769   2.203   0.757 -0.5579 -0.2365 -0.3864
 3503TIP3    H132144   0.724   2.259   0.694  0.5837 -1.4468 -2.3921
 3503TIP3    H232145   0.849   2.251   0.779 -1.3028  0.5148  0.7460
 3504TIP3   OH232146   3.636   5.255   1.312  0.9498  0.4561  0.1684
 3504TIP3    H132147   3.642   5.315   1.237 -1.7434 -0.4758 -0.9225
 3504TIP3    H232148   3.568   5.192   1.287  2.3401 -1.9650  2.0441
 3505TIP3   OH232149   2.099   0.900   2.465  1.3339  0.6493 -0.2206
 3505TIP3    H132150   2.119   0.810   2.439  1.3512  0.3721  0.7352
 3505TIP3    H232151   2.011   0.895   2.503  1.2152  1.0920 -0.4287
 3506TIP3   OH232152   2.161   5.601   2.193  0.2194 -0.4081  0.3343
 3506TIP3    H132153   2.068   5.580   2.186  0.0487  0.0850  1.0605
 3506TIP3    H232154   2.199   5.527   2.241 -0.1822  0.3589  1.8945
 3507TIP3   OH232155   6.501   6.335   0.528  0.2999  0.1572 -0.3579
 3507TIP3    H132156   6.526   6.410   0.582 -0.3370 -0.8377  1.3730
 3507TIP3    H232157   6.409   6.350   0.507  0.0752 -0.2869  0.2799
 3508TIP3   OH232158   0.441   0.452   1.778  0.1990  0.4804  0.0619
 3508TIP3    H132159   0.483   0.379   1.732 -2.1446 -0.7105 -0.3758
 3508TIP3    H232160   0.433   0.521   1.712 -1.4992 -0.5505 -0.9104
 3509TIP3   OH232161   1.204   0.570   0.438 -0.8880  0.0955 -0.0101
 3509TIP3    H132162   1.132   0.548   0.379  0.8896 -2.2264 -1.5376
 3509TIP3    H232163   1.222   0.488   0.485  1.3221  0.2843 -0.4088
 3510TIP3   OH232164   5.661   5.626   1.392  0.3979  0.5957 -0.2052
 3510TIP3    H132165   5.707   5.640   1.474  1.3531 -0.2846 -0.5633
 3510TIP3    H232166   5.648   5.531   1.388 -1.4374  0.8089 -0.1419
 3511TIP3   OH232167   6.848   4.063   1.932  0.0753 -0.0252  0.1145
 3511TIP3    H132168   6.780   4.015   1.885  0.2399  0.0583 -0.2130
 3511TIP3    H232169   6.854   4.020   2.018  0.5017 -0.8524 -0.3222
 3512TIP3   OH232170   6.648   6.602   2.725 -0.2809 -0.5435  0.3693
 3512TIP3    H132171   6.569   6.642   2.690  0.6990  0.3371 -0.9253
 3512TIP3    H232172   6.700   6.676   2.757  0.7144 -0.9447 -0.2809
 3513TIP3   OH232173   5.328   3.487   2.053  0.0512  0.1800 -0.1942
 3513TIP3    H132174   5.351   3.547   1.982  3.7187  2.1196  2.2983
 3513TIP3    H232175   5.376   3.407   2.034  1.7805  1.0199  0.4307
 3514TIP3   OH232176   2.517   0.050   2.134 -0.1232  0.2819 -0.4346
 3514TIP3    H132177   2.468   0.016   2.208  0.2637  1.9935  0.6702
 3514TIP3    H232178   2.510  -0.018   2.067 -0.3607 -1.3799  1.2013
 3515TIP3   OH232179   4.764   6.436   0.374 -1.0587 -0.6288  0.1760
 3515TIP3    H132180   4.774   6.496   0.300  0.9351 -0.5118  0.4807
 3515TIP3    H232181   4.709   6.483   0.436 -0.9303  0.1794 -0.3119
 3516TIP3   OH232182   3.157   2.245   2.233 -0.1985 -0.3395  0.1531
 3516TIP3    H132183   3.175   2.224   2.141 -0.3345  1.7152 -0.3921
 3516TIP3    H232184   3.220   2.191   2.282  0.8368 -0.4417 -1.2079
 3517TIP3   OH232185   3.012   3.612   2.879  0.0151 -0.3191  0.4443
 3517TIP3    H132186   2.925   3.586   2.847  0.3699  0.8989 -1.7443
 3517TIP3    H232187   2.997   3.692   2.928  0.0949  1.5167 -2.3028
 3518TIP3   OH232188   2.424   1.787   2.086 -0.2614  0.4501  0.1627
 3518TIP3    H132189   2.427   1.783   2.181 -0.0564  1.4900  0.2122
 3518TIP3    H232190   2.331   1.785   2.064 -0.3069  0.1063  0.3653
 3519TIP3   OH232191   2.785   1.625   2.477  0.0270 -1.0373  0.2896
 3519TIP3    H132192   2.785   1.715   2.509  1.7343 -0.1874 -1.8425
 3519TIP3    H232193   2.694   1.607   2.455 -0.2277  0.4245  0.0594
 3520TIP3   OH232194   6.485   5.880   1.867  0.4261  0.1298 -0.1921
 3520TIP3    H132195   6.389   5.880   1.875  0.4084 -2.9827  1.3237
 3520TIP3    H232196   6.510   5.971   1.884 -2.1628  0.6412  1.6481
 3521TIP3   OH232197   5.875   3.456   0.533 -0.1037 -0.1288 -0.0019
 3521TIP3    H132198   5.923   3.433   0.613  1.6706 -0.3557 -1.0821
 3521TIP3    H232199   5.794   3.405   0.538 -0.0473 -0.1041  1.6637
 3522TIP3   OH232200   3.421   3.894   1.798  0.2979  0.6846  0.3829
 3522TIP3    H132201   3.379   3.971   1.837  2.0183  1.1416  1.3962
 3522TIP3    H232202   3.461   3.848   1.871  2.3820  0.7922 -0.6210
 3523TIP3   OH232203   6.488   1.678   0.117 -0.1711  0.3429  0.1411
 3523TIP3    H132204   6.446   1.679   0.203 -2.1228 -1.2262 -0.7156
 3523TIP3    H232205   6.547   1.602   0.120  1.1714  1.3490  0.6411
 3524TIP3   OH232206   4.255   2.137   2.734  0.2879 -0.2409  0.9919
 3524TIP3    H132207   4.335   2.088   2.755 -0.6039 -1.9878  0.5429
 3524TIP3    H232208   4.251   2.205   2.800  2.1598 -0.0835  1.0113
 3525TIP3   OH232209   5.647   2.078   1.100 -0.1471 -0.0208  0.2079
 3525TIP3    H132210   5.723   2.127   1.070  0.6721 -0.6991  1.1352
 3525TIP3    H232211   5.632   2.012   1.033  0.4339 -0.2478  0.3015
 3526TIP3   OH232212   2.837   4.815   8.594 -0.0677  0.2289 -0.2718
 3526TIP3    H132213   2.871   4.828   8.683  0.3053  1.0011 -0.5164
 3526TIP3    H232214   2.908   4.771   8.548 -0.3995 -0.5028 -0.0987
 3527TIP3   OH232215   1.272   5.498   1.504 -0.0096 -0.2601 -0.0560
 3527TIP3    H132216   1.349   5.552   1.483  0.9348 -0.5130  2.3734
 3527TIP3    H232217   1.199   5.560   1.503  0.6519  0.5492  0.1933
 3528TIP3   OH232218   0.117   3.996   8.458 -0.0221  0.0006 -0.0193
 3528TIP3    H132219   0.183   3.980   8.391 -1.0339  0.5527 -1.1929
 3528TIP3    H232220   0.035   4.005   8.409 -0.5345  2.0757  1.1131
 3529TIP3   OH232221   4.305   1.562   1.000 -0.0091 -0.4767  0.1600
 3529TIP3    H132222   4.272   1.624   0.934  1.0301 -2.8928 -2.8973
 3529TIP3    H232223   4.230   1.509   1.023  0.2478 -1.8683 -1.9120
 3530TIP3   OH232224   6.696   0.258   0.325 -0.7667 -0.0324 -0.5995
 3530TIP3    H132225   6.745   0.233   0.403 -0.0829 -1.3396 -1.4048
 3530TIP3    H232226   6.763   0.264   0.256 -1.5977 -0.9134 -1.5139
 3531TIP3   OH232227   5.660   0.594   7.393 -0.2755  0.1570  0.2247
 3531TIP3    H132228   5.612   0.658   7.445 -0.0522  0.6647 -0.1738
 3531TIP3    H232229   5.612   0.590   7.310  0.1533  0.3910 -0.0380
 3532TIP3   OH232230   4.386   0.236   0.434  0.4589  0.2893 -0.5849
 3532TIP3    H132231   4.417   0.303   0.374 -1.6602  2.0586  0.1465
 3532TIP3    H232232   4.298   0.265   0.460  0.3400 -1.6114  1.5274
 3533TIP3   OH232233   4.706   4.384   0.042 -0.3846  0.1392  0.3559
 3533TIP3    H132234   4.681   4.296   0.071  0.7420 -0.4422 -0.3217
 3533TIP3    H232235   4.798   4.375   0.017 -0.1938  1.5709  0.4554
 3534TIP3   OH232236   6.862   5.200   0.857  0.0232  0.1084 -0.1087
 3534TIP3    H132237   6.848   5.294   0.856  1.6635  0.3931  1.1106
 3534TIP3    H232238   6.913   5.183   0.936 -2.6135 -2.1868  1.2933
 3535TIP3   OH232239   5.637   5.253   0.586  0.4636 -0.3456  0.5068
 3535TIP3    H132240   5.602   5.304   0.513 -1.6260 -1.6225  0.5125
 3535TIP3    H232241   5.602   5.296   0.664  0.4772 -0.5206  0.6109
 3536TIP3   OH232242   6.056   5.308   2.963 -0.4103 -0.3672  0.0805
 3536TIP3    H132243   6.031   5.216   2.969  2.2060 -1.0799  1.6033
 3536TIP3    H232244   6.043   5.342   3.051  1.6129 -0.1823  0.3457
 3537TIP3   OH232245   5.333   6.188   2.869 -0.1637 -0.0251 -0.0561
 3537TIP3    H132246   5.246   6.183   2.907 -0.8941  2.4120 -1.2255
 3537TIP3    H232247   5.323   6.243   2.792  2.6478  1.5796  0.5840
 3538TIP3   OH232248   6.481   6.855   0.662  0.0305  0.2318  0.9999
 3538TIP3    H132249   6.396   6.848   0.706  0.9443  0.7867  2.9326
 3538TIP3    H232250   6.472   6.930   0.603 -0.6594  0.6206  1.5867
 3539TIP3   OH232251   4.190   3.147   7.749  0.7489  0.1401 -0.0908
 3539TIP3    H132252   4.267   3.135   7.694  0.9693  0.7132  0.0772
 3539TIP3    H232253   4.215   3.217   7.810 -0.4403  1.4762 -1.0679
 3540TIP3   OH232254   3.878   5.219   0.980 -0.4654  0.5290 -0.3195
 3540TIP3    H132255   3.961   5.176   0.960 -1.6358 -1.6915 -0.6965
 3540TIP3    H232256   3.859   5.194   1.071 -1.5234 -0.4555 -0.7837
 3541TIP3   OH232257   4.207   3.199   3.374  0.3566 -0.0157  0.0175
 3541TIP3    H132258   4.166   3.113   3.372  0.1423  0.0278  1.3413
 3541TIP3    H232259   4.285   3.191   3.320 -0.5882 -0.5331 -1.2960
 3542TIP3   OH232260   1.785   3.362   8.594 -0.3192  0.2769 -0.0781
 3542TIP3    H132261   1.716   3.301   8.568  0.4785 -0.0235 -1.6420
 3542TIP3    H232262   1.811   3.405   8.512 -1.1876  3.1272  1.0357
 3543TIP3   OH232263   1.894   6.389   3.494 -0.6070 -0.0800 -0.0715
 3543TIP3    H132264   1.883   6.297   3.468 -0.7393  0.3140 -1.4901
 3543TIP3    H232265   1.811   6.430   3.472  0.7819  1.2645 -3.5598
 3544TIP3   OH232266   5.959   6.597   7.255 -0.3502  0.9368  0.0664
 3544TIP3    H132267   6.026   6.554   7.201 -0.9117 -0.8411  0.6983
 3544TIP3    H232268   5.876   6.574   7.212 -0.7134  0.6296  0.9101
 3545TIP3   OH232269   5.784   3.482   8.515  0.0575  0.0398 -0.0319
 3545TIP3    H132270   5.869   3.450   8.485 -0.7661 -0.4463 -2.0460
 3545TIP3    H232271   5.764   3.555   8.457 -2.2935 -1.8694 -1.8664
 3546TIP3   OH232272   3.663   0.604   2.152 -0.3353 -0.1170 -0.4591
 3546TIP3    H132273   3.686   0.610   2.059  1.3010 -2.2161 -0.2478
 3546TIP3    H232274   3.570   0.582   2.152 -0.5790  0.8227 -1.5494
 3547TIP3   OH232275   2.999   1.486   1.585  0.0256 -0.4809 -0.8762
 3547TIP3    H132276   2.963   1.532   1.508  0.3467 -1.7561 -1.8214
 3547TIP3    H232277   2.930   1.425   1.610 -0.5952  0.7959  0.6822
 3548TIP3   OH232278   1.975   4.700   3.627  0.4498  0.0084  0.1184
 3548TIP3    H132279   1.939   4.784   3.598  0.7409  0.3305  0.6633
 3548TIP3    H232280   2.024   4.722   3.706  2.4791 -0.2694 -0.9883
 3549TIP3   OH232281   6.524   6.503   1.213 -0.2402  0.5533 -0.7892
 3549TIP3    H132282   6.430   6.513   1.196 -0.4995 -1.8990 -1.2132
 3549TIP3    H232283   6.529   6.475   1.305 -0.0086 -0.2176 -1.0321
 3550TIP3   OH232284   3.039   0.500   7.551  0.7989 -0.5516  0.0183
 3550TIP3    H132285   2.974   0.566   7.524  0.6927 -0.1034  1.3023
 3550TIP3    H232286   3.093   0.545   7.616  1.8962 -1.1841 -0.4303
 3551TIP3   OH232287   6.099   2.341   2.253 -0.2441  0.0639  0.0210
 3551TIP3    H132288   6.096   2.315   2.161 -1.7179  1.3386 -0.3393
 3551TIP3    H232289   6.188   2.373   2.267  0.8099 -2.5126 -0.2084
 3552TIP3   OH232290   1.334   3.532   3.804 -0.7990 -0.3712  0.1800
 3552TIP3    H132291   1.368   3.620   3.785 -2.0628  0.6861  2.4394
 3552TIP3    H232292   1.410   3.483   3.833 -0.3519  0.5255  0.5768
 3553TIP3   OH232293   4.093   2.345   0.261  0.3403 -0.1118  0.1703
 3553TIP3    H132294   4.060   2.262   0.297  1.3971 -1.9342 -2.7182
 3553TIP3    H232295   4.074   2.339   0.167  1.6096  2.3906 -0.3223
 3554TIP3   OH232296   2.214   3.137   8.021 -0.0119  0.1860  0.0412
 3554TIP3    H132297   2.284   3.087   8.062  0.2740  1.0173  0.5937
 3554TIP3    H232298   2.214   3.108   7.930  1.7808  0.9392 -0.2410
 3555TIP3   OH232299   5.378   2.803   1.391 -0.0161 -0.0588  0.1669
 3555TIP3    H132300   5.423   2.823   1.309  0.5055  0.6372  0.6145
 3555TIP3    H232301   5.400   2.711   1.408  1.8825  0.4356  0.7328
 3556TIP3   OH232302   3.339   0.232   2.524 -0.4162  0.0642 -0.1322
 3556TIP3    H132303   3.365   0.245   2.433  1.1483 -0.4222  0.2102
 3556TIP3    H232304   3.357   0.315   2.567 -1.3778  0.3709 -0.2896
 3557TIP3   OH232305   3.672   2.954   0.218  0.1625  0.1854  0.1073
 3557TIP3    H132306   3.750   2.972   0.165 -0.2229  0.4500 -0.3809
 3557TIP3    H232307   3.687   2.866   0.253  1.5105  0.9357  1.5150
 3558TIP3   OH232308   1.138   6.045   7.835 -0.0152  0.0365 -0.2888
 3558TIP3    H132309   1.070   6.101   7.798 -1.4663 -2.1390 -1.1516
 3558TIP3    H232310   1.089   5.978   7.884  1.7080  1.2280  3.4798
 3559TIP3   OH232311   6.190   3.307   8.596  0.1379  0.1777 -0.4177
 3559TIP3    H132312   6.120   3.354   8.640 -0.3834 -0.4530 -0.5594
 3559TIP3    H232313   6.243   3.375   8.554  0.3931  0.7533  0.8072
 3560TIP3   OH232314   0.674   4.580   1.242  0.0954  0.1920  0.0150
 3560TIP3    H132315   0.765   4.590   1.216 -0.0077  0.8243 -0.1335
 3560TIP3    H232316   0.655   4.659   1.293 -0.3905  0.1091 -0.0313
 3561TIP3   OH232317   0.704   0.891   7.914  0.1906  0.3000  0.0423
 3561TIP3    H132318   0.690   0.947   7.837 -0.9944  0.6419  0.4823
 3561TIP3    H232319   0.796   0.866   7.909  0.8094  2.3954 -0.1067
 3562TIP3   OH232320   5.887   0.897   0.892  0.2617  0.7617 -0.6791
 3562TIP3    H132321   5.850   0.909   0.805  0.7065  0.7690 -0.8676
 3562TIP3    H232322   5.829   0.946   0.950 -0.4056  0.2304 -0.8810
 3563TIP3   OH232323   4.818   5.219   8.482 -0.1426  0.5885  0.3396
 3563TIP3    H132324   4.726   5.245   8.482  0.1172  1.6058 -1.0503
 3563TIP3    H232325   4.817   5.127   8.458 -0.8033  0.4938  0.6859
 3564TIP3   OH232326   6.378   4.985   2.671  0.3057  0.1236 -0.4932
 3564TIP3    H132327   6.304   4.925   2.666  0.8163 -0.4636 -1.1771
 3564TIP3    H232328   6.339   5.069   2.695 -0.5575 -0.2146 -0.6696
 3565TIP3   OH232329   5.230   3.118   1.647  0.1402  0.1163  0.4913
 3565TIP3    H132330   5.289   3.189   1.623  1.4248 -1.0344  0.0907
 3565TIP3    H232331   5.269   3.079   1.725  0.0968 -0.8337  0.0652
 3566TIP3   OH232332   6.766   6.254   0.005  0.3366  0.2765 -0.4635
 3566TIP3    H132333   6.839   6.311   0.030  0.0275  0.7374 -0.6138
 3566TIP3    H232334   6.700   6.313  -0.030 -0.4499 -0.0457  0.4336
 3567TIP3   OH232335   6.073   6.458   8.429  0.4790  0.0313  0.4429
 3567TIP3    H132336   6.044   6.443   8.519 -1.3354 -1.5751 -0.3271
 3567TIP3    H232337   6.096   6.370   8.397  0.8749  0.5499 -0.7407
 3568TIP3   OH232338   0.600   4.746   8.271  0.3199 -0.0773 -0.3869
 3568TIP3    H132339   0.523   4.783   8.227  0.5296  0.5638 -0.2237
 3568TIP3    H232340   0.564   4.680   8.331 -0.0212 -0.4745 -1.0208
 3569TIP3   OH232341   2.835   6.195   7.770  0.2036  0.1828 -0.6900
 3569TIP3    H132342   2.916   6.239   7.746  0.9201 -1.1043 -0.7545
 3569TIP3    H232343   2.767   6.237   7.716  1.0226  0.4839 -1.5124
 3570TIP3   OH232344   1.106   5.070   2.462  0.0490  0.7586 -0.0701
 3570TIP3    H132345   1.029   5.056   2.518  0.3296 -0.7207 -0.0209
 3570TIP3    H232346   1.145   4.983   2.452  2.2321  1.5943  0.6191
 3571TIP3   OH232347   1.226   2.583   8.557 -0.0747 -0.0767 -0.0479
 3571TIP3    H132348   1.161   2.555   8.621  0.4394  1.1967  1.0814
 3571TIP3    H232349   1.196   2.669   8.528 -0.0515 -0.4406 -1.1992
 3572TIP3   OH232350   0.103   4.878   0.447 -0.8315  0.3551 -0.8438
 3572TIP3    H132351   0.114   4.854   0.355 -2.1072 -1.5630 -0.5443
 3572TIP3    H232352   0.008   4.883   0.460 -0.6817  0.2589  0.4519
 3573TIP3   OH232353   2.745   0.521   0.647  0.0877  0.3275  0.5028
 3573TIP3    H132354   2.712   0.445   0.598  3.3341  0.1078 -1.5953
 3573TIP3    H232355   2.710   0.597   0.600 -0.1862  0.1351  0.3931
 3574TIP3   OH232356   0.374   3.826   0.365 -0.4812  0.0405  0.3424
 3574TIP3    H132357   0.450   3.770   0.376 -0.7551 -0.2700  0.6958
 3574TIP3    H232358   0.408   3.915   0.370  0.0351 -0.0859 -0.7620
 3575TIP3   OH232359   1.721   4.084   7.818  0.1878 -0.2913  0.5310
 3575TIP3    H132360   1.749   3.992   7.822 -0.2156 -0.4641 -0.4040
 3575TIP3    H232361   1.724   4.106   7.725  1.3512  0.9954  0.8387
 3576TIP3   OH232362   5.086   2.699   0.416 -0.4043 -0.1370 -0.4018
 3576TIP3    H132363   5.019   2.767   0.420 -0.5710 -0.2910 -0.5563
 3576TIP3    H232364   5.165   2.741   0.449 -0.9381 -0.4010  1.3009
 3577TIP3   OH232365   1.118   3.924   2.099 -0.0898  0.5213 -0.6801
 3577TIP3    H132366   1.051   3.857   2.112  0.4520  0.3746  1.8694
 3577TIP3    H232367   1.069   4.001   2.068 -1.3406  0.1531  0.2782
 3578TIP3   OH232368   6.110   0.671   2.272  0.3888  0.3569  0.4050
 3578TIP3    H132369   6.134   0.662   2.180 -0.3385  1.1359  0.1144
 3578TIP3    H232370   6.034   0.614   2.283  0.6959 -0.0098  0.6111
 3579TIP3   OH232371   6.664   1.143   2.099 -0.4550  0.3377 -0.3782
 3579TIP3    H132372   6.707   1.224   2.126 -2.7017  1.3894  0.2612
 3579TIP3    H232373   6.724   1.104   2.034  1.0329  2.0856 -0.1271
 3580TIP3   OH232374   0.160   2.807   0.703 -0.4088 -0.3477  0.4112
 3580TIP3    H132375   0.068   2.789   0.725 -0.3837  0.7263  1.5181
 3580TIP3    H232376   0.192   2.860   0.776  0.5325  0.9858 -0.8983
 3581TIP3   OH232377   6.537   0.655   1.897 -0.1356 -0.5436 -0.2939
 3581TIP3    H132378   6.486   0.574   1.892 -1.1259  0.0428 -0.0520
 3581TIP3    H232379   6.475   0.724   1.874  0.8517  0.1025 -1.1141
 3582TIP3   OH232380   6.226   1.520   2.376  0.3521  0.6338 -0.2156
 3582TIP3    H132381   6.196   1.501   2.288 -1.0245  2.0062 -0.0830
 3582TIP3    H232382   6.192   1.608   2.395  1.1660  0.6354  1.4362
 3583TIP3   OH232383   4.018   2.879   8.552  0.1756  0.4787  0.1554
 3583TIP3    H132384   4.101   2.861   8.597  0.3726 -2.8019 -1.2393
 3583TIP3    H232385   4.043   2.891   8.460 -0.7943  0.5856 -0.1075
 3584TIP3   OH232386   5.555   5.984   1.971  0.3146  0.0480 -0.1416
 3584TIP3    H132387   5.598   5.961   1.890  0.9262  1.7863 -0.3538
 3584TIP3    H232388   5.604   5.938   2.039  1.2673  0.4325 -0.5574
 3585TIP3   OH232389   5.546   1.552   2.170  0.0655 -0.1363 -0.0357
 3585TIP3    H132390   5.474   1.614   2.178 -0.0838 -0.3753  0.5567
 3585TIP3    H232391   5.620   1.605   2.141 -1.0341 -0.3788 -3.8407
 3586TIP3   OH232392   3.185   1.095   1.362  0.1904 -0.0465 -0.0354
 3586TIP3    H132393   3.166   1.034   1.290 -0.2184  1.0649 -0.9032
 3586TIP3    H232394   3.103   1.101   1.411  0.7997 -1.7167  1.2790
 3587TIP3   OH232395   3.728   2.067   2.606 -0.6437  0.4371  0.3210
 3587TIP3    H132396   3.637   2.051   2.632 -2.0048  1.5822 -3.0899
 3587TIP3    H232397   3.753   1.988   2.558  0.0827  0.2541  0.9818
 3588TIP3   OH232398   1.718   3.821   2.049 -0.2768  0.3643 -0.1247
 3588TIP3    H132399   1.683   3.775   2.126  0.8404 -0.9314 -0.3452
 3588TIP3    H232400   1.703   3.760   1.977  1.2186  0.3472 -0.4365
 3589TIP3   OH232401   4.263   1.180   2.247 -0.0154  0.4658  0.1564
 3589TIP3    H132402   4.202   1.228   2.304  0.1620 -0.3300  1.0386
 3589TIP3    H232403   4.346   1.226   2.256  0.5033 -0.7295  2.0532
 3590TIP3   OH232404   5.784   0.131   1.434 -0.1252 -0.5266 -0.4000
 3590TIP3    H132405   5.833   0.198   1.481  0.8486 -1.1443 -0.5219
 3590TIP3    H232406   5.740   0.081   1.503 -1.0152  0.3411 -0.3195
 3591TIP3   OH232407   5.074   5.804   1.468  0.0523  0.4284 -0.4028
 3591TIP3    H132408   4.985   5.767   1.467  0.1342  0.2284 -0.4502
 3591TIP3    H232409   5.131   5.727   1.476  0.1481  0.6957  2.4032
 3592TIP3   OH232410   5.769   6.340   3.003  0.1008  0.2418 -0.0803
 3592TIP3    H132411   5.700   6.276   3.023 -0.5892  0.8138 -0.5975
 3592TIP3    H232412   5.736   6.423   3.036 -0.8442  1.1331 -2.9454
 3593TIP3   OH232413   2.098   0.127   0.844 -0.7757 -0.4805 -0.1884
 3593TIP3    H132414   2.052   0.078   0.913 -0.5625 -0.3538  0.0469
 3593TIP3    H232415   2.104   0.065   0.771 -0.8210 -0.6886 -0.0188
 3594TIP3   OH232416   6.799   1.575   0.949  1.0676 -0.6171  0.1334
 3594TIP3    H132417   6.769   1.648   0.893  0.9576 -0.5534  0.2755
 3594TIP3    H232418   6.895   1.581   0.946  1.0769  0.9083  1.9261
 3595TIP3   OH232419   4.891   0.468   2.615  0.4627  0.0842 -0.2679
 3595TIP3    H132420   4.923   0.422   2.537  0.2470 -0.9622  0.2418
 3595TIP3    H232421   4.840   0.402   2.662  0.4020  0.7676  0.6449
 3596TIP3   OH232422   6.803   6.641   8.583 -0.1698  0.1242  0.7204
 3596TIP3    H132423   6.834   6.708   8.644  2.0380 -1.7533  1.7935
 3596TIP3    H232424   6.822   6.677   8.497  0.0714  1.2823  1.2317
 3597TIP3   OH232425   3.923   0.662   0.477 -0.2396  0.0607  0.0683
 3597TIP3    H132426   3.943   0.722   0.405  0.8496 -0.5984 -0.1990
 3597TIP3    H232427   3.984   0.686   0.546 -1.0356  0.4480  0.6466
 3598TIP3   OH232428   4.540   3.469   2.165 -0.2734  0.6398  0.2832
 3598TIP3    H132429   4.462   3.443   2.214 -0.3769  0.0600 -0.1880
 3598TIP3    H232430   4.506   3.508   2.084 -0.0892  1.1623  0.4501
 3599TIP3   OH232431   2.591   3.484   3.002  0.1973  0.1894  0.2088
 3599TIP3    H132432   2.538   3.436   2.939  0.4961  1.0754 -0.7605
 3599TIP3    H232433   2.608   3.422   3.073 -1.6665 -0.2817  0.2979
 3600TIP3   OH232434   4.829   6.832   7.199  0.8661 -0.0187 -0.5288
 3600TIP3    H132435   4.879   6.913   7.189  1.3146 -0.0516  1.1393
 3600TIP3    H232436   4.857   6.796   7.283 -0.6153 -0.9941 -0.4022
 3601TIP3   OH232437   5.648   0.295   7.948 -0.1158 -0.3248 -0.1145
 3601TIP3    H132438   5.627   0.367   7.888 -1.0372 -0.1566  0.4060
 3601TIP3    H232439   5.621   0.216   7.901  0.1279 -0.2757 -0.3425
 3602TIP3   OH232440   1.775   4.807   1.027 -0.0679  0.1006 -0.4967
 3602TIP3    H132441   1.720   4.847   1.094 -0.8015 -2.8448  0.8365
 3602TIP3    H232442   1.715   4.793   0.953 -0.6605 -1.3008  0.2142
 3603TIP3   OH232443   2.909   3.551   7.995  0.4744 -0.3224  0.5041
 3603TIP3    H132444   2.842   3.615   8.016 -0.8784 -1.0665 -1.2918
 3603TIP3    H232445   2.962   3.544   8.075 -2.3584 -0.6596  2.5062
 3604TIP3   OH232446   6.039   6.726   1.053  0.1726  0.6789 -0.2259
 3604TIP3    H132447   5.993   6.760   1.130  1.3996  2.4170 -0.1874
 3604TIP3    H232448   5.969   6.696   0.994 -1.0250  2.7571  0.0368
 3605TIP3   OH232449   3.491   4.515   7.925  0.3682 -0.0785 -0.4507
 3605TIP3    H132450   3.583   4.539   7.932  0.2581  0.9963 -2.0454
 3605TIP3    H232451   3.491   4.426   7.891  0.8120 -0.1234 -0.3358
 3606TIP3   OH232452   2.868   5.595   2.275  0.0260 -0.2061  0.6975
 3606TIP3    H132453   2.854   5.640   2.191  1.9017 -2.4004 -0.9237
 3606TIP3    H232454   2.942   5.641   2.314  0.2313 -0.2183  0.3300
 3607TIP3   OH232455   3.963   2.747   8.055  0.3126  0.0085 -0.4347
 3607TIP3    H132456   3.944   2.683   7.987  0.8648 -0.5416 -0.0907
 3607TIP3    H232457   3.881   2.757   8.104  0.4293 -1.0423 -0.0042
 3608TIP3   OH232458   3.407   5.415   2.120  0.0065 -0.0033  0.2854
 3608TIP3    H132459   3.470   5.377   2.181  0.6487  2.5503  1.3723
 3608TIP3    H232460   3.347   5.466   2.176  0.8034  2.6719 -1.1355
 3609TIP3   OH232461   2.785   2.396   0.769  0.2247  0.3940 -0.7314
 3609TIP3    H132462   2.844   2.321   0.775  0.3699  0.5255 -0.5457
 3609TIP3    H232463   2.699   2.359   0.788 -0.2313 -0.3970 -3.7077
 3610TIP3   OH232464   1.221   6.283   0.219 -0.6152 -0.1313  0.1215
 3610TIP3    H132465   1.276   6.338   0.164 -2.0230 -0.1758 -1.3910
 3610TIP3    H232466   1.280   6.250   0.287  0.5929  1.9890  0.1617
 3611TIP3   OH232467   5.617   6.515   2.670 -0.3419 -0.2476  0.3375
 3611TIP3    H132468   5.624   6.601   2.627 -0.0469 -0.3577  0.1630
 3611TIP3    H232469   5.707   6.490   2.688 -0.4929  0.0528  1.5573
 3612TIP3   OH232470   3.565   4.675   8.366  0.5582  0.3079 -0.5762
 3612TIP3    H132471   3.479   4.658   8.403  0.8768  1.2595  0.6857
 3612TIP3    H232472   3.599   4.588   8.343  0.1618 -0.3020  1.0128
 3613TIP3   OH232473   2.229   2.527   1.141  0.3840 -0.4293 -0.1323
 3613TIP3    H132474   2.179   2.607   1.153  0.8489  0.0627 -1.2960
 3613TIP3    H232475   2.314   2.556   1.107  0.8427 -1.3575  0.1792
 3614TIP3   OH232476   6.452   2.627   0.125  0.0319  0.3092 -0.4160
 3614TIP3    H132477   6.546   2.626   0.106 -0.4238  0.2969 -2.9830
 3614TIP3    H232478   6.427   2.535   0.130  0.2142  0.3131  0.6603
 3615TIP3   OH232479   2.236   3.171   2.002 -0.2350  0.2749 -0.2861
 3615TIP3    H132480   2.236   3.253   1.953 -1.0483  0.3238 -0.2119
 3615TIP3    H232481   2.247   3.103   1.935 -0.7642  0.3746 -0.4702
 3616TIP3   OH232482   0.547   1.596   1.870 -0.0726  0.6417 -0.0844
 3616TIP3    H132483   0.611   1.544   1.822 -0.0137 -1.0903  1.7099
 3616TIP3    H232484   0.509   1.655   1.805  1.1096 -0.4727 -1.8578
 3617TIP3   OH232485   6.739   3.478   3.282  0.6776  0.3652  0.1627
 3617TIP3    H132486   6.792   3.416   3.333  0.7383  0.6067  0.3922
 3617TIP3    H232487   6.719   3.431   3.201 -0.4895 -0.5164  0.9283
 3618TIP3   OH232488   3.541   3.228   0.195  0.4581 -0.5302  0.1654
 3618TIP3    H132489   3.502   3.161   0.140 -0.8745  0.7456 -0.5254
 3618TIP3    H232490   3.619   3.256   0.148  0.5910 -1.0626  0.0746
 3619TIP3   OH232491   0.693   1.071   2.093 -0.3340 -0.1698  0.7335
 3619TIP3    H132492   0.690   0.994   2.035  1.3935 -0.1414  0.5574
 3619TIP3    H232493   0.776   1.062   2.140 -1.3452  0.2165  2.6897
 3620TIP3   OH232494   1.903   5.550   8.172  0.4598 -0.3600 -0.1647
 3620TIP3    H132495   1.830   5.573   8.114 -0.0585 -1.0112  0.2092
 3620TIP3    H232496   1.911   5.455   8.164  1.2638 -0.2971 -0.1855
 3621TIP3   OH232497   3.030   3.971   7.852  0.2241  0.5390  0.4641
 3621TIP3    H132498   3.088   3.991   7.779  1.6903 -2.5439  0.6202
 3621TIP3    H232499   2.956   3.925   7.812  0.3421  0.0940  0.7437
 3622TIP3   OH232500   3.357   2.464   1.689 -0.1399  0.1630  0.0327
 3622TIP3    H132501   3.410   2.460   1.609 -0.2528 -0.6646 -0.0042
 3622TIP3    H232502   3.411   2.423   1.756 -0.5322 -0.2301  0.1086
 3623TIP3   OH232503   2.516   6.205   2.636 -0.1252  0.2719 -0.0832
 3623TIP3    H132504   2.606   6.172   2.635 -0.3895 -0.4942 -1.2051
 3623TIP3    H232505   2.502   6.236   2.725  0.0693 -2.9212  1.1702
 3624TIP3   OH232506   3.220   0.711   8.585  0.0725  0.7185  0.6654
 3624TIP3    H132507   3.315   0.717   8.579  0.1097  0.1084  0.6293
 3624TIP3    H232508   3.201   0.732   8.676  0.2858  0.3328  0.8016
 3625TIP3   OH232509   1.108   6.591   2.904 -0.0290 -0.0277 -0.0348
 3625TIP3    H132510   1.094   6.579   2.998  0.3864  1.0158  0.1727
 3625TIP3    H232511   1.091   6.684   2.889  2.5336  0.4304 -0.4999
 3626TIP3   OH232512   3.988   5.893   2.013  0.2635  0.3146  0.0107
 3626TIP3    H132513   3.926   5.966   2.019 -0.9790 -0.7664  0.5731
 3626TIP3    H232514   4.053   5.923   1.949 -0.9205  1.3996 -0.7377
 3627TIP3   OH232515   3.771   6.471   7.885  0.1107 -0.2537 -0.1938
 3627TIP3    H132516   3.835   6.425   7.831  2.4135  0.2432  1.9394
 3627TIP3    H232517   3.743   6.545   7.832 -0.9697 -2.0540 -2.2896
 3628TIP3   OH232518   2.779   5.193   2.447 -0.1693  0.0674  0.1317
 3628TIP3    H132519   2.747   5.106   2.420  0.0775 -0.5552  1.6975
 3628TIP3    H232520   2.769   5.193   2.543 -0.1227  1.7660  0.1668
 3629TIP3   OH232521   0.162   3.452   0.878  0.2684  0.4128 -0.0096
 3629TIP3    H132522   0.145   3.473   0.787 -1.8098  1.0220  0.4748
 3629TIP3    H232523   0.216   3.525   0.910 -0.9698  1.4448 -0.1809
 3630TIP3   OH232524   4.149   0.407   1.336  0.5054 -0.0605 -0.1892
 3630TIP3    H132525   4.128   0.458   1.258 -1.1815 -1.0947 -0.4621
 3630TIP3    H232526   4.067   0.363   1.358  0.4396  1.4362  3.1344
 3631TIP3   OH232527   3.226   4.108   1.298  0.0207 -0.2204  0.2512
 3631TIP3    H132528   3.214   4.158   1.379  0.1198  0.3372 -0.0734
 3631TIP3    H232529   3.166   4.148   1.236  0.3653 -0.2703 -0.1167
 3632TIP3   OH232530   5.999   4.903   1.947  0.1227  0.5596 -0.4846
 3632TIP3    H132531   5.967   4.948   1.868 -0.5935  1.0215  0.0530
 3632TIP3    H232532   5.946   4.939   2.018  1.8059  1.2794  0.4425
 3633TIP3   OH232533   4.196   1.250   7.240  0.4550 -0.4695  0.1735
 3633TIP3    H132534   4.101   1.241   7.247  0.5448 -0.3643  1.9394
 3633TIP3    H232535   4.230   1.162   7.253  0.6078 -0.5331 -0.6084
 3634TIP3   OH232536   5.144   1.934   8.533  0.2968 -0.5235 -0.2438
 3634TIP3    H132537   5.085   1.986   8.479  0.3669  0.2041  0.3706
 3634TIP3    H232538   5.224   1.926   8.481 -0.1183 -1.0090 -0.8254
 3635TIP3   OH232539   3.896   6.490   1.257 -0.0526  0.6284  0.1862
 3635TIP3    H132540   3.971   6.535   1.295 -1.1175  2.0154  0.7096
 3635TIP3    H232541   3.830   6.558   1.243 -1.6589 -0.7127  0.8391
 3636TIP3   OH232542   0.413   5.647   1.612 -0.2373  0.3498  0.6511
 3636TIP3    H132543   0.330   5.688   1.634 -0.8204  0.2891 -1.2451
 3636TIP3    H232544   0.474   5.720   1.601 -0.7004  0.5906 -0.4570
 3637TIP3   OH232545   6.448   2.257   1.718  0.2540  0.7223  0.7651
 3637TIP3    H132546   6.393   2.327   1.683  1.6244  0.5832 -1.8830
 3637TIP3    H232547   6.399   2.224   1.793 -1.5839  2.8762  0.6231
 3638TIP3   OH232548   3.992   3.272   0.222  0.7470 -0.5547  0.0793
 3638TIP3    H132549   4.084   3.299   0.215  0.7949 -0.6971  0.1607
 3638TIP3    H232550   3.952   3.340   0.277  0.3616  0.5934 -1.5606
 3639TIP3   OH232551   2.318   2.115   1.802 -0.1860  0.3361  0.0784
 3639TIP3    H132552   2.246   2.175   1.820  0.7893  1.6563 -0.3443
 3639TIP3    H232553   2.354   2.095   1.889 -0.7140  0.0622  0.2460
 3640TIP3   OH232554   1.328   4.195   8.149  0.4885  0.3218  0.1139
 3640TIP3    H132555   1.337   4.249   8.070  3.4895  0.5873  0.5188
 3640TIP3    H232556   1.290   4.254   8.214  1.7711  1.3645 -0.0404
 3641TIP3   OH232557   1.035   5.771   3.385 -0.0458  0.1170  0.0884
 3641TIP3    H132558   1.099   5.742   3.320 -1.3106  1.3307 -1.8060
 3641TIP3    H232559   1.064   5.859   3.409  0.6761 -0.4956  1.5966
 3642TIP3   OH232560   3.721   2.408   0.975 -0.1041  0.2638 -0.3257
 3642TIP3    H132561   3.815   2.418   0.961  0.1078  0.6056  1.1692
 3642TIP3    H232562   3.713   2.331   1.031 -0.5988  0.9038  0.5203
 3643TIP3   OH232563   4.285   2.400   8.628 -0.1953  0.1149  0.5626
 3643TIP3    H132564   4.196   2.364   8.629 -1.1066  2.1095 -0.8525
 3643TIP3    H232565   4.331   2.349   8.561 -1.5951  1.6656 -1.7483
 3644TIP3   OH232566   0.418   3.966   1.661  0.0084 -0.0571 -0.2424
 3644TIP3    H132567   0.421   3.956   1.565  0.2221  1.4615 -0.4133
 3644TIP3    H232568   0.342   4.021   1.677 -0.1450 -0.4680  0.4925
 3645TIP3   OH232569   0.650   0.696   7.467  0.2334  0.1249  0.7435
 3645TIP3    H132570   0.728   0.673   7.517  0.8146  1.3361  0.4283
 3645TIP3    H232571   0.684   0.740   7.388 -0.6232 -1.9672 -0.8883
 3646TIP3   OH232572   1.038   6.099   8.160  0.2924 -0.2105  0.0563
 3646TIP3    H132573   1.033   6.175   8.218  0.0736 -0.5694  0.5126
 3646TIP3    H232574   1.118   6.053   8.187  0.0417 -0.5280  0.2595
 3647TIP3   OH232575   6.875   3.865   8.175 -0.2893  0.6229  0.7320
 3647TIP3    H132576   6.826   3.865   8.258 -1.3801  1.3318  0.1210
 3647TIP3    H232577   6.875   3.957   8.148  1.4835  0.6455  0.7449
 3648TIP3   OH232578   0.718   4.373   7.934  0.0620 -0.8667 -0.0027
 3648TIP3    H132579   0.636   4.324   7.925  0.1020 -0.6068 -2.1085
 3648TIP3    H232580   0.708   4.448   7.876  2.3845 -1.6352 -1.5316
 3649TIP3   OH232581   6.306   1.304   1.793  0.0648  0.0535 -0.1615
 3649TIP3    H132582   6.352   1.228   1.830  0.0599 -0.2214 -0.7017
 3649TIP3    H232583   6.336   1.378   1.846 -1.5284 -0.5799  1.7515
 3650TIP3   OH232584   0.303   0.311   7.874  0.0461 -0.3299 -0.2755
 3650TIP3    H132585   0.262   0.342   7.793 -0.9869 -1.5081 -0.2347
 3650TIP3    H232586   0.328   0.220   7.855 -0.7756 -0.8238  0.9101
 3651TIP3   OH232587   6.287   1.633   0.317  0.1799 -0.2684  0.0398
 3651TIP3    H132588   6.249   1.688   0.248 -0.4058  2.8093  2.5466
 3651TIP3    H232589   6.218   1.628   0.383  1.2087 -1.9002  1.0665
 3652TIP3   OH232590   3.420   1.799   0.049  0.0036  0.0157  0.2188
 3652TIP3    H132591   3.402   1.817   0.141  0.4032  1.0207  0.1232
 3652TIP3    H232592   3.516   1.800   0.043  0.0325 -1.5214  0.0514
 3653TIP3   OH232593   1.477   6.287   2.626 -0.0796 -0.0368  0.0898
 3653TIP3    H132594   1.405   6.348   2.639  0.7743  0.4884  3.1449
 3653TIP3    H232595   1.548   6.342   2.590  0.1232  0.4094  1.1424
 3654TIP3   OH232596   4.137   3.496   0.773 -0.4249 -0.2603 -0.2618
 3654TIP3    H132597   4.054   3.448   0.774 -0.5595 -0.0270 -0.2334
 3654TIP3    H232598   4.172   3.481   0.686 -0.9729  0.4512 -0.6171
 3655TIP3   OH232599   6.856   4.203   2.242  0.8948  0.1651 -0.0143
 3655TIP3    H132600   6.937   4.254   2.238  0.9861 -0.0225 -0.6060
 3655TIP3    H232601   6.851   4.174   2.333  1.8404 -0.3903 -0.1304
 3656TIP3   OH232602   1.812   3.622   2.984  0.3584 -0.0973 -0.0767
 3656TIP3    H132603   1.781   3.574   2.907  1.4958  0.0746 -0.6682
 3656TIP3    H232604   1.781   3.571   3.058 -1.1964  0.0027 -0.6228
 3657TIP3   OH232605   4.922   3.614   2.437  0.2957 -0.5469 -0.0132
 3657TIP3    H132606   4.922   3.704   2.402  1.5039 -0.6437 -0.2906
 3657TIP3    H232607   4.829   3.594   2.448 -0.0581  0.2384 -1.2647
 3658TIP3   OH232608   1.722   3.620   7.995 -0.2041  0.7802 -0.1006
 3658TIP3    H132609   1.670   3.542   8.013  1.2377 -0.0088  0.8115
 3658TIP3    H232610   1.735   3.619   7.900  1.9067 -1.5628  0.0997
 3659TIP3   OH232611   4.213   3.444   8.624 -0.0280 -0.3851  0.2108
 3659TIP3    H132612   4.298   3.413   8.656  0.3598 -2.6004 -2.5593
 3659TIP3    H232613   4.228   3.465   8.532 -2.6126 -1.7042 -0.6139
 3660TIP3   OH232614   1.019   0.854   0.055  0.0767 -0.1420  0.1307
 3660TIP3    H132615   0.969   0.826   0.132 -1.4797 -0.4862 -0.9608
 3660TIP3    H232616   0.976   0.934   0.027 -0.0128 -0.5525 -0.9524
 3661TIP3   OH232617   2.632   6.735   8.330 -0.2224  0.2642 -0.2190
 3661TIP3    H132618   2.711   6.682   8.319  0.5547  1.5499 -1.2647
 3661TIP3    H232619   2.639   6.771   8.418  0.5872  0.6588 -0.4260
 3662TIP3   OH232620   1.852   1.443   0.558  0.3412 -0.1082  0.4842
 3662TIP3    H132621   1.906   1.519   0.579  0.3933 -0.2424  0.8461
 3662TIP3    H232622   1.818   1.414   0.642 -0.6272  0.2137  0.2188
 3663TIP3   OH232623   5.354   5.182   2.701 -0.6284 -0.3850  0.6359
 3663TIP3    H132624   5.277   5.143   2.659 -1.8357  0.8140  1.6440
 3663TIP3    H232625   5.318   5.238   2.770  0.9967  2.5110 -0.7023
 3664TIP3   OH232626   6.113   1.858   1.127  0.8631 -0.0954 -0.6964
 3664TIP3    H132627   6.185   1.898   1.177 -0.6852  0.7546  0.9740
 3664TIP3    H232628   6.061   1.812   1.193 -0.7164  0.1904 -1.6960
 3665TIP3   OH232629   0.447   5.101   2.377  0.5581 -0.2106  0.6079
 3665TIP3    H132630   0.514   5.167   2.358 -1.5264  1.9849  0.3580
 3665TIP3    H232631   0.445   5.046   2.300  0.7724  0.9019 -0.2207
 3666TIP3   OH232632   2.783   2.638   0.686 -0.0288  0.0661  0.1105
 3666TIP3    H132633   2.834   2.558   0.697  0.1512  0.3190  1.2212
 3666TIP3    H232634   2.845   2.701   0.650  0.2895  0.2041  0.8955
 3667TIP3   OH232635   3.933   5.163   2.488 -0.1830  0.7803 -0.1016
 3667TIP3    H132636   3.887   5.146   2.570  2.1981 -0.0418  1.1773
 3667TIP3    H232637   3.904   5.094   2.429  2.0429 -2.0715  1.8771
 3668TIP3   OH232638   4.152   4.727   3.423 -0.3653 -0.0676  0.3381
 3668TIP3    H132639   4.177   4.790   3.355 -0.3826  0.0283  0.4204
 3668TIP3    H232640   4.130   4.781   3.499  0.5930 -0.2135  0.7276
 3669TIP3   OH232641   2.032   4.261   0.968 -0.1718 -0.4063  0.2763
 3669TIP3    H132642   2.026   4.355   0.949 -0.0047 -0.4606 -0.0539
 3669TIP3    H232643   2.073   4.256   1.054  0.1132 -0.1854  0.1534
 3670TIP3   OH232644   5.041   6.885   8.600  0.9340  0.3959  0.6633
 3670TIP3    H132645   4.997   6.884   8.515  2.2300  1.8915 -0.0618
 3670TIP3    H232646   4.971   6.865   8.663 -0.1605 -0.1821 -0.6710
 3671TIP3   OH232647   6.240   5.618   2.987 -0.5306 -0.0907  0.4193
 3671TIP3    H132648   6.206   5.569   3.062  1.3724  0.1260  1.4911
 3671TIP3    H232649   6.171   5.613   2.922 -2.1325 -0.5680  2.0683
 3672TIP3   OH232650   2.761   5.724   1.083  0.1739 -0.1329  0.3679
 3672TIP3    H132651   2.827   5.665   1.118  1.6259  0.8490 -0.5823
 3672TIP3    H232652   2.731   5.682   1.003  0.0516 -0.3192  0.5112
 3673TIP3   OH232653   1.805   0.549   0.455  0.7682 -0.1164 -0.0622
 3673TIP3    H132654   1.827   0.612   0.387 -0.3366  0.7429  0.3580
 3673TIP3    H232655   1.736   0.591   0.506 -0.0117 -1.6812  0.2195
 3674TIP3   OH232656   2.346   2.361   3.146 -0.2526  0.2389 -0.3092
 3674TIP3    H132657   2.402   2.316   3.210 -1.2778  1.1108  1.2840
 3674TIP3    H232658   2.393   2.441   3.125  0.5707 -0.5256 -1.4911
 3675TIP3   OH232659   3.266   4.127   8.094  0.0591 -0.1426  0.5051
 3675TIP3    H132660   3.242   4.039   8.068 -0.0747  0.0181  0.0832
 3675TIP3    H232661   3.320   4.160   8.022 -0.5319  0.3979  0.2980
 3676TIP3   OH232662   3.140   5.079   0.179 -0.2712 -0.0710  0.6735
 3676TIP3    H132663   3.094   5.132   0.243  1.8468 -0.1309  2.3456
 3676TIP3    H232664   3.134   5.130   0.098 -0.2831  1.5969  1.6679
 3677TIP3   OH232665   3.943   2.563   8.475  0.1011  0.3258 -0.1834
 3677TIP3    H132666   4.009   2.554   8.406  0.1872  1.8239 -0.3225
 3677TIP3    H232667   3.994   2.565   8.557  0.2301  1.2249 -0.2742
 3678TIP3   OH232668   3.843   2.600   2.784 -0.2127  0.3022  0.7167
 3678TIP3    H132669   3.835   2.671   2.847  0.9787  0.2126  0.9738
 3678TIP3    H232670   3.896   2.534   2.827  0.4808  0.1656 -0.3081
 3679TIP3   OH232671   5.767   6.170   8.538 -0.5189 -0.5239  0.3225
 3679TIP3    H132672   5.719   6.191   8.458 -1.2130 -1.3387  0.5148
 3679TIP3    H232673   5.784   6.076   8.532  0.0968 -0.4462  0.7759
 3680TIP3   OH232674   1.913   4.295   1.403 -0.1502  0.4593 -0.3184
 3680TIP3    H132675   1.914   4.382   1.362  1.0774  0.7854  0.3505
 3680TIP3    H232676   1.890   4.312   1.495 -0.3339  0.0337 -0.2842
 3681TIP3   OH232677   3.302   4.501   0.857 -0.3007  0.2324 -0.2200
 3681TIP3    H132678   3.363   4.443   0.812 -2.3691 -4.3487  2.2330
 3681TIP3    H232679   3.357   4.551   0.918  1.3273 -1.5844 -0.1090
 3682TIP3   OH232680   1.213   3.897   2.369  0.0230 -0.4633 -0.0848
 3682TIP3    H132681   1.190   3.896   2.276 -0.2692  0.4590 -0.0273
 3682TIP3    H232682   1.180   3.814   2.402 -0.8512 -0.3269 -0.5747
 3683TIP3   OH232683   0.264   4.086   1.406  0.0301 -0.0445 -0.5384
 3683TIP3    H132684   0.254   3.992   1.391  0.3215 -0.1344 -0.1920
 3683TIP3    H232685   0.189   4.109   1.461  0.7266 -0.3613  0.5644
 3684TIP3   OH232686   0.328   2.442   2.829  0.2314 -0.1483 -0.2605
 3684TIP3    H132687   0.351   2.374   2.766 -0.5176  0.5124 -1.2764
 3684TIP3    H232688   0.375   2.520   2.798 -1.8146  0.7566 -1.3338
 3685TIP3   OH232689   2.159   0.387   0.756  0.1568 -0.6673  0.1100
 3685TIP3    H132690   2.103   0.421   0.826  0.8115 -1.7916  1.2265
 3685TIP3    H232691   2.146   0.293   0.758  2.8946 -1.1245  1.2315
 3686TIP3   OH232692   5.966   6.300   3.610 -0.0399  0.2533  0.4955
 3686TIP3    H132693   5.872   6.295   3.631  0.1953 -0.6351  1.4155
 3686TIP3    H232694   6.002   6.218   3.644  0.7181 -0.3884 -1.6755
 3687TIP3   OH232695   0.599   5.258   7.471 -0.7642 -0.2837  0.6967
 3687TIP3    H132696   0.665   5.313   7.429 -1.3786  0.7346  1.0112
 3687TIP3    H232697   0.525   5.318   7.486 -1.6468 -1.3280  0.6018
 3688TIP3   OH232698   6.016   6.568   1.746  0.1454  0.3852  0.2250
 3688TIP3    H132699   5.968   6.570   1.829 -0.1405 -1.8101  0.1634
 3688TIP3    H232700   6.108   6.561   1.772 -0.0873 -4.0769  0.5623
 3689TIP3   OH232701   4.746   0.431   1.420 -0.0912 -0.1724 -0.0130
 3689TIP3    H132702   4.725   0.338   1.429 -0.0439 -0.1059  0.8248
 3689TIP3    H232703   4.714   0.471   1.500 -0.9805  0.7017 -0.7693
 3690TIP3   OH232704   0.772   3.850   2.259  0.3760 -0.1506  0.7855
 3690TIP3    H132705   0.737   3.783   2.201  0.7932  0.7354 -0.5371
 3690TIP3    H232706   0.699   3.874   2.316 -0.7146  0.5088 -0.8303
 3691TIP3   OH232707   5.893   0.128   2.027  0.3174  0.1940  0.1722
 3691TIP3    H132708   5.807   0.170   2.032  0.7766  1.0711  1.0076
 3691TIP3    H232709   5.873   0.034   2.024 -0.6918  0.4132 -0.6537
 3692TIP3   OH232710   0.037   1.073   2.717  0.4820 -0.6673 -0.1434
 3692TIP3    H132711  -0.035   1.059   2.656 -0.4985 -0.0624  0.8167
 3692TIP3    H232712   0.024   1.163   2.748  1.9693 -0.3626 -0.3385
 3693TIP3   OH232713   5.963   5.378   2.638  0.3989  0.5781  0.7478
 3693TIP3    H132714   5.930   5.395   2.550 -0.4590 -0.7859  0.7956
 3693TIP3    H232715   5.994   5.288   2.635 -1.3916 -0.1462  2.3424
 3694TIP3   OH232716   2.384   6.078   7.673  0.0975 -0.5400  0.2294
 3694TIP3    H132717   2.315   6.026   7.714  0.4715 -1.3232 -0.1229
 3694TIP3    H232718   2.342   6.162   7.655 -1.2245 -1.4785 -1.3281
 3695TIP3   OH232719   2.068   5.497   8.398  0.0448  0.3544  0.3047
 3695TIP3    H132720   2.023   5.528   8.319 -1.0826 -0.1021  0.7423
 3695TIP3    H232721   1.998   5.460   8.452  0.8708  0.2090  1.3041
 3696TIP3   OH232722   1.821   6.839   0.238 -0.2183  0.5647  0.4466
 3696TIP3    H132723   1.903   6.871   0.276 -0.1956  0.4935  0.4571
 3696TIP3    H232724   1.816   6.747   0.264  0.4225  0.1711 -0.7780
 3697TIP3   OH232725   2.549   5.692   0.694  0.3970  0.4015 -0.3928
 3697TIP3    H132726   2.586   5.634   0.760  0.8340  0.6486 -0.4209
 3697TIP3    H232727   2.584   5.779   0.716 -0.6217  0.7483 -0.0578
 3698TIP3   OH232728   0.767   2.443   8.257  0.0253 -0.1979  0.5593
 3698TIP3    H132729   0.845   2.388   8.249  0.3985  0.4606 -0.4616
 3698TIP3    H232730   0.715   2.422   8.179 -0.5055 -0.1373  0.8894
 3699TIP3   OH232731   5.426   3.660   1.858  0.5755  0.9260 -0.0044
 3699TIP3    H132732   5.502   3.660   1.801  0.0368 -0.7560 -0.8000
 3699TIP3    H232733   5.357   3.703   1.807 -0.2350 -1.5931 -1.2164
 3700TIP3   OH232734   4.590   3.406   1.851 -0.2035 -0.3392 -0.1987
 3700TIP3    H132735   4.496   3.422   1.862 -0.1863 -0.5752  0.2976
 3700TIP3    H232736   4.632   3.489   1.876 -0.3481  0.3053 -1.9262
 3701TIP3   OH232737   4.564   2.534   2.402  0.2660 -0.5675  0.2812
 3701TIP3    H132738   4.626   2.519   2.330 -1.1565  0.2846 -1.2017
 3701TIP3    H232739   4.530   2.447   2.423 -0.9294 -0.6378 -1.6711
 3702TIP3   OH232740   2.186   3.227   0.735 -0.0992  0.2972 -0.0205
 3702TIP3    H132741   2.225   3.314   0.745 -0.8180  0.4785  1.8127
 3702TIP3    H232742   2.204   3.202   0.645  1.3343  1.7527 -0.1844
 3703TIP3   OH232743   4.907   0.940   2.682  0.4338  0.0748 -0.4181
 3703TIP3    H132744   4.820   0.909   2.708 -0.4100  0.5010 -2.5043
 3703TIP3    H232745   4.961   0.862   2.680  0.7009  0.0429  2.7970
 3704TIP3   OH232746   3.110   4.322   3.273  0.4089  0.0840 -0.2742
 3704TIP3    H132747   3.132   4.241   3.227  1.4186 -0.6975  1.5047
 3704TIP3    H232748   3.014   4.326   3.270  0.3609 -1.0755 -0.5553
 3705TIP3   OH232749   5.735   5.406   2.028  0.5067  0.1279 -0.8799
 3705TIP3    H132750   5.673   5.476   2.045 -0.4938 -0.7598 -0.8054
 3705TIP3    H232751   5.709   5.371   1.942 -0.1266 -1.2834 -0.1487
 3706TIP3   OH232752   5.097   2.944   2.455  0.4456 -0.1287 -0.7220
 3706TIP3    H132753   5.066   3.034   2.450 -0.8042 -0.5083 -0.2361
 3706TIP3    H232754   5.073   2.905   2.371  0.3954 -0.1815 -0.6836
 3707TIP3   OH232755   1.891   0.223   2.754 -0.4001 -0.1049  0.6377
 3707TIP3    H132756   1.949   0.225   2.830 -0.2307 -0.8715  0.5389
 3707TIP3    H232757   1.899   0.134   2.720 -0.7425  0.1248 -0.0727
 3708TIP3   OH232758   0.731   4.358   1.949  0.1541 -0.0196  0.0330
 3708TIP3    H132759   0.736   4.297   1.876  0.9961 -1.3684  1.1699
 3708TIP3    H232760   0.717   4.444   1.908 -0.9216 -0.9312 -1.6040
 3709TIP3   OH232761   6.566   6.054   0.028 -0.5870 -0.5802 -0.6137
 3709TIP3    H132762   6.608   6.136  -0.000 -1.7036 -0.6370 -2.6443
 3709TIP3    H232763   6.508   6.080   0.099  0.8058 -0.0333  0.3468
 3710TIP3   OH232764   2.167   5.723   8.526 -0.1140  0.0493 -0.1430
 3710TIP3    H132765   2.214   5.688   8.602 -1.4715  0.2874  0.8308
 3710TIP3    H232766   2.150   5.647   8.471 -1.4836 -0.5812  1.1029
 3711TIP3   OH232767   4.152   0.036   2.441 -0.0755  0.6020 -0.2020
 3711TIP3    H132768   4.173   0.112   2.496 -1.5217  2.2676 -1.8224
 3711TIP3    H232769   4.086  -0.012   2.491 -2.4794  2.8925 -0.9776
 3712TIP3   OH232770   3.253   4.291   7.717 -0.5402 -0.7251 -0.0435
 3712TIP3    H132771   3.177   4.348   7.717  0.5769  0.8571  1.1388
 3712TIP3    H232772   3.229   4.218   7.660 -1.7841  1.2328 -2.1686
 3713TIP3   OH232773   3.634   5.175   2.897 -0.3268 -0.0947 -0.9998
 3713TIP3    H132774   3.625   5.258   2.944  1.6471  0.8773 -2.2086
 3713TIP3    H232775   3.702   5.192   2.831 -1.3062 -2.0750 -2.6397
 3714TIP3   OH232776   0.301   1.918   1.423 -0.7429 -0.6673 -0.1561
 3714TIP3    H132777   0.263   1.859   1.358  0.7427 -1.3564 -0.4443
 3714TIP3    H232778   0.373   1.961   1.376 -1.9195  1.5911 -0.0356
 3715TIP3   OH232779   6.447   1.517   0.881 -0.2933 -0.0519  0.4670
 3715TIP3    H132780   6.378   1.581   0.900  1.1007  2.7573 -2.8966
 3715TIP3    H232781   6.403   1.451   0.828 -0.9301  0.3700  0.4566
 3716TIP3   OH232782   2.435   1.550   0.463 -0.6304  0.0333 -0.0405
 3716TIP3    H132783   2.445   1.570   0.556  1.6431 -1.4887  0.1256
 3716TIP3    H232784   2.462   1.630   0.417  1.1584 -0.1465  0.6240
 3717TIP3   OH232785   5.436   1.686   3.236 -0.1610  0.2013  0.2383
 3717TIP3    H132786   5.510   1.674   3.295 -0.3605  1.3216  0.7381
 3717TIP3    H232787   5.359   1.670   3.291 -0.3113 -0.4110 -0.1409
 3718TIP3   OH232788   0.579   1.383   0.190  0.0690 -0.0765  0.6378
 3718TIP3    H132789   0.592   1.335   0.109  1.0446 -0.2449  0.8898
 3718TIP3    H232790   0.564   1.474   0.162 -0.7235 -0.3185  0.2251
 3719TIP3   OH232791   1.133   1.763   7.567  0.2174  0.0222  0.3199
 3719TIP3    H132792   1.073   1.689   7.583  1.9954 -1.2167  1.6726
 3719TIP3    H232793   1.084   1.821   7.509 -2.4227 -0.7479  1.6014
 3720TIP3   OH232794   5.176   3.973   1.491  0.3716 -0.1535  0.1783
 3720TIP3    H132795   5.141   4.061   1.482  0.1767 -0.1428  0.9817
 3720TIP3    H232796   5.197   3.946   1.402 -1.6022 -0.1274 -0.3224
 3721TIP3   OH232797   5.554   3.370   8.656 -0.5554  0.3548  0.1748
 3721TIP3    H132798   5.474   3.374   8.604  0.4565  0.7241 -1.4275
 3721TIP3    H232799   5.617   3.424   8.607  1.2998 -1.6468  0.2207
 3722TIP3   OH232800   2.596   2.732   8.602 -0.0349  0.1624 -0.1314
 3722TIP3    H132801   2.626   2.781   8.526 -0.4857  0.6863  0.0249
 3722TIP3    H232802   2.677   2.702   8.645  0.2253  0.2063 -0.5915
 3723TIP3   OH232803   5.776   3.527   0.928 -0.7436  0.7636  0.6624
 3723TIP3    H132804   5.847   3.508   0.989 -0.5118 -1.7840 -0.2794
 3723TIP3    H232805   5.697   3.494   0.972 -1.0210  1.5129  0.7463
 3724TIP3   OH232806   4.943   3.244   0.340 -0.0248 -0.2584  0.5754
 3724TIP3    H132807   4.941   3.191   0.260  0.5692  1.8006 -0.8586
 3724TIP3    H232808   5.032   3.278   0.344  0.1269 -0.7597  2.4567
 3725TIP3   OH232809   5.559   2.175   2.837 -0.0072 -0.2481  0.4009
 3725TIP3    H132810   5.464   2.174   2.839  0.0000 -1.0383  0.6572
 3725TIP3    H232811   5.584   2.262   2.867 -0.6923  0.8685 -2.0011
 3726TIP3   OH232812   6.340   4.404   1.544 -0.5810 -0.1343  0.2609
 3726TIP3    H132813   6.374   4.321   1.513 -1.2916 -0.0090 -0.9123
 3726TIP3    H232814   6.276   4.380   1.611 -1.4780 -0.5927 -0.7402
 3727TIP3   OH232815   6.320   2.347   7.637  0.3571  0.0947 -0.4454
 3727TIP3    H132816   6.318   2.407   7.712  0.1463 -0.4084 -0.0397
 3727TIP3    H232817   6.242   2.370   7.587 -0.6645 -0.9287  0.5971
 3728TIP3   OH232818   6.125   2.708   2.514  0.2840 -0.5297 -0.0410
 3728TIP3    H132819   6.106   2.686   2.423  1.4590  0.0878 -0.4559
 3728TIP3    H232820   6.080   2.792   2.528 -0.2017 -0.8059  0.0662
 3729TIP3   OH232821   4.127   0.798   0.696  0.2261 -0.7652 -0.5378
 3729TIP3    H132822   4.182   0.758   0.762 -0.1543 -1.9118 -0.8979
 3729TIP3    H232823   4.067   0.854   0.746 -0.7450 -2.4064  0.2257
 3730TIP3   OH232824   0.491   0.959   2.409 -0.2252 -0.3115 -0.0057
 3730TIP3    H132825   0.468   0.868   2.390  1.2738 -0.6732 -0.2212
 3730TIP3    H232826   0.452   1.009   2.337  0.6638 -1.0393 -1.0346
 3731TIP3   OH232827   0.566   5.782   3.137  0.4513  0.3131 -0.0163
 3731TIP3    H132828   0.648   5.769   3.185  1.1347  0.0462 -1.2335
 3731TIP3    H232829   0.558   5.877   3.129  0.8302  0.3253 -0.2278
 3732TIP3   OH232830   0.977   4.335   3.126 -0.2172  0.0799 -0.3758
 3732TIP3    H132831   0.938   4.352   3.040 -0.6599 -0.9665 -0.3907
 3732TIP3    H232832   1.014   4.247   3.119 -1.7220 -0.7250  1.0081
 3733TIP3   OH232833   5.618   5.412   2.310  0.4867 -0.1058  0.0198
 3733TIP3    H132834   5.570   5.356   2.371  0.1385 -0.0957 -0.2451
 3733TIP3    H232835   5.551   5.465   2.267  0.8554  0.9141  0.6604
 3734TIP3   OH232836   6.880   3.606   1.575 -0.6374  0.7086 -0.0279
 3734TIP3    H132837   6.944   3.539   1.600  0.0182  1.6152  0.7918
 3734TIP3    H232838   6.833   3.625   1.656 -2.1772 -0.1507 -0.6806
 3735TIP3   OH232839   2.139   6.791   0.302  0.6924  0.5595 -0.3135
 3735TIP3    H132840   2.202   6.841   0.354  1.2444  0.0054 -0.4319
 3735TIP3    H232841   2.190   6.757   0.229  1.2304 -2.9072  1.4255
 3736TIP3   OH232842   2.636   6.633   0.047  0.4041 -0.2953  0.8232
 3736TIP3    H132843   2.665   6.705  -0.009 -0.2946 -0.0688  0.7408
 3736TIP3    H232844   2.717   6.595   0.081  0.7966  0.2370  0.5045
 3737TIP3   OH232845   1.122   5.323   1.285 -0.4797  0.3110  0.0363
 3737TIP3    H132846   1.215   5.325   1.306 -0.8417 -0.1801  1.9001
 3737TIP3    H232847   1.118   5.331   1.190  1.6004 -2.3394 -0.3841
 3738TIP3   OH232848   1.243   6.061   2.478  0.2013 -0.3872 -0.1949
 3738TIP3    H132849   1.213   6.147   2.508  1.6980 -0.1876  0.8713
 3738TIP3    H232850   1.196   5.998   2.533 -0.2495 -0.2099 -0.3771
 3739TIP3   OH232851   4.891   2.638   7.174 -0.3236 -0.3607  0.2266
 3739TIP3    H132852   4.855   2.560   7.217 -0.3325  0.2981  1.4640
 3739TIP3    H232853   4.839   2.648   7.094 -0.9321 -1.0906  0.5206
 3740TIP3   OH232854   3.198   1.451   2.764  0.6564 -0.2476  0.2312
 3740TIP3    H132855   3.266   1.437   2.698 -0.6210 -0.3302 -1.1411
 3740TIP3    H232856   3.120   1.473   2.713 -1.0548 -2.7835  1.5032
 3741TIP3   OH232857   3.533   4.737   3.201  0.0246 -0.3516 -0.1223
 3741TIP3    H132858   3.543   4.726   3.106 -1.0258  0.8014 -0.3898
 3741TIP3    H232859   3.589   4.669   3.239  1.4233 -0.0493 -1.5485
 3742TIP3   OH232860   4.571   3.042   0.658 -0.5142  0.0131 -0.3724
 3742TIP3    H132861   4.544   3.106   0.592 -0.9576  1.5656  1.2479
 3742TIP3    H232862   4.497   3.036   0.718  0.3585 -0.3367  0.7123
 3743TIP3   OH232863   6.005   6.402   0.355 -0.2858 -0.0728 -0.2981
 3743TIP3    H132864   5.930   6.384   0.299  0.8041  0.9105 -2.1818
 3743TIP3    H232865   6.048   6.478   0.314  1.9138 -0.8167  0.4952
 3744TIP3   OH232866   5.653   1.052   3.067 -0.4353  0.0051 -0.1722
 3744TIP3    H132867   5.602   0.978   3.033 -0.5705  0.5320 -1.1648
 3744TIP3    H232868   5.617   1.068   3.154 -1.8194  0.1910 -0.7420
 3745TIP3   OH232869   1.924   4.495   0.838 -0.0322  0.1951 -0.0869
 3745TIP3    H132870   1.848   4.549   0.815  0.2988  1.0113  0.6687
 3745TIP3    H232871   1.979   4.497   0.760 -0.2002  0.6533 -0.1996
 3746TIP3   OH232872   2.273   5.497   0.128 -0.6698 -1.0734 -0.3392
 3746TIP3    H132873   2.328   5.553   0.183  0.6979 -1.7877 -0.9342
 3746TIP3    H232874   2.186   5.502   0.168  0.0513 -0.7596  1.2563
 3747TIP3   OH232875   0.906   0.895   7.349 -0.6402 -0.1523 -0.4483
 3747TIP3    H132876   0.903   0.840   7.271  0.2158  0.0646 -0.6471
 3747TIP3    H232877   0.986   0.868   7.394 -0.2220  0.8975 -0.5373
 3748TIP3   OH232878   6.469   5.408   7.517  0.0518  0.2085  0.4964
 3748TIP3    H132879   6.431   5.427   7.603  1.0841  2.6980  0.4771
 3748TIP3    H232880   6.403   5.439   7.455  0.2173  0.4300  0.4285
 3749TIP3   OH232881   3.555   5.921   2.799 -0.0696  0.3190 -0.6877
 3749TIP3    H132882   3.556   5.864   2.876  2.2614  1.3489  0.1506
 3749TIP3    H232883   3.466   5.912   2.763 -1.8034  0.8838  2.9566
 3750TIP3   OH232884   3.273   1.432   2.430 -0.2140 -0.3386 -0.7340
 3750TIP3    H132885   3.183   1.439   2.462 -0.2029  0.4098 -0.8510
 3750TIP3    H232886   3.322   1.494   2.485  0.2984 -1.0090 -0.4229
 3751TIP3   OH232887   1.804   0.368   1.354  0.3692 -0.4518 -0.3558
 3751TIP3    H132888   1.763   0.436   1.301 -1.4540 -0.1583  1.2976
 3751TIP3    H232889   1.730   0.321   1.394  1.6196 -2.0941  0.1477
 3752TIP3   OH232890   6.204   6.446   8.022 -0.4617  0.8235 -0.0259
 3752TIP3    H132891   6.185   6.504   8.095 -2.3468 -0.2951  0.4420
 3752TIP3    H232892   6.206   6.358   8.060 -0.2479  0.3397 -1.1056
 3753TIP3   OH232893   1.400   2.910   2.742  1.2170 -0.5990  0.4984
 3753TIP3    H132894   1.321   2.882   2.787  0.7549 -0.8671 -0.4642
 3753TIP3    H232895   1.370   2.941   2.656  2.0512  0.1116  0.4477
 3754TIP3   OH232896   4.650   4.569   8.154 -0.1280  0.3587  0.0550
 3754TIP3    H132897   4.680   4.611   8.235 -0.6179  0.1993  0.3228
 3754TIP3    H232898   4.647   4.640   8.090 -0.4194  0.6232  0.3602
 3755TIP3   OH232899   5.450   6.331   0.491 -0.4905  0.3169 -0.1796
 3755TIP3    H132900   5.512   6.260   0.509 -0.4305  0.3960 -0.0727
 3755TIP3    H232901   5.383   6.291   0.435 -1.5832 -0.3887  1.5419
 3756TIP3   OH232902   3.746   2.099   2.054  1.0072  0.1532 -0.1186
 3756TIP3    H132903   3.724   2.072   1.965  0.4479 -1.2410  0.4089
 3756TIP3    H232904   3.681   2.055   2.109  1.7233  0.4889  1.0312
 3757TIP3   OH232905   6.840   5.469   0.825 -0.7160 -0.5705 -0.1835
 3757TIP3    H132906   6.802   5.533   0.764 -0.6997 -0.3693  0.0170
 3757TIP3    H232907   6.782   5.471   0.901  0.6480  1.0537  0.8889
 3758TIP3   OH232908   0.646   2.328   2.214  0.1823 -0.2522  0.2158
 3758TIP3    H132909   0.620   2.253   2.268 -1.3036  0.1894  0.1454
 3758TIP3    H232910   0.690   2.289   2.138  0.5167 -0.9715  0.7611
 3759TIP3   OH232911   2.648   3.699   1.258 -0.1207  0.0455  0.0814
 3759TIP3    H132912   2.665   3.610   1.227 -0.4401  0.1030 -0.2675
 3759TIP3    H232913   2.651   3.693   1.354  2.5566  0.1942  0.0714
 3760TIP3   OH232914   0.139   0.418   0.381  1.0805 -0.2664 -0.4772
 3760TIP3    H132915   0.194   0.479   0.430  0.2226 -0.0318  0.2226
 3760TIP3    H232916   0.134   0.340   0.437 -1.8189  0.8626  1.0099
 3761TIP3   OH232917   1.627   3.664   8.622 -0.0864  0.2793  0.2927
 3761TIP3    H132918   1.653   3.750   8.589 -0.3351  0.4004  0.4114
 3761TIP3    H232919   1.677   3.652   8.703  0.9727 -0.2685 -0.4117
 3762TIP3   OH232920   2.205   1.262   0.239  0.1625  0.4897 -0.1615
 3762TIP3    H132921   2.127   1.260   0.294  0.1726  1.0005 -0.1261
 3762TIP3    H232922   2.278   1.242   0.298  0.2246  1.4589  0.1072
 3763TIP3   OH232923   0.614   6.591   8.043  0.5159  0.1213 -0.6810
 3763TIP3    H132924   0.578   6.553   7.963  0.1224  1.0818 -0.9781
 3763TIP3    H232925   0.588   6.683   8.040  3.0009  0.8927 -0.9080
 3764TIP3   OH232926   5.431   2.577   2.587 -0.6286  0.8971 -0.2469
 3764TIP3    H132927   5.448   2.489   2.554 -1.5203  1.1444 -1.4266
 3764TIP3    H232928   5.418   2.565   2.681  1.1752  0.0601 -0.0450
 3765TIP3   OH232929   5.865   0.755   3.503  0.2838  0.1837  0.1495
 3765TIP3    H132930   5.787   0.775   3.452 -0.8952 -0.0498  1.7952
 3765TIP3    H232931   5.876   0.830   3.561  1.4420  0.3154 -0.2117
 3766TIP3   OH232932   0.831   5.705   0.162 -0.2656 -0.7751 -0.0185
 3766TIP3    H132933   0.790   5.792   0.161 -0.4280 -0.8498  0.0636
 3766TIP3    H232934   0.878   5.700   0.079  0.7946 -0.1176  0.5150
 3767TIP3   OH232935   3.250   0.368   8.325  0.2149  0.5755 -0.1645
 3767TIP3    H132936   3.173   0.348   8.378 -0.4491  1.6814 -0.6747
 3767TIP3    H232937   3.275   0.285   8.285 -0.3971  0.1054  0.4213
 3768TIP3   OH232938   3.099   0.186   1.477  0.0901  0.3451  0.7359
 3768TIP3    H132939   3.176   0.152   1.431 -0.9798 -0.6518 -0.4021
 3768TIP3    H232940   3.080   0.269   1.433  0.4137  0.5100  0.9068
 3769TIP3   OH232941   0.900   4.191   8.640 -0.1982 -0.2418 -0.1337
 3769TIP3    H132942   0.929   4.189   8.549  1.2187  0.9716  0.2491
 3769TIP3    H232943   0.864   4.279   8.651  2.8915  1.0098  1.3361
 3770TIP3   OH232944   5.456   3.400   1.626 -0.0037 -0.2818  0.2348
 3770TIP3    H132945   5.494   3.322   1.585 -0.1808 -0.2383 -0.0111
 3770TIP3    H232946   5.531   3.446   1.664  0.0029 -1.0146  1.1386
 3771TIP3   OH232947   2.691   6.522   3.168 -0.2450 -0.4646  0.6653
 3771TIP3    H132948   2.648   6.455   3.222 -1.5010 -0.0311  0.2349
 3771TIP3    H232949   2.658   6.506   3.080 -1.0075  1.0420  0.6459
 3772TIP3   OH232950   1.578   6.108   8.429  0.3124  0.2267  0.2801
 3772TIP3    H132951   1.617   6.075   8.510  1.8726 -0.5290 -0.7404
 3772TIP3    H232952   1.564   6.030   8.376  0.9163  0.8609 -0.8467
 3773TIP3   OH232953   5.140   3.744   8.644 -0.7910  0.4398  0.1325
 3773TIP3    H132954   5.228   3.724   8.674 -0.6100 -0.6101 -1.0138
 3773TIP3    H232955   5.122   3.832   8.678  0.7086  0.6939  0.3377
 3774TIP3   OH232956   0.157   0.433   7.679 -0.8572 -0.1678 -0.0999
 3774TIP3    H132957   0.220   0.418   7.608  0.1709  1.8002  0.3198
 3774TIP3    H232958   0.090   0.489   7.639 -0.3619  0.8065  0.3785
 3775TIP3   OH232959   6.789   0.587   8.456 -0.4147  0.4338  0.1160
 3775TIP3    H132960   6.860   0.535   8.495 -0.9492 -2.0376 -1.9084
 3775TIP3    H232961   6.727   0.600   8.527  0.7846  0.2424  1.2408
 3776TIP3   OH232962   5.235   0.264   2.271 -0.2485  0.0587 -0.6591
 3776TIP3    H132963   5.283   0.335   2.229 -0.4568  1.0866  0.7479
 3776TIP3    H232964   5.289   0.239   2.346 -0.3998 -0.9738 -0.8771
 3777TIP3   OH232965   2.785   1.290   1.621 -0.6342 -0.0199  0.3229
 3777TIP3    H132966   2.834   1.212   1.596 -0.8683 -0.5063  1.3399
 3777TIP3    H232967   2.713   1.294   1.558  0.3502  0.3782 -0.8274
 3778TIP3   OH232968   6.589   4.340   8.209  0.3302  0.1996  0.0007
 3778TIP3    H132969   6.655   4.321   8.142  0.3444  1.6422 -0.4345
 3778TIP3    H232970   6.638   4.347   8.291  0.6311  0.5676 -0.2082
 3779TIP3   OH232971   4.990   2.425   8.400  0.9666  0.0479  0.2339
 3779TIP3    H132972   5.017   2.498   8.456 -1.1466  1.6896 -0.7252
 3779TIP3    H232973   4.898   2.411   8.422  1.2285 -2.1788  0.1603
 3780TIP3   OH232974   3.409   6.797   1.934  0.2437 -0.2469 -0.4440
 3780TIP3    H132975   3.402   6.702   1.944  1.1022 -0.3110 -0.3298
 3780TIP3    H232976   3.334   6.832   1.981  0.7212 -0.8152  0.7768
 3781TIP3   OH232977   4.642   1.594   0.712 -0.0256 -0.1702 -0.3294
 3781TIP3    H132978   4.673   1.659   0.776  1.5960 -1.2278  0.0237
 3781TIP3    H232979   4.618   1.646   0.635 -2.4001  1.1832  1.1975
 3782TIP3   OH232980   0.731   6.847   0.504  0.0137  0.7481 -0.3224
 3782TIP3    H132981   0.803   6.870   0.562 -0.6136  0.5920  0.5433
 3782TIP3    H232982   0.773   6.825   0.421  1.1185 -1.0015  0.6357
 3783TIP3   OH232983   3.798   1.599   1.032 -0.4733  0.3452 -0.8164
 3783TIP3    H132984   3.774   1.557   0.949 -0.7593 -0.1761 -0.4775
 3783TIP3    H232985   3.721   1.587   1.088  0.5507 -1.4128  0.3179
 3784TIP3   OH232986   2.263   3.707   3.581  0.3916  0.6144  0.3534
 3784TIP3    H132987   2.319   3.753   3.519  0.0327  1.1571  0.4260
 3784TIP3    H232988   2.225   3.776   3.636 -0.1539  0.2349  0.4666
 3785TIP3   OH232989   2.629   2.966   0.322 -0.0777 -0.6298 -0.4447
 3785TIP3    H132990   2.689   2.928   0.257 -0.5384 -0.5082 -0.9526
 3785TIP3    H232991   2.648   3.059   0.321 -1.2051 -0.3806 -1.6306
 3786TIP3   OH232992   2.041   1.702   8.414  0.5849  0.7784 -0.5229
 3786TIP3    H132993   2.017   1.790   8.385 -1.8214  0.5549  0.5876
 3786TIP3    H232994   2.110   1.717   8.480  1.9508  1.6143 -2.0525
 3787TIP3   OH232995   5.702   5.037   2.991  0.2387  0.0338  0.2315
 3787TIP3    H132996   5.734   5.059   3.078  0.1919  1.6837 -0.1455
 3787TIP3    H232997   5.768   5.071   2.931 -0.4952  0.3453 -0.4265
 3788TIP3   OH232998   2.749   5.091   2.068 -0.3641  0.5130  0.0243
 3788TIP3    H132999   2.716   5.148   1.997  1.6899  3.0389  0.9329
 3788TIP3    H233000   2.842   5.110   2.072  0.3024 -2.4835  0.9516
 3789TIP3   OH233001   5.902   4.895   1.195  0.0465  0.4706 -0.5199
 3789TIP3    H133002   5.856   4.826   1.241  1.1439 -1.1070 -1.6858
 3789TIP3    H233003   5.990   4.897   1.234  1.0765 -1.0630 -2.5524
 3790TIP3   OH233004   6.698   4.067   2.759 -0.0272 -0.4203  0.0450
 3790TIP3    H133005   6.620   4.054   2.813  0.6280  1.8601  1.6676
 3790TIP3    H233006   6.767   4.018   2.805 -0.3953 -2.3684 -1.3448
 3791TIP3   OH233007   4.201   5.201   2.253  0.5784 -0.1554  0.0855
 3791TIP3    H133008   4.211   5.124   2.197  1.3258 -1.6478  2.1513
 3791TIP3    H233009   4.107   5.213   2.261  0.4098 -1.9297  1.0851
 3792TIP3   OH233010   1.282   5.003   8.586 -0.2961  0.1627 -0.1037
 3792TIP3    H133011   1.365   4.980   8.545 -0.4976 -0.8363  0.0083
 3792TIP3    H233012   1.218   5.003   8.515 -0.0756  1.7878 -0.3401
 3793TIP3   OH233013   6.032   6.239   8.618  0.1867 -0.1586  0.1233
 3793TIP3    H133014   6.007   6.166   8.561  1.6225 -2.1919  1.8986
 3793TIP3    H233015   5.952   6.260   8.666 -0.6083  0.4614 -1.4180
 3794TIP3   OH233016   5.036   2.845   1.835  0.2782  0.0271 -0.0024
 3794TIP3    H133017   5.116   2.799   1.809 -0.1055  0.2533 -1.6524
 3794TIP3    H233018   5.067   2.925   1.877  1.1039  2.1832 -4.1619
 3795TIP3   OH233019   4.123   2.614   0.025  0.2285  0.0967 -0.5641
 3795TIP3    H133020   4.193   2.551   0.005 -1.4763 -2.3769  0.6890
 3795TIP3    H233021   4.156   2.664   0.099  1.1368 -0.1813 -0.7636
 3796TIP3   OH233022   4.268   2.060   8.564 -0.1005 -0.0880 -0.4042
 3796TIP3    H133023   4.358   2.084   8.586 -0.3448  0.1937  0.3558
 3796TIP3    H233024   4.248   2.110   8.485 -0.0510  0.9664  0.2290
 3797TIP3   OH233025   2.551   5.980   0.735 -0.3083  0.3905 -0.0179
 3797TIP3    H133026   2.537   6.035   0.658  0.8417  1.6535  0.6291
 3797TIP3    H233027   2.634   6.011   0.772  0.2496 -1.6083  0.5465
 3798TIP3   OH233028   5.062   4.613   2.312  0.5265  0.3842 -0.6348
 3798TIP3    H133029   5.008   4.623   2.234 -0.2816  1.0463 -0.0132
 3798TIP3    H233030   5.003   4.575   2.378  1.5878 -1.6004 -0.7541
 3799TIP3   OH233031   4.535   5.862   8.312  0.1340 -0.3841  0.4089
 3799TIP3    H133032   4.510   5.771   8.330 -0.5413 -0.1980  0.4176
 3799TIP3    H233033   4.461   5.914   8.343 -0.6002  0.0247 -1.8398
 3800TIP3   OH233034   1.263   0.071   1.662 -0.0519  0.3266  0.8361
 3800TIP3    H133035   1.279   0.076   1.568 -0.3740 -0.8894  0.7067
 3800TIP3    H233036   1.258   0.162   1.690  2.5488  0.7843  0.1154
 3801TIP3   OH233037   1.415   4.564   2.575 -0.7410 -0.0094  0.2096
 3801TIP3    H133038   1.415   4.606   2.489  0.0943  1.4528  0.8796
 3801TIP3    H233039   1.353   4.615   2.627 -1.8711 -1.3931  0.2662
 3802TIP3   OH233040   2.076   0.118   0.105  0.0042 -0.7730 -0.6707
 3802TIP3    H133041   2.037   0.205   0.101 -1.6750 -1.3958  0.6994
 3802TIP3    H233042   2.044   0.082   0.188  1.4209 -2.3465 -0.7657
 3803TIP3   OH233043   4.403   3.992   2.950  0.1125 -0.2311  0.3287
 3803TIP3    H133044   4.478   3.936   2.931  1.8403  2.0668 -0.1402
 3803TIP3    H233045   4.412   4.013   3.043  0.2069  0.2754  0.2052
 3804TIP3   OH233046   2.403   6.366   1.664  0.0424  0.1760  0.3676
 3804TIP3    H133047   2.478   6.367   1.723 -0.9156 -1.0138  1.6451
 3804TIP3    H233048   2.420   6.293   1.604 -0.3565 -0.4980  1.0527
 3805TIP3   OH233049   4.592   4.174   7.785 -0.6780  0.4929 -0.7895
 3805TIP3    H133050   4.508   4.216   7.763 -1.5494 -1.0668 -0.5904
 3805TIP3    H233051   4.579   4.082   7.763  0.7607  0.0970 -0.0994
 3806TIP3   OH233052   3.471   4.362   1.285  0.2579 -0.1429  0.4933
 3806TIP3    H133053   3.499   4.317   1.365  1.2640 -1.7092 -0.6661
 3806TIP3    H233054   3.393   4.315   1.257 -0.3170  0.6476  0.7302
 3807TIP3   OH233055   0.190   5.958   0.005 -0.3196  0.6448  0.5000
 3807TIP3    H133056   0.096   5.940  -0.002  0.3147 -2.6173 -2.2582
 3807TIP3    H233057   0.222   5.953  -0.085  2.5833  1.2150  1.4066
 3808TIP3   OH233058   0.790   2.131   2.738 -0.1589 -0.6754 -0.2698
 3808TIP3    H133059   0.849   2.104   2.808 -0.6691 -0.1810  0.3596
 3808TIP3    H233060   0.739   2.203   2.775 -1.4148 -1.3157 -0.6686
 3809TIP3   OH233061   1.638   6.689   0.611 -0.7081 -0.1067 -0.2376
 3809TIP3    H133062   1.721   6.662   0.649 -1.2231 -1.4209  0.0158
 3809TIP3    H233063   1.584   6.715   0.686 -0.7016  0.2419 -0.3526
 3810TIP3   OH233064   1.202   0.056   8.202  0.1266 -0.0032 -0.0702
 3810TIP3    H133065   1.254   0.121   8.250  1.2064  0.3498 -1.6198
 3810TIP3    H233066   1.262  -0.017   8.187 -0.3796 -0.3751 -0.3159
 3811TIP3   OH233067   0.438   6.221   8.278 -0.6795  0.3755  0.0020
 3811TIP3    H133068   0.378   6.205   8.206 -0.4233  0.8720 -0.3289
 3811TIP3    H233069   0.473   6.309   8.261  0.1757  0.0763  0.1535
 3812TIP3   OH233070   0.674   5.790   1.259 -0.1081 -0.5517  0.3854
 3812TIP3    H133071   0.753   5.843   1.255  1.6374 -3.0834 -1.1973
 3812TIP3    H233072   0.605   5.848   1.225  1.4680  1.0102 -0.3184
 3813TIP3   OH233073   5.375   5.930   8.606 -0.3278  0.0565 -0.4616
 3813TIP3    H133074   5.285   5.900   8.594 -0.4992  1.4011 -3.3837
 3813TIP3    H233075   5.425   5.879   8.542  1.0620 -0.7351  1.1877
 3814TIP3   OH233076   3.778   5.213   1.932  0.2885 -0.1773 -0.7323
 3814TIP3    H133077   3.691   5.174   1.937  0.0737  0.2707 -0.9213
 3814TIP3    H233078   3.762   5.306   1.917  0.7578  0.4205  2.0483
 3815TIP3   OH233079   1.679   5.192   0.235  0.4243 -0.1527 -0.2346
 3815TIP3    H133080   1.645   5.256   0.298 -1.1373 -1.3139  0.1558
 3815TIP3    H233081   1.678   5.238   0.151  1.4291  1.0355  0.3651
 3816TIP3   OH233082   3.483   1.323   1.726  0.1256 -0.2064 -0.5111
 3816TIP3    H133083   3.576   1.300   1.725 -0.0591 -0.9945 -1.5821
 3816TIP3    H233084   3.448   1.284   1.646 -1.4910 -1.4947  0.7598
 3817TIP3   OH233085   5.837   4.375   1.631 -0.3731  0.1391  0.1399
 3817TIP3    H133086   5.874   4.427   1.703 -1.6698  0.8239  0.3412
 3817TIP3    H233087   5.914   4.337   1.588  0.4312 -0.5425  2.0450
 3818TIP3   OH233088   3.814   4.966   8.250 -0.3176  0.3695  0.2860
 3818TIP3    H133089   3.869   5.019   8.193 -0.0611 -1.0118 -0.7991
 3818TIP3    H233090   3.871   4.941   8.323  0.0383  0.2503 -0.0308
 3819TIP3   OH233091   0.594   1.566   0.988  0.1264  0.2645 -0.4731
 3819TIP3    H133092   0.551   1.635   0.937 -0.2747  0.8747  0.6661
 3819TIP3    H233093   0.655   1.525   0.926 -0.1757  1.1392 -1.3721
 3820TIP3   OH233094   3.689   4.472   0.536 -0.9514 -0.1914 -0.2562
 3820TIP3    H133095   3.679   4.388   0.491 -0.0293  0.2141 -1.2899
 3820TIP3    H233096   3.753   4.520   0.482  0.1761  0.3511  1.4697
 3821TIP3   OH233097   2.105   3.159   0.997 -0.0311  0.1639 -0.0435
 3821TIP3    H133098   2.168   3.090   1.020  0.4424  0.4479 -0.4871
 3821TIP3    H233099   2.126   3.181   0.906 -0.1880  0.8905  0.0951
 3822TIP3   OH233100   0.240   3.693   2.256  0.6984 -0.8806 -0.5257
 3822TIP3    H133101   0.279   3.642   2.326 -0.6961 -2.6429 -0.9547
 3822TIP3    H233102   0.313   3.741   2.217  1.6211 -0.4795  1.5775
 3823TIP3   OH233103   1.736   4.960   0.473 -0.6537  0.3358 -0.6930
 3823TIP3    H133104   1.736   4.949   0.377  1.5617 -0.8511 -0.6245
 3823TIP3    H233105   1.702   5.048   0.487  2.6523  2.2131 -2.9097
 3824TIP3   OH233106   5.001   3.082   3.078 -0.1780  0.3484  0.4415
 3824TIP3    H133107   4.921   3.087   3.130 -0.4820  1.3604 -0.0910
 3824TIP3    H233108   5.068   3.125   3.132 -0.1493  0.1030  0.6023
 3825TIP3   OH233109   4.961   0.744   1.468 -0.5460 -0.4247 -0.0280
 3825TIP3    H133110   4.969   0.701   1.383 -0.8469 -1.7089  0.5718
 3825TIP3    H233111   4.895   0.693   1.515  0.0123 -0.0734  1.1815
 3826TIP3   OH233112   6.410   3.400   0.199 -0.5220 -0.2655 -0.0596
 3826TIP3    H133113   6.400   3.310   0.231 -0.5645 -0.6980 -1.2016
 3826TIP3    H233114   6.408   3.391   0.103 -1.7686  1.1035 -0.1914
 3827TIP3   OH233115   4.726   6.247   7.862 -0.0608  0.3431  0.3767
 3827TIP3    H133116   4.818   6.220   7.855 -0.0856 -0.3221  2.1023
 3827TIP3    H233117   4.727   6.314   7.931 -0.7279  1.1753 -0.4016
 3828TIP3   OH233118   0.103   2.118   0.236 -0.0200  0.3813  0.0270
 3828TIP3    H133119   0.106   2.193   0.295 -0.2313  1.1629 -0.9354
 3828TIP3    H233120   0.195   2.098   0.218  0.0477  0.0840  0.6771
 3829TIP3   OH233121   4.526   6.854   0.789 -0.4273 -0.0786  0.1437
 3829TIP3    H133122   4.549   6.811   0.707  0.2564  1.5704 -0.5778
 3829TIP3    H233123   4.528   6.947   0.769  0.4994  0.4178  2.2222
 3830TIP3   OH233124   6.486   4.103   3.487  0.5276  0.2269 -0.3745
 3830TIP3    H133125   6.423   4.037   3.515  1.7611 -1.8862 -2.2658
 3830TIP3    H233126   6.549   4.109   3.558  0.1729 -0.3054 -0.0119
 3831TIP3   OH233127   2.547   6.220   0.001  0.2789  0.5471  0.3056
 3831TIP3    H133128   2.602   6.227   0.079  0.0504  0.6791  0.4565
 3831TIP3    H233129   2.477   6.284   0.016 -0.4790 -0.3290  0.5756
 3832TIP3   OH233130   2.960   5.185   1.136  0.2611  0.1224 -0.1423
 3832TIP3    H133131   2.895   5.132   1.182 -0.9602 -0.2639 -2.1848
 3832TIP3    H233132   2.961   5.269   1.183 -0.7941 -0.3067  0.6731
 3833TIP3   OH233133   4.125   5.918   7.139 -0.5862 -0.1148  0.2662
 3833TIP3    H133134   4.176   5.839   7.154 -0.7820 -0.2025  0.4766
 3833TIP3    H233135   4.188   5.990   7.150 -0.2766 -0.2586 -0.5125
 3834TIP3   OH233136   4.712   4.986   1.671  0.1016  0.0229 -0.1928
 3834TIP3    H133137   4.764   5.035   1.735 -1.1081  0.8959  0.1603
 3834TIP3    H233138   4.688   4.905   1.716 -2.3767  1.4482  1.2787
 3835TIP3   OH233139   0.010   2.475   0.236  0.2010  0.3970  0.7310
 3835TIP3    H133140  -0.039   2.536   0.183 -0.0634  0.9370  1.5739
 3835TIP3    H233141   0.102   2.494   0.218  0.2255 -1.8736 -2.3054
 3836TIP3   OH233142   0.559   1.608   2.150 -0.5074 -0.7323 -0.1042
 3836TIP3    H133143   0.551   1.625   2.056  0.2491  0.2222 -0.0125
 3836TIP3    H233144   0.605   1.524   2.156  2.3789  0.6937 -0.6363
 3837TIP3   OH233145   3.021   1.068   0.280  0.2000  0.3178 -0.0953
 3837TIP3    H133146   2.934   1.107   0.285 -0.4458 -1.0508 -0.1115
 3837TIP3    H233147   3.052   1.064   0.370  0.7112  1.7574 -0.1843
 3838TIP3   OH233148   0.824   0.907   2.987  0.5733  0.0237  0.4993
 3838TIP3    H133149   0.877   0.921   3.066  1.5165  0.9382 -0.2766
 3838TIP3    H233150   0.882   0.930   2.915  0.2856 -2.4054 -0.5904
 3839TIP3   OH233151   3.866   4.435   1.999 -0.3186 -0.0859  0.1818
 3839TIP3    H133152   3.924   4.482   2.059  0.4127 -0.8638  0.0979
 3839TIP3    H233153   3.832   4.362   2.051 -1.5946  0.5911  0.3680
 3840TIP3   OH233154   3.512   5.248   8.509  0.2963 -0.2303 -0.2912
 3840TIP3    H133155   3.531   5.160   8.543 -1.4066 -0.3296  0.5428
 3840TIP3    H233156   3.522   5.239   8.414  2.1928 -0.7465 -0.0918
 3841TIP3   OH233157   5.914   2.314   3.053  0.0061  0.2536  0.4759
 3841TIP3    H133158   5.880   2.300   2.965 -1.5539  0.2509  1.0543
 3841TIP3    H233159   5.935   2.226   3.085  0.8635  0.2781  0.0242
 3842TIP3   OH233160   3.502   6.510   1.313  0.4847 -0.1351 -0.3651
 3842TIP3    H133161   3.500   6.494   1.408 -2.1232 -0.0481 -0.3403
 3842TIP3    H233162   3.466   6.429   1.275 -0.0630  0.4647 -1.1501
 3843TIP3   OH233163   1.947   1.755   1.864  0.0478 -0.3643  0.5790
 3843TIP3    H133164   1.853   1.769   1.854  0.2278  2.6249  1.9394
 3843TIP3    H233165   1.982   1.754   1.775 -1.1645 -0.4690  0.0963
 3844TIP3   OH233166   5.130   6.348   7.643  0.3876  0.7377  0.0159
 3844TIP3    H133167   5.134   6.418   7.708 -0.5146 -0.3207  1.2464
 3844TIP3    H233168   5.220   6.316   7.637  0.9555  2.3648 -1.0411
 3845TIP3   OH233169   0.871   1.622   2.025 -0.5135 -0.0283  0.0377
 3845TIP3    H133170   0.810   1.629   2.099  0.2321 -0.0441  0.6613
 3845TIP3    H233171   0.957   1.610   2.065 -0.3368 -2.2430 -0.8345
 3846TIP3   OH233172   5.419   5.453   1.285  0.2318 -0.4891  0.0005
 3846TIP3    H133173   5.504   5.438   1.244 -0.0342 -0.2993 -0.6254
 3846TIP3    H233174   5.432   5.428   1.377  1.5854  1.5977  0.4586
 3847TIP3   OH233175   2.790   5.543   1.754 -0.1647  0.4097  0.4356
 3847TIP3    H133176   2.734   5.617   1.777 -0.3563  0.3286  0.2305
 3847TIP3    H233177   2.783   5.536   1.659  0.9572  1.0098  0.2887
 3848TIP3   OH233178   5.349   4.057   8.504  0.4647  0.2872 -0.0031
 3848TIP3    H133179   5.383   4.143   8.529  0.0003  0.6665 -0.6401
 3848TIP3    H233180   5.274   4.076   8.448 -0.2228 -0.5345  0.6055
 3849TIP3   OH233181   3.490   6.329   0.132 -0.1669 -0.0325  0.1683
 3849TIP3    H133182   3.545   6.306   0.208  2.7963  0.7870 -1.5615
 3849TIP3    H233183   3.484   6.424   0.135 -1.8093 -0.1166  0.4474
 3850TIP3   OH233184   1.338   6.279   0.764  0.2065  0.4612 -0.1817
 3850TIP3    H133185   1.349   6.202   0.708  0.3352  0.9080 -0.7840
 3850TIP3    H233186   1.300   6.245   0.845  0.9754 -0.3388 -0.1448
 3851TIP3   OH233187   5.889   1.891   8.158  0.4363  0.6950 -0.4259
 3851TIP3    H133188   5.886   1.806   8.114  1.0869  0.9100 -0.8966
 3851TIP3    H233189   5.826   1.945   8.109 -0.4715  0.3019  0.2860
 3852TIP3   OH233190   5.561   5.484   0.414 -0.2544 -0.4069 -0.0812
 3852TIP3    H133191   5.518   5.552   0.362 -2.0295 -1.6313 -0.2942
 3852TIP3    H233192   5.566   5.408   0.355  1.6450 -0.5254  0.1674
 3853TIP3   OH233193   2.007   2.726   1.646 -0.6026 -0.5954  0.2160
 3853TIP3    H133194   2.092   2.720   1.602  0.3107  1.2237  1.5730
 3853TIP3    H233195   2.025   2.704   1.737 -1.5028  0.1031  0.5870
 3854TIP3   OH233196   2.287   5.739   7.770 -0.2005 -0.3037  0.3332
 3854TIP3    H133197   2.252   5.810   7.823  0.0990 -0.2242  0.4249
 3854TIP3    H233198   2.210   5.688   7.745 -0.4652  0.3001 -0.0994
 3855TIP3   OH233199   0.773   3.470   2.280 -0.2311 -0.5724  0.5024
 3855TIP3    H133200   0.755   3.520   2.360 -0.7753 -0.5054  0.3430
 3855TIP3    H233201   0.738   3.524   2.210 -1.6337 -1.5752  0.3979
 3856TIP3   OH233202   4.596   6.555   0.077 -0.1631 -0.5806  0.1875
 3856TIP3    H133203   4.679   6.513   0.057 -0.4750 -0.4249 -1.6705
 3856TIP3    H233204   4.530   6.488   0.061 -0.6164  0.3246 -2.1455
 3857TIP3   OH233205   5.489   0.143   0.664 -0.2704 -0.2508 -0.1427
 3857TIP3    H133206   5.551   0.173   0.730  0.4892 -0.6066 -0.6819
 3857TIP3    H233207   5.408   0.126   0.713  0.5430 -1.4087  0.8582
 3858TIP3   OH233208   0.553   3.108   1.565 -0.5280 -0.1540  0.4070
 3858TIP3    H133209   0.472   3.149   1.595 -1.6177 -2.1077  0.3483
 3858TIP3    H233210   0.611   3.110   1.642 -0.6262  1.2263  0.4605
 3859TIP3   OH233211   5.350   4.769   0.738 -0.5211  0.3920  0.0086
 3859TIP3    H133212   5.360   4.861   0.710 -3.2047  1.1784  1.2580
 3859TIP3    H233213   5.257   4.751   0.726 -0.3586 -1.6479  1.3543
 3860TIP3   OH233214   3.606   6.226   0.346 -0.0263 -0.4898 -0.3604
 3860TIP3    H133215   3.678   6.169   0.319 -0.5286 -1.2641 -0.1052
 3860TIP3    H233216   3.585   6.198   0.435 -1.3186 -0.9903 -0.7927
 3861TIP3   OH233217   4.482   5.005   2.294  0.0787  1.0044  0.0702
 3861TIP3    H133218   4.572   4.976   2.279 -0.8879 -2.2634 -0.2879
 3861TIP3    H233219   4.458   5.051   2.214  0.6340 -0.4998 -1.0117
 3862TIP3   OH233220   5.808   3.460   7.817  0.1495  0.1015 -0.6943
 3862TIP3    H133221   5.895   3.447   7.778 -0.7003 -1.5665 -2.1265
 3862TIP3    H233222   5.784   3.549   7.790  2.2559  1.5398  1.6096
 3863TIP3   OH233223   5.810   4.044   2.242  0.1315  0.2152  0.2957
 3863TIP3    H133224   5.830   4.118   2.299  1.7758  0.3660 -0.4324
 3863TIP3    H233225   5.887   3.987   2.249 -0.7507 -1.0416  0.2119
 3864TIP3   OH233226   3.528   3.656   0.361  0.3469 -0.1299 -0.1144
 3864TIP3    H133227   3.475   3.583   0.329  3.6167 -2.1904 -1.3270
 3864TIP3    H233228   3.480   3.689   0.437 -2.0775 -2.4826 -0.4774
 3865TIP3   OH233229   0.439   2.054   0.358  0.3338  0.0001  0.5665
 3865TIP3    H133230   0.377   2.006   0.413 -0.4897 -0.9820 -1.1314
 3865TIP3    H233231   0.409   2.144   0.362 -0.3802 -0.2408  0.8501
 3866TIP3   OH233232   3.734   4.206   2.731  0.3942 -0.1314 -0.0797
 3866TIP3    H133233   3.783   4.274   2.777  0.8027 -0.0774 -0.5873
 3866TIP3    H233234   3.785   4.126   2.745  0.9213  0.0224 -1.0476
 3867TIP3   OH233235   0.601   4.901   2.841  0.0803 -0.3348 -0.6987
 3867TIP3    H133236   0.677   4.958   2.850  1.1544 -1.7309 -0.6407
 3867TIP3    H233237   0.599   4.878   2.748 -0.5053 -0.0408 -0.7704
 3868TIP3   OH233238   5.467   0.561   0.915  0.0021  0.2229 -0.4770
 3868TIP3    H133239   5.391   0.541   0.859 -0.4024  0.3811  0.0022
 3868TIP3    H233240   5.429   0.577   1.001  0.7347 -1.3203  0.1642
 3869TIP3   OH233241   3.046   0.964   3.260 -0.6527 -0.2341 -0.4015
 3869TIP3    H133242   2.991   1.028   3.306 -0.0424 -0.3926  0.5642
 3869TIP3    H233243   2.989   0.888   3.246 -0.1866 -1.1876  2.3522
 3870TIP3   OH233244   4.068   3.545   2.347  0.1004 -0.5030 -0.1917
 3870TIP3    H133245   3.977   3.534   2.318  0.0271  1.3750 -0.8302
 3870TIP3    H233246   4.068   3.630   2.391  1.2567 -1.1555  1.1162
 3871TIP3   OH233247   2.509   1.579   2.859  0.4859 -0.5909 -0.5323
 3871TIP3    H133248   2.471   1.520   2.793 -0.4409  1.6924 -2.1998
 3871TIP3    H233249   2.603   1.577   2.842  0.6937 -2.8130  0.5868
 3872TIP3   OH233250   2.266   3.656   1.149 -0.2410 -0.0720 -0.2331
 3872TIP3    H133251   2.212   3.585   1.113 -0.9462 -0.0629  0.7856
 3872TIP3    H233252   2.305   3.696   1.071  1.2514 -2.3906 -0.7786
 3873TIP3   OH233253   1.041   2.578   1.322 -0.1039 -0.3194 -0.2662
 3873TIP3    H133254   1.057   2.489   1.291 -0.0313 -0.5159  0.3095
 3873TIP3    H233255   0.976   2.613   1.262 -0.2252 -0.8081 -0.4289
 3874TIP3   OH233256   1.599   6.684   2.991  0.2870  0.5366  0.2953
 3874TIP3    H133257   1.563   6.612   2.939  1.7931 -0.6949  0.8616
 3874TIP3    H233258   1.680   6.709   2.946  0.3573  1.1147  0.7226
 3875TIP3   OH233259   2.685   2.542   8.282 -0.1384 -0.3075 -0.5689
 3875TIP3    H133260   2.701   2.624   8.327 -0.1170 -0.7500  0.2351
 3875TIP3    H233261   2.691   2.565   8.189  0.2627  0.5129 -0.3517
 3876TIP3   OH233262   2.496   2.912   1.088  0.3761 -0.0005  0.1300
 3876TIP3    H133263   2.407   2.926   1.055  0.3958  0.0716  0.1068
 3876TIP3    H233264   2.543   2.878   1.012  1.0562  2.5054 -0.6671
 3877TIP3   OH233265   2.219   1.235   3.307  0.0205  0.1029 -0.0380
 3877TIP3    H133266   2.223   1.193   3.393 -1.3754  0.9041  0.4479
 3877TIP3    H233267   2.300   1.209   3.264  0.0732 -1.5136  0.9569
 3878TIP3   OH233268   0.546   3.734   1.724  0.2570 -0.3063 -0.6495
 3878TIP3    H133269   0.496   3.813   1.705 -0.8340 -0.7715  0.1836
 3878TIP3    H233270   0.565   3.738   1.818  3.8019  0.9556 -1.2500
 3879TIP3   OH233271   6.661   1.259   2.784  0.6755  0.5160  0.1305
 3879TIP3    H133272   6.740   1.270   2.837  0.5494 -0.1687  0.4738
 3879TIP3    H233273   6.627   1.347   2.774  0.8977  0.7022  0.8976
 3880TIP3   OH233274   3.324   4.274   3.450  0.6527 -0.3256  0.3267
 3880TIP3    H133275   3.354   4.353   3.497  1.5920 -0.3224 -0.2620
 3880TIP3    H233276   3.273   4.308   3.377 -0.0614 -0.3081  0.8221
 3881TIP3   OH233277   4.941   5.862   1.046 -0.0114  0.3158 -0.3386
 3881TIP3    H133278   4.893   5.786   1.078  1.3237 -0.4218  0.0004
 3881TIP3    H233279   4.875   5.916   1.002 -0.9190 -1.2249 -0.9391
 3882TIP3   OH233280   0.516   4.500   2.557  1.1017  0.5736  0.0660
 3882TIP3    H133281   0.472   4.430   2.509  1.2438  1.3827 -1.2937
 3882TIP3    H233282   0.492   4.486   2.649 -0.9411  0.2515 -0.4774
 3883TIP3   OH233283   5.328   6.634   3.672  0.6022  0.3382  0.2246
 3883TIP3    H133284   5.257   6.644   3.608  1.1855 -0.5357 -0.5861
 3883TIP3    H233285   5.295   6.571   3.735  0.5039  0.2203  0.0580
 3884TIP3   OH233286   5.152   0.729   3.080 -0.2414 -0.2172 -0.1101
 3884TIP3    H133287   5.183   0.712   3.169 -2.3920  1.2072  1.0069
 3884TIP3    H233288   5.141   0.642   3.041 -0.1170 -0.9079  1.3416
 3885TIP3   OH233289   1.232   2.422   3.277 -0.1464  0.5460  0.2440
 3885TIP3    H133290   1.270   2.496   3.229  1.3470 -2.1563 -3.2596
 3885TIP3    H233291   1.306   2.362   3.290 -1.8398 -1.7491 -0.1306
 3886TIP3   OH233292   0.028   5.322   0.562 -0.2483  0.0461  0.0735
 3886TIP3    H133293   0.033   5.270   0.642  1.0665  0.0051 -0.0272
 3886TIP3    H233294  -0.066   5.340   0.552 -0.6223 -1.4489  0.6428
 3887TIP3   OH233295   1.444   3.310   2.664 -0.0001  0.3507 -0.3562
 3887TIP3    H133296   1.496   3.237   2.630 -0.9988 -0.4918 -0.1068
 3887TIP3    H233297   1.359   3.302   2.621 -1.2276 -0.5807  2.0522
 3888TIP3   OH233298   1.902   0.405   8.473  0.2856  0.2143 -0.0865
 3888TIP3    H133299   1.841   0.471   8.440 -1.1526 -1.1638 -0.3300
 3888TIP3    H233300   1.879   0.325   8.425  2.2861 -0.3764 -0.1485
 3889TIP3   OH233301   6.452   3.164   7.953 -0.2857 -0.3038  0.1346
 3889TIP3    H133302   6.481   3.174   7.862  0.3728 -0.1511  0.3507
 3889TIP3    H233303   6.442   3.070   7.965 -1.4849 -0.2620 -0.4198
 3890TIP3   OH233304   2.984   3.773   2.549 -0.2822  0.7526 -0.3661
 3890TIP3    H133305   2.926   3.850   2.554  0.2546  1.0836  2.6253
 3890TIP3    H233306   3.066   3.803   2.588  1.7260 -0.0010 -3.6069
 3891TIP3   OH233307   2.432   5.189   2.931  0.0191 -0.1118  0.0176
 3891TIP3    H133308   2.487   5.266   2.937 -0.0873  0.0480 -0.9648
 3891TIP3    H233309   2.391   5.182   3.018  0.0706  0.8977  0.1308
 3892TIP3   OH233310   3.785   5.739   0.019  0.2916 -0.0059 -0.1407
 3892TIP3    H133311   3.776   5.649  -0.012  0.1542  0.5241 -1.6980
 3892TIP3    H233312   3.695   5.772   0.025  0.3165 -0.0750  0.7931
 3893TIP3   OH233313   0.261   4.444   0.627  0.0667  0.1014 -0.0490
 3893TIP3    H133314   0.180   4.474   0.584  0.8462  0.1994 -1.5134
 3893TIP3    H233315   0.300   4.523   0.663 -1.4906 -0.1898  2.6038
 3894TIP3   OH233316   0.709   4.637   1.861  0.6188  0.4873 -0.4488
 3894TIP3    H133317   0.640   4.600   1.807  0.8953  1.8479 -1.7949
 3894TIP3    H233318   0.683   4.728   1.876  0.7157  0.2505  1.4770
 3895TIP3   OH233319   0.721   6.388   0.464  0.5985  0.4123 -0.4309
 3895TIP3    H133320   0.638   6.377   0.418  0.6237  0.4343 -0.4827
 3895TIP3    H233321   0.740   6.482   0.458  1.1328  0.2641 -1.3237
 3896TIP3   OH233322   1.478   2.649   1.939  0.1800  0.5289 -0.1016
 3896TIP3    H133323   1.481   2.724   1.998  0.4964  0.4590 -0.0253
 3896TIP3    H233324   1.569   2.619   1.935  0.6109  1.9105 -2.3804
 3897TIP3   OH233325   0.085   5.368   1.902 -0.4081  0.3111  0.2494
 3897TIP3    H133326   0.145   5.353   1.829  1.0550 -1.2975  1.6908
 3897TIP3    H233327   0.030   5.440   1.873  1.0051  0.6282 -1.8912
 3898TIP3   OH233328   5.523   3.994   2.634 -0.1905  0.4142 -0.4649
 3898TIP3    H133329   5.505   4.044   2.554 -0.5347  0.4558 -0.3651
 3898TIP3    H233330   5.611   3.961   2.623 -0.4416 -0.0478 -1.1120
 3899TIP3   OH233331   1.732   5.146   1.318 -0.1925 -0.6029 -0.2818
 3899TIP3    H133332   1.721   5.241   1.322 -1.1257 -0.7403  1.0572
 3899TIP3    H233333   1.673   5.117   1.249 -0.5189 -0.2878 -0.1379
 3900TIP3   OH233334   0.070   6.001   3.522 -0.0559 -0.2183  0.3549
 3900TIP3    H133335   0.049   6.094   3.532  1.8484  0.2752  0.1635
 3900TIP3    H233336   0.060   5.964   3.610 -0.6535  0.2001  0.4656
 3901TIP3   OH233337   2.016   5.133   2.084 -0.1242 -0.2668 -0.2152
 3901TIP3    H133338   1.935   5.184   2.093  1.1233  1.6018  1.3954
 3901TIP3    H233339   1.999   5.051   2.129 -0.8832  0.4627  0.8740
 3902TIP3   OH233340   2.609   0.216   3.147 -0.0094 -0.0553 -0.6104
 3902TIP3    H133341   2.562   0.264   3.080 -1.2608 -0.8637 -0.3554
 3902TIP3    H233342   2.568   0.243   3.229 -0.3954 -1.1517 -0.4252
 3903TIP3   OH233343   5.656   6.870   1.179  0.4856 -0.6319  0.1099
 3903TIP3    H133344   5.676   6.963   1.180  0.0782 -0.5445  0.0899
 3903TIP3    H233345   5.699   6.837   1.100 -1.3390 -0.0131 -1.2214
 3904TIP3   OH233346   3.866   6.477   2.669  0.0209  0.2987  0.1202
 3904TIP3    H133347   3.909   6.558   2.640 -2.0393  2.1254  1.7644
 3904TIP3    H233348   3.860   6.487   2.764 -0.8740 -1.5149  0.2797
 3905TIP3   OH233349   3.914   6.769   2.976  0.0257 -0.0679  0.0932
 3905TIP3    H133350   3.959   6.766   2.892  0.1029 -3.7334  0.1089
 3905TIP3    H233351   3.866   6.686   2.981 -2.0319  1.1287  2.6100
 3906TIP3   OH233352   5.475   4.651   2.907  0.0471 -0.0195 -0.2114
 3906TIP3    H133353   5.408   4.589   2.878  0.3117 -0.4842  0.1729
 3906TIP3    H233354   5.503   4.619   2.993  0.7545  0.1709 -0.3617
 3907TIP3   OH233355   2.833   1.238   3.692  0.2971  0.1757 -0.1007
 3907TIP3    H133356   2.792   1.171   3.747 -0.2328  1.7458  1.5138
 3907TIP3    H233357   2.900   1.278   3.747  0.2646  1.3086 -0.8350
 3908TIP3   OH233358   2.126   2.790   1.259 -0.0700 -0.2456  0.1053
 3908TIP3    H133359   2.045   2.743   1.279 -1.6664  1.7538 -1.3003
 3908TIP3    H233360   2.144   2.840   1.339  0.8775 -2.0557  1.0980
 3909TIP3   OH233361   1.365   0.485   0.041 -0.1434 -0.2168 -0.4941
 3909TIP3    H133362   1.301   0.555   0.050 -0.6387 -0.5565 -1.2892
 3909TIP3    H233363   1.410   0.482   0.126 -1.5592 -0.3539  0.2766
 3910TIP3   OH233364   3.200   4.692   2.305 -0.1858  0.4440 -0.2662
 3910TIP3    H133365   3.246   4.623   2.354 -0.5725  0.8106  0.6407
 3910TIP3    H233366   3.210   4.770   2.359  2.3284  1.7632 -2.4130
 3911TIP3   OH233367   6.402   5.514   2.792  0.0793 -0.2991 -0.0380
 3911TIP3    H133368   6.475   5.467   2.750  0.3014 -0.1128  0.1417
 3911TIP3    H233369   6.327   5.457   2.778 -0.3946  0.8470 -2.8694
 3912TIP3   OH233370   6.246   6.132   0.101 -0.1325 -0.1401  0.3231
 3912TIP3    H133371   6.227   6.040   0.120 -1.0028  0.0478  0.3938
 3912TIP3    H233372   6.167   6.164   0.056  0.4618  0.3720 -0.3849
 3913TIP3   OH233373   2.748   5.354   2.228 -0.0647 -0.6138 -0.3081
 3913TIP3    H133374   2.815   5.418   2.251 -0.4908 -0.3229  0.1670
 3913TIP3    H233375   2.768   5.278   2.283  1.8512 -1.8607 -2.5282
 3914TIP3   OH233376   4.528   0.377   0.218  0.7254  0.5560 -0.0531
 3914TIP3    H133377   4.455   0.418   0.172  1.2178  1.2287 -0.2514
 3914TIP3    H233378   4.599   0.373   0.153  1.4969  1.7054  0.6772
 3915TIP3   OH233379   3.275   4.309   0.450 -0.4866  1.0634  0.0309
 3915TIP3    H133380   3.222   4.360   0.512 -2.2883  0.3045 -0.7918
 3915TIP3    H233381   3.217   4.295   0.375 -0.8161 -3.5711  0.8626
 3916TIP3   OH233382   2.797   0.420   0.241  0.1803  0.0487 -0.3174
 3916TIP3    H133383   2.701   0.423   0.231  0.0906  1.5429  0.6398
 3916TIP3    H233384   2.831   0.462   0.162  0.0199  0.1170 -0.3507
 3917TIP3   OH233385   4.217   4.791   1.850  0.6713  1.0474  0.4632
 3917TIP3    H133386   4.121   4.788   1.847  0.6725 -0.9111  0.5131
 3917TIP3    H233387   4.244   4.758   1.764  1.1919 -2.6282  1.8534
 3918TIP3   OH233388   1.083   1.477   3.783 -0.0344  0.1700  0.6674
 3918TIP3    H133389   0.991   1.488   3.806  0.1068  0.5377  1.0833
 3918TIP3    H233390   1.082   1.435   3.697 -0.5902  0.4066  0.5546
 3919TIP3   OH233391   4.391   4.413   1.696 -0.0132 -0.0418  0.1400
 3919TIP3    H133392   4.375   4.320   1.711  1.4181 -0.4739 -0.8379
 3919TIP3    H233393   4.476   4.430   1.738  0.4903  0.4385 -1.0401
 3920TIP3   OH233394   4.419   3.225   2.762  0.0052 -0.2679  0.4222
 3920TIP3    H133395   4.376   3.215   2.847 -0.2223 -1.1895  0.2085
 3920TIP3    H233396   4.461   3.140   2.747 -0.5707 -0.3624 -0.7245
 3921TIP3   OH233397   2.641   0.301   2.044  0.0675 -0.3882 -0.5211
 3921TIP3    H133398   2.577   0.236   2.072  0.9199 -1.0060  0.0550
 3921TIP3    H233399   2.664   0.348   2.124  1.1231 -0.9053 -0.4990
 3922TIP3   OH233400   2.478   6.361   0.990 -0.3101 -0.2623  0.3782
 3922TIP3    H133401   2.530   6.282   1.009 -0.7306 -0.2140  1.8612
 3922TIP3    H233402   2.390   6.340   1.022 -0.9913  0.0196 -1.2226
 3923TIP3   OH233403   0.336   0.608   1.298 -0.4673 -0.1050  0.4233
 3923TIP3    H133404   0.384   0.686   1.270 -0.4224  0.1048  1.0585
 3923TIP3    H233405   0.278   0.589   1.225  1.4616 -1.1401 -0.9422
 3924TIP3   OH233406   1.234   4.512   1.450 -0.1660 -0.2010  0.6027
 3924TIP3    H133407   1.227   4.601   1.484 -1.9244  0.1912 -0.6603
 3924TIP3    H233408   1.223   4.521   1.355  0.9847 -1.6354  0.2799
 3925TIP3   OH233409   3.647   6.055   3.495  0.0196  0.1350 -0.1421
 3925TIP3    H133410   3.639   6.066   3.400  0.2825 -0.6806 -0.2624
 3925TIP3    H233411   3.709   6.123   3.522 -1.0892  1.2748 -0.3418
 3926TIP3   OH233412   0.417   1.061   0.307  0.3789  0.2123 -0.3289
 3926TIP3    H133413   0.426   1.127   0.376 -2.6831 -1.3242  1.8033
 3926TIP3    H233414   0.355   1.100   0.245 -1.2653 -0.4590  0.8216
 3927TIP3   OH233415   4.203   5.779   0.005  0.9008 -0.2049 -0.0685
 3927TIP3    H133416   4.200   5.854   0.065 -0.9471  0.8113 -1.3124
 3927TIP3    H233417   4.256   5.809  -0.069 -0.2662  0.1223 -0.8062
 3928TIP3   OH233418   1.974   6.453   0.463  0.7915  0.5972 -0.3382
 3928TIP3    H133419   1.944   6.362   0.460 -1.4118  1.2029  1.1613
 3928TIP3    H233420   1.920   6.498   0.397 -0.0682  1.2844  0.8006
 3929TIP3   OH233421   4.044   5.514   3.342 -0.2466  0.3071  0.2163
 3929TIP3    H133422   3.991   5.435   3.348  0.1716  0.0659  0.7550
 3929TIP3    H233423   4.134   5.483   3.335 -0.1339  0.7230 -0.2882
 3930TIP3   OH233424   6.671   4.632   0.591  0.5883  0.2864  0.2892
 3930TIP3    H133425   6.677   4.605   0.682  1.6868  0.2510  0.2166
 3930TIP3    H233426   6.684   4.552   0.541  0.7350  0.4272  0.0984
 3931TIP3   OH233427   6.253   4.316   3.541 -0.0279 -0.7037 -0.0991
 3931TIP3    H133428   6.313   4.275   3.480  0.4998  0.3389 -0.2927
 3931TIP3    H233429   6.288   4.294   3.628 -1.1163 -2.6996 -0.1037
 3932TIP3   OH233430   1.071   1.994   1.442 -0.7195  0.1466 -0.3528
 3932TIP3    H133431   1.022   1.978   1.523 -1.9277 -0.0344 -1.0881
 3932TIP3    H233432   1.012   1.964   1.373 -0.0123  0.9923 -1.3461
 3933TIP3   OH233433   1.186   1.209   8.516 -0.6504 -0.1110  0.2493
 3933TIP3    H133434   1.153   1.202   8.426 -0.9449  0.0836  0.3398
 3933TIP3    H233435   1.185   1.119   8.549 -0.3577 -0.2084 -0.0056
 3934TIP3   OH233436   1.470   0.127   8.619  0.3253  0.1898 -0.1677
 3934TIP3    H133437   1.413   0.063   8.577  0.1190  1.1972 -1.5060
 3934TIP3    H233438   1.556   0.113   8.578  0.2938  0.7013 -0.4200
 3935TIP3   OH233439   4.892   6.112   2.291 -0.2073  0.3227 -0.5129
 3935TIP3    H133440   4.960   6.094   2.227  1.5537 -1.3062  1.6450
 3935TIP3    H233441   4.825   6.045   2.275  1.1432 -1.3589  0.4680
 3936TIP3   OH233442   5.077   1.131   8.532  0.5392  0.2665 -0.1012
 3936TIP3    H133443   5.148   1.087   8.485 -0.2949 -3.6859  1.9379
 3936TIP3    H233444   5.119   1.170   8.609  0.8283 -0.1500 -0.0440
 3937TIP3   OH233445   1.195   5.620   7.379  0.4862 -0.2733  1.0038
 3937TIP3    H133446   1.171   5.692   7.437 -1.3812 -0.7170  0.8341
 3937TIP3    H233447   1.273   5.582   7.420 -0.6127 -0.4093  3.1176
 3938TIP3   OH233448   0.573   1.706   0.225  0.0661 -0.2406  0.6634
 3938TIP3    H133449   0.626   1.778   0.260  1.2017 -0.4611 -0.5053
 3938TIP3    H233450   0.485   1.741   0.220  1.1792  2.8343 -3.9913
 3939TIP3   OH233451   1.596   4.154   1.530  0.0125 -0.1244  0.4816
 3939TIP3    H133452   1.554   4.237   1.554  1.3732  0.3847  1.1585
 3939TIP3    H233453   1.651   4.176   1.455  0.7038 -0.3311  0.9295
 3940TIP3   OH233454   5.454   4.345   8.247  0.5239 -0.0446 -0.5999
 3940TIP3    H133455   5.505   4.417   8.210  0.3267  1.0443  1.1225
 3940TIP3    H233456   5.366   4.381   8.256  0.4706 -0.4097  0.4690
 3941TIP3   OH233457   0.081   5.911   1.855 -0.0515 -0.2081 -0.0776
 3941TIP3    H133458   0.163   5.889   1.811 -1.1153 -0.2079 -2.2010
 3941TIP3    H233459   0.024   5.836   1.841 -1.0725  0.5988 -0.4023
 3942TIP3   OH233460   2.677   1.702   1.945  0.1044  0.7250 -0.5902
 3942TIP3    H133461   2.593   1.722   1.985  0.0044  1.3831 -1.0987
 3942TIP3    H233462   2.735   1.684   2.019 -1.1496 -2.8288 -0.2758
 3943TIP3   OH233463   0.173   1.714   1.051  0.2663 -0.3940  0.3242
 3943TIP3    H133464   0.163   1.808   1.059 -1.9306 -0.4117 -1.2375
 3943TIP3    H233465   0.233   1.689   1.121  1.1839  2.1817  0.5269
 3944TIP3   OH233466   0.909   0.879   7.704 -0.2901 -0.1400 -0.1046
 3944TIP3    H133467   0.916   0.792   7.666  0.2870  0.4263 -1.3748
 3944TIP3    H233468   0.838   0.921   7.655 -0.1587  0.3059  0.0825
 3945TIP3   OH233469   2.181   1.389   0.577  0.2776 -0.0882  0.0974
 3945TIP3    H133470   2.105   1.349   0.534 -0.1961  1.0061 -0.1098
 3945TIP3    H233471   2.256   1.360   0.525 -0.1062 -0.2732 -0.3616
 3946TIP3   OH233472   3.453   4.435   7.586 -0.2202  0.3894 -0.4099
 3946TIP3    H133473   3.377   4.397   7.629  1.0666 -0.6050  1.0932
 3946TIP3    H233474   3.467   4.381   7.508 -0.7311  0.2645 -0.4148
 3947TIP3   OH233475   6.414   2.778   2.494  0.3768 -0.3625 -0.1921
 3947TIP3    H133476   6.330   2.733   2.481 -0.3954  0.2265  2.2331
 3947TIP3    H233477   6.389   2.867   2.520  1.5856 -0.7912  2.8858
 3948TIP3   OH233478   5.130   3.560   7.562 -0.0482  0.1064  0.3124
 3948TIP3    H133479   5.079   3.636   7.593 -1.5811 -0.4822 -0.6522
 3948TIP3    H233480   5.152   3.581   7.472  0.8808  0.0620  0.5236
 3949TIP3   OH233481   5.741   0.429   2.600 -0.3151 -0.4194 -0.5483
 3949TIP3    H133482   5.824   0.467   2.571 -0.9379  2.2341  0.7495
 3949TIP3    H233483   5.684   0.434   2.523 -0.0144  0.2582 -0.7369
 3950TIP3   OH233484   2.280   5.664   1.696  0.2822 -0.1511  0.5022
 3950TIP3    H133485   2.342   5.723   1.654 -0.8944  0.9936  0.2987
 3950TIP3    H233486   2.295   5.676   1.789  2.5470 -2.3141  0.5045
 3951TIP3   OH233487   2.432   4.523   8.452  0.3140 -0.1889  0.6916
 3951TIP3    H133488   2.488   4.546   8.378 -1.4620  1.4858 -0.2199
 3951TIP3    H233489   2.376   4.599   8.464 -1.8420 -1.8150  1.4938
 3952TIP3   OH233490   0.644   1.180   0.879 -0.0078 -0.4498 -0.2120
 3952TIP3    H133491   0.665   1.214   0.966 -0.3107  0.9368 -0.6514
 3952TIP3    H233492   0.559   1.219   0.858  0.1083 -0.6891 -1.1703
 3953TIP3   OH233493   5.044   6.546   2.966  0.1717 -1.1650 -0.1796
 3953TIP3    H133494   4.970   6.499   2.929 -0.2169 -1.5303  1.0187
 3953TIP3    H233495   5.080   6.486   3.032  0.6449 -0.4214  0.2547
 3954TIP3   OH233496   1.507   5.534   8.308  0.1943 -0.3525  0.5930
 3954TIP3    H133497   1.531   5.522   8.216  0.7501  0.3272  0.6382
 3954TIP3    H233498   1.559   5.469   8.355  0.3711 -0.2907  0.4841
 3955TIP3   OH233499   5.262   6.634   1.203  0.0532  0.0838 -0.2494
 3955TIP3    H133500   5.332   6.576   1.233 -0.2921 -0.2288 -0.0392
 3955TIP3    H233501   5.300   6.722   1.210 -0.0154  0.0332  1.1380
 3956TIP3   OH233502   2.728   6.132   3.037  0.1586 -0.0718 -0.1823
 3956TIP3    H133503   2.824   6.142   3.037  0.1615  0.0726 -1.1950
 3956TIP3    H233504   2.715   6.043   3.003 -0.0909  0.7980 -2.5571
 3957TIP3   OH233505   0.332   4.777   1.228  0.1435  0.0845 -0.4049
 3957TIP3    H133506   0.345   4.688   1.260  0.8787  0.4446  0.3440
 3957TIP3    H233507   0.253   4.773   1.175 -0.9223 -0.6256  1.1774
 3958TIP3   OH233508   1.354   1.735   2.765 -0.4199 -0.4503 -0.3476
 3958TIP3    H133509   1.398   1.672   2.821 -0.7195  1.4914  2.2613
 3958TIP3    H233510   1.426   1.781   2.720  0.2249  1.0336  2.0090
 3959TIP3   OH233511   5.111   0.807   0.407  0.2628 -0.2123 -0.1179
 3959TIP3    H133512   5.044   0.742   0.384  0.7672 -0.5136 -0.7523
 3959TIP3    H233513   5.074   0.853   0.483  0.4150 -2.0680  1.1622
 3960TIP3   OH233514   6.195   6.625   8.237 -0.1280  0.5266  0.1962
 3960TIP3    H133515   6.216   6.703   8.288 -3.0143  1.7000 -0.1840
 3960TIP3    H233516   6.136   6.575   8.294  0.0884 -0.3674 -0.3447
 3961TIP3   OH233517   4.610   5.996   2.007  0.2197  0.0274 -0.5372
 3961TIP3    H133518   4.612   5.925   1.943 -0.0575  1.5349 -2.2955
 3961TIP3    H233519   4.517   6.020   2.013  0.2022 -0.2665  0.6778
 3962TIP3   OH233520   2.569   2.614   7.814 -0.2936  0.0617  0.5368
 3962TIP3    H133521   2.494   2.590   7.760 -0.7382  0.4863  0.9583
 3962TIP3    H233522   2.530   2.640   7.898  0.2914  0.7651  0.5926
 3963TIP3   OH233523   6.415   0.880   8.035 -0.1061  0.4776 -0.1584
 3963TIP3    H133524   6.468   0.958   8.025 -1.2761  1.2376 -0.7196
 3963TIP3    H233525   6.393   0.876   8.128 -1.0393  1.5263 -0.3123
 3964TIP3   OH233526   0.979   5.592   0.354  0.5501 -1.0733 -0.3199
 3964TIP3    H133527   0.938   5.506   0.345 -1.1485 -0.3153 -0.2804
 3964TIP3    H233528   0.925   5.650   0.300 -0.2961  0.5315  2.0438
 3965TIP3   OH233529   1.633   6.440   1.520 -0.2317  0.5909  0.3537
 3965TIP3    H133530   1.668   6.406   1.602  0.6555  1.1500  0.2181
 3965TIP3    H233531   1.620   6.534   1.537  2.6932  1.3438 -0.9967
 3966TIP3   OH233532   3.041   6.350   1.197 -0.3951  0.5647  0.0409
 3966TIP3    H133533   2.948   6.334   1.188 -0.2004 -0.8106  0.2727
 3966TIP3    H233534   3.051   6.393   1.282 -0.5260 -2.4846  1.7419
 3967TIP3   OH233535   1.275   5.020   7.743 -0.0005  0.3229  0.1995
 3967TIP3    H133536   1.260   4.987   7.655  1.0367  0.0628  0.1062
 3967TIP3    H233537   1.363   5.060   7.739  0.4204 -0.4418  1.3137
 3968TIP3   OH233538   6.479   1.911   7.574 -0.5475 -0.3936 -0.3678
 3968TIP3    H133539   6.565   1.941   7.546  0.1142 -0.9848  0.9354
 3968TIP3    H233540   6.442   1.985   7.621 -0.4440 -0.3846 -0.3003
 3969TIP3   OH233541   1.221   4.214   2.750 -0.0587 -0.3419  0.1720
 3969TIP3    H133542   1.277   4.137   2.746 -1.0062 -1.2184  2.2076
 3969TIP3    H233543   1.140   4.183   2.792 -0.3620  1.7864  1.3338
 3970TIP3   OH233544   0.478   6.553   7.812  0.4652  0.5532 -0.0414
 3970TIP3    H133545   0.391   6.538   7.850  0.1033 -1.0567 -1.4287
 3970TIP3    H233546   0.462   6.611   7.737  0.8255  1.5174  0.6021
 3971TIP3   OH233547   2.521   3.095   2.737  0.1113  0.0590 -0.0311
 3971TIP3    H133548   2.441   3.048   2.714  0.6996  0.0435 -2.2755
 3971TIP3    H233549   2.589   3.028   2.734  0.4198  0.3512  0.4013
 3972TIP3   OH233550   5.655   6.079   2.346 -0.2487  0.2908  0.3791
 3972TIP3    H133551   5.580   6.129   2.378 -1.0313  0.9728 -2.2931
 3972TIP3    H233552   5.725   6.098   2.408 -2.2646 -0.5101  3.0702
 3973TIP3   OH233553   5.033   4.882   8.035 -0.6999  0.3667  0.4390
 3973TIP3    H133554   4.995   4.834   7.962 -0.5416  0.8172  0.0483
 3973TIP3    H233555   5.019   4.826   8.111  0.2290 -0.6762 -0.1306
 3974TIP3   OH233556   3.865   6.748   8.375 -0.0337 -0.2443 -0.2499
 3974TIP3    H133557   3.942   6.723   8.426 -0.1067 -1.1339 -0.5684
 3974TIP3    H233558   3.901   6.788   8.296  0.0942 -0.5765 -0.3579
 3975TIP3   OH233559   3.181   2.551   2.041 -0.5290  0.6336  0.3715
 3975TIP3    H133560   3.134   2.470   2.022 -1.4598  1.7554 -2.6419
 3975TIP3    H233561   3.273   2.529   2.027 -0.7777  0.0761 -0.4527
 3976TIP3   OH233562   6.842   4.492   1.255  0.5073  0.1764 -0.3212
 3976TIP3    H133563   6.917   4.506   1.198  0.6992 -1.7693 -0.6331
 3976TIP3    H233564   6.775   4.453   1.198  0.5734 -1.4611  0.6661
 3977TIP3   OH233565   4.402   3.782   1.662  0.3138  0.6002 -0.0599
 3977TIP3    H133566   4.470   3.723   1.631  0.7320  1.7177 -1.3899
 3977TIP3    H233567   4.435   3.870   1.641  0.2796  1.4453  2.9455
 3978TIP3   OH233568   1.575   3.669   2.221 -0.6494 -0.4405 -0.4909
 3978TIP3    H133569   1.611   3.581   2.210 -0.6747 -0.4455 -0.5354
 3978TIP3    H233570   1.481   3.655   2.231 -0.5921 -0.4616  0.0637
 3979TIP3   OH233571   6.760   5.672   2.565  0.4337 -0.2183  0.5858
 3979TIP3    H133572   6.850   5.702   2.576  0.3746  0.6361 -0.9699
 3979TIP3    H233573   6.706   5.748   2.587  0.1755 -0.0958 -0.4291
 3980TIP3   OH233574   0.482   2.276   7.723  0.1999 -0.6076 -0.5966
 3980TIP3    H133575   0.506   2.357   7.677  0.4390  0.0423  0.6319
 3980TIP3    H233576   0.534   2.208   7.680  2.5194  0.3939  0.4265
 3981TIP3   OH233577   1.463   2.480   8.586 -0.0614 -0.3276 -0.1338
 3981TIP3    H133578   1.442   2.414   8.652 -0.3409  2.3066  2.6557
 3981TIP3    H233579   1.379   2.520   8.564  0.2800  0.2351 -0.4449
 3982TIP3   OH233580   0.269   5.110   8.068  0.1339 -0.2978 -0.1018
 3982TIP3    H133581   0.288   5.181   8.007  0.4216 -0.8796 -0.7074
 3982TIP3    H233582   0.354   5.089   8.107  0.0679 -0.3727  0.0034
 3983TIP3   OH233583   1.689   3.538   1.037 -0.3307 -0.3139 -0.1537
 3983TIP3    H133584   1.654   3.502   1.118 -2.3144  0.5940 -0.5427
 3983TIP3    H233585   1.740   3.614   1.065  0.7915 -1.2313  0.3734
 3984TIP3   OH233586   6.386   6.262   7.690  0.1662  0.1950  0.1788
 3984TIP3    H133587   6.357   6.317   7.617 -0.4837 -3.0937 -2.3130
 3984TIP3    H233588   6.470   6.226   7.660  0.2410 -0.7048  1.3952
 3985TIP3   OH233589   5.034   3.089   0.780 -0.0871 -0.0387  0.1024
 3985TIP3    H133590   4.995   3.007   0.749 -1.6091  0.5911  0.2906
 3985TIP3    H233591   4.981   3.114   0.855  0.5005  1.0189  0.1785
 3986TIP3   OH233592   5.162   2.039   2.234 -0.8281  0.4485 -0.0918
 3986TIP3    H133593   5.221   1.973   2.199 -0.8198  1.4352 -2.0988
 3986TIP3    H233594   5.081   2.028   2.184 -1.2909  1.0756  0.5012
 3987TIP3   OH233595   6.214   5.112   1.173 -0.2277 -0.8549 -0.1555
 3987TIP3    H133596   6.277   5.182   1.188  0.1863 -1.2529 -0.0161
 3987TIP3    H233597   6.205   5.069   1.258  0.9868 -2.1807 -0.6585
 3988TIP3   OH233598   0.827   6.064   2.551 -0.3130 -0.4188 -0.1126
 3988TIP3    H133599   0.892   6.015   2.501 -2.8137 -1.8135 -2.2710
 3988TIP3    H233600   0.759   6.000   2.572 -1.5659  1.1725  1.0081
 3989TIP3   OH233601   6.515   1.337   3.349 -0.4949 -0.0001  0.0840
 3989TIP3    H133602   6.567   1.257   3.345 -1.8119 -0.8388 -0.8638
 3989TIP3    H233603   6.442   1.316   3.406 -0.4785  0.7631  0.3970
 3990TIP3   OH233604   2.520   3.241   7.369 -0.2714  0.0740  0.3369
 3990TIP3    H133605   2.594   3.296   7.342 -0.5325  0.1869 -0.1541
 3990TIP3    H233606   2.561   3.167   7.415  0.0492  1.0001  1.5950
 3991TIP3   OH233607   6.320   4.595   2.099 -0.3263 -0.5908 -0.3431
 3991TIP3    H133608   6.362   4.525   2.149  0.6155  1.1278  1.4170
 3991TIP3    H233609   6.375   4.607   2.022  1.1969  0.0816  0.7945
 3992TIP3   OH233610   3.785   5.347   7.392 -0.3523  0.2908 -0.3222
 3992TIP3    H133611   3.754   5.434   7.368  2.0542  1.0882 -0.8051
 3992TIP3    H233612   3.766   5.340   7.486  0.4509  1.8220 -0.0254
 3993TIP3   OH233613   1.278   3.975   8.642  0.6663 -0.4835 -0.1509
 3993TIP3    H133614   1.240   3.908   8.586  0.7912 -0.9119  0.2639
 3993TIP3    H233615   1.337   3.926   8.701  0.1366 -0.1197  0.7022
 3994TIP3   OH233616   5.652   5.805   2.704  0.3435  0.2524  0.5163
 3994TIP3    H133617   5.744   5.781   2.712 -0.1437 -1.2488  1.9356
 3994TIP3    H233618   5.646   5.890   2.748  0.6183 -0.7984  2.7007
 3995TIP3   OH233619   5.042   0.093   1.003  0.0598  0.2672 -0.1061
 3995TIP3    H133620   5.084   0.168   0.961 -1.2144 -0.0902 -2.1854
 3995TIP3    H233621   4.949   0.116   1.005 -0.2195 -0.8278  0.1832
 3996TIP3   OH233622   0.640   6.323   3.240  0.1720 -0.4066 -0.0488
 3996TIP3    H133623   0.599   6.237   3.232 -1.4722  0.2853  0.5224
 3996TIP3    H233624   0.714   6.309   3.299  1.8487 -2.0134 -2.3488
 3997TIP3   OH233625   0.177   5.724   2.572 -0.5029 -0.3337 -0.3669
 3997TIP3    H133626   0.163   5.655   2.507 -1.9672 -1.8408  1.4450
 3997TIP3    H233627   0.256   5.696   2.619  0.7203  0.9006 -1.5960
 3998TIP3   OH233628   0.696   1.427   1.663 -0.5902 -0.2937  0.2899
 3998TIP3    H133629   0.657   1.355   1.713 -1.3614 -0.3357 -0.3488
 3998TIP3    H233630   0.693   1.398   1.572  2.1134 -0.8236  0.3007
 3999TIP3   OH233631   3.003   3.180   2.304  0.1176 -0.1885 -0.4630
 3999TIP3    H133632   2.951   3.100   2.303  0.2894 -0.3626  1.3711
 3999TIP3    H233633   2.942   3.247   2.336  0.4962  0.0066 -0.1495
 4000TIP3   OH233634   2.062   6.816   7.835  0.1999  0.3526 -0.0863
 4000TIP3    H133635   2.094   6.767   7.911  0.6284  0.7587 -0.0048
 4000TIP3    H233636   2.118   6.789   7.763 -1.4018 -1.4995 -0.7201
 4001TIP3   OH233637   4.845   0.221   8.071 -0.0503 -1.2916 -0.7038
 4001TIP3    H133638   4.869   0.177   8.152  1.3769 -0.0146 -0.3811
 4001TIP3    H233639   4.815   0.151   8.013  0.6874 -2.4646  0.2913
 4002TIP3   OH233640   3.341   4.081   0.628 -0.0853 -0.2876  0.4052
 4002TIP3    H133641   3.429   4.068   0.663  0.1235  0.4229  0.1595
 4002TIP3    H233642   3.343   4.168   0.588 -0.9886 -0.1159  0.6882
 4003TIP3   OH233643   2.900   1.273   1.211 -0.0806 -0.1512  0.2064
 4003TIP3    H133644   2.852   1.305   1.287  1.1069  1.9592  0.1225
 4003TIP3    H233645   2.925   1.352   1.163  1.1246 -1.3232 -1.1884
 4004TIP3   OH233646   4.449   1.730   7.442  0.4212 -0.1758  0.1059
 4004TIP3    H133647   4.370   1.709   7.493  0.4791  0.3169  0.4143
 4004TIP3    H233648   4.423   1.806   7.389  0.8649  0.3741  0.6646
 4005TIP3   OH233649   1.800   1.992   0.942  0.1105 -0.0223 -0.2879
 4005TIP3    H133650   1.781   2.001   0.848  0.6366  0.2322 -0.3739
 4005TIP3    H233651   1.720   1.957   0.979  0.3770 -1.5658 -1.0791
 4006TIP3   OH233652   5.509   4.348   1.105 -0.3631 -0.5911  0.1836
 4006TIP3    H133653   5.517   4.308   1.191  1.4461 -0.2658  0.2092
 4006TIP3    H233654   5.483   4.276   1.047  0.3129 -1.2583  0.6813
 4007TIP3   OH233655   2.668   5.186   7.957 -0.0983 -0.4380  0.0437
 4007TIP3    H133656   2.652   5.274   7.921  1.7105 -0.5865 -1.2588
 4007TIP3    H233657   2.617   5.128   7.901 -0.3275 -0.3376  0.1443
 4008TIP3   OH233658   3.862   0.211   8.351 -0.4060  1.0465 -0.3454
 4008TIP3    H133659   3.781   0.163   8.369  0.7527 -1.2161 -0.7883
 4008TIP3    H233660   3.908   0.213   8.436 -0.7455  2.0008 -0.1763
 4009TIP3   OH233661   3.787   4.082   0.563 -0.3618  0.4123  0.0034
 4009TIP3    H133662   3.722   4.016   0.541 -0.4450  0.5740 -0.2362
 4009TIP3    H233663   3.861   4.063   0.506  0.1105 -0.2524  0.8164
 4010TIP3   OH233664   4.884   3.628   8.663  0.0868 -0.0437 -0.3114
 4010TIP3    H133665   4.852   3.711   8.699  0.3122 -0.0421 -0.1177
 4010TIP3    H233666   4.963   3.651   8.615 -0.3390 -0.0066 -1.0174
 4011TIP3   OH233667   3.782   2.540   0.715  0.8303 -0.0758  0.4725
 4011TIP3    H133668   3.687   2.532   0.715  0.7864  0.3027  1.5988
 4011TIP3    H233669   3.803   2.586   0.634  0.2569 -2.2275 -0.9644
 4012TIP3   OH233670   2.557   5.987   7.852  0.1452  0.3451 -0.0634
 4012TIP3    H133671   2.604   5.913   7.813 -1.2324 -0.4901 -0.2189
 4012TIP3    H233672   2.520   6.033   7.776  0.3412  0.7439  0.0809
 4013TIP3   OH233673   2.650   2.858   0.847 -0.2314  0.0971  0.1448
 4013TIP3    H133674   2.642   2.785   0.786  0.1809  1.0109 -1.0595
 4013TIP3    H233675   2.744   2.869   0.859 -0.3074  0.0029  0.8676
 4014TIP3   OH233676   0.913   5.663   1.318  0.4347  0.0064 -1.1394
 4014TIP3    H133677   0.819   5.679   1.321  0.1082 -1.3640 -2.4778
 4014TIP3    H233678   0.922   5.572   1.349  1.2815  0.0387 -1.2723
 4015TIP3   OH233679   3.604   2.033   3.156 -0.0948  0.3096  0.0317
 4015TIP3    H133680   3.658   2.081   3.219  0.1827  0.5528 -0.3903
 4015TIP3    H233681   3.655   1.954   3.136 -0.3421  0.0563  0.3721
 4016TIP3   OH233682   0.556   5.248   8.037 -0.0762  0.0134  0.0222
 4016TIP3    H133683   0.563   5.166   7.987 -0.6170  0.0540 -0.1270
 4016TIP3    H233684   0.555   5.316   7.971 -1.9029  0.0044  0.0154
 4017TIP3   OH233685   5.249   5.789   0.637  0.4178 -0.3679 -0.6396
 4017TIP3    H133686   5.217   5.726   0.702  1.4963 -2.3519 -1.9604
 4017TIP3    H233687   5.313   5.841   0.684  0.7158 -1.3485  0.0717
 4018TIP3   OH233688   5.833   3.769   0.476  0.0175  0.1866  0.0275
 4018TIP3    H133689   5.924   3.800   0.476  0.3296 -0.7056  0.5459
 4018TIP3    H233690   5.839   3.677   0.501 -1.0358  0.1195  0.0628
 4019TIP3   OH233691   4.150   3.330   2.581 -0.5656  1.1355 -0.0414
 4019TIP3    H133692   4.100   3.252   2.605  1.2984  0.2036  1.0082
 4019TIP3    H233693   4.085   3.388   2.542 -2.5556  0.1778  1.6207
 4020TIP3   OH233694   6.573   0.569   8.640 -0.0839  0.1556 -0.2217
 4020TIP3    H133695   6.523   0.619   8.704  0.7183  1.2397 -0.3994
 4020TIP3    H233696   6.507   0.526   8.586 -0.7763 -0.3668  0.9935
 4021TIP3   OH233697   1.587   3.792   0.757  0.2879  0.1213 -0.0040
 4021TIP3    H133698   1.583   3.739   0.678  1.5820 -0.2663  0.1698
 4021TIP3    H233699   1.532   3.745   0.820 -1.3014  0.7847 -0.8328
 4022TIP3   OH233700   6.739   4.940   2.067 -0.0276 -0.2798 -0.5390
 4022TIP3    H133701   6.770   4.855   2.038 -1.3825 -0.8778 -0.3118
 4022TIP3    H233702   6.793   5.003   2.020 -0.1100 -1.2474 -1.9886
 4023TIP3   OH233703   5.937   0.848   1.894 -0.0903 -0.2018 -0.0918
 4023TIP3    H133704   5.932   0.830   1.988 -0.0919  1.0090  0.1577
 4023TIP3    H233705   5.989   0.928   1.888  0.0365 -0.3518 -1.1368
 4024TIP3   OH233706   0.973   2.606   0.969  0.1598 -0.1242 -0.0393
 4024TIP3    H133707   0.947   2.654   1.047 -2.0218  0.0591 -0.8171
 4024TIP3    H233708   1.067   2.594   0.979  0.1390  0.9453  2.0153
 4025TIP3   OH233709   0.932   5.724   2.857  0.0229 -0.4763  0.5833
 4025TIP3    H133710   1.014   5.771   2.873 -0.6692  2.3708 -2.8949
 4025TIP3    H233711   0.952   5.664   2.786 -0.8041  0.1178 -0.1780
 4026TIP3   OH233712   3.429   1.332   1.057 -0.0310  0.7835 -0.0124
 4026TIP3    H133713   3.383   1.349   1.140 -0.5955 -2.2108  0.4301
 4026TIP3    H233714   3.449   1.238   1.060  0.8905  0.7922 -2.8332
 4027TIP3   OH233715   5.804   2.445   7.602 -0.2229 -0.4732 -0.0961
 4027TIP3    H133716   5.825   2.422   7.511  0.2274  1.0195 -0.3940
 4027TIP3    H233717   5.840   2.372   7.653 -1.9715 -2.1960 -1.1774
 4028TIP3   OH233718   3.489   1.763   2.790 -0.7509  0.2888  0.4670
 4028TIP3    H133719   3.584   1.769   2.799 -0.6860 -1.7311  1.7411
 4028TIP3    H233720   3.456   1.823   2.857 -0.3628  0.2813  0.6719
 4029TIP3   OH233721   3.271   0.299   2.253 -0.3045  0.6017  0.1235
 4029TIP3    H133722   3.262   0.294   2.158 -0.4557  0.6143  0.1378
 4029TIP3    H233723   3.194   0.253   2.288 -0.1368  0.4048  0.2382
 4030TIP3   OH233724   5.179   3.105   8.532 -0.1442 -0.1922  0.6180
 4030TIP3    H133725   5.261   3.056   8.542  0.6924  1.2099  1.0504
 4030TIP3    H233726   5.170   3.152   8.615 -1.4287 -0.3721  0.5873
 4031TIP3   OH233727   1.433   4.646   0.305 -0.1965  0.6192 -0.2318
 4031TIP3    H133728   1.482   4.708   0.358  3.0339 -1.1443 -0.9447
 4031TIP3    H233729   1.374   4.701   0.253  0.9967  2.8735  0.6715
 4032TIP3   OH233730   4.712   5.152   7.414 -0.3912  0.5380  0.4096
 4032TIP3    H133731   4.630   5.189   7.380 -0.3222 -1.4574 -2.2359
 4032TIP3    H233732   4.691   5.061   7.434  1.0929  0.0663 -0.0385
 4033TIP3   OH233733   4.394   4.392   8.462 -0.1936  0.2555 -0.5283
 4033TIP3    H133734   4.316   4.403   8.408 -0.8465  0.8209  0.5019
 4033TIP3    H233735   4.463   4.369   8.400 -0.9944  0.5620 -1.5540
 4034TIP3   OH233736   5.432   4.092   1.016  0.5253 -0.0866  0.5767
 4034TIP3    H133737   5.385   4.060   1.093 -0.4202  1.2855  0.6055
 4034TIP3    H233738   5.405   4.033   0.946 -0.4518  0.0619  0.8143
 4035TIP3   OH233739   6.313   2.433   1.569 -0.4866  0.7983 -0.2099
 4035TIP3    H133740   6.292   2.385   1.489 -0.3706  1.0686 -0.4027
 4035TIP3    H233741   6.267   2.516   1.560 -0.4741  0.8293  0.0068
 4036TIP3   OH233742   4.797   3.267   1.974 -0.5680  0.5889  0.4048
 4036TIP3    H133743   4.756   3.300   1.894 -0.4342  0.6237  0.3515
 4036TIP3    H233744   4.884   3.239   1.947 -1.5823 -2.3499 -0.1388
 4037TIP3   OH233745   5.604   4.422   2.367  0.1700 -0.0798  0.2796
 4037TIP3    H133746   5.549   4.498   2.385  0.2779 -0.0059  0.3000
 4037TIP3    H233747   5.602   4.412   2.272  0.7365  0.3852  0.2166
 4038TIP3   OH233748   4.695   3.996   1.709  0.1349  0.0997 -0.0036
 4038TIP3    H133749   4.615   4.023   1.664 -1.6788 -0.4122  2.6503
 4038TIP3    H233750   4.731   3.926   1.655 -3.6666 -2.7200  0.7305
 4039TIP3   OH233751   3.553   1.345   0.802  0.2885 -0.3206 -0.1938
 4039TIP3    H133752   3.486   1.386   0.747  0.0073  1.1165  1.1654
 4039TIP3    H233753   3.503   1.302   0.871  0.7234  0.4286  0.6043
 4040TIP3   OH233754   0.611   2.238   8.660 -0.5041 -0.1655  0.2009
 4040TIP3    H133755   0.539   2.270   8.606 -1.4572 -1.6253  0.5775
 4040TIP3    H233756   0.590   2.267   8.749 -0.9421 -1.0972  0.4066
 4041TIP3   OH233757   3.478   2.938   1.631 -0.0502 -0.1048  0.5051
 4041TIP3    H133758   3.486   3.004   1.700 -1.1106  1.2195 -0.5844
 4041TIP3    H233759   3.408   2.879   1.662  2.0855 -1.8793  2.3076
 4042TIP3   OH233760   3.415   3.427   1.673  0.1501  0.3900  0.4421
 4042TIP3    H133761   3.330   3.388   1.689  1.0713 -2.0513 -0.1710
 4042TIP3    H233762   3.417   3.442   1.579  0.5143  0.1034  0.4011
 4043TIP3   OH233763   4.244   1.796   2.517 -0.4947  0.3366  0.0205
 4043TIP3    H133764   4.206   1.858   2.580  0.0879  2.7053 -1.8454
 4043TIP3    H233765   4.169   1.750   2.481 -0.9619  0.0853  1.2430
 4044TIP3   OH233766   4.614   4.136   1.089 -0.1507 -0.2729 -0.0705
 4044TIP3    H133767   4.598   4.054   1.136  1.3055 -0.0006  0.9887
 4044TIP3    H233768   4.694   4.171   1.129  0.0321  0.9782 -1.4413
 4045TIP3   OH233769   2.231   1.034   1.553  0.0631 -0.6644 -0.1087
 4045TIP3    H133770   2.222   1.125   1.525  0.6979  0.0215  1.7768
 4045TIP3    H233771   2.317   1.008   1.521 -0.0693 -0.5813 -0.5468
 4046TIP3   OH233772   1.856   2.277   0.980  0.5731  0.3283  0.3336
 4046TIP3    H133773   1.852   2.198   1.033  1.0526 -0.0861 -0.2427
 4046TIP3    H233774   1.844   2.348   1.043  0.1782 -0.1963  0.8573
 4047TIP3   OH233775   4.334   2.801   2.054  0.2063  0.2964 -0.4899
 4047TIP3    H133776   4.357   2.839   1.970  1.4078  0.0435 -0.2937
 4047TIP3    H233777   4.240   2.781   2.047 -0.3113  2.5885 -0.8474
 4048TIP3   OH233778   3.649   6.222   7.681 -0.2989 -0.3983  0.1385
 4048TIP3    H133779   3.629   6.315   7.696  0.8903 -0.0452 -0.3581
 4048TIP3    H233780   3.686   6.220   7.593 -1.1129 -1.4876 -0.2005
 4049TIP3   OH233781   1.884   1.322   2.025  0.1024 -0.5202  0.6092
 4049TIP3    H133782   1.834   1.403   2.038  1.8222  0.3044  2.6350
 4049TIP3    H233783   1.944   1.341   1.953  0.3768 -0.0367  0.9613
 4050TIP3   OH233784   3.779   4.519   0.043 -0.6201 -0.2731 -0.4822
 4050TIP3    H133785   3.808   4.576  -0.028  0.5779 -0.0960  0.1069
 4050TIP3    H233786   3.768   4.433   0.003 -1.5133  0.1569 -1.1865
 4051TIP3   OH233787   5.773   1.259   0.160 -0.2308  0.6805 -0.2035
 4051TIP3    H133788   5.750   1.183   0.107  0.6182 -1.1205  1.8529
 4051TIP3    H233789   5.725   1.331   0.120 -1.7075 -1.0693 -1.7939
 4052TIP3   OH233790   3.587   0.655   8.516 -0.3711  0.1954  0.4357
 4052TIP3    H133791   3.599   0.563   8.491  0.0068  0.8662 -2.0791
 4052TIP3    H233792   3.584   0.653   8.612 -0.9333 -2.4880  0.4510
 4053TIP3   OH233793   5.242   1.435   0.743 -0.0977  0.1701 -0.1733
 4053TIP3    H133794   5.274   1.392   0.663  1.0744 -1.3760  1.0450
 4053TIP3    H233795   5.306   1.504   0.760 -0.0171  0.1133 -0.2417
 4054TIP3   OH233796   0.895   1.711   0.984 -0.1007  0.0906 -0.7911
 4054TIP3    H133797   0.870   1.785   0.929 -1.0394 -0.9948 -1.8673
 4054TIP3    H233798   0.879   1.633   0.930  1.4824 -0.8973  0.0622
 4055TIP3   OH233799   2.451   3.964   2.887 -0.3619 -0.2294 -0.3491
 4055TIP3    H133800   2.468   3.889   2.830 -1.0914 -2.3772  2.0486
 4055TIP3    H233801   2.533   4.014   2.886  1.2880 -2.7012  0.1717
 4056TIP3   OH233802   5.502   1.004   2.703  0.0856  0.5061 -0.1557
 4056TIP3    H133803   5.409   0.987   2.691  0.1126 -0.2873  0.6311
 4056TIP3    H233804   5.546   0.936   2.652  0.2085 -0.3250  1.0147
 4057TIP3   OH233805   5.651   4.449   2.690 -0.1322  0.8150 -0.7057
 4057TIP3    H133806   5.584   4.424   2.626 -0.7125 -0.2370  0.2751
 4057TIP3    H233807   5.667   4.542   2.672 -0.0701  0.4861 -2.5373
 4058TIP3   OH233808   2.325   2.647   8.604  0.4845 -0.2827 -0.8421
 4058TIP3    H133809   2.292   2.708   8.538  0.2548 -0.5205 -0.9514
 4058TIP3    H233810   2.418   2.668   8.612  0.5737 -0.4329 -1.4383
 4059TIP3   OH233811   0.145   6.545   0.858 -0.5388  0.0005  0.0241
 4059TIP3    H133812   0.066   6.525   0.807  0.6254 -4.8919 -0.3154
 4059TIP3    H233813   0.212   6.563   0.792  0.2811 -3.5332 -0.3085
 4060TIP3   OH233814   0.037   2.419   1.408  0.0645 -0.1199  0.3020
 4060TIP3    H133815   0.077   2.406   1.494 -1.2564 -0.9983  0.8250
 4060TIP3    H233816  -0.046   2.464   1.427  0.3727  0.8961 -0.6560
 4061TIP3   OH233817   5.855   0.368   7.386  0.6015  0.4354 -0.5971
 4061TIP3    H133818   5.771   0.327   7.369 -0.1672  1.7306 -0.0693
 4061TIP3    H233819   5.851   0.451   7.338  1.0483  1.1030  0.4736
 4062TIP3   OH233820   2.798   4.644   2.509  0.2281  0.8700  0.1578
 4062TIP3    H133821   2.848   4.616   2.432 -0.8537 -1.5362  0.2313
 4062TIP3    H233822   2.712   4.669   2.474 -0.3158 -0.3697  0.5445
 4063TIP3   OH233823   4.531   1.220   2.690 -0.3343 -0.3039  0.4939
 4063TIP3    H133824   4.608   1.224   2.746 -0.2063 -1.4673  0.4261
 4063TIP3    H233825   4.457   1.236   2.749 -0.1654 -1.0767  0.9280
 4064TIP3   OH233826   5.642   6.453   7.259 -0.1555  0.4268  0.9125
 4064TIP3    H133827   5.589   6.504   7.319 -2.5997  0.2380 -0.9351
 4064TIP3    H233828   5.618   6.362   7.277 -0.6930  0.3510 -0.0865
 4065TIP3   OH233829   3.610   4.643   7.610  0.3399 -0.3204  0.1552
 4065TIP3    H133830   3.526   4.600   7.622 -0.7309  1.5053 -0.2997
 4065TIP3    H233831   3.606   4.679   7.521  1.0491  0.8805  0.5775
 4066TIP3   OH233832   0.923   6.412   2.345 -0.2251  0.0897  0.1538
 4066TIP3    H133833   0.891   6.411   2.436 -1.4893  0.8717 -0.2513
 4066TIP3    H233834   1.016   6.435   2.353 -0.4451  0.7256  1.2308
 4067TIP3   OH233835   4.979   0.963   0.619  0.4980 -0.4379  0.2501
 4067TIP3    H133836   4.928   0.968   0.700 -0.0183 -0.2323 -0.0839
 4067TIP3    H233837   5.011   1.053   0.606 -0.1341 -0.2755 -0.2259
 4068TIP3   OH233838   4.652   0.476   2.322  0.0767  0.6199  0.0278
 4068TIP3    H133839   4.591   0.438   2.260  1.4681  0.0593 -1.0525
 4068TIP3    H233840   4.694   0.401   2.364 -0.0864  0.9983  0.9026
 4069TIP3   OH233841   0.055   3.246   8.615  0.9939  0.3205  0.5198
 4069TIP3    H133842   0.134   3.212   8.574  1.4716  2.3652 -0.3788
 4069TIP3    H233843   0.001   3.168   8.631  2.4639 -0.9441 -0.3775
 4070TIP3   OH233844   0.803   6.687   2.323  0.2494 -0.7019  0.0944
 4070TIP3    H133845   0.848   6.613   2.363 -0.3209 -2.6448 -2.5841
 4070TIP3    H233846   0.710   6.667   2.335  0.0901 -0.6150 -0.9223
 4071TIP3   OH233847   3.407   4.625   1.270 -0.1114 -0.5905 -0.4311
 4071TIP3    H133848   3.485   4.651   1.221 -1.4378  0.2803 -2.2062
 4071TIP3    H233849   3.435   4.550   1.322  2.0721  0.1461 -0.4567
 4072TIP3   OH233850   4.863   1.449   1.308 -0.3642 -0.3613  0.1900
 4072TIP3    H133851   4.955   1.473   1.318 -0.2669 -0.1572 -1.0289
 4072TIP3    H233852   4.863   1.383   1.239 -0.8330 -2.5437  2.1682
 4073TIP3   OH233853   3.208   4.933   1.739 -0.4689  0.4671 -0.3341
 4073TIP3    H133854   3.249   4.895   1.816  0.4400 -1.2917 -1.6258
 4073TIP3    H233855   3.123   4.889   1.733  0.3307 -1.0088 -1.4802
 4074TIP3   OH233856   0.603   2.033   8.239  0.5493  0.2247 -0.3274
 4074TIP3    H133857   0.640   2.070   8.159  0.5409 -2.0201 -1.4746
 4074TIP3    H233858   0.552   1.958   8.209 -0.5587  0.0988  1.6972
 4075TIP3   OH233859   0.897   1.746   0.570  0.1324 -0.4602  0.0941
 4075TIP3    H133860   0.904   1.667   0.515  1.3008 -0.4321  0.1909
 4075TIP3    H233861   0.956   1.809   0.529  0.7649 -0.3204  1.1770
 4076TIP3   OH233862   6.144   2.768   0.919 -0.3635  0.0692 -0.2421
 4076TIP3    H133863   6.166   2.788   0.828  0.8020  1.4280  0.2924
 4076TIP3    H233864   6.156   2.674   0.927  2.2621  0.2638 -0.8573
 4077TIP3   OH233865   0.612   5.605   0.373  0.0554 -0.3401  0.1560
 4077TIP3    H133866   0.631   5.612   0.467  1.7146 -3.0374  0.1282
 4077TIP3    H233867   0.698   5.596   0.332 -0.6892 -0.1024 -1.5474
 4078TIP3   OH233868   2.159   1.778   2.043 -0.1457  0.0819  0.2472
 4078TIP3    H133869   2.109   1.835   2.101  0.2448 -0.6503  1.3331
 4078TIP3    H233870   2.105   1.770   1.965 -1.5699 -0.3893  1.2333
 4079TIP3   OH233871   4.821   6.446   8.643  0.9519  0.4241  0.3553
 4079TIP3    H133872   4.849   6.355   8.658  1.9907  0.6386 -0.2001
 4079TIP3    H233873   4.803   6.450   8.549  0.4436  0.6786  0.4593
 4080TIP3   OH233874   1.420   6.377   7.853 -0.6841 -0.6736 -0.2813
 4080TIP3    H133875   1.330   6.349   7.871 -0.8895 -0.6429 -1.1973
 4080TIP3    H233876   1.410   6.459   7.804 -0.3158 -2.2241 -3.2274
 4081TIP3   OH233877   2.759   6.047   1.268 -1.4543 -0.8833 -0.1058
 4081TIP3    H133878   2.815   6.078   1.339  1.1092 -0.8701 -2.0026
 4081TIP3    H233879   2.704   6.122   1.246  0.8222  0.6080 -0.9971
 4082TIP3   OH233880   0.936   3.709   3.579  0.2532 -0.2422 -0.3068
 4082TIP3    H133881   1.002   3.766   3.540  0.0526  2.4973  2.8468
 4082TIP3    H233882   0.986   3.637   3.617  1.2244  0.6014  0.0681
 4083TIP3   OH233883   3.049   1.541   0.053  0.1292 -0.3740 -0.1630
 4083TIP3    H133884   2.992   1.492   0.113 -0.6103 -1.2568 -1.5347
 4083TIP3    H233885   3.137   1.526   0.087 -0.3606  0.5479  1.6632
 4084TIP3   OH233886   0.375   6.017   2.799  0.6566  0.0762  0.4342
 4084TIP3    H133887   0.402   5.925   2.807 -0.1842 -0.2742 -0.5622
 4084TIP3    H233888   0.339   6.039   2.885 -1.6196 -1.3779 -0.0790
 4085TIP3   OH233889   1.160   1.757   8.435 -0.3814 -0.5449 -0.5608
 4085TIP3    H133890   1.176   1.663   8.445  1.6672 -0.2533 -0.6885
 4085TIP3    H233891   1.118   1.765   8.349  1.5237 -1.1927 -1.6232
 4086TIP3   OH233892   4.753   3.362   8.172  0.1367  0.5312 -0.4891
 4086TIP3    H133893   4.812   3.409   8.112  0.6676  1.0148  0.3728
 4086TIP3    H233894   4.788   3.273   8.175  0.2640  0.5730 -0.6967
 4087TIP3   OH233895   6.015   6.355   1.558  0.0376  0.4139  0.4360
 4087TIP3    H133896   5.986   6.425   1.616 -1.9574 -0.7620  0.9560
 4087TIP3    H233897   5.982   6.274   1.598  1.7427 -0.7920 -0.4552
 4088TIP3   OH233898   2.346   1.323   0.885  0.6413 -0.0892 -0.0590
 4088TIP3    H133899   2.408   1.261   0.846  1.1996  0.3029  0.1871
 4088TIP3    H233900   2.260   1.286   0.867  0.8544  0.2366 -1.9420
 4089TIP3   OH233901   2.775   4.879   1.082  0.1169 -0.0211 -0.1895
 4089TIP3    H133902   2.726   4.924   1.151 -2.4526  0.1861 -1.9939
 4089TIP3    H233903   2.765   4.786   1.101  1.8187  0.0477  1.2081
 4090TIP3   OH233904   0.967   6.221   0.267 -0.4731 -0.1683 -0.1544
 4090TIP3    H133905   1.044   6.275   0.252 -0.1311 -0.0904  1.6821
 4090TIP3    H233906   0.909   6.242   0.194  1.5499 -0.9001 -2.0707
 4091TIP3   OH233907   5.855   0.676   2.796  0.0134 -0.0713  0.2881
 4091TIP3    H133908   5.827   0.663   2.705  0.4024  1.4113 -0.0633
 4091TIP3    H233909   5.794   0.622   2.847 -1.3320  0.4410 -0.7034
 4092TIP3   OH233910   0.114   6.330   0.364 -0.0549 -0.1700  0.8337
 4092TIP3    H133911   0.122   6.235   0.357 -0.8526 -0.1671 -0.4642
 4092TIP3    H233912   0.022   6.344   0.388 -0.5175  0.3141 -1.0685
 4093TIP3   OH233913   4.020   6.539   7.744  0.0074 -0.1130  0.4648
 4093TIP3    H133914   4.063   6.623   7.727 -0.6068 -0.1162 -1.2924
 4093TIP3    H233915   3.968   6.522   7.665 -2.0705 -0.8158  1.8937
 4094TIP3   OH233916   4.142   5.142   0.920 -0.2809 -0.2903  0.2605
 4094TIP3    H133917   4.160   5.193   0.840  1.3258  1.2990  1.5445
 4094TIP3    H233918   4.181   5.057   0.902 -0.6087 -0.2197 -0.9248
 4095TIP3   OH233919   3.710   3.070   1.012 -0.4985  0.4745 -0.1732
 4095TIP3    H133920   3.797   3.085   1.048  0.9507 -1.9509 -2.2915
 4095TIP3    H233921   3.714   3.107   0.923 -2.4199  2.2107  0.3627
 4096TIP3   OH233922   4.697   5.627   2.644 -0.6907  0.4258  0.2645
 4096TIP3    H133923   4.679   5.537   2.670 -0.7627  0.7590  1.4333
 4096TIP3    H233924   4.774   5.652   2.696 -1.5232  1.4855  1.0490
 4097TIP3   OH233925   0.941   1.537   0.392 -0.6215  0.0520  0.1741
 4097TIP3    H133926   0.993   1.457   0.397 -2.8564 -1.4911  0.2094
 4097TIP3    H233927   0.977   1.584   0.317  1.0635 -0.7068  0.4430
 4098TIP3   OH233928   5.842   1.942   2.601 -0.0251  0.2623 -0.2659
 4098TIP3    H133929   5.751   1.972   2.601  0.5824  2.3119 -0.0312
 4098TIP3    H233930   5.883   1.990   2.528  0.3183 -2.6805 -2.1693
 4099TIP3   OH233931   2.910   2.359   0.464  0.3829 -0.2202  0.0473
 4099TIP3    H133932   2.972   2.376   0.535  1.0086 -0.3039 -0.4649
 4099TIP3    H233933   2.825   2.380   0.500  0.6417 -0.7392  0.9860
 4100TIP3   OH233934   0.707   2.910   7.252 -0.0462 -0.1786  0.0901
 4100TIP3    H133935   0.630   2.891   7.198 -0.3768  0.1713  0.4337
 4100TIP3    H233936   0.679   2.983   7.308 -0.4874 -1.9900  2.3796
 4101TIP3   OH233937   4.867   6.135   1.275 -0.5237 -0.3467  0.8541
 4101TIP3    H133938   4.864   6.201   1.206  0.4115 -0.4464  0.7122
 4101TIP3    H233939   4.788   6.082   1.261  0.1492 -0.9865 -0.7661
 4102TIP3   OH233940   1.900   3.394   1.348  0.3139 -0.2394  0.0326
 4102TIP3    H133941   1.813   3.434   1.341  0.6651  0.2320 -2.4594
 4102TIP3    H233942   1.881   3.303   1.372 -0.7362  0.2482  1.2114
 4103TIP3   OH233943   3.103   2.448   7.759  0.2089  0.1597 -0.0147
 4103TIP3    H133944   3.038   2.505   7.799  0.5020  0.0482  0.6283
 4103TIP3    H233945   3.062   2.362   7.756 -0.4025  0.4704 -1.3876
 4104TIP3   OH233946   2.702   6.422   2.065  0.2651  0.1948 -0.4593
 4104TIP3    H133947   2.672   6.350   2.120 -3.4562  1.3104 -0.7186
 4104TIP3    H233948   2.624   6.477   2.054  2.6023  3.6837 -1.1755
 4105TIP3   OH233949   3.112   1.511   0.633  0.1340  0.3036  0.2610
 4105TIP3    H133950   3.050   1.582   0.618 -0.4501 -0.7414 -3.1106
 4105TIP3    H233951   3.065   1.450   0.691 -0.3282  1.4350  1.1077
 4106TIP3   OH233952   5.170   6.341   1.875  0.3050  0.8961  0.2156
 4106TIP3    H133953   5.114   6.340   1.797  2.7372  0.0683 -1.6439
 4106TIP3    H233954   5.188   6.434   1.890  0.0945  1.0502 -0.4478
 4107TIP3   OH233955   4.711   3.412   1.483 -0.0019 -0.2654  0.0748
 4107TIP3    H133956   4.705   3.318   1.466  1.6538  0.1481 -4.0084
 4107TIP3    H233957   4.673   3.453   1.406 -0.4030  2.4733  1.6044
 4108TIP3   OH233958   3.749   0.370   3.247 -0.0358  0.0699 -0.0329
 4108TIP3    H133959   3.676   0.316   3.279  0.7230 -1.6492 -1.0733
 4108TIP3    H233960   3.806   0.308   3.202  0.2205  1.9317 -2.4712
 4109TIP3   OH233961   3.194   0.810   2.764  0.2262  0.5661 -0.4440
 4109TIP3    H133962   3.192   0.811   2.669 -1.7972 -1.9818 -0.5591
 4109TIP3    H233963   3.243   0.730   2.786  0.7642  1.1744  0.6617
 4110TIP3   OH233964   0.588   4.933   1.646  0.2907  0.6085  0.2114
 4110TIP3    H133965   0.637   4.912   1.726  1.4882  0.5824 -0.5103
 4110TIP3    H233966   0.554   5.021   1.661 -0.6503  0.0850  1.2929
 4111TIP3   OH233967   6.620   3.727   3.090  0.0045  0.1949 -0.3286
 4111TIP3    H133968   6.629   3.823   3.091 -0.5916  0.2538 -0.3662
 4111TIP3    H233969   6.558   3.709   3.019  0.6683 -0.2737 -0.7939
 4112TIP3   OH233970   4.913   2.403   1.000 -0.0916 -0.5048 -0.0856
 4112TIP3    H133971   4.859   2.326   1.021 -0.0702 -0.9922 -1.6702
 4112TIP3    H233972   5.001   2.379   1.029 -0.1589 -0.9135 -0.2159
 4113TIP3   OH233973   2.856   4.711   2.755 -0.2972  0.3578  0.3011
 4113TIP3    H133974   2.809   4.688   2.675  0.4733  0.8666 -0.3203
 4113TIP3    H233975   2.940   4.745   2.724  1.2149 -2.0857  1.4134
 4114TIP3   OH233976   6.005   6.571   2.949 -0.8494 -0.6675 -0.7472
 4114TIP3    H133977   5.972   6.659   2.967  0.3122  0.0334 -1.7776
 4114TIP3    H233978   6.068   6.554   3.019  1.2328  0.6785 -2.1563
 4115TIP3   OH233979   6.041   0.490   0.730  0.2455 -0.6852 -0.2231
 4115TIP3    H133980   5.952   0.509   0.758  1.0486 -0.8425  2.7967
 4115TIP3    H233981   6.033   0.469   0.636 -2.9367 -1.2764  0.0602
 4116TIP3   OH233982   6.607   2.258   0.861  0.4556  0.0836  0.3809
 4116TIP3    H133983   6.604   2.164   0.875  0.3221  0.1009  0.4773
 4116TIP3    H233984   6.603   2.295   0.949  0.0865  0.1852  0.3259
 4117TIP3   OH233985   0.054   6.572   2.419 -0.0390 -0.1489 -1.1180
 4117TIP3    H133986   0.046   6.525   2.502  0.1310  0.9848 -0.4333
 4117TIP3    H233987  -0.035   6.575   2.385  0.1504 -2.2632 -1.9519
 4118TIP3   OH233988   2.036   6.006   2.114  0.4561  0.0752 -0.1465
 4118TIP3    H133989   2.028   6.094   2.151  2.4451  0.0031  0.5703
 4118TIP3    H233990   1.961   5.958   2.149 -0.1480  1.2287  0.1880
 4119TIP3   OH233991   6.490   2.317   1.999  0.0745 -0.3817  0.1827
 4119TIP3    H133992   6.544   2.319   1.919 -0.1922 -0.7534 -0.0098
 4119TIP3    H233993   6.435   2.395   1.992 -0.4501 -0.7832 -0.3591
 4120TIP3   OH233994   3.754   2.253   0.626 -0.6128 -0.2936  0.0769
 4120TIP3    H133995   3.834   2.262   0.677  0.5950 -0.5448 -1.6939
 4120TIP3    H233996   3.696   2.200   0.681  1.0384 -1.4765  0.7304
 4121TIP3   OH233997   5.816   5.972   0.997 -0.2490  0.2329  0.0410
 4121TIP3    H133998   5.861   5.895   1.032 -1.8321  0.0268  1.7959
 4121TIP3    H233999   5.775   5.941   0.916  0.3145 -0.3726 -0.0214
 4122TIP3   OH234000   3.367   5.105   1.260 -0.5616  0.8619 -0.5726
 4122TIP3    H134001   3.315   5.176   1.298 -0.1957  1.1440 -0.5991
 4122TIP3    H234002   3.304   5.034   1.248 -1.0331  1.3257 -0.9497
 4123TIP3   OH234003   4.711   6.489   8.005 -0.1324 -0.0177 -0.0441
 4123TIP3    H134004   4.766   6.536   8.068 -0.7570 -0.2763  0.7138
 4123TIP3    H234005   4.650   6.555   7.972  0.6683  0.2854 -0.9373
 4124TIP3   OH234006   3.616   3.117   0.501  0.4781  0.3258  0.1334
 4124TIP3    H134007   3.551   3.121   0.431  2.9698  1.4141 -2.3194
 4124TIP3    H234008   3.674   3.045   0.475  0.4619 -0.4684  2.1260
 4125TIP3   OH234009   2.000   5.264   7.634 -0.5637 -0.2595 -0.2505
 4125TIP3    H134010   1.975   5.192   7.692 -0.2222 -0.9058 -0.8857
 4125TIP3    H234011   2.096   5.263   7.636 -0.5441  1.1915  0.9506
 4126TIP3   OH234012   5.302   1.047   0.685  0.1124  0.1189 -0.1335
 4126TIP3    H134013   5.223   1.065   0.736 -0.1838 -1.0806 -0.1492
 4126TIP3    H234014   5.273   1.047   0.594  0.4089  1.0331 -0.2438
 4127TIP3   OH234015   6.427   1.551   1.221  0.0761  0.1233  0.2196
 4127TIP3    H134016   6.360   1.483   1.213  0.4839 -0.1259 -1.6654
 4127TIP3    H234017   6.501   1.516   1.171  1.3490  0.7220  1.6387
 4128TIP3   OH234018   3.184   1.031   1.896 -0.0358 -0.2383  0.6067
 4128TIP3    H134019   3.105   1.045   1.949  0.3753  1.7256  0.7560
 4128TIP3    H234020   3.195   0.936   1.895 -2.0835 -0.5199  1.0451
 4129TIP3   OH234021   2.212   4.129   1.555  0.5804 -0.0798  0.1782
 4129TIP3    H134022   2.124   4.094   1.540  0.7375  0.4357 -2.2313
 4129TIP3    H234023   2.271   4.057   1.532  0.8369 -0.0709  0.7743
 4130TIP3   OH234024   0.819   5.035   2.931 -0.2698 -0.4378  0.4762
 4130TIP3    H134025   0.779   5.107   2.980 -0.5312 -1.0797  1.2288
 4130TIP3    H234026   0.895   5.075   2.887 -1.0063  0.5100  0.0386
 4131TIP3   OH234027   6.888   5.309   8.581  0.3912  0.3614  0.0333
 4131TIP3    H134028   6.919   5.369   8.649  1.0443  1.1681 -0.9599
 4131TIP3    H234029   6.924   5.224   8.606  0.7219  0.6719  0.6304
 4132TIP3   OH234030   4.475   2.567   2.038  0.0453 -0.3719  0.2344
 4132TIP3    H134031   4.444   2.654   2.063  0.2114 -0.6689  1.5448
 4132TIP3    H234032   4.396   2.513   2.035  0.0144 -0.3172 -0.0126
 4133TIP3   OH234033   5.939   1.412   2.432  0.9137  0.8092  0.7586
 4133TIP3    H134034   6.011   1.462   2.395  0.9772 -0.4355 -0.9090
 4133TIP3    H234035   5.979   1.334   2.470  0.4270 -0.3180 -0.9413
 4134TIP3   OH234036   1.289   1.825   1.496 -0.6142  0.2719 -0.2696
 4134TIP3    H134037   1.244   1.906   1.473 -1.1863  0.1603  0.4301
 4134TIP3    H234038   1.374   1.854   1.529 -1.2023  0.6764  0.9516
 4135TIP3   OH234039   3.220   1.181   2.177  0.3840 -0.5526 -0.0290
 4135TIP3    H134040   3.284   1.217   2.115 -0.5170  1.5860  0.2122
 4135TIP3    H234041   3.135   1.198   2.137 -0.1241 -2.4015  0.1632
 4136TIP3   OH234042   1.559   1.327   0.457 -0.4862  0.4163  0.5446
 4136TIP3    H134043   1.552   1.237   0.425 -0.4614  0.9551 -1.0620
 4136TIP3    H234044   1.618   1.370   0.395 -1.3247  1.8001  0.6652
 4137TIP3   OH234045   3.422   5.636   0.108 -0.2544  0.1078  0.3255
 4137TIP3    H134046   3.377   5.588   0.177 -0.3633  0.5914  0.5915
 4137TIP3    H234047   3.459   5.712   0.152 -0.1328  0.2988 -0.1053
 4138TIP3   OH234048   2.459   4.218   0.006 -0.0639  0.2439 -0.6510
 4138TIP3    H134049   2.418   4.266  -0.066  0.5112 -1.3466 -2.1330
 4138TIP3    H234050   2.386   4.181   0.055 -0.4601  0.6417 -0.9365
 4139TIP3   OH234051   0.045   3.330   1.692  0.3573  0.6790 -0.0710
 4139TIP3    H134052   0.080   3.368   1.772 -0.8034 -0.7718  1.1699
 4139TIP3    H234053  -0.044   3.303   1.715  0.1599 -0.1901 -1.7173
 4140TIP3   OH234054   6.228   4.988   2.392 -0.1502 -0.2260  0.7291
 4140TIP3    H134055   6.284   4.990   2.314  0.9863 -0.1843  1.5161
 4140TIP3    H234056   6.164   4.920   2.374 -0.3569  0.2741 -0.5352
 4141TIP3   OH234057   6.748   4.138   0.565  0.1867 -0.0678 -0.4272
 4141TIP3    H134058   6.817   4.142   0.499 -1.4297 -0.5027 -2.2155
 4141TIP3    H234059   6.681   4.082   0.527 -1.9064  1.6445  0.5188
 4142TIP3   OH234060   6.576   1.026   3.336 -0.2795  0.3736 -0.1761
 4142TIP3    H134061   6.640   1.075   3.286 -0.8382  1.0202 -0.2648
 4142TIP3    H234062   6.609   0.936   3.335  0.0463  0.4892 -1.1633
 4143TIP3   OH234063   5.543   6.493   7.651 -0.5123 -0.0798 -0.4845
 4143TIP3    H134064   5.466   6.549   7.660  0.0020  0.4559  0.7603
 4143TIP3    H234065   5.584   6.522   7.569 -0.4674  1.1151 -0.0658
 4144TIP3   OH234066   6.601   6.506   3.350 -0.3839  0.1502 -0.3836
 4144TIP3    H134067   6.562   6.423   3.379  0.3025 -0.4111 -1.0097
 4144TIP3    H234068   6.653   6.536   3.424  0.0213 -0.4087 -0.4341
 4145TIP3   OH234069   0.836   5.047   2.592 -0.0690 -0.0917  0.0380
 4145TIP3    H134070   0.757   5.091   2.625  0.0581 -0.0680  0.3118
 4145TIP3    H234071   0.803   4.983   2.530 -0.2217  0.7818 -0.8160
 4146TIP3   OH234072   0.407   0.239   1.015  0.2781 -0.1374  0.2898
 4146TIP3    H134073   0.346   0.309   0.991 -0.2516 -0.6323  0.1626
 4146TIP3    H234074   0.361   0.158   0.991  1.4481 -0.4935 -0.8985
 4147TIP3   OH234075   1.646   0.335   2.652  0.2282 -0.2747  0.5440
 4147TIP3    H134076   1.584   0.381   2.708 -0.2243 -0.6868  0.3901
 4147TIP3    H234077   1.691   0.274   2.711  1.2835  0.7830  0.8790
 4148TIP3   OH234078   5.694   4.950   7.675  0.0141 -0.3407  0.2132
 4148TIP3    H134079   5.658   4.914   7.594 -0.1106  0.6603 -0.1801
 4148TIP3    H234080   5.746   4.878   7.711 -2.1267 -1.7669  0.6786
 4149TIP3   OH234081   1.815   4.278   1.731  0.4894 -0.1531  0.2457
 4149TIP3    H134082   1.816   4.200   1.786 -1.0557  0.3316  0.9934
 4149TIP3    H234083   1.728   4.315   1.743 -0.1443 -0.3074 -2.9361
 4150TIP3   OH234084   4.273   2.553   1.726 -0.4668 -0.0361 -0.5627
 4150TIP3    H134085   4.210   2.533   1.795  1.1916 -1.2424  0.6624
 4150TIP3    H234086   4.335   2.481   1.728  1.6296  1.6648 -0.9322
 4151TIP3   OH234087   2.516   5.798   1.228  0.1345  0.0204  0.6606
 4151TIP3    H134088   2.591   5.807   1.169  0.7285  1.2160  1.5466
 4151TIP3    H234089   2.503   5.704   1.237  1.3148 -0.1995  0.2033
 4152TIP3   OH234090   4.686   2.383   2.174  0.2342 -0.1225 -0.1374
 4152TIP3    H134091   4.607   2.329   2.174  0.1399  0.0135 -0.2740
 4152TIP3    H234092   4.758   2.321   2.168  0.1410 -0.2549  0.1118
 4153TIP3   OH234093   0.223   3.393   1.892 -0.3724  0.1869 -0.3722
 4153TIP3    H134094   0.237   3.488   1.899  1.3900  0.1497 -2.2244
 4153TIP3    H234095   0.242   3.360   1.979  0.3012  1.4295 -0.0196
 4154TIP3   OH234096   4.229   1.690   0.758  0.1094 -0.3294 -0.0290
 4154TIP3    H134097   4.142   1.714   0.725 -0.4091  0.5960  1.8600
 4154TIP3    H234098   4.264   1.772   0.793 -0.9756 -1.6750  5.0598
 4155TIP3   OH234099   2.056   0.391   0.032  0.1865 -0.1342 -0.0112
 4155TIP3    H134100   1.998   0.389  -0.044 -0.3776  0.5173  0.3850
 4155TIP3    H234101   2.129   0.447   0.005 -0.8015  1.4344  0.4406
 4156TIP3   OH234102   1.517   5.863   2.046 -0.0173  0.1826  0.4709
 4156TIP3    H134103   1.465   5.922   2.100 -2.9116  1.5396 -3.3447
 4156TIP3    H234104   1.477   5.777   2.059  0.8510 -0.0036  2.1309
 4157TIP3   OH234105   0.484   0.418   8.055 -0.1014 -0.7045  0.7736
 4157TIP3    H134106   0.518   0.507   8.047  0.6149 -0.7099  3.0191
 4157TIP3    H234107   0.423   0.408   7.982 -0.4240  1.7378  0.6542
 4158TIP3   OH234108   1.513   1.353   3.336 -0.3955  0.0580 -0.1650
 4158TIP3    H134109   1.525   1.340   3.430  0.4360  0.6678 -0.1857
 4158TIP3    H234110   1.424   1.320   3.319  0.5753 -3.0885  0.2435
 4159TIP3   OH234111   5.358   5.178   1.127  0.0831  0.0982  0.2258
 4159TIP3    H134112   5.423   5.243   1.154 -0.7788  0.7709  0.7237
 4159TIP3    H234113   5.405   5.122   1.065  0.3457  2.3232 -1.7290
 4160TIP3   OH234114   5.539   3.194   1.470 -0.8075  0.3891  0.3321
 4160TIP3    H134115   5.491   3.185   1.387 -2.0588  0.2594  1.0434
 4160TIP3    H234116   5.628   3.219   1.444 -0.3001 -2.5793 -1.2051
 4161TIP3   OH234117   1.546   0.620   0.256  0.2349  0.3554  0.4843
 4161TIP3    H134118   1.539   0.618   0.351  1.0706 -0.6690  0.5477
 4161TIP3    H234119   1.484   0.687   0.229 -2.2685 -1.3422  1.5561
 4162TIP3   OH234120   5.322   2.318   1.816 -0.4284  0.0175  0.0574
 4162TIP3    H134121   5.316   2.230   1.855  0.3615 -0.4770 -0.9011
 4162TIP3    H234122   5.377   2.367   1.877  0.1914 -0.5315 -0.0502
 4163TIP3   OH234123   3.590   2.508   1.520  0.8797 -0.4055 -0.3371
 4163TIP3    H134124   3.583   2.593   1.564  1.9717 -0.6302  0.3162
 4163TIP3    H234125   3.684   2.497   1.504  0.6928 -1.2415 -0.9263
 4164TIP3   OH234126   4.686   2.121   8.257 -0.4056  0.0687  0.4997
 4164TIP3    H134127   4.629   2.130   8.181 -1.1890 -2.4258  0.6983
 4164TIP3    H234128   4.698   2.210   8.289 -4.2996  0.7578  0.5277
 4165TIP3   OH234129   5.513   1.927   1.318  0.3844  0.2685 -0.1213
 4165TIP3    H134130   5.594   1.899   1.361  0.2548  0.7404  0.4360
 4165TIP3    H234131   5.542   1.982   1.245  0.5902 -0.2007 -0.3988
 4166TIP3   OH234132   6.230   4.619   8.284 -0.0043  1.0503 -0.1115
 4166TIP3    H134133   6.230   4.679   8.209  2.9575  0.6521 -0.5572
 4166TIP3    H234134   6.235   4.532   8.245  0.3044  0.7767  0.5290
 4167TIP3   OH234135   2.342   0.607   7.757 -0.4099  0.3091  0.1548
 4167TIP3    H134136   2.315   0.515   7.764 -0.2081  0.3918  3.4627
 4167TIP3    H234137   2.438   0.603   7.752 -0.3903  0.3452  0.5028
 4168TIP3   OH234138   6.540   6.834   8.449 -0.5265  0.1503 -0.8954
 4168TIP3    H134139   6.545   6.840   8.545 -0.1813 -0.0898 -0.8949
 4168TIP3    H234140   6.447   6.820   8.431 -0.6395  0.5172 -0.6168
 4169TIP3   OH234141   2.535   0.031   2.829 -0.0573 -0.3015 -0.0671
 4169TIP3    H134142   2.617   0.001   2.867  0.0827 -0.5969 -0.5952
 4169TIP3    H234143   2.551   0.031   2.734  0.2966  2.3599 -0.1059
 4170TIP3   OH234144   0.167   1.666   2.668  0.0242 -0.2734 -0.3173
 4170TIP3    H134145   0.146   1.718   2.745 -0.0754  1.1317 -1.2626
 4170TIP3    H234146   0.223   1.595   2.702  1.1724  1.1083  0.8389
 4171TIP3   OH234147   0.212   2.092   8.321  0.1779 -0.1572  0.0609
 4171TIP3    H134148   0.132   2.113   8.369 -1.5106 -1.0964 -2.1727
 4171TIP3    H234149   0.216   2.157   8.252 -0.2713 -1.7672 -1.5562
 4172TIP3   OH234150   1.316   1.144   2.748 -0.9946  0.2933 -0.3706
 4172TIP3    H134151   1.344   1.096   2.670  1.8489 -0.0647  0.7689
 4172TIP3    H234152   1.323   1.236   2.724 -0.9811  0.1788 -0.8139
 4173TIP3   OH234153   5.257   5.582   2.947  0.4169  0.1311 -0.2929
 4173TIP3    H134154   5.317   5.595   2.874  0.2230 -0.1830 -0.5120
 4173TIP3    H234155   5.234   5.489   2.942 -0.8345  0.4528 -0.8006
 4174TIP3   OH234156   2.087   0.921   1.264 -0.3522 -0.8855  0.2899
 4174TIP3    H134157   2.014   0.948   1.209  1.4834 -0.1200 -1.9392
 4174TIP3    H234158   2.125   1.002   1.297  0.7677 -1.1138 -0.3742
 4175TIP3   OH234159   5.748   5.990   8.138  0.1477  0.2537 -0.2367
 4175TIP3    H134160   5.809   6.009   8.067 -1.9224  0.4013 -2.0803
 4175TIP3    H234161   5.737   5.895   8.134  2.2312 -0.1889  1.9105
 4176TIP3   OH234162   1.139   6.348   7.791  0.0851  0.1933  0.5021
 4176TIP3    H134163   1.052   6.311   7.776 -0.1031  1.2592 -1.4663
 4176TIP3    H234164   1.185   6.332   7.709  1.9669 -0.8295  1.7000
 4177TIP3   OH234165   1.741   5.252   2.434 -0.0212  0.1911 -0.0201
 4177TIP3    H134166   1.765   5.236   2.343  0.3773  0.2107  0.0815
 4177TIP3    H234167   1.824   5.269   2.479 -0.1122 -0.7791  0.5416
 4178TIP3   OH234168   5.411   1.640   2.976 -0.3794 -0.1302  0.0362
 4178TIP3    H134169   5.501   1.648   2.947 -0.7886  1.7957 -0.8938
 4178TIP3    H234170   5.413   1.664   3.069 -0.1985  2.5192 -0.5556
 4179TIP3   OH234171   3.687   0.101   0.175  0.0050 -0.1127 -0.2941
 4179TIP3    H134172   3.747   0.172   0.194  0.1197  0.1053 -1.4170
 4179TIP3    H234173   3.638   0.131   0.099  1.0733 -1.8299 -1.7175
 4180TIP3   OH234174   5.620   6.823   2.563 -0.7171  0.3057 -0.0537
 4180TIP3    H134175   5.575   6.907   2.569  0.1168  0.6783  1.4232
 4180TIP3    H234176   5.673   6.830   2.484 -1.0621  0.9637 -0.2353
 4181TIP3   OH234177   5.001   2.565   7.775  0.0998 -0.0037  0.4405
 4181TIP3    H134178   4.970   2.475   7.790  0.2174 -0.1987 -0.3891
 4181TIP3    H234179   5.062   2.556   7.702 -0.0212  0.7778  0.2390
 4182TIP3   OH234180   6.770   5.738   1.846 -0.6119  0.1032  0.0268
 4182TIP3    H134181   6.762   5.644   1.826 -2.4089  0.4390 -1.0971
 4182TIP3    H234182   6.781   5.741   1.941  1.7713 -1.3050 -0.1249
 4183TIP3   OH234183   2.343   4.955   8.065 -0.6898 -0.2350 -0.7199
 4183TIP3    H134184   2.296   5.000   7.995 -2.5321 -1.6507 -0.4853
 4183TIP3    H234185   2.276   4.939   8.132  0.7796  0.1120  0.9023
 4184TIP3   OH234186   6.555   0.742   2.719 -0.1165  0.6408  0.2234
 4184TIP3    H134187   6.582   0.833   2.713  1.4306  0.1172 -1.7707
 4184TIP3    H234188   6.613   0.703   2.785 -1.1191  1.1472  1.4590
 4185TIP3   OH234189   1.985   1.193   1.586  0.4655  0.2070  0.4903
 4185TIP3    H134190   1.941   1.262   1.636 -0.5069 -0.3937  0.4868
 4185TIP3    H234191   2.058   1.165   1.642  0.1171  0.3875  1.0363
 4186TIP3   OH234192   3.013   4.442   8.538  0.5182 -0.5408  0.2081
 4186TIP3    H134193   2.977   4.380   8.476 -0.1273  0.9572 -0.9831
 4186TIP3    H234194   2.937   4.481   8.580  0.7744  1.0755 -0.7451
 4187TIP3   OH234195   1.421   0.833   0.929 -0.8280 -0.0953  0.8482
 4187TIP3    H134196   1.348   0.879   0.971 -1.3114  1.2159 -1.2969
 4187TIP3    H234197   1.379   0.776   0.864  0.0145  1.7112 -1.4104
 4188TIP3   OH234198   1.454   2.104   2.524  0.1174  0.6632  0.1680
 4188TIP3    H134199   1.484   2.070   2.440 -0.6104 -0.1730  0.2319
 4188TIP3    H234200   1.379   2.160   2.502  0.9460  1.7812  0.1185
 4189TIP3   OH234201   0.590   3.069   2.900 -0.4386  0.1052 -0.8985
 4189TIP3    H134202   0.634   3.036   2.979 -1.5800 -1.4228 -0.8459
 4189TIP3    H234203   0.509   3.017   2.895 -1.4290  1.6603 -1.9027
 4190TIP3   OH234204   5.647   6.571   7.030 -0.1143  0.4369 -0.6707
 4190TIP3    H134205   5.657   6.526   7.113  0.9802  0.8298 -0.5590
 4190TIP3    H234206   5.623   6.503   6.968  2.2536 -0.5252 -0.6677
 4191TIP3   OH234207   6.869   1.278   0.705  1.0181  0.1220 -0.7095
 4191TIP3    H134208   6.805   1.247   0.640  2.3976 -2.1018 -1.0962
 4191TIP3    H234209   6.824   1.271   0.789 -0.5666  2.4144 -1.2714
 4192TIP3   OH234210   4.959   2.969   8.409  0.2361  0.4466 -0.8954
 4192TIP3    H134211   4.875   3.014   8.409  0.2434  0.4639 -0.6054
 4192TIP3    H234212   5.021   3.035   8.440  0.4847  0.6633 -1.8211
 4193TIP3   OH234213   6.500   6.250   2.785  0.0390 -0.2959 -0.4202
 4193TIP3    H134214   6.458   6.197   2.718  2.0546 -0.7174 -1.4283
 4193TIP3    H234215   6.587   6.269   2.750  0.1335  1.9473  0.8123
 4194TIP3   OH234216   3.876   4.206   0.035  0.2010  0.0261  0.5748
 4194TIP3    H134217   3.791   4.204  -0.009  0.2545 -1.3375  0.4744
 4194TIP3    H234218   3.939   4.203  -0.037  0.3390  0.5069  0.6700
 4195TIP3   OH234219   0.791   2.521   7.813  0.4330 -0.4608  0.0749
 4195TIP3    H134220   0.824   2.609   7.791 -0.2396 -0.3547 -0.5469
 4195TIP3    H234221   0.847   2.462   7.762  1.2321 -0.4396  0.9000
 4196TIP3   OH234222   0.598   5.669   0.660  0.2125  0.0260 -0.8419
 4196TIP3    H134223   0.566   5.743   0.712 -1.5348  1.2391 -3.4548
 4196TIP3    H234224   0.647   5.615   0.723  0.2962  2.6051  1.4745
 4197TIP3   OH234225   3.231   3.878   8.014 -0.1013 -0.1303 -0.1424
 4197TIP3    H134226   3.163   3.902   7.951 -0.6312  2.0482  1.1777
 4197TIP3    H234227   3.183   3.852   8.092  0.5649 -2.1582 -0.3423
 4198TIP3   OH234228   2.712   0.977   7.685 -0.5251 -0.7482 -0.3621
 4198TIP3    H134229   2.632   0.944   7.645 -0.8028 -0.8041  0.2310
 4198TIP3    H234230   2.689   1.065   7.715 -0.8053 -1.2648  1.0561
 4199TIP3   OH234231   6.841   0.414   0.993  0.2532 -0.1746 -0.0095
 4199TIP3    H134232   6.795   0.496   1.013  1.7161  0.8144 -0.4381
 4199TIP3    H234233   6.772   0.349   0.983 -0.9353  0.8789  0.8994
 4200TIP3   OH234234   4.443   4.982   7.155  0.1447  0.5978  0.1053
 4200TIP3    H134235   4.412   5.042   7.222  1.8757  0.5454  1.0032
 4200TIP3    H234236   4.490   4.914   7.203  0.9209  0.2386 -1.1107
 4201TIP3   OH234237   4.109   5.795   2.519  0.2043 -0.2842 -0.2060
 4201TIP3    H134238   4.186   5.763   2.470  1.1043  0.7476  0.4807
 4201TIP3    H234239   4.104   5.737   2.595  0.9238  0.2498  0.2629
 4202TIP3   OH234240   0.734   2.233   7.550  0.5953 -0.0316  0.0542
 4202TIP3    H134241   0.719   2.328   7.544 -1.6518 -0.0795  2.9538
 4202TIP3    H234242   0.671   2.195   7.489 -0.5537  0.3175  0.9774
 4203TIP3   OH234243   2.358   5.939   0.929 -0.6591  0.4066  0.2949
 4203TIP3    H134244   2.408   5.971   1.004  1.4714  1.8164 -1.5871
 4203TIP3    H234245   2.412   5.960   0.853 -0.3948 -5.0914 -1.4899
 4204TIP3   OH234246   6.696   3.106   8.380 -0.0985 -0.1396 -0.3956
 4204TIP3    H134247   6.709   3.085   8.473  0.8332 -1.5554 -0.8085
 4204TIP3    H234248   6.614   3.063   8.357  0.5273 -1.2820 -0.6105
 4205TIP3   OH234249   1.365   2.389   1.168 -0.1907  0.3319 -0.7467
 4205TIP3    H134250   1.375   2.346   1.253  0.6841 -1.9765 -1.9420
 4205TIP3    H234251   1.449   2.432   1.153 -0.0276 -0.0096 -0.8235
 4206TIP3   OH234252   5.604   2.488   1.738 -0.0840 -0.2316  0.0024
 4206TIP3    H134253   5.519   2.518   1.705 -0.6785 -2.8552 -1.1177
 4206TIP3    H234254   5.641   2.439   1.665  2.2441  0.4914  0.6328
 4207TIP3   OH234255   4.168   3.984   0.114  0.5731 -0.1200 -0.3596
 4207TIP3    H134256   4.128   3.953   0.033 -0.3019 -1.7792  0.6472
 4207TIP3    H234257   4.095   4.023   0.163  0.4142 -1.8835  0.8851
 4208TIP3   OH234258   0.543   4.900   2.573 -0.0088  0.3234  0.1908
 4208TIP3    H134259   0.542   4.822   2.517  2.6421  0.2466  0.1200
 4208TIP3    H234260   0.510   4.970   2.517  0.1545 -0.2428 -0.6403
 4209TIP3   OH234261   4.575   0.352   3.017  0.2415  0.1660 -0.5532
 4209TIP3    H134262   4.640   0.412   3.052  1.1706  0.7996 -3.1256
 4209TIP3    H234263   4.613   0.265   3.031  0.6794  0.4145 -0.1823
 4210TIP3   OH234264   1.315   4.357   2.947 -0.6111 -0.1368  0.3132
 4210TIP3    H134265   1.296   4.304   2.870  1.6951 -0.8531  0.1482
 4210TIP3    H234266   1.406   4.385   2.935 -0.4638  0.4797  2.3648
 4211TIP3   OH234267   0.257   1.859   2.869  0.2270 -0.4145  0.0940
 4211TIP3    H134268   0.304   1.843   2.787  0.5355  2.6983 -0.4666
 4211TIP3    H234269   0.305   1.931   2.910 -2.1017  0.5986  1.1840
 4212TIP3   OH234270   5.172   3.122   8.214 -0.2058 -0.2630  0.0994
 4212TIP3    H134271   5.167   3.070   8.294  0.2151  0.4572  0.6104
 4212TIP3    H234272   5.205   3.062   8.148  0.9209 -0.4812  0.8343
 4213TIP3   OH234273   6.602   1.298   7.640 -0.0542  0.5602 -0.0998
 4213TIP3    H134274   6.532   1.364   7.641  0.8624  1.5637 -0.3415
 4213TIP3    H234275   6.556   1.214   7.647 -1.2900  1.1877 -0.3957
 4214TIP3   OH234276   1.946   6.602   7.564 -0.4430 -0.6904  0.3311
 4214TIP3    H134277   1.889   6.559   7.629  1.6300 -3.0357  0.7721
 4214TIP3    H234278   2.012   6.647   7.617  1.8271 -3.4003  0.0461
 4215TIP3   OH234279   4.400   1.547   0.301 -0.5427  0.2186 -0.2840
 4215TIP3    H134280   4.413   1.608   0.228  2.2227 -1.0673 -1.0002
 4215TIP3    H234281   4.450   1.585   0.373  0.8762 -0.8955 -0.6210
 4216TIP3   OH234282   4.076   2.276   2.359  0.1855 -0.1404 -0.3867
 4216TIP3    H134283   4.142   2.212   2.386 -1.4796 -1.2608  1.3143
 4216TIP3    H234284   4.057   2.326   2.438  0.9498  2.0718 -1.5291
 4217TIP3   OH234285   5.314   6.376   7.323  0.2406 -0.5111  0.0178
 4217TIP3    H134286   5.348   6.414   7.405 -1.2368 -2.0932  1.4406
 4217TIP3    H234287   5.317   6.282   7.337  0.1366 -0.8298 -1.8663
 4218TIP3   OH234288   4.799   3.876   0.978  0.5064  0.0629  0.3650
 4218TIP3    H134289   4.816   3.964   0.946  0.5605 -0.5623 -1.5010
 4218TIP3    H234290   4.814   3.880   1.072  0.2994  2.0729  0.3413
 4219TIP3   OH234291   1.751   4.452   2.077  0.0329  0.0863  0.3263
 4219TIP3    H134292   1.840   4.446   2.043  0.3878  3.1162  0.4309
 4219TIP3    H234293   1.696   4.455   1.998 -0.1169 -2.3622  0.2644
 4220TIP3   OH234294   2.721   6.769   7.946  0.2896 -0.1468 -0.3133
 4220TIP3    H134295   2.692   6.681   7.968  1.6357 -0.4446  0.4310
 4220TIP3    H234296   2.652   6.827   7.979 -0.1958 -0.8761 -0.0307
 4221TIP3   OH234297   1.138   1.343   0.214 -0.6149 -0.5918  0.2718
 4221TIP3    H134298   1.062   1.327   0.157  0.8918 -0.6975 -1.8373
 4221TIP3    H234299   1.162   1.257   0.247 -0.7350 -0.7140  0.0438
 4222TIP3   OH234300   0.839   6.750   2.657 -0.8011 -0.1363  0.4365
 4222TIP3    H134301   0.857   6.819   2.721  0.3702  0.4277 -0.4599
 4222TIP3    H234302   0.911   6.756   2.594  0.2525 -3.2264  1.1577
 4223TIP3   OH234303   2.993   6.650   1.031 -0.3184 -0.2081  0.3174
 4223TIP3    H134304   2.954   6.730   0.996  2.4259  1.4977  0.8691
 4223TIP3    H234305   3.046   6.616   0.959  0.9160  0.2097  0.9999
 4224TIP3   OH234306   6.372   6.191   1.401 -0.2149  0.0311  0.3278
 4224TIP3    H134307   6.279   6.170   1.405  0.3486 -2.9206  0.0491
 4224TIP3    H234308   6.391   6.197   1.307  0.0684 -0.3603  0.3598
 4225TIP3   OH234309   4.464   4.660   2.476  0.2851  0.1446 -0.0464
 4225TIP3    H134310   4.448   4.596   2.546  2.9660 -2.2340 -1.3776
 4225TIP3    H234311   4.390   4.720   2.481 -2.0360 -2.5805  1.8780
 4226TIP3   OH234312   6.805   4.513   0.800 -0.3458 -0.8597  0.6121
 4226TIP3    H134313   6.883   4.463   0.824  0.9097  0.6813 -0.0324
 4226TIP3    H234314   6.763   4.533   0.883  1.5075  0.6193  1.2788
 4227TIP3   OH234315   3.850   5.990   8.545 -0.4638  0.1831  0.3748
 4227TIP3    H134316   3.781   6.047   8.579 -1.5289 -1.0607  0.3624
 4227TIP3    H234317   3.836   5.906   8.589 -0.0848 -0.6271 -0.9821
 4228TIP3   OH234318   0.586   5.834   1.551 -0.5311 -0.1796  0.1787
 4228TIP3    H134319   0.623   5.821   1.463  1.8521 -0.9487  1.1904
 4228TIP3    H234320   0.635   5.908   1.586  0.6456 -1.6808  1.8503
 4229TIP3   OH234321   3.574   2.779   2.127 -0.3313 -0.2718  0.6846
 4229TIP3    H134322   3.530   2.694   2.126  0.8894 -0.9241  0.5862
 4229TIP3    H234323   3.608   2.787   2.216  1.8083 -1.1233  0.0137
 4230TIP3   OH234324   5.154   1.233   2.612  0.5576 -0.0976  0.0120
 4230TIP3    H134325   5.118   1.271   2.532  1.5898 -0.6948 -0.7517
 4230TIP3    H234326   5.083   1.242   2.676  0.7005  3.0358 -0.1192
 4231TIP3   OH234327   1.397   6.626   7.764 -0.0096 -0.3216  0.3551
 4231TIP3    H134328   1.323   6.685   7.751  1.3944  1.1287 -1.7329
 4231TIP3    H234329   1.445   6.629   7.682  0.3424 -4.2415  0.2083
 4232TIP3   OH234330   6.242   0.276   1.879 -0.7343  0.2692  0.1131
 4232TIP3    H134331   6.249   0.288   1.973 -2.5723 -1.3323  0.5168
 4232TIP3    H234332   6.204   0.358   1.847  0.5404  1.0872  0.6188
 4233TIP3   OH234333   6.725   0.946   7.847  0.2398  0.9033 -0.0618
 4233TIP3    H134334   6.795   1.006   7.825 -0.8297  1.3493 -2.5325
 4233TIP3    H234335   6.671   0.993   7.911 -0.2364  2.3809 -1.4912
 4234TIP3   OH234336   2.705   6.480   7.936 -0.3493  0.4728  0.2506
 4234TIP3    H134337   2.677   6.419   8.005  0.5907  1.5600  1.6542
 4234TIP3    H234338   2.800   6.470   7.933 -0.2120  1.6414  0.3028
 4235TIP3   OH234339   5.143   2.563   8.172 -0.2689 -0.1611  0.2561
 4235TIP3    H134340   5.124   2.489   8.229  0.2149  0.0260  0.6711
 4235TIP3    H234341   5.148   2.638   8.231 -1.6919  0.3720 -0.2805
 4236TIP3   OH234342   5.341   0.435   7.696 -0.2174 -0.5094  0.0335
 4236TIP3    H134343   5.371   0.491   7.768  0.0135  1.1411 -1.2925
 4236TIP3    H234344   5.420   0.389   7.667 -0.4357 -1.7087  1.2223
 4237TIP3   OH234345   5.306   6.827   0.510  0.0347  0.6382  0.0447
 4237TIP3    H134346   5.269   6.739   0.508 -0.1603  0.7237 -0.1823
 4237TIP3    H234347   5.292   6.857   0.600 -1.0845  0.9350 -0.2156
 4238TIP3   OH234348   4.128   4.384   1.141  0.0459  0.1152  0.5524
 4238TIP3    H134349   4.119   4.452   1.074 -2.3430 -0.4507  0.2179
 4238TIP3    H234350   4.202   4.330   1.111  2.2752  2.6974  1.0361
 4239TIP3   OH234351   5.387   1.262   0.545  0.0403  0.2692 -0.0394
 4239TIP3    H134352   5.380   1.196   0.614 -0.5714  0.7415  0.3554
 4239TIP3    H234353   5.394   1.211   0.464  1.4255 -0.3019  0.3966
 4240TIP3   OH234354   2.988   0.409   0.500  0.3581  0.3134  0.4653
 4240TIP3    H134355   2.911   0.446   0.542 -0.0288 -1.5396  1.4726
 4240TIP3    H234356   2.965   0.405   0.407 -0.6374  0.0736  0.7141
 4241TIP3   OH234357   4.390   5.555   7.068 -0.0482  0.5963  0.0478
 4241TIP3    H134358   4.456   5.507   7.117 -1.1948 -0.0029  1.0777
 4241TIP3    H234359   4.314   5.557   7.126 -1.6504 -0.6118 -1.8827
 4242TIP3   OH234360   5.343   2.910   1.027 -0.1758  0.0020 -0.0742
 4242TIP3    H134361   5.422   2.912   1.081  1.1766  4.2079 -1.7433
 4242TIP3    H234362   5.374   2.892   0.939 -1.2591  0.4321 -0.5670
 4243TIP3   OH234363   1.881   6.416   1.719 -0.0922 -0.2218  0.0746
 4243TIP3    H134364   1.897   6.449   1.808 -0.7528 -1.1958  0.5754
 4243TIP3    H234365   1.905   6.323   1.723 -2.3052 -0.8633 -0.1069
 4244TIP3   OH234366   4.811   6.868   7.947  0.3275  0.2257  0.3254
 4244TIP3    H134367   4.833   6.821   8.027 -0.4147  0.7048  0.8175
 4244TIP3    H234368   4.777   6.800   7.888  1.4343 -0.2241  0.1825
 4245TIP3   OH234369   4.169   3.942   8.326  0.5001 -0.5664  0.2486
 4245TIP3    H134370   4.113   3.917   8.399  0.9843  1.5209  1.4140
 4245TIP3    H234371   4.245   3.884   8.334  0.5657 -0.3439  1.4592
 4246TIP3   OH234372   3.311   2.765   8.305  0.1608 -0.3696 -0.5881
 4246TIP3    H134373   3.240   2.770   8.242  1.4270 -1.1973 -2.1440
 4246TIP3    H234374   3.390   2.787   8.256  1.3971 -2.5095  0.2860
 4247TIP3   OH234375   2.443   3.300   2.886 -0.3028  0.0274  0.0777
 4247TIP3    H134376   2.425   3.254   2.968 -0.0258  1.0243  0.7090
 4247TIP3    H234377   2.448   3.230   2.820 -3.1187 -0.5865  0.4107
 4248TIP3   OH234378   5.890   0.426   8.651 -0.0287  0.5231  0.3044
 4248TIP3    H134379   5.899   0.501   8.709 -0.3195  0.0890  0.9316
 4248TIP3    H234380   5.831   0.367   8.698 -0.2286  0.1351 -0.4126
 4249TIP3   OH234381   6.429   1.580   2.883  0.1234  0.4292 -0.6568
 4249TIP3    H134382   6.521   1.563   2.899  0.1195 -0.0628 -1.1077
 4249TIP3    H234383   6.412   1.665   2.924  0.2650 -0.4350  1.3084
 4250TIP3   OH234384   0.298   2.525   0.556  0.0918  0.0495 -0.2106
 4250TIP3    H134385   0.287   2.592   0.624  1.6690 -1.3096  1.4709
 4250TIP3    H234386   0.389   2.535   0.528 -0.1147 -0.4100 -1.0661
 4251TIP3   OH234387   4.908   5.854   7.946 -0.1510 -0.1199  0.5155
 4251TIP3    H134388   4.820   5.853   7.909  0.6031 -1.1055 -1.3794
 4251TIP3    H234389   4.963   5.813   7.879  1.9274  1.3218  1.2283
 4252TIP3   OH234390   2.420   4.558   7.315  0.5239  0.2894  0.4009
 4252TIP3    H134391   2.474   4.551   7.394 -1.1617  0.8262  1.6564
 4252TIP3    H234392   2.335   4.522   7.341 -1.2925  3.8840  0.0807
 4253TIP3   OH234393   6.625   4.514   2.553 -0.4701  0.2366  0.0470
 4253TIP3    H134394   6.719   4.503   2.539 -0.6119 -0.8372 -0.1121
 4253TIP3    H234395   6.597   4.573   2.482 -0.0061  0.2047 -0.1680
 4254TIP3   OH234396   3.380   3.311   8.202  0.0649  0.0522 -0.4433
 4254TIP3    H134397   3.385   3.259   8.122 -0.7733 -0.2529 -0.3027
 4254TIP3    H234398   3.413   3.254   8.271  2.3759  0.8524 -0.7764
 4255TIP3   OH234399   6.346   6.285   3.098 -0.4009 -0.7111  0.4287
 4255TIP3    H134400   6.406   6.223   3.140 -0.5949  0.2970  2.3066
 4255TIP3    H234401   6.310   6.337   3.170  0.4470  2.2478 -1.0999
 4256TIP3   OH234402   5.142   2.625   1.371  0.1167  0.0977  0.6754
 4256TIP3    H134403   5.061   2.574   1.364  0.1324  0.2287 -0.7828
 4256TIP3    H234404   5.112   2.716   1.378  0.1294  0.0722  1.0920
 4257TIP3   OH234405   5.866   1.655   1.154  0.5038 -0.4907  0.5171
 4257TIP3    H134406   5.837   1.728   1.099  1.3876 -1.1066 -0.8252
 4257TIP3    H234407   5.906   1.697   1.231  0.5278  0.4274  0.0113
 4258TIP3   OH234408   2.372   5.260   3.172  0.2218 -0.2066 -0.1890
 4258TIP3    H134409   2.352   5.332   3.233  1.7500 -2.2897  3.0947
 4258TIP3    H234410   2.287   5.222   3.151 -0.3200 -0.7720  2.6210
 4259TIP3   OH234411   2.287   6.370   0.757 -0.5341 -0.3764  1.0003
 4259TIP3    H134412   2.265   6.277   0.763  2.3154 -1.1647  0.5608
 4259TIP3    H234413   2.380   6.372   0.737 -0.3391  2.6142  1.6728
 4260TIP3   OH234414   1.867   2.518   1.162 -0.3047  0.7436  0.2311
 4260TIP3    H134415   1.931   2.514   1.233  1.2625 -0.5138 -1.1487
 4260TIP3    H234416   1.913   2.562   1.090 -1.0767  0.1096 -0.6881
 4261TIP3   OH234417   3.090   5.078   0.628 -0.2024  0.3090 -0.3499
 4261TIP3    H134418   2.999   5.087   0.599  0.0078  1.6240 -0.6803
 4261TIP3    H234419   3.138   5.143   0.577  0.5072  1.3630  1.5423
 4262TIP3   OH234420   0.061   5.052   7.913  0.0095 -0.0967  0.7556
 4262TIP3    H134421   0.137   5.060   7.971  0.9737  0.4845 -0.5201
 4262TIP3    H234422   0.083   4.978   7.856  1.1585  1.9741 -1.6937
 4263TIP3   OH234423   1.785   4.302   2.973  0.1398  0.1009  0.0334
 4263TIP3    H134424   1.743   4.351   3.044 -1.4653 -1.1219 -0.0178
 4263TIP3    H234425   1.827   4.228   3.017 -0.2530 -0.2724 -0.2183
 4264TIP3   OH234426   5.536   6.235   3.126  0.3457  0.0210  0.4005
 4264TIP3    H134427   5.465   6.175   3.148  0.4136  0.0379  0.6622
 4264TIP3    H234428   5.559   6.277   3.209 -0.4348  1.2141  0.0507
 4265TIP3   OH234429   0.254   4.719   1.576 -0.3317 -0.4813 -0.0388
 4265TIP3    H134430   0.311   4.669   1.634  0.2375 -0.2869 -0.4191
 4265TIP3    H234431   0.231   4.659   1.505  1.9812  0.3087 -1.5840
 4266TIP3   OH234432   1.812   4.480   3.622 -0.1844 -0.4035  0.2036
 4266TIP3    H134433   1.866   4.559   3.631  1.4031 -1.3087 -0.8882
 4266TIP3    H234434   1.728   4.512   3.590  0.6616  0.8105 -0.9431
 4267TIP3   OH234435   5.045   5.837   2.384  0.2503  0.2745  0.5774
 4267TIP3    H134436   5.020   5.895   2.455 -0.1169  0.9783 -0.1124
 4267TIP3    H234437   5.100   5.890   2.327  0.9724 -0.4315  0.5929
 4268TIP3   OH234438   4.407   6.846   1.024 -0.5772 -0.4019 -0.4614
 4268TIP3    H134439   4.435   6.870   0.936  0.6453  2.7482  0.6447
 4268TIP3    H234440   4.487   6.820   1.068 -0.6449  0.8902  0.4879
 4269TIP3   OH234441   6.540   6.598   0.671  0.1982 -0.1350 -0.2350
 4269TIP3    H134442   6.513   6.654   0.598  0.7677  2.5076  1.4593
 4269TIP3    H234443   6.500   6.637   0.748  1.6582 -1.3444  1.2116
 4270TIP3   OH234444   4.754   0.709   1.631 -0.0700 -0.6959  0.1535
 4270TIP3    H134445   4.732   0.793   1.673 -0.1504 -1.5421  1.8522
 4270TIP3    H234446   4.675   0.656   1.641  0.0444 -1.0540 -0.7517
 4271TIP3   OH234447   2.020   6.588   1.530  0.0724 -0.2879 -0.4285
 4271TIP3    H134448   1.951   6.535   1.569 -0.1010 -0.4122 -0.9017
 4271TIP3    H234449   2.101   6.553   1.566  0.0231 -1.4630 -1.4087
 4272TIP3   OH234450   2.224   1.478   8.425  0.1176 -0.1749  0.3580
 4272TIP3    H134451   2.188   1.411   8.483 -0.6061  0.2199  0.3832
 4272TIP3    H234452   2.169   1.555   8.441 -0.3689 -0.1831 -1.1656
 4273TIP3   OH234453   4.315   1.370   8.569  0.3037  0.6549 -0.1890
 4273TIP3    H134454   4.304   1.388   8.663 -0.1583  0.0761 -0.1349
 4273TIP3    H234455   4.336   1.277   8.565  0.3066  0.6768 -0.6675
 4274TIP3   OH234456   1.276   2.172   1.361  0.1403  0.0613 -0.5716
 4274TIP3    H134457   1.205   2.121   1.399  1.2032 -1.5173 -0.6362
 4274TIP3    H234458   1.292   2.242   1.425 -3.6216  2.5884 -2.0537
 4275TIP3   OH234459   5.690   4.915   2.289  0.1777 -0.1665 -0.3456
 4275TIP3    H134460   5.756   4.847   2.273  2.2502  1.6128  0.2720
 4275TIP3    H234461   5.710   4.984   2.226 -0.5283  0.8140  0.4764
 4276TIP3   OH234462   2.040   4.701   0.999  0.3373 -0.3389  0.2049
 4276TIP3    H134463   1.953   4.727   1.029  0.4636 -1.4806  1.6938
 4276TIP3    H234464   2.023   4.644   0.924 -0.3169 -1.6865  1.3307
 4277TIP3   OH234465   5.519   6.030   0.528 -0.6461  0.3373  0.1703
 4277TIP3    H134466   5.462   5.958   0.500 -0.4568 -0.2893  1.3453
 4277TIP3    H234467   5.481   6.059   0.611 -0.4606  1.3162 -0.0803
 4278TIP3   OH234468   1.405   1.595   3.536 -0.1166  0.2186 -0.1806
 4278TIP3    H134469   1.467   1.666   3.553 -0.3635  0.7246 -1.2964
 4278TIP3    H234470   1.375   1.568   3.622  1.2254  0.3454  0.3559
 4279TIP3   OH234471   2.768   4.779   0.598  0.1525  0.3394 -0.2126
 4279TIP3    H134472   2.749   4.766   0.691 -1.9727 -0.5563 -0.7261
 4279TIP3    H234473   2.691   4.825   0.564  1.5500  2.0451 -1.2746
 4280TIP3   OH234474   5.242   1.458   0.307  0.3482  0.2905 -0.3947
 4280TIP3    H134475   5.172   1.393   0.305  0.9919 -0.4084 -0.7254
 4280TIP3    H234476   5.232   1.505   0.224  0.5482 -0.1204 -0.6580
 4281TIP3   OH234477   1.937   5.342   1.655 -0.0075  0.6247 -0.0816
 4281TIP3    H134478   2.011   5.291   1.622  0.5323  0.5516  1.1645
 4281TIP3    H234479   1.952   5.346   1.750 -2.7376 -1.2249  0.5221
 4282TIP3   OH234480   2.672   3.738   3.373 -0.2582 -0.0937  0.4330
 4282TIP3    H134481   2.691   3.655   3.329 -1.3793  0.3656 -0.9935
 4282TIP3    H234482   2.724   3.803   3.324  1.7602 -0.0752  2.4324
 4283TIP3   OH234483   1.714   2.453   8.529  0.3984 -0.4712  0.0623
 4283TIP3    H134484   1.625   2.471   8.556  0.4865 -0.3632  0.2782
 4283TIP3    H234485   1.712   2.459   8.433  0.0609 -0.9757  0.0302
 4284TIP3   OH234486   2.021   2.782   3.712 -0.1424 -0.2239 -0.3223
 4284TIP3    H134487   2.078   2.807   3.784  0.9542 -1.9352 -0.5315
 4284TIP3    H234488   1.968   2.860   3.694  0.1531  0.4946  1.7425
 4285TIP3   OH234489   3.678   3.958   1.027 -0.1819 -0.1923 -0.1850
 4285TIP3    H134490   3.772   3.968   1.039 -0.5663  2.0175  1.8130
 4285TIP3    H234491   3.650   3.903   1.101 -0.5735  0.1090 -0.1002
 4286TIP3   OH234492   6.499   0.025   1.869 -0.2006 -0.3012 -0.0238
 4286TIP3    H134493   6.530  -0.066   1.864 -1.4374 -0.7810  0.7512
 4286TIP3    H234494   6.425   0.028   1.808  0.8868  0.6704 -1.3682
 4287TIP3   OH234495   2.690   3.369   8.586  0.0846  0.8203 -0.5348
 4287TIP3    H134496   2.678   3.322   8.503  1.6215  1.8088 -1.3732
 4287TIP3    H234497   2.784   3.361   8.604  0.0508  1.9771  0.2654
 4288TIP3   OH234498   2.893   2.636   8.582  0.6698  0.0834 -0.3069
 4288TIP3    H134499   2.978   2.653   8.623  1.4021  0.2924 -1.8400
 4288TIP3    H234500   2.885   2.704   8.515 -0.9636  0.3889  0.1595
 4289TIP3   OH234501   1.682   1.458   1.037 -0.1333 -0.2409  0.0309
 4289TIP3    H134502   1.638   1.536   1.003  0.1675  0.4122  1.0692
 4289TIP3    H234503   1.617   1.416   1.093 -0.4817 -1.0625 -0.9740
 4290TIP3   OH234504   5.057   3.209   7.918  0.5142 -0.1103  0.4927
 4290TIP3    H134505   5.123   3.242   7.857 -0.9439 -0.0913 -1.1432
 4290TIP3    H234506   5.095   3.128   7.952  1.7845  0.3981  0.3335
 4291TIP3   OH234507   4.069   1.364   2.692 -0.4620  0.0181  0.0227
 4291TIP3    H134508   4.027   1.293   2.740 -1.1107  1.2788  1.4128
 4291TIP3    H234509   4.031   1.444   2.730  1.2138  1.1384 -0.5681
 4292TIP3   OH234510   2.512   6.174   1.482 -0.3903 -0.1850 -0.7084
 4292TIP3    H134511   2.452   6.205   1.414 -0.3465 -0.5368 -0.9116
 4292TIP3    H234512   2.493   6.081   1.491  0.8535 -0.5508 -1.5641
 4293TIP3   OH234513   0.907   5.398   1.422 -0.7439 -0.1386  0.2596
 4293TIP3    H134514   0.846   5.325   1.429 -0.5943 -0.1619  1.6134
 4293TIP3    H234515   0.976   5.368   1.363 -1.6171 -0.3949 -0.6629
 4294TIP3   OH234516   6.468   2.180   2.365  0.8176  0.5248 -0.2939
 4294TIP3    H134517   6.424   2.150   2.443  0.5381  0.5270 -0.4502
 4294TIP3    H234518   6.553   2.136   2.366  0.3210 -0.4798 -0.6582
 4295TIP3   OH234519   5.465   6.675   1.392 -0.2544  0.4026 -0.1285
 4295TIP3    H134520   5.521   6.602   1.420  0.2837  1.5042  1.8641
 4295TIP3    H234521   5.427   6.708   1.473 -0.5577  2.2866 -0.9911
 4296TIP3   OH234522   5.788   2.421   3.267  0.1142  0.3592  0.0104
 4296TIP3    H134523   5.837   2.501   3.284 -0.6577  0.9097 -0.3127
 4296TIP3    H234524   5.847   2.369   3.212  1.0474  0.2279  1.0939
 4297TIP3   OH234525   1.879   4.374   3.879 -0.0419 -0.0339 -0.3044
 4297TIP3    H134526   1.813   4.419   3.932 -0.3434 -1.2830  0.4410
 4297TIP3    H234527   1.852   4.389   3.788 -1.2512 -0.3638 -0.0125
 4298TIP3   OH234528   6.072   6.557   0.123 -0.2214 -0.0269  0.7360
 4298TIP3    H134529   6.016   6.624   0.163  1.2782  2.6348 -1.2831
 4298TIP3    H234530   6.160   6.578   0.154  0.7275  1.0295 -2.3323
 4299TIP3   OH234531   6.782   1.963   0.411 -0.1269  0.5107  0.0205
 4299TIP3    H134532   6.838   2.005   0.346 -0.6362 -0.5427 -1.1491
 4299TIP3    H234533   6.734   2.035   0.452 -1.3213  1.1000 -2.2469
 4300TIP3   OH234534   5.853   4.276   8.342  0.2668  0.4252  0.3743
 4300TIP3    H134535   5.916   4.207   8.320 -0.6134 -0.2300 -0.1335
 4300TIP3    H234536   5.817   4.249   8.426 -0.5758 -0.1056 -0.1473
 4301TIP3   OH234537   4.446   2.331   8.353 -0.3635 -0.4594  0.0325
 4301TIP3    H134538   4.395   2.358   8.277  0.0274 -0.8634 -0.3734
 4301TIP3    H234539   4.536   2.324   8.321 -0.3693 -1.7099  0.2590
 4302TIP3   OH234540   5.764   4.248   2.862  0.2865 -0.1742  0.3047
 4302TIP3    H134541   5.783   4.313   2.795 -2.1371  0.7048  0.3525
 4302TIP3    H234542   5.849   4.221   2.895  1.4691  0.7507 -1.8089
 4303TIP3   OH234543   2.388   0.272   2.270  0.9275 -0.0390 -0.0325
 4303TIP3    H134544   2.442   0.202   2.306 -0.2196 -1.6261 -1.2329
 4303TIP3    H234545   2.310   0.273   2.326  1.8119  1.7410  1.2478
 4304TIP3   OH234546   4.872   6.859   0.141  0.1396  0.4463  0.0118
 4304TIP3    H134547   4.914   6.936   0.181  1.2093 -0.4394  0.6353
 4304TIP3    H234548   4.785   6.890   0.118 -0.0198  1.4242  1.7071
 4305TIP3   OH234549   2.301   0.977   0.329  0.2952  0.2871  0.4737
 4305TIP3    H134550   2.274   0.898   0.283  1.7304 -1.1789  1.9788
 4305TIP3    H234551   2.380   1.006   0.283  0.6388 -0.0752  0.8189
 4306TIP3   OH234552   5.727   5.395   7.302 -0.0235 -0.1346  0.2553
 4306TIP3    H134553   5.820   5.416   7.289 -0.2089  0.0901 -0.8021
 4306TIP3    H234554   5.727   5.312   7.350  0.7232 -0.1584  0.2227
 4307TIP3   OH234555   4.012   2.230   1.294  0.4341  0.4626 -0.2637
 4307TIP3    H134556   4.085   2.226   1.356  0.6102  1.3454 -0.4058
 4307TIP3    H234557   4.033   2.304   1.237 -0.6138  0.7845 -0.2495
 4308TIP3   OH234558   1.674   5.356   0.017  0.7329 -0.4063 -0.4915
 4308TIP3    H134559   1.581   5.343   0.000  0.9484 -2.6803 -0.2354
 4308TIP3    H234560   1.716   5.338  -0.066  1.0941 -1.9285 -0.0083
 4309TIP3   OH234561   0.210   3.774   3.852  0.0001 -0.1554  0.0439
 4309TIP3    H134562   0.295   3.797   3.891  0.5976  0.5383 -1.5550
 4309TIP3    H234563   0.228   3.695   3.802 -0.1863  0.2068 -0.6101
 4310TIP3   OH234564   2.956   6.366   2.023  0.6731 -0.1936  0.0708
 4310TIP3    H134565   2.966   6.401   1.934  3.4803 -2.5310 -0.6943
 4310TIP3    H234566   2.868   6.391   2.049  0.4013  2.1637 -2.6370
 4311TIP3   OH234567   6.379   3.535   1.836 -0.1016 -0.0232  0.0994
 4311TIP3    H134568   6.397   3.452   1.879  1.3289 -0.9866 -2.1813
 4311TIP3    H234569   6.327   3.584   1.900 -0.0151 -2.1870  1.9653
 4312TIP3   OH234570   5.866   0.868   2.209  0.3163 -0.0784  0.5283
 4312TIP3    H134571   5.832   0.936   2.150 -1.2312 -0.2887  1.1147
 4312TIP3    H234572   5.953   0.899   2.233 -0.3535  1.7589  0.8089
 4313TIP3   OH234573   5.288   6.080   3.133  0.2423  0.5898  0.2937
 4313TIP3    H134574   5.320   6.036   3.054 -2.2524 -0.4875 -0.2195
 4313TIP3    H234575   5.279   6.010   3.197  0.6129  1.1737  1.0004
 4314TIP3   OH234576   0.467   1.275   8.227  0.6042 -0.0726  0.4253
 4314TIP3    H134577   0.529   1.202   8.229  1.9780  0.9912 -0.8046
 4314TIP3    H234578   0.485   1.323   8.308  1.6188  0.3619 -0.0296
 4315TIP3   OH234579   0.745   3.920   0.394 -0.5407  0.2658 -0.0588
 4315TIP3    H134580   0.739   3.834   0.351  1.9592  0.3633 -0.7294
 4315TIP3    H234581   0.784   3.901   0.480 -1.8491  0.5469  0.6298
 4316TIP3   OH234582   5.394   0.950   8.184  0.0466  0.0264 -0.5753
 4316TIP3    H134583   5.326   0.900   8.138 -0.3943  0.0114  0.0854
 4316TIP3    H234584   5.355   1.037   8.197 -0.8296 -0.6625  1.9419
 4317TIP3   OH234585   3.460   5.303   7.986 -0.3336  0.7405 -0.4665
 4317TIP3    H134586   3.405   5.288   7.909  1.4965 -2.7262 -1.3286
 4317TIP3    H234587   3.542   5.338   7.949  0.0775  0.3360  0.0522
 4318TIP3   OH234588   6.196   5.910   1.942  0.2377  0.2515 -0.5883
 4318TIP3    H134589   6.106   5.942   1.937 -0.0696 -0.5415 -0.2550
 4318TIP3    H234590   6.202   5.868   2.028  1.3112  1.4142 -0.0605
 4319TIP3   OH234591   3.077   4.736   7.943  0.6710 -0.2425  0.4802
 4319TIP3    H134592   3.017   4.685   7.889  2.8669 -0.3037 -2.1062
 4319TIP3    H234593   3.047   4.721   8.033 -1.7559 -2.0361 -0.5199
 4320TIP3   OH234594   0.647   4.282   3.180  0.7092  0.4706 -0.4543
 4320TIP3    H134595   0.693   4.291   3.264 -3.3069  0.9792  1.9388
 4320TIP3    H234596   0.672   4.359   3.130  2.1683  0.8672  0.8110
 4321TIP3   OH234597   1.967   6.313   1.125 -0.4861 -0.0221 -0.0682
 4321TIP3    H134598   1.956   6.245   1.192 -1.6429  0.1929 -0.0071
 4321TIP3    H234599   1.917   6.388   1.159 -2.0615 -0.2789 -1.6517
 4322TIP3   OH234600   4.801   0.887   7.988  0.0883  0.4697  0.8149
 4322TIP3    H134601   4.801   0.953   7.919  0.9375 -0.6605 -0.3308
 4322TIP3    H234602   4.744   0.818   7.954  0.5451 -0.1168  1.2295
 4323TIP3   OH234603   6.749   0.117   3.128  0.3153  0.4408  0.5127
 4323TIP3    H134604   6.696   0.197   3.133 -1.1323 -0.4628  0.2087
 4323TIP3    H234605   6.727   0.069   3.207 -0.5951 -0.6970 -0.4064
 4324TIP3   OH234606   0.993   5.709   7.692 -0.1458 -0.2692  0.2446
 4324TIP3    H134607   1.060   5.746   7.635  1.3490 -0.2293  1.9381
 4324TIP3    H234608   1.038   5.694   7.775 -2.0660 -0.9498  1.2197
 4325TIP3   OH234609   3.280   5.406   2.650 -0.3280 -0.0877  0.1800
 4325TIP3    H134610   3.191   5.398   2.615  0.0034 -0.2549 -0.6497
 4325TIP3    H234611   3.284   5.495   2.685 -0.6181  0.1468 -0.3734
 4326TIP3   OH234612   1.143   4.505   1.914 -0.1511 -0.3980  0.4191
 4326TIP3    H134613   1.104   4.496   2.001 -0.3818  0.3878  0.4012
 4326TIP3    H234614   1.109   4.587   1.880  1.3565  0.2134  0.3187
 4327TIP3   OH234615   0.877   0.524   2.010  0.0887 -0.3811  0.2029
 4327TIP3    H134616   0.909   0.510   1.921 -0.0187  0.8187 -0.0413
 4327TIP3    H234617   0.931   0.595   2.044  0.2913 -0.9935  1.1933
 4328TIP3   OH234618   5.791   4.125   0.794  0.1716 -0.0306 -0.4475
 4328TIP3    H134619   5.761   4.067   0.725  0.9301 -0.6207 -0.2948
 4328TIP3    H234620   5.734   4.106   0.868 -0.2724  0.1947 -0.7273
 4329TIP3   OH234621   1.400   5.345   0.014  0.2843  0.2013 -0.1886
 4329TIP3    H134622   1.317   5.324  -0.028  0.2885  0.7556 -0.4897
 4329TIP3    H234623   1.403   5.441   0.014  0.2119  0.2155  1.2349
 4330TIP3   OH234624   0.664   5.168   3.527  0.7372 -0.3114  0.9664
 4330TIP3    H134625   0.670   5.112   3.603  0.8483 -1.3378  0.2216
 4330TIP3    H234626   0.744   5.149   3.477  0.8621  0.6362  0.7844
 4331TIP3   OH234627   5.603   2.884   0.567  0.5653 -0.3816  0.2430
 4331TIP3    H134628   5.671   2.820   0.545  1.3607  0.4295  0.2924
 4331TIP3    H234629   5.564   2.907   0.482  0.9073 -0.2327  0.1272
 4332TIP3   OH234630   4.639   0.727   0.549 -0.0470  0.0017  0.6637
 4332TIP3    H134631   4.581   0.670   0.498 -0.7268  1.5678 -0.3805
 4332TIP3    H234632   4.704   0.758   0.486 -0.1033  0.9369  1.0524
 4333TIP3   OH234633   4.711   6.720   2.694 -0.3412 -0.7831  0.1723
 4333TIP3    H134634   4.637   6.720   2.755 -1.3554 -1.3092 -1.0154
 4333TIP3    H234635   4.672   6.734   2.608  1.1478  0.9275 -0.3060
 4334TIP3   OH234636   6.819   6.620   2.167 -0.0620 -0.0962 -0.7543
 4334TIP3    H134637   6.840   6.676   2.093  1.2002  0.4863  0.0104
 4334TIP3    H234638   6.904   6.599   2.207 -0.7747  0.7965  1.3732
 4335TIP3   OH234639   2.172   4.884   1.688  0.1495  0.8939  0.0338
 4335TIP3    H134640   2.123   4.829   1.750 -0.6352  0.9364 -0.5395
 4335TIP3    H234641   2.128   4.872   1.604 -0.0184  2.3793 -0.1192
 4336TIP3   OH234642   5.668   5.365   1.510 -0.7743 -0.4522 -0.3054
 4336TIP3    H134643   5.720   5.285   1.498 -0.4657 -0.4364  0.8131
 4336TIP3    H234644   5.577   5.336   1.504 -0.6991 -1.1500  1.4659
 4337TIP3   OH234645   5.191   5.226   8.380  0.5123 -0.3055  0.2835
 4337TIP3    H134646   5.191   5.270   8.464 -0.9078 -0.1648  0.2286
 4337TIP3    H234647   5.159   5.291   8.318 -0.2462 -0.9715 -0.0396
 4338TIP3   OH234648   5.866   5.639   7.580 -0.1716  0.3654  0.1574
 4338TIP3    H134649   5.917   5.654   7.660 -0.9637  2.8418  0.2589
 4338TIP3    H234650   5.906   5.696   7.515 -1.6526  0.9543 -0.2709
 4339TIP3   OH234651   2.451   0.630   0.839 -0.1608  0.3011  0.3399
 4339TIP3    H134652   2.371   0.655   0.883 -0.7038 -0.2215 -0.3221
 4339TIP3    H234653   2.465   0.697   0.772 -1.7571 -1.1924 -1.6081
 4340TIP3   OH234654   6.290   6.510   2.135  0.3107 -0.1836 -0.0900
 4340TIP3    H134655   6.241   6.572   2.190  2.0505  2.0101 -0.8634
 4340TIP3    H234656   6.289   6.549   2.048  1.7107 -1.0799 -0.5404
 4341TIP3   OH234657   1.397   3.178   7.505 -0.0705  0.6789 -0.2432
 4341TIP3    H134658   1.423   3.243   7.439  0.6844 -0.5005 -1.1434
 4341TIP3    H234659   1.315   3.142   7.471 -0.2169  0.7957 -0.0120
 4342TIP3   OH234660   2.490   3.685   2.061 -0.5260 -0.8704 -0.6612
 4342TIP3    H134661   2.406   3.640   2.070 -1.0047  0.2460  0.7885
 4342TIP3    H234662   2.474   3.754   1.997 -0.2913 -1.5810 -1.5006
 4343TIP3   OH234663   1.343   6.700   1.157  0.2241  0.2936  0.7308
 4343TIP3    H134664   1.309   6.618   1.192  0.3060  0.4284  1.1402
 4343TIP3    H234665   1.371   6.679   1.068  0.0265 -0.0635  0.7517
 4344TIP3   OH234666   1.637   1.144   2.256  0.3353  0.7463  0.3659
 4344TIP3    H134667   1.720   1.174   2.295 -0.0874  2.2078  0.2164
 4344TIP3    H234668   1.620   1.207   2.186  0.1831 -0.8179 -1.0648
 4345TIP3   OH234669   5.962   1.991   2.863  0.3093 -0.1718 -0.0537
 4345TIP3    H134670   5.909   1.983   2.784 -1.7515 -1.1431  1.3278
 4345TIP3    H234671   5.900   2.019   2.931  1.7514 -0.4511  1.4576
 4346TIP3   OH234672   3.919   0.240   1.358  0.0090  0.2065 -0.1320
 4346TIP3    H134673   3.980   0.171   1.384  0.5828  0.4172 -0.8734
 4346TIP3    H234674   3.833   0.198   1.359  0.0195  0.1429  1.8127
 4347TIP3   OH234675   6.002   1.923   8.409 -0.0542 -0.1623  0.2501
 4347TIP3    H134676   5.936   1.905   8.342 -1.7818  0.4839  1.6889
 4347TIP3    H234677   5.959   1.899   8.492  1.5335  0.2699  1.2377
 4348TIP3   OH234678   3.732   0.621   3.312 -0.1654 -0.1964 -0.3978
 4348TIP3    H134679   3.675   0.638   3.387 -1.7972  0.9023 -1.8148
 4348TIP3    H234680   3.738   0.525   3.307 -1.7036 -0.3241 -0.0470
 4349TIP3   OH234681   6.283   1.037   7.756  0.0282  0.4015 -0.0269
 4349TIP3    H134682   6.226   1.000   7.688 -0.8861  1.7877 -0.0535
 4349TIP3    H234683   6.371   1.018   7.726 -0.3871  0.0142 -1.0422
 4350TIP3   OH234684   2.598   1.111   1.126 -0.0088  0.1812 -0.0493
 4350TIP3    H134685   2.636   1.103   1.039  4.3599 -0.2020  1.6265
 4350TIP3    H234686   2.653   1.176   1.170 -1.8250  0.1065  2.5127
 4351TIP3   OH234687   0.865   5.705   1.644  0.5111  0.0726  0.4392
 4351TIP3    H134688   0.807   5.773   1.610 -0.4170 -0.8012  0.2305
 4351TIP3    H234689   0.852   5.709   1.739 -1.1066 -1.1432  0.3043
 4352TIP3   OH234690   6.261   5.715   7.993 -0.3531 -0.2726  0.0930
 4352TIP3    H134691   6.334   5.776   7.992  0.2255 -0.9611 -0.3907
 4352TIP3    H234692   6.299   5.631   7.969 -1.0588 -0.9246  1.1672
 4353TIP3   OH234693   0.553   5.155   3.283 -0.3409 -0.2874 -0.3384
 4353TIP3    H134694   0.564   5.118   3.371 -0.4692  1.0256  0.2536
 4353TIP3    H234695   0.502   5.235   3.297  0.0426  0.1894 -1.5470
 4354TIP3   OH234696   1.285   1.446   8.613  0.4185 -0.3052 -0.0433
 4354TIP3    H134697   1.245   1.372   8.568 -1.1203  1.3693 -1.6048
 4354TIP3    H234698   1.212   1.488   8.659  0.4119  2.3431 -2.2416
 4355TIP3   OH234699   2.728   4.102   8.543  0.2770  0.3040  0.3002
 4355TIP3    H134700   2.750   4.016   8.580  0.2199 -0.1681 -0.7222
 4355TIP3    H234701   2.635   4.113   8.563  0.2395  0.0374  0.2791
 4356TIP3   OH234702   2.478   4.109   0.639 -0.4965  0.5605 -0.5290
 4356TIP3    H134703   2.565   4.111   0.601  1.0734  1.2846  2.7676
 4356TIP3    H234704   2.466   4.196   0.677 -0.4716 -0.9087  3.2835
 4357TIP3   OH234705   4.542   2.427   1.138  0.6333  0.1135  0.0363
 4357TIP3    H134706   4.529   2.476   1.219 -0.8030 -0.6860  0.3255
 4357TIP3    H234707   4.631   2.449   1.110  0.5358  1.7616  0.8934
 4358TIP3   OH234708   6.695   3.421   0.251 -0.2994 -0.0265 -0.2354
 4358TIP3    H134709   6.599   3.413   0.252 -0.5411  0.7658 -3.5800
 4358TIP3    H234710   6.727   3.331   0.249 -0.9691 -0.2959  0.8077
 4359TIP3   OH234711   5.302   1.842   1.019 -0.1116 -0.2110  0.4920
 4359TIP3    H134712   5.244   1.843   0.942  1.8460 -0.6470 -1.0661
 4359TIP3    H234713   5.243   1.854   1.093 -1.9853  1.1687 -1.1238
 4360TIP3   OH234714   0.202   1.476   7.874 -0.0769  0.1742  0.3740
 4360TIP3    H134715   0.237   1.422   7.803 -1.2101  1.4616 -1.2748
 4360TIP3    H234716   0.274   1.534   7.898  0.5737 -0.8263  0.8788
 4361TIP3   OH234717   1.279   2.563   0.764 -0.0672  0.2885 -0.2660
 4361TIP3    H134718   1.296   2.509   0.687 -0.3524  0.3403 -0.3669
 4361TIP3    H234719   1.257   2.649   0.729 -0.6582  0.1881 -0.1448
 4362TIP3   OH234720   5.057   3.536   1.751 -0.3156 -0.1507  0.1732
 4362TIP3    H134721   5.078   3.443   1.755  0.5667  0.0455  0.1535
 4362TIP3    H234722   5.074   3.569   1.839  3.0303  0.7373 -0.6701
 4363TIP3   OH234723   0.767   2.511   0.229 -0.8335 -0.5473 -0.1477
 4363TIP3    H134724   0.766   2.593   0.278  1.7991 -0.7638  0.4265
 4363TIP3    H234725   0.687   2.513   0.177 -0.7265  2.5196 -0.3779
 4364TIP3   OH234726   2.189   0.643   2.717 -0.1662  0.0033 -0.2254
 4364TIP3    H134727   2.162   0.557   2.750 -2.9488  0.8863  0.0936
 4364TIP3    H234728   2.195   0.631   2.622  0.9932 -0.8812 -0.0611
 4365TIP3   OH234729   2.162   3.975   2.680 -0.0180 -0.2232  0.2757
 4365TIP3    H134730   2.114   4.029   2.742  0.1223  1.4706 -1.0187
 4365TIP3    H234731   2.244   4.022   2.664  0.8965 -1.6931  0.3827
 4366TIP3   OH234732   5.914   3.746   2.887 -0.7849 -0.4551  0.8081
 4366TIP3    H134733   5.865   3.819   2.926  0.5854  0.5760  0.6858
 4366TIP3    H234734   5.879   3.668   2.930 -0.7328  0.4777  2.6531
 4367TIP3   OH234735   6.574   0.443   8.385  0.4085 -0.1317 -0.3500
 4367TIP3    H134736   6.593   0.360   8.341 -0.2817 -0.6781  0.3556
 4367TIP3    H234737   6.659   0.489   8.387  1.2743 -1.6738  1.0094
 4368TIP3   OH234738   2.747   3.299   8.304  0.3015 -0.1284 -0.3855
 4368TIP3    H134739   2.694   3.220   8.318 -0.3026  0.4089  0.4855
 4368TIP3    H234740   2.832   3.266   8.276 -0.2056 -1.0551 -0.9100
 4369TIP3   OH234741   3.252   2.464   2.406 -0.1390 -0.2817  0.6286
 4369TIP3    H134742   3.302   2.532   2.361  1.4621 -0.8703  1.4668
 4369TIP3    H234743   3.210   2.414   2.335 -0.1594  0.6742 -0.0438
 4370TIP3   OH234744   4.675   4.684   1.003  0.2069  0.0658 -0.3016
 4370TIP3    H134745   4.676   4.752   1.070  2.4738 -0.2318  0.0706
 4370TIP3    H234746   4.630   4.610   1.044  1.5307 -0.0991  0.9430
 4371TIP3   OH234747   5.626   3.670   8.057 -0.2619 -0.2256 -0.3461
 4371TIP3    H134748   5.607   3.576   8.065  1.0647 -0.9445 -3.7814
 4371TIP3    H234749   5.550   3.706   8.011  0.9834 -0.6316 -2.9507
 4372TIP3   OH234750   1.523   6.055   3.180  0.2481 -0.2044  0.3849
 4372TIP3    H134751   1.432   6.032   3.161  0.2851  1.6955 -2.9092
 4372TIP3    H234752   1.573   5.976   3.162 -0.6020 -0.8390  0.7735
 4373TIP3   OH234753   4.587   4.093   8.236 -0.3264 -0.2038  0.3179
 4373TIP3    H134754   4.508   4.117   8.188  1.4009  3.0815 -1.2766
 4373TIP3    H234755   4.572   4.124   8.325 -1.7708 -2.0991  0.8028
 4374TIP3   OH234756   1.369   6.089   0.489 -0.0386  0.3443 -0.2531
 4374TIP3    H134757   1.440   6.139   0.448  0.5941  0.0325  0.4204
 4374TIP3    H234758   1.414   6.029   0.549 -0.9516  1.1830  1.3206
 4375TIP3   OH234759   3.528   6.322   8.405 -0.4370  0.1428 -0.2023
 4375TIP3    H134760   3.601   6.380   8.388 -1.7681  1.4070 -1.9822
 4375TIP3    H234761   3.450   6.376   8.393 -1.7190 -0.9791  2.2560
 4376TIP3   OH234762   2.981   2.678   2.746 -0.0346  0.4192 -0.0244
 4376TIP3    H134763   2.932   2.732   2.808  0.4209 -0.3872  1.0635
 4376TIP3    H234764   2.978   2.727   2.664 -3.5386 -0.0622 -0.3310
 4377TIP3   OH234765   0.962   5.640   3.589 -0.3031  0.4664  0.1443
 4377TIP3    H134766   1.018   5.566   3.611 -0.6330  0.3191  0.5107
 4377TIP3    H234767   1.005   5.682   3.515  0.6374  0.7527  0.8400
 4378TIP3   OH234768   2.973   3.316   8.657 -0.0373 -0.0938  0.0065
 4378TIP3    H134769   2.931   3.231   8.649 -0.6140  0.1045  0.7609
 4378TIP3    H234770   3.030   3.323   8.580  2.5381 -2.5351  1.5178
 4379TIP3   OH234771   0.651   4.974   8.534 -0.1387 -0.5058  0.6323
 4379TIP3    H134772   0.606   4.905   8.485 -0.2849  0.1946 -0.2357
 4379TIP3    H234773   0.623   5.055   8.493  1.9883 -0.0353 -0.0195
 4380TIP3   OH234774   4.797   0.896   2.110 -0.4213 -0.2110  0.5077
 4380TIP3    H134775   4.802   0.844   2.030 -0.8836 -1.2665  1.1395
 4380TIP3    H234776   4.710   0.877   2.145  0.3589 -1.0754  2.0995
 4381TIP3   OH234777   4.797   1.897   8.504  0.2691  0.1669  0.5289
 4381TIP3    H134778   4.837   1.952   8.571  2.1682 -0.5920  0.0741
 4381TIP3    H234779   4.846   1.815   8.508 -0.4165 -0.3496 -0.9362
 4382TIP3   OH234780   0.910   6.194   1.791 -0.0458  0.7869  0.2228
 4382TIP3    H134781   0.843   6.254   1.823 -1.2480 -1.4260  2.1564
 4382TIP3    H234782   0.956   6.165   1.870  0.0250 -1.3241 -0.5294
 4383TIP3   OH234783   5.303   4.149   2.022  0.2942  0.4000 -0.3103
 4383TIP3    H134784   5.293   4.067   1.974  0.6728 -0.0192  0.3137
 4383TIP3    H234785   5.358   4.127   2.097  1.6368  1.5370 -0.9102
 4384TIP3   OH234786   5.049   1.424   2.406 -0.6349 -0.2945 -0.0881
 4384TIP3    H134787   4.962   1.402   2.373 -0.7449  0.3227 -0.2194
 4384TIP3    H234788   5.032   1.484   2.479 -0.3662 -1.0988  0.6428
 4385TIP3   OH234789   1.100   5.135   7.928  0.0639  0.1966  0.0333
 4385TIP3    H134790   1.143   5.166   8.007  0.2704  0.1379 -0.0536
 4385TIP3    H234791   1.166   5.081   7.885  0.4491  1.3429 -0.8784
 4386TIP3   OH234792   4.467   5.275   0.471 -0.1176 -0.2059 -0.3769
 4386TIP3    H134793   4.446   5.195   0.423  1.4062 -0.2509 -1.0240
 4386TIP3    H234794   4.472   5.343   0.404  0.2238  0.1021 -0.0449
 4387TIP3   OH234795   4.382   3.913   0.312  0.0075  0.3654 -0.5244
 4387TIP3    H134796   4.309   3.933   0.252 -1.3426 -0.9582  0.6118
 4387TIP3    H234797   4.436   3.851   0.263 -1.2486 -0.9477 -0.3127
 4388TIP3   OH234798   6.397   3.144   1.148  0.1145 -0.7633 -0.1454
 4388TIP3    H134799   6.391   3.049   1.138 -0.4951 -0.5679 -2.0166
 4388TIP3    H234800   6.483   3.166   1.113 -0.6926 -0.4172 -2.0399
 4389TIP3   OH234801   0.249   5.015   0.831  0.2465  0.0802  0.8728
 4389TIP3    H134802   0.277   4.942   0.885  0.2229  0.3889  1.3044
 4389TIP3    H234803   0.157   5.029   0.852  0.5446  0.9713  1.6576
 4390TIP3   OH234804   1.140   4.556   7.271 -0.3251 -0.0442 -0.4124
 4390TIP3    H134805   1.108   4.550   7.181 -0.4140 -1.2633 -0.3137
 4390TIP3    H234806   1.150   4.650   7.287 -1.8731  0.2630 -1.1351
 4391TIP3   OH234807   6.556   2.230   7.865 -0.2016 -0.0965 -0.9324
 4391TIP3    H134808   6.641   2.186   7.853 -0.4334 -0.8285  0.0176
 4391TIP3    H234809   6.492   2.165   7.837 -0.5136 -0.0544 -0.3203
 4392TIP3   OH234810   2.243   4.011   0.777  0.0652 -0.7123  0.4715
 4392TIP3    H134811   2.317   4.023   0.718  0.8922  0.0491  1.6278
 4392TIP3    H234812   2.170   3.988   0.719  0.6460  0.8137 -0.9608
 4393TIP3   OH234813   0.709   6.333   1.089  0.0741  0.6343  0.2406
 4393TIP3    H134814   0.737   6.291   1.007 -1.2118  1.0518 -0.4352
 4393TIP3    H234815   0.758   6.415   1.092  0.2585  0.5362 -0.0126
 4394TIP3   OH234816   3.915   3.267   7.856  0.0474  0.3364 -0.5005
 4394TIP3    H134817   3.980   3.319   7.808 -0.5663  2.2441  0.6132
 4394TIP3    H234818   3.965   3.194   7.892  0.9584  0.1329 -2.0661
 4395TIP3   OH234819   2.295   6.160   8.212  0.0921  0.3438 -0.2706
 4395TIP3    H134820   2.380   6.166   8.168  0.5026 -1.7796  0.1110
 4395TIP3    H234821   2.235   6.131   8.144 -0.0954  0.7964 -0.2969
 4396TIP3   OH234822   2.750   5.874   2.975 -0.0834 -0.5031 -0.2554
 4396TIP3    H134823   2.844   5.868   2.994  0.0933 -0.3425 -1.0243
 4396TIP3    H234824   2.725   5.784   2.953  0.2103 -0.3183 -1.4118
 4397TIP3   OH234825   3.430   4.294   8.321 -0.3126 -0.1638  0.3856
 4397TIP3    H134826   3.408   4.380   8.356 -0.9159  0.0630 -0.5376
 4397TIP3    H234827   3.497   4.310   8.255 -1.2950 -0.2623 -0.6457
 4398TIP3   OH234828   1.245   2.798   0.590 -0.4973 -0.5172 -0.2712
 4398TIP3    H134829   1.277   2.817   0.502  0.8430  0.6582  0.4457
 4398TIP3    H234830   1.234   2.884   0.631 -1.1733 -1.0454  0.7048
 4399TIP3   OH234831   3.998   4.145   7.597 -0.2445  0.2024  0.7464
 4399TIP3    H134832   4.051   4.223   7.586  0.7499 -0.2629  2.0545
 4399TIP3    H234833   3.908   4.178   7.605 -0.0453  1.0692 -0.3683
 4400TIP3   OH234834   3.623   3.327   2.587  0.3409 -0.0007 -0.2835
 4400TIP3    H134835   3.620   3.386   2.663 -0.4427 -0.2050 -0.1567
 4400TIP3    H234836   3.550   3.267   2.599  0.4764 -0.3178 -0.9763
 4401TIP3   OH234837   6.370   3.604   0.836 -0.2473 -0.2111 -0.4862
 4401TIP3    H134838   6.398   3.693   0.855 -0.5198 -0.4786  1.3205
 4401TIP3    H234839   6.276   3.611   0.819 -0.2817 -0.1743 -0.2747
 4402TIP3   OH234840   2.492   6.606   0.873  0.2372 -0.1344  0.4714
 4402TIP3    H134841   2.443   6.656   0.938 -1.5500 -1.4142  0.1992
 4402TIP3    H234842   2.466   6.515   0.889 -0.5960 -0.4621 -2.2133
 4403TIP3   OH234843   4.747   5.998   8.386 -0.1289  0.0285 -0.0773
 4403TIP3    H134844   4.800   6.034   8.316 -0.4548  0.2003 -0.2371
 4403TIP3    H234845   4.668   5.965   8.343 -1.0725  1.5666  0.3644
 4404TIP3   OH234846   2.128   1.771   2.484 -0.1399  0.1866  0.4973
 4404TIP3    H134847   2.216   1.789   2.449  0.4211 -1.4159  0.9676
 4404TIP3    H234848   2.145   1.730   2.569 -1.1831 -2.6149 -0.5256
 4405TIP3   OH234849   5.983   1.294   2.820  0.6309  0.0668  0.3314
 4405TIP3    H134850   5.909   1.270   2.764  2.2878 -2.5090 -0.9374
 4405TIP3    H234851   5.955   1.269   2.908 -0.8917  1.4728  0.3041
 4406TIP3   OH234852   1.298   5.712   8.397 -0.4995 -0.2761  0.0563
 4406TIP3    H134853   1.224   5.653   8.406 -0.1840 -1.0583 -2.0528
 4406TIP3    H234854   1.358   5.667   8.337  0.9511  1.0424  0.4455
 4407TIP3   OH234855   4.919   0.214   1.508  0.6632 -0.2921  0.0337
 4407TIP3    H134856   4.953   0.142   1.453  1.0114 -0.3412  0.3062
 4407TIP3    H234857   4.861   0.170   1.570  1.3544 -0.4349  0.6010
 4408TIP3   OH234858   3.916   4.736   7.385  0.0615  0.4518 -0.0773
 4408TIP3    H134859   3.824   4.737   7.356  0.2622 -2.9451 -1.3091
 4408TIP3    H234860   3.941   4.644   7.379  3.2117  1.0927  1.4873
 4409TIP3   OH234861   0.131   3.109   1.253 -0.4927  0.3465  0.3250
 4409TIP3    H134862   0.147   3.021   1.218  0.3295  0.3912  0.5701
 4409TIP3    H234863   0.142   3.100   1.347  3.4516  1.4030  0.1673
 4410TIP3   OH234864   3.947   3.975   2.792  0.2883 -0.2414 -0.1104
 4410TIP3    H134865   3.988   3.972   2.705  2.6143  0.2202  0.8983
 4410TIP3    H234866   3.966   3.890   2.831  3.3953  1.0801  1.6140
 4411TIP3   OH234867   0.661   2.846   1.536 -1.0137 -0.6378  0.9562
 4411TIP3    H134868   0.642   2.939   1.552  1.0483  0.6169 -2.6899
 4411TIP3    H234869   0.713   2.819   1.612  0.2929  1.9070  1.0669
 4412TIP3   OH234870   6.827   3.817   0.959  0.5955  0.2473  0.2795
 4412TIP3    H134871   6.901   3.874   0.979  0.4763  0.7463 -0.6037
 4412TIP3    H234872   6.770   3.824   1.035  0.1272  2.1021 -0.1810
 4413TIP3   OH234873   5.838   6.832   2.764  0.6752 -0.0551 -0.1288
 4413TIP3    H134874   5.758   6.789   2.795  0.9970 -0.2133  0.4901
 4413TIP3    H234875   5.889   6.761   2.726  1.1539 -0.2090  0.7849
 4414TIP3   OH234876   3.329   2.290   8.615  0.0095  0.0455  0.0197
 4414TIP3    H134877   3.405   2.348   8.611  0.5840 -0.7308 -0.4351
 4414TIP3    H234878   3.320   2.268   8.708  0.6697 -0.2812  0.0089
 4415TIP3   OH234879   4.377   6.176   3.264  0.1452  0.0477 -0.4405
 4415TIP3    H134880   4.288   6.201   3.241  0.1059 -0.3988 -0.7940
 4415TIP3    H234881   4.423   6.259   3.274 -1.0438  0.4358  2.9045
 4416TIP3   OH234882   4.007   1.801   3.112 -0.1115 -0.1703  0.6664
 4416TIP3    H134883   4.055   1.881   3.090  0.0292 -0.7883 -1.4865
 4416TIP3    H234884   4.064   1.755   3.174  1.1037  0.1271 -0.1959
 4417TIP3   OH234885   6.797   4.315   8.039  0.3204  0.1540  0.0324
 4417TIP3    H134886   6.820   4.335   7.949 -0.4368 -0.2077 -0.2450
 4417TIP3    H234887   6.799   4.220   8.044  1.5828  0.1886  0.7340
 4418TIP3   OH234888   2.562   4.768   1.988 -0.3399  0.3252 -0.1568
 4418TIP3    H134889   2.549   4.821   2.066 -1.0676  0.5938 -0.4501
 4418TIP3    H234890   2.475   4.762   1.949 -0.5151 -2.0228  0.4650
 4419TIP3   OH234891   0.552   5.901   0.861 -0.0285  0.2781  0.4002
 4419TIP3    H134892   0.469   5.864   0.890 -0.4417  0.9849  0.1318
 4419TIP3    H234893   0.606   5.903   0.941 -0.9107  1.5276  1.0075
 4420TIP3   OH234894   2.212   6.662   7.649 -0.8702  0.2460 -0.0173
 4420TIP3    H134895   2.218   6.639   7.556 -0.1161 -1.2423  0.3694
 4420TIP3    H234896   2.297   6.701   7.669 -0.2815 -1.2192  0.4733
 4421TIP3   OH234897   0.967   1.128   2.313 -0.0594  0.0821  0.1412
 4421TIP3    H134898   1.043   1.174   2.347  0.6376  0.0953 -1.3499
 4421TIP3    H234899   1.001   1.074   2.241 -0.9322 -2.3545  1.4330
 4422TIP3   OH234900   5.637   2.108   1.754 -0.8831  0.2312  0.3071
 4422TIP3    H134901   5.561   2.118   1.811  0.0601 -1.7528  2.0567
 4422TIP3    H234902   5.686   2.035   1.791  0.4132 -0.4395 -2.4231
 4423TIP3   OH234903   2.189   2.741   0.478 -0.3331  0.0332 -0.2609
 4423TIP3    H134904   2.229   2.698   0.402  1.6081  1.0601  0.1169
 4423TIP3    H234905   2.136   2.811   0.442 -0.8981 -0.6171 -0.7247
 4424TIP3   OH234906   6.677   4.975   3.423  0.3795  0.4875 -0.5157
 4424TIP3    H134907   6.726   5.027   3.359  2.5252 -1.6126 -0.6732
 4424TIP3    H234908   6.664   4.890   3.381  0.7341 -0.5355  1.3448
 4425TIP3   OH234909   4.189   1.022   2.498 -0.7572  0.4453  0.2400
 4425TIP3    H134910   4.114   0.992   2.550 -1.3030  0.9503 -0.2259
 4425TIP3    H234911   4.174   1.116   2.487 -1.0493  0.2512 -1.3994
 4426TIP3   OH234912   0.256   2.943   0.486  0.0050  0.2056  0.4017
 4426TIP3    H134913   0.227   2.879   0.551  1.1612 -1.4583 -0.6540
 4426TIP3    H234914   0.223   3.027   0.519 -3.5624 -1.1493  0.6577
 4427TIP3   OH234915   3.397   3.750   0.596  0.1522  0.5296  0.2925
 4427TIP3    H134916   3.314   3.775   0.637 -0.5712 -0.4230 -0.5451
 4427TIP3    H234917   3.412   3.660   0.624  1.6254  1.1264  1.5365
 4428TIP3   OH234918   5.934   2.082   2.007  0.3308 -0.2062  0.1342
 4428TIP3    H134919   6.029   2.071   2.004  0.3173 -0.4416  0.4472
 4428TIP3    H234920   5.901   1.995   2.029  0.1948  0.3940  2.5350
 4429TIP3   OH234921   5.958   5.057   2.886 -0.0885 -0.0690  0.2191
 4429TIP3    H134922   5.984   4.993   2.952  2.1667  0.3827 -0.1614
 4429TIP3    H234923   5.960   5.009   2.803  0.8885  0.2612  0.0285
 4430TIP3   OH234924   0.246   5.366   7.935 -0.3403  0.3793  0.1006
 4430TIP3    H134925   0.169   5.361   7.879  0.4908  2.2715 -1.3631
 4430TIP3    H234926   0.212   5.370   8.024 -1.9043  0.6338 -0.4870
 4431TIP3   OH234927   4.705   0.353   3.373  0.1697 -0.6143  0.3167
 4431TIP3    H134928   4.769   0.378   3.440 -0.9741 -0.8860  1.5272
 4431TIP3    H234929   4.754   0.362   3.291  0.6463  3.1327  0.8109
 4432TIP3   OH234930   2.444   6.477   0.186  0.3378  0.8842 -0.0168
 4432TIP3    H134931   2.523   6.500   0.139  0.2412  2.7858  0.6801
 4432TIP3    H234932   2.373   6.490   0.123  0.3611  1.6939  0.1236
 4433TIP3   OH234933   1.947   2.488   2.352 -0.0735 -0.2594  0.1713
 4433TIP3    H134934   1.914   2.570   2.389 -0.2190 -0.5015  0.5887
 4433TIP3    H234935   1.869   2.437   2.333 -0.1383  0.6278 -2.3737
 4434TIP3   OH234936   1.395   4.406   3.222 -0.3927 -0.8724  0.3714
 4434TIP3    H134937   1.330   4.376   3.158 -0.3212  1.4672 -0.9096
 4434TIP3    H234938   1.342   4.438   3.295 -0.8004  1.3646 -0.8189
 4435TIP3   OH234939   3.365   0.573   8.185 -0.1920  0.0146  0.0864
 4435TIP3    H134940   3.319   0.551   8.103 -0.1458  0.7314 -0.1341
 4435TIP3    H234941   3.329   0.511   8.249 -1.9637  0.9666  0.0740
 4436TIP3   OH234942   2.790   1.453   3.140 -0.3575 -0.0186 -0.2181
 4436TIP3    H134943   2.780   1.500   3.057  2.6317  1.0393 -0.0847
 4436TIP3    H234944   2.862   1.392   3.125 -1.2523 -1.4453  0.9794
 4437TIP3   OH234945   2.280   1.075   3.509 -0.3687  0.1618 -0.3957
 4437TIP3    H134946   2.366   1.034   3.512 -0.4151  0.0919 -0.0486
 4437TIP3    H234947   2.218   1.003   3.513 -0.4518  0.2660  0.3715
 4438TIP3   OH234948   4.063   0.320   0.029  0.1926  0.2658  0.6974
 4438TIP3    H134949   4.034   0.340   0.118  0.6503  0.0734  0.8937
 4438TIP3    H234950   4.148   0.363   0.021 -0.5933  1.7254 -0.2333
 4439TIP3   OH234951   3.487   3.039   2.868  0.1567 -0.0542  0.5174
 4439TIP3    H134952   3.420   3.028   2.800 -1.7560 -2.3268  2.6164
 4439TIP3    H234953   3.478   3.131   2.895  0.7221  0.8025 -1.9523
 4440TIP3   OH234954   4.866   4.030   2.522  0.2695  0.3287  0.3874
 4440TIP3    H134955   4.867   4.111   2.573  0.1550  0.5811 -0.0027
 4440TIP3    H234956   4.893   4.057   2.434 -1.4862  0.2821 -0.2148
 4441TIP3   OH234957   5.228   3.463   0.679 -0.1221  0.2024 -0.2109
 4441TIP3    H134958   5.302   3.425   0.726 -2.0848 -1.7428  1.6082
 4441TIP3    H234959   5.251   3.455   0.586  2.1221  0.1812  0.2950
 4442TIP3   OH234960   6.765   6.452   1.062 -0.0540  0.5577 -0.2489
 4442TIP3    H134961   6.832   6.511   1.098  1.6154 -2.0273  1.2207
 4442TIP3    H234962   6.684   6.477   1.107  0.7137  1.3922  0.7199
 4443TIP3   OH234963   4.951   6.325   2.417  0.0365  0.1737  0.2980
 4443TIP3    H134964   5.014   6.373   2.362 -1.5414  0.7293 -1.1123
 4443TIP3    H234965   4.922   6.252   2.362 -2.3926  1.3521 -0.1301
 4444TIP3   OH234966   6.243   4.832   1.087 -0.4462 -0.2461 -0.1176
 4444TIP3    H134967   6.267   4.852   0.996 -1.5811  0.0168 -0.3715
 4444TIP3    H234968   6.246   4.916   1.132 -0.0649 -0.3493  0.0641
 4445TIP3   OH234969   5.475   4.341   1.930  0.2193 -0.1391 -0.1728
 4445TIP3    H134970   5.415   4.268   1.946  0.0963  0.1281  0.6662
 4445TIP3    H234971   5.562   4.302   1.934  0.1387 -0.3121 -0.1088
 4446TIP3   OH234972   4.664   1.289   7.948 -0.1869 -0.1025 -0.3836
 4446TIP3    H134973   4.650   1.376   7.985  1.4482 -0.5968  1.5550
 4446TIP3    H234974   4.616   1.230   8.006 -1.6368 -0.5051 -1.9274
 4447TIP3   OH234975   5.751   1.060   1.054  0.0994 -0.0148  0.2066
 4447TIP3    H134976   5.664   1.027   1.075 -0.1375  0.2878 -0.2582
 4447TIP3    H234977   5.783   1.098   1.136 -0.5655  0.6433  0.1697
 4448TIP3   OH234978   4.197   0.524   1.570 -0.1462  0.7294  0.0343
 4448TIP3    H134979   4.116   0.503   1.616  0.9711 -1.1207  1.3468
 4448TIP3    H234980   4.184   0.489   1.482 -0.7817  0.4530  0.2303
 4449TIP3   OH234981   2.971   1.065   2.073 -0.0159  0.1208 -0.1846
 4449TIP3    H134982   2.930   1.134   2.125  1.1192  1.0011 -0.4092
 4449TIP3    H234983   2.943   0.984   2.115 -0.2060  0.7626  0.9798
 4450TIP3   OH234984   0.105   2.164   0.628  0.5841 -1.0164  0.0855
 4450TIP3    H134985   0.076   2.224   0.559 -0.0158 -1.5090 -0.0929
 4450TIP3    H234986   0.195   2.191   0.646  0.1069  0.3935  0.4991
 4451TIP3   OH234987   2.902   0.511   2.023 -0.1063  0.2965 -0.2886
 4451TIP3    H134988   2.925   0.458   2.100  1.6206  0.6387 -0.5254
 4451TIP3    H234989   2.896   0.600   2.056  0.6957  0.4519 -0.5415
 4452TIP3   OH234990   2.785   4.522   0.126 -0.8251 -0.3096 -0.4222
 4452TIP3    H134991   2.734   4.450   0.163  0.5202 -0.8929  0.3776
 4452TIP3    H234992   2.838   4.554   0.199  0.3783 -0.1312 -1.3376
 4453TIP3   OH234993   0.923   1.353   8.500 -0.3284  0.2777 -0.7376
 4453TIP3    H134994   0.991   1.294   8.533 -2.0598 -1.8965 -0.8185
 4453TIP3    H234995   0.961   1.441   8.509  0.8383 -0.4462  3.2947
 4454TIP3   OH234996   1.905   2.326   2.720  0.6263  0.1683  0.3001
 4454TIP3    H134997   1.827   2.281   2.753  1.5925 -0.4563  1.8578
 4454TIP3    H234998   1.918   2.400   2.779  1.1058  0.3747 -0.0501
 4455TIP3   OH234999   2.497   4.604   1.704 -0.4392  0.1035 -0.2084
 4455TIP3    H135000   2.506   4.693   1.670 -2.1740  0.3906 -0.0159
 4455TIP3    H235001   2.445   4.614   1.783  1.6572 -0.8198  1.3712
 4456TIP3   OH235002   5.431   6.672   0.768  0.3039 -0.5367  0.7865
 4456TIP3    H135003   5.342   6.679   0.803 -0.4992 -0.8454 -1.0706
 4456TIP3    H235004   5.446   6.577   0.761  0.1019 -0.4934 -0.4554
 4457TIP3   OH235005   4.318   6.550   1.305  0.5126 -0.4869  0.3330
 4457TIP3    H135006   4.397   6.604   1.313  0.5369 -0.5833  0.7644
 4457TIP3    H235007   4.303   6.544   1.211  1.3623 -0.9556  0.2182
 4458TIP3   OH235008   4.786   5.443   7.858  0.4449 -0.1857  0.2172
 4458TIP3    H135009   4.749   5.490   7.933  2.4207  0.1657  1.0461
 4458TIP3    H235010   4.716   5.441   7.793 -0.5996  1.4716  1.2289
 4459TIP3   OH235011   0.309   0.802   0.589  0.4037  0.3061  0.0808
 4459TIP3    H135012   0.236   0.864   0.595  0.4409  0.3946 -0.3637
 4459TIP3    H235013   0.366   0.839   0.521 -0.4964 -1.1571 -1.5508
 4460TIP3   OH235014   5.823   5.739   1.605 -0.0267  0.2933 -0.5284
 4460TIP3    H135015   5.914   5.747   1.633 -0.5818  1.2844  1.1942
 4460TIP3    H235016   5.791   5.660   1.650  0.3393 -0.9417 -2.3319
 4461TIP3   OH235017   5.433   0.075   1.431  0.4458  0.3092  0.1217
 4461TIP3    H135018   5.448   0.011   1.362 -0.0577  0.2042  0.1047
 4461TIP3    H235019   5.390   0.148   1.387 -0.1378  0.1246  0.3668
 4462TIP3   OH235020   4.081   0.474   8.312  0.0204 -0.0973  0.2363
 4462TIP3    H135021   4.004   0.448   8.261 -0.4315  0.9875  0.3466
 4462TIP3    H235022   4.087   0.408   8.381  0.7399 -1.6917 -1.2736
 4463TIP3   OH235023   5.898   3.694   3.499  0.0284 -0.2818 -0.2735
 4463TIP3    H135024   5.834   3.764   3.485 -0.5059 -0.9687 -1.3102
 4463TIP3    H235025   5.979   3.740   3.522 -0.1096  0.7244 -1.7177
 4464TIP3   OH235026   4.842   1.970   1.226 -0.1849 -0.1537  0.3536
 4464TIP3    H135027   4.759   1.936   1.192  0.2050 -0.1247 -0.6555
 4464TIP3    H235028   4.883   1.894   1.268  0.0912 -0.6491 -0.7550
 4465TIP3   OH235029   5.289   1.669   7.664  0.7883  0.2142  0.2371
 4465TIP3    H135030   5.243   1.595   7.625  2.0096 -0.3706 -0.1457
 4465TIP3    H235031   5.371   1.674   7.616  2.2286 -0.3086  2.4733
 4466TIP3   OH235032   4.751   2.252   1.202 -0.0847  0.2488 -0.1669
 4466TIP3    H135033   4.745   2.167   1.158 -0.6693 -0.5738  1.4409
 4466TIP3    H235034   4.675   2.255   1.261 -0.2528  2.0263 -0.3871
 4467TIP3   OH235035   4.817   6.186   2.688  0.3647 -0.1108 -0.0276
 4467TIP3    H135036   4.803   6.104   2.737  1.0488  0.4967  1.2491
 4467TIP3    H235037   4.773   6.172   2.605  0.5350 -1.8139  0.1294
 4468TIP3   OH235038   1.141   1.200   8.242  0.2333 -0.0186  0.7927
 4468TIP3    H135039   1.128   1.244   8.157  1.6609 -0.0184  0.5546
 4468TIP3    H235040   1.121   1.108   8.224 -0.7608  0.1833  0.7935
 4469TIP3   OH235041   5.162   5.373   2.494  0.0252 -0.6639  0.2223
 4469TIP3    H135042   5.195   5.402   2.409  2.5462 -3.0870  0.2233
 4469TIP3    H235043   5.147   5.454   2.543  0.2249  0.7332 -1.9219
 4470TIP3   OH235044   6.374   4.668   0.584 -0.1608  0.8141 -0.5706
 4470TIP3    H135045   6.470   4.658   0.586 -0.2844 -0.7353  1.4482
 4470TIP3    H235046   6.350   4.653   0.493  1.4862  0.9124 -1.0591
 4471TIP3   OH235047   6.807   1.974   2.272  0.1154 -0.2560 -0.3084
 4471TIP3    H135048   6.721   1.987   2.312 -0.9145  0.0175 -2.4395
 4471TIP3    H235049   6.850   1.910   2.327 -1.5429 -0.5507  0.7128
 4472TIP3   OH235050   6.783   0.615   2.028  0.0531 -0.1983  0.8355
 4472TIP3    H135051   6.697   0.598   1.988 -0.6679 -0.8860  2.5780
 4472TIP3    H235052   6.839   0.545   1.996 -0.1187  0.0420 -0.0197
 4473TIP3   OH235053   2.485   5.702   2.283 -0.3667  0.1846 -0.3926
 4473TIP3    H135054   2.534   5.691   2.365 -0.8096  2.5290  0.2481
 4473TIP3    H235055   2.406   5.748   2.308 -2.8530 -3.0702 -1.4961
 4474TIP3   OH235056   6.127   0.742   0.922 -0.1901  0.2016 -0.2960
 4474TIP3    H135057   6.045   0.791   0.928 -0.0397  0.4836 -0.4924
 4474TIP3    H235058   6.159   0.760   0.834  0.3845  0.5875 -0.0181
 4475TIP3   OH235059   0.927   4.358   1.502  0.1187  0.0365 -0.1580
 4475TIP3    H135060   0.931   4.452   1.524 -0.1020  0.3050 -1.2214
 4475TIP3    H235061   1.014   4.325   1.526  0.2722  0.5572  0.0289
 4476TIP3   OH235062   3.063   5.386   1.779 -0.1628  0.3775  0.0004
 4476TIP3    H135063   3.070   5.453   1.847 -0.4832 -1.3133  1.7920
 4476TIP3    H235064   2.978   5.344   1.796  0.2268 -0.7735 -0.7632
 4477TIP3   OH235065   0.184   6.075   0.292  0.1503 -0.0924  0.6411
 4477TIP3    H135066   0.118   6.068   0.223 -0.6539 -1.0586  1.4823
 4477TIP3    H235067   0.264   6.101   0.246 -1.1871  3.1442 -0.1621
 4478TIP3   OH235068   4.821   0.430   3.144  0.2503 -0.0478 -0.7194
 4478TIP3    H135069   4.900   0.378   3.126 -0.5466 -0.8926 -1.9549
 4478TIP3    H235070   4.853   0.508   3.188  1.5978 -1.1567  0.3594
 4479TIP3   OH235071   5.697   4.782   1.865 -0.5119  0.3480  0.3269
 4479TIP3    H135072   5.777   4.740   1.897 -1.8641 -3.2741 -0.5259
 4479TIP3    H235073   5.629   4.755   1.926 -1.5674  1.0145 -0.5115
 4480TIP3   OH235074   6.656   2.499   8.192  0.0800 -0.1889 -0.3279
 4480TIP3    H135075   6.701   2.414   8.184 -1.4192 -1.2413  1.4838
 4480TIP3    H235076   6.573   2.487   8.147 -0.4522  0.0441  0.5661
 4481TIP3   OH235077   4.153   4.131   0.874  0.2076 -0.1504 -0.2410
 4481TIP3    H135078   4.071   4.107   0.918  0.5488 -0.6565  0.1381
 4481TIP3    H235079   4.141   4.101   0.784  0.0416 -0.3876 -0.1429
 4482TIP3   OH235080   5.184   4.780   0.421 -0.0803  0.7410 -0.2883
 4482TIP3    H135081   5.114   4.814   0.475  1.1617  1.1571  1.1172
 4482TIP3    H235082   5.260   4.833   0.444  1.0559 -0.6700 -0.6507
 4483TIP3   OH235083   3.965   0.089   8.132 -0.3573  0.0124 -0.3486
 4483TIP3    H135084   3.946   0.115   8.222 -2.8878 -1.4637 -0.3621
 4483TIP3    H235085   4.057   0.061   8.134 -0.4891 -0.4591  1.8874
 4484TIP3   OH235086   5.145   3.239   7.510  0.1655  0.8321  0.0184
 4484TIP3    H135087   5.153   3.332   7.531 -3.0908  1.6331 -1.4861
 4484TIP3    H235088   5.171   3.232   7.418 -0.6325  0.5307 -0.2024
 4485TIP3   OH235089   6.262   1.588   8.597  0.4566 -0.8125 -0.2365
 4485TIP3    H135090   6.198   1.542   8.651 -0.4025  1.3396  0.6966
 4485TIP3    H235091   6.342   1.588   8.651 -0.1598  0.6054  0.7243
 4486TIP3   OH235092   2.747   2.622   1.015 -0.0205  0.1325  0.0240
 4486TIP3    H135093   2.769   2.566   0.940 -1.3037 -0.4829  0.0909
 4486TIP3    H235094   2.812   2.693   1.011  0.9022 -0.7192 -0.7486
 4487TIP3   OH235095   6.450   4.341   0.799  0.0882  0.1806 -0.2680
 4487TIP3    H135096   6.453   4.327   0.705 -1.5349  0.1853 -0.3414
 4487TIP3    H235097   6.418   4.258   0.835 -3.2762  1.3843 -0.1361
 4488TIP3   OH235098   0.894   4.231   7.280 -0.2061 -0.5886  0.1794
 4488TIP3    H135099   0.904   4.140   7.254 -0.5858 -0.6387  0.1960
 4488TIP3    H235100   0.914   4.282   7.202  1.8423 -0.6023  0.6518
 4489TIP3   OH235101   6.151   3.862   8.529 -0.4399 -0.4080  0.1520
 4489TIP3    H135102   6.097   3.846   8.451 -0.9554 -2.2967  0.8434
 4489TIP3    H235103   6.114   3.805   8.596  0.6520  0.3955  1.4961
 4490TIP3   OH235104   0.165   0.475   2.285  0.1014  0.3910  0.7063
 4490TIP3    H135105   0.218   0.411   2.238  1.2113  1.2834  0.6835
 4490TIP3    H235106   0.229   0.525   2.336 -0.6979  1.6370  0.5307
 4491TIP3   OH235107   2.755   4.758   7.582 -0.3874 -0.1453  0.1716
 4491TIP3    H135108   2.813   4.733   7.654  1.3659 -0.8614 -1.3856
 4491TIP3    H235109   2.716   4.675   7.553  0.1652 -0.1140 -0.6959
 4492TIP3   OH235110   3.125   4.844   3.025 -0.0538 -0.1215 -0.4647
 4492TIP3    H135111   3.076   4.918   3.060  1.0948  1.1004 -1.3717
 4492TIP3    H235112   3.203   4.838   3.080 -1.1843 -2.1562  1.0678
 4493TIP3   OH235113   2.137   3.883   0.528  0.2119  0.1196  0.7083
 4493TIP3    H135114   2.042   3.895   0.530  0.1416 -0.0248 -0.7068
 4493TIP3    H235115   2.150   3.793   0.556 -0.3047 -0.7011 -1.4516
 4494TIP3   OH235116   3.118   1.209   3.133  0.5926  0.2914 -0.2496
 4494TIP3    H135117   3.075   1.124   3.143  2.3419 -0.6496 -0.2341
 4494TIP3    H235118   3.096   1.257   3.213  0.8578 -0.7555  0.4758
 4495TIP3   OH235119   6.426   0.980   1.441 -0.4769 -0.0992 -0.3341
 4495TIP3    H135120   6.352   1.038   1.424 -0.8132 -0.1987  0.7455
 4495TIP3    H235121   6.430   0.973   1.536  0.8180 -0.2321 -0.3817
 4496TIP3   OH235122   5.017   0.656   7.664  0.1799  0.6556  0.2072
 4496TIP3    H135123   5.029   0.722   7.595 -0.7478  1.2776  0.6232
 4496TIP3    H235124   5.044   0.574   7.623 -0.7699  0.9383 -1.0626
 4497TIP3   OH235125   3.360   3.669   0.040  0.1634  0.6947  0.1099
 4497TIP3    H135126   3.297   3.668  -0.032  1.0436  1.1745 -0.6864
 4497TIP3    H235127   3.343   3.588   0.088 -1.9907  1.4621  0.7530
 4498TIP3   OH235128   1.952   6.246   8.153  0.4703  0.0424  0.1673
 4498TIP3    H135129   1.994   6.329   8.178 -0.6213  0.7596 -0.2877
 4498TIP3    H235130   1.980   6.184   8.220  2.0739  0.5293  0.0090
 4499TIP3   OH235131   4.434   5.461   8.102 -0.2613 -0.2987  0.0790
 4499TIP3    H135132   4.529   5.451   8.103 -0.2184 -1.2925 -3.1906
 4499TIP3    H235133   4.418   5.541   8.053 -1.1115 -0.2919  0.3428
 4500TIP3   OH235134   0.046   3.576   2.880  0.0562 -0.1054 -0.4349
 4500TIP3    H135135  -0.026   3.542   2.933 -0.4936  1.9763  0.2606
 4500TIP3    H235136   0.121   3.579   2.940 -0.2136  0.9726 -0.1264
 4501TIP3   OH235137   5.544   5.372   2.654 -0.8383  0.5458  0.0136
 4501TIP3    H135138   5.481   5.305   2.628 -0.7608  1.1281 -1.8008
 4501TIP3    H235139   5.622   5.323   2.682 -0.6048 -0.1501 -1.7580
 4502TIP3   OH235140   4.591   6.171   2.528 -0.1274 -0.8518 -0.1032
 4502TIP3    H135141   4.525   6.233   2.558  0.5035 -0.9525  1.6089
 4502TIP3    H235142   4.549   6.085   2.537 -0.3121 -0.8100 -0.5562
 4503TIP3   OH235143   4.073   0.405   2.314 -0.0067  0.5896 -0.3255
 4503TIP3    H135144   4.133   0.355   2.369 -1.1751 -1.0139 -0.4272
 4503TIP3    H235145   4.121   0.419   2.232  0.2413 -0.7126 -0.4303
 4504TIP3   OH235146   5.716   6.587   1.823  0.2816  0.2358  0.0209
 4504TIP3    H135147   5.749   6.648   1.757 -0.0643  0.5165  0.1063
 4504TIP3    H235148   5.648   6.636   1.869  0.6886  0.1235  0.7466
 4505TIP3   OH235149   4.541   5.173   0.118  1.2962 -0.7445 -0.3245
 4505TIP3    H135150   4.549   5.197   0.026  0.9984  1.4795  0.1669
 4505TIP3    H235151   4.453   5.139   0.127 -1.0407  4.4644  0.0682
 4506TIP3   OH235152   2.311   6.593   1.254 -0.1441 -0.1934  0.2674
 4506TIP3    H135153   2.325   6.607   1.160  1.6136  1.5559  0.7065
 4506TIP3    H235154   2.397   6.609   1.294 -1.4819  2.4093  2.4665
 4507TIP3   OH235155   3.540   4.283   2.005  0.0087 -0.1213 -0.6544
 4507TIP3    H135156   3.546   4.192   2.032 -0.5330 -0.0569 -0.3074
 4507TIP3    H235157   3.577   4.333   2.078 -1.7501  0.0722  0.1360
 4508TIP3   OH235158   6.786   0.417   1.681 -0.4480  0.0782 -0.1127
 4508TIP3    H135159   6.736   0.495   1.657 -0.8966  0.5128  2.0199
 4508TIP3    H235160   6.721   0.347   1.681 -0.5687  0.1896  0.3894
 4509TIP3   OH235161   6.296   3.007   2.595  0.0739  0.3272  0.3277
 4509TIP3    H135162   6.206   3.006   2.562  0.1293 -2.6723  0.0511
 4509TIP3    H235163   6.286   3.019   2.689 -0.6491 -0.1448  0.3217
 4510TIP3   OH235164   4.079   3.511   8.054 -0.3078 -0.0360 -0.2149
 4510TIP3    H135165   4.090   3.494   7.960  1.4107 -0.1071 -0.0308
 4510TIP3    H235166   4.048   3.602   8.058  1.1937  0.5399 -0.8262
 4511TIP3   OH235167   6.416   4.039   0.405 -0.0441  0.0643 -0.0989
 4511TIP3    H135168   6.390   4.047   0.313  1.3891 -0.9041 -0.6258
 4511TIP3    H235169   6.508   4.015   0.401 -0.1267 -0.6404  1.5795
 4512TIP3   OH235170   5.141   5.716   3.159 -0.1089  0.1047  0.5519
 4512TIP3    H135171   5.188   5.668   3.091 -0.1923  2.3692 -1.2488
 4512TIP3    H235172   5.207   5.735   3.225  0.7238  0.3453 -0.3224
 4513TIP3   OH235173   4.060   6.206   7.583 -0.3545 -0.1470  0.7108
 4513TIP3    H135174   4.140   6.257   7.571 -1.1925  0.9257 -0.5329
 4513TIP3    H235175   4.038   6.174   7.496 -1.9663  0.6684  0.7778
 4514TIP3   OH235176   2.313   5.390   2.216 -0.4221 -0.3973  0.2007
 4514TIP3    H135177   2.394   5.374   2.265  0.6021 -1.0808 -1.6163
 4514TIP3    H235178   2.304   5.313   2.160 -2.6813 -0.6108  0.7701
 4515TIP3   OH235179   4.772   1.292   1.046  0.0707  0.0278  0.0506
 4515TIP3    H135180   4.685   1.325   1.022 -0.4176 -1.9176 -0.9973
 4515TIP3    H235181   4.826   1.308   0.969  0.5992  0.9151  0.5794
 4516TIP3   OH235182   0.825   4.153   0.810  0.3657  0.5409 -0.2744
 4516TIP3    H135183   0.849   4.166   0.718 -0.7993 -0.6613 -0.7922
 4516TIP3    H235184   0.730   4.137   0.808  0.0859  1.7347  1.2821
 4517TIP3   OH235185   3.489   3.391   1.402 -0.1204 -0.5076 -0.4577
 4517TIP3    H135186   3.556   3.454   1.376  0.9594 -1.4831 -0.0932
 4517TIP3    H235187   3.468   3.344   1.322 -0.5872 -0.0254 -0.6289
 4518TIP3   OH235188   3.131   0.392   3.278  0.0830 -0.1392 -0.1558
 4518TIP3    H135189   3.064   0.438   3.226  0.4002 -0.3935 -0.8037
 4518TIP3    H235190   3.102   0.403   3.369 -0.9078 -0.3481 -0.4247
 4519TIP3   OH235191   3.960   1.041   8.633 -0.2273 -0.2214  0.4090
 4519TIP3    H135192   3.918   1.104   8.692  0.1332 -1.6097  2.2664
 4519TIP3    H235193   3.888   0.986   8.602 -0.7505  1.8277 -2.3093
 4520TIP3   OH235194   2.209   2.147   2.203 -0.2571  0.3692 -0.3069
 4520TIP3    H135195   2.279   2.118   2.144 -1.5449 -1.3081 -1.0892
 4520TIP3    H235196   2.253   2.160   2.287  0.9046 -1.4027 -0.5732
 4521TIP3   OH235197   5.024   6.583   8.402 -0.3428  0.4539 -0.4220
 4521TIP3    H135198   4.942   6.545   8.371 -0.6192 -0.7610  1.6427
 4521TIP3    H235199   4.999   6.668   8.439 -0.3938  0.8109 -1.2625
 4522TIP3   OH235200   0.950   3.334   3.033 -0.4996  0.2244  0.1258
 4522TIP3    H135201   1.014   3.267   3.056 -0.4753  0.7775  1.7380
 4522TIP3    H235202   0.913   3.363   3.116 -0.7215  2.0148 -0.5391
 4523TIP3   OH235203   1.580   1.850   2.671  0.1858 -0.2334  0.1249
 4523TIP3    H135204   1.670   1.828   2.694  0.9439  1.2375 -1.2002
 4523TIP3    H235205   1.575   1.833   2.576 -0.3794  1.3175 -0.1554
 4524TIP3   OH235206   5.986   3.345   2.508  0.1322 -0.0996 -0.7569
 4524TIP3    H135207   5.955   3.375   2.593  0.5066  1.1416 -1.0359
 4524TIP3    H235208   5.933   3.268   2.489 -0.0845 -0.2728  0.5062
 4525TIP3   OH235209   5.285   5.648   7.066  0.2931 -0.3177  0.1870
 4525TIP3    H135210   5.225   5.716   7.097  0.3992 -0.8972  1.7249
 4525TIP3    H235211   5.340   5.693   7.001 -0.4699  0.7279  0.2335
 4526TIP3   OH235212   5.508   0.245   7.591  0.1225  0.5042 -0.0897
 4526TIP3    H135213   5.521   0.150   7.588 -0.3166  0.4023  0.7899
 4526TIP3    H235214   5.579   0.281   7.538  2.4505 -0.1545  2.3433
 4527TIP3   OH235215   1.364   2.741   1.620 -0.0572  0.2557 -0.0247
 4527TIP3    H135216   1.274   2.737   1.589 -0.1376 -0.0728  0.2458
 4527TIP3    H235217   1.366   2.815   1.680 -0.1285  0.3093 -0.0881
 4528TIP3   OH235218   1.132   4.625   0.126  0.5174  0.4941 -0.1382
 4528TIP3    H135219   1.225   4.650   0.122  0.7442 -0.0189  1.3101
 4528TIP3    H235220   1.132   4.539   0.168 -0.6335  0.5758  0.0597
 4529TIP3   OH235221   6.565   3.383   0.828  0.1987 -0.2488  0.7386
 4529TIP3    H135222   6.550   3.337   0.746  1.1625 -2.1639  1.5745
 4529TIP3    H235223   6.480   3.419   0.851 -0.3769 -0.8111 -0.4323
 4530TIP3   OH235224   0.116   4.821   7.801  0.0621  0.0213 -0.0100
 4530TIP3    H135225   0.182   4.778   7.855  0.8185 -0.0374 -0.9596
 4530TIP3    H235226   0.046   4.755   7.792  0.9729 -0.8469 -1.0118
 4531TIP3   OH235227   3.864   5.029   0.242 -0.4292 -0.2946 -0.1390
 4531TIP3    H135228   3.879   5.102   0.302  1.3883  0.2830 -1.2369
 4531TIP3    H235229   3.812   4.967   0.294  0.3168  0.5567  1.7365
 4532TIP3   OH235230   0.235   3.212   1.018  0.0766  0.0758  0.0962
 4532TIP3    H135231   0.214   3.300   0.989 -0.3260 -0.0108  0.1244
 4532TIP3    H235232   0.176   3.195   1.091  0.2206 -0.1793  0.1573
 4533TIP3   OH235233   0.309   2.849   8.111  0.2289  0.4723 -0.3533
 4533TIP3    H135234   0.391   2.842   8.158  0.5617  2.0881 -0.6154
 4533TIP3    H235235   0.269   2.930   8.144  0.7342  1.9876 -3.1443
 4534TIP3   OH235236   1.328   1.422   2.676  0.3854 -0.5671  0.1948
 4534TIP3    H135237   1.371   1.483   2.735  0.7174 -0.5566 -0.0568
 4534TIP3    H235238   1.261   1.474   2.632 -1.9369 -1.1980  2.6764
 4535TIP3   OH235239   4.898   4.826   8.623  0.4250  0.3444  0.7434
 4535TIP3    H135240   4.896   4.811   8.718 -1.1142  1.5409  0.9495
 4535TIP3    H235241   4.933   4.915   8.614  1.6492 -0.1702  0.0830
 4536TIP3   OH235242   0.165   4.957   2.790 -0.0564  0.6764  0.1118
 4536TIP3    H135243   0.174   4.864   2.767 -0.3983  0.2666  1.5534
 4536TIP3    H235244   0.236   4.974   2.852 -1.1409  0.8508  1.3519
 4537TIP3   OH235245   4.472   5.255   1.591 -0.4310  0.3308  0.1830
 4537TIP3    H135246   4.399   5.289   1.541 -0.8384  0.7927  1.0644
 4537TIP3    H235247   4.479   5.163   1.565 -3.0481 -0.4861  1.9611
 4538TIP3   OH235248   3.980   1.614   1.546 -0.2321  0.6601  0.1692
 4538TIP3    H135249   3.923   1.610   1.470 -0.6003  0.1570  0.4653
 4538TIP3    H235250   4.056   1.561   1.521  0.3187  1.6945 -0.3923
 4539TIP3   OH235251   5.998   2.133   3.257  0.0448  0.0713 -0.3296
 4539TIP3    H135252   6.015   2.223   3.285 -0.5078  1.0957 -3.0385
 4539TIP3    H235253   6.084   2.091   3.258  0.5929  1.1555 -0.6760
 4540TIP3   OH235254   4.109   2.074   2.113  0.5604 -0.1246 -0.1107
 4540TIP3    H135255   4.145   2.036   2.032  0.2160  0.8583 -0.7376
 4540TIP3    H235256   4.183   2.074   2.174  0.4403 -2.3274  0.1253
 4541TIP3   OH235257   2.746   3.706   2.885 -0.7051 -0.2130 -0.6286
 4541TIP3    H135258   2.720   3.627   2.933  1.3202 -1.0689 -0.8740
 4541TIP3    H235259   2.801   3.754   2.947 -1.2703  0.6309 -0.7635
 4542TIP3   OH235260   3.222   2.814   0.250  0.0845  0.2760  0.3424
 4542TIP3    H135261   3.293   2.873   0.275  1.2125 -0.4583 -0.9485
 4542TIP3    H235262   3.220   2.748   0.320 -0.3566  1.1259  1.1533
 4543TIP3   OH235263   3.233   2.194   0.455 -0.0274  0.3359 -0.1460
 4543TIP3    H135264   3.191   2.115   0.487  0.3331 -0.2034 -0.9802
 4543TIP3    H235265   3.215   2.260   0.522 -0.8584 -0.2886  0.2563
 4544TIP3   OH235266   0.994   1.904   1.153  0.0790  0.8153  0.0545
 4544TIP3    H135267   0.961   1.835   1.096  1.3304  0.2758 -0.0463
 4544TIP3    H235268   0.931   1.907   1.225 -0.3247 -0.0234 -0.2463
 4545TIP3   OH235269   6.407   0.597   8.236 -0.0316  0.3654 -0.6109
 4545TIP3    H135270   6.462   0.553   8.300  0.3687  0.9407 -0.5536
 4545TIP3    H235271   6.328   0.622   8.284 -1.0790 -1.8776 -1.0670
 4546TIP3   OH235272   0.222   1.489   8.174 -0.1235  0.4985  0.1885
 4546TIP3    H135273   0.255   1.399   8.175 -0.4342  0.3867  0.9328
 4546TIP3    H235274   0.297   1.541   8.202  0.1066  0.4915 -0.4059
 4547TIP3   OH235275   6.750   3.437   2.002  0.1927 -0.8365 -0.3620
 4547TIP3    H135276   6.737   3.525   2.035 -0.1178 -0.6267 -1.0216
 4547TIP3    H235277   6.818   3.400   2.058 -1.1672 -0.9480  1.2886
 4548TIP3   OH235278   2.773   2.022   7.928 -0.1315  0.9771 -0.4632
 4548TIP3    H135279   2.756   1.950   7.866  2.3096  0.2178 -0.3598
 4548TIP3    H235280   2.688   2.042   7.965 -1.0801 -1.1109 -1.3371
 4549TIP3   OH235281   2.459   0.652   8.457  0.1593  0.0138  0.1454
 4549TIP3    H135282   2.477   0.726   8.514 -1.2899 -0.0070  0.6505
 4549TIP3    H235283   2.546   0.622   8.429  0.8417  0.6772  1.4831
 4550TIP3   OH235284   1.166   1.677   0.731  0.4295 -0.5419 -0.0994
 4550TIP3    H135285   1.097   1.715   0.785  2.5195  0.4192  2.0293
 4550TIP3    H235286   1.213   1.752   0.695  2.0308 -1.1051  0.7289
 4551TIP3   OH235287   4.722   2.705   0.601  0.6275  0.5715  0.3795
 4551TIP3    H135288   4.636   2.697   0.643  0.5033  1.3740  0.2959
 4551TIP3    H235289   4.779   2.648   0.652 -0.3198 -1.3592 -0.6307
 4552TIP3   OH235290   1.067   4.186   2.356 -0.1387  0.0475  0.2091
 4552TIP3    H135291   1.110   4.230   2.429 -1.0700  0.9597  0.2374
 4552TIP3    H235292   1.119   4.108   2.341  0.8899  0.5704  0.9271
 4553TIP3   OH235293   1.377   0.018   2.778 -0.1172  0.0943 -0.1454
 4553TIP3    H135294   1.402  -0.074   2.782 -0.1646  0.1461  2.3642
 4553TIP3    H235295   1.456   0.066   2.804 -1.0415  0.5556  1.9480
 4554TIP3   OH235296   1.343   5.229   1.624  0.0133 -0.2179 -0.3462
 4554TIP3    H135297   1.347   5.307   1.569 -0.6581 -1.0216 -1.5967
 4554TIP3    H235298   1.257   5.232   1.665  0.9989  1.0846  1.8525
 4555TIP3   OH235299   1.313   0.195   7.782  0.0793  0.0195 -0.4233
 4555TIP3    H135300   1.401   0.160   7.798  0.2626  0.5838 -0.1669
 4555TIP3    H235301   1.264   0.121   7.746  1.1172  0.1063 -2.1519
 4556TIP3   OH235302   0.335   2.611   0.952  0.1334  0.2524  0.0932
 4556TIP3    H135303   0.408   2.601   0.892 -1.1797 -0.0410 -1.5291
 4556TIP3    H235304   0.356   2.689   1.003  1.6399  0.0733 -0.2048
 4557TIP3   OH235305   2.976   6.217   2.285  0.0264 -0.2185  0.5211
 4557TIP3    H135306   3.004   6.291   2.231  1.5351 -1.0491  0.0799
 4557TIP3    H235307   2.924   6.163   2.226 -2.5640  1.2631  1.3054
 4558TIP3   OH235308   6.102   0.527   2.530 -0.0389  0.0196 -0.6640
 4558TIP3    H135309   6.096   0.562   2.441  1.8342 -0.1249 -0.8839
 4558TIP3    H235310   6.195   0.529   2.551 -0.2859 -1.2531  0.7743
 4559TIP3   OH235311   4.483   5.091   1.896 -0.3052 -0.4257 -0.5041
 4559TIP3    H135312   4.556   5.152   1.885 -1.0108  0.2081 -1.8911
 4559TIP3    H235313   4.428   5.104   1.818 -1.0113 -2.1075 -0.3400
 4560TIP3   OH235314   6.572   3.452   1.627  0.4281  0.0610  0.2082
 4560TIP3    H135315   6.579   3.374   1.682 -1.0320 -0.7776 -0.7404
 4560TIP3    H235316   6.520   3.513   1.679  0.8665  0.0956  0.6142
 4561TIP3   OH235317   3.815   5.692   1.987  0.4791  0.5260 -0.1084
 4561TIP3    H135318   3.873   5.768   1.990 -1.3509  2.0444 -0.8361
 4561TIP3    H235319   3.784   5.682   2.077 -1.2772  2.3973 -0.4082
 4562TIP3   OH235320   3.343   6.515   8.388 -0.3555 -0.0264  0.2642
 4562TIP3    H135321   3.317   6.600   8.352 -1.0463 -0.9837 -1.6103
 4562TIP3    H235322   3.260   6.471   8.406 -0.0551 -1.1751 -0.9987
 4563TIP3   OH235323   1.109   1.852   1.930 -0.0629 -0.0092 -0.0939
 4563TIP3    H135324   1.198   1.878   1.951  0.0171  0.7391 -1.2678
 4563TIP3    H235325   1.100   1.763   1.965  1.0439  0.0138  0.2614
 4564TIP3   OH235326   5.376   0.493   3.735  0.8925 -0.4241  0.4388
 4564TIP3    H135327   5.372   0.578   3.693  0.1664 -1.4983 -1.8135
 4564TIP3    H235328   5.466   0.486   3.768  0.6596  1.5971  1.6219
 4565TIP3   OH235329   5.159   3.642   3.254 -0.4012 -0.1832 -1.0431
 4565TIP3    H135330   5.081   3.679   3.297  1.1796  0.0632  1.8338
 4565TIP3    H235331   5.212   3.719   3.232 -0.1254 -0.4399 -1.2753
 4566TIP3   OH235332   2.088   4.975   2.444  0.0759  0.2651 -0.3905
 4566TIP3    H135333   2.020   4.929   2.494 -1.2940  1.5699 -0.9747
 4566TIP3    H235334   2.068   4.955   2.352  0.9251  0.0877 -0.5468
 4567TIP3   OH235335   2.158   5.413   0.423 -0.7882 -0.4394  0.1915
 4567TIP3    H135336   2.104   5.473   0.372 -1.0830 -2.5051 -2.1407
 4567TIP3    H235337   2.236   5.400   0.369 -0.4298 -1.6008  0.9543
 4568TIP3   OH235338   4.794   4.118   1.950 -0.0172 -0.1036  0.1007
 4568TIP3    H135339   4.879   4.162   1.941 -0.6856  1.0453 -0.9423
 4568TIP3    H235340   4.779   4.077   1.865 -1.3735  1.3794 -0.4157
 4569TIP3   OH235341   4.730   4.240   0.431 -0.0356 -0.3426  0.2251
 4569TIP3    H135342   4.643   4.229   0.391  0.4446  1.6295 -1.5617
 4569TIP3    H235343   4.791   4.224   0.360  0.9752  0.4352  0.8966
 4570TIP3   OH235344   4.431   2.887   8.332  0.6187 -0.4281 -0.2177
 4570TIP3    H135345   4.420   2.820   8.400  0.2262  0.0893  0.2397
 4570TIP3    H235346   4.442   2.969   8.381  1.4701 -0.2051 -0.7674
 4571TIP3   OH235347   0.748   2.544   2.084  0.4810  0.4852 -0.3323
 4571TIP3    H135348   0.690   2.478   2.122 -0.0839 -1.0551 -3.5170
 4571TIP3    H235349   0.733   2.622   2.137 -2.7536 -0.4991  0.4595
 4572TIP3   OH235350   0.321   3.560   7.322  0.3218 -0.5322  0.4606
 4572TIP3    H135351   0.232   3.541   7.292 -0.1960 -0.7574  2.0625
 4572TIP3    H235352   0.332   3.654   7.307  0.7046 -0.8877 -1.9019
 4573TIP3   OH235353   0.233   3.099   8.456 -0.5856  0.4456 -0.2381
 4573TIP3    H135354   0.213   3.165   8.389 -0.5757  0.4289 -0.2571
 4573TIP3    H235355   0.162   3.035   8.447  0.0680 -0.1920 -1.0504
 4574TIP3   OH235356   5.981   1.596   8.261 -0.3620 -0.0853  0.3565
 4574TIP3    H135357   6.023   1.527   8.210 -0.4947 -1.8614  2.5435
 4574TIP3    H235358   5.913   1.630   8.203 -0.6649 -2.1758 -0.6056
 4575TIP3   OH235359   2.250   4.989   2.750  0.1405 -0.4747  0.5517
 4575TIP3    H135360   2.314   4.945   2.805  0.7352 -1.1950 -0.6890
 4575TIP3    H235361   2.291   4.996   2.664 -0.3720  1.5145  0.4001
 4576TIP3   OH235362   6.360   4.946   0.860  0.3001 -0.1604  0.3874
 4576TIP3    H135363   6.367   5.023   0.916 -0.6956  0.1420  0.1175
 4576TIP3    H235364   6.341   4.980   0.773 -1.2221 -0.7199  0.4652
 4577TIP3   OH235365   0.345   4.613   0.231  0.2151  0.3892  0.5417
 4577TIP3    H135366   0.440   4.624   0.228  0.2664 -0.2515 -1.8938
 4577TIP3    H235367   0.310   4.700   0.214  0.3588  0.6004  1.3063
 4578TIP3   OH235368   2.368   3.486   0.731 -0.3364 -0.2678  0.1323
 4578TIP3    H135369   2.381   3.540   0.809  0.6842  0.9040 -0.8068
 4578TIP3    H235370   2.417   3.531   0.662  0.6309 -2.4446 -0.6855
 4579TIP3   OH235371   3.547   5.566   8.470 -0.2539  0.3122 -0.1787
 4579TIP3    H135372   3.592   5.522   8.542  0.6412  0.5807 -0.5538
 4579TIP3    H235373   3.553   5.504   8.397  1.2643  1.1308 -0.7903
 4580TIP3   OH235374   2.979   3.883   2.956  0.1409 -0.0995  0.1042
 4580TIP3    H135375   2.941   3.971   2.969 -1.8241 -0.7847 -0.5963
 4580TIP3    H235376   3.073   3.896   2.967 -0.2620  1.6172  2.6303
 4581TIP3   OH235377   0.088   2.455   1.804 -0.0990 -0.5369 -0.1299
 4581TIP3    H135378   0.036   2.497   1.735  0.7179 -1.0244 -1.0688
 4581TIP3    H235379   0.051   2.366   1.811 -0.4943 -0.3381  0.4195
 4582TIP3   OH235380   5.528   2.944   0.307  0.1830  0.3972  0.8181
 4582TIP3    H135381   5.554   3.015   0.249 -1.1887 -0.1782 -0.5876
 4582TIP3    H235382   5.468   2.891   0.254  1.2031 -1.8374  1.7972
 4583TIP3   OH235383   3.738   5.072   0.005 -0.2267 -0.4047  0.1598
 4583TIP3    H135384   3.675   5.000  -0.004 -0.1414 -0.5220  0.4918
 4583TIP3    H235385   3.795   5.044   0.077  0.8584 -0.7963 -0.8182
 4584TIP3   OH235386   4.513   0.867   8.074  0.0028 -0.1629 -0.0729
 4584TIP3    H135387   4.544   0.945   8.121 -1.1744  0.6715 -0.6340
 4584TIP3    H235388   4.427   0.849   8.111 -0.2476 -0.4642 -0.7870
 4585TIP3   OH235389   3.506   5.671   7.877 -0.0112 -0.3578 -0.3413
 4585TIP3    H135390   3.540   5.682   7.966 -0.0822  1.0852 -0.4697
 4585TIP3    H235391   3.544   5.744   7.827 -2.6600  0.9516 -0.6657
 4586TIP3   OH235392   0.063   2.599   2.146  0.0832  0.1971  0.0464
 4586TIP3    H135393   0.075   2.691   2.123 -1.5414  0.6689  0.9425
 4586TIP3    H235394  -0.003   2.567   2.084  0.0478 -0.1464  0.2589
 4587TIP3   OH235395   1.235   3.517   1.799  0.1659 -0.0146  0.0234
 4587TIP3    H135396   1.295   3.577   1.754  0.8209 -0.0149  0.8636
 4587TIP3    H235397   1.282   3.492   1.879 -0.7092 -0.4960  0.4000
 4588TIP3   OH235398   3.129   2.237   2.992  1.2684  0.2009  0.1500
 4588TIP3    H135399   3.191   2.251   3.063  0.1832  0.4976  1.0583
 4588TIP3    H235400   3.058   2.186   3.031  0.0697  1.3981 -0.3837
 4589TIP3   OH235401   0.425   1.061   0.669  0.6878  0.1534 -0.1038
 4589TIP3    H135402   0.404   1.142   0.716  0.7056  0.4784 -0.6504
 4589TIP3    H235403   0.350   1.004   0.685  0.3071  0.5720 -0.3780
 4590TIP3   OH235404   3.506   4.359   2.274  0.0997 -0.4609 -0.1222
 4590TIP3    H135405   3.431   4.393   2.322 -0.7325 -1.3426 -0.7581
 4590TIP3    H235406   3.544   4.293   2.332  0.2403 -0.1839  0.1017
 4591TIP3   OH235407   2.491   0.065   7.947 -0.2359 -0.6857  0.4744
 4591TIP3    H135408   2.518   0.124   7.877 -1.7483 -0.9087 -0.3573
 4591TIP3    H235409   2.449   0.122   8.012  0.3338 -0.5880  0.7592
 4592TIP3   OH235410   1.741   4.065   1.958 -0.0585  0.4028 -0.3753
 4592TIP3    H135411   1.651   4.098   1.960 -0.4748 -0.6479 -0.8873
 4592TIP3    H235412   1.735   3.978   1.997  0.2265 -0.7820 -2.7825
 4593TIP3   OH235413   6.553   0.993   2.795 -0.1584  0.0287  0.0036
 4593TIP3    H135414   6.600   1.075   2.779  0.8663 -0.3686  0.8781
 4593TIP3    H235415   6.487   1.016   2.860 -0.2265  0.2761 -0.1518
 4594TIP3   OH235416   3.622   6.337   8.048 -0.1277 -0.4083 -0.0874
 4594TIP3    H135417   3.639   6.383   8.130 -1.3057  0.1106 -0.1134
 4594TIP3    H235418   3.663   6.391   7.981 -0.8629  0.2440 -0.0347
 4595TIP3   OH235419   1.106   1.384   0.678  0.7691  0.3635  0.3062
 4595TIP3    H135420   1.114   1.480   0.675  0.8076  0.4096  1.4732
 4595TIP3    H235421   1.155   1.359   0.756 -2.9286 -0.1804  2.7018
 4596TIP3   OH235422   5.267   5.976   0.226  0.0478 -0.3709  0.5388
 4596TIP3    H135423   5.201   5.941   0.166  0.2497 -0.3494  0.3030
 4596TIP3    H235424   5.350   5.963   0.180  0.4524 -2.3299  1.6965
 4597TIP3   OH235425   1.234   5.190   3.097 -0.4549  0.0390 -0.0819
 4597TIP3    H135426   1.202   5.167   3.185 -0.6184 -1.7551 -0.5650
 4597TIP3    H235427   1.232   5.285   3.095  1.4494  0.2570  2.5689
 4598TIP3   OH235428   1.035   1.824   8.173  0.1360 -0.0798  0.0650
 4598TIP3    H135429   0.976   1.884   8.218  0.7129 -0.3753  1.2652
 4598TIP3    H235430   1.007   1.826   8.082 -1.6687 -0.1529  0.5813
 4599TIP3   OH235431   0.498   0.471   8.595  0.3577  1.0544  0.0706
 4599TIP3    H135432   0.582   0.427   8.604  0.2825  0.7793 -0.5609
 4599TIP3    H235433   0.487   0.483   8.501 -0.0916  1.5130  0.1776
 4600TIP3   OH235434   0.167   4.281   8.150 -0.2707  0.9133  0.0997
 4600TIP3    H135435   0.092   4.330   8.183 -0.0310  0.9568  0.5932
 4600TIP3    H235436   0.196   4.228   8.224 -1.2402 -0.8873 -0.7550
 4601TIP3   OH235437   4.110   5.722   1.060  0.3487  0.5596  0.8415
 4601TIP3    H135438   4.126   5.642   1.011  0.7534 -0.3940  2.4575
 4601TIP3    H235439   4.024   5.708   1.101  0.1421  1.2105  0.6425
 4602TIP3   OH235440   5.034   0.639   8.421  0.1709  0.2517 -0.6322
 4602TIP3    H135441   5.016   0.627   8.327 -0.7746 -0.6883 -0.3509
 4602TIP3    H235442   5.117   0.593   8.435  0.8455  1.2566 -1.1861
 4603TIP3   OH235443   0.225   5.777   3.100 -0.1869 -0.1555  0.0503
 4603TIP3    H135444   0.151   5.775   3.040 -1.0547  2.4553  0.9362
 4603TIP3    H235445   0.262   5.865   3.091  3.2928 -1.5332 -0.8375
 4604TIP3   OH235446   6.704   4.336   2.062 -0.1638 -0.0111  0.7252
 4604TIP3    H135447   6.754   4.271   2.112  1.6679  0.7975  0.0245
 4604TIP3    H235448   6.740   4.330   1.973 -0.6817  1.2555  0.4184
 4605TIP3   OH235449   0.643   6.494   0.125  0.2312  0.0621 -0.7841
 4605TIP3    H135450   0.648   6.584   0.157 -1.2504  0.1322 -0.6788
 4605TIP3    H235451   0.592   6.448   0.192 -0.4957 -0.4492 -1.6731
 4606TIP3   OH235452   4.052   0.090   8.531 -0.7114 -0.0645  0.5200
 4606TIP3    H135453   4.127   0.070   8.475 -1.1059 -0.9018  0.2752
 4606TIP3    H235454   4.086   0.154   8.594 -0.0337  0.2322 -0.1336
 4607TIP3   OH235455   4.084   6.635   1.381  0.7210  0.7014  1.0026
 4607TIP3    H135456   4.163   6.631   1.328  1.0134  0.7282  1.4277
 4607TIP3    H235457   4.116   6.633   1.471  0.1679 -1.2555  1.2031
 4608TIP3   OH235458   2.557   4.520   1.357  0.3272 -0.2825 -0.2281
 4608TIP3    H135459   2.504   4.596   1.333 -1.4966 -2.1072 -2.4550
 4608TIP3    H235460   2.496   4.462   1.403  0.8951 -1.5603 -1.0256
 4609TIP3   OH235461   5.370   5.753   0.391  0.1894 -0.0644  0.3362
 4609TIP3    H135462   5.322   5.764   0.473  1.4262  1.0843  0.9552
 4609TIP3    H235463   5.327   5.813   0.330 -0.6670 -0.8451  0.1489
 4610TIP3   OH235464   1.192   6.500   2.318  0.9371  0.1363 -0.5364
 4610TIP3    H135465   1.250   6.518   2.391 -0.0804  1.0398  0.0833
 4610TIP3    H235466   1.185   6.584   2.272  0.7297 -0.1547 -1.0418
 4611TIP3   OH235467   3.448   4.545   1.563 -0.2345 -0.6087 -0.3987
 4611TIP3    H135468   3.414   4.547   1.653  1.6928 -1.7946  0.4165
 4611TIP3    H235469   3.452   4.452   1.541 -2.2555 -0.3147 -2.4234
 4612TIP3   OH235470   5.867   2.791   2.041 -0.1900 -0.1868  0.5205
 4612TIP3    H135471   5.864   2.716   1.981 -2.3539 -0.2483  0.6384
 4612TIP3    H235472   5.938   2.845   2.006 -0.3256 -0.9956 -1.1545
 4613TIP3   OH235473   3.881   3.154   2.776  0.3046 -0.1343  0.0745
 4613TIP3    H135474   3.867   3.187   2.687 -0.9479 -0.4174  0.1451
 4613TIP3    H235475   3.930   3.072   2.764  1.7290  0.7385 -0.2180
 4614TIP3   OH235476   2.230   3.277   1.238 -1.0395 -0.0148  0.0984
 4614TIP3    H135477   2.169   3.226   1.291 -1.8407 -0.6313 -1.3532
 4614TIP3    H235478   2.185   3.289   1.154  0.4453  0.3174 -0.6942
 4615TIP3   OH235479   4.661   0.954   1.710 -0.1271  0.1930 -0.0204
 4615TIP3    H135480   4.593   0.977   1.773  1.3110 -0.4442  1.8456
 4615TIP3    H235481   4.733   1.016   1.728 -0.1600  0.8730 -1.9585
 4616TIP3   OH235482   3.914   6.722   0.931  0.0651  0.7976 -0.6279
 4616TIP3    H135483   3.859   6.680   0.998 -0.0335  1.9399  0.0435
 4616TIP3    H235484   3.981   6.657   0.911 -0.1924  0.2395  0.2371
 4617TIP3   OH235485   6.764   1.392   1.517  0.1542 -0.2842 -0.1630
 4617TIP3    H135486   6.749   1.365   1.608 -0.3262 -0.4326 -0.2869
 4617TIP3    H235487   6.718   1.327   1.464  0.1451 -0.0056 -0.5050
 4618TIP3   OH235488   1.559   0.661   0.555 -0.1238  0.2940 -0.1160
 4618TIP3    H135489   1.516   0.738   0.593 -1.9056 -1.2179  1.1312
 4618TIP3    H235490   1.555   0.595   0.624  2.0280 -0.7261 -0.8934
 4619TIP3   OH235491   0.726   5.277   3.098  0.0927  0.0887  0.4960
 4619TIP3    H135492   0.666   5.265   3.172  0.1349 -0.4809  0.4369
 4619TIP3    H235493   0.810   5.297   3.139  0.2644 -0.8778  0.6179
 4620TIP3   OH235494   1.131   3.331   1.194  0.6567  0.0096 -0.6433
 4620TIP3    H135495   1.170   3.417   1.178 -0.5582  0.4210 -1.4913
 4620TIP3    H235496   1.184   3.270   1.142  0.3685  0.5185 -1.5426
 4621TIP3   OH235497   0.154   2.573   3.053  0.0139 -0.0058 -0.5128
 4621TIP3    H135498   0.073   2.544   3.011  0.1833  1.0991 -1.6754
 4621TIP3    H235499   0.224   2.537   2.999  0.2295  1.9181 -1.6184
 4622TIP3   OH235500   2.701   1.154   3.139  0.5215 -0.2617 -0.2418
 4622TIP3    H135501   2.678   1.106   3.219  0.5196 -1.9964 -1.2314
 4622TIP3    H235502   2.692   1.246   3.163 -1.4383 -0.7553  1.1903
 4623TIP3   OH235503   4.419   3.092   2.216  0.0086  0.0348 -0.4340
 4623TIP3    H135504   4.366   3.130   2.286 -1.1440 -2.0674 -0.0674
 4623TIP3    H235505   4.363   3.099   2.138 -0.1864 -0.7742 -0.3773
 4624TIP3   OH235506   2.169   1.631   2.720  0.6324  0.2098 -0.5364
 4624TIP3    H135507   2.155   1.549   2.672  2.0261  0.3225 -1.1795
 4624TIP3    H235508   2.141   1.611   2.810  0.4931 -0.8132 -0.7891
 4625TIP3   OH235509   4.525   3.472   7.989  0.1618  0.6277  0.3595
 4625TIP3    H135510   4.559   3.516   8.068  1.8800  0.6551 -0.3522
 4625TIP3    H235511   4.600   3.424   7.955 -0.3509  1.1833 -1.6679
 4626TIP3   OH235512   0.939   0.962   0.445  0.3731 -0.3683  0.0959
 4626TIP3    H135513   0.906   1.040   0.400  2.3751  0.5142  0.0464
 4626TIP3    H235514   0.889   0.890   0.408  0.4490  0.5770 -1.9974
 4627TIP3   OH235515   1.059   3.505   3.703 -0.4417 -0.2361  0.0715
 4627TIP3    H135516   1.147   3.502   3.740 -0.0753 -0.2874 -0.7838
 4627TIP3    H235517   1.040   3.414   3.680 -1.0014 -0.3364  0.8773
 4628TIP3   OH235518   0.567   6.858   2.906 -0.2422 -0.6120 -0.4878
 4628TIP3    H135519   0.532   6.792   2.847 -0.2784 -0.8449 -0.2125
 4628TIP3    H235520   0.499   6.868   2.973  0.4133 -1.4260  0.3231
 4629TIP3   OH235521   6.433   2.014   1.550 -0.2056 -0.3436  0.0253
 4629TIP3    H135522   6.445   2.082   1.617 -1.0988  0.2298 -0.3934
 4629TIP3    H235523   6.345   1.981   1.565 -0.9052  0.6691 -1.6537
 4630TIP3   OH235524   4.766   4.944   2.534 -0.1003  0.3715  0.9443
 4630TIP3    H135525   4.795   4.923   2.623  1.5564 -0.0201  0.3607
 4630TIP3    H235526   4.730   5.032   2.540 -0.4958  0.1375  2.1030
 4631TIP3   OH235527   5.494   4.300   8.510 -0.1933  0.0987 -0.2379
 4631TIP3    H135528   5.429   4.363   8.542  1.0207  1.5989 -0.6561
 4631TIP3    H235529   5.483   4.299   8.415 -0.2420 -0.3858 -0.2322
 4632TIP3   OH235530   5.040   2.216   0.734  0.2070  0.5073  0.3834
 4632TIP3    H135531   5.004   2.269   0.663 -0.9547 -0.8040 -0.0649
 4632TIP3    H235532   5.059   2.278   0.804  1.0704  1.7783 -0.9517
 4633TIP3   OH235533   0.049   1.734   1.764  0.7583 -0.3908 -0.0454
 4633TIP3    H135534   0.004   1.817   1.780  2.2210  0.8592 -2.0243
 4633TIP3    H235535   0.142   1.757   1.765  1.2465 -2.2366  0.3662
 4634TIP3   OH235536   3.543   0.890   2.614  0.0865 -0.6187  0.3908
 4634TIP3    H135537   3.524   0.885   2.520  0.9906 -0.4584  0.1880
 4634TIP3    H235538   3.573   0.980   2.628  0.7303 -0.8662  0.6687
 4635TIP3   OH235539   5.794   1.274   7.774  0.5591  0.5559  0.6222
 4635TIP3    H135540   5.713   1.323   7.760  0.4911  0.6068  1.1529
 4635TIP3    H235541   5.768   1.182   7.768  0.2698  0.5503  1.7031
 4636TIP3   OH235542   5.269   5.750   2.060 -0.1111  0.3487 -0.3998
 4636TIP3    H135543   5.275   5.810   1.986 -1.4149 -0.0460 -0.8503
 4636TIP3    H235544   5.271   5.807   2.137  0.5367  0.8140 -0.7469
 4637TIP3   OH235545   3.236   0.526   0.833 -0.5543 -0.1407 -0.6327
 4637TIP3    H135546   3.255   0.616   0.859 -2.4148  0.2992 -0.6208
 4637TIP3    H235547   3.141   0.519   0.841 -0.3753 -2.3961  0.2363
 4638TIP3   OH235548   0.475   0.068   0.454 -0.1433 -0.6441 -0.0358
 4638TIP3    H135549   0.436   0.121   0.524 -0.5955  0.6686 -1.2386
 4638TIP3    H235550   0.564   0.052   0.484  0.5173  2.1153 -0.2648
 4639TIP3   OH235551   1.482   1.387   1.233 -0.2773  0.0469  0.0289
 4639TIP3    H135552   1.394   1.351   1.243 -0.7132  1.2300  0.6777
 4639TIP3    H235553   1.524   1.368   1.317 -0.9797  2.1985  0.9345
 4640TIP3   OH235554   6.714   3.732   1.194  0.4610  0.3298 -0.1393
 4640TIP3    H135555   6.722   3.663   1.259 -0.2646 -0.0892 -0.4749
 4640TIP3    H235556   6.635   3.709   1.144  1.3702  0.2486 -1.6102
 4641TIP3   OH235557   0.095   2.697   2.391  0.2933  0.4018 -0.8114
 4641TIP3    H135558   0.056   2.670   2.307  2.5441 -2.1720 -1.1670
 4641TIP3    H235559   0.181   2.732   2.367  0.3065  1.1761  0.3184
 4642TIP3   OH235560   4.873   4.077   8.224 -0.4380  0.2570 -0.0666
 4642TIP3    H135561   4.896   4.153   8.171  0.9068  1.0272  1.4925
 4642TIP3    H235562   4.783   4.056   8.201 -0.3634  1.4467 -1.5408
 4643TIP3   OH235563   5.848   0.625   1.719  0.1215  0.4942  0.8597
 4643TIP3    H135564   5.813   0.648   1.806 -0.4432  2.3076  0.2071
 4643TIP3    H235565   5.917   0.690   1.704 -1.5374  1.9291 -1.0936
 4644TIP3   OH235566   0.678   6.709   2.040  0.2895  0.1237  0.1230
 4644TIP3    H135567   0.734   6.707   1.963 -0.0396  0.0348 -0.1186
 4644TIP3    H235568   0.721   6.652   2.103  0.1157 -0.5070 -0.3130
 4645TIP3   OH235569   2.115   3.253   1.674 -0.1334  0.2200 -0.1050
 4645TIP3    H135570   2.124   3.293   1.587  1.9998  1.2555  0.5282
 4645TIP3    H235571   2.136   3.323   1.735 -1.5071 -0.5288  1.2833
 4646TIP3   OH235572   6.558   6.098   3.215 -0.1212 -0.1167  0.9535
 4646TIP3    H135573   6.526   6.009   3.224  1.8545 -0.8972  0.7671
 4646TIP3    H235574   6.582   6.125   3.304  1.9505 -0.8932  0.6950
 4647TIP3   OH235575   3.106   2.133   0.993  0.5285 -0.0218  0.0647
 4647TIP3    H135576   3.135   2.216   0.953 -2.5451  0.7607 -0.8386
 4647TIP3    H235577   3.184   2.098   1.035  2.2008  2.8412 -0.3783
 4648TIP3   OH235578   3.815   0.992   1.392 -0.0624  0.0268 -0.4917
 4648TIP3    H135579   3.826   0.907   1.349 -1.3244  0.8023 -2.4512
 4648TIP3    H235580   3.878   1.049   1.349 -0.2371  0.4561 -0.1844
 4649TIP3   OH235581   5.690   5.145   2.453 -0.6064  0.1896 -0.4945
 4649TIP3    H135582   5.771   5.160   2.405 -0.8511  0.8948 -0.6927
 4649TIP3    H235583   5.672   5.051   2.441  1.6991 -0.7255  1.9251
 4650TIP3   OH235584   1.301   0.762   0.215  0.3322 -0.1702  0.3559
 4650TIP3    H135585   1.281   0.685   0.267 -0.7761 -0.5851 -0.6386
 4650TIP3    H235586   1.230   0.768   0.152  1.1903  0.7924 -0.5723
 4651TIP3   OH235587   3.296   1.172   0.557 -0.5339  0.3186  0.4394
 4651TIP3    H135588   3.311   1.221   0.638 -0.4877 -1.8083  1.8195
 4651TIP3    H235589   3.207   1.138   0.566 -1.4577  2.0208 -1.5791
 4652TIP3   OH235590   3.598   3.209   3.218  0.0004 -0.5708  0.4513
 4652TIP3    H135591   3.652   3.153   3.162  1.7687  1.4308  0.0184
 4652TIP3    H235592   3.646   3.292   3.222 -2.8349  1.2193  0.3823
 4653TIP3   OH235593   0.151   4.558   3.039  0.7797 -0.4646  0.0352
 4653TIP3    H135594   0.199   4.487   3.084  0.2289 -1.1398 -0.4228
 4653TIP3    H235595   0.187   4.638   3.077  0.7828 -1.0012  1.2285
 4654TIP3   OH235596   5.362   4.856   7.618 -0.3254 -0.4962 -0.5024
 4654TIP3    H135597   5.300   4.858   7.691  0.5949  4.1606  0.5143
 4654TIP3    H235598   5.308   4.862   7.540 -1.2472 -0.7363  0.0979
 4655TIP3   OH235599   0.992   0.327   0.619 -0.0321 -0.8900  0.1472
 4655TIP3    H135600   1.026   0.275   0.546 -0.4563 -1.0035  0.0281
 4655TIP3    H235601   0.901   0.300   0.627  0.3416 -1.8140  1.5617
 4656TIP3   OH235602   1.283   2.719   2.525 -0.1781 -0.0478 -0.1899
 4656TIP3    H135603   1.188   2.727   2.520 -0.1791  0.1084  0.0745
 4656TIP3    H235604   1.299   2.676   2.609 -0.0825 -1.2588 -0.8056
 4657TIP3   OH235605   2.054   0.480   1.271 -0.2362 -0.0583 -0.4426
 4657TIP3    H135606   1.998   0.537   1.324  0.6992  0.8838 -0.4358
 4657TIP3    H235607   2.096   0.423   1.335 -0.7478 -0.3971 -0.3973
 4658TIP3   OH235608   2.748   0.089   8.255 -0.0276  0.1184  0.1896
 4658TIP3    H135609   2.841   0.076   8.274 -0.2029 -1.8748 -0.1357
 4658TIP3    H235610   2.705   0.009   8.287 -1.5996  0.8569  0.0448
 4659TIP3   OH235611   4.843   3.821   1.558  0.7814 -0.0704  0.2605
 4659TIP3    H135612   4.764   3.771   1.581 -0.1722  0.7743 -1.0479
 4659TIP3    H235613   4.899   3.757   1.514  0.4978 -0.4989  0.5123
 4660TIP3   OH235614   4.273   5.393   3.269  0.0338 -0.0390  0.4577
 4660TIP3    H135615   4.368   5.391   3.256  0.0649  0.4675  0.6104
 4660TIP3    H235616   4.252   5.308   3.307  0.2129 -0.7833 -1.0161
 4661TIP3   OH235617   4.422   1.431   0.753 -0.2637 -0.3682 -1.0078
 4661TIP3    H135618   4.353   1.497   0.756 -0.8224 -0.7350 -3.5777
 4661TIP3    H235619   4.499   1.479   0.723 -0.6068 -0.7543 -2.6218
 4662TIP3   OH235620   3.416   3.344   2.968  0.2871 -0.6435 -0.1124
 4662TIP3    H135621   3.363   3.403   2.915 -0.8306 -1.1887  0.3815
 4662TIP3    H235622   3.506   3.359   2.938 -0.2175 -0.2451 -1.4709
 4663TIP3   OH235623   2.270   2.684   0.206  0.6008 -0.8595  0.5809
 4663TIP3    H135624   2.291   2.773   0.234  2.0028 -1.3124  1.0498
 4663TIP3    H235625   2.278   2.686   0.111  2.6300 -0.9204  0.6966
 4664TIP3   OH235626   4.273   2.804   7.694 -0.4307 -0.2554 -0.2077
 4664TIP3    H135627   4.256   2.741   7.625  0.5510 -1.3176  0.4784
 4664TIP3    H235628   4.224   2.772   7.769  1.4598 -1.2591  0.6731
 4665TIP3   OH235629   0.262   2.965   0.924  0.2037 -0.6128 -0.0149
 4665TIP3    H135630   0.354   2.940   0.929  0.3040 -0.2461 -0.0054
 4665TIP3    H235631   0.262   3.060   0.937 -0.2314 -0.6954  0.6632
 4666TIP3   OH235632   4.261   3.051   8.090 -0.0613 -0.3272  0.2271
 4666TIP3    H135633   4.264   3.145   8.071  0.4330 -0.6343 -1.3495
 4666TIP3    H235634   4.353   3.026   8.100 -0.2614 -0.2991  2.6716
 4667TIP3   OH235635   4.252   6.345   3.493 -0.5004 -0.2151  0.2654
 4667TIP3    H135636   4.170   6.375   3.453  0.1937  1.1551 -0.1778
 4667TIP3    H235637   4.310   6.421   3.490  0.3989 -0.7907  1.6783
 4668TIP3   OH235638   4.845   1.623   0.279  0.1535 -0.4822 -0.4339
 4668TIP3    H135639   4.892   1.700   0.310 -1.1041  0.3535 -0.5206
 4668TIP3    H235640   4.896   1.549   0.311  0.6015  0.3813  0.9412
 4669TIP3   OH235641   0.668   1.492   3.099 -0.2085 -0.0159 -0.0647
 4669TIP3    H135642   0.675   1.414   3.153  0.6279 -0.3073 -0.5684
 4669TIP3    H235643   0.592   1.477   3.044  0.5058 -0.9193 -0.8371
 4670TIP3   OH235644   1.658   5.336   8.415  0.0542  0.1951  0.1251
 4670TIP3    H135645   1.714   5.331   8.337 -1.9404  0.2664 -1.4098
 4670TIP3    H235646   1.614   5.251   8.418 -0.6135  0.5476  0.5648
 4671TIP3   OH235647   4.803   3.299   2.611  0.2536 -0.4485  0.1035
 4671TIP3    H135648   4.869   3.357   2.650  1.5439 -1.7022 -0.1356
 4671TIP3    H235649   4.753   3.356   2.552  0.4656  0.7402  1.0391
 4672TIP3   OH235650   3.807   4.003   1.991 -0.5356  0.0532 -0.7792
 4672TIP3    H135651   3.721   3.963   2.000 -0.4164 -0.5172 -1.9787
 4672TIP3    H235652   3.797   4.065   1.918 -0.1984  0.7590 -0.2377
 4673TIP3   OH235653   3.978   5.444   2.509 -0.5039  0.0409 -0.2363
 4673TIP3    H135654   3.891   5.482   2.497 -0.7953 -0.3284  0.6543
 4673TIP3    H235655   3.964   5.350   2.504 -0.0879 -0.0117 -0.4808
 4674TIP3   OH235656   6.084   0.935   1.226 -0.2016  0.6047  0.5426
 4674TIP3    H135657   6.007   0.896   1.267  1.9691 -2.2468  2.3241
 4674TIP3    H235658   6.114   1.001   1.289  1.2174 -1.4080  2.0805
 4675TIP3   OH235659   0.160   5.440   1.472  0.2565 -0.0288 -0.0222
 4675TIP3    H135660   0.214   5.449   1.551 -0.9922  0.7160  0.7729
 4675TIP3    H235661   0.135   5.529   1.449 -0.9167 -0.3736 -0.1544
 4676TIP3   OH235662   6.534   0.087   2.320 -0.3696  0.2353 -0.0463
 4676TIP3    H135663   6.561   0.133   2.400  0.9598 -0.7218  0.0963
 4676TIP3    H235664   6.600   0.112   2.255 -0.2596 -0.6130 -0.2655
 4677TIP3   OH235665   5.874   0.436   1.070  0.4594 -0.1104  0.0045
 4677TIP3    H135666   5.872   0.526   1.102  0.3630 -0.3746  0.7598
 4677TIP3    H235667   5.848   0.443   0.978 -2.5344  0.3342  0.7708
 4678TIP3   OH235668   3.994   1.810   2.175  0.2767 -0.1740 -0.0126
 4678TIP3    H135669   3.919   1.795   2.118 -0.2365 -0.2635  0.6665
 4678TIP3    H235670   4.020   1.901   2.157  0.7877 -0.5252 -1.1309
 4679TIP3   OH235671   6.371   6.819   1.092  0.4994 -0.1190  0.2752
 4679TIP3    H135672   6.395   6.894   1.147  0.4057  1.0955 -1.2964
 4679TIP3    H235673   6.312   6.767   1.148 -0.8044  1.8478  0.8474
 4680TIP3   OH235674   0.143   2.575   3.330 -1.0398  0.4955  0.1137
 4680TIP3    H135675   0.138   2.605   3.239 -0.2714  1.2153  0.2972
 4680TIP3    H235676   0.116   2.651   3.382 -0.2695  0.4839  0.5380
 4681TIP3   OH235677   2.059   3.880   2.364 -0.2968  0.0193  0.3588
 4681TIP3    H135678   2.104   3.811   2.414 -1.5934 -0.9403  0.2632
 4681TIP3    H235679   1.968   3.850   2.359 -0.9926  1.9356  0.6420
 4682TIP3   OH235680   5.458   4.715   1.469 -0.0371  0.1252  0.0992
 4682TIP3    H135681   5.480   4.644   1.528 -1.4715 -0.2947  0.1678
 4682TIP3    H235682   5.425   4.672   1.390 -1.2764  0.7058  0.2836
 4683TIP3   OH235683   5.403   6.482   2.933 -0.5762 -0.6288  0.4123
 4683TIP3    H135684   5.420   6.517   3.020  1.0403  1.1817 -0.5515
 4683TIP3    H235685   5.455   6.401   2.929  1.2415  0.4809  0.4066
 4684TIP3   OH235686   6.388   3.498   2.389 -0.2620  0.1994 -0.4053
 4684TIP3    H135687   6.383   3.592   2.409  1.6789  0.8429 -2.5216
 4684TIP3    H235688   6.461   3.467   2.441  0.9451  0.5659 -1.7970
 4685TIP3   OH235689   1.134   1.361   2.363 -1.0197  0.0128 -0.3156
 4685TIP3    H135690   1.147   1.422   2.436 -1.0148  0.4076 -0.6456
 4685TIP3    H235691   1.043   1.376   2.336 -0.2000  2.0274 -2.3243
 4686TIP3   OH235692   1.991   2.461   8.366  0.4633  0.2321  0.0499
 4686TIP3    H135693   1.941   2.384   8.340 -2.2474  1.9611 -0.1290
 4686TIP3    H235694   1.969   2.528   8.302  0.4675  2.0067  1.8026
 4687TIP3   OH235695   3.224   1.546   7.811  0.5750  0.2252  0.4902
 4687TIP3    H135696   3.230   1.588   7.897 -1.6115  2.8108 -0.4765
 4687TIP3    H235697   3.132   1.553   7.786  0.9084 -1.4971 -1.6083
 4688TIP3   OH235698   3.122   2.760   8.098 -0.3386  0.2406  0.3135
 4688TIP3    H135699   3.044   2.809   8.071 -0.5665  0.0803  0.6707
 4688TIP3    H235700   3.186   2.778   8.030 -0.5450  0.7287  0.2425
 4689TIP3   OH235701   0.741   2.982   8.389  0.5082  0.2118 -0.2756
 4689TIP3    H135702   0.819   3.021   8.351  0.5771  0.1959 -0.1525
 4689TIP3    H235703   0.774   2.914   8.448  0.5424  1.7296  1.5785
 4690TIP3   OH235704   0.278   0.715   8.595  0.6737 -0.0387 -0.2103
 4690TIP3    H135705   0.244   0.678   8.514  1.0400 -1.0641  0.0934
 4690TIP3    H235706   0.279   0.642   8.657 -2.9781  1.3967  1.8547
 4691TIP3   OH235707   6.858   0.138   0.525 -0.1671 -0.2869  0.0123
 4691TIP3    H135708   6.876   0.220   0.570 -1.3612 -0.2959  0.5365
 4691TIP3    H235709   6.924   0.078   0.558 -0.2624  0.0392  0.8273
 4692TIP3   OH235710   2.769   5.871   8.554 -0.2463 -0.2795  0.0367
 4692TIP3    H135711   2.751   5.951   8.504 -0.2182 -0.3857 -0.1441
 4692TIP3    H235712   2.682   5.842   8.583 -0.3870 -0.8167 -0.8769
 4693TIP3   OH235713   1.192   2.837   8.450  0.2095  0.1170  0.0005
 4693TIP3    H135714   1.257   2.834   8.379 -2.2341  1.0950 -2.4649
 4693TIP3    H235715   1.200   2.924   8.488  0.9231 -0.0853  0.3182
 4694TIP3   OH235716   5.452   3.435   2.608  0.6024  0.3464  0.6409
 4694TIP3    H135717   5.461   3.373   2.535 -0.5131 -0.0563  0.8354
 4694TIP3    H235718   5.541   3.443   2.643  0.9116 -0.4948  0.0803
 4695TIP3   OH235719   5.634   2.434   0.696  0.1066 -0.3089  0.3219
 4695TIP3    H135720   5.625   2.480   0.780 -0.0158  0.0233  0.1276
 4695TIP3    H235721   5.708   2.477   0.654 -0.3771  0.1104 -0.1157
 4696TIP3   OH235722   3.507   4.811   7.947 -0.3967 -0.7345  0.1830
 4696TIP3    H135723   3.451   4.834   7.872 -1.0723 -1.7460  0.3619
 4696TIP3    H235724   3.473   4.865   8.019  0.9891  1.1153 -0.4618
 4697TIP3   OH235725   0.860   0.071   2.352 -0.2415 -0.3929  0.3663
 4697TIP3    H135726   0.842  -0.021   2.332  0.8736 -0.3119 -1.2440
 4697TIP3    H235727   0.790   0.119   2.308  0.7875 -0.3592 -1.3312
 4698TIP3   OH235728   4.104   1.721   8.043  0.7968 -0.0543 -0.4906
 4698TIP3    H135729   4.191   1.720   8.005  0.2479 -1.6077 -1.8455
 4698TIP3    H235730   4.047   1.751   7.972  0.3563  2.3388  0.7962
 4699TIP3   OH235731   4.831   0.283   2.836 -0.0519 -0.2543 -0.4407
 4699TIP3    H135732   4.767   0.218   2.865  0.2448 -0.9016 -1.2041
 4699TIP3    H235733   4.900   0.280   2.902 -2.3315  2.9913  2.4617
 4700TIP3   OH235734   4.198   6.803   8.027  0.3679  0.7329 -0.2934
 4700TIP3    H135735   4.132   6.735   8.012  1.3817 -0.0226 -1.6060
 4700TIP3    H235736   4.250   6.770   8.100 -1.1865  1.7635  1.3734
 4701TIP3   OH235737   4.635   3.063   0.135  0.0207 -0.2969  0.1371
 4701TIP3    H135738   4.544   3.061   0.105 -0.0349  1.1138  0.1288
 4701TIP3    H235739   4.636   3.006   0.212 -1.2483  0.8362  1.0532
 4702TIP3   OH235740   6.511   5.375   0.157  0.9382  0.1413  0.3551
 4702TIP3    H135741   6.515   5.352   0.064 -0.0371  2.6621 -0.3770
 4702TIP3    H235742   6.418   5.371   0.178  1.2515 -1.6763  1.6461
 4703TIP3   OH235743   1.449   0.408   2.870 -0.4373 -0.1943  0.7795
 4703TIP3    H135744   1.537   0.401   2.908 -0.4690  2.5824  1.6279
 4703TIP3    H235745   1.390   0.394   2.943 -0.5933  0.8867  0.8830
 4704TIP3   OH235746   3.013   0.687   1.354 -0.0385 -0.4725  0.0729
 4704TIP3    H135747   3.078   0.728   1.297 -0.8365 -1.0134 -1.2649
 4704TIP3    H235748   2.940   0.749   1.354 -0.1338 -0.5834  0.3285
 4705TIP3   OH235749   0.429   6.180   0.109 -0.3565 -0.0188  0.3104
 4705TIP3    H135750   0.377   6.188   0.029  0.8703  2.2247 -0.3494
 4705TIP3    H235751   0.455   6.088   0.112 -1.7955 -0.5029 -0.9667
 4706TIP3   OH235752   2.780   5.182   0.092 -0.6578 -0.1460  0.8397
 4706TIP3    H135753   2.818   5.122   0.156 -0.8517  0.7281  1.7984
 4706TIP3    H235754   2.740   5.251   0.145 -0.5508  0.7611 -0.2393
 4707TIP3   OH235755   3.707   6.266   2.685 -0.0653 -0.1362  0.0211
 4707TIP3    H135756   3.773   6.331   2.662  0.9588 -0.7866  1.0379
 4707TIP3    H235757   3.741   6.222   2.763 -1.0085 -1.4932 -0.2783
 4708TIP3   OH235758   6.716   5.296   1.997 -0.1762  0.1191 -0.2475
 4708TIP3    H135759   6.729   5.203   1.976 -0.6442  0.3727 -1.7864
 4708TIP3    H235760   6.792   5.340   1.959 -0.4903  0.4850 -0.4535
 4709TIP3   OH235761   6.179   6.090   1.605 -0.0127  0.1417  0.0428
 4709TIP3    H135762   6.147   6.086   1.515 -1.5657  0.2309  0.5630
 4709TIP3    H235763   6.103   6.066   1.659  0.5806  1.1343  1.3856
 4710TIP3   OH235764   6.074   4.250   1.580 -0.6867 -0.2687  0.5303
 4710TIP3    H135765   6.113   4.253   1.668 -1.1020 -1.7538  0.7904
 4710TIP3    H235766   6.081   4.158   1.554 -1.7315 -0.0805 -0.4634
 4711TIP3   OH235767   6.217   2.101   2.551 -0.9165  0.0857  0.3032
 4711TIP3    H135768   6.257   2.173   2.599  0.4055 -1.4745  1.6718
 4711TIP3    H235769   6.269   2.024   2.575  0.2663 -0.7744 -4.1622
 4712TIP3   OH235770   0.677   1.520   0.442  0.9551 -0.0333 -0.3935
 4712TIP3    H135771   0.655   1.532   0.349  1.4766  2.3291 -0.2777
 4712TIP3    H235772   0.772   1.507   0.443  0.9139 -0.3260 -0.2023
 4713TIP3   OH235773   1.802   0.550   2.888  0.7573  0.0257 -0.5520
 4713TIP3    H135774   1.882   0.539   2.940  0.3753  1.4758  0.4125
 4713TIP3    H235775   1.831   0.542   2.797  2.0013  0.5332 -0.2221
 4714TIP3   OH235776   3.055   4.858   7.667 -0.0368 -0.2616  0.2403
 4714TIP3    H135777   3.029   4.782   7.719 -0.0719  0.3375  1.1301
 4714TIP3    H235778   3.135   4.889   7.709  1.3580 -1.2077 -1.5764
 4715TIP3   OH235779   5.492   3.439   8.080 -0.1901  0.3512  0.5596
 4715TIP3    H135780   5.523   3.388   8.155  0.2707  1.8198  1.4181
 4715TIP3    H235781   5.473   3.374   8.013  3.0327 -0.8181  0.5982
 4716TIP3   OH235782   4.343   2.921   0.816 -0.4716  0.5378 -0.2439
 4716TIP3    H135783   4.329   3.003   0.864 -0.6498  1.1628 -1.3358
 4716TIP3    H235784   4.301   2.854   0.870 -1.3767  1.3423  0.0735
 4717TIP3   OH235785   4.358   5.498   0.058  0.3762 -0.2634  0.0653
 4717TIP3    H135786   4.295   5.427   0.069 -1.1130  0.9528 -0.3332
 4717TIP3    H235787   4.325   5.549  -0.016  2.8179 -0.5780 -1.3743
 4718TIP3   OH235788   3.418   6.677   2.488 -0.6478 -0.9170  0.5600
 4718TIP3    H135789   3.431   6.610   2.554 -0.3335  1.1960  2.7822
 4718TIP3    H235790   3.501   6.724   2.484 -0.5829 -1.1029 -1.5577
 4719TIP3   OH235791   5.079   4.455   2.621 -0.4558 -0.0142  0.2054
 4719TIP3    H135792   5.150   4.400   2.656 -1.3765 -0.7844  0.9462
 4719TIP3    H235793   5.052   4.411   2.541 -0.5772 -0.1395  0.3133
 4720TIP3   OH235794   5.451   0.264   0.966  0.1439  0.1120  0.3685
 4720TIP3    H135795   5.532   0.241   1.011  0.0186  0.5864  0.8342
 4720TIP3    H235796   5.450   0.360   0.964 -0.4549  0.1125  0.4546
 4721TIP3   OH235797   2.520   5.732   8.371  0.0587  0.4103 -0.7274
 4721TIP3    H135798   2.518   5.745   8.466 -0.4544  0.2949 -0.7210
 4721TIP3    H235799   2.568   5.649   8.359  0.2120  0.4773 -0.5753
 4722TIP3   OH235800   2.950   6.674   8.382 -0.8360  0.4316 -0.0731
 4722TIP3    H135801   2.970   6.763   8.353  1.1842  0.2027  0.4725
 4722TIP3    H235802   2.945   6.622   8.302 -0.2749  0.7177 -0.2934
 4723TIP3   OH235803   4.640   3.658   1.627  0.3124  0.2206  0.8194
 4723TIP3    H135804   4.651   3.572   1.587 -0.4149  0.9460 -1.0195
 4723TIP3    H235805   4.684   3.650   1.712 -0.9653 -2.4119  1.3583
 4724TIP3   OH235806   3.269   5.911   8.607 -0.1137 -0.0729 -0.2101
 4724TIP3    H135807   3.284   5.976   8.675 -0.3672 -0.5621  0.3290
 4724TIP3    H235808   3.174   5.899   8.606  0.0328 -1.7613  0.9950
 4725TIP3   OH235809   1.783   3.625   0.550 -0.1057  0.1176 -0.0409
 4725TIP3    H135810   1.704   3.594   0.505  0.8302  0.1779 -1.8076
 4725TIP3    H235811   1.851   3.564   0.524  0.5246  0.2853  1.1587
 4726TIP3   OH235812   2.446   1.884   1.679 -0.4193 -0.0461 -0.2570
 4726TIP3    H135813   2.536   1.903   1.706 -0.0997  1.8630 -2.3880
 4726TIP3    H235814   2.398   1.965   1.699 -1.2469 -0.3798 -0.8642
 4727TIP3   OH235815   3.300   0.235   1.977 -0.1711  0.0036  0.3130
 4727TIP3    H135816   3.285   0.241   1.883 -1.4995 -0.4132  0.4835
 4727TIP3    H235817   3.293   0.142   1.997 -1.0877  0.2064  1.0018
 4728TIP3   OH235818   5.585   6.284   0.039  0.0544 -0.1151 -0.3925
 4728TIP3    H135819   5.659   6.260  -0.016  1.5410  1.3891  0.8437
 4728TIP3    H235820   5.524   6.329  -0.020  0.4952 -0.6350 -1.2608
 4729TIP3   OH235821   5.055   6.588   7.807  0.0186 -0.0392  0.4228
 4729TIP3    H135822   4.968   6.628   7.809  0.0291  0.0549 -0.5792
 4729TIP3    H235823   5.075   6.569   7.899 -1.2182 -0.4106  0.6211
 4730TIP3   OH235824   4.925   4.735   0.249 -0.2573  0.2227  0.1551
 4730TIP3    H135825   4.941   4.779   0.332 -1.2180  5.4017 -1.9487
 4730TIP3    H235826   4.990   4.665   0.245  1.6104  1.4523  4.0681
 4731TIP3   OH235827   0.351   2.179   2.734 -0.1881 -0.4152 -0.3935
 4731TIP3    H135828   0.329   2.158   2.643 -1.7248 -1.6165  0.2108
 4731TIP3    H235829   0.396   2.101   2.766  0.5648  0.0977 -0.1707
 4732TIP3   OH235830   3.839   5.712   7.933 -0.7489 -0.3420 -0.1753
 4732TIP3    H135831   3.932   5.692   7.935 -1.1717 -2.6079 -0.1858
 4732TIP3    H235832   3.834   5.804   7.908  1.4780 -0.0991  0.1411
 4733TIP3   OH235833   2.910   4.980   3.166 -0.3006  0.4301  0.1747
 4733TIP3    H135834   2.950   4.912   3.220  1.7792  2.5469  1.5068
 4733TIP3    H235835   2.821   4.949   3.151  0.6186 -2.6876  0.4155
 4734TIP3   OH235836   4.350   2.979   1.837 -0.0547 -0.4468 -0.2531
 4734TIP3    H135837   4.385   3.027   1.762 -0.9924 -0.3524 -0.6414
 4734TIP3    H235838   4.303   3.045   1.888 -1.3994 -0.9313 -0.8189
 4735TIP3   OH235839   2.771   4.928   2.887  0.4470  0.3384 -0.4743
 4735TIP3    H135840   2.812   4.848   2.854  3.8867  1.3097  1.0108
 4735TIP3    H235841   2.738   4.904   2.973  1.7851  0.5477  0.1160
 4736TIP3   OH235842   3.014   5.923   0.072  0.1647 -0.1995  0.3205
 4736TIP3    H135843   2.990   5.991   0.135 -1.5934 -0.1436 -0.3496
 4736TIP3    H235844   2.931   5.876   0.054  0.4455  0.1718 -2.3802
 4737TIP3   OH235845   4.990   1.880   2.067  0.4912 -0.5129 -0.2926
 4737TIP3    H135846   5.035   1.814   2.120  1.0175  1.0273  1.2741
 4737TIP3    H235847   4.923   1.831   2.020  1.9478 -2.4286 -0.5142
 4738TIP3   OH235848   1.741   0.607   2.378  1.0075  0.7480  0.9083
 4738TIP3    H135849   1.755   0.538   2.313 -0.9748 -0.4216  1.6392
 4738TIP3    H235850   1.725   0.686   2.325 -2.5858 -0.5421 -0.2568
 4739TIP3   OH235851   5.658   6.809   0.817  0.3827 -0.4811 -0.3171
 4739TIP3    H135852   5.702   6.757   0.885  1.9226  0.4706 -0.5220
 4739TIP3    H235853   5.575   6.765   0.802 -0.5140 -0.1546  2.9264
 4740TIP3   OH235854   6.806   5.972   8.602  0.0218 -0.2800 -0.3921
 4740TIP3    H135855   6.845   6.046   8.556 -2.2895 -0.3680 -2.7518
 4740TIP3    H235856   6.734   6.011   8.653 -0.9141 -0.7654 -1.2884
 4741TIP3   OH235857   3.200   4.627   2.021  0.2165  0.1197 -0.0581
 4741TIP3    H135858   3.115   4.583   2.016  0.7881 -1.2036  1.0596
 4741TIP3    H235859   3.202   4.664   2.109  0.5504  0.6706 -0.2979
 4742TIP3   OH235860   1.819   3.317   1.982 -0.6075 -0.4234 -0.3731
 4742TIP3    H135861   1.871   3.294   2.059  1.3246 -0.7314 -1.7158
 4742TIP3    H235862   1.847   3.256   1.914 -3.0912 -0.9033 -1.0689
 4743TIP3   OH235863   5.953   5.792   1.295 -0.0872  0.2360  0.0277
 4743TIP3    H135864   6.016   5.723   1.277  0.9613  0.9638  0.7869
 4743TIP3    H235865   5.874   5.746   1.322 -0.2347 -0.7174 -1.8824
 4744TIP3   OH235866   2.644   2.092   8.234 -0.4188  0.3349  0.7747
 4744TIP3    H135867   2.579   2.043   8.184  0.7954 -1.6657  1.0314
 4744TIP3    H235868   2.704   2.126   8.168 -0.2352 -0.1425  0.6868
 4745TIP3   OH235869   4.261   2.055   1.865  0.0069 -0.0386  0.1766
 4745TIP3    H135870   4.256   1.959   1.857 -1.5695  0.0582 -0.2675
 4745TIP3    H235871   4.173   2.085   1.844  0.4339  1.5110  0.5292
 4746TIP3   OH235872   6.077   6.038   2.248 -0.3744  0.3071 -0.1634
 4746TIP3    H135873   6.038   6.116   2.210 -0.6730  0.6942  0.8876
 4746TIP3    H235874   6.171   6.053   2.241 -0.4068  0.0687 -1.3103
 4747TIP3   OH235875   5.273   1.215   8.199 -0.5926 -0.1509  0.2043
 4747TIP3    H135876   5.346   1.241   8.142  0.0646 -1.0235  0.6217
 4747TIP3    H235877   5.313   1.207   8.286 -1.4383  0.4808  0.6593
 4748TIP3   OH235878   4.912   0.324   8.415 -0.2071  0.0049 -0.1689
 4748TIP3    H135879   4.872   0.381   8.350 -0.0932 -0.2222 -0.4386
 4748TIP3    H235880   4.876   0.237   8.396 -1.0805  0.1298  0.8054
 4749TIP3   OH235881   4.592   1.518   7.592  0.1110 -1.0823 -0.6239
 4749TIP3    H135882   4.547   1.592   7.552  0.4668  0.2769  1.3415
 4749TIP3    H235883   4.525   1.473   7.642  0.6548  0.5864  1.8014
 4750TIP3   OH235884   2.505   2.169   8.553  0.3224  0.5436 -0.3704
 4750TIP3    H135885   2.510   2.225   8.631 -1.9265 -0.3735  0.5238
 4750TIP3    H235886   2.573   2.103   8.567  0.6830  1.0388  0.2835
 4751TIP3   OH235887   5.162   5.306   0.938  0.1239  0.1922  0.8749
 4751TIP3    H135888   5.079   5.348   0.961 -1.4926 -2.7948  0.9798
 4751TIP3    H235889   5.182   5.250   1.013  1.2587 -0.5326  0.0554
 4752TIP3   OH235890   3.197   2.697   1.108 -0.4339  0.5488  0.4620
 4752TIP3    H135891   3.274   2.752   1.096  0.9402 -1.2446  0.6607
 4752TIP3    H235892   3.163   2.722   1.194  1.8914 -0.8271  1.8995
 4753TIP3   OH235893   5.369   3.564   1.425 -0.2555 -0.2369  0.2843
 4753TIP3    H135894   5.371   3.492   1.488 -1.3841 -1.1012 -0.6188
 4753TIP3    H235895   5.292   3.616   1.450 -1.1083 -0.9568 -0.7253
 4754TIP3   OH235896   0.214   1.914   7.921 -0.5068  0.0468  0.2655
 4754TIP3    H135897   0.286   1.963   7.961 -0.2980 -0.2506  0.2602
 4754TIP3    H235898   0.255   1.866   7.850 -0.9070  0.7051 -0.4233
 4755TIP3   OH235899   1.330   0.848   1.467 -0.8775  0.0292 -0.1699
 4755TIP3    H135900   1.254   0.793   1.450  0.6853 -1.8569 -1.5112
 4755TIP3    H235901   1.360   0.822   1.554 -1.8352  0.9551  0.4712
 4756TIP3   OH235902   2.833   3.824   8.453  0.5715 -0.1579 -0.0704
 4756TIP3    H135903   2.829   3.730   8.433  0.8158 -0.0675 -0.5712
 4756TIP3    H235904   2.792   3.832   8.539  0.6471 -0.7405  0.0291
 4757TIP3   OH235905   4.941   1.800   0.460 -0.0475  0.0325  0.4310
 4757TIP3    H135906   4.897   1.867   0.512 -2.3556  0.7119 -2.1524
 4757TIP3    H235907   5.035   1.820   0.469 -0.5700  2.4151  1.2446
 4758TIP3   OH235908   5.554   4.141   0.369  0.0027 -0.1365 -0.4978
 4758TIP3    H135909   5.558   4.146   0.465  0.1462  1.1963 -0.5542
 4758TIP3    H235910   5.554   4.048   0.350 -0.9853 -0.4416  0.8460
 4759TIP3   OH235911   5.597   3.372   2.954 -0.2174  0.0087 -0.3529
 4759TIP3    H135912   5.518   3.368   3.008  0.8161 -0.4731  1.2021
 4759TIP3    H235913   5.578   3.315   2.880 -0.9116 -1.0104  0.5801
 4760TIP3   OH235914   3.412   6.076   8.275 -0.1786  0.2289 -0.2508
 4760TIP3    H135915   3.486   6.064   8.215  0.6848 -0.2199  0.8845
 4760TIP3    H235916   3.429   6.160   8.318  0.4204 -0.5329  1.0323
 4761TIP3   OH235917   6.248   1.756   8.281 -0.0483 -1.0279  0.8216
 4761TIP3    H135918   6.236   1.844   8.246  0.5815 -1.0958  0.4230
 4761TIP3    H235919   6.169   1.740   8.332 -1.7860 -1.5473 -1.8371
 4762TIP3   OH235920   1.791   1.325   0.810 -0.5337 -0.1344  0.3589
 4762TIP3    H135921   1.771   1.232   0.804  3.1087 -1.1457  1.4139
 4762TIP3    H235922   1.748   1.354   0.890 -2.7788 -0.4721 -0.6403
 4763TIP3   OH235923   2.683   1.977   1.785  0.3300  0.0250 -0.8403
 4763TIP3    H135924   2.754   1.946   1.841 -1.0110  1.1600  1.6699
 4763TIP3    H235925   2.685   2.073   1.794 -1.2840  0.1036 -0.9184
 4764TIP3   OH235926   5.297   2.121   0.676 -0.1570  0.0131  0.0875
 4764TIP3    H135927   5.209   2.132   0.712 -0.0044 -0.0261  0.4807
 4764TIP3    H235928   5.355   2.129   0.752  0.1480 -0.4520 -0.0914
 4765TIP3   OH235929   2.024   2.929   0.221 -0.3063  0.2392  0.4802
 4765TIP3    H135930   2.021   2.940   0.126  1.6326 -1.7679  0.0930
 4765TIP3    H235931   2.110   2.962   0.246 -0.6247  0.3447  1.4743
 4766TIP3   OH235932   4.286   1.466   7.952  0.2897 -1.4670  0.8602
 4766TIP3    H135933   4.289   1.506   8.039  1.2097 -1.8962  1.0359
 4766TIP3    H235934   4.210   1.506   7.910  0.8499  0.0500  1.2217
 4767TIP3   OH235935   6.150   4.184   8.581 -0.5856 -0.2252  0.0144
 4767TIP3    H135936   6.223   4.236   8.546 -2.0648  1.1576 -1.1635
 4767TIP3    H235937   6.141   4.111   8.519 -1.4844  0.7383 -1.0169
 4768TIP3   OH235938   4.315   4.265   3.218 -0.6433 -0.1292 -0.1023
 4768TIP3    H135939   4.285   4.318   3.292 -0.3153 -0.8339  0.5432
 4768TIP3    H235940   4.251   4.194   3.213 -1.5954  0.7773 -1.5272
 4769TIP3   OH235941   1.020   6.386   0.906 -0.0188  0.1171 -0.9423
 4769TIP3    H135942   1.066   6.352   0.983 -0.0582 -0.4265 -1.1509
 4769TIP3    H235943   0.963   6.313   0.879  0.7547 -0.0818 -2.0984
 4770TIP3   OH235944   5.406   6.751   7.237  0.1571  0.2441  0.1047
 4770TIP3    H135945   5.485   6.787   7.277  0.4721  1.1421 -1.2628
 4770TIP3    H235946   5.336   6.807   7.270  0.1664 -0.1367  0.7902
 4771TIP3   OH235947   3.869   5.168   2.756 -0.4105 -0.0315 -0.5267
 4771TIP3    H135948   3.895   5.242   2.811 -0.2500  0.4176 -1.2004
 4771TIP3    H235949   3.923   5.096   2.787  1.3096  0.7622 -1.5630
 4772TIP3   OH235950   1.556   4.455   2.829  0.2475  0.2923 -0.2403
 4772TIP3    H135951   1.551   4.477   2.736  1.6889 -1.3968 -0.7734
 4772TIP3    H235952   1.624   4.388   2.834 -0.8426 -0.7550  1.8340
 4773TIP3   OH235953   6.292   1.354   0.685 -0.6480 -0.5556  0.6312
 4773TIP3    H135954   6.306   1.374   0.592  1.0634 -0.6004  0.8459
 4773TIP3    H235955   6.202   1.381   0.702  0.0525  2.7315 -0.1996
 4774TIP3   OH235956   0.635   1.815   2.827 -0.0591  0.0995  0.6842
 4774TIP3    H135957   0.701   1.819   2.757 -0.1062  1.1736  0.6853
 4774TIP3    H235958   0.683   1.785   2.904  0.4648  0.9344  0.7008
 4775TIP3   OH235959   0.371   6.457   2.737 -0.0747  0.7451 -0.6301
 4775TIP3    H135960   0.368   6.456   2.833  1.7677 -0.3008 -0.5308
 4775TIP3    H235961   0.422   6.535   2.716  0.3672  0.4355 -0.7095
 4776TIP3   OH235962   1.941   4.713   1.814  0.3970 -0.4060 -0.5461
 4776TIP3    H135963   1.942   4.701   1.909 -0.8962  1.2472 -0.2753
 4776TIP3    H235964   1.858   4.757   1.797  1.9774  2.2228 -2.0530
 4777TIP3   OH235965   1.472   4.103   7.411 -0.1322  0.0807  0.5800
 4777TIP3    H135966   1.403   4.056   7.457 -0.0763  0.4191  1.0073
 4777TIP3    H235967   1.554   4.067   7.446 -0.0487 -1.2522 -0.8403
 4778TIP3   OH235968   4.370   5.205   7.815  0.6280 -0.0716  0.1057
 4778TIP3    H135969   4.334   5.180   7.730  1.3493  0.2992 -0.3273
 4778TIP3    H235970   4.457   5.241   7.794  0.3396  1.1421  0.8726
 4779TIP3   OH235971   3.518   6.845   1.672  0.0750 -0.2088  0.9227
 4779TIP3    H135972   3.493   6.862   1.763 -0.3322  2.7641  0.3703
 4779TIP3    H235973   3.436   6.822   1.628 -0.5174  2.2629  0.5918
 4780TIP3   OH235974   1.258   0.747   1.989 -0.1861 -0.0336  0.8117
 4780TIP3    H135975   1.199   0.717   2.059 -0.2810 -0.2842  0.6239
 4780TIP3    H235976   1.224   0.833   1.964 -0.8529 -0.4425  0.2723
 4781TIP3   OH235977   0.548   3.652   7.972 -0.0224 -0.2239  0.1945
 4781TIP3    H135978   0.632   3.688   7.998  0.1593  0.6256 -1.4814
 4781TIP3    H235979   0.549   3.562   8.006  2.1013 -0.6584 -0.8630
 4782TIP3   OH235980   6.478   0.451   7.878  0.4817 -0.4935  0.7580
 4782TIP3    H135981   6.545   0.445   7.809  0.5972 -1.2788  0.9352
 4782TIP3    H235982   6.401   0.408   7.840  0.3634 -0.4092  0.9025
 4783TIP3   OH235983   1.857   0.098   0.491 -0.6438 -0.3313  0.2627
 4783TIP3    H135984   1.867   0.177   0.545  1.4987 -0.5454  0.2455
 4783TIP3    H235985   1.860   0.130   0.401  0.9755 -0.4472  0.2401
 4784TIP3   OH235986   3.808   5.304   1.654 -0.2673  0.6430 -0.1060
 4784TIP3    H135987   3.901   5.316   1.675 -0.3918  1.2352  0.1505
 4784TIP3    H235988   3.764   5.372   1.705 -1.1067 -1.2773  1.8844
 4785TIP3   OH235989   1.068   1.926   2.521 -0.0767 -0.0434 -0.8619
 4785TIP3    H135990   1.120   1.945   2.599 -2.3270 -1.9774  1.2882
 4785TIP3    H235991   1.116   1.968   2.450  2.9546  0.4972  1.2848
 4786TIP3   OH235992   3.502   1.134   2.298  0.0668 -0.3224 -0.4643
 4786TIP3    H135993   3.575   1.111   2.355 -0.1489  1.2386  0.5088
 4786TIP3    H235994   3.520   1.089   2.216  0.3008 -2.8147  0.8420
 4787TIP3   OH235995   4.055   6.596   0.120  0.6783 -0.5671 -0.2402
 4787TIP3    H135996   3.972   6.640   0.137  0.3642 -1.5506  0.9428
 4787TIP3    H235997   4.105   6.658   0.068 -0.1296  0.7605  0.5163
 4788TIP3   OH235998   1.116   3.761   0.693 -0.3179  0.5474  0.0707
 4788TIP3    H135999   1.039   3.757   0.637 -0.5079  0.1697  0.3557
 4788TIP3    H236000   1.121   3.853   0.720 -0.9542  0.4820  0.4368
 4789TIP3   OH236001   2.777   3.712   0.833  0.0222  0.1601  0.5214
 4789TIP3    H136002   2.763   3.617   0.828  1.7958 -0.0732 -1.2588
 4789TIP3    H236003   2.822   3.725   0.916 -0.6303 -0.4807  0.9886
 4790TIP3   OH236004   1.511   6.794   7.954 -0.3218 -0.3030  0.1744
 4790TIP3    H136005   1.466   6.732   7.896  0.6778 -0.2288 -0.7243
 4790TIP3    H236006   1.553   6.856   7.894 -0.8488  0.9289  1.0427
 4791TIP3   OH236007   6.585   5.530   0.627 -0.2102  0.2089  0.0216
 4791TIP3    H136008   6.643   5.603   0.651 -1.3506  1.1749 -0.0574
 4791TIP3    H236009   6.519   5.570   0.570 -0.0113 -1.1940 -1.2621
 4792TIP3   OH236010   0.984   0.017   0.615  0.3531 -0.1246 -0.0904
 4792TIP3    H136011   0.971   0.029   0.709  1.7106  1.9585 -0.0980
 4792TIP3    H236012   1.069  -0.026   0.608  0.2609 -0.2639 -0.3684
 4793TIP3   OH236013   1.119   3.130   3.160  0.8530  0.6909  0.0096
 4793TIP3    H136014   1.056   3.063   3.188  0.9755  0.1027 -1.0907
 4793TIP3    H236015   1.157   3.161   3.242  1.5918 -1.3610  0.5268
 4794TIP3   OH236016   0.703   4.249   2.762  0.5369 -0.3105  0.8639
 4794TIP3    H136017   0.731   4.338   2.739 -0.4708  0.0472  0.9277
 4794TIP3    H236018   0.763   4.192   2.715  1.8966  0.3855  1.6898
 4795TIP3   OH236019   4.001   1.407   1.968 -0.0562 -0.1374 -0.4382
 4795TIP3    H136020   4.037   1.440   2.050  0.3020  0.3799 -0.7985
 4795TIP3    H236021   3.975   1.486   1.919  0.4827 -0.3868 -1.1555
 4796TIP3   OH236022   6.223   6.345   0.551  0.3178 -0.5682 -0.1284
 4796TIP3    H136023   6.165   6.381   0.483 -0.8255 -0.7322  0.7212
 4796TIP3    H236024   6.208   6.251   0.548  0.5554 -0.6139  0.0820
 4797TIP3   OH236025   0.979   4.564   2.366 -0.3821  0.2063 -0.6969
 4797TIP3    H136026   1.025   4.485   2.337 -0.5811 -0.0447 -0.3376
 4797TIP3    H236027   0.909   4.531   2.422  0.5053  0.7255  0.7702
 4798TIP3   OH236028   0.670   5.492   3.899 -0.0824 -0.6420 -0.1913
 4798TIP3    H136029   0.693   5.402   3.924 -1.0317 -0.6407  0.7527
 4798TIP3    H236030   0.599   5.481   3.836 -1.2572 -0.5363  1.0876
 4799TIP3   OH236031   6.165   0.173   8.334 -0.4127  0.0496 -0.4659
 4799TIP3    H136032   6.091   0.147   8.279 -0.1958 -3.0573  0.5032
 4799TIP3    H236033   6.126   0.190   8.420 -0.1400 -0.5673 -0.2163
 4800TIP3   OH236034   3.320   0.576   2.877 -0.6502  0.2183  0.0223
 4800TIP3    H136035   3.358   0.500   2.922 -0.3279 -0.1047 -0.7709
 4800TIP3    H236036   3.233   0.586   2.916  0.0284  0.6430  1.4937
 4801TIP3   OH236037   6.014   6.048   7.687 -0.0014 -0.8958 -0.5057
 4801TIP3    H136038   6.033   5.967   7.734 -1.4994  0.5313  2.9377
 4801TIP3    H236039   5.921   6.042   7.665  0.0919 -0.4667 -1.0455
 4802TIP3   OH236040   0.926   1.185   0.084 -0.0249 -0.0026 -0.7967
 4802TIP3    H136041   0.881   1.204   0.166 -0.1977  1.1417 -1.1458
 4802TIP3    H236042   0.865   1.130   0.035  0.9737 -2.6494  0.7172
 4803TIP3   OH236043   1.343   2.549   0.509  0.2353  0.2650 -0.3766
 4803TIP3    H136044   1.290   2.546   0.429 -1.9486  1.2727  0.9436
 4803TIP3    H236045   1.337   2.640   0.538  2.7565  0.4145 -0.1374
 4804TIP3   OH236046   6.116   5.308   0.699  0.3315 -0.3876  1.1175
 4804TIP3    H136047   6.147   5.347   0.617  0.7722 -2.0996  0.4241
 4804TIP3    H236048   6.033   5.352   0.717 -0.0980 -0.4160 -0.6185
 4805TIP3   OH236049   1.121   1.522   8.276  0.0826  0.6519  0.2459
 4805TIP3    H136050   1.078   1.472   8.206  0.8972  0.9168 -0.4606
 4805TIP3    H236051   1.188   1.574   8.231 -1.5965  3.4672  0.7335
 4806TIP3   OH236052   6.575   0.898   0.724 -0.8014  0.1842 -0.0171
 4806TIP3    H136053   6.574   0.993   0.735  1.7714  0.1087  1.5447
 4806TIP3    H236054   6.546   0.863   0.808  0.8388 -0.3784  0.3499
 4807TIP3   OH236055   6.781   3.546   0.776 -0.2872 -0.9748 -0.5728
 4807TIP3    H136056   6.804   3.592   0.857 -2.0967  2.5309 -1.8906
 4807TIP3    H236057   6.711   3.486   0.802 -1.0893  0.3527  0.4588
 4808TIP3   OH236058   6.407   5.660   0.836  0.2534 -0.3341 -0.2888
 4808TIP3    H136059   6.417   5.639   0.743  0.1805 -0.3331 -0.2965
 4808TIP3    H236060   6.479   5.721   0.854 -0.9405  1.3261 -0.8575
 4809TIP3   OH236061   5.804   2.692   7.753 -0.3008  0.1235  0.6378
 4809TIP3    H136062   5.896   2.717   7.758 -0.2637  0.0484  0.3633
 4809TIP3    H236063   5.803   2.614   7.697 -0.5938  0.4706  0.1533
 4810TIP3   OH236064   4.992   4.683   8.203  0.2602 -0.6751 -0.1932
 4810TIP3    H136065   4.922   4.629   8.240  0.7923 -1.0183  0.3378
 4810TIP3    H236066   5.027   4.630   8.132 -1.6711  0.5515 -2.1912
 4811TIP3   OH236067   6.148   6.826   0.515  0.0093  0.5319  0.5661
 4811TIP3    H136068   6.125   6.898   0.575 -0.3267 -0.9317  2.2881
 4811TIP3    H236069   6.164   6.751   0.573  1.0362 -0.6218 -1.1256
 4812TIP3   OH236070   2.722   0.385   2.789  0.0613  0.5451  1.1450
 4812TIP3    H136071   2.794   0.341   2.835 -0.5143 -0.4730  1.0914
 4812TIP3    H236072   2.656   0.400   2.856 -0.8258 -1.0443  0.6586
 4813TIP3   OH236073   0.934   0.212   8.208  0.0896 -0.4833 -0.0489
 4813TIP3    H136074   0.861   0.273   8.217  0.7150 -0.0212  3.0659
 4813TIP3    H236075   0.893   0.128   8.188 -1.0802  0.2311 -0.7424
 4814TIP3   OH236076   4.825   6.105   8.150  0.2689 -0.2565 -0.1176
 4814TIP3    H136077   4.782   6.190   8.160 -0.5111 -0.7125  0.5099
 4814TIP3    H236078   4.888   6.119   8.079  1.3179  1.2923  1.0463
 4815TIP3   OH236079   4.621   0.615   0.975  0.0754  0.1891 -0.2637
 4815TIP3    H136080   4.674   0.560   1.032  1.9712  1.5141 -0.6647
 4815TIP3    H236081   4.531   0.596   1.000  0.8016 -0.2161  2.2986
 4816TIP3   OH236082   1.604   5.406   8.070 -0.2378  0.5175 -0.4318
 4816TIP3    H136083   1.663   5.351   8.122 -1.3902 -0.4072 -0.0445
 4816TIP3    H236084   1.661   5.472   8.030  1.0278 -0.2684  0.0133
 4817TIP3   OH236085   6.251   4.305   1.799  0.1504  0.7291  0.3885
 4817TIP3    H136086   6.236   4.319   1.893 -0.6255  0.2479  0.3467
 4817TIP3    H236087   6.345   4.290   1.791  0.1785  0.4970  1.1234
 4818TIP3   OH236088   0.067   0.440   1.894 -0.2459 -0.5342  0.5157
 4818TIP3    H136089   0.154   0.471   1.870  1.1540 -3.7579  0.9899
 4818TIP3    H236090   0.022   0.427   1.810  0.9474 -1.9528  0.0606
 4819TIP3   OH236091   0.566   2.717   7.981 -0.2537  0.8748  0.1095
 4819TIP3    H136092   0.576   2.630   7.942 -0.1688  1.1910 -0.5975
 4819TIP3    H236093   0.636   2.723   8.046 -1.2653 -0.1993  1.3608
 4820TIP3   OH236094   1.615   1.657   0.183 -0.5227 -0.4474 -0.5632
 4820TIP3    H136095   1.685   1.708   0.143 -1.4643  0.2772 -1.3620
 4820TIP3    H236096   1.642   1.647   0.274 -0.3407  1.6290 -0.3228
 4821TIP3   OH236097   1.426   3.055   7.922  0.1276  0.1951 -0.1471
 4821TIP3    H136098   1.337   3.082   7.898  0.9496  1.9418 -1.4605
 4821TIP3    H236099   1.464   3.024   7.840 -0.1464 -3.5237  0.9270
 4822TIP3   OH236100   0.410   0.472   2.434 -0.0368  0.0701  0.5124
 4822TIP3    H136101   0.497   0.479   2.472  0.0534 -0.9441  0.5177
 4822TIP3    H236102   0.425   0.439   2.345 -0.3350  1.1402  0.0495
 4823TIP3   OH236103   2.425   2.988   2.270 -0.2451  0.2723 -0.1900
 4823TIP3    H136104   2.460   3.074   2.246 -0.4257 -0.0232 -1.5757
 4823TIP3    H236105   2.482   2.925   2.227 -1.1562 -0.2590 -0.6653
 4824TIP3   OH236106   4.885   5.815   0.320  0.9411 -0.5604  0.0643
 4824TIP3    H136107   4.920   5.726   0.318 -0.1959 -1.0886  1.4108
 4824TIP3    H236108   4.908   5.848   0.407  1.8083  0.6828 -0.6118
 4825TIP3   OH236109   2.923   3.338   1.053 -0.6439 -0.1173 -0.8836
 4825TIP3    H136110   2.956   3.427   1.068 -0.1268  0.3473 -4.1153
 4825TIP3    H236111   2.829   3.345   1.071 -0.4359  0.7932 -0.0485
 4826TIP3   OH236112   1.116   6.473   8.051 -0.5093 -0.1425  0.8616
 4826TIP3    H136113   1.181   6.431   8.106  0.0147  1.5851  1.6448
 4826TIP3    H236114   1.134   6.441   7.963  1.2084  0.0380  1.1099
 4827TIP3   OH236115   1.742   4.135   0.380 -0.1537  0.3542  0.5352
 4827TIP3    H136116   1.782   4.217   0.407  0.8489 -0.6287  2.2192
 4827TIP3    H236117   1.655   4.136   0.420 -0.7732  1.2372 -0.7542
 4828TIP3   OH236118   1.088   5.799   2.629  0.5098 -0.2469  0.5321
 4828TIP3    H136119   1.023   5.826   2.565 -0.5985 -0.0489  1.7049
 4828TIP3    H236120   1.104   5.706   2.610  1.8740  0.2997 -1.4005
 4829TIP3   OH236121   3.489   0.133   0.606  0.2377  0.4419  0.4828
 4829TIP3    H136122   3.469   0.084   0.526  1.1493  0.4311  0.2497
 4829TIP3    H236123   3.416   0.193   0.616 -0.2606 -0.0797  0.0578
 4830TIP3   OH236124   6.235   5.698   2.515  0.4611  0.6211  0.0228
 4830TIP3    H136125   6.267   5.656   2.435  1.3645  1.8385 -0.2892
 4830TIP3    H236126   6.165   5.756   2.485  0.7995  1.0767  0.0985
 4831TIP3   OH236127   2.800   0.912   0.891  0.4273 -0.3216 -0.3729
 4831TIP3    H136128   2.824   0.840   0.949  0.5089 -0.3305 -0.4171
 4831TIP3    H236129   2.705   0.922   0.903  0.5384  0.0931  0.2350
 4832TIP3   OH236130   3.960   2.644   2.513 -0.6854  0.1242 -0.4120
 4832TIP3    H136131   4.014   2.695   2.452 -0.7649  0.5085 -0.1717
 4832TIP3    H236132   4.015   2.570   2.538 -1.1010 -0.7260 -1.8839
 4833TIP3   OH236133   5.079   1.092   2.303  0.1444  0.0765 -0.6817
 4833TIP3    H136134   5.118   1.153   2.241  0.5890  1.2358  0.6818
 4833TIP3    H236135   5.139   1.017   2.306  2.6907  2.0165  1.7322
 4834TIP3   OH236136   4.557   2.619   1.342  0.0787  0.2920 -0.2054
 4834TIP3    H136137   4.636   2.657   1.303 -0.5924  3.9663  1.5139
 4834TIP3    H236138   4.571   2.626   1.436 -1.7658 -0.1624  0.1416
 4835TIP3   OH236139   3.204   0.663   7.339 -0.8261 -0.1677 -0.1315
 4835TIP3    H136140   3.229   0.571   7.324 -1.4070 -0.2175 -0.8615
 4835TIP3    H236141   3.256   0.690   7.414 -0.5118 -1.0463 -0.0210
 4836TIP3   OH236142   2.811   2.307   2.543  0.3560  0.7058 -0.0562
 4836TIP3    H136143   2.759   2.385   2.562  0.9650  1.4562 -1.3257
 4836TIP3    H236144   2.856   2.288   2.626 -2.0823 -0.1425  1.1603
 4837TIP3   OH236145   6.497   5.889   8.449 -0.1193 -0.1214 -0.3177
 4837TIP3    H136146   6.522   5.850   8.533  0.0080 -1.1711 -0.8384
 4837TIP3    H236147   6.557   5.963   8.439  0.9205 -0.9240 -0.2133
 4838TIP3   OH236148   1.040   6.503   0.188  0.0807 -0.4042  0.6980
 4838TIP3    H136149   1.095   6.481   0.263  0.3515 -0.0684  0.6007
 4838TIP3    H236150   1.092   6.480   0.112  0.8052  1.4890  0.5623
 4839TIP3   OH236151   4.990   3.452   7.996 -0.3641  0.2367  0.5748
 4839TIP3    H136152   4.967   3.468   7.904 -0.4107  0.1999  0.5805
 4839TIP3    H236153   5.000   3.357   8.002 -0.8898  0.1894  0.7356
 4840TIP3   OH236154   3.968   3.502   8.521  0.3039 -0.3746  0.2692
 4840TIP3    H136155   3.947   3.450   8.443 -2.1659 -0.3607  0.8368
 4840TIP3    H236156   4.045   3.459   8.559  1.2686 -0.6544 -1.8859
 4841TIP3   OH236157   6.344   1.956   1.276  0.5844 -0.2076  0.2745
 4841TIP3    H136158   6.383   2.016   1.212 -0.2529  0.7862  0.6479
 4841TIP3    H236159   6.409   1.950   1.346  2.0968 -2.3459 -1.1765
 4842TIP3   OH236160   2.012   3.901   1.818 -0.2236  0.0970  0.4667
 4842TIP3    H136161   2.064   3.907   1.738 -0.5164 -0.2889  0.2480
 4842TIP3    H236162   1.927   3.937   1.794 -0.5423 -0.6983  0.4058
 4843TIP3   OH236163   2.532   5.392   1.830  0.5871  0.0939 -0.5932
 4843TIP3    H136164   2.523   5.416   1.922  1.9951 -0.4576 -0.2833
 4843TIP3    H236165   2.619   5.425   1.804  0.6193 -0.5953 -1.4381
 4844TIP3   OH236166   0.783   5.670   2.332  0.0410  0.6112 -0.2675
 4844TIP3    H136167   0.862   5.617   2.331  0.0041  0.5529 -0.7844
 4844TIP3    H236168   0.740   5.648   2.414  0.6648  0.8061  0.1142
 4845TIP3   OH236169   2.546   2.333   0.106  0.5132 -0.3388 -0.0185
 4845TIP3    H136170   2.477   2.376   0.156  1.6022  0.5109  0.8096
 4845TIP3    H236171   2.612   2.401   0.093  0.4430 -0.6292 -2.3323
 4846TIP3   OH236172   5.746   3.621   3.076  0.4300  0.2641 -0.3562
 4846TIP3    H136173   5.711   3.535   3.050  0.8295  0.5614 -2.0055
 4846TIP3    H236174   5.670   3.668   3.110 -0.7504  0.6684 -3.2584
 4847TIP3   OH236175   1.418   2.398   1.877  0.1609 -0.0524  0.0975
 4847TIP3    H136176   1.447   2.367   1.963  0.2074 -1.7969 -0.5042
 4847TIP3    H236177   1.425   2.494   1.882 -1.3951  0.0226  2.5690
 4848TIP3   OH236178   2.569   1.021   8.390 -0.0558 -0.5110  0.1343
 4848TIP3    H136179   2.613   1.104   8.408 -3.5494  1.4162  0.6252
 4848TIP3    H236180   2.587   1.004   8.297  0.2207  1.1447 -0.1456
 4849TIP3   OH236181   6.253   3.351   0.658 -0.1614  0.2844 -0.0999
 4849TIP3    H136182   6.200   3.418   0.700  0.7986 -1.3980  4.3880
 4849TIP3    H236183   6.192   3.302   0.604 -1.7869  2.0919 -0.0113
 4850TIP3   OH236184   5.254   2.635   1.975 -0.1034 -0.2624  0.0820
 4850TIP3    H136185   5.333   2.684   1.952 -0.2857  0.4553  0.9295
 4850TIP3    H236186   5.231   2.588   1.895  0.1340  0.9735 -0.7397
 4851TIP3   OH236187   3.982   5.100   1.803 -0.1459  0.3404  0.4804
 4851TIP3    H136188   3.928   5.158   1.856  0.3051 -0.7757  2.2337
 4851TIP3    H236189   3.954   5.011   1.826  0.0311 -0.2071 -1.2128
 4852TIP3   OH236190   5.779   6.212   7.006 -0.2832 -0.3264  0.0060
 4852TIP3    H136191   5.733   6.202   7.089  0.1969 -0.7385  0.2288
 4852TIP3    H236192   5.727   6.276   6.957 -0.8155 -0.4196  0.4427
 4853TIP3   OH236193   3.236   3.465   2.811  0.0651 -0.6139 -0.1779
 4853TIP3    H136194   3.222   3.488   2.719  2.5002  2.1281 -0.0411
 4853TIP3    H236195   3.168   3.513   2.858  0.0846 -0.2993 -0.4633
 4854TIP3   OH236196   1.308   6.768   0.381 -0.1608 -0.3134 -0.1448
 4854TIP3    H136197   1.278   6.762   0.472 -0.9156  2.6546 -0.0994
 4854TIP3    H236198   1.397   6.802   0.387 -0.7383  1.3339 -0.5035
 4855TIP3   OH236199   3.511   6.523   1.612 -0.4459 -0.8319  0.5158
 4855TIP3    H136200   3.459   6.603   1.607  0.2185 -0.3602  1.0313
 4855TIP3    H236201   3.449   6.453   1.592 -0.7451 -0.0954 -1.3168
 4856TIP3   OH236202   6.834   3.671   3.513  0.1709 -0.3646  0.2308
 4856TIP3    H136203   6.762   3.705   3.461  1.0895  0.7137 -0.3985
 4856TIP3    H236204   6.809   3.581   3.534 -0.8875 -0.3380 -0.8246
 4857TIP3   OH236205   2.114   2.289   1.035 -0.1352  0.6202  0.2472
 4857TIP3    H136206   2.019   2.295   1.020 -0.1431 -1.1871 -0.6952
 4857TIP3    H236207   2.150   2.367   0.994 -1.1669  1.0577  0.1352
 4858TIP3   OH236208   1.985   2.563   8.121  0.9811  0.2354 -0.0149
 4858TIP3    H136209   1.978   2.551   8.026 -0.0117  0.1604  0.0636
 4858TIP3    H236210   1.936   2.643   8.140  0.3876 -0.2412  0.5403
 4859TIP3   OH236211   3.286   1.843   7.482 -0.2115  0.4044 -0.1263
 4859TIP3    H136212   3.337   1.843   7.401 -2.7360 -1.4232 -1.9094
 4859TIP3    H236213   3.332   1.783   7.540 -0.3623 -1.4685 -1.8083
 4860TIP3   OH236214   4.815   4.807   3.298  0.0172 -0.9143 -0.1378
 4860TIP3    H136215   4.824   4.890   3.345  1.3782 -1.6697  0.9970
 4860TIP3    H236216   4.842   4.827   3.208  2.1142 -0.4880  0.5395
 4861TIP3   OH236217   2.692   0.741   2.367 -0.0235 -0.9431 -0.6370
 4861TIP3    H136218   2.634   0.756   2.292 -1.2606  1.4680  0.6980
 4861TIP3    H236219   2.656   0.664   2.410 -2.1487  0.2736 -0.0521
 4862TIP3   OH236220   5.989   6.661   2.614 -0.2803 -0.7512  0.2803
 4862TIP3    H136221   6.064   6.601   2.613  1.2774  1.0926 -0.1261
 4862TIP3    H236222   6.022   6.740   2.572 -2.7295 -0.1223 -0.6035
 4863TIP3   OH236223   1.512   1.319   2.508  0.0592  0.2419 -0.5033
 4863TIP3    H136224   1.502   1.227   2.482  0.1816  0.7270 -2.4522
 4863TIP3    H236225   1.447   1.331   2.577  0.4371 -1.4411  0.1908
 4864TIP3   OH236226   0.860   1.721   2.328  0.0866 -0.2132 -0.0576
 4864TIP3    H136227   0.833   1.742   2.417 -0.1425  0.1919 -0.2187
 4864TIP3    H236228   0.947   1.760   2.320 -0.1015  0.1873 -0.1711
 4865TIP3   OH236229   3.844   0.137   3.142 -0.5662  0.4098  0.3264
 4865TIP3    H136230   3.902   0.122   3.217 -1.2005  0.2356  0.7869
 4865TIP3    H236231   3.877   0.078   3.074  0.3574  0.9710  0.2668
 4866TIP3   OH236232   3.196   6.635   0.313  0.4107 -0.1001 -0.2065
 4866TIP3    H136233   3.213   6.595   0.228 -0.4125 -0.0438 -0.4120
 4866TIP3    H236234   3.145   6.714   0.293  2.3994  1.3341  0.1631
 4867TIP3   OH236235   6.017   4.167   2.944  0.5829  0.6327  0.5932
 4867TIP3    H136236   6.043   4.179   3.035  0.9455  0.8712  0.4641
 4867TIP3    H236237   6.093   4.127   2.902 -0.6301 -2.3514  1.0184
 4868TIP3   OH236238   5.101   5.535   8.398 -0.0219 -0.2443  0.6523
 4868TIP3    H136239   5.074   5.517   8.488 -0.4409  0.6432  0.7178
 4868TIP3    H236240   5.024   5.516   8.346  0.3041 -1.0202  0.4411
 4869TIP3   OH236241   2.001   4.784   0.484 -0.2308 -0.0915 -0.1401
 4869TIP3    H136242   1.942   4.855   0.459 -0.2726 -0.5103 -1.2854
 4869TIP3    H236243   2.058   4.773   0.408  1.1704  0.1384  0.8433
 4870TIP3   OH236244   1.729   1.509   2.649  0.0167 -0.4664  0.0466
 4870TIP3    H136245   1.700   1.465   2.729  1.3555 -0.7177  0.4126
 4870TIP3    H236246   1.650   1.515   2.595 -0.5436 -1.8341  0.6663
 4871TIP3   OH236247   0.417   5.878   2.445 -0.1822  0.1725  0.4994
 4871TIP3    H136248   0.392   5.819   2.373  0.8878  0.4877 -0.1568
 4871TIP3    H236249   0.341   5.935   2.456 -0.8218 -0.6435  0.4231
 4872TIP3   OH236250   1.643   5.648   2.438  0.2495  0.1839 -0.5174
 4872TIP3    H136251   1.733   5.615   2.437  0.7225  1.3952  0.2229
 4872TIP3    H236252   1.619   5.651   2.531  0.3222  2.1039 -0.5277
 4873TIP3   OH236253   5.713   5.991   0.339  0.2161  0.4600 -0.5021
 4873TIP3    H136254   5.666   5.985   0.422  1.2034  2.0465  0.2102
 4873TIP3    H236255   5.654   6.041   0.282  0.3820  1.1054 -0.1102
 4874TIP3   OH236256   2.853   1.417   0.214 -0.2043 -0.1814  0.2327
 4874TIP3    H136257   2.871   1.422   0.308  0.6565  1.0072  0.0366
 4874TIP3    H236258   2.779   1.477   0.201 -0.2195 -0.2227  0.1328
 4875TIP3   OH236259   0.952   0.536   7.988 -0.1431 -0.0058 -0.2019
 4875TIP3    H136260   0.958   0.504   7.898 -0.3207  2.7110 -1.2925
 4875TIP3    H236261   0.981   0.627   7.982  0.4446  0.0716  2.6427
 4876TIP3   OH236262   0.245   6.633   8.644 -0.5044  0.3313  0.5528
 4876TIP3    H136263   0.189   6.570   8.690 -1.0214 -0.7792 -1.4660
 4876TIP3    H236264   0.232   6.715   8.691 -2.4047 -0.3202  1.2810
 4877TIP3   OH236265   0.337   3.336   2.261  1.1282  0.0279 -0.7165
 4877TIP3    H136266   0.430   3.320   2.278  0.6193  0.0977  2.9348
 4877TIP3    H236267   0.318   3.418   2.307 -0.9283 -0.5321 -0.4565
 4878TIP3   OH236268   2.577   2.445   2.894 -0.0788  0.2119  0.1102
 4878TIP3    H136269   2.602   2.365   2.940  0.0423  0.7112  0.9451
 4878TIP3    H236270   2.530   2.496   2.961 -2.6581 -0.3338 -1.1400
 4879TIP3   OH236271   1.885   2.766   2.434  0.2512 -0.0264  0.1449
 4879TIP3    H136272   1.908   2.771   2.527  2.8262  2.9352 -0.4616
 4879TIP3    H236273   1.859   2.855   2.411  3.7898  0.5068 -2.7434
 4880TIP3   OH236274   0.317   4.399   7.932 -0.0096 -0.4899 -0.2698
 4880TIP3    H136275   0.388   4.336   7.922 -0.9558 -1.9421  1.4599
 4880TIP3    H236276   0.264   4.364   8.004 -1.5428  1.4133 -0.3838
 4881TIP3   OH236277   1.157   5.799   1.214  0.3092  0.6072 -0.4113
 4881TIP3    H136278   1.115   5.759   1.138 -0.1054  0.1743  0.0398
 4881TIP3    H236279   1.085   5.822   1.273  0.7512 -2.0956  1.3391
 4882TIP3   OH236280   1.151   1.099   7.951  0.0498 -0.4421  0.6233
 4882TIP3    H136281   1.149   1.006   7.973  1.7318 -0.6418  0.0694
 4882TIP3    H236282   1.235   1.131   7.984 -0.1794  0.7145  0.1627
 4883TIP3   OH236283   0.476   5.875   7.777  0.2007 -0.0507 -0.3636
 4883TIP3    H136284   0.423   5.817   7.832  0.3265 -0.2272 -0.4257
 4883TIP3    H236285   0.412   5.933   7.735  0.1808  0.6776  0.6500
 4884TIP3   OH236286   3.253   1.539   8.085  0.0070  0.1342  0.2399
 4884TIP3    H136287   3.161   1.548   8.110  0.2378  1.0808  0.7496
 4884TIP3    H236288   3.291   1.482   8.152  0.0463  0.6547  0.6664
 4885TIP3   OH236289   6.788   2.157   0.036 -0.1454 -0.5341  0.2595
 4885TIP3    H136290   6.695   2.147   0.054 -0.2326  0.4971  0.4130
 4885TIP3    H236291   6.830   2.155   0.122 -0.1866  0.5926  0.3104
 4886TIP3   OH236292   1.006   2.736   2.480  0.4684  0.2688 -1.1829
 4886TIP3    H136293   0.952   2.689   2.416  0.1494 -1.5604  0.3135
 4886TIP3    H236294   0.964   2.821   2.490 -0.4200 -0.0274 -2.1914
 4887TIP3   OH236295   1.548   3.400   8.041  0.0201  0.1325 -0.5565
 4887TIP3    H136296   1.494   3.415   8.118 -0.9362  0.8553 -1.3353
 4887TIP3    H236297   1.601   3.324   8.063 -2.7772 -1.9642 -0.5070
 4888TIP3   OH236298   0.539   4.991   7.918 -0.2711  0.5239 -0.3427
 4888TIP3    H136299   0.615   4.955   7.873 -0.8910  0.8317 -1.6941
 4888TIP3    H236300   0.480   5.019   7.848 -1.4674  0.6527  0.6659
 4889TIP3   OH236301   0.805   0.205   2.065 -0.5799  0.0073 -0.0641
 4889TIP3    H136302   0.710   0.192   2.073 -1.0021  2.3674 -0.4444
 4889TIP3    H236303   0.814   0.275   2.001  1.3825  0.4591  0.6414
 4890TIP3   OH236304   0.979   1.015   2.062 -0.3711  0.2048  0.1148
 4890TIP3    H136305   1.069   1.020   2.030  0.7789 -0.9557  2.8593
 4890TIP3    H236306   0.937   0.950   2.005  0.7744  0.0645 -0.6121
 4891TIP3   OH236307   3.437   1.034   1.573 -0.2994  0.3924  0.3243
 4891TIP3    H136308   3.409   0.944   1.561 -0.1243  0.6059 -2.4147
 4891TIP3    H236309   3.499   1.031   1.645 -0.6178 -1.5797  0.5639
 4892TIP3   OH236310   0.743   5.759   3.381  0.4257  0.4387 -0.1857
 4892TIP3    H136311   0.679   5.705   3.428 -0.9453  1.0593 -1.2458
 4892TIP3    H236312   0.826   5.712   3.390 -0.6971 -1.8633 -1.0569
 4893TIP3   OH236313   3.020   3.874   8.260  0.7388  0.5055 -0.2413
 4893TIP3    H136314   2.936   3.866   8.304 -0.1006 -0.1652 -1.8756
 4893TIP3    H236315   3.062   3.949   8.302 -1.4507  2.0235 -0.5665
 4894TIP3   OH236316   3.787   1.880   3.436  0.1722  0.0241 -0.2411
 4894TIP3    H136317   3.780   1.786   3.415  1.2416 -0.0350 -0.4382
 4894TIP3    H236318   3.835   1.882   3.519 -1.9328  0.3423  1.0269
 4895TIP3   OH236319   6.748   1.664   1.937  0.8549  0.7170 -0.8370
 4895TIP3    H136320   6.802   1.703   2.006  1.2660  1.1054 -1.3698
 4895TIP3    H236321   6.802   1.669   1.859  1.7988 -2.7647 -0.5773
 4896TIP3   OH236322   3.225   6.635   1.243 -0.1376  0.1814 -0.5687
 4896TIP3    H136323   3.236   6.634   1.148 -0.4554 -0.7325 -0.5983
 4896TIP3    H236324   3.287   6.570   1.275 -1.2417 -0.7468 -0.2824
 4897TIP3   OH236325   4.954   5.191   1.742  0.3327 -0.1618 -0.0123
 4897TIP3    H136326   5.026   5.128   1.750  0.9615  0.8060  4.2064
 4897TIP3    H236327   4.997   5.273   1.720 -0.0512 -0.3592 -1.6251
 4898TIP3   OH236328   1.619   4.216   8.173  0.4170 -0.3658  0.1478
 4898TIP3    H136329   1.525   4.198   8.172  0.2003  0.6975 -0.4240
 4898TIP3    H236330   1.636   4.262   8.090  1.1835  0.6093  0.8109
 4899TIP3   OH236331   4.616   6.723   8.301  0.1760 -0.5740 -0.3126
 4899TIP3    H136332   4.541   6.736   8.243 -0.0615  0.6890  0.2483
 4899TIP3    H236333   4.684   6.782   8.267  0.6161 -1.0562 -0.2886
 4900TIP3   OH236334   3.573   5.980   7.908  0.4753  0.0335 -0.0204
 4900TIP3    H136335   3.570   5.962   7.814 -1.6112 -0.1453  0.0354
 4900TIP3    H236336   3.522   6.060   7.918  1.4388  0.5522  0.8786
 4901TIP3   OH236337   4.321   4.136   8.171 -0.4884  0.1814  0.2918
 4901TIP3    H136338   4.259   4.105   8.237  0.0496 -1.2023  0.1953
 4901TIP3    H236339   4.331   4.062   8.111  2.0465 -0.0841  0.8937
 4902TIP3   OH236340   0.029   3.113   2.363  0.4345  0.4524 -0.5516
 4902TIP3    H136341  -0.032   3.041   2.352  0.2102  0.7489 -1.3168
 4902TIP3    H236342  -0.025   3.192   2.352  0.5865  0.7545  0.7245
 4903TIP3   OH236343   1.202   5.826   2.868 -0.5212 -0.5565  0.7370
 4903TIP3    H136344   1.175   5.831   2.776  0.0498  0.5844  0.6163
 4903TIP3    H236345   1.218   5.917   2.893 -1.8988 -0.7088  2.3512
 4904TIP3   OH236346   5.211   2.570   3.040  0.2205  0.3830  0.5086
 4904TIP3    H136347   5.283   2.602   3.095  0.3228  1.2753 -0.1202
 4904TIP3    H236348   5.215   2.475   3.048  0.2252  0.4841  2.0521
 4905TIP3   OH236349   0.929   3.640   3.077 -0.1809 -0.5052 -0.4341
 4905TIP3    H136350   0.888   3.573   3.132 -0.9718 -0.6198 -1.1401
 4905TIP3    H236351   0.974   3.697   3.139 -1.0578 -0.6258  0.3443
 4906TIP3   OH236352   1.361   2.909   2.319 -0.3715  0.6832 -0.3889
 4906TIP3    H136353   1.288   2.914   2.257  0.9582  0.9357 -1.9832
 4906TIP3    H236354   1.339   2.835   2.376 -0.7135 -0.8367 -2.3915
 4907TIP3   OH236355   2.054   5.196   0.619 -0.1437  0.0783  0.8695
 4907TIP3    H136356   1.995   5.137   0.666 -0.7912 -0.2967 -0.3718
 4907TIP3    H236357   1.996   5.247   0.562  0.5398  1.0832  1.0531
 4908TIP3   OH236358   6.392   6.443   8.422  0.2784  0.2500  0.2351
 4908TIP3    H136359   6.323   6.490   8.375  0.1182 -1.3319 -1.2081
 4908TIP3    H236360   6.363   6.352   8.422  1.7728 -0.2582  0.7127
 4909TIP3   OH236361   4.293   5.440   8.347  0.6108 -0.4429  0.0277
 4909TIP3    H136362   4.336   5.437   8.262  2.8195  0.6508  1.0157
 4909TIP3    H236363   4.246   5.357   8.353  1.2014 -0.9658 -1.8501
 4910TIP3   OH236364   2.528   4.420   0.775 -0.0452 -0.2471  0.3611
 4910TIP3    H136365   2.458   4.364   0.806 -1.0116  0.5308 -0.3376
 4910TIP3    H236366   2.483   4.495   0.735  1.0151 -1.3071 -3.2176
 4911TIP3   OH236367   0.738   6.034   1.641  0.0313 -0.4079 -0.1259
 4911TIP3    H136368   0.809   6.094   1.664  0.9363 -1.2107 -0.7538
 4911TIP3    H236369   0.667   6.057   1.701  1.3104 -0.5311  1.5154
 4912TIP3   OH236370   5.524   5.770   8.453 -0.6455  0.0647 -0.0816
 4912TIP3    H136371   5.570   5.687   8.438 -1.9029 -0.6590 -0.0345
 4912TIP3    H236372   5.460   5.775   8.383 -0.1827  1.3226 -0.4543
 4913TIP3   OH236373   4.955   5.229   2.563 -0.2405 -0.7370 -0.4217
 4913TIP3    H136374   5.034   5.275   2.535  0.0368 -0.2118  1.0833
 4913TIP3    H236375   4.897   5.232   2.488 -0.4287  2.5904 -0.2777
 4914TIP3   OH236376   1.521   5.111   8.078  0.2271 -0.5491 -0.3643
 4914TIP3    H136377   1.595   5.064   8.117 -0.0307 -0.8051 -0.1836
 4914TIP3    H236378   1.558   5.194   8.049  0.2320  0.0715  1.2974
 4915TIP3   OH236379   4.888   1.174   2.028  0.3344 -0.4180  0.0144
 4915TIP3    H136380   4.894   1.090   2.074  0.8569 -0.5869 -0.3503
 4915TIP3    H236381   4.823   1.159   1.959 -0.1110 -0.2998  0.3998
 4916TIP3   OH236382   6.682   4.595   3.005  0.4396  0.5801 -0.0489
 4916TIP3    H136383   6.743   4.657   2.966 -0.0557  1.0555 -0.0787
 4916TIP3    H236384   6.727   4.511   3.002  0.7815  0.7904 -0.7701
 4917TIP3   OH236385   1.068   2.037   7.658 -0.1572 -0.2557 -0.0247
 4917TIP3    H136386   1.163   2.046   7.646  0.1635 -1.7320  1.1400
 4917TIP3    H236387   1.049   1.946   7.635 -1.6420  0.4758 -2.0278
 4918TIP3   OH236388   0.853   3.061   0.738 -0.0191 -0.5609  0.1447
 4918TIP3    H136389   0.834   3.153   0.755 -1.6191 -0.2639 -2.6003
 4918TIP3    H236390   0.948   3.056   0.735  0.1228  1.5298 -1.7698
 4919TIP3   OH236391   3.635   4.190   7.705 -0.2335  0.3707  0.4028
 4919TIP3    H136392   3.575   4.150   7.642 -0.5471  0.1588  0.8326
 4919TIP3    H236393   3.661   4.273   7.664 -0.6662  0.3730  0.1269
 4920TIP3   OH236394   3.751   3.380   0.413  0.8784 -0.4309 -0.4984
 4920TIP3    H136395   3.673   3.422   0.377 -0.1780 -1.6957  0.1904
 4920TIP3    H236396   3.716   3.310   0.468  2.5086 -0.6815  0.2686
 4921TIP3   OH236397   2.825   3.333   2.433 -0.5589  0.1862  0.1885
 4921TIP3    H136398   2.827   3.418   2.477  1.1897  0.2548  0.0343
 4921TIP3    H236399   2.732   3.310   2.431 -0.8882  1.1044  2.1263
 4922TIP3   OH236400   6.083   0.228   8.601 -0.9184  0.2912  0.2666
 4922TIP3    H136401   6.030   0.295   8.644  0.2906  0.7598  1.0813
 4922TIP3    H236402   6.062   0.147   8.647  0.2869  0.7693  1.7416
 4923TIP3   OH236403   2.398   3.967   1.198 -0.0604 -0.4949 -0.4733
 4923TIP3    H136404   2.334   4.006   1.139 -0.0934  0.7106  0.3329
 4923TIP3    H236405   2.470   3.940   1.141 -0.5249 -0.2755 -1.1752
 4924TIP3   OH236406   3.964   5.488   0.376 -0.4905 -0.5825  0.2692
 4924TIP3    H136407   4.055   5.498   0.349 -0.1634 -1.2589  1.0610
 4924TIP3    H236408   3.920   5.567   0.345  0.3097 -0.3680 -0.3374
 4925TIP3   OH236409   4.991   5.136   1.372  0.6695  0.0218  0.5085
 4925TIP3    H136410   5.010   5.198   1.442  1.7205  1.1373 -0.7229
 4925TIP3    H236411   4.895   5.137   1.364  0.6751  3.6917 -1.2937
 4926TIP3   OH236412   5.951   4.979   8.344  0.1425  0.1112 -0.2099
 4926TIP3    H136413   5.907   5.050   8.390  0.5104 -0.3214  0.8369
 4926TIP3    H236414   5.928   4.900   8.393 -1.0267 -0.6600 -1.8873
 4927TIP3   OH236415   3.024   0.903   2.960  0.2974 -0.5587 -0.1399
 4927TIP3    H136416   2.982   0.840   3.017  2.5592 -0.0910  2.2105
 4927TIP3    H236417   3.077   0.851   2.900  0.5703 -0.9592  0.4496
 4928TIP3   OH236418   1.233   2.757   8.022  0.0794  0.1098 -0.1381
 4928TIP3    H136419   1.199   2.846   8.014 -0.9003 -0.2663 -0.3079
 4928TIP3    H236420   1.287   2.759   8.100 -0.7653  0.6108  0.4510
 4929TIP3   OH236421   5.337   4.613   0.072 -0.2393  0.4963  0.3133
 4929TIP3    H136422   5.410   4.626   0.132  0.3276  2.1255 -0.6537
 4929TIP3    H236423   5.368   4.648  -0.011 -1.9602  0.8103 -0.2368
 4930TIP3   OH236424   0.233   3.425   0.429 -0.1878  0.4181 -0.0912
 4930TIP3    H136425   0.295   3.441   0.358 -1.1961 -0.4707 -1.2239
 4930TIP3    H236426   0.196   3.339   0.409 -0.9637  0.4319  1.1746
 4931TIP3   OH236427   1.243   4.354   2.523  0.5255  1.1035  0.7208
 4931TIP3    H136428   1.241   4.286   2.589 -0.6034  2.1137  1.7688
 4931TIP3    H236429   1.315   4.412   2.549  0.9681  0.7703  0.2739
 4932TIP3   OH236430   2.804   1.186   2.258 -0.3112 -0.0524 -0.6589
 4932TIP3    H136431   2.860   1.254   2.294 -0.6102  0.0356 -0.3604
 4932TIP3    H236432   2.732   1.233   2.216 -0.9072 -0.1942  0.1828
 4933TIP3   OH236433   6.818   4.177   2.517 -0.0331  0.0240 -0.2631
 4933TIP3    H136434   6.782   4.150   2.601  0.0714  1.2738  0.2108
 4933TIP3    H236435   6.849   4.266   2.532  0.4614  0.0793 -1.4900
 4934TIP3   OH236436   5.412   6.044   0.790  0.0793  0.0338 -0.3286
 4934TIP3    H136437   5.420   5.985   0.865 -1.4590 -1.1329 -1.0287
 4934TIP3    H236438   5.347   6.109   0.817  1.3867  1.1534  0.2459
 4935TIP3   OH236439   1.197   3.112   8.546  0.5978 -0.2934  0.5842
 4935TIP3    H136440   1.280   3.128   8.500  0.1483  2.5096  0.5995
 4935TIP3    H236441   1.224   3.076   8.631  1.8476  0.9495  0.7550
 4936TIP3   OH236442   1.273   3.190   3.370 -0.7157  0.6047 -0.3432
 4936TIP3    H136443   1.287   3.260   3.434 -2.6199 -0.2289  1.0886
 4936TIP3    H236444   1.282   3.109   3.420 -1.1959 -0.0986 -1.3553
 4937TIP3   OH236445   1.759   6.599   0.336 -0.1303 -0.8182 -0.0385
 4937TIP3    H136446   1.726   6.599   0.426 -0.4631  0.2625 -0.1571
 4937TIP3    H236447   1.692   6.553   0.286 -1.3914  1.1453 -0.2369
 4938TIP3   OH236448   5.171   6.491   2.329  0.2058  0.0339 -0.5203
 4938TIP3    H136449   5.243   6.452   2.280 -0.4765 -1.4593 -0.4060
 4938TIP3    H236450   5.209   6.514   2.414  0.1242 -2.8073  0.3830
 4939TIP3   OH236451   1.739   3.263   8.176 -0.2347  0.3396  0.1875
 4939TIP3    H136452   1.765   3.345   8.218 -1.1655  1.8060 -1.9364
 4939TIP3    H236453   1.821   3.217   8.162  0.3346  1.0031  1.1657
 4940TIP3   OH236454   5.851   0.006   8.510 -0.0073  0.0997 -0.5875
 4940TIP3    H136455   5.901   0.080   8.475  0.4545  0.2981  0.4366
 4940TIP3    H236456   5.870   0.008   8.604  0.0224 -1.3287 -0.5502
 4941TIP3   OH236457   4.454   4.968   0.403  1.0001 -0.0516 -0.3645
 4941TIP3    H136458   4.457   4.937   0.312  0.5258  1.1188 -0.8034
 4941TIP3    H236459   4.387   4.914   0.444  0.5850  0.0072 -0.9497
 4942TIP3   OH236460   2.926   0.357   2.964 -0.5456  0.3618  0.1667
 4942TIP3    H136461   3.013   0.353   2.925 -0.0909 -0.3401  1.2060
 4942TIP3    H236462   2.928   0.292   3.035 -1.4515  1.3196  1.1143
 4943TIP3   OH236463   4.693   5.510   0.584 -0.1747  0.3710  0.1020
 4943TIP3    H136464   4.671   5.484   0.495  0.7723 -0.9328  0.2241
 4943TIP3    H236465   4.642   5.450   0.639  2.0569 -1.3843  0.3894
 4944TIP3   OH236466   5.347   6.551   7.951 -0.2009  0.2074  0.2400
 4944TIP3    H136467   5.442   6.565   7.953 -0.1881  0.3798 -0.8445
 4944TIP3    H236468   5.319   6.595   7.871 -1.3524  1.0533  1.0845
 4945TIP3   OH236469   1.789   2.535   3.117 -0.2020  0.8634  0.4065
 4945TIP3    H136470   1.788   2.624   3.152 -2.6048  1.1484 -0.2471
 4945TIP3    H236471   1.781   2.478   3.193 -3.1834  1.4073  0.6145
 4946TIP3   OH236472   4.495   1.342   1.042  0.1408 -0.1303  0.1261
 4946TIP3    H136473   4.442   1.421   1.052 -2.8623 -2.0585  0.9245
 4946TIP3    H236474   4.477   1.311   0.953 -0.4432 -0.9978  0.5256
 4947TIP3   OH236475   1.627   0.681   3.071 -0.2160 -0.1207 -0.6762
 4947TIP3    H136476   1.693   0.623   3.035 -0.8510 -0.7355 -0.8731
 4947TIP3    H236477   1.637   0.673   3.166 -1.1605 -1.6065 -0.6617
 4948TIP3   OH236478   3.904   6.144   0.225  0.5164 -0.7704  0.0588
 4948TIP3    H136479   3.946   6.226   0.250 -1.2973  0.8628 -1.8231
 4948TIP3    H236480   3.905   6.145   0.130 -2.8270 -1.0228 -0.1005
 4949TIP3   OH236481   3.837   0.971   0.477 -0.1628 -0.5561  0.3490
 4949TIP3    H136482   3.887   1.012   0.547  0.6088 -1.6712  0.4871
 4949TIP3    H236483   3.764   0.928   0.521  0.2229 -1.1056  0.4729
 4950TIP3   OH236484   4.357   3.386   7.755  0.1471  0.3978  0.4600
 4950TIP3    H136485   4.386   3.367   7.845 -1.5161  1.0871  1.1916
 4950TIP3    H236486   4.381   3.478   7.742  2.0122 -0.1763 -0.5227
 4951TIP3   OH236487   4.942   3.720   0.763  0.6999 -0.0940 -0.3771
 4951TIP3    H136488   4.889   3.648   0.731  0.4098  0.2679 -0.7095
 4951TIP3    H236489   4.884   3.770   0.820  1.6392 -1.6810  2.2020
 4952TIP3   OH236490   2.483   2.414   2.115  0.0849 -0.0228  0.7981
 4952TIP3    H136491   2.401   2.398   2.069  1.1684 -1.9488 -0.5686
 4952TIP3    H236492   2.457   2.427   2.206 -1.6894 -1.4308  0.5371
 4953TIP3   OH236493   4.989   5.951   2.642 -0.0785 -0.0629  0.6979
 4953TIP3    H136494   4.895   5.940   2.657 -0.0224  1.3305  2.3571
 4953TIP3    H236495   4.998   6.043   2.615  0.7013 -0.4961 -0.5683
 4954TIP3   OH236496   3.177   0.834   2.485 -0.6322  0.2623 -0.3090
 4954TIP3    H136497   3.262   0.829   2.441 -0.7701 -0.6473 -0.4906
 4954TIP3    H236498   3.125   0.764   2.446 -0.8330 -0.4306  1.1191
 4955TIP3   OH236499   2.532   5.374   2.407 -0.1947 -0.0547 -0.0588
 4955TIP3    H136500   2.572   5.455   2.441  0.1133  0.3187 -1.2667
 4955TIP3    H236501   2.607   5.319   2.382 -0.2627  1.2273 -3.7096
 4956TIP3   OH236502   6.691   3.479   8.292 -0.3409  0.4277  0.2369
 4956TIP3    H136503   6.679   3.400   8.239 -1.3388  2.2061 -2.4205
 4956TIP3    H236504   6.764   3.458   8.350 -2.3660 -3.4101  1.7919
 4957TIP3   OH236505   0.794   6.545   2.808  0.5512  0.3824 -0.2246
 4957TIP3    H136506   0.814   6.622   2.756 -0.4543  1.0632  0.3806
 4957TIP3    H236507   0.802   6.574   2.899 -0.5651 -0.0120  0.0168
 4958TIP3   OH236508   5.874   1.341   8.022  0.4807 -0.1415 -0.0924
 4958TIP3    H136509   5.877   1.264   8.080  1.1109  0.3403  0.5257
 4958TIP3    H236510   5.849   1.305   7.937 -1.5552 -0.7453  0.6802
 4959TIP3   OH236511   5.094   5.860   0.054  0.0906  0.1685 -0.3434
 4959TIP3    H136512   5.028   5.790   0.058  0.0006  0.2820  0.2325
 4959TIP3    H236513   5.047   5.935   0.017  0.0388  0.0923 -0.4325
 4960TIP3   OH236514   5.994   5.801   7.822  0.6420 -0.2180  0.2509
 4960TIP3    H136515   5.909   5.843   7.840  0.6161 -0.1766  0.0337
 4960TIP3    H236516   6.041   5.806   7.905  1.4263  2.0434 -0.2860
 4961TIP3   OH236517   4.345   4.308   2.330 -0.1946 -0.2180  0.4196
 4961TIP3    H136518   4.256   4.343   2.321  0.6274  2.0968  0.5010
 4961TIP3    H236519   4.348   4.234   2.269 -2.1059 -0.2263  0.2702
 4962TIP3   OH236520   3.970   3.702   2.907 -0.3565  0.3997 -0.2447
 4962TIP3    H136521   3.891   3.732   2.954  0.2116  0.5702  0.6306
 4962TIP3    H236522   4.042   3.729   2.963  0.2713 -0.8373 -0.4279
 4963TIP3   OH236523   2.020   2.933   8.408 -0.1102 -0.0419 -0.9162
 4963TIP3    H136524   1.991   2.992   8.339 -0.5301  1.2403  0.3130
 4963TIP3    H236525   1.951   2.866   8.413 -0.5251  0.3628 -1.1416
 4964TIP3   OH236526   6.015   4.133   0.462 -0.7155  0.0695  0.1392
 4964TIP3    H136527   6.043   4.223   0.448  0.6272 -0.4364 -0.6420
 4964TIP3    H236528   5.924   4.140   0.491 -0.2861  1.7206  1.2561
 4965TIP3   OH236529   1.190   2.508   2.295 -0.5098  0.5183  0.0768
 4965TIP3    H136530   1.158   2.580   2.349 -1.3396  1.3218 -1.4395
 4965TIP3    H236531   1.110   2.466   2.263 -0.0475  0.5922 -1.2163
 4966TIP3   OH236532   3.589   1.091   0.359  0.5891  0.2345 -0.0417
 4966TIP3    H136533   3.535   1.136   0.295  0.2019 -0.3643 -0.1439
 4966TIP3    H236534   3.595   1.151   0.433  0.9994  0.9093 -0.6116
 4967TIP3   OH236535   0.108   4.678   0.665 -0.6653  0.0166 -0.3161
 4967TIP3    H136536   0.107   4.752   0.604 -0.7821  0.8568  0.6745
 4967TIP3    H236537   0.017   4.650   0.670 -0.6991  0.1247 -0.3246
 4968TIP3   OH236538   5.694   1.847   0.157  0.5049 -0.4678 -0.3559
 4968TIP3    H136539   5.633   1.919   0.148 -0.1869 -0.6647  2.0032
 4968TIP3    H236540   5.761   1.880   0.217  0.8324 -1.3866 -0.2021
 4969TIP3   OH236541   3.579   3.925   0.451  0.1518 -0.0820  0.0248
 4969TIP3    H136542   3.522   3.982   0.399  0.5794  1.2079  0.9209
 4969TIP3    H236543   3.519   3.867   0.499 -0.2867 -0.3853 -0.8658
 4970TIP3   OH236544   4.359   3.615   0.351  0.2755  0.2435  0.1502
 4970TIP3    H136545   4.400   3.679   0.409  0.1755  0.6324 -0.2014
 4970TIP3    H236546   4.385   3.642   0.263 -1.8327  1.3295 -0.2062
 4971TIP3   OH236547   2.491   3.735   2.776 -0.5574  0.4011 -0.0014
 4971TIP3    H136548   2.461   3.709   2.689 -2.8808  1.4838  0.3947
 4971TIP3    H236549   2.575   3.691   2.787 -0.8361 -0.8234 -2.2564
 4972TIP3   OH236550   5.594   4.245   7.576  0.7080 -0.0237 -0.0678
 4972TIP3    H136551   5.528   4.202   7.629  0.1770 -0.6987 -1.2572
 4972TIP3    H236552   5.675   4.198   7.596  1.2197  1.7099  2.4947
 4973TIP3   OH236553   3.949   6.195   7.324 -0.7281 -0.4479  0.1924
 4973TIP3    H136554   3.944   6.115   7.271  1.7669 -0.3794 -0.2811
 4973TIP3    H236555   4.006   6.253   7.274  1.1791 -0.1103  2.5787
 4974TIP3   OH236556   4.204   1.729   8.576  0.0511  0.4246 -0.2845
 4974TIP3    H136557   4.184   1.809   8.526 -0.3292 -0.2680 -1.2867
 4974TIP3    H236558   4.148   1.663   8.536 -0.2994 -0.1510  1.1324
 4975TIP3   OH236559   6.527   5.650   0.267  0.0055  0.3678  0.2891
 4975TIP3    H136560   6.533   5.554   0.263 -0.9403  0.3158 -0.0625
 4975TIP3    H236561   6.558   5.673   0.355  3.6236  0.0364 -0.7225
 4976TIP3   OH236562   5.706   5.520   1.710  0.2866 -0.6231 -0.0892
 4976TIP3    H136563   5.616   5.534   1.738  0.3453 -0.7685  0.1764
 4976TIP3    H236564   5.702   5.443   1.653  0.0947 -0.0545 -0.8700
 4977TIP3   OH236565   4.592   6.009   1.425 -0.1468  0.2829 -0.1614
 4977TIP3    H136566   4.612   6.043   1.512  0.3803  0.3930 -0.3198
 4977TIP3    H236567   4.524   6.067   1.391 -0.4888  0.1260  0.2450
 4978TIP3   OH236568   4.274   0.673   8.391  0.0404 -0.8588  0.0878
 4978TIP3    H136569   4.352   0.627   8.424  0.8961 -0.0832 -0.7938
 4978TIP3    H236570   4.209   0.604   8.379  1.6421 -2.1045 -2.2824
 4979TIP3   OH236571   3.323   2.586   2.644 -0.6684  0.3276 -0.2161
 4979TIP3    H136572   3.308   2.666   2.593  0.1530  0.3565 -0.4120
 4979TIP3    H236573   3.305   2.515   2.583 -0.0416  0.3626 -0.4448
 4980TIP3   OH236574   0.662   2.130   7.985 -0.2990 -0.1178 -0.0466
 4980TIP3    H136575   0.611   2.068   7.932  0.3398 -2.0276  1.4612
 4980TIP3    H236576   0.731   2.160   7.927  0.3674 -2.1433 -0.3987
 4981TIP3   OH236577   6.296   5.816   1.237 -0.6398 -0.5035 -0.2106
 4981TIP3    H136578   6.209   5.825   1.199  0.0249 -0.8797 -1.9162
 4981TIP3    H236579   6.297   5.879   1.310 -1.8601  0.5372 -1.0510
 4982TIP3   OH236580   0.550   0.069   2.087 -0.6177 -0.7304  0.1257
 4982TIP3    H136581   0.465   0.058   2.045 -0.4744 -0.8418 -0.1368
 4982TIP3    H236582   0.590  -0.018   2.084  0.9963 -0.0204 -2.9938
 4983TIP3   OH236583   1.218   4.277   1.598  0.3839  0.4133 -0.2381
 4983TIP3    H136584   1.226   4.247   1.688 -1.6859  1.0877  0.2437
 4983TIP3    H236585   1.254   4.366   1.599 -1.1376  1.0685  0.3847
 4984TIP3   OH236586   1.760   3.956   1.647  0.0120 -0.5257  0.1669
 4984TIP3    H136587   1.697   3.949   1.719 -2.7336 -0.1720 -2.0298
 4984TIP3    H236588   1.727   4.029   1.595  2.9913  0.4397 -0.5090
 4985TIP3   OH236589   1.607   0.137   1.458  0.5973  0.0569 -0.6964
 4985TIP3    H136590   1.686   0.083   1.447  0.8477  0.3865 -0.5567
 4985TIP3    H236591   1.631   0.200   1.527  0.1946  0.1291 -0.6198
 4986TIP3   OH236592   2.991   1.808   8.187  0.6727  0.5964  0.3578
 4986TIP3    H136593   3.009   1.872   8.118 -0.6518  1.0991  0.4337
 4986TIP3    H236594   3.008   1.723   8.147 -3.0089  0.6248 -1.7496
 4987TIP3   OH236595   4.651   0.715   2.478 -0.0285  0.7872 -0.3859
 4987TIP3    H136596   4.632   0.623   2.459  0.4094  0.5310  0.3701
 4987TIP3    H236597   4.746   0.723   2.468  0.2336  0.6365  1.5631
 4988TIP3   OH236598   2.699   5.420   1.123 -0.5381  0.2949 -0.3580
 4988TIP3    H136599   2.776   5.442   1.175 -1.1293  0.6450  0.3806
 4988TIP3    H236600   2.684   5.327   1.142 -1.0232  0.5310  0.4815
 4989TIP3   OH236601   4.970   4.930   7.339  0.4233  0.5902  0.3374
 4989TIP3    H136602   4.935   4.894   7.420 -0.1450 -0.4658 -0.3517
 4989TIP3    H236603   5.064   4.937   7.354  0.2939  0.6362  1.1622
 4990TIP3   OH236604   4.052   3.259   1.571 -0.0383  0.1541 -0.0787
 4990TIP3    H136605   3.998   3.210   1.508  0.5386  1.2880 -1.5220
 4990TIP3    H236606   4.137   3.213   1.569  0.6290  1.3443 -1.7306
 4991TIP3   OH236607   3.610   0.222   1.706 -0.4078 -0.2672  0.0134
 4991TIP3    H136608   3.555   0.290   1.667 -0.3636 -0.5274 -0.5106
 4991TIP3    H236609   3.588   0.143   1.657  0.8948 -0.2425 -0.6409
 4992TIP3   OH236610   6.483   4.903   1.284  0.3041  0.0306  0.0357
 4992TIP3    H136611   6.424   4.872   1.352  0.6381  0.2921  0.4547
 4992TIP3    H236612   6.475   4.840   1.213  1.2892 -1.2727  1.0309
 4993TIP3   OH236613   5.819   2.657   7.350  0.3181  0.0467  0.4359
 4993TIP3    H136614   5.877   2.698   7.414 -0.1036  1.4229 -0.0155
 4993TIP3    H236615   5.825   2.563   7.368  0.0802  0.4056  2.5904
 4994TIP3   OH236616   5.367   5.849   0.973  0.2508  0.3268 -0.6165
 4994TIP3    H136617   5.316   5.835   1.053  0.2460 -1.1530 -0.8480
 4994TIP3    H236618   5.392   5.761   0.945  0.9113  0.8757 -1.8225
 4995TIP3   OH236619   5.922   3.911   1.844 -0.4377 -0.2880  0.2608
 4995TIP3    H136620   5.978   3.957   1.906  0.2994 -0.1323 -0.5082
 4995TIP3    H236621   5.959   3.931   1.759 -1.0918 -0.9721 -0.1953
 4996TIP3   OH236622   4.907   2.075   0.030 -0.0097  0.5184  0.1884
 4996TIP3    H136623   4.874   2.165   0.029 -1.0923  0.1802  1.8197
 4996TIP3    H236624   4.991   2.082   0.075 -0.2401  0.6754  0.5986
 4997TIP3   OH236625   6.290   1.147   0.304  0.3138  0.0393  0.3125
 4997TIP3    H136626   6.295   1.117   0.213  1.3309  1.4753 -0.1410
 4997TIP3    H236627   6.203   1.184   0.312 -0.8034 -2.4622  0.7523
 4998TIP3   OH236628   1.393   4.012   2.882 -0.1481 -0.1945  0.2755
 4998TIP3    H136629   1.462   4.022   2.816  1.0776 -0.0183  1.5290
 4998TIP3    H236630   1.368   3.920   2.876  0.4322 -0.3422  0.0176
 4999TIP3   OH236631   0.753   5.426   7.323  0.2161 -0.1920 -0.1917
 4999TIP3    H136632   0.826   5.406   7.263  0.0639 -0.0438 -0.4286
 4999TIP3    H236633   0.675   5.400   7.274  0.2405 -3.7057  1.3576
 5000TIP3   OH236634   0.960   3.191   1.408 -0.1072 -0.2234  0.3816
 5000TIP3    H136635   1.015   3.214   1.332  0.8516  0.0804  1.1409
 5000TIP3    H236636   1.013   3.217   1.483 -1.0125 -0.6064  1.1585
 5001TIP3   OH236637   0.312   5.177   0.609  0.3469 -0.5792  0.1202
 5001TIP3    H136638   0.236   5.229   0.584 -0.5444 -2.2396 -0.8349
 5001TIP3    H236639   0.296   5.153   0.700 -0.3379 -0.9801 -0.0955
 5002TIP3   OH236640   1.487   4.948   2.486 -0.3786 -0.5272  0.0671
 5002TIP3    H136641   1.437   4.922   2.564  0.0554 -0.5631  0.3383
 5002TIP3    H236642   1.576   4.964   2.519 -0.9109  2.8279  0.2366
 5003TIP3   OH236643   0.120   2.311   8.617 -0.0805 -0.4682  0.0699
 5003TIP3    H136644   0.180   2.241   8.592  0.1603 -0.2811  0.1223
 5003TIP3    H236645   0.049   2.267   8.664  0.7090 -0.5406  1.2385
 5004TIP3   OH236646   0.423   6.799   1.468 -0.1373  0.3939  0.1706
 5004TIP3    H136647   0.422   6.863   1.539 -2.5692 -0.9029  1.4131
 5004TIP3    H236648   0.426   6.714   1.512  0.3197 -0.4191 -1.3568
 5005TIP3   OH236649   5.143   4.646   2.971  0.5819  0.0387 -0.2451
 5005TIP3    H136650   5.052   4.637   2.943  0.5819  2.3632 -1.2873
 5005TIP3    H236651   5.192   4.587   2.914 -0.2169 -0.9828  0.1004
 5006TIP3   OH236652   5.386   3.893   0.855 -0.3838 -0.1680  0.6852
 5006TIP3    H136653   5.358   3.892   0.763 -0.2715 -0.2937  0.6517
 5006TIP3    H236654   5.350   3.813   0.892  0.9373 -0.9610  0.3318
 5007TIP3   OH236655   4.226   6.307   2.090  0.4259  0.1676 -0.0143
 5007TIP3    H136656   4.194   6.379   2.036  0.9331  0.0858 -0.4306
 5007TIP3    H236657   4.171   6.310   2.169 -1.1995 -0.5217 -1.0634
 5008TIP3   OH236658   1.520   1.968   3.258  0.1522  0.2962 -0.3189
 5008TIP3    H136659   1.569   2.042   3.223  1.0740 -0.5208 -0.8088
 5008TIP3    H236660   1.585   1.899   3.269 -0.8057 -0.6667 -0.5229
 5009TIP3   OH236661   1.159   5.290   8.550 -0.2195 -0.4292 -0.5852
 5009TIP3    H136662   1.205   5.221   8.502  0.8230  1.4900 -2.5087
 5009TIP3    H236663   1.092   5.320   8.489 -0.8733  0.0786  0.3541
 5010TIP3   OH236664   0.285   6.710   8.383  0.1010 -0.0839  0.1148
 5010TIP3    H136665   0.241   6.695   8.467  0.0290  0.2674  0.1395
 5010TIP3    H236666   0.232   6.662   8.320 -0.8456  1.0672 -0.0006
 5011TIP3   OH236667   3.251   1.283   0.813  0.0257 -0.0388  0.7753
 5011TIP3    H136668   3.186   1.218   0.789  2.0097 -2.1929  0.9463
 5011TIP3    H236669   3.305   1.240   0.879  1.2804  1.8838  1.0796
 5012TIP3   OH236670   5.652   1.611   3.389 -0.0986  0.1358 -0.2185
 5012TIP3    H136671   5.684   1.696   3.419  1.7924  0.0445 -1.7227
 5012TIP3    H236672   5.687   1.548   3.452 -0.3002  0.3438  0.1035
 5013TIP3   OH236673   1.710   4.198   3.450  0.2848 -0.1448  0.0687
 5013TIP3    H136674   1.754   4.143   3.385 -0.0770 -0.2660 -0.0751
 5013TIP3    H236675   1.745   4.286   3.434 -0.1264 -0.0960 -0.5787
 5014TIP3   OH236676   0.978   0.168   1.070 -0.3597  0.5243 -0.2833
 5014TIP3    H136677   0.935   0.135   0.991 -0.5897 -0.2057  0.1456
 5014TIP3    H236678   1.007   0.090   1.117  1.4177  0.9759 -0.5401
 5015TIP3   OH236679   4.207   1.088   1.926 -0.4722  0.1317  0.1076
 5015TIP3    H136680   4.245   1.139   1.855  1.8666 -0.9231  0.5092
 5015TIP3    H236681   4.194   1.151   1.997  3.1061  0.2094  0.8893
 5016TIP3   OH236682   5.160   6.384   3.139  0.4951  0.7166 -0.2055
 5016TIP3    H136683   5.157   6.406   3.232 -2.4329 -1.1435  0.2935
 5016TIP3    H236684   5.200   6.297   3.135  0.4353  0.7021 -0.6417
 5017TIP3   OH236685   5.303   4.987   0.541  0.2606 -0.0847  0.1327
 5017TIP3    H136686   5.238   5.016   0.604 -0.7534  0.2614 -1.0440
 5017TIP3    H236687   5.306   5.056   0.475 -0.1216 -1.3013 -1.2081
 5018TIP3   OH236688   5.773   4.437   2.110 -0.2864 -0.2446  0.6011
 5018TIP3    H136689   5.707   4.500   2.080  0.6207  1.1811  1.4496
 5018TIP3    H236690   5.752   4.357   2.063 -2.2062  0.3400  0.3357
 5019TIP3   OH236691   2.143   0.235   0.411 -0.3068 -0.1555  0.2333
 5019TIP3    H136692   2.212   0.172   0.430 -0.0397  0.3366  0.9891
 5019TIP3    H236693   2.065   0.199   0.452 -0.3156 -0.3353  0.0564
 5020TIP3   OH236694   5.288   1.814   2.558  0.1432  0.5316 -0.1019
 5020TIP3    H136695   5.268   1.819   2.651  3.1581 -0.0008  0.7071
 5020TIP3    H236696   5.380   1.785   2.555 -0.1313 -0.4504 -3.2557
 5021TIP3   OH236697   4.091   6.128   0.750 -0.5762  0.0955 -1.0395
 5021TIP3    H136698   4.004   6.144   0.712  0.0189 -0.6692 -2.8030
 5021TIP3    H236699   4.151   6.128   0.675  0.9758  0.6697  0.1515
 5022TIP3   OH236700   2.839   2.233   2.818  0.4609 -0.2654 -0.1574
 5022TIP3    H136701   2.775   2.258   2.884  0.5738 -3.4564  1.3536
 5022TIP3    H236702   2.923   2.265   2.851  0.3457 -0.8138  0.6947
 5023TIP3   OH236703   5.688   5.786   0.081 -0.1636 -0.2623  0.2352
 5023TIP3    H136704   5.740   5.817   0.007 -2.0527  0.6507 -0.7766
 5023TIP3    H236705   5.646   5.864   0.116 -0.5158 -0.9028  1.3135
 5024TIP3   OH236706   5.103   4.536   0.195  0.0874 -0.0714 -0.1098
 5024TIP3    H136707   5.185   4.566   0.156 -0.2718  0.7138 -0.2789
 5024TIP3    H236708   5.077   4.461   0.142 -0.6689  1.2833 -1.7683
 5025TIP3   OH236709   1.675   6.240   3.034 -0.3373 -0.1803 -0.0304
 5025TIP3    H136710   1.628   6.160   3.058  0.6852 -0.3558  1.5847
 5025TIP3    H236711   1.764   6.209   3.014 -0.4401  0.3351 -1.3475
 5026TIP3   OH236712   4.258   1.778   1.786 -0.0990 -0.0322 -0.2209
 5026TIP3    H136713   4.192   1.709   1.795 -0.0191  0.0155  0.8236
 5026TIP3    H236714   4.222   1.837   1.719 -2.0269  1.0015  1.6302
 5027TIP3   OH236715   1.478   6.426   2.915  0.0525 -0.1971  0.1754
 5027TIP3    H136716   1.436   6.429   3.002  0.3477  0.8218  0.2976
 5027TIP3    H236717   1.564   6.388   2.931  0.1273  0.0403  0.3360
 5028TIP3   OH236718   6.220   3.587   0.062 -0.0563 -0.3008 -0.3881
 5028TIP3    H136719   6.230   3.560   0.153 -0.8889  1.0901  0.1443
 5028TIP3    H236720   6.126   3.602   0.051 -0.3634 -2.8401 -2.2250
 5029TIP3   OH236721   5.528   3.310   1.987  0.2998  0.5546 -0.1302
 5029TIP3    H136722   5.595   3.285   2.051 -1.1165 -0.2108  1.1384
 5029TIP3    H236723   5.575   3.321   1.905  2.1023  0.9291  0.9037
 5030TIP3   OH236724   3.569   2.122   0.794 -0.1742  0.1066 -0.0880
 5030TIP3    H136725   3.600   2.034   0.772  2.0623  0.8675 -0.2586
 5030TIP3    H236726   3.608   2.141   0.880 -1.6493  0.4880  0.5296
 5031TIP3   OH236727   5.004   1.543   0.573  0.5280  0.5617  0.2188
 5031TIP3    H136728   4.975   1.628   0.542  1.1657  1.1205  1.1072
 5031TIP3    H236729   5.099   1.548   0.571  0.5893 -0.5377 -0.7774
 5032TIP3   OH236730   4.288   0.843   8.578 -0.4288 -0.4987 -0.6703
 5032TIP3    H136731   4.224   0.815   8.644 -1.7033  0.7677 -1.3085
 5032TIP3    H236732   4.269   0.787   8.502  2.1254 -3.1208  0.4463
 5033TIP3   OH236733   0.188   0.939   1.251 -0.0125 -0.2092  0.3480
 5033TIP3    H136734   0.139   1.021   1.246 -2.8647 -1.8284 -1.5706
 5033TIP3    H236735   0.213   0.921   1.160  1.4392 -0.9868  0.8787
 5034TIP3   OH236736   4.493   3.744   2.117  0.2876 -0.4345  0.1841
 5034TIP3    H136737   4.516   3.816   2.058  0.6146 -2.1119 -1.8701
 5034TIP3    H236738   4.573   3.691   2.122 -0.4623 -1.5999  0.1729
 5035TIP3   OH236739   3.009   0.548   1.699 -0.2480  0.3307  0.4003
 5035TIP3    H136740   2.932   0.526   1.646  0.1930 -0.4365  0.0637
 5035TIP3    H236741   3.004   0.488   1.774  1.8598 -2.2877 -1.3476
 5036TIP3   OH236742   4.498   5.520   2.866 -0.2800 -0.5293 -0.2400
 5036TIP3    H136743   4.581   5.528   2.912 -1.2461 -1.7525  1.8905
 5036TIP3    H236744   4.513   5.452   2.800 -0.1036 -2.4295  1.6357
 5037TIP3   OH236745   6.419   1.175   7.224  0.6747 -0.2695 -0.0072
 5037TIP3    H136746   6.332   1.136   7.212  1.0848 -1.2841  0.2418
 5037TIP3    H236747   6.404   1.248   7.283 -0.4027  1.1172 -1.8951
 5038TIP3   OH236748   3.178   0.269   2.835  0.1065 -0.0116 -0.1418
 5038TIP3    H136749   3.269   0.294   2.850  0.2063 -0.6304  0.2872
 5038TIP3    H236750   3.183   0.187   2.786 -0.2232  0.4767 -1.0075
 5039TIP3   OH236751   5.387   2.625   8.404 -0.1207  0.0004  0.7543
 5039TIP3    H136752   5.361   2.595   8.491  0.5602 -1.8300  0.3660
 5039TIP3    H236753   5.323   2.693   8.382 -2.7178 -2.1913  1.0583
 5040TIP3   OH236754   5.558   6.829   0.094 -0.0247 -0.0523  0.4022
 5040TIP3    H136755   5.524   6.741   0.109 -0.0422  0.2367  2.3121
 5040TIP3    H236756   5.558   6.870   0.180  0.6700  1.5850 -0.3266
 5041TIP3   OH236757   3.575   3.992   0.781  0.4783  0.1299 -0.5292
 5041TIP3    H136758   3.604   3.975   0.871 -0.4915 -1.6739 -0.4986
 5041TIP3    H236759   3.655   4.010   0.733  0.9588  1.7683  0.7960
 5042TIP3   OH236760   6.259   4.054   2.249  0.2693 -0.2241 -0.1758
 5042TIP3    H136761   6.310   3.980   2.282  1.5939  0.8122  0.1672
 5042TIP3    H236762   6.212   4.088   2.326  0.2386 -0.2473 -0.1840
 5043TIP3   OH236763   3.395   5.813   8.319  0.1719  0.6651  0.2987
 5043TIP3    H136764   3.390   5.909   8.325  0.0867  0.6579  0.3334
 5043TIP3    H236765   3.472   5.797   8.263  0.1346  0.7554  0.2209
 5044TIP3   OH236766   0.015   4.744   3.285 -0.5087 -0.4441 -0.2743
 5044TIP3    H136767  -0.038   4.734   3.364  0.0436  0.0424  0.1684
 5044TIP3    H236768   0.100   4.777   3.317  0.6907 -2.8657 -0.7663
 5045TIP3   OH236769   4.376   1.386   2.540  0.1193 -1.0489  0.2985
 5045TIP3    H136770   4.422   1.312   2.580  1.4788 -1.2246 -1.4751
 5045TIP3    H236771   4.323   1.347   2.470 -1.7122 -0.6771  1.3996
 5046TIP3   OH236772   3.704   1.890   0.098  0.2803 -0.4672 -0.0335
 5046TIP3    H136773   3.752   1.924   0.022  1.2569  0.8367  1.1076
 5046TIP3    H236774   3.763   1.824   0.135  0.1511 -0.5476  0.0266
 5047TIP3   OH236775   1.057   0.020   7.978  0.5961  0.1952  0.1778
 5047TIP3    H136776   1.020  -0.056   8.023 -1.6281  1.8042  1.2600
 5047TIP3    H236777   1.116   0.059   8.042 -0.2524  0.7901  0.6178
 5048TIP3   OH236778   4.166   4.983   0.265  0.1365 -0.4103  0.1709
 5048TIP3    H136779   4.176   4.937   0.182 -1.0592 -0.7102  0.1703
 5048TIP3    H236780   4.074   5.009   0.267  0.1887 -0.2576  1.3163
 5049TIP3   OH236781   4.893   1.265   0.096 -0.1106  0.3373 -0.4275
 5049TIP3    H136782   4.916   1.295   0.184  2.1834 -1.1803 -0.4362
 5049TIP3    H236783   4.810   1.220   0.107 -1.0091  2.1199  0.5102
 5050TIP3   OH236784   2.813   5.532   8.362 -0.1898 -0.6006 -0.1781
 5050TIP3    H136785   2.817   5.454   8.418 -0.1900 -0.3471  0.1769
 5050TIP3    H236786   2.763   5.504   8.285 -1.4016 -0.5715  0.5742
 5051TIP3   OH236787   3.703   3.167   2.247  0.0922  0.0393  0.2710
 5051TIP3    H136788   3.662   3.113   2.315 -0.9130  1.4398  0.8241
 5051TIP3    H236789   3.641   3.164   2.174  0.7657 -0.7589 -0.2994
 5052TIP3   OH236790   5.996   3.979   0.976  0.5039  0.3813  0.0939
 5052TIP3    H136791   5.997   4.057   0.921 -1.1540 -0.3062 -0.9801
 5052TIP3    H236792   5.904   3.955   0.984  0.9677 -1.6069  0.1809
 5053TIP3   OH236793   5.698   3.624   2.248  0.2197  0.2096 -0.1431
 5053TIP3    H136794   5.758   3.639   2.175 -1.1051  1.0333 -1.1136
 5053TIP3    H236795   5.675   3.712   2.278  0.4156 -0.1155  0.9964
 5054TIP3   OH236796   6.018   4.786   1.524  0.0828 -0.2800 -0.4824
 5054TIP3    H136797   6.086   4.721   1.503  0.2841 -0.7046  1.2895
 5054TIP3    H236798   5.937   4.746   1.494  0.4417 -0.3752 -1.3767
 5055TIP3   OH236799   3.544   0.701   3.506 -0.1268 -0.6916  0.3792
 5055TIP3    H136800   3.454   0.728   3.487  0.2704 -0.5633 -1.5136
 5055TIP3    H236801   3.583   0.777   3.549 -0.7146 -0.5067  0.5987
 5056TIP3   OH236802   1.560   5.048   8.415 -0.1271  0.0910 -0.1778
 5056TIP3    H136803   1.486   5.007   8.370 -1.5374  2.4511 -0.1279
 5056TIP3    H236804   1.624   5.065   8.346 -0.4313 -0.2367 -0.5405
 5057TIP3   OH236805   6.308   3.914   3.274 -0.1023 -0.0051  1.0775
 5057TIP3    H136806   6.293   3.819   3.278 -0.2899 -0.0368 -0.1517
 5057TIP3    H236807   6.403   3.922   3.266 -0.1911 -0.1504 -0.2257
 5058TIP3   OH236808   4.684   5.432   1.582 -0.2751  0.1032 -0.2985
 5058TIP3    H136809   4.703   5.380   1.504 -0.1432  0.2238 -0.3456
 5058TIP3    H236810   4.593   5.410   1.603 -0.7484  1.0463 -1.2399
 5059TIP3   OH236811   0.404   2.871   2.526  0.2261 -0.2309 -0.0215
 5059TIP3    H136812   0.380   2.839   2.439 -1.2040 -1.5394  0.7972
 5059TIP3    H236813   0.383   2.965   2.524 -0.6706 -0.4319 -0.8102
 5060TIP3   OH236814   3.351   5.217   2.409 -0.2447 -0.5452  0.2403
 5060TIP3    H136815   3.278   5.262   2.449  0.3068  0.9315 -0.3568
 5060TIP3    H236816   3.423   5.227   2.471 -0.4283 -1.7079  0.6741
 5061TIP3   OH236817   4.618   5.975   0.506  0.4188  0.1016  0.4328
 5061TIP3    H136818   4.561   5.956   0.581 -1.5068 -1.0166 -1.2148
 5061TIP3    H236819   4.595   5.909   0.441  2.6691  0.4792 -0.8484
 5062TIP3   OH236820   0.034   2.121   7.962 -0.0481 -0.2532  0.3498
 5062TIP3    H136821   0.107   2.061   7.976  0.2209  0.2154  1.0022
 5062TIP3    H236822  -0.005   2.093   7.879  0.0842 -1.3135  0.6399
 5063TIP3   OH236823   1.464   2.738   1.259  0.3200 -0.0682  0.0286
 5063TIP3    H136824   1.384   2.780   1.290  0.1786  0.2297 -0.7081
 5063TIP3    H236825   1.533   2.802   1.274  0.4883 -0.4815  1.0316
 5064TIP3   OH236826   0.847   5.711   1.922 -0.0754 -0.2737 -0.0614
 5064TIP3    H136827   0.769   5.706   1.978 -0.4198  0.4319 -0.4662
 5064TIP3    H236828   0.903   5.776   1.963 -0.4333  0.4218 -0.6456
 5065TIP3   OH236829   6.789   6.845   3.633 -0.1275 -0.3790 -0.2672
 5065TIP3    H136830   6.827   6.805   3.712 -0.6662 -1.3451 -0.4868
 5065TIP3    H236831   6.711   6.794   3.615 -1.1369  1.1011 -0.2805
 5066TIP3   OH236832   6.849   2.321   0.456 -0.2480 -0.3232  0.0840
 5066TIP3    H136833   6.805   2.376   0.522  2.6951 -0.4431  2.3629
 5066TIP3    H236834   6.852   2.376   0.378 -1.6875  0.8168  0.7639
 5067TIP3   OH236835   1.385   6.676   8.155  0.3115 -0.3068  0.0147
 5067TIP3    H136836   1.435   6.731   8.094 -1.6267  0.8844 -0.5735
 5067TIP3    H236837   1.341   6.613   8.099 -0.9383  0.3558  0.2268
 5068TIP3   OH236838   0.222   0.388   2.889 -0.4247  0.2641  0.5473
 5068TIP3    H136839   0.291   0.348   2.942  0.1863  1.7817  0.9509
 5068TIP3    H236840   0.165   0.432   2.953 -1.7031 -0.8102  0.2039
 5069TIP3   OH236841   4.240   3.180   1.978  0.0307  0.1525 -0.3239
 5069TIP3    H136842   4.184   3.154   2.051  0.0746 -2.9117 -1.2080
 5069TIP3    H236843   4.196   3.255   1.938 -1.0858  0.5547  1.5642
 5070TIP3   OH236844   2.837   6.049   2.127 -0.9433  0.0748 -0.5665
 5070TIP3    H136845   2.761   6.021   2.177  0.1682 -1.9708  0.0743
 5070TIP3    H236846   2.805   6.055   2.037 -2.1547  0.5654 -0.1254
 5071TIP3   OH236847   3.137   3.295   0.226 -0.2556 -0.1301  0.1743
 5071TIP3    H136848   3.061   3.331   0.181  0.4583 -0.0868 -1.0309
 5071TIP3    H236849   3.101   3.224   0.281 -1.5014  1.5239  1.6224
 5072TIP3   OH236850   5.922   5.798   2.793 -0.8950  0.4717  0.6257
 5072TIP3    H136851   5.917   5.782   2.888 -0.3040  1.0698  0.7672
 5072TIP3    H236852   5.996   5.745   2.764  1.2962  3.0549  1.1575
 5073TIP3   OH236853   6.814   4.142   7.700 -0.0734  0.3941  0.0326
 5073TIP3    H136854   6.812   4.228   7.743  0.3915 -0.4283  1.7545
 5073TIP3    H236855   6.754   4.088   7.751  1.4501 -0.9560  0.4593
 5074TIP3   OH236856   2.781   3.622   2.436  0.3191  0.3793  0.3306
 5074TIP3    H136857   2.733   3.695   2.396 -1.0781 -0.2157  0.8598
 5074TIP3    H236858   2.857   3.663   2.476  0.5107  1.3004 -0.8976
 5075TIP3   OH236859   6.330   5.118   1.644 -0.4162  1.0926 -0.3056
 5075TIP3    H136860   6.355   5.130   1.736  0.4102  1.7496 -0.6105
 5075TIP3    H236861   6.375   5.037   1.618 -0.4519  1.0404 -0.2094
 5076TIP3   OH236862   5.911   0.363   8.097 -0.2330 -0.1565  0.2954
 5076TIP3    H136863   5.856   0.305   8.045  0.9518 -1.3725  0.3332
 5076TIP3    H236864   6.000   0.332   8.081  0.5724  2.3321 -0.5217
 5077TIP3   OH236865   0.809   2.707   1.744  0.2704  0.3384  0.2562
 5077TIP3    H136866   0.823   2.740   1.833  1.5445  0.4047  0.0415
 5077TIP3    H236867   0.851   2.621   1.743  0.1747  0.2939 -0.2593
 5078TIP3   OH236868   3.391   1.983   1.832  0.2071  0.1556 -0.2013
 5078TIP3    H136869   3.323   1.942   1.778  0.8675  0.1346 -1.0440
 5078TIP3    H236870   3.360   1.972   1.922 -1.0784  0.4672 -0.5826
 5079TIP3   OH236871   6.822   6.314   1.435 -0.0430 -0.0190  0.0679
 5079TIP3    H136872   6.752   6.258   1.470 -0.7437  0.3919 -0.6413
 5079TIP3    H236873   6.811   6.397   1.480 -0.0193  0.0461 -0.0453
 5080TIP3   OH236874   0.182   2.707   8.567 -1.3096  0.2707  0.3323
 5080TIP3    H136875   0.151   2.631   8.517 -0.5558 -0.5769  1.1334
 5080TIP3    H236876   0.139   2.782   8.524  0.9297 -0.1377 -3.0035
 5081TIP3   OH236877   2.180   3.925   8.402  0.3845 -0.5981  0.0599
 5081TIP3    H136878   2.178   3.841   8.446  0.7355 -0.7612 -0.2278
 5081TIP3    H236879   2.251   3.917   8.338  2.5761  0.9422  2.0951
 5082TIP3   OH236880   0.034   2.908   8.403 -0.0291  0.5320  0.0967
 5082TIP3    H136881  -0.009   2.914   8.489  0.8815  1.3346  0.5169
 5082TIP3    H236882  -0.035   2.876   8.344 -0.8657  0.6438  0.9816
 5083TIP3   OH236883   0.879   3.218   8.655 -0.2868  0.3036 -0.0641
 5083TIP3    H136884   0.849   3.257   8.737 -1.5685 -0.7284 -0.0005
 5083TIP3    H236885   0.844   3.129   8.657 -1.2588  0.5594 -2.1717
 5084TIP3   OH236886   5.162   3.348   1.294  0.4359  0.3020 -0.3234
 5084TIP3    H136887   5.175   3.358   1.200  0.5736  1.5696 -0.1788
 5084TIP3    H236888   5.143   3.436   1.326 -1.5081 -0.3693  0.5499
 5085TIP3   OH236889   2.198   2.393   8.626 -0.1235 -0.3204  0.4219
 5085TIP3    H136890   2.228   2.484   8.630  1.0704 -0.7324  1.5790
 5085TIP3    H236891   2.117   2.397   8.574 -0.8547  1.5956  1.5993
 5086TIP3   OH236892   4.491   4.030   1.947 -0.3686  0.4244  0.5585
 5086TIP3    H136893   4.574   4.048   1.903 -0.5212 -0.6174 -0.1751
 5086TIP3    H236894   4.424   4.063   1.888 -0.5665 -0.8248  0.0501
 5087TIP3   OH236895   1.889   4.891   1.322 -0.4107  0.4957  0.0380
 5087TIP3    H136896   1.808   4.841   1.327  0.2854 -0.5584  2.2846
 5087TIP3    H236897   1.863   4.981   1.339 -0.9688 -0.0994  2.8491
 5088TIP3   OH236898   4.629   3.883   2.455 -0.4327 -0.1321  1.1954
 5088TIP3    H136899   4.710   3.930   2.477 -0.8009  2.2603 -1.8225
 5088TIP3    H236900   4.559   3.943   2.483 -1.0260 -0.3201  0.1390
 5089TIP3   OH236901   1.998   1.191   0.403  0.2861  0.2824 -0.2063
 5089TIP3    H136902   2.019   1.104   0.368  0.6006  0.2843 -0.0204
 5089TIP3    H236903   1.908   1.183   0.436  0.6918 -0.2734  0.7989
 5090TIP3   OH236904   1.827   3.758   2.339 -0.3726  0.5238 -0.6944
 5090TIP3    H136905   1.749   3.745   2.286  0.7465 -1.2214 -2.0198
 5090TIP3    H236906   1.828   3.684   2.399 -0.5913  1.4370  0.4727
 5091TIP3   OH236907   4.247   1.250   3.712 -0.4908 -0.2569  0.0913
 5091TIP3    H136908   4.263   1.159   3.686  1.0195 -0.2018  0.7373
 5091TIP3    H236909   4.296   1.301   3.648 -1.6845  0.1433 -0.5286
 5092TIP3   OH236910   0.534   2.036   0.771 -0.0807  0.0121  0.3135
 5092TIP3    H136911   0.614   2.088   0.764 -0.4820  0.7854  1.1343
 5092TIP3    H236912   0.467   2.090   0.728 -0.4561  0.0868  0.9753
 5093TIP3   OH236913   6.536   1.697   7.705 -0.6014  0.3959 -0.3787
 5093TIP3    H136914   6.505   1.617   7.663 -0.1162  0.3273 -0.6075
 5093TIP3    H236915   6.502   1.768   7.650 -0.9073  0.3460 -0.2570
 5094TIP3   OH236916   1.476   2.313   0.556 -0.5576  0.1694 -0.2171
 5094TIP3    H136917   1.554   2.324   0.502 -0.4305 -0.1492 -0.1022
 5094TIP3    H236918   1.429   2.396   0.547 -0.1716  0.3908 -0.2338
 5095TIP3   OH236919   3.659   2.638   0.301 -0.2651 -0.2813 -0.1224
 5095TIP3    H136920   3.721   2.623   0.372  0.3884  1.6762 -0.2361
 5095TIP3    H236921   3.712   2.672   0.229 -1.4039  1.4042 -0.2274
 5096TIP3   OH236922   3.872   0.263   0.347 -0.0202  0.4367  0.0537
 5096TIP3    H136923   3.908   0.175   0.347  0.1206  0.4459 -2.0975
 5096TIP3    H236924   3.949   0.321   0.347 -0.1089  0.6131  1.9847
 5097TIP3   OH236925   0.701   4.554   0.497  0.4869 -0.7118  0.4864
 5097TIP3    H136926   0.646   4.599   0.433  1.5544 -0.4263 -0.2586
 5097TIP3    H236927   0.690   4.605   0.578  3.2833  2.3778 -0.8105
 5098TIP3   OH236928   2.045   5.380   1.921 -0.2956  0.4031 -0.8566
 5098TIP3    H136929   2.131   5.354   1.887  1.2923  0.9432  2.3349
 5098TIP3    H236930   2.010   5.301   1.961 -2.0563 -0.1788 -3.2876
 5099TIP3   OH236931   1.622   0.489   0.955  0.3454  0.1824 -0.7011
 5099TIP3    H136932   1.533   0.464   0.932 -0.2784  0.9030  0.8371
 5099TIP3    H236933   1.673   0.409   0.942 -1.1218 -1.2158  1.5001
 5100TIP3   OH236934   3.863   6.101   1.899  0.7081  0.3152 -0.6822
 5100TIP3    H136935   3.952   6.128   1.877  1.7221 -2.6414 -0.6841
 5100TIP3    H236936   3.811   6.125   1.822  1.3121  2.6735 -0.4147
 5101TIP3   OH236937   1.001   1.951   8.551  0.4163 -0.1319  0.1807
 5101TIP3    H136938   1.057   1.883   8.515  0.4123  0.3966 -0.8711
 5101TIP3    H236939   0.925   1.954   8.492 -0.1788 -0.0660  0.9319
 5102TIP3   OH236940   1.279   0.728   0.691 -0.0501 -0.5950 -0.8394
 5102TIP3    H136941   1.242   0.816   0.698  1.5251  0.0125  0.6720
 5102TIP3    H236942   1.249   0.696   0.606 -0.8955  1.2884 -1.3059
 5103TIP3   OH236943   3.282   5.746   7.419  0.1036 -0.7192  0.2803
 5103TIP3    H136944   3.308   5.711   7.505  0.7128  0.4266  0.5766
 5103TIP3    H236945   3.286   5.841   7.429  2.4584 -0.5219 -1.6915
 5104TIP3   OH236946   2.387   5.812   0.482 -0.1227  0.2332 -0.4748
 5104TIP3    H136947   2.313   5.848   0.532 -1.9664 -1.5388 -1.7870
 5104TIP3    H236948   2.453   5.792   0.549 -1.0408  1.2730  0.8046
 5105TIP3   OH236949   5.598   6.218   2.576  0.8251  0.1582 -0.1117
 5105TIP3    H136950   5.607   6.309   2.607 -2.1740  0.4294  0.2861
 5105TIP3    H236951   5.601   6.166   2.656 -3.6565  0.5834  0.5922
 5106TIP3   OH236952   2.559   0.264   1.423 -0.0203  0.3616 -0.6967
 5106TIP3    H136953   2.588   0.282   1.333  1.8520  0.2027 -0.1851
 5106TIP3    H236954   2.639   0.235   1.467 -1.2603 -1.2272  0.5976
 5107TIP3   OH236955   2.321   2.700   2.333 -0.1021  0.0231 -0.1029
 5107TIP3    H136956   2.395   2.742   2.376  0.5453  0.6960 -1.7747
 5107TIP3    H236957   2.346   2.607   2.328 -1.5789 -0.7316  3.6770
 5108TIP3   OH236958   2.386   2.653   1.805  0.1327  0.1804 -0.0236
 5108TIP3    H136959   2.406   2.703   1.725 -0.7044  1.1691  0.3602
 5108TIP3    H236960   2.321   2.706   1.851 -0.2484 -0.9315  0.7694
 5109TIP3   OH236961   3.984   3.807   1.847  0.2385 -0.9592  0.0412
 5109TIP3    H136962   3.974   3.891   1.892  0.6618 -0.7740 -0.2040
 5109TIP3    H236963   3.911   3.754   1.878 -0.1335 -0.4387  0.0600
 5110TIP3   OH236964   6.717   0.819   2.955 -0.6728 -0.1158  0.6652
 5110TIP3    H136965   6.677   0.890   2.904 -0.1407 -0.9925 -1.0492
 5110TIP3    H236966   6.805   0.852   2.974 -0.0702 -0.6523 -0.9925
 5111TIP3   OH236967   6.687   2.508   2.190 -0.0992 -0.4861 -0.6371
 5111TIP3    H136968   6.692   2.455   2.111  1.1385 -0.5895 -0.5222
 5111TIP3    H236969   6.681   2.598   2.159  1.2259 -0.4530 -0.8975
 5112TIP3   OH236970   2.178   2.728   7.864 -0.3884 -0.2427 -0.2309
 5112TIP3    H136971   2.095   2.766   7.892 -0.6899 -0.2076 -1.1418
 5112TIP3    H236972   2.168   2.634   7.878  0.2774 -0.0592  1.8215
 5113TIP3   OH236973   6.136   6.425   2.561 -0.2304 -0.2647 -0.2339
 5113TIP3    H136974   6.224   6.402   2.531 -0.0949 -1.6276  1.0746
 5113TIP3    H236975   6.124   6.375   2.642 -1.8863  0.5650  0.0886
 5114TIP3   OH236976   5.793   2.334   7.920  0.0739 -0.4688  0.3152
 5114TIP3    H136977   5.837   2.280   7.856 -0.6293  0.2364 -0.8036
 5114TIP3    H236978   5.700   2.326   7.899 -0.0774  0.7972  0.3966
 5115TIP3   OH236979   4.318   3.599   1.388  0.5963 -0.4810 -0.1600
 5115TIP3    H136980   4.236   3.550   1.396  0.5026 -0.3177 -0.1175
 5115TIP3    H236981   4.352   3.574   1.302 -0.2902  0.6634 -0.8711
 5116TIP3   OH236982   1.328   6.293   2.167  0.1690  0.3309  0.3202
 5116TIP3    H136983   1.281   6.329   2.242  1.5609 -0.5672  1.6913
 5116TIP3    H236984   1.390   6.362   2.143 -0.9130  0.9988 -0.6588
 5117TIP3   OH236985   0.465   4.710   2.396 -0.6983 -0.7433 -0.2024
 5117TIP3    H136986   0.392   4.655   2.368 -0.6806 -1.0302  0.3119
 5117TIP3    H236987   0.513   4.657   2.459  0.9496 -1.2204 -1.7728
 5118TIP3   OH236988   0.572   2.499   1.768  0.0168 -0.0724 -0.1204
 5118TIP3    H136989   0.478   2.486   1.760  0.1997 -1.6399  0.0632
 5118TIP3    H236990   0.583   2.595   1.768 -1.6794  0.1642  1.2029
 5119TIP3   OH236991   0.341   6.621   0.640 -0.7460 -0.1290 -0.1574
 5119TIP3    H136992   0.435   6.636   0.632 -0.7485  0.8783  1.3292
 5119TIP3    H236993   0.314   6.592   0.553  0.5520  1.7218 -1.2646
 5120TIP3   OH236994   2.086   3.888   1.498 -0.3443  0.5429  0.5577
 5120TIP3    H136995   2.179   3.875   1.475 -0.6403  0.4890 -0.7189
 5120TIP3    H236996   2.044   3.806   1.472 -0.8813  0.8864  0.3385
 5121TIP3   OH236997   4.688   6.437   2.573  0.0987 -0.0293 -0.1382
 5121TIP3    H136998   4.664   6.345   2.564  0.2608  0.0427 -1.4891
 5121TIP3    H236999   4.784   6.437   2.573  0.1131  0.2105 -1.2176
 5122TIP3   OH237000   5.456   5.738   2.382 -0.3681 -0.1834  0.5978
 5122TIP3    H137001   5.414   5.814   2.420 -2.3990 -0.9425  0.0379
 5122TIP3    H237002   5.550   5.754   2.391 -0.7525  2.0242  1.1198
 5123TIP3   OH237003   3.732   1.859   1.236 -0.2567  0.0727  0.0244
 5123TIP3    H137004   3.796   1.808   1.285  1.7141  1.1062 -1.3482
 5123TIP3    H237005   3.717   1.937   1.289  2.0726  1.3151 -1.0048
 5124TIP3   OH237006   4.364   4.597   8.185 -0.3066 -0.3741  0.1975
 5124TIP3    H137007   4.343   4.526   8.124  0.6061  0.4221 -1.1217
 5124TIP3    H237008   4.459   4.591   8.196 -0.0110  1.3382 -0.9321
 5125TIP3   OH237009   0.838   1.027   1.671 -0.1753  0.1597  0.1466
 5125TIP3    H137010   0.788   0.992   1.745  0.0157 -0.8352 -0.1771
 5125TIP3    H237011   0.772   1.057   1.609 -0.5162 -2.5310 -0.9577
 5126TIP3   OH237012   6.648   4.152   0.014 -0.7972  0.1629  0.7547
 5126TIP3    H137013   6.577   4.121   0.069 -1.0922  0.3194  0.4602
 5126TIP3    H237014   6.728   4.122   0.059 -0.9442  1.9347  2.3340
 5127TIP3   OH237015   6.868   1.764   0.581  0.1243 -0.4761 -0.6565
 5127TIP3    H137016   6.799   1.761   0.647  3.0975  0.5343  2.7554
 5127TIP3    H237017   6.848   1.842   0.529 -1.2041 -0.1231  0.3248
 5128TIP3   OH237018   2.710   3.433   0.798 -0.2120  0.0581 -0.2876
 5128TIP3    H137019   2.633   3.391   0.834  1.3248 -1.1774  1.7853
 5128TIP3    H237020   2.752   3.365   0.744  0.1664  0.2531 -0.2437
 5129TIP3   OH237021   5.258   4.168   0.336  0.5455  0.5531  0.1277
 5129TIP3    H137022   5.350   4.183   0.357  0.4733  1.1070  0.0672
 5129TIP3    H237023   5.257   4.159   0.241  0.2594  2.8129 -0.1375
 5130TIP3   OH237024   0.360   5.038   1.346  0.2747 -0.5177  0.0651
 5130TIP3    H137025   0.318   4.953   1.334  0.5380 -1.0693  2.4437
 5130TIP3    H237026   0.290   5.096   1.377 -0.1412  0.4892 -2.5615
 5131TIP3   OH237027   5.768   2.888   0.871 -0.0021 -0.3321  0.2277
 5131TIP3    H137028   5.791   2.888   0.778  0.8353 -0.5210  0.4261
 5131TIP3    H237029   5.851   2.900   0.916 -0.5353  0.8981  0.9251
 5132TIP3   OH237030   1.202   2.359   8.392 -0.3920 -0.4569  0.2182
 5132TIP3    H137031   1.169   2.421   8.457  0.0833 -0.1672  0.1892
 5132TIP3    H237032   1.293   2.384   8.379 -0.4276 -0.6286 -0.4235
 5133TIP3   OH237033   0.237   4.706   0.926  0.2316  0.0427  0.2410
 5133TIP3    H137034   0.188   4.638   0.971 -1.3183  1.5450  0.9353
 5133TIP3    H237035   0.199   4.710   0.838  0.1588  0.1805  0.2789
 5134TIP3   OH237036   5.132   5.151   7.787  0.4107 -0.1557 -0.1532
 5134TIP3    H137037   5.110   5.066   7.749 -1.2483  0.7309 -1.2972
 5134TIP3    H237038   5.168   5.130   7.874  1.5552 -2.0679 -1.0405
 5135TIP3   OH237039   2.510   6.824   3.147 -0.6863 -0.1942  0.4946
 5135TIP3    H137040   2.534   6.916   3.156  0.8028 -0.2188 -2.0974
 5135TIP3    H237041   2.587   6.784   3.106 -1.5684 -2.4527  0.9243
 5136TIP3   OH237042   2.793   1.121   2.885  0.7047 -0.2564 -0.1735
 5136TIP3    H137043   2.855   1.050   2.870  0.2312 -0.8665  0.6291
 5136TIP3    H237044   2.775   1.118   2.979 -0.5909 -0.1623 -0.3923
 5137TIP3   OH237045   0.065   0.896   3.075  0.1915 -0.4067 -0.7815
 5137TIP3    H137046   0.143   0.950   3.059 -1.2153  1.8590 -0.3808
 5137TIP3    H237047   0.096   0.828   3.134  2.0594 -0.0682 -1.2861
 5138TIP3   OH237048   3.926   5.740   0.806  0.4812 -0.2771  0.0379
 5138TIP3    H137049   3.927   5.659   0.856 -1.5047 -0.0627  0.5313
 5138TIP3    H237050   3.913   5.712   0.715  1.5848 -0.5575 -0.0487
 5139TIP3   OH237051   0.878   3.784   1.561  0.4633 -0.2542  0.0653
 5139TIP3    H137052   0.955   3.768   1.616 -0.8859  0.1807  2.1923
 5139TIP3    H237053   0.844   3.696   1.542  0.4473 -0.3886  0.6876
 5140TIP3   OH237054   0.088   4.776   0.167  0.5888 -0.4874 -0.6213
 5140TIP3    H137055   0.044   4.691   0.166 -0.8631  0.2157  0.3529
 5140TIP3    H237056   0.046   4.825   0.097 -0.6472  0.3841  0.6851
 5141TIP3   OH237057   2.589   3.642   3.598 -0.3178 -0.7424 -0.2431
 5141TIP3    H137058   2.624   3.695   3.526  1.0980  0.1544  1.0496
 5141TIP3    H237059   2.521   3.697   3.637  0.2034 -0.4424  0.2491
 5142TIP3   OH237060   5.932   0.073   8.220 -0.2856 -0.1763 -0.2124
 5142TIP3    H137061   5.931   0.098   8.128 -2.4327  1.4608  0.1682
 5142TIP3    H237062   5.928  -0.022   8.219 -0.3214 -0.1811 -1.8279
 5143TIP3   OH237063   1.956   6.542   8.118 -0.1236 -0.2965  0.5209
 5143TIP3    H137064   1.886   6.605   8.102  0.0739 -0.4525 -1.1232
 5143TIP3    H237065   2.035   6.586   8.085  0.9847  0.6516  3.9574
 5144TIP3   OH237066   0.889   3.229   1.089  0.4055  0.1531  0.4099
 5144TIP3    H137067   0.958   3.277   1.135  1.2086  0.0990 -0.6989
 5144TIP3    H237068   0.923   3.141   1.079  0.5027  0.3042 -0.7670
 5145TIP3   OH237069   6.777   6.247   7.827 -0.0347 -0.3222 -0.4395
 5145TIP3    H137070   6.846   6.190   7.795  1.6488  0.5877  1.3356
 5145TIP3    H237071   6.697   6.194   7.822  0.8300 -1.5408 -2.1524
 5146TIP3   OH237072   6.116   4.552   1.781 -0.1845  0.6838 -0.2718
 5146TIP3    H137073   6.164   4.623   1.739 -1.9940  1.7463 -0.6571
 5146TIP3    H237074   6.167   4.473   1.761  0.0563  1.4064 -2.8639
 5147TIP3   OH237075   2.704   0.990   3.745 -0.2572  0.3269  0.0237
 5147TIP3    H137076   2.787   0.948   3.721 -0.4537  0.5699 -1.1757
 5147TIP3    H237077   2.637   0.925   3.723 -0.3359 -0.4797  2.4345
 5148TIP3   OH237078   3.568   0.771   8.220  0.5273 -0.1547 -0.0893
 5148TIP3    H137079   3.500   0.704   8.212  0.0947 -0.4398  3.9412
 5148TIP3    H237080   3.611   0.751   8.303  3.9473  1.5376 -1.2666
 5149TIP3   OH237081   4.017   4.179   2.987  0.1707 -0.5005 -0.1201
 5149TIP3    H137082   3.996   4.264   2.949 -1.9658 -0.3467  1.2568
 5149TIP3    H237083   3.987   4.116   2.921 -0.0393 -0.2026 -0.3144
 5150TIP3   OH237084   2.664   0.756   1.710  0.4334  0.0765 -0.6650
 5150TIP3    H137085   2.669   0.687   1.776  1.4446  0.3258 -0.4685
 5150TIP3    H237086   2.703   0.832   1.752  0.5750  0.3940 -1.3633
 5151TIP3   OH237087   1.924   1.758   7.605  0.8303  0.1188  0.2788
 5151TIP3    H137088   1.949   1.820   7.674  0.8685 -1.0169  1.3144
 5151TIP3    H237089   1.838   1.789   7.575 -0.2832 -0.6271  2.4590
 5152TIP3   OH237090   1.198   2.228   1.992  0.2670 -0.1495  0.0503
 5152TIP3    H137091   1.250   2.273   1.925 -1.6430  0.4197 -1.1070
 5152TIP3    H237092   1.131   2.292   2.017  0.5199 -0.6115  2.0339
 5153TIP3   OH237093   1.508   4.216   0.524 -0.3976 -0.2929  0.1861
 5153TIP3    H137094   1.495   4.158   0.599 -1.3701 -0.0433  0.2180
 5153TIP3    H237095   1.538   4.298   0.563  2.4846 -1.1534  0.0502
 5154TIP3   OH237096   4.283   1.525   3.195  0.2170 -0.5555  0.5827
 5154TIP3    H137097   4.328   1.571   3.124  2.2400 -1.4824  1.1900
 5154TIP3    H237098   4.227   1.591   3.235  0.8256  0.5956 -0.4071
 5155TIP3   OH237099   3.182   6.788   2.346 -0.2216  0.3429  0.1952
 5155TIP3    H137100   3.151   6.773   2.435  0.2572 -0.2124  0.2734
 5155TIP3    H237101   3.277   6.777   2.350 -0.2972 -0.8327 -0.5828
 5156TIP3   OH237102   3.845   2.297   2.679 -0.3004  0.2435 -0.2590
 5156TIP3    H137103   3.862   2.291   2.773  0.7357  1.5474 -0.3319
 5156TIP3    H237104   3.786   2.225   2.661 -0.8515  0.2063  1.4770
 5157TIP3   OH237105   1.028   0.669   2.826 -0.1215  0.4011  0.0318
 5157TIP3    H137106   1.058   0.628   2.907 -0.9640  0.2901  0.2976
 5157TIP3    H237107   0.945   0.625   2.806 -0.4894  1.2142 -0.2755
 5158TIP3   OH237108   2.158   4.373   1.202  0.6541 -0.3480  0.3918
 5158TIP3    H137109   2.140   4.466   1.184  1.2720 -0.4521 -0.8988
 5158TIP3    H237110   2.161   4.367   1.297  0.1333  0.8667  0.5045
 5159TIP3   OH237111   4.074   4.286   2.257  0.1261 -0.3712  0.0420
 5159TIP3    H137112   4.059   4.365   2.206 -1.3584 -0.1481  0.7660
 5159TIP3    H237113   4.025   4.218   2.211 -0.2044 -0.4361  0.4842
 5160TIP3   OH237114   1.929   1.586   1.095  0.3053 -0.3118 -0.2074
 5160TIP3    H137115   1.854   1.537   1.062 -1.5298  1.3054  1.3093
 5160TIP3    H237116   1.975   1.616   1.016 -0.9288 -0.9155 -1.1823
 5161TIP3   OH237117   3.557   6.385   1.871 -0.7537  0.0136 -0.4876
 5161TIP3    H137118   3.599   6.318   1.816  1.5580  1.1599 -0.2363
 5161TIP3    H237119   3.534   6.455   1.810 -0.7618  0.0910 -0.3964
 5162TIP3   OH237120   2.833   6.381   2.485 -0.1979  0.4685  0.1996
 5162TIP3    H137121   2.890   6.454   2.459  1.0428  0.2721  2.1456
 5162TIP3    H237122   2.864   6.307   2.433  0.6940  0.5931  0.5375
 5163TIP3   OH237123   0.097   6.019   1.584 -0.0938 -0.1580 -0.4830
 5163TIP3    H137124   0.132   5.979   1.505 -1.0989 -0.5020 -0.7786
 5163TIP3    H237125   0.174   6.044   1.636  0.5629 -0.8192 -1.1227
 5164TIP3   OH237126   0.988   1.070   1.086 -0.4310 -0.0252 -0.0437
 5164TIP3    H137127   0.894   1.056   1.082 -0.2966 -0.6761 -2.2250
 5164TIP3    H237128   0.999   1.165   1.077 -0.8708  0.0458  0.1652
 5165TIP3   OH237129   3.676   5.640   7.582  0.5943  0.1546  0.0140
 5165TIP3    H137130   3.770   5.629   7.600  1.0096  1.1916 -1.3407
 5165TIP3    H237131   3.668   5.625   7.488 -0.4070  1.2192 -0.0922
 5166TIP3   OH237132   4.582   2.703   1.615 -0.2588 -0.5459 -0.2381
 5166TIP3    H137133   4.541   2.771   1.668  1.4336 -0.1916  0.7089
 5166TIP3    H237134   4.675   2.708   1.637  0.3788 -1.0707 -2.5377
 5167TIP3   OH237135   3.644   1.053   0.048  0.1325  0.0109 -0.5814
 5167TIP3    H137136   3.629   1.145   0.071  0.9797  1.1790 -4.0866
 5167TIP3    H237137   3.706   1.022   0.115 -0.3673  1.8808  0.8338
 5168TIP3   OH237138   0.785   2.093   1.294 -0.0786  0.2007  0.2569
 5168TIP3    H137139   0.741   2.083   1.210  0.5207  0.9492 -0.1622
 5168TIP3    H237140   0.839   2.171   1.284  1.9444 -1.0896  0.4677
 5169TIP3   OH237141   5.127   2.164   1.624  0.3368  0.8925  0.2746
 5169TIP3    H137142   5.218   2.138   1.613  0.1091  0.6668 -1.3449
 5169TIP3    H237143   5.092   2.170   1.535 -1.4560  0.1960  0.8704
 5170TIP3   OH237144   4.712   4.875   2.220  0.7606 -0.1575  0.4589
 5170TIP3    H137145   4.714   4.800   2.279 -0.9853 -0.1881  0.5120
 5170TIP3    H237146   4.764   4.847   2.144 -2.8061 -2.9745 -1.2489
 5171TIP3   OH237147   4.054   4.310   1.866  0.0258 -0.5007  0.2819
 5171TIP3    H137148   3.982   4.363   1.902 -0.7128 -0.7630 -0.7588
 5171TIP3    H237149   4.132   4.345   1.909 -0.3802  1.7129 -0.6330
 5172TIP3   OH237150   5.031   6.295   3.614  0.4471  0.2369 -0.0864
 5172TIP3    H137151   4.944   6.335   3.613  0.5319  0.4602  0.4776
 5172TIP3    H237152   5.034   6.240   3.536  0.4638  1.6456 -1.1175
 5173TIP3   OH237153   5.395   6.683   1.681 -0.9570  0.2262 -0.3660
 5173TIP3    H137154   5.421   6.773   1.699  1.0964 -0.6405  1.5117
 5173TIP3    H237155   5.401   6.639   1.766  0.2901 -2.1820 -1.6047
 5174TIP3   OH237156   4.275   2.344   1.997  0.1624  0.4360 -0.2666
 5174TIP3    H137157   4.253   2.303   1.913 -0.4245  0.6487 -0.2193
 5174TIP3    H237158   4.211   2.307   2.059 -0.3505  1.3846 -0.2120
 5175TIP3   OH237159   1.616   5.614   0.764  0.0038  0.0922  0.6060
 5175TIP3    H137160   1.663   5.548   0.712 -0.5214 -0.6814  1.0989
 5175TIP3    H237161   1.682   5.682   0.781  0.4837 -0.1806 -0.1199
 5176TIP3   OH237162   1.544   4.506   0.581 -0.5500  0.1881  0.4668
 5176TIP3    H137163   1.528   4.573   0.514  0.1875 -0.3278 -0.2541
 5176TIP3    H237164   1.465   4.507   0.635 -1.5156  0.1022 -0.8772
 5177TIP3   OH237165   4.405   6.576   3.416 -0.0538 -0.1659 -0.2612
 5177TIP3    H137166   4.436   6.518   3.347 -0.3221 -0.1480 -0.3979
 5177TIP3    H237167   4.483   6.622   3.446  0.6296 -2.2922  1.4901
 5178TIP3   OH237168   0.328   5.015   7.720 -0.4610 -0.3382 -0.4177
 5178TIP3    H137169   0.331   5.034   7.626  1.4123  0.5698 -0.2076
 5178TIP3    H237170   0.266   4.942   7.728 -1.3248  0.1490 -2.2419
 5179TIP3   OH237171   3.654   0.481   2.990  0.2691 -0.0672 -0.4206
 5179TIP3    H137172   3.688   0.474   3.080  1.7520 -0.8183 -1.0092
 5179TIP3    H237173   3.727   0.519   2.940 -1.3221  2.6071 -0.9095
 5180TIP3   OH237174   2.603   1.159   1.439 -0.0988  0.2902  0.1359
 5180TIP3    H137175   2.556   1.080   1.467 -0.7039  0.7260  0.3677
 5180TIP3    H237176   2.561   1.183   1.356  1.0508 -0.4508 -0.6805
 5181TIP3   OH237177   3.643   6.177   1.389 -0.2481  0.2216 -0.4491
 5181TIP3    H137178   3.729   6.148   1.358  0.6104 -1.6843  3.2288
 5181TIP3    H237179   3.583   6.107   1.363  0.4440 -1.3027  1.7974
 5182TIP3   OH237180   0.382   4.939   0.524  0.5762 -0.3401  0.0560
 5182TIP3    H137181   0.335   4.887   0.460  2.4106  0.4925 -2.1040
 5182TIP3    H237182   0.320   5.007   0.551  0.1663  0.1190 -1.9156
 5183TIP3   OH237183   2.457   0.143   1.175  0.6932  0.6226 -0.0101
 5183TIP3    H137184   2.445   0.169   1.266 -0.4090 -1.4386  0.4944
 5183TIP3    H237185   2.389   0.190   1.128 -0.0666  0.1452  0.5822
 5184TIP3   OH237186   3.573   0.263   7.809  0.2379  0.1710  0.1166
 5184TIP3    H137187   3.477   0.267   7.800  0.0983  0.3074  1.4608
 5184TIP3    H237188   3.594   0.171   7.793 -0.3805 -0.3023  1.8141
 5185TIP3   OH237189   4.298   1.010   3.557  0.1590 -0.3333 -0.0220
 5185TIP3    H137190   4.377   1.043   3.514 -0.0059 -1.2235 -1.0481
 5185TIP3    H237191   4.302   0.915   3.546 -1.8786 -0.3115 -1.6349
 5186TIP3   OH237192   5.104   6.214   2.613 -0.1731 -1.1209  0.1116
 5186TIP3    H137193   5.119   6.297   2.656  0.3917 -1.1543 -0.0126
 5186TIP3    H237194   5.057   6.236   2.533  2.0141 -0.6333 -1.1209
 5187TIP3   OH237195   2.662   3.451   2.232 -0.4996  0.1969  0.0538
 5187TIP3    H137196   2.630   3.524   2.179 -1.6761  1.0790  1.8725
 5187TIP3    H237197   2.725   3.491   2.292  0.9728 -0.8196 -0.7664
 5188TIP3   OH237198   6.800   0.445   8.127 -0.6885 -0.3172 -0.4713
 5188TIP3    H137199   6.763   0.378   8.070 -0.0310 -0.1165 -1.1567
 5188TIP3    H237200   6.742   0.520   8.118 -1.7545 -0.9437  0.7350
 5189TIP3   OH237201   3.226   2.175   0.189  0.2814 -0.1539  0.1963
 5189TIP3    H137202   3.143   2.155   0.146  0.5526 -0.1863 -0.3308
 5189TIP3    H237203   3.205   2.182   0.282 -0.3573  0.1146  0.0357
 5190TIP3   OH237204   1.504   4.296   0.884  0.0086 -0.0187 -0.5112
 5190TIP3    H137205   1.598   4.284   0.895 -0.1694 -0.5754  0.6044
 5190TIP3    H237206   1.476   4.223   0.830 -0.0614 -0.9592  0.7638
 5191TIP3   OH237207   3.053   0.343   2.574  0.2396  0.1545 -0.1780
 5191TIP3    H137208   3.099   0.344   2.658 -0.8573 -0.1145  0.4445
 5191TIP3    H237209   3.049   0.251   2.550 -1.6010 -0.0689  0.7379
 5192TIP3   OH237210   3.685   5.861   3.189 -0.5849 -0.4076  0.8106
 5192TIP3    H137211   3.745   5.865   3.114  0.2107 -1.8591  1.3406
 5192TIP3    H237212   3.669   5.767   3.202 -1.9205 -0.1115  1.5327
 5193TIP3   OH237213   1.849   0.685   7.742  0.5761 -0.3629  0.0996
 5193TIP3    H137214   1.755   0.673   7.731  0.2481  0.7195  1.5657
 5193TIP3    H237215   1.880   0.600   7.773 -0.3142 -0.0614  1.8871
 5194TIP3   OH237216   6.726   0.007   0.768 -0.1808  0.0401  0.0998
 5194TIP3    H137217   6.638  -0.001   0.731 -0.3301 -0.4948  0.5641
 5194TIP3    H237218   6.778   0.044   0.697 -0.3341 -1.4744 -0.8325
 5195TIP3   OH237219   6.369   2.936   3.579 -0.4200  0.6385  0.8464
 5195TIP3    H137220   6.283   2.927   3.619 -0.8432  1.3066  0.1185
 5195TIP3    H237221   6.378   3.030   3.562 -0.0860  0.4284 -0.2331
 5196TIP3   OH237222   3.418   5.494   2.412 -0.0730  0.4067  0.3480
 5196TIP3    H137223   3.376   5.526   2.492 -0.7417  0.2576  0.0687
 5196TIP3    H237224   3.418   5.399   2.421  1.5213  0.4419  0.9839
 5197TIP3   OH237225   5.793   2.595   8.220  0.4430  0.2840  1.2033
 5197TIP3    H137226   5.734   2.521   8.204  0.3729  0.4737  0.5649
 5197TIP3    H237227   5.771   2.624   8.309  0.9928 -0.9205  1.7580
 5198TIP3   OH237228   4.056   5.436   2.040  0.3674  0.3352  0.1727
 5198TIP3    H137229   4.024   5.359   2.088 -2.2088  0.7226 -0.7229
 5198TIP3    H237230   4.051   5.508   2.103  2.0090 -0.0618  0.7798
 5199TIP3   OH237231   1.229   1.777   1.212  0.1886 -0.1182 -0.3164
 5199TIP3    H137232   1.249   1.778   1.306 -1.0676 -2.0273  0.0430
 5199TIP3    H237233   1.155   1.836   1.202 -0.1283 -0.4481  0.0409
 5200TIP3   OH237234   0.268   3.108   3.566 -0.4436  0.0673 -0.4613
 5200TIP3    H137235   0.180   3.094   3.532 -0.6572  0.4608 -0.0877
 5200TIP3    H237236   0.270   3.201   3.590  0.2335  0.1840 -0.9198
 5201TIP3   OH237237   2.045   3.503   3.302  0.1496 -0.3621 -0.1355
 5201TIP3    H137238   1.976   3.553   3.346  0.6817 -1.0283  1.5293
 5201TIP3    H237239   2.013   3.413   3.301  0.5565 -0.5075 -0.2480
 5202TIP3   OH237240   5.123   4.742   2.605 -1.0654 -0.6022 -0.1298
 5202TIP3    H137241   5.113   4.715   2.697 -1.4039  0.8575  0.2877
 5202TIP3    H237242   5.127   4.660   2.557 -2.3170 -1.4021  1.0476
 5203TIP3   OH237243   1.330   3.331   2.070 -0.0276 -0.5323 -0.3289
 5203TIP3    H137244   1.405   3.386   2.048  0.2031 -0.9371 -0.5494
 5203TIP3    H237245   1.335   3.321   2.165 -0.6748  0.7002 -0.1456
 5204TIP3   OH237246   5.661   5.095   3.453  0.1854 -0.0667  0.0577
 5204TIP3    H137247   5.707   5.082   3.536 -2.1163  1.5887  1.7430
 5204TIP3    H237248   5.583   5.039   3.461 -1.2614  1.8526  0.1431
 5205TIP3   OH237249   5.621   6.676   2.919  0.4069 -0.4303 -0.4265
 5205TIP3    H137250   5.656   6.655   3.005 -2.8355  1.4782  1.5819
 5205TIP3    H237251   5.602   6.591   2.879  1.1196 -1.3598  1.1422
 5206TIP3   OH237252   1.946   5.827   2.375  0.0825  0.3792 -0.0918
 5206TIP3    H137253   1.858   5.837   2.338  1.1740 -0.8889 -3.3855
 5206TIP3    H237254   1.948   5.737   2.408  0.2102  0.3392 -0.2074
 5207TIP3   OH237255   4.610   1.826   1.393 -0.9259  0.3715 -0.1926
 5207TIP3    H137256   4.661   1.877   1.456  1.8846 -1.1601 -1.0546
 5207TIP3    H237257   4.629   1.735   1.415 -0.4819 -0.2191 -2.6575
 5208TIP3   OH237258   6.007   0.111   1.773 -0.4524 -0.2767  0.0090
 5208TIP3    H137259   6.094   0.076   1.791 -0.9750 -1.0688  1.0956
 5208TIP3    H237260   5.983   0.157   1.853 -0.6898  0.6907 -0.6043
 5209TIP3   OH237261   2.971   3.300   3.052  0.2249 -0.1300 -0.2499
 5209TIP3    H137262   2.920   3.328   2.976  2.2174 -1.6203 -2.2613
 5209TIP3    H237263   3.062   3.309   3.025  1.0090 -1.8954  1.5051
 5210TIP3   OH237264   4.469   3.734   0.107 -0.5551 -0.1551 -0.5885
 5210TIP3    H137265   4.428   3.796   0.046 -1.8870 -0.8352 -0.4325
 5210TIP3    H237266   4.511   3.669   0.051  0.2880  0.5157 -0.7536
 5211TIP3   OH237267   6.350   2.627   7.479 -0.2898  0.2723 -0.5626
 5211TIP3    H137268   6.283   2.638   7.546  0.6688 -0.5139  0.5797
 5211TIP3    H237269   6.375   2.717   7.455 -0.0524  0.5987  0.7906
 5212TIP3   OH237270   0.285   4.966   1.705 -0.7910  0.7877  0.1704
 5212TIP3    H137271   0.305   4.885   1.658 -2.8667 -0.2153  0.9127
 5212TIP3    H237272   0.262   5.029   1.637 -0.7683  0.2625 -0.3238
 5213TIP3   OH237273   6.687   1.167   8.318  0.4418 -0.2739 -0.3341
 5213TIP3    H137274   6.596   1.157   8.346  0.5614 -0.1178  0.1205
 5213TIP3    H237275   6.714   1.251   8.355  1.2061 -0.9762  0.7257
 5214TIP3   OH237276   5.238   4.532   0.453 -0.3117  0.2409 -0.4833
 5214TIP3    H137277   5.242   4.625   0.429 -1.5261  0.2564 -0.6940
 5214TIP3    H237278   5.177   4.494   0.390 -1.4731 -0.2761  0.8946
 5215TIP3   OH237279   6.706   3.479   1.402  0.3034  0.3513  0.2440
 5215TIP3    H137280   6.778   3.531   1.439  0.4194 -0.9972  2.0605
 5215TIP3    H237281   6.649   3.461   1.477 -2.4033  2.0146 -1.2571
 5216TIP3   OH237282   4.460   4.083   2.471  0.1956  0.1966  0.0364
 5216TIP3    H137283   4.406   4.157   2.499  1.1292  0.8716  0.0933
 5216TIP3    H237284   4.460   4.087   2.376  1.3126  1.0703  0.0613
 5217TIP3   OH237285   5.965   2.085   2.386 -0.2511  0.1008  0.0258
 5217TIP3    H137286   6.038   2.058   2.441 -0.9593  1.0028  1.4584
 5217TIP3    H237287   5.999   2.161   2.338 -0.2307  0.4854  0.6442
 5218TIP3   OH237288   2.678   3.438   1.160  0.5673  0.4508 -0.0564
 5218TIP3    H137289   2.619   3.439   1.083  0.0626  0.8317  0.3281
 5218TIP3    H237290   2.628   3.391   1.227  0.3094  1.5817  0.5696
 5219TIP3   OH237291   5.222   2.379   0.919  0.2812 -0.5272  0.2773
 5219TIP3    H137292   5.248   2.450   0.979  1.1663 -0.3581 -0.2952
 5219TIP3    H237293   5.196   2.424   0.839  1.7667 -0.8767 -0.4261
 5220TIP3   OH237294   2.121   6.615   0.982  0.2433  0.2529 -0.7894
 5220TIP3    H137295   2.085   6.704   0.976 -1.4362 -0.4376 -1.7556
 5220TIP3    H237296   2.075   6.567   0.913 -1.4379 -2.2189  1.8573
 5221TIP3   OH237297   4.354   1.176   1.702  0.2564 -0.1834 -0.2788
 5221TIP3    H137298   4.441   1.177   1.662 -0.7692  1.1422 -2.7125
 5221TIP3    H237299   4.293   1.186   1.628 -1.7776  3.4863  1.5606
 5222TIP3   OH237300   0.165   4.098   1.698 -0.0012  0.4441  0.5251
 5222TIP3    H137301   0.091   4.068   1.645 -0.1634  1.9631 -0.1788
 5222TIP3    H237302   0.128   4.111   1.785 -0.7188  1.6005  0.0827
 5223TIP3   OH237303   6.534   6.844   1.379 -0.4186  0.5584 -0.0658
 5223TIP3    H137304   6.551   6.926   1.332  2.8472  1.8760  2.9814
 5223TIP3    H237305   6.618   6.799   1.379 -1.8030 -2.2889 -0.4539
 5224TIP3   OH237306   5.521   3.139   0.693 -0.1247 -0.2642  0.7501
 5224TIP3    H137307   5.573   3.066   0.661 -0.2191 -0.1043  0.2137
 5224TIP3    H237308   5.432   3.121   0.661 -0.4359 -0.6108  1.7836
 5225TIP3   OH237309   3.575   2.717   2.913  0.3470  0.0804 -0.2212
 5225TIP3    H137310   3.626   2.683   2.987  1.0672 -1.4916 -1.3842
 5225TIP3    H237311   3.610   2.805   2.898  0.2688  0.3818  1.1997
 5226TIP3   OH237312   5.772   6.288   7.979 -0.4697  0.2283  0.3708
 5226TIP3    H137313   5.780   6.368   8.031  0.6435  0.8952 -0.7409
 5226TIP3    H237314   5.849   6.236   8.004 -0.9088 -0.2628  0.7069
 5227TIP3   OH237315   0.652   6.764   0.166  0.6564  0.3325  0.1567
 5227TIP3    H137316   0.558   6.763   0.183  0.3049  1.1947 -1.5813
 5227TIP3    H237317   0.674   6.857   0.158  1.1843  0.0740 -1.7527
 5228TIP3   OH237318   0.180   4.405   7.681 -0.5081  0.0703 -0.4543
 5228TIP3    H137319   0.238   4.412   7.757 -1.8401 -0.7563  0.6835
 5228TIP3    H237320   0.095   4.381   7.718 -1.4769  0.7802 -2.1148
 5229TIP3   OH237321   1.113   3.027   2.294 -0.2803 -0.3209  0.5643
 5229TIP3    H137322   1.054   2.992   2.361  0.4065 -0.1566  1.2709
 5229TIP3    H237323   1.074   3.111   2.270 -0.5667 -0.4074  0.7228
 5230TIP3   OH237324   0.486   2.916   7.104  0.4494 -0.2125  0.2449
 5230TIP3    H137325   0.421   2.903   7.035  0.3567  0.2473  0.2423
 5230TIP3    H237326   0.461   2.998   7.145  0.7227 -0.2979  0.5859
 5231TIP3   OH237327   6.202   0.120   7.188 -0.4346 -0.1005 -0.2994
 5231TIP3    H137328   6.270   0.067   7.147 -1.1227 -0.8853 -0.4628
 5231TIP3    H237329   6.169   0.176   7.117  0.0337  0.2792 -0.2201
 5232TIP3   OH237330   1.578   3.257   0.431  0.8051 -0.5118  0.5306
 5232TIP3    H137331   1.533   3.320   0.487 -0.2097 -1.3235  0.6605
 5232TIP3    H237332   1.653   3.305   0.396 -0.2745  0.9499  0.1398
 5233TIP3   OH237333   3.854   0.814   3.136  1.1373 -0.3698  0.1341
 5233TIP3    H137334   3.835   0.728   3.173  0.4997 -0.6132 -0.7194
 5233TIP3    H237335   3.818   0.876   3.199 -1.2642 -0.7968 -0.7277
 5234TIP3   OH237336   2.856   4.961   8.095  0.3862  0.3250  0.0086
 5234TIP3    H137337   2.767   4.994   8.085 -0.3273 -1.5600 -0.0995
 5234TIP3    H237338   2.893   4.964   8.007  0.6382  1.5845  0.1358
 5235TIP3   OH237339   5.346   0.240   0.171 -0.3994  0.3754  0.2477
 5235TIP3    H137340   5.396   0.316   0.142  0.3342  0.9222  2.7467
 5235TIP3    H237341   5.324   0.258   0.262  0.6087 -2.7972  1.2694
 5236TIP3   OH237342   4.712   5.179   0.672  0.7207 -0.0700  0.3396
 5236TIP3    H137343   4.644   5.206   0.610  0.1073 -0.3098  0.8954
 5236TIP3    H237344   4.760   5.110   0.625 -0.1354 -0.6946  0.3444
 5237TIP3   OH237345   5.808   1.878   7.371 -0.0574  0.5461 -0.2502
 5237TIP3    H137346   5.880   1.920   7.417  0.1733  2.1157 -1.9102
 5237TIP3    H237347   5.730   1.924   7.403 -0.1165  0.2265  0.0691
 5238TIP3   OH237348   4.814   6.710   1.347 -0.7304 -0.0144  0.0400
 5238TIP3    H137349   4.875   6.779   1.320  0.3683 -1.0706 -0.2521
 5238TIP3    H237350   4.825   6.704   1.442 -1.0069  0.3682  0.0991
 5239TIP3   OH237351   1.523   0.431   8.482 -0.1999  0.7323 -0.7108
 5239TIP3    H137352   1.464   0.481   8.539 -0.2047 -0.2899  0.2121
 5239TIP3    H237353   1.604   0.424   8.532 -0.6100 -1.2723 -0.2072
 5240TIP3   OH237354   4.550   5.275   8.512 -0.5684  0.1691  0.0971
 5240TIP3    H137355   4.506   5.253   8.429 -2.8201 -1.1853  1.5301
 5240TIP3    H237356   4.487   5.331   8.558  0.3383  0.3142  1.1815
 5241TIP3   OH237357   0.598   0.501   2.023 -0.3418  0.7904  0.6519
 5241TIP3    H137358   0.569   0.495   1.932  0.3956  1.5062  0.3650
 5241TIP3    H237359   0.693   0.511   2.018 -0.2061  0.0775  1.5295
 5242TIP3   OH237360   2.368   5.147   0.351 -0.1064 -0.0939  0.2947
 5242TIP3    H137361   2.359   5.148   0.446  1.0317 -0.1474  0.4187
 5242TIP3    H237362   2.278   5.144   0.318 -0.5392 -3.5736  1.3799
 5243TIP3   OH237363   3.807   5.836   2.970 -0.5513 -0.5169  0.2598
 5243TIP3    H137364   3.776   5.862   2.883 -0.7424 -0.9909  0.1814
 5243TIP3    H237365   3.840   5.747   2.957 -0.7156 -0.6438  0.7033
 5244TIP3   OH237366   5.966   3.409   2.809 -0.0116 -0.3456 -0.2954
 5244TIP3    H137367   6.039   3.460   2.844 -1.9235  0.8334  2.3872
 5244TIP3    H237368   5.937   3.355   2.883 -1.8961 -0.7103 -1.2297
 5245TIP3   OH237369   4.763   2.103   2.382  0.2588  0.7016 -0.2926
 5245TIP3    H137370   4.814   2.037   2.430  0.1523  0.6341 -0.2704
 5245TIP3    H237371   4.799   2.102   2.294 -0.7601 -0.5073 -0.7288
 5246TIP3   OH237372   2.650   5.299   0.673 -0.1045  0.2235  0.6506
 5246TIP3    H137373   2.639   5.322   0.765  0.3659 -1.0864  1.0525
 5246TIP3    H237374   2.661   5.383   0.628 -0.6100  0.8861  1.7456
 5247TIP3   OH237375   1.593   3.045   0.197  0.5581  0.5858 -0.0775
 5247TIP3    H137376   1.572   3.138   0.203 -0.5146  0.3869 -0.5923
 5247TIP3    H237377   1.672   3.035   0.251  1.7403  2.0978 -1.4388
 5248TIP3   OH237378   2.545   4.667   0.123  0.2899  0.4079 -0.4390
 5248TIP3    H137379   2.622   4.612   0.111  0.5364  1.1984 -3.0341
 5248TIP3    H237380   2.554   4.737   0.058 -1.2621  2.1196  1.0355
 5249TIP3   OH237381   6.344   2.719   2.185  0.2511 -0.1585  0.0873
 5249TIP3    H137382   6.257   2.736   2.220  0.0742  0.2385 -0.5373
 5249TIP3    H237383   6.398   2.791   2.216  0.2186 -0.0881 -0.0206
 5250TIP3   OH237384   3.401   0.776   1.518  0.6810 -0.3719 -0.2625
 5250TIP3    H137385   3.364   0.727   1.445 -0.0289  0.6348 -0.6085
 5250TIP3    H237386   3.496   0.769   1.507  0.6363  1.5692 -2.5931
 5251TIP3   OH237387   0.382   3.414   1.309  0.4795 -0.6415 -0.1816
 5251TIP3    H137388   0.392   3.425   1.214  0.7800  0.7455 -0.0105
 5251TIP3    H237389   0.471   3.410   1.343  0.4063 -2.8829 -0.0897
 5252TIP3   OH237390   5.619   0.270   1.985  0.2043  0.0454 -0.5944
 5252TIP3    H137391   5.591   0.238   2.070  1.2935  0.9469  0.1257
 5252TIP3    H237392   5.543   0.316   1.950  0.2412  1.0366  0.5989
 5253TIP3   OH237393   1.410   5.403   1.092  0.4403 -0.5621  0.3472
 5253TIP3    H137394   1.356   5.456   1.033 -1.5754 -0.9840  1.7077
 5253TIP3    H237395   1.499   5.413   1.058 -0.1301  2.0469 -0.6478
 5254TIP3   OH237396   4.887   3.139   0.089  0.5825 -0.6868  0.2402
 5254TIP3    H137397   4.793   3.119   0.090  0.3944  0.1528  0.1940
 5254TIP3    H237398   4.929   3.055   0.073 -0.3545 -0.5744 -4.0088
 5255TIP3   OH237399   6.741   2.710   3.147 -0.8083 -0.2848  0.1910
 5255TIP3    H137400   6.801   2.762   3.200 -0.4667 -1.2122  0.7435
 5255TIP3    H237401   6.673   2.682   3.208 -2.5512  1.7912 -0.6817
 5256TIP3   OH237402   5.716   6.323   1.747  0.4127 -0.2842  0.0089
 5256TIP3    H137403   5.698   6.264   1.821 -0.9849 -1.0758 -0.9218
 5256TIP3    H237404   5.736   6.407   1.789 -0.3683 -0.7011  1.3019
 5257TIP3   OH237405   0.065   2.642   2.673 -0.8465  0.2181 -0.1530
 5257TIP3    H137406   0.081   2.548   2.679  2.1393  0.6958  0.7141
 5257TIP3    H237407   0.043   2.657   2.581 -1.2517 -1.2797 -0.3267
 5258TIP3   OH237408   1.707   2.233   1.800  0.1651  0.5261  0.2158
 5258TIP3    H137409   1.755   2.315   1.784 -0.1667  0.4520 -1.3562
 5258TIP3    H237410   1.626   2.243   1.750 -0.5237 -0.2074  1.1547
 5259TIP3   OH237411   6.847   6.817   0.110  0.3234  0.1462  0.4324
 5259TIP3    H137412   6.811   6.829   0.198  0.0141  0.7091  0.2369
 5259TIP3    H237413   6.923   6.875   0.107  0.4705 -0.0496  0.4104
 5260TIP3   OH237414   0.149   1.390   1.255 -0.3396 -0.4534 -0.1104
 5260TIP3    H137415   0.105   1.328   1.312  0.3249  1.0804  2.1947
 5260TIP3    H237416   0.115   1.476   1.282  0.3925  0.3749 -1.6798
 5261TIP3   OH237417   2.688   5.533   0.873  0.4427  0.6538 -0.4504
 5261TIP3    H137418   2.783   5.535   0.868  0.4177  1.4371 -0.7782
 5261TIP3    H237419   2.669   5.492   0.957  1.0669  0.3314 -0.4624
 5262TIP3   OH237420   5.032   1.327   7.850  0.0737 -0.1249 -0.2902
 5262TIP3    H137421   4.975   1.380   7.795  0.0865 -1.1638 -1.3476
 5262TIP3    H237422   4.990   1.326   7.935 -1.3308 -0.5836 -0.9597
 5263TIP3   OH237423   2.247   1.585   1.834 -0.9126 -0.0119  0.2864
 5263TIP3    H137424   2.252   1.643   1.910  2.9097 -0.8487  0.9097
 5263TIP3    H237425   2.293   1.632   1.765  1.4427 -1.7317  0.5361
 5264TIP3   OH237426   6.222   5.419   2.159 -0.0671  0.2341 -0.0127
 5264TIP3    H137427   6.306   5.403   2.116 -0.2934  0.1142 -0.4089
 5264TIP3    H237428   6.236   5.498   2.211 -0.3019  1.4128 -1.6762
 5265TIP3   OH237429   6.864   6.613   0.644 -0.1698 -0.4944  0.2203
 5265TIP3    H137430   6.810   6.678   0.689 -0.9221 -0.5097 -0.6410
 5265TIP3    H237431   6.803   6.564   0.589  0.7602 -0.1996 -1.1298
 5266TIP3   OH237432   6.236   5.335   0.139 -0.1986 -0.3276 -0.8682
 5266TIP3    H137433   6.212   5.271   0.206 -1.3207  0.1759 -0.7601
 5266TIP3    H237434   6.174   5.318   0.068 -1.9889  1.9833  0.0117
 5267TIP3   OH237435   0.165   0.235   8.375  0.3225 -0.7212 -0.0811
 5267TIP3    H137436   0.139   0.320   8.338 -0.0746 -1.0078 -0.4565
 5267TIP3    H237437   0.085   0.184   8.378  0.5185 -1.0034  0.3705
 5268TIP3   OH237438   1.388   3.523   0.623  0.0206 -0.3452  0.4311
 5268TIP3    H137439   1.414   3.442   0.666 -0.3700 -0.9848 -0.5136
 5268TIP3    H237440   1.295   3.533   0.643 -0.1609 -0.6418 -0.2521
 5269TIP3   OH237441   1.477   1.671   2.055  0.0218 -0.2132  0.5346
 5269TIP3    H137442   1.543   1.670   2.124  0.1146  0.5652  0.4691
 5269TIP3    H237443   1.411   1.733   2.087 -0.6561 -0.9350  0.5761
 5270TIP3   OH237444   3.229   2.731   1.724  0.4247 -0.0583  0.3613
 5270TIP3    H137445   3.254   2.697   1.638  3.8207 -0.6957  1.4644
 5270TIP3    H237446   3.182   2.659   1.766  0.4550 -0.4286 -0.2345
 5271TIP3   OH237447   2.736   4.304   0.933 -0.3870  0.2632 -0.2434
 5271TIP3    H137448   2.650   4.264   0.943 -0.4719  0.6290  0.6213
 5271TIP3    H237449   2.717   4.397   0.919 -0.1324  0.4657  0.6542
 5272TIP3   OH237450   1.648   3.961   8.586  0.2762 -0.4795  0.3077
 5272TIP3    H137451   1.594   3.996   8.515  1.4563 -0.3593 -0.5512
 5272TIP3    H237452   1.638   4.024   8.657  1.4222  1.0036 -0.7953
 5273TIP3   OH237453   6.572   0.210   2.057 -0.2349 -0.1056 -0.1531
 5273TIP3    H137454   6.533   0.165   1.982 -1.9119  1.7072 -0.4539
 5273TIP3    H237455   6.499   0.259   2.096  0.6103 -0.8455  2.5864
 5274TIP3   OH237456   1.353   5.578   0.873 -0.0330 -0.1858 -0.1480
 5274TIP3    H137457   1.325   5.494   0.837  2.6089 -0.5893 -1.4792
 5274TIP3    H237458   1.434   5.599   0.826  1.8207  0.9174  3.2138
 5275TIP3   OH237459   6.064   0.088   0.719 -0.0076  0.0279 -0.1701
 5275TIP3    H137460   6.093   0.066   0.808 -0.4467 -3.2020 -0.7213
 5275TIP3    H237461   5.992   0.150   0.732  0.8958  0.7944  1.6104
 5276TIP3   OH237462   3.001   6.231   0.040  0.6433  0.5019  0.5703
 5276TIP3    H137463   2.931   6.171   0.015  0.0286  0.9535  1.1593
 5276TIP3    H237464   3.081   6.182   0.025  0.1345 -0.7330  1.6642
 5277TIP3   OH237465   4.156   3.058   2.698 -0.4411 -0.3785  0.2528
 5277TIP3    H137466   4.180   3.052   2.791 -2.6144 -0.1594  0.9026
 5277TIP3    H237467   4.091   2.988   2.686 -1.0144  0.3047 -0.7904
 5278TIP3   OH237468   4.322   5.829   1.234 -0.2788 -0.0820 -0.0809
 5278TIP3    H137469   4.345   5.863   1.148 -0.2379 -0.5549 -0.2597
 5278TIP3    H237470   4.270   5.750   1.216 -1.4900  0.5883  0.3152
 5279TIP3   OH237471   0.901   3.391   8.435 -0.8416 -0.6012 -0.2893
 5279TIP3    H137472   0.874   3.318   8.491  0.5312 -1.7853 -1.1116
 5279TIP3    H237473   0.997   3.393   8.443 -0.8084  0.7608 -0.7377
 5280TIP3   OH237474   6.351   5.034   2.164  0.4164 -0.3253  0.4439
 5280TIP3    H137475   6.419   5.085   2.208  0.6124  0.0421 -0.2684
 5280TIP3    H237476   6.397   4.956   2.133  0.9424  0.6491 -1.4500
 5281TIP3   OH237477   1.442   6.777   1.394 -0.5074  0.4747 -0.2364
 5281TIP3    H137478   1.475   6.867   1.389 -1.7663  0.9064 -1.8566
 5281TIP3    H237479   1.409   6.759   1.306  0.3916 -1.8665 -0.1727
 5282TIP3   OH237480   2.198   2.833   2.157 -0.0021  0.6888 -0.0435
 5282TIP3    H137481   2.239   2.919   2.161  3.7660 -0.7479 -2.7209
 5282TIP3    H237482   2.240   2.783   2.227 -0.5987  0.3969  0.1192
 5283TIP3   OH237483   3.880   0.957   7.359  0.2466 -0.2594  0.0809
 5283TIP3    H137484   3.865   1.019   7.288  0.7795  0.5663  0.6832
 5283TIP3    H237485   3.973   0.936   7.354  0.3089 -0.1219  0.5931
 5284TIP3   OH237486   6.382   2.175   0.995 -0.4042 -0.2831 -0.1900
 5284TIP3    H137487   6.341   2.181   0.909  0.8893 -0.5899 -0.8526
 5284TIP3    H237488   6.434   2.255   1.002  0.5278 -0.8643 -0.2689
 5285TIP3   OH237489   4.667   0.858   2.821  0.3262  0.4755 -0.0207
 5285TIP3    H137490   4.599   0.907   2.868  0.6647  1.3096 -0.3652
 5285TIP3    H237491   4.737   0.846   2.885  0.9793  2.0047 -0.3815
 5286TIP3   OH237492   3.307   6.129   0.107 -0.0251 -0.2863 -0.3401
 5286TIP3    H137493   3.308   6.103   0.199  0.8251 -2.3965 -0.8888
 5286TIP3    H237494   3.364   6.206   0.104 -2.5508  1.8576  1.3299
 5287TIP3   OH237495   1.908   6.585   2.481  0.3767 -0.2529 -0.5545
 5287TIP3    H137496   1.863   6.668   2.469 -3.8121 -2.0978  0.8001
 5287TIP3    H237497   1.948   6.566   2.396  1.8221  3.1841 -0.7816
 5288TIP3   OH237498   1.359   6.046   7.690  0.1026 -0.2785 -0.3085
 5288TIP3    H137499   1.275   6.075   7.724  0.3258 -0.3998  0.3737
 5288TIP3    H237500   1.367   6.088   7.604 -0.1626  0.6291  0.0971
 5289TIP3   OH237501   5.272   2.189   1.175  0.2449 -0.4253  0.3172
 5289TIP3    H137502   5.240   2.278   1.182  0.0583 -0.6553  3.7372
 5289TIP3    H237503   5.219   2.149   1.106 -2.8207  0.8603  1.7772
 5290TIP3   OH237504   1.731   2.798   1.679  0.2240  0.0068 -0.2767
 5290TIP3    H137505   1.674   2.722   1.675  1.1867 -0.6832 -1.9713
 5290TIP3    H237506   1.819   2.762   1.688  0.8596  0.7885 -2.6636
 5291TIP3   OH237507   2.424   2.718   8.012 -0.3101  0.2049 -0.4249
 5291TIP3    H137508   2.412   2.801   8.059 -1.9652 -0.1677 -0.1023
 5291TIP3    H237509   2.350   2.714   7.952 -1.1867 -1.7400  0.6778
 5292TIP3   OH237510   2.949   2.809   0.984  0.3840 -0.0641 -0.0938
 5292TIP3    H137511   3.033   2.767   1.001  0.1341 -0.3501  0.4466
 5292TIP3    H237512   2.958   2.896   1.022  0.1135 -0.4204  0.8159
 5293TIP3   OH237513   6.783   0.290   2.890  0.4211 -0.1690  0.2436
 5293TIP3    H137514   6.745   0.237   2.960  0.5396 -0.7508 -0.1256
 5293TIP3    H237515   6.795   0.377   2.929 -2.1274  0.3248  0.1134
 5294TIP3   OH237516   2.531   6.562   2.913 -0.1166 -0.5117  0.2813
 5294TIP3    H137517   2.438   6.566   2.891 -0.1452 -0.0937  0.4609
 5294TIP3    H237518   2.556   6.471   2.896 -0.2242 -0.2983 -1.0660
 5295TIP3   OH237519   0.630   4.956   1.921 -0.2007 -0.3127  0.0362
 5295TIP3    H137520   0.566   4.915   1.979  0.2549 -0.4515  0.4436
 5295TIP3    H237521   0.627   5.049   1.943 -0.2041 -0.3298  0.1074
 5296TIP3   OH237522   1.234   1.949   0.171  0.6926 -0.0858 -0.0640
 5296TIP3    H137523   1.289   2.011   0.219  2.7645  0.8542 -3.2657
 5296TIP3    H237524   1.149   1.992   0.165  1.0076  0.7139  0.9102
 5297TIP3   OH237525   1.590   3.546   2.758  0.3474 -0.5581  0.0342
 5297TIP3    H137526   1.545   3.467   2.730 -2.8176  0.8557  0.7799
 5297TIP3    H237527   1.588   3.604   2.682 -2.6300  0.8966  1.0621
 5298TIP3   OH237528   5.221   2.856   7.767  0.7270  0.4027  0.0663
 5298TIP3    H137529   5.185   2.829   7.682  0.6234 -0.4917  0.3915
 5298TIP3    H237530   5.239   2.950   7.755 -3.3371  1.4433  0.3833
 5299TIP3   OH237531   2.126   0.207   7.899 -0.1974 -0.3841 -0.8999
 5299TIP3    H137532   2.098   0.196   7.990  2.3487  0.0907  0.0013
 5299TIP3    H237533   2.107   0.122   7.858 -2.6726 -0.1654 -0.3701
 5300TIP3   OH237534   4.933   5.357   0.020  0.3951 -0.3284 -0.3498
 5300TIP3    H137535   4.878   5.347   0.098 -0.4544  0.5174 -0.8258
 5300TIP3    H237536   4.892   5.300  -0.046  0.7261 -0.5353 -0.3793
 5301TIP3   OH237537   5.675   4.321   0.192 -0.3763 -0.1526  0.1017
 5301TIP3    H137538   5.691   4.365   0.276  0.8230 -1.2848  0.5059
 5301TIP3    H237539   5.599   4.266   0.209 -0.5337  0.1008  0.2432
 5302TIP3   OH237540   0.089   0.508   3.102 -0.2241 -0.6699  0.2884
 5302TIP3    H137541   0.103   0.587   3.154 -1.3309 -1.0201  1.1861
 5302TIP3    H237542   0.079   0.438   3.167 -2.3215 -1.0177 -0.3196
 5303TIP3   OH237543   1.572   0.770   8.360  0.7154 -0.3070 -0.0918
 5303TIP3    H137544   1.545   0.803   8.275 -0.7355 -0.1589  0.4033
 5303TIP3    H237545   1.653   0.722   8.343  1.3726  1.1438 -1.2667
 5304TIP3   OH237546   6.290   4.948   0.593 -0.5095  0.3203  0.0449
 5304TIP3    H137547   6.195   4.952   0.583 -0.7748  1.9504  2.3630
 5304TIP3    H237548   6.307   4.858   0.619 -1.3740 -0.0713 -0.6890
 5305TIP3   OH237549   4.018   1.474   8.105  0.2071 -0.0118 -0.0407
 5305TIP3    H137550   4.059   1.559   8.088  0.3821  0.0139  0.4762
 5305TIP3    H237551   4.075   1.432   8.170 -0.9865  0.3560  1.3103
 5306TIP3   OH237552   1.196   6.844   0.940 -0.4115 -0.3154  0.5007
 5306TIP3    H137553   1.254   6.798   1.001  0.3865  0.9269  0.7175
 5306TIP3    H237554   1.108   6.834   0.978 -0.2264 -1.3920  0.6808
 5307TIP3   OH237555   3.670   5.976   7.346 -0.0852  0.0589  0.2019
 5307TIP3    H137556   3.663   6.069   7.368  1.2750  0.5579 -1.3225
 5307TIP3    H237557   3.723   5.974   7.267 -2.4514 -1.8210 -1.4754
 5308TIP3   OH237558   4.373   6.323   0.994  0.0610 -0.2016 -0.3098
 5308TIP3    H137559   4.388   6.285   0.907  0.7437 -0.3883 -0.1231
 5308TIP3    H237560   4.394   6.416   0.983  0.0601 -0.2076 -0.3658
 5309TIP3   OH237561   5.248   3.115   0.586  0.0133 -0.5017 -0.2641
 5309TIP3    H137562   5.214   3.121   0.496  0.7448 -0.1420 -0.5240
 5309TIP3    H237563   5.172   3.089   0.638 -0.2493 -1.4802 -1.1031
 5310TIP3   OH237564   6.371   4.789   0.182  0.8763  0.2314 -0.3656
 5310TIP3    H137565   6.398   4.880   0.193 -0.9338  0.8491 -0.7097
 5310TIP3    H237566   6.311   4.790   0.108  2.4269 -1.6232 -1.7494
 5311TIP3   OH237567   1.287   5.785   3.156  0.9085  0.5767  0.4379
 5311TIP3    H137568   1.226   5.852   3.188  1.7613  0.8720  1.4908
 5311TIP3    H237569   1.272   5.784   3.061 -2.5601 -1.2046  0.8227
 5312TIP3   OH237570   0.958   0.539   0.789 -0.4253  0.0176 -0.1884
 5312TIP3    H137571   0.999   0.473   0.732  0.9620  1.6405 -1.1759
 5312TIP3    H237572   0.898   0.586   0.731 -1.1775 -0.1710  0.4342
 5313TIP3   OH237573   1.975   2.519   2.924  0.0971  0.1174 -0.5122
 5313TIP3    H137574   1.899   2.530   2.981 -1.0888 -1.5283 -1.6834
 5313TIP3    H237575   2.043   2.575   2.963 -2.0804  2.6916 -0.1866
 5314TIP3   OH237576   0.833   0.030   0.843  0.2060  0.5267  0.1737
 5314TIP3    H137577   0.762   0.069   0.793  0.9192 -0.8436 -2.0365
 5314TIP3    H237578   0.790  -0.022   0.911 -0.9267 -0.1648 -1.0334
 5315TIP3   OH237579   2.230   0.047   8.204  0.6912 -0.2899  0.9596
 5315TIP3    H137580   2.260   0.131   8.170  2.1730 -0.3605  1.9965
 5315TIP3    H237581   2.136   0.046   8.188  0.4032  2.1503  2.1260
 5316TIP3   OH237582   2.223   6.131   3.254  0.0531 -0.4182  0.0268
 5316TIP3    H137583   2.305   6.094   3.221 -0.2794  0.1557 -1.5523
 5316TIP3    H237584   2.189   6.064   3.314  1.8612 -0.4752  1.0550
 5317TIP3   OH237585   1.352   6.789   2.311 -0.8482  0.0261 -0.2784
 5317TIP3    H137586   1.406   6.834   2.246 -0.3119  0.8246  0.6913
 5317TIP3    H237587   1.264   6.789   2.273 -1.0005  2.4672 -0.0600
 5318TIP3   OH237588   6.661   4.093   7.965 -0.1906 -0.3430  0.3433
 5318TIP3    H137589   6.618   4.027   8.020 -0.3696  0.4520  1.1722
 5318TIP3    H237590   6.593   4.157   7.946  0.3379  0.3438  0.7372
 5319TIP3   OH237591   3.182   2.836   2.264 -0.6630  0.0258  0.3320
 5319TIP3    H137592   3.126   2.804   2.193 -0.5724 -2.0419  1.1246
 5319TIP3    H237593   3.252   2.772   2.270  1.9510  2.5756 -0.6672
 5320TIP3   OH237594   4.649   0.142   1.316  0.1747  0.0962  0.8414
 5320TIP3    H137595   4.566   0.182   1.289  0.5119  1.6085  1.9417
 5320TIP3    H237596   4.643   0.135   1.411  1.7873  1.4078  1.0767
 5321TIP3   OH237597   4.634   5.605   7.677 -0.1189 -0.1821 -0.3552
 5321TIP3    H137598   4.554   5.613   7.625 -0.4809 -0.7407  0.1137
 5321TIP3    H237599   4.702   5.644   7.622 -0.7877  0.7077 -0.5685
 5322TIP3   OH237600   5.511   5.552   0.127 -0.1029 -0.0497  0.0284
 5322TIP3    H137601   5.573   5.612   0.087 -0.2770  0.1810  0.1065
 5322TIP3    H237602   5.542   5.465   0.102 -0.7698  0.1048 -1.4461
 5323TIP3   OH237603   1.911   5.580   2.746 -0.2708 -0.2825 -0.3169
 5323TIP3    H137604   1.952   5.578   2.832 -1.0119  0.4885  0.0766
 5323TIP3    H237605   1.844   5.512   2.750  1.4974 -2.1815 -1.2770
 5324TIP3   OH237606   1.791   2.491   1.461  0.0918  0.4574 -1.0754
 5324TIP3    H137607   1.810   2.404   1.428  1.9303  0.9742 -1.4846
 5324TIP3    H237608   1.696   2.499   1.453 -0.4448 -2.2774  1.0101
 5325TIP3   OH237609   2.326   1.978   1.388  0.5317 -0.0758 -0.0485
 5325TIP3    H137610   2.359   2.049   1.444 -1.1311  1.6316 -1.1032
 5325TIP3    H237611   2.384   1.978   1.312 -0.8523  1.9230 -1.2071
 5326TIP3   OH237612   2.747   3.896   3.145 -0.1433 -0.0068  0.0479
 5326TIP3    H137613   2.787   3.979   3.119 -0.6866  1.3474  3.1069
 5326TIP3    H237614   2.821   3.840   3.170  0.1303  0.5628  0.5526
 5327TIP3   OH237615   5.547   2.428   8.305 -0.4351  0.5978  0.2375
 5327TIP3    H137616   5.490   2.371   8.254 -1.0954  1.2438  0.2420
 5327TIP3    H237617   5.490   2.498   8.335  0.6213  2.0077 -0.9141
 5328TIP3   OH237618   1.573   0.553   1.236 -0.4934 -0.4623 -0.8000
 5328TIP3    H137619   1.600   0.531   1.146  3.2466  0.0840  0.0273
 5328TIP3    H237620   1.558   0.648   1.234  0.8156 -0.2332 -0.6407
 5329TIP3   OH237621   5.723   1.769   7.680  0.3672 -0.1518 -0.5833
 5329TIP3    H137622   5.669   1.821   7.620 -0.1665 -2.3532 -2.1539
 5329TIP3    H237623   5.772   1.834   7.730 -1.0272  1.8621 -1.6641
 5330TIP3   OH237624   2.958   2.082   2.340  0.4272  0.2178  0.3179
 5330TIP3    H137625   2.963   2.041   2.253 -1.9322  1.6307 -0.6133
 5330TIP3    H237626   3.032   2.142   2.343 -0.2706  1.2502 -1.4267
 5331TIP3   OH237627   6.641   6.055   1.999  0.1279  0.0745  0.1748
 5331TIP3    H137628   6.682   6.048   2.086 -0.2329 -1.8892  0.2405
 5331TIP3    H237629   6.578   6.126   2.008 -0.8038 -0.8823  1.9544
 5332TIP3   OH237630   1.823   4.639   2.372 -0.0198  0.2650  0.3794
 5332TIP3    H137631   1.757   4.613   2.308  2.3635  0.2557 -2.2522
 5332TIP3    H237632   1.775   4.645   2.455 -3.1664 -0.2034 -1.2650
 5333TIP3   OH237633   6.094   2.150   8.277 -0.6345 -0.0385 -0.5726
 5333TIP3    H137634   6.181   2.111   8.275 -1.0353 -0.9493 -0.3505
 5333TIP3    H237635   6.037   2.083   8.313 -1.8482 -0.2943 -2.7503
 5334TIP3   OH237636   0.468   1.937   2.628 -0.7026  0.5401 -0.1294
 5334TIP3    H137637   0.544   1.909   2.678 -1.2747 -2.3213 -0.6704
 5334TIP3    H237638   0.444   1.861   2.575 -2.5773  2.0825 -1.7060
 5335TIP3   OH237639   2.717   6.836   0.529  0.1972  0.7220  0.0050
 5335TIP3    H137640   2.701   6.884   0.448 -1.2606 -0.1916 -0.2762
 5335TIP3    H237641   2.685   6.895   0.598 -1.8313  0.1115 -0.3589
 5336TIP3   OH237642   0.513   4.068   0.460  0.4166 -0.2129 -0.9609
 5336TIP3    H137643   0.585   4.009   0.439  0.7118 -0.2702  0.1580
 5336TIP3    H237644   0.553   4.155   0.458  0.4430 -0.2169 -0.6818
 5337TIP3   OH237645   3.282   3.978   2.350  0.0512 -0.9313  0.3131
 5337TIP3    H137646   3.194   3.998   2.319  0.5101  0.6556 -0.0337
 5337TIP3    H237647   3.269   3.947   2.440 -0.7972  0.3049  0.6505
 5338TIP3   OH237648   0.647   3.729   1.115  0.1214  0.1206  1.1030
 5338TIP3    H137649   0.664   3.643   1.153  2.4405  0.0792  0.1188
 5338TIP3    H237650   0.625   3.784   1.190  0.2024 -0.9474  1.9390
 5339TIP3   OH237651   3.076   5.254   2.526  0.7803  0.7484 -0.0842
 5339TIP3    H137652   3.030   5.185   2.575  0.6970 -0.5006 -1.8413
 5339TIP3    H237653   3.014   5.327   2.524  0.9390  1.0012  1.9619
 5340TIP3   OH237654   2.281   6.232   2.942 -0.3716  0.3965 -0.5511
 5340TIP3    H137655   2.200   6.182   2.929  1.3584 -2.4944 -1.0587
 5340TIP3    H237656   2.291   6.237   3.037 -0.7437  0.1431 -0.4953
 5341TIP3   OH237657   1.296   6.623   1.850  0.0998 -0.0795 -0.0460
 5341TIP3    H137658   1.255   6.637   1.764 -3.1745 -0.9522  1.2049
 5341TIP3    H237659   1.294   6.529   1.862  1.9220 -0.0883  0.4507
 5342TIP3   OH237660   4.702   1.841   7.482  0.5833 -0.4122  0.2531
 5342TIP3    H137661   4.704   1.800   7.395 -1.2602  1.1663 -0.5902
 5342TIP3    H237662   4.612   1.831   7.511  0.3299  2.0135  0.4903
 5343TIP3   OH237663   3.724   5.164   7.037 -0.0405  0.7920  0.3295
 5343TIP3    H137664   3.775   5.232   6.994  0.7236  1.1419  1.7284
 5343TIP3    H237665   3.779   5.135   7.110 -2.0736  1.6630  2.3192
 5344TIP3   OH237666   4.535   0.986   0.366 -0.4870  0.1551 -0.7796
 5344TIP3    H137667   4.513   0.999   0.458 -0.4186 -0.0240 -0.7366
 5344TIP3    H237668   4.628   0.962   0.367 -1.0323 -2.2421 -0.6784
 5345TIP3   OH237669   6.109   6.053   1.337  0.3124  0.7774  0.0520
 5345TIP3    H137670   6.026   6.005   1.339  2.0234 -2.7401 -2.1759
 5345TIP3    H237671   6.117   6.083   1.246  0.7167  2.6996  0.6821
 5346TIP3   OH237672   4.031   3.861   1.194 -0.0592  0.5164  0.0451
 5346TIP3    H137673   3.963   3.794   1.186 -1.1867  1.5628  0.4461
 5346TIP3    H237674   4.091   3.843   1.122 -0.9930 -0.1910 -0.5896
 5347TIP3   OH237675   5.986   6.460   1.310  1.1139 -0.0310 -0.6089
 5347TIP3    H137676   5.990   6.419   1.397  1.2922  0.4861 -0.3692
 5347TIP3    H237677   5.924   6.533   1.320  2.0081  0.7503 -0.5977
 5348TIP3   OH237678   5.795   2.761   0.107 -1.2905  0.0996  0.3860
 5348TIP3    H137679   5.772   2.786   0.196 -0.8580  1.2150  0.2046
 5348TIP3    H237680   5.755   2.675   0.094 -2.9349  0.7379  1.0174
 5349TIP3   OH237681   3.359   1.342   8.263  0.8883  0.1517  0.0601
 5349TIP3    H137682   3.314   1.260   8.284 -0.1593  0.8696  0.7140
 5349TIP3    H237683   3.387   1.377   8.348  0.7646  0.7756 -0.1451
 5350TIP3   OH237684   1.749   6.314   1.313 -0.0803  0.1154 -0.0235
 5350TIP3    H137685   1.667   6.308   1.264  0.0992 -1.0942 -0.2057
 5350TIP3    H237686   1.729   6.373   1.386 -0.4334  1.7211 -1.3528
 5351TIP3   OH237687   2.338   6.355   7.592  0.1931 -0.2829  0.3114
 5351TIP3    H137688   2.368   6.435   7.634  0.0360 -0.8272  1.5053
 5351TIP3    H237689   2.269   6.384   7.532  1.9755  0.7873 -1.3476
 5352TIP3   OH237690   3.123   4.427   0.657 -0.2360 -0.2154 -0.3293
 5352TIP3    H137691   3.151   4.488   0.724  0.5886 -0.3265 -0.5636
 5352TIP3    H237692   3.040   4.391   0.690 -0.2625  0.3437  0.2275
 5353TIP3   OH237693   1.872   3.996   0.847 -0.4734 -0.4998 -0.1807
 5353TIP3    H137694   1.919   3.960   0.923 -0.2811  0.3802  0.1312
 5353TIP3    H237695   1.848   3.919   0.796  1.1503 -1.0039 -0.2598
 5354TIP3   OH237696   3.458   4.150   2.677  0.2469 -0.3658  0.1739
 5354TIP3    H137697   3.553   4.155   2.684  0.3744 -0.5927 -1.0829
 5354TIP3    H237698   3.426   4.165   2.766  1.5219 -1.8191  0.9216
 5355TIP3   OH237699   1.034   3.993   1.282  0.7351  0.3112  0.1335
 5355TIP3    H137700   0.992   3.912   1.252  1.6681 -0.2472  0.2678
 5355TIP3    H237701   1.033   4.050   1.205  0.1258  0.1486  0.0175
 5356TIP3   OH237702   2.581   1.017   0.235 -0.4064 -0.2751 -0.1886
 5356TIP3    H137703   2.618   1.055   0.156  1.8488 -0.4677  0.6851
 5356TIP3    H237704   2.566   0.925   0.213 -0.3099 -0.2049 -0.5459
 5357TIP3   OH237705   3.106   5.484   1.523 -0.0591 -0.1407 -0.4569
 5357TIP3    H137706   3.179   5.545   1.527 -0.1225 -0.0000 -1.2768
 5357TIP3    H237707   3.090   5.460   1.614 -0.7713  1.9278  0.0169
 5358TIP3   OH237708   2.845   4.980   7.815 -0.1311  0.0668  0.2816
 5358TIP3    H137709   2.892   4.922   7.756  1.1997  0.5299  0.8423
 5358TIP3    H237710   2.780   5.023   7.760  1.2902  0.7351 -0.9321
 5359TIP3   OH237711   1.001   4.163   3.848  0.1064  0.1090 -0.2361
 5359TIP3    H137712   1.073   4.106   3.876  1.4388  0.9864 -1.7661
 5359TIP3    H237713   0.942   4.105   3.799  1.6608  0.0474 -2.1440
 5360TIP3   OH237714   0.425   0.217   1.288  0.1147 -0.3801  0.3317
 5360TIP3    H137715   0.443   0.244   1.197 -0.0434  0.9453  0.6662
 5360TIP3    H237716   0.329   0.215   1.293  0.0939  0.9620  0.8349
 5361TIP3   OH237717   5.972   0.484   8.360 -0.2491  0.2296  0.1645
 5361TIP3    H137718   5.939   0.397   8.341  0.0814  0.2141 -0.3601
 5361TIP3    H237719   5.958   0.495   8.455 -1.7328  0.2282 -0.0303
 5362TIP3   OH237720   1.319   0.339   1.696 -0.1016 -0.0479  0.0769
 5362TIP3    H137721   1.373   0.330   1.617 -0.2599  1.0390 -0.1669
 5362TIP3    H237722   1.382   0.336   1.768  0.1807  0.2530 -0.1557
 5363TIP3   OH237723   1.446   2.448   3.651  0.6011  0.4483  0.5736
 5363TIP3    H137724   1.463   2.354   3.656 -3.5221 -0.5363  0.0308
 5363TIP3    H237725   1.479   2.473   3.565 -0.6244 -1.1810 -0.4260
 5364TIP3   OH237726   1.030   4.120   0.192 -0.1250  0.3438  0.1810
 5364TIP3    H137727   1.036   4.196   0.250  1.7686  0.5954 -0.2909
 5364TIP3    H237728   0.974   4.149   0.120 -0.5455  0.8083  0.6832
 5365TIP3   OH237729   1.165   2.956   2.020  0.2052 -0.3767 -0.1993
 5365TIP3    H137730   1.161   2.861   2.010  0.5814 -0.3845 -0.2692
 5365TIP3    H237731   1.110   2.974   2.097 -0.5199 -0.5705 -0.6620
 5366TIP3   OH237732   0.972   1.249   0.491  0.6101  0.2013 -0.2514
 5366TIP3    H137733   1.029   1.291   0.555  0.1166 -0.3247  0.5507
 5366TIP3    H237734   0.887   1.245   0.534  0.3751 -0.5618 -0.7685
 5367TIP3   OH237735   4.501   5.760   3.199 -0.7478 -0.2436 -0.1794
 5367TIP3    H137736   4.452   5.695   3.150 -1.6234  0.2343  0.0406
 5367TIP3    H237737   4.482   5.740   3.291  2.1563 -2.1630  0.1595
 5368TIP3   OH237738   1.528   1.604   0.808  0.1521  0.1107 -0.0873
 5368TIP3    H137739   1.462   1.548   0.769 -0.4026 -0.0050  0.9758
 5368TIP3    H237740   1.479   1.679   0.841  0.7053  0.5661 -0.2742
 5369TIP3   OH237741   0.898   6.636   8.519 -0.4338 -0.2780 -0.0487
 5369TIP3    H137742   0.841   6.713   8.518 -0.4029 -0.2434 -1.6721
 5369TIP3    H237743   0.983   6.668   8.490 -1.2046 -1.3669 -4.2847
 5370TIP3   OH237744   1.705   3.703   0.235  0.4613 -0.0427 -0.2194
 5370TIP3    H137745   1.653   3.691   0.315 -0.6341  0.5816 -0.8144
 5370TIP3    H237746   1.788   3.740   0.266 -0.8772  2.6068  0.4625
 5371TIP3   OH237747   1.512   5.428   1.795  0.2398  0.3262 -0.1151
 5371TIP3    H137748   1.428   5.456   1.759 -1.4326 -3.7525  0.0906
 5371TIP3    H237749   1.568   5.418   1.718 -0.5786 -0.1309 -0.6722
 5372TIP3   OH237750   3.836   5.675   0.537  0.3377 -0.7990  0.7416
 5372TIP3    H137751   3.907   5.619   0.507 -0.1240 -1.7607  1.3906
 5372TIP3    H237752   3.852   5.760   0.495  1.4023 -1.2344  0.2481
 5373TIP3   OH237753   1.888   5.568   2.193  0.1059 -0.0732 -0.3152
 5373TIP3    H137754   1.828   5.529   2.130  0.6976 -0.9193 -0.3657
 5373TIP3    H237755   1.890   5.661   2.169  0.9712 -0.5098 -2.0923
 5374TIP3   OH237756   6.377   1.836   2.509  0.0689 -0.1422 -0.0635
 5374TIP3    H137757   6.391   1.766   2.445 -1.2384 -1.2009  0.7533
 5374TIP3    H237758   6.461   1.882   2.514  1.3585 -2.4152  0.2702
 5375TIP3   OH237759   1.491   5.235   7.730 -0.1029 -0.4425 -0.0704
 5375TIP3    H137760   1.459   5.320   7.762  0.4557 -0.1041 -0.3926
 5375TIP3    H237761   1.583   5.251   7.709 -0.7144 -0.3063 -3.0122
 5376TIP3   OH237762   5.324   3.449   7.685 -0.0306  0.1164 -0.5631
 5376TIP3    H137763   5.268   3.512   7.639  1.6824  1.0983 -1.3816
 5376TIP3    H237764   5.350   3.386   7.618  0.5386  0.1466 -0.3689
 5377TIP3   OH237765   0.627   2.433   8.005  0.6739  0.0486  0.3990
 5377TIP3    H137766   0.595   2.348   7.975 -0.6827  0.9087 -0.7637
 5377TIP3    H237767   0.699   2.454   7.946  1.6710 -0.7039  1.3150
 5378TIP3   OH237768   0.876   6.361   8.395  0.0028 -0.3572  0.1033
 5378TIP3    H137769   0.889   6.423   8.322  1.0855  0.7691  1.2022
 5378TIP3    H237770   0.848   6.417   8.468  1.0209 -1.1690  1.1312
 5379TIP3   OH237771   5.177   5.630   2.571 -0.0847 -0.1401  0.5700
 5379TIP3    H137772   5.243   5.677   2.622 -0.0202 -0.7755  1.0772
 5379TIP3    H237773   5.128   5.699   2.526 -0.6125  0.4914  2.0468
 5380TIP3   OH237774   6.377   4.022   1.993  0.4279  0.0469  0.4171
 5380TIP3    H137775   6.340   4.043   2.078  0.1171 -0.1312  0.3290
 5380TIP3    H237776   6.411   4.106   1.960 -1.2038  0.5325 -0.1288
 5381TIP3   OH237777   1.882   1.726   2.656  0.0195  0.7780  0.4401
 5381TIP3    H137778   1.965   1.705   2.614 -0.1619  0.6506  0.1421
 5381TIP3    H237779   1.830   1.646   2.650 -0.5313  1.1841 -0.3612
 5382TIP3   OH237780   5.527   4.759   0.233 -0.6926  0.2727 -0.3557
 5382TIP3    H137781   5.611   4.759   0.188 -0.1503 -0.0371  0.6189
 5382TIP3    H237782   5.550   4.755   0.326 -1.7761  0.6954 -0.0564
 5383TIP3   OH237783   5.905   4.055   0.038  0.0899  0.0550 -0.6088
 5383TIP3    H137784   5.990   4.090   0.013 -0.2003  1.3820  0.1349
 5383TIP3    H237785   5.842   4.118   0.002 -0.4876 -0.0415  0.1981
 5384TIP3   OH237786   1.959   5.367   3.172  0.6401  0.7577  0.4702
 5384TIP3    H137787   1.998   5.291   3.128 -0.8434 -0.5975  1.3970
 5384TIP3    H237788   1.981   5.440   3.115  1.6671 -0.4306 -0.7517
 5385TIP3   OH237789   0.084   3.488   8.443  0.2268  0.1880  0.4332
 5385TIP3    H137790   0.085   3.418   8.508  1.5528 -1.0929 -0.8841
 5385TIP3    H237791   0.072   3.569   8.494 -3.9646 -1.0511  1.8456
 5386TIP3   OH237792   4.495   0.595   3.380  0.0754  0.3972  0.4724
 5386TIP3    H137793   4.571   0.547   3.345  1.0688  2.0744  0.2202
 5386TIP3    H237794   4.523   0.686   3.382 -0.6730  0.6805  3.6907
 5387TIP3   OH237795   0.108   4.578   7.487 -0.7719 -0.6160  0.5087
 5387TIP3    H137796   0.157   4.524   7.548  1.2860  0.8181  0.2045
 5387TIP3    H237797   0.016   4.566   7.514 -0.1651 -2.0887  2.1443
 5388TIP3   OH237798   0.162   1.651   0.776  0.3651 -0.2130  0.3142
 5388TIP3    H137799   0.172   1.719   0.843  0.6890 -0.8509  0.9249
 5388TIP3    H237800   0.113   1.694   0.706  1.9374  1.1161 -0.0129
 5389TIP3   OH237801   1.369   3.300   7.754  0.2036 -0.1593 -0.1122
 5389TIP3    H137802   1.279   3.269   7.740  0.9286 -2.2785 -0.5008
 5389TIP3    H237803   1.412   3.284   7.669  0.3051  3.5077 -0.8986
 5390TIP3   OH237804   5.148   0.606   2.020  0.1226  0.2213 -0.2099
 5390TIP3    H137805   5.060   0.587   2.054  0.6765 -1.1816  0.5397
 5390TIP3    H237806   5.141   0.593   1.925 -0.5085  0.2519 -0.1694
 5391TIP3   OH237807   0.153   5.762   0.834  0.3487  0.0085  0.3809
 5391TIP3    H137808   0.243   5.767   0.803  0.5604 -0.9422  0.8432
 5391TIP3    H237809   0.151   5.687   0.893 -0.9577 -0.5675 -0.3533
 5392TIP3   OH237810   3.151   2.302   8.383  0.0493  0.0274 -0.1850
 5392TIP3    H137811   3.212   2.314   8.456  0.9329 -0.8972 -0.7466
 5392TIP3    H237812   3.067   2.332   8.417  1.0216  2.6053  0.2061
 5393TIP3   OH237813   5.483   4.329   1.364 -0.1123  0.0664  0.3010
 5393TIP3    H137814   5.407   4.386   1.377  1.1861  1.3253  3.2508
 5393TIP3    H237815   5.462   4.250   1.414  0.4464  0.3636  1.0160
 5394TIP3   OH237816   1.005   6.557   2.052 -0.0410  0.2507  0.7177
 5394TIP3    H137817   0.923   6.509   2.052 -0.3466  0.6902  2.4392
 5394TIP3    H237818   1.068   6.497   2.093 -0.1046  0.7802  1.6241
 5395TIP3   OH237819   3.783   1.900   1.560  0.2924  0.4298  0.2648
 5395TIP3    H137820   3.865   1.875   1.518  0.7032  0.6364  0.9243
 5395TIP3    H237821   3.752   1.975   1.510 -0.3191 -0.6129 -0.9732
 5396TIP3   OH237822   6.288   6.463   1.642  0.3545 -0.2610  0.2668
 5396TIP3    H137823   6.215   6.429   1.589 -0.3820  0.0807  1.0520
 5396TIP3    H237824   6.360   6.474   1.579 -1.1443  2.2559 -1.1752
 5397TIP3   OH237825   5.219   6.855   2.342 -0.4452 -0.0649 -0.9855
 5397TIP3    H137826   5.294   6.908   2.371 -0.7934 -0.8191  1.5498
 5397TIP3    H237827   5.147   6.917   2.336 -0.6726 -0.0319  1.2323
 5398TIP3   OH237828   1.143   4.599   2.956  0.3771  0.2272  0.5826
 5398TIP3    H137829   1.171   4.643   3.037  3.8094  1.1857 -0.9282
 5398TIP3    H237830   1.171   4.508   2.967 -0.3197  0.0544  0.9552
 5399TIP3   OH237831   1.965   0.411   7.787 -0.3229 -0.5170 -0.3287
 5399TIP3    H137832   1.878   0.372   7.779 -0.1089 -1.0679  0.0085
 5399TIP3    H237833   2.022   0.338   7.809  0.0334  0.0376  0.6324
 5400TIP3   OH237834   1.638   4.883   0.166 -0.1493  0.0020 -0.4229
 5400TIP3    H137835   1.728   4.857   0.146 -0.4793 -1.0792 -0.5925
 5400TIP3    H237836   1.642   4.978   0.178  1.2110 -0.1581  0.6545
 5401TIP3   OH237837   1.493   6.348   1.208 -0.2150 -0.1737  0.2132
 5401TIP3    H137838   1.434   6.400   1.264 -2.2655 -1.7599 -0.3643
 5401TIP3    H237839   1.436   6.308   1.143  1.4851 -2.0121 -0.2510
 5402TIP3   OH237840   5.940   6.721   7.845 -0.3116 -0.7247 -1.1458
 5402TIP3    H137841   5.865   6.742   7.790 -2.2103  0.5474  1.6884
 5402TIP3    H237842   5.904   6.670   7.917  1.1032  1.3316  1.2000
 5403TIP3   OH237843   3.610   4.154   8.484 -0.2099  0.1219  0.3276
 5403TIP3    H137844   3.547   4.152   8.412  0.2536  1.3461 -0.1367
 5403TIP3    H237845   3.567   4.206   8.552 -0.0049  0.3243  0.3030
 5404TIP3   OH237846   6.751   3.338   2.761 -0.4340  0.1345 -0.5353
 5404TIP3    H137847   6.781   3.251   2.789 -2.3914 -0.6741 -0.7509
 5404TIP3    H237848   6.829   3.393   2.764  1.0150 -1.7887 -1.0325
 5405TIP3   OH237849   4.546   0.888   2.240 -0.1395 -0.1972  0.6736
 5405TIP3    H137850   4.558   0.845   2.325  0.5925  0.0294  0.6913
 5405TIP3    H237851   4.452   0.879   2.222 -0.4176  0.2952  1.7949
 5406TIP3   OH237852   4.521   6.688   7.931  0.0272  0.7635  0.0958
 5406TIP3    H137853   4.508   6.775   7.967 -2.2246  0.9616 -1.0316
 5406TIP3    H237854   4.542   6.703   7.838  0.0733  0.1280 -0.0028
 5407TIP3   OH237855   6.303   0.681   3.132 -0.0273  0.3776  0.0340
 5407TIP3    H137856   6.356   0.759   3.117 -0.2836  0.5708  0.1281
 5407TIP3    H237857   6.351   0.611   3.088  0.0225  0.6534 -0.3571
 5408TIP3   OH237858   2.683   4.941   1.460  0.3773  0.2891  0.6059
 5408TIP3    H137859   2.683   4.857   1.414  3.0205  1.5070 -1.9671
 5408TIP3    H237860   2.590   4.960   1.474 -0.4099 -1.8896 -0.9824
 5409TIP3   OH237861   1.698   0.336   3.017  0.2179 -0.2323  0.3278
 5409TIP3    H137862   1.749   0.305   3.091 -0.2852  1.5021  1.4561
 5409TIP3    H237863   1.755   0.398   2.972 -0.0669 -0.0604  0.2017
 5410TIP3   OH237864   6.250   6.793   0.847 -0.3519  0.2729 -0.9690
 5410TIP3    H137865   6.293   6.827   0.926 -0.7079  3.2297 -1.9201
 5410TIP3    H237866   6.161   6.774   0.876 -0.0510 -0.1859 -0.3118
 5411TIP3   OH237867   1.455   4.092   2.587  0.2820  0.2603 -0.2976
 5411TIP3    H137868   1.497   4.160   2.533  1.6709 -1.1617 -1.0915
 5411TIP3    H237869   1.422   4.029   2.523 -2.1080  0.7323  0.3691
 5412TIP3   OH237870   5.276   3.141   7.737  0.2186 -0.1789  0.2100
 5412TIP3    H137871   5.261   3.180   7.652  1.6967  0.7831  0.3472
 5412TIP3    H237872   5.364   3.171   7.762  0.1586 -1.1175  1.6925
 5413TIP3   OH237873   3.860   4.126   1.729  0.1537  0.3962  0.0090
 5413TIP3    H137874   3.945   4.166   1.747  0.0827  0.9133 -0.7707
 5413TIP3    H237875   3.816   4.187   1.670  0.4258 -1.2384 -2.0018
 5414TIP3   OH237876   0.039   1.714   1.324 -0.8675  0.0126  0.3658
 5414TIP3    H137877   0.009   1.751   1.241  1.6715  2.9889  0.6068
 5414TIP3    H237878  -0.037   1.721   1.382 -1.1207  3.3453 -0.1594
 5415TIP3   OH237879   5.706   1.753   0.499  0.5660  0.2040 -0.3058
 5415TIP3    H137880   5.708   1.779   0.591 -1.7414  1.1042 -0.4371
 5415TIP3    H237881   5.780   1.800   0.459  0.7039  0.9771  0.8122
 5416TIP3   OH237882   4.452   5.922   0.745 -0.0255 -0.3504  0.0757
 5416TIP3    H137883   4.358   5.900   0.747 -0.1987  0.3625 -0.1720
 5416TIP3    H237884   4.496   5.837   0.748 -0.6741 -0.6778  0.6312
 5417TIP3   OH237885   4.069   1.938   0.563  0.2369 -0.3363 -0.4002
 5417TIP3    H137886   4.164   1.925   0.559  0.1834 -0.7108 -3.8468
 5417TIP3    H237887   4.057   2.010   0.625  2.6476 -0.8662  0.8078
 5418TIP3   OH237888   1.864   3.815   8.475  0.6413  0.4246  0.4119
 5418TIP3    H137889   1.801   3.869   8.523 -1.3777 -1.0271 -0.4583
 5418TIP3    H237890   1.908   3.765   8.543  1.3378  1.8731  1.0847
 5419TIP3   OH237891   1.783   3.148   1.386 -0.0546  0.2990 -0.2950
 5419TIP3    H137892   1.713   3.144   1.320 -0.3355 -1.9180  0.0821
 5419TIP3    H237893   1.740   3.124   1.468  1.1832 -1.5469 -0.1319
 5420TIP3   OH237894   6.673   1.475   3.186 -0.6692  0.0476  0.3930
 5420TIP3    H137895   6.761   1.439   3.193 -0.5264  0.6092  1.7411
 5420TIP3    H237896   6.626   1.436   3.260 -1.9635 -1.2920 -1.0537
 5421TIP3   OH237897   5.872   5.752   2.345  0.4138  0.4713 -0.3424
 5421TIP3    H137898   5.932   5.796   2.404 -0.3637 -0.2357  1.0095
 5421TIP3    H237899   5.879   5.659   2.367  0.7234  0.0702 -1.9523
 5422TIP3   OH237900   1.960   2.680   0.183 -0.7777  0.1655 -0.4011
 5422TIP3    H137901   2.019   2.752   0.206 -0.6379 -0.0785  0.0234
 5422TIP3    H237902   1.982   2.658   0.093 -1.3196  1.1318 -0.7957
 5423TIP3   OH237903   1.567   5.043   1.114 -0.4258  0.2435 -0.0271
 5423TIP3    H137904   1.487   5.078   1.153 -0.9335 -2.8537  2.0782
 5423TIP3    H237905   1.543   4.956   1.082  1.6363  0.0648 -1.3471
 5424TIP3   OH237906   2.066   1.369   0.812 -0.1770 -0.4699  0.0022
 5424TIP3    H137907   1.975   1.344   0.797 -0.8134  2.3632 -1.4852
 5424TIP3    H237908   2.103   1.377   0.725  1.7131 -2.0801  0.5977
 5425TIP3   OH237909   0.000   3.835   2.122 -0.3291  1.0921 -0.8041
 5425TIP3    H137910  -0.041   3.843   2.208 -0.7845 -0.5699 -0.8208
 5425TIP3    H237911   0.063   3.763   2.133 -1.6237 -0.3585 -2.2513
 5426TIP3   OH237912   1.619   3.035   0.665  0.1495  0.4781  0.5847
 5426TIP3    H137913   1.682   3.094   0.623 -0.6762  1.4614  0.6983
 5426TIP3    H237914   1.670   2.989   0.732  0.6918  1.4457  0.8476
 5427TIP3   OH237915   0.861   0.785   1.337 -0.6617 -0.0380 -0.8996
 5427TIP3    H137916   0.852   0.786   1.242 -0.9194  0.4702 -0.8715
 5427TIP3    H237917   0.786   0.736   1.368 -0.1815 -0.8519 -0.9951
 5428TIP3   OH237918   5.894   6.123   1.661  0.2044  0.1133 -0.1266
 5428TIP3    H137919   5.865   6.079   1.581 -0.8290 -2.4670  1.5514
 5428TIP3    H237920   5.832   6.196   1.672 -0.1287  0.0181 -1.2384
 5429TIP3   OH237921   3.076   4.329   0.244 -0.5745 -0.6025  0.5641
 5429TIP3    H137922   2.985   4.340   0.271 -1.4695 -0.6917 -2.1031
 5429TIP3    H237923   3.096   4.407   0.193  0.0873 -1.5065 -0.6366
 5430TIP3   OH237924   3.439   6.663   8.570 -0.3874 -0.2461  0.0093
 5430TIP3    H137925   3.447   6.625   8.483  0.5068 -0.4844  0.1857
 5430TIP3    H237926   3.528   6.662   8.605 -0.5562  0.8080  0.5229
 5431TIP3   OH237927   4.967   2.234   7.774 -0.1508  0.1170  0.2667
 5431TIP3    H137928   4.942   2.150   7.736  1.4174 -0.9025  1.4024
 5431TIP3    H237929   4.911   2.298   7.728 -0.9947 -1.4484 -0.9996
 5432TIP3   OH237930   5.528   1.557   0.551 -0.3317 -0.0873 -0.3802
 5432TIP3    H137931   5.494   1.571   0.639 -1.2135 -0.7415 -0.5962
 5432TIP3    H237932   5.590   1.627   0.537  1.6494 -1.3222  1.6587
 5433TIP3   OH237933   3.868   4.018   8.396  0.1671  0.2903 -0.7947
 5433TIP3    H137934   3.931   4.083   8.428  0.7420  1.0173 -3.2117
 5433TIP3    H237935   3.785   4.065   8.394 -0.0383  0.0036  0.2824
 5434TIP3   OH237936   0.362   6.851   0.938 -0.2969  0.1047 -0.4070
 5434TIP3    H137937   0.383   6.788   0.868 -1.4232  0.2514 -0.8863
 5434TIP3    H237938   0.382   6.803   1.019  1.1198 -0.0341 -0.7964
 5435TIP3   OH237939   1.704   0.881   2.312  0.0664 -0.3981  0.1101
 5435TIP3    H137940   1.722   0.842   2.227  0.1454 -0.8039  0.3102
 5435TIP3    H237941   1.671   0.969   2.292 -1.2414 -0.9712 -0.4080
 5436TIP3   OH237942   4.478   0.943   3.018  0.1790 -0.0101  0.2699
 5436TIP3    H137943   4.476   1.008   3.088 -0.2162 -0.5962  0.8160
 5436TIP3    H237944   4.471   0.859   3.063  2.1031 -0.5376 -0.2998
 5437TIP3   OH237945   0.032   5.814   2.896  0.3869 -0.0003 -0.1244
 5437TIP3    H137946   0.032   5.721   2.871  1.6814 -0.2965  0.8817
 5437TIP3    H237947   0.084   5.857   2.829  0.3905 -0.1157 -0.1965
 5438TIP3   OH237948   1.508   5.636   1.411 -0.5879 -0.3991  0.5508
 5438TIP3    H137949   1.524   5.543   1.396  0.8942 -0.0621 -0.1640
 5438TIP3    H237950   1.594   5.671   1.436 -1.0695  0.8206  0.5757
 5439TIP3   OH237951   2.827   0.195   8.546 -0.2578  0.4197  0.0080
 5439TIP3    H137952   2.767   0.130   8.582  0.0922 -0.3352 -0.7509
 5439TIP3    H237953   2.914   0.160   8.562 -0.0523  0.8483 -0.1455
 5440TIP3   OH237954   6.436   4.302   0.503  0.6647 -0.1065  0.0318
 5440TIP3    H137955   6.393   4.365   0.445  0.8834 -0.4277 -0.4851
 5440TIP3    H237956   6.415   4.217   0.466  1.1007 -0.3000  0.2266
 5441TIP3   OH237957   2.590   3.919   0.984  0.9455  0.3046 -0.0276
 5441TIP3    H137958   2.640   3.847   0.946  1.8455  1.1187 -0.4182
 5441TIP3    H237959   2.657   3.980   1.016  0.2471 -0.1505  2.5213
 5442TIP3   OH237960   3.651   0.102   2.912 -0.3190 -0.7647 -0.8732
 5442TIP3    H137961   3.687   0.014   2.907 -2.2678 -1.7176  0.5558
 5442TIP3    H237962   3.668   0.129   3.002 -1.5105 -0.5067 -0.7175
 5443TIP3   OH237963   0.631   3.779   7.690 -0.3306  0.0305 -0.2390
 5443TIP3    H137964   0.703   3.810   7.634 -0.4128 -0.9348 -0.9180
 5443TIP3    H237965   0.616   3.850   7.751  1.1324  0.3184 -0.1576
 5444TIP3   OH237966   2.308   4.144   7.984  0.0756 -0.6764 -0.2405
 5444TIP3    H137967   2.286   4.051   7.981 -0.0046 -0.6610 -0.1584
 5444TIP3    H237968   2.281   4.172   8.072  0.0565 -0.5658 -0.2813
 5445TIP3   OH237969   4.427   1.733   1.186 -0.5694 -0.0388 -0.3601
 5445TIP3    H137970   4.367   1.726   1.111  0.9973  1.7470 -1.8904
 5445TIP3    H237971   4.459   1.644   1.200 -0.8658 -0.4174 -1.8600
 5446TIP3   OH237972   3.306   0.531   2.371  0.4910 -0.0663  0.1651
 5446TIP3    H137973   3.266   0.456   2.327  0.9964 -0.0351 -0.3654
 5446TIP3    H237974   3.274   0.526   2.461  0.1051 -0.6179  0.0037
 5447TIP3   OH237975   4.167   4.371   8.314  0.0074  0.3266  0.3118
 5447TIP3    H137976   4.212   4.313   8.252  0.5096  0.5066  0.4975
 5447TIP3    H237977   4.099   4.413   8.262  0.5600  0.6317 -0.1858
 5448TIP3   OH237978   4.777   4.634   8.423  0.1570 -0.4896 -0.4764
 5448TIP3    H137979   4.717   4.579   8.473  1.9394 -0.2999  2.0911
 5448TIP3    H237980   4.781   4.716   8.472 -0.3303  0.9744 -2.7099
 5449TIP3   OH237981   3.614   0.704   7.789  0.3280 -0.3653 -0.2957
 5449TIP3    H137982   3.524   0.736   7.792 -0.4522 -2.3866 -0.3975
 5449TIP3    H237983   3.646   0.731   7.703  0.1585  1.1622  0.1025
 5450TIP3   OH237984   6.231   6.071   0.566 -0.3754  0.1581  0.1542
 5450TIP3    H137985   6.196   6.011   0.501 -1.2051 -0.2948  0.9916
 5450TIP3    H237986   6.326   6.059   0.562 -0.5269 -1.1713  0.2794
 5451TIP3   OH237987   3.504   5.923   0.281  0.5614  0.0135  0.4934
 5451TIP3    H137988   3.428   5.953   0.330 -0.0442 -1.3523  0.4519
 5451TIP3    H237989   3.573   5.914   0.346  0.5115  0.6712  0.6411
 5452TIP3   OH237990   5.212   5.992   2.228  0.7498 -0.2927  0.2551
 5452TIP3    H137991   5.233   6.077   2.267  0.5262 -0.6208  1.1197
 5452TIP3    H237992   5.172   6.012   2.144 -0.8772  0.5330  1.1773
 5453TIP3   OH237993   5.778   0.937   2.608  0.2786 -0.5797  0.1544
 5453TIP3    H137994   5.738   0.857   2.572 -2.7879 -0.0731  1.9954
 5453TIP3    H237995   5.751   1.007   2.549  0.2373 -0.5045  0.2615
 5454TIP3   OH237996   6.713   4.334   2.868 -0.2211 -0.0840  0.3982
 5454TIP3    H137997   6.776   4.388   2.820 -2.1719  2.1177  0.0768
 5454TIP3    H237998   6.665   4.287   2.799 -0.0544 -0.4488  0.5276
 5455TIP3   OH237999   5.081   1.842   0.834 -0.2815 -0.2137  0.4177
 5455TIP3    H138000   5.045   1.857   0.747  2.5940  0.6179 -0.7715
 5455TIP3    H238001   5.040   1.761   0.864 -2.5747  0.3511 -0.9563
 5456TIP3   OH238002   2.439   1.242   1.716  0.1074 -0.7307 -0.1638
 5456TIP3    H138003   2.359   1.263   1.763  0.0876 -0.1832 -0.4315
 5456TIP3    H238004   2.443   1.307   1.645  0.2843 -1.3570 -0.7411
 5457TIP3   OH238005   6.440   4.876   1.604 -0.0581 -0.1418 -0.1388
 5457TIP3    H138006   6.370   4.849   1.663 -1.8171  0.9522 -1.6331
 5457TIP3    H238007   6.506   4.807   1.612 -0.5444 -0.4099  2.4896
 5458TIP3   OH238008   2.198   5.182   0.872  0.1036 -0.2907  0.1133
 5458TIP3    H138009   2.160   5.207   0.788  2.8545  0.0358 -1.1695
 5458TIP3    H238010   2.193   5.086   0.873 -0.9613 -0.2476  0.1387
 5459TIP3   OH238011   5.675   1.979   8.505  0.3334 -0.0516 -0.6517
 5459TIP3    H138012   5.612   2.040   8.544 -0.5483 -1.9632  1.1179
 5459TIP3    H238013   5.760   2.006   8.541 -0.0968 -0.0908  0.4229
 5460TIP3   OH238014   5.089   5.697   0.833 -0.2100  0.1877  0.0005
 5460TIP3    H138015   5.038   5.760   0.883  0.0316  0.5893 -0.2506
 5460TIP3    H238016   5.139   5.649   0.899 -0.8701 -0.1796  0.2420
 5461TIP3   OH238017   1.975   4.365   8.424 -0.1109 -0.0458 -0.1424
 5461TIP3    H138018   2.068   4.364   8.450 -0.0068 -2.9743 -0.2738
 5461TIP3    H238019   1.954   4.273   8.410 -3.0915  0.5418 -0.0626
 5462TIP3   OH238020   0.176   2.643   7.639  0.2896 -0.0907  0.5278
 5462TIP3    H138021   0.235   2.692   7.582  1.6388 -0.3315  1.6789
 5462TIP3    H238022   0.228   2.621   7.716 -0.3428 -2.9664  0.2701
 5463TIP3   OH238023   4.516   5.374   1.231 -0.1829  0.1379  0.1038
 5463TIP3    H138024   4.469   5.300   1.270 -0.9942  0.4088 -0.3395
 5463TIP3    H238025   4.478   5.451   1.271 -1.5777  0.4632 -1.7451
 5464TIP3   OH238026   3.252   6.823   7.837 -0.1850 -0.4994 -0.0787
 5464TIP3    H138027   3.160   6.844   7.854 -0.3082 -0.2441 -0.9893
 5464TIP3    H238028   3.250   6.737   7.797  0.0468 -0.8331  0.6142
 5465TIP3   OH238029   2.886   1.560   1.347  0.1287  0.7931 -0.5010
 5465TIP3    H138030   2.890   1.616   1.270  0.6238  1.7982  0.2219
 5465TIP3    H238031   2.794   1.532   1.352  0.3970 -0.5965 -2.3136
 5466TIP3   OH238032   4.359   4.935   1.556 -0.1366  0.2210 -0.6101
 5466TIP3    H138033   4.325   4.854   1.595  0.1538  0.0434 -0.7208
 5466TIP3    H238034   4.453   4.932   1.573 -0.3565  1.4131  0.9821
 5467TIP3   OH238035   5.103   5.393   7.936 -0.0950 -0.5533  0.5892
 5467TIP3    H138036   5.184   5.407   7.888 -0.7081  0.2132 -0.2827
 5467TIP3    H238037   5.130   5.359   8.021  1.1430 -0.0820  0.4031
 5468TIP3   OH238038   1.926   6.240   2.831  0.1211  0.3142 -0.1275
 5468TIP3    H138039   1.929   6.301   2.905 -0.0246 -0.8688  0.9045
 5468TIP3    H238040   1.984   6.169   2.857  1.8962  0.9133 -2.1803
 5469TIP3   OH238041   2.464   4.824   2.892 -0.2930  0.0299 -0.8880
 5469TIP3    H138042   2.538   4.885   2.898 -1.0416  0.8275  1.2020
 5469TIP3    H238043   2.418   4.833   2.976 -1.5168 -2.0625 -1.2446
 5470TIP3   OH238044   2.543   0.450   0.139  0.6300 -0.1079 -0.3881
 5470TIP3    H138045   2.574   0.439   0.050 -3.6541  1.7218 -2.3805
 5470TIP3    H238046   2.479   0.380   0.151 -0.1580  0.7420  0.5766
 5471TIP3   OH238047   3.729   1.740   0.390  0.4733 -0.3680  0.4404
 5471TIP3    H138048   3.676   1.820   0.394 -2.0404 -1.7821 -1.5808
 5471TIP3    H238049   3.806   1.765   0.339  1.0364  1.3393  2.0257
 5472TIP3   OH238050   2.480   3.941   1.616 -0.2470 -0.1618  0.0809
 5472TIP3    H138051   2.430   3.906   1.542  0.2312 -0.4619 -0.1057
 5472TIP3    H238052   2.570   3.947   1.584  0.0808 -0.8826  0.8315
 5473TIP3   OH238053   2.746   5.811   7.804  0.0519 -0.1588  0.4918
 5473TIP3    H138054   2.761   5.725   7.764  2.5577 -0.3075  1.5306
 5473TIP3    H238055   2.827   5.859   7.786 -1.1567  1.8830  0.2595
 5474TIP3   OH238056   5.468   4.569   0.938 -0.1169 -0.1905 -0.2462
 5474TIP3    H138057   5.490   4.488   0.984 -2.3341  0.0556  1.3757
 5474TIP3    H238058   5.378   4.588   0.964  1.1058  4.2507  1.7120
 5475TIP3   OH238059   1.101   5.666   0.624  0.1390 -0.0783  0.0252
 5475TIP3    H138060   1.030   5.663   0.561 -0.0076  0.4482  0.1560
 5475TIP3    H238061   1.167   5.722   0.583 -0.0217  0.3917  0.3968
 5476TIP3   OH238062   3.391   1.934   2.964 -0.6801 -0.0554 -0.6612
 5476TIP3    H138063   3.305   1.930   3.007 -0.5535  1.9753 -0.1365
 5476TIP3    H238064   3.448   1.976   3.028  0.8414 -1.6856 -0.8687
 5477TIP3   OH238065   0.734   1.137   8.093 -0.6494  0.6400 -0.5182
 5477TIP3    H138066   0.785   1.154   8.013 -2.3675  1.5613 -1.4757
 5477TIP3    H238067   0.735   1.220   8.140  1.0091 -0.1078  0.8759
 5478TIP3   OH238068   3.879   3.343   8.282 -0.0169  0.2274 -0.3468
 5478TIP3    H138069   3.842   3.260   8.251 -1.2235  0.1881  1.1260
 5478TIP3    H238070   3.926   3.377   8.206  0.8848 -1.9962 -0.8774
 5479TIP3   OH238071   0.037   3.125   2.963 -0.2734 -0.2778  0.2885
 5479TIP3    H138072   0.027   3.030   2.973 -0.6566  0.0139  4.4426
 5479TIP3    H238073   0.102   3.135   2.894  2.6807 -3.7627  2.2220
 5480TIP3   OH238074   0.343   1.521   2.300 -0.2737  0.1131 -0.4111
 5480TIP3    H138075   0.398   1.459   2.348 -0.7438 -0.6439 -0.8382
 5480TIP3    H238076   0.400   1.556   2.232 -0.0821 -0.0420 -0.3315
 5481TIP3   OH238077   2.421   2.444   2.388  0.2305 -0.0231  0.5855
 5481TIP3    H138078   2.476   2.399   2.452 -1.6721 -4.5788 -0.5887
 5481TIP3    H238079   2.332   2.429   2.417 -0.6163  3.3232  0.0853
 5482TIP3   OH238080   1.664   2.388   0.376  0.4118 -0.3371  0.6446
 5482TIP3    H138081   1.728   2.349   0.316 -1.2993 -1.1271 -0.7644
 5482TIP3    H238082   1.662   2.480   0.352  0.6518 -0.4088  0.3385
 5483TIP3   OH238083   5.581   1.093   0.766  0.1274 -0.1091  0.0796
 5483TIP3    H138084   5.591   1.070   0.858  2.6701  0.8355  0.0984
 5483TIP3    H238085   5.490   1.070   0.746 -2.1528  3.9682  4.0364
 5484TIP3   OH238086   0.765   0.940   0.806  0.0741 -0.2380  0.1444
 5484TIP3    H138087   0.723   0.918   0.723 -0.8708 -0.2977  0.6266
 5484TIP3    H238088   0.731   1.027   0.828 -3.7195 -2.1686  2.9338
 5485TIP3   OH238089   3.193   2.670   0.001  0.3446 -0.5536  0.0165
 5485TIP3    H138090   3.268   2.611   0.008  0.8177 -0.0541 -0.6842
 5485TIP3    H238091   3.198   2.724   0.080  0.7430 -0.5020 -0.0404
 5486TIP3   OH238092   2.187   4.345   1.724 -0.0276 -0.1809 -0.1616
 5486TIP3    H138093   2.111   4.385   1.681  1.0839  0.0041 -2.0706
 5486TIP3    H238094   2.217   4.278   1.662  1.0774 -0.5886  0.7746
 5487TIP3   OH238095   5.768   6.659   1.019 -0.3429  0.1214  0.7181
 5487TIP3    H138096   5.756   6.643   1.113  1.9460  1.4504  1.3115
 5487TIP3    H238097   5.750   6.574   0.978 -1.2832 -0.5109  2.3507
 5488TIP3   OH238098   6.769   1.076   2.510 -0.3110 -0.3261 -0.2999
 5488TIP3    H138099   6.847   1.059   2.456 -0.4099 -1.1987 -0.1798
 5488TIP3    H238100   6.695   1.051   2.454 -0.3920 -1.7883  0.4103
 5489TIP3   OH238101   3.314   2.493   8.278  0.1113  0.4911  0.1269
 5489TIP3    H138102   3.276   2.581   8.275  0.7019  0.7198 -0.6896
 5489TIP3    H238103   3.240   2.436   8.303 -0.9869  0.8216 -2.1426
 5490TIP3   OH238104   5.497   0.317   1.535 -0.0728  0.0069 -0.4743
 5490TIP3    H138105   5.562   0.320   1.605 -1.3627  1.0689  0.7480
 5490TIP3    H238106   5.485   0.224   1.517  0.4827 -0.2783  0.5315
 5491TIP3   OH238107   1.692   4.646   0.775  0.3666  0.3368 -0.6674
 5491TIP3    H138108   1.631   4.593   0.723 -1.0609  0.1624  1.0974
 5491TIP3    H238109   1.717   4.718   0.717 -2.1230  0.8260 -1.2158
 5492TIP3   OH238110   0.237   0.881   0.947  0.2589 -0.6339  0.3615
 5492TIP3    H138111   0.330   0.899   0.941  0.1231 -0.4506 -2.7757
 5492TIP3    H238112   0.231   0.786   0.954  0.6946 -0.7363 -0.5138
 5493TIP3   OH238113   1.376   2.715   8.284  0.1117  0.4162  0.4298
 5493TIP3    H138114   1.432   2.752   8.352  0.9482 -0.7565  0.4085
 5493TIP3    H238115   1.428   2.644   8.245 -1.2950 -0.5772  0.2574
 5494TIP3   OH238116   0.326   2.834   3.473 -0.0184 -0.5341  0.1367
 5494TIP3    H138117   0.332   2.929   3.473 -2.7757 -0.2630 -1.2211
 5494TIP3    H238118   0.232   2.816   3.482  0.5154 -3.1624  1.2715
 5495TIP3   OH238119   6.355   0.252   8.657  0.0200  0.0481  0.4377
 5495TIP3    H138120   6.272   0.255   8.609  0.4735 -1.1661 -0.4825
 5495TIP3    H238121   6.342   0.186   8.725  0.8165 -1.6030 -0.9493
 5496TIP3   OH238122   5.816   6.583   8.041 -0.1924 -0.7255 -0.2312
 5496TIP3    H138123   5.839   6.597   8.133 -0.5435 -0.2336 -0.2148
 5496TIP3    H238124   5.732   6.627   8.030 -0.1948 -0.8556 -0.7696
 5497TIP3   OH238125   6.362   0.581   7.486 -0.6762 -0.0214  0.2444
 5497TIP3    H138126   6.325   0.665   7.459 -1.9146 -1.0847 -1.5528
 5497TIP3    H238127   6.309   0.515   7.441  1.4668 -1.7185  0.0308
 5498TIP3   OH238128   4.232   6.442   0.326  0.1978  0.4561 -0.3660
 5498TIP3    H138129   4.163   6.508   0.333 -0.1735  0.2684 -1.8346
 5498TIP3    H238130   4.191   6.361   0.356 -0.0455  0.4648 -0.6651
 5499TIP3   OH238131   4.229   5.142   7.601  0.0353  0.0622  0.1402
 5499TIP3    H138132   4.184   5.224   7.619  0.7674  0.9701 -1.8700
 5499TIP3    H238133   4.160   5.081   7.576 -0.2782  1.0016 -1.4098
 5500TIP3   OH238134   3.982   0.024   0.715 -0.0517  0.0547 -0.1857
 5500TIP3    H138135   3.962  -0.049   0.773 -0.1492  0.5023  0.3548
 5500TIP3    H238136   3.899   0.071   0.705 -0.1371 -0.2697 -1.0487
 5501TIP3   OH238137   6.389   0.571   2.591  0.0206 -0.0367  0.7969
 5501TIP3    H138138   6.460   0.632   2.609  2.4161 -2.1903 -0.8104
 5501TIP3    H238139   6.386   0.515   2.669  0.7903 -0.5484  0.4708
 5502TIP3   OH238140   6.269   1.618   1.855  0.2362 -0.4991 -0.0680
 5502TIP3    H138141   6.294   1.656   1.771  1.7804 -0.4312  0.4006
 5502TIP3    H238142   6.345   1.631   1.912 -0.9039 -0.2213  1.4684
 5503TIP3   OH238143   5.048   5.696   7.719  0.4166  0.2269 -0.3336
 5503TIP3    H138144   4.984   5.727   7.655  1.8003  0.0181 -1.8970
 5503TIP3    H238145   5.062   5.604   7.697  0.4448 -0.0226  0.6884
 5504TIP3   OH238146   6.011   3.423   8.332  0.7481  0.0680  0.0873
 5504TIP3    H138147   5.981   3.447   8.244 -0.3335  0.8030  0.6419
 5504TIP3    H238148   6.096   3.381   8.317  0.3375 -0.3218 -1.3519
 5505TIP3   OH238149   6.318   5.564   8.455 -0.4228 -0.2135  0.4857
 5505TIP3    H138150   6.340   5.480   8.415 -1.2144 -1.4956  2.6193
 5505TIP3    H238151   6.383   5.576   8.524  0.3931  1.5376 -0.5146
 5506TIP3   OH238152   6.430   5.256   2.448 -0.3674 -0.4344 -0.0823
 5506TIP3    H138153   6.351   5.202   2.453 -0.1191 -0.9926 -1.5257
 5506TIP3    H238154   6.412   5.319   2.379  0.3917 -0.4697 -0.3203
 5507TIP3   OH238155   2.245   6.283   2.287 -0.0886 -0.1851 -0.0506
 5507TIP3    H138156   2.152   6.265   2.278  0.0070  0.2052 -2.4586
 5507TIP3    H238157   2.273   6.229   2.361 -2.4649  0.8305  1.7009
 5508TIP3   OH238158   0.408   5.634   8.390 -0.1135 -0.2571  0.4363
 5508TIP3    H138159   0.487   5.677   8.422 -0.2352 -0.1292  0.5683
 5508TIP3    H238160   0.433   5.542   8.378  0.6036  0.1238 -1.3527
 5509TIP3   OH238161   3.876   4.313   1.222 -0.4214 -0.2153  0.2792
 5509TIP3    H138162   3.962   4.347   1.199  0.6932 -1.6799  1.9637
 5509TIP3    H238163   3.879   4.303   1.317 -2.4677 -0.3203  0.3862
 5510TIP3   OH238164   4.573   5.307   7.676  0.1982 -0.5641 -0.3368
 5510TIP3    H138165   4.542   5.356   7.600 -2.5111 -1.1697  0.2816
 5510TIP3    H238166   4.653   5.264   7.646  0.4276  0.9977 -2.1125
 5511TIP3   OH238167   3.227   4.523   8.034  0.2568  0.2061  0.0037
 5511TIP3    H138168   3.316   4.512   8.002 -0.0601  1.4803 -1.4175
 5511TIP3    H238169   3.194   4.599   7.987 -1.6933 -0.4248  0.2811
 5512TIP3   OH238170   4.635   2.294   7.416  0.5549 -0.1466  0.2756
 5512TIP3    H138171   4.589   2.374   7.439  2.7923  0.8990  1.4302
 5512TIP3    H238172   4.605   2.230   7.481 -1.5546 -0.4768 -0.9037
 5513TIP3   OH238173   5.074   0.095   7.839  0.4052 -0.5562 -0.2257
 5513TIP3    H138174   4.980   0.074   7.841  0.6389 -1.6553 -0.2394
 5513TIP3    H238175   5.112   0.042   7.909  0.9253  0.3882  0.2175
 5514TIP3   OH238176   6.771   1.105   0.891  0.9433  0.0866  0.1515
 5514TIP3    H138177   6.770   1.009   0.895  2.1970 -0.0075 -0.9923
 5514TIP3    H238178   6.840   1.130   0.952  0.1621  0.3170  0.9568
 5515TIP3   OH238179   2.012   2.189   7.986  0.2192  0.2528  0.6678
 5515TIP3    H138180   2.080   2.122   7.980  1.4459  1.4180  1.0805
 5515TIP3    H238181   1.992   2.194   8.079 -0.3877 -0.0313  0.5553
 5516TIP3   OH238182   5.777   1.059   2.051 -0.3720  0.1559  0.2524
 5516TIP3    H138183   5.691   1.080   2.016 -0.3734  1.9852  1.2701
 5516TIP3    H238184   5.820   1.143   2.064  1.7979 -0.7017 -0.6916
 5517TIP3   OH238185   3.742   0.803   0.226  0.4082  0.4770 -0.0768
 5517TIP3    H138186   3.698   0.845   0.300 -1.1470 -2.7631  1.0412
 5517TIP3    H238187   3.834   0.798   0.253  0.2115  1.0911  0.7642
 5518TIP3   OH238188   2.917   2.308   3.783 -0.3053  0.2499 -0.0507
 5518TIP3    H138189   2.998   2.258   3.789 -1.2113 -1.2226  0.4294
 5518TIP3    H238190   2.936   2.378   3.721  1.9057  1.0821  1.4334
 5519TIP3   OH238191   5.580   3.232   8.240  0.4476 -0.1001 -0.3597
 5519TIP3    H138192   5.654   3.178   8.267 -0.6092 -1.3927  0.0482
 5519TIP3    H238193   5.528   3.243   8.320 -1.6775 -2.2931 -1.3185
 5520TIP3   OH238194   4.342   3.162   0.944 -0.0210  0.5082  0.5288
 5520TIP3    H138195   4.306   3.180   1.031  0.3608 -1.6949  1.1888
 5520TIP3    H238196   4.429   3.202   0.946 -0.1561  0.7898  1.0250
 5521TIP3   OH238197   1.630   6.726   1.586 -0.3191 -0.2097 -0.1996
 5521TIP3    H138198   1.568   6.754   1.519 -0.6738 -0.0872  0.1760
 5521TIP3    H238199   1.714   6.765   1.558  0.1001 -2.1294 -1.8692
 5522TIP3   OH238200   0.133   2.293   3.169  0.2905  0.1700  1.4058
 5522TIP3    H138201   0.108   2.381   3.197  0.3847  0.3624  0.8853
 5522TIP3    H238202   0.161   2.250   3.250  0.0609  0.5530  1.6949
 5523TIP3   OH238203   0.346   5.625   0.569  0.4105 -0.1202 -0.0911
 5523TIP3    H138204   0.347   5.682   0.492  0.3716  0.8734  0.6225
 5523TIP3    H238205   0.438   5.603   0.583  0.3877 -0.5441 -0.5919
 5524TIP3   OH238206   3.402   6.825   3.036  0.5633 -0.8097  0.0244
 5524TIP3    H138207   3.465   6.775   3.087 -0.4569 -0.9219  1.2003
 5524TIP3    H238208   3.419   6.799   2.945  1.6451 -1.4566  0.3934
 5525TIP3   OH238209   1.451   4.447   1.603  0.4693  0.3219 -0.0346
 5525TIP3    H138210   1.461   4.537   1.636 -0.3632  0.2590  0.4293
 5525TIP3    H238211   1.394   4.456   1.526  0.9658  0.2691 -0.4102
 5526TIP3   OH238212   5.202   2.102   7.432 -0.1093  0.2956 -0.2178
 5526TIP3    H138213   5.241   2.126   7.516 -1.3782 -0.0655  0.5152
 5526TIP3    H238214   5.250   2.024   7.405 -0.2708 -0.1160  0.6393
 5527TIP3   OH238215   3.651   6.786   0.353 -0.3478 -0.2641 -0.3621
 5527TIP3    H138216   3.632   6.714   0.292 -2.7765 -0.9101  1.0348
 5527TIP3    H238217   3.666   6.862   0.296  3.1466 -1.8775 -1.9315
 5528TIP3   OH238218   6.250   0.285   0.751 -0.0478  0.1289 -0.3197
 5528TIP3    H138219   6.201   0.361   0.780 -0.9537 -0.8944  0.9466
 5528TIP3    H238220   6.183   0.220   0.729  0.6787 -1.4161  1.7632
 5529TIP3   OH238221   5.986   1.194   0.330 -0.5805 -0.6052  0.1990
 5529TIP3    H138222   5.914   1.197   0.268 -0.8821 -1.1050  0.5164
 5529TIP3    H238223   5.952   1.236   0.409 -0.8085 -1.5455  0.6193
 5530TIP3   OH238224   5.455   5.293   3.472 -0.2094 -0.0123 -0.3061
 5530TIP3    H138225   5.513   5.217   3.465 -1.7953 -1.1405 -2.5771
 5530TIP3    H238226   5.514   5.368   3.476  1.4169 -1.1721 -1.4310
 5531TIP3   OH238227   1.671   4.577   0.068  0.3237  0.3570 -0.0847
 5531TIP3    H138228   1.743   4.541   0.119  1.0157  2.6870  0.7322
 5531TIP3    H238229   1.618   4.625   0.131  0.3403  2.0294 -1.2641
 5532TIP3   OH238230   5.912   2.851   8.230 -0.5950  0.6096 -0.1800
 5532TIP3    H138231   5.875   2.769   8.199  1.2819 -0.3512 -0.0288
 5532TIP3    H238232   5.969   2.826   8.303 -0.3766  2.1186  0.2151
 5533TIP3   OH238233   1.980   2.527   2.075 -0.8391 -0.0010 -0.0268
 5533TIP3    H138234   2.018   2.528   2.162 -1.3684  0.6231  0.2035
 5533TIP3    H238235   1.988   2.436   2.046  0.1652 -0.0261  0.2976
 5534TIP3   OH238236   5.998   0.556   2.034  0.7343  0.0397  0.0149
 5534TIP3    H138237   6.048   0.525   1.958 -0.3537  0.0631 -0.7410
 5534TIP3    H238238   5.913   0.583   1.997  1.2796  3.1506  0.7116
 5535TIP3   OH238239   5.413   0.732   8.401 -0.3091 -0.0311 -0.6977
 5535TIP3    H138240   5.457   0.815   8.385  1.2895 -0.8218 -0.5166
 5535TIP3    H238241   5.429   0.680   8.323  0.6420 -0.9817  0.1060
 5536TIP3   OH238242   2.671   3.059   8.425  0.5803 -0.0464  0.0613
 5536TIP3    H138243   2.723   2.988   8.386 -0.4469 -0.4522 -0.6176
 5536TIP3    H238244   2.593   3.064   8.370 -0.1798  0.4335  1.1607
 5537TIP3   OH238245   4.579   6.603   1.620 -0.1371 -0.6672 -0.3500
 5537TIP3    H138246   4.490   6.580   1.646  0.5638 -1.2679  1.6481
 5537TIP3    H238247   4.617   6.522   1.588 -0.8515 -0.0254 -3.0940
 5538TIP3   OH238248   4.212   2.601   8.359  0.3462 -0.1874 -0.3064
 5538TIP3    H138249   4.224   2.558   8.274  0.3070  0.6858 -0.7766
 5538TIP3    H238250   4.182   2.689   8.336 -0.5307 -0.2215  0.6486
 5539TIP3   OH238251   3.223   4.867   1.248  0.7127  0.3692 -0.3616
 5539TIP3    H138252   3.254   4.784   1.212  0.6311 -0.6476  1.7501
 5539TIP3    H238253   3.150   4.892   1.190  0.4626 -1.2577 -0.8015
 5540TIP3   OH238254   4.387   6.352   2.488  0.0452  0.5085 -0.0327
 5540TIP3    H138255   4.380   6.325   2.396 -2.0781 -0.2764  0.3058
 5540TIP3    H238256   4.370   6.446   2.486  0.3173  0.5565 -0.4497
 5541TIP3   OH238257   2.294   5.656   0.905  0.6372 -0.3562  0.1898
 5541TIP3    H138258   2.350   5.721   0.948  0.2468 -0.1349  0.3721
 5541TIP3    H238259   2.321   5.659   0.813 -1.2541  2.1733 -0.4269
 5542TIP3   OH238260   3.779   6.822   1.582  0.1070 -0.0091 -0.2138
 5542TIP3    H138261   3.686   6.841   1.595  0.6501  1.7850  1.7035
 5542TIP3    H238262   3.793   6.739   1.626 -0.5168 -0.0869 -0.1488
 5543TIP3   OH238263   6.092   2.108   1.023  0.0233 -1.1010 -0.1756
 5543TIP3    H138264   6.187   2.119   1.020  0.1534 -1.6852  1.1537
 5543TIP3    H238265   6.080   2.017   1.049 -0.9199 -1.3499 -1.4422
 5544TIP3   OH238266   5.377   3.198   1.229  0.4509 -0.4218 -0.0165
 5544TIP3    H138267   5.300   3.232   1.274  0.7482  0.5782 -0.2242
 5544TIP3    H238268   5.359   3.212   1.136  0.2953 -1.4778 -0.1488
 5545TIP3   OH238269   3.503   0.364   1.506  0.3363  0.5465  0.2533
 5545TIP3    H138270   3.444   0.438   1.518  0.5751  0.8157 -0.1909
 5545TIP3    H238271   3.511   0.355   1.411 -0.5065 -0.7168  0.2952
 5546TIP3   OH238272   4.496   2.700   0.771  0.6974  0.1023 -0.1309
 5546TIP3    H138273   4.458   2.785   0.793 -0.7675 -0.4419 -0.4972
 5546TIP3    H238274   4.455   2.639   0.831  1.1797 -0.4709 -0.3788
 5547TIP3   OH238275   5.933   6.441   6.699  0.3867  0.3471  0.5079
 5547TIP3    H138276   5.904   6.516   6.751 -0.6372  0.4351 -0.1504
 5547TIP3    H238277   5.931   6.474   6.609  0.3892 -0.3333  0.2585
 5548TIP3   OH238278   6.399   6.485   7.844 -0.0326  0.0077  0.6939
 5548TIP3    H138279   6.424   6.395   7.827  2.1804  0.3754  1.6857
 5548TIP3    H238280   6.328   6.479   7.907 -0.4992 -1.0467  0.0914
 5549TIP3   OH238281   2.064   4.329   0.087 -0.1550 -0.5179  0.0261
 5549TIP3    H138282   2.100   4.253   0.041  1.0162  0.0449 -0.0206
 5549TIP3    H238283   2.103   4.405   0.043  0.5521  0.0548  1.5459
 5550TIP3   OH238284   2.382   4.538   2.221 -0.0548  0.0674  0.0902
 5550TIP3    H138285   2.318   4.478   2.259  0.1371 -0.5164 -0.4700
 5550TIP3    H238286   2.460   4.484   2.205  0.2607  0.5532 -0.0708
 5551TIP3   OH238287   4.745   5.890   2.251 -0.1248  0.0778 -0.0069
 5551TIP3    H138288   4.727   5.800   2.281 -1.4961 -0.0890 -1.2312
 5551TIP3    H238289   4.672   5.911   2.193  1.0776  1.3562 -1.1191
 5552TIP3   OH238290   5.645   2.504   2.266 -0.2101  0.3161  0.2306
 5552TIP3    H138291   5.639   2.599   2.267  1.0710  0.4057  0.3563
 5552TIP3    H238292   5.735   2.485   2.239 -0.3014 -0.8504  0.6663
 5553TIP3   OH238293   1.497   0.194   1.204  0.1316  0.4404 -0.5109
 5553TIP3    H138294   1.435   0.266   1.204  1.6758  1.8747  1.0901
 5553TIP3    H238295   1.534   0.194   1.293  1.5969 -1.0457 -1.0653
 5554TIP3   OH238296   3.234   3.962   2.961  0.4132 -0.5004  0.4933
 5554TIP3    H138297   3.263   3.890   3.017  0.5773 -0.4246  0.5056
 5554TIP3    H238298   3.264   4.041   3.006  1.6877 -0.4782 -0.3433
 5555TIP3   OH238299   3.477   2.815   0.539  0.1021  0.0533 -0.1553
 5555TIP3    H138300   3.476   2.845   0.448  0.8592 -0.0283 -0.2004
 5555TIP3    H238301   3.474   2.720   0.533 -1.7154  0.0705 -0.0280
 5556TIP3   OH238302   4.115   1.529   2.204  0.5614 -0.2143  0.1701
 5556TIP3    H138303   4.085   1.617   2.226  0.7200 -0.3645  1.0036
 5556TIP3    H238304   4.210   1.538   2.194  0.4916 -0.1484 -0.4635
 5557TIP3   OH238305   6.737   2.644   0.035  0.2798 -0.5528  0.1714
 5557TIP3    H138306   6.769   2.732   0.054 -2.7133  0.8074 -0.3722
 5557TIP3    H238307   6.768   2.625  -0.053 -0.2142  0.6002 -0.2663
 5558TIP3   OH238308   6.652   5.431   1.021 -0.0332 -0.1907  0.0803
 5558TIP3    H138309   6.586   5.462   1.083 -0.2072 -1.4154  0.5314
 5558TIP3    H238310   6.619   5.346   0.990  1.3772 -0.9040  0.4336
 5559TIP3   OH238311   4.830   5.136   7.902 -0.1600  0.5449 -0.4966
 5559TIP3    H138312   4.794   5.151   7.990  0.1423  0.6331 -0.3885
 5559TIP3    H238313   4.789   5.054   7.874  0.0876  0.2738 -0.0849
 5560TIP3   OH238314   6.630   1.459   0.146 -0.5097  0.3845 -0.1259
 5560TIP3    H138315   6.694   1.426   0.209  0.9014  1.4547 -0.9208
 5560TIP3    H238316   6.596   1.381   0.102 -1.5835 -0.3866  1.9496
 5561TIP3   OH238317   6.832   2.342   2.360  0.2780  0.3049 -0.3326
 5561TIP3    H138318   6.773   2.393   2.303 -0.0269  1.1583  0.7169
 5561TIP3    H238319   6.881   2.287   2.299 -2.1327 -1.0240 -1.2271
 5562TIP3   OH238320   3.286   4.539   8.321  0.3678  0.5292  0.4834
 5562TIP3    H138321   3.205   4.488   8.326 -0.2378  1.5388  1.2139
 5562TIP3    H238322   3.292   4.567   8.230  1.1322 -1.4705 -0.1513
 5563TIP3   OH238323   1.791   2.012   8.405 -0.3314  0.2488 -0.4026
 5563TIP3    H138324   1.715   1.958   8.426  0.6335  0.0109  3.3584
 5563TIP3    H238325   1.799   2.070   8.481  2.6897  0.8790 -1.0906
 5564TIP3   OH238326   6.059   5.203   2.219 -0.0636  0.2595  0.3744
 5564TIP3    H138327   6.121   5.275   2.216  0.9562 -0.5575  1.1698
 5564TIP3    H238328   6.108   5.130   2.257 -1.2700 -0.6512  0.2573
 5565TIP3   OH238329   5.990   0.832   1.563 -0.1235 -0.5819  0.4310
 5565TIP3    H138330   5.930   0.885   1.510 -0.8321 -1.7028  0.0938
 5565TIP3    H238331   6.027   0.894   1.626 -1.2675  0.2243  0.3354
 5566TIP3   OH238332   0.271   3.667   1.920  0.0680  0.1211  0.1319
 5566TIP3    H138333   0.324   3.706   1.990 -0.2781  0.1155  0.4041
 5566TIP3    H238334   0.280   3.728   1.847 -1.5336  1.4682  0.9843
 5567TIP3   OH238335   6.054   2.981   1.912 -0.9656  0.0170  0.7030
 5567TIP3    H138336   6.033   3.038   1.837  0.4063 -0.9418 -0.4617
 5567TIP3    H238337   6.116   3.032   1.964 -1.0849  0.2696  0.6022
 5568TIP3   OH238338   6.089   2.951   1.502 -0.2929 -0.2352  0.3525
 5568TIP3    H138339   5.997   2.958   1.530 -0.2735  0.2918  0.2946
 5568TIP3    H238340   6.094   3.007   1.424 -0.1762 -1.1066 -0.2744
 5569TIP3   OH238341   2.217   1.519   2.199  0.5491 -0.0459  0.8758
 5569TIP3    H138342   2.241   1.598   2.151  0.7915 -1.1560 -0.9109
 5569TIP3    H238343   2.152   1.550   2.263  0.7499  1.6110  0.3464
 5570TIP3   OH238344   6.845   3.781   1.838  0.0101  0.6222 -0.1196
 5570TIP3    H138345   6.750   3.782   1.853 -0.1022  2.0665 -0.7349
 5570TIP3    H238346   6.883   3.789   1.926 -0.4741  1.3816  0.0328
 5571TIP3   OH238347   3.105   6.794   2.612  0.7740 -0.1951  0.0626
 5571TIP3    H138348   3.149   6.710   2.622  1.4421 -0.1200 -1.7525
 5571TIP3    H238349   3.147   6.852   2.676  0.7860 -1.0484  0.8415
 5572TIP3   OH238350   4.119   6.877   2.170  0.0127 -0.2942 -0.8500
 5572TIP3    H138351   4.145   6.873   2.262  1.1848  0.0454 -1.1567
 5572TIP3    H238352   4.055   6.949   2.167  0.4299  0.0986 -0.4104
 5573TIP3   OH238353   6.796   0.344   0.702  0.1941  0.6118 -0.3184
 5573TIP3    H138354   6.784   0.367   0.794 -1.6023 -0.0599 -0.3398
 5573TIP3    H238355   6.713   0.368   0.660  0.1795 -1.0431 -1.3318
 5574TIP3   OH238356   3.763   4.504   7.960 -0.0302  0.0106  0.1184
 5574TIP3    H138357   3.811   4.444   7.903  0.1392  0.5804 -0.3386
 5574TIP3    H238358   3.758   4.586   7.911 -1.5324 -0.0471  0.1056
 5575TIP3   OH238359   2.249   2.969   2.790  0.0941  0.7023  0.2938
 5575TIP3    H138360   2.183   2.950   2.724 -0.7909  0.3648  1.2507
 5575TIP3    H238361   2.222   3.051   2.830  1.0542  1.3165 -0.2634
 5576TIP3   OH238362   5.787   0.980   0.619  0.1901  0.3268  0.5174
 5576TIP3    H138363   5.708   1.020   0.655  0.2081  0.9419 -0.0839
 5576TIP3    H238364   5.858   1.037   0.647  0.4805 -0.4625  1.4147
 5577TIP3   OH238365   1.613   2.146   1.380  0.1160  0.1687 -0.2395
 5577TIP3    H138366   1.604   2.110   1.292 -0.7343  0.6881 -0.3800
 5577TIP3    H238367   1.562   2.086   1.435  1.4067 -0.6860  0.0677
 5578TIP3   OH238368   4.897   6.674   1.598 -0.4326 -0.3951  0.1310
 5578TIP3    H138369   4.848   6.636   1.671 -0.8963  0.6253  0.3689
 5578TIP3    H238370   4.955   6.738   1.639 -1.1958  0.6951 -0.4342
 5579TIP3   OH238371   0.579   6.004   0.597 -0.1363  0.6930  0.4199
 5579TIP3    H138372   0.659   6.057   0.601  0.3691 -0.0539  0.5350
 5579TIP3    H238373   0.567   5.972   0.687 -0.0570  0.0736  0.2122
 5580TIP3   OH238374   4.692   0.675   7.681 -0.1303 -0.2651  0.4489
 5580TIP3    H138375   4.667   0.766   7.667 -1.0658 -0.5385  0.2594
 5580TIP3    H238376   4.718   0.643   7.595 -1.3020 -0.6027  0.2015
 5581TIP3   OH238377   1.887   4.540   1.279 -0.1589 -0.7340 -0.5620
 5581TIP3    H138378   1.817   4.527   1.215  0.2419 -0.7119 -1.0089
 5581TIP3    H238379   1.852   4.605   1.340 -0.0780  0.1955 -1.4747
 5582TIP3   OH238380   6.597   2.821   1.556  0.0802  0.1758 -0.1938
 5582TIP3    H138381   6.686   2.813   1.524 -0.1667 -0.9327 -0.6750
 5582TIP3    H238382   6.542   2.805   1.479 -0.5144 -0.7110  0.3876
 5583TIP3   OH238383   0.222   6.225   8.076  0.2281 -0.5893  0.0527
 5583TIP3    H138384   0.140   6.177   8.064 -1.0779  1.7309 -0.7433
 5583TIP3    H238385   0.246   6.253   7.988  0.1429  1.4409  0.6434
 5584TIP3   OH238386   0.630   1.995   2.066  0.2607 -0.2147 -0.5557
 5584TIP3    H138387   0.651   1.902   2.059  0.4702 -0.1945 -0.2442
 5584TIP3    H238388   0.700   2.039   2.017  0.7760 -0.1660  0.2023
 5585TIP3   OH238389   5.332   4.920   7.995 -0.2378 -0.4174  0.1016
 5585TIP3    H138390   5.238   4.909   8.007 -0.2085 -0.2805  0.4526
 5585TIP3    H238391   5.347   5.013   8.010 -0.2582 -0.1426 -1.3689
 5586TIP3   OH238392   0.156   3.747   0.148 -0.0898 -0.0055 -0.4200
 5586TIP3    H138393   0.198   3.756   0.063 -0.1270  3.8964 -0.2035
 5586TIP3    H238394   0.227   3.759   0.211 -0.4226 -0.6741  0.0951
 5587TIP3   OH238395   2.778   3.788   8.072 -0.2605 -0.6583 -0.2622
 5587TIP3    H138396   2.818   3.833   8.147  0.0525  0.4780 -1.0909
 5587TIP3    H238397   2.694   3.832   8.060  0.2234 -0.0106 -1.3375
 5588TIP3   OH238398   1.057   3.854   0.176 -0.5528  0.5201  0.0886
 5588TIP3    H138399   1.066   3.949   0.186  2.8913  0.3939 -0.7723
 5588TIP3    H238400   1.042   3.841   0.083  0.8081  0.1748 -0.1006
 5589TIP3   OH238401   1.249   1.234   1.198  0.5089 -0.6030  0.3435
 5589TIP3    H138402   1.166   1.264   1.161  1.3825  0.7747 -0.6038
 5589TIP3    H238403   1.226   1.154   1.246 -0.7132 -2.6925 -3.2971
 5590TIP3   OH238404   1.879   5.623   1.901  0.1622  0.1370  0.6809
 5590TIP3    H138405   1.790   5.594   1.921 -1.0344  1.6069 -1.9085
 5590TIP3    H238406   1.936   5.554   1.935 -2.0424 -1.5139  1.2167
 5591TIP3   OH238407   6.418   4.760   8.451  0.1882 -0.1487 -0.3620
 5591TIP3    H138408   6.408   4.852   8.475  1.7016  1.4403 -4.6924
 5591TIP3    H238409   6.335   4.737   8.409  0.4810 -0.0957 -0.9804
 5592TIP3   OH238410   6.868   0.155   2.029  0.1757  0.1888  0.0072
 5592TIP3    H138411   6.902   0.219   1.966  0.8000  1.3560  1.4833
 5592TIP3    H238412   6.775   0.177   2.038  0.1365  0.1630 -0.3056
 5593TIP3   OH238413   2.706   2.067   1.156  0.5257 -0.6118 -0.0681
 5593TIP3    H138414   2.641   2.137   1.161  2.3318  1.0726  2.5381
 5593TIP3    H238415   2.706   2.029   1.244  1.4850 -2.0755 -0.6767
 5594TIP3   OH238416   3.951   5.960   0.409  0.4616 -0.3473 -0.3529
 5594TIP3    H138417   3.905   6.006   0.338  0.7703  0.3581 -0.1058
 5594TIP3    H238418   4.005   6.027   0.450  2.0732 -1.2476 -0.9199
 5595TIP3   OH238419   4.883   3.333   7.458  0.1030 -0.3828  0.0186
 5595TIP3    H138420   4.835   3.324   7.375  0.5522 -1.1625 -0.1670
 5595TIP3    H238421   4.965   3.285   7.444  0.2275 -0.4407  0.8812
 5596TIP3   OH238422   5.854   5.777   3.075  0.2378 -0.2461  0.3962
 5596TIP3    H138423   5.864   5.770   3.170  0.1346 -0.9392  0.3648
 5596TIP3    H238424   5.768   5.818   3.062  0.5625  0.5026  0.6074
 5597TIP3   OH238425   2.412   1.372   1.192 -0.1938  0.2938  0.3596
 5597TIP3    H138426   2.409   1.420   1.110 -1.9396  0.1968  0.3295
 5597TIP3    H238427   2.406   1.280   1.167 -1.0762  0.2812  0.6047
 5598TIP3   OH238428   5.304   0.207   1.233 -0.6645  0.2814 -0.2473
 5598TIP3    H138429   5.214   0.182   1.214 -0.2719 -1.3853 -0.1109
 5598TIP3    H238430   5.357   0.139   1.191  0.5351  1.1783 -0.2557
 5599TIP3   OH238431   3.583   2.147   2.364 -0.4031  0.3502 -0.4852
 5599TIP3    H138432   3.583   2.062   2.320  0.2055 -1.5945  2.9376
 5599TIP3    H238433   3.637   2.134   2.442 -2.1235  3.2235  1.3883
 5600TIP3   OH238434   6.682   0.634   1.101 -0.1295  0.3524 -0.0455
 5600TIP3    H138435   6.694   0.719   1.144 -1.8960  0.9140 -0.5897
 5600TIP3    H238436   6.592   0.608   1.123  0.2287 -1.1739 -0.2596
 5601TIP3   OH238437   5.006   3.791   7.660  0.5637  0.0049 -0.3625
 5601TIP3    H138438   5.030   3.835   7.741  0.2658  1.0375 -0.8153
 5601TIP3    H238439   4.918   3.822   7.640  0.3294 -0.8304 -0.6896
 5602TIP3   OH238440   5.069   1.223   0.619 -0.0732 -0.3933 -0.5528
 5602TIP3    H138441   5.110   1.201   0.535  0.9120 -0.7910  0.0099
 5602TIP3    H238442   5.020   1.303   0.601  1.6843  0.6320 -1.0807
 5603TIP3   OH238443   6.285   5.072   8.232  0.1800  0.1933 -0.4022
 5603TIP3    H138444   6.295   5.130   8.157 -0.7325  2.0194  0.8350
 5603TIP3    H238445   6.194   5.044   8.229 -0.4964  2.0386  1.1890
 5604TIP3   OH238446   2.287   0.453   2.014  0.0018 -0.5389 -0.1056
 5604TIP3    H138447   2.271   0.372   1.967  0.3572 -0.2507 -0.7412
 5604TIP3    H238448   2.310   0.425   2.103 -1.2337 -1.0593  0.0630
 5605TIP3   OH238449   3.335   0.032   8.564  0.3309  0.0649  0.2791
 5605TIP3    H138450   3.344  -0.063   8.571  1.4691  0.1287 -0.0554
 5605TIP3    H238451   3.419   0.066   8.596  0.0450  0.9453  0.1109
 5606TIP3   OH238452   4.552   3.759   1.348 -0.3521  0.0570  0.8190
 5606TIP3    H138453   4.593   3.694   1.292 -1.3246  0.4154 -0.3536
 5606TIP3    H238454   4.490   3.709   1.402 -0.7967 -0.0598  0.2125
 5607TIP3   OH238455   0.864   4.763   8.375  0.6374 -0.1200 -0.3982
 5607TIP3    H138456   0.867   4.767   8.471  0.4351 -0.5391 -0.3774
 5607TIP3    H238457   0.780   4.723   8.355 -0.3601  1.9947 -0.8069
 5608TIP3   OH238458   0.435   6.476   1.854  0.1967 -0.0383  0.2117
 5608TIP3    H138459   0.340   6.482   1.865  0.0076  1.6339 -1.7071
 5608TIP3    H238460   0.471   6.532   1.922 -0.4302  2.0825 -1.0875
 5609TIP3   OH238461   2.086   4.533   2.301 -0.7415  0.5574  0.6193
 5609TIP3    H138462   2.003   4.572   2.329  0.5730  2.6607  1.8654
 5609TIP3    H238463   2.086   4.540   2.206 -2.2680 -0.1697  0.5352
 5610TIP3   OH238464   6.640   5.794   2.153 -0.0886 -0.1425 -0.5385
 5610TIP3    H138465   6.572   5.829   2.210 -2.4110 -2.3816 -1.7505
 5610TIP3    H238466   6.608   5.809   2.064  0.6282 -1.8940 -1.1420
 5611TIP3   OH238467   5.682   0.247   1.126  0.1810  0.4908 -0.0958
 5611TIP3    H138468   5.762   0.286   1.092  0.3010 -0.6211 -1.1413
 5611TIP3    H238469   5.666   0.293   1.209  0.7533  2.1520 -0.8758
 5612TIP3   OH238470   3.903   2.902   1.782 -0.2807  0.5830  0.0459
 5612TIP3    H138471   3.866   2.944   1.860  0.4589 -0.0804  0.7636
 5612TIP3    H238472   3.985   2.948   1.766 -0.3445  0.6014 -0.2469
 5613TIP3   OH238473   6.815   2.622   1.635  0.2581  0.0420  0.1780
 5613TIP3    H138474   6.828   2.703   1.586  1.5380 -1.3115 -1.8696
 5613TIP3    H238475   6.729   2.591   1.606 -0.4324  0.8428  1.2985
 5614TIP3   OH238476   4.547   2.249   2.453  0.4239  0.4083 -0.5553
 5614TIP3    H138477   4.475   2.222   2.396  0.1855 -1.2025  0.4443
 5614TIP3    H238478   4.622   2.200   2.421  0.8687  1.3176 -0.9520
 5615TIP3   OH238479   2.743   1.185   0.405 -0.0124  0.2105 -0.3564
 5615TIP3    H138480   2.761   1.133   0.483 -0.5054  1.5064  0.6611
 5615TIP3    H238481   2.703   1.123   0.344  0.0952 -0.7653  0.5309
 5616TIP3   OH238482   2.679   4.551   1.088  0.0604  0.0643 -0.0672
 5616TIP3    H138483   2.618   4.546   1.162  1.6059 -0.7369  1.2488
 5616TIP3    H238484   2.756   4.596   1.124  0.8882 -0.4255 -1.1569
 5617TIP3   OH238485   6.617   0.695   7.487  0.1521 -0.0409 -0.1278
 5617TIP3    H138486   6.600   0.783   7.454  0.6473 -0.7265 -2.3915
 5617TIP3    H238487   6.531   0.657   7.501 -0.1380 -0.2516 -2.2501
 5618TIP3   OH238488   5.607   5.239   0.295  0.1789 -0.0112 -0.0755
 5618TIP3    H138489   5.520   5.217   0.263  0.1314 -1.3491  0.8899
 5618TIP3    H238490   5.665   5.221   0.221 -0.3432  0.8835 -0.7207
 5619TIP3   OH238491   3.225   0.028   1.053 -0.5377 -0.6179 -0.5967
 5619TIP3    H138492   3.214  -0.053   1.003  1.3489 -0.3640 -1.4977
 5619TIP3    H238493   3.289   0.079   1.004  0.5653  0.1306  1.4704
 5620TIP3   OH238494   5.498   6.112   1.515  0.2931 -0.1859  0.1693
 5620TIP3    H138495   5.415   6.130   1.559 -0.1454  0.7453 -0.9677
 5620TIP3    H238496   5.472   6.092   1.424  1.2404 -0.9249  0.0531
 5621TIP3   OH238497   2.445   6.133   1.946  0.1094  0.6922  0.0642
 5621TIP3    H138498   2.400   6.184   2.013  0.8728  0.3034  0.8834
 5621TIP3    H238499   2.392   6.054   1.936 -0.2190  0.9281 -0.0866
 5622TIP3   OH238500   0.651   5.486   3.281 -0.4981  0.5453  0.1971
 5622TIP3    H138501   0.715   5.517   3.217 -0.6495  2.3694  0.8596
 5622TIP3    H238502   0.698   5.485   3.364  0.0772 -3.0725 -0.0304
 5623TIP3   OH238503   6.588   4.314   1.234 -0.0180  0.7918  0.3569
 5623TIP3    H138504   6.494   4.326   1.246 -0.1084  1.3724 -0.7613
 5623TIP3    H238505   6.604   4.339   1.143  0.9461 -1.0676 -0.0305
 5624TIP3   OH238506   2.008   0.881   1.593  0.7099 -0.0335  0.7076
 5624TIP3    H138507   1.959   0.948   1.546  0.6144 -1.2343 -0.9852
 5624TIP3    H238508   2.099   0.911   1.591  0.4154  0.9785  1.6838
 5625TIP3   OH238509   2.180   1.714   0.399 -0.6745  0.2552 -0.6524
 5625TIP3    H138510   2.209   1.804   0.383  0.8050  0.2063  1.4544
 5625TIP3    H238511   2.128   1.720   0.479  0.9297 -0.9743  0.5383
 5626TIP3   OH238512   3.418   0.476   2.625 -0.1023 -0.5897  0.6819
 5626TIP3    H138513   3.390   0.513   2.709  0.1699  0.1848  0.4425
 5626TIP3    H238514   3.507   0.509   2.613 -0.7863  0.8258 -0.7699
 5627TIP3   OH238515   4.410   3.369   1.544  0.3657 -0.1718  0.2010
 5627TIP3    H138516   4.452   3.402   1.624  0.3456 -1.1934  0.6539
 5627TIP3    H238517   4.394   3.447   1.491 -0.2591  0.6106  1.4949
 5628TIP3   OH238518   1.246   1.454   1.754  0.2558  0.4035  0.3744
 5628TIP3    H138519   1.273   1.485   1.668 -0.5466  0.8011  0.2533
 5628TIP3    H238520   1.152   1.471   1.757  0.1188 -0.3918  1.0023
 5629TIP3   OH238521   3.252   4.393   8.648 -0.1241  0.0173 -0.5773
 5629TIP3    H138522   3.177   4.406   8.590  0.1809  1.8204 -0.6289
 5629TIP3    H238523   3.236   4.452   8.722 -0.6172 -2.3859  1.3898
 5630TIP3   OH238524   3.913   4.810   0.582  0.1508 -0.4194 -0.3813
 5630TIP3    H138525   3.889   4.888   0.632  1.3048  0.1756 -0.7143
 5630TIP3    H238526   3.922   4.741   0.648  0.8512  0.1592  0.1502
 5631TIP3   OH238527   0.872   6.592   7.959 -0.4535 -0.0799 -0.6907
 5631TIP3    H138528   0.955   6.581   8.005 -0.9100  1.2500  0.5492
 5631TIP3    H238529   0.806   6.585   8.028 -1.2915  0.0213 -1.4707
 5632TIP3   OH238530   6.208   3.116   2.826 -0.6340  0.5474 -0.0306
 5632TIP3    H138531   6.131   3.093   2.877 -0.4984  0.0884 -0.0245
 5632TIP3    H238532   6.227   3.207   2.849  0.1095  0.0169  1.6217
 5633TIP3   OH238533   0.514   4.477   3.532 -0.5196 -0.5778  0.1075
 5633TIP3    H138534   0.557   4.479   3.617 -0.7427 -2.4481  0.3041
 5633TIP3    H238535   0.428   4.517   3.547  0.0333  0.5324  0.3777
 5634TIP3   OH238536   6.845   2.830   1.463 -0.4335  0.1542  0.4163
 5634TIP3    H138537   6.914   2.786   1.414  0.2854  0.6132  0.9851
 5634TIP3    H238538   6.881   2.917   1.483 -0.7370  0.0230  1.6395
 5635TIP3   OH238539   6.633   1.514   0.500  0.6696  0.3204  0.2173
 5635TIP3    H138540   6.550   1.484   0.464  1.1593 -1.5336  0.5359
 5635TIP3    H238541   6.609   1.567   0.576 -0.2278 -0.5562  0.5591
 5636TIP3   OH238542   2.650   0.991   3.356  0.2362  0.1177 -0.4205
 5636TIP3    H138543   2.578   0.930   3.374 -0.5560  1.7270  2.4822
 5636TIP3    H238544   2.729   0.941   3.374 -0.3126 -0.5210  0.2950
 5637TIP3   OH238545   6.313   6.877   2.229 -0.0877 -0.5284  0.4751
 5637TIP3    H138546   6.393   6.915   2.266  0.8439 -0.6399 -1.2927
 5637TIP3    H238547   6.273   6.948   2.180  1.0143 -1.4161 -1.8334
 5638TIP3   OH238548   6.816   2.254   8.202  0.8508  0.4938  0.3851
 5638TIP3    H138549   6.858   2.205   8.131 -1.5621 -1.2599  0.0544
 5638TIP3    H238550   6.854   2.218   8.282 -0.9207 -2.1973  0.1573
 5639TIP3   OH238551   2.426   1.279   0.441  0.0770  0.2589  0.1066
 5639TIP3    H138552   2.505   1.228   0.420  0.5262  0.2695  1.6302
 5639TIP3    H238553   2.455   1.370   0.438  0.0295  0.2797  0.2723
 5640TIP3   OH238554   1.024   0.254   2.841  0.5782  0.7005 -0.3446
 5640TIP3    H138555   1.053   0.279   2.928  2.1269  0.0558 -0.6492
 5640TIP3    H238556   1.096   0.278   2.783  0.4741 -0.8130 -1.1546
 5641TIP3   OH238557   4.666   4.674   1.668 -0.1212 -0.0597 -0.0196
 5641TIP3    H138558   4.676   4.587   1.707 -2.3091 -0.8141 -0.9541
 5641TIP3    H238559   4.598   4.716   1.720 -1.4560 -0.2294 -1.5337
 5642TIP3   OH238560   4.816   6.449   1.108 -0.2809 -0.1496 -0.8641
 5642TIP3    H138561   4.745   6.512   1.117 -0.5193 -0.6722  1.9607
 5642TIP3    H238562   4.871   6.464   1.185  0.5588 -2.2496 -0.9936
 5643TIP3   OH238563   2.039   1.669   0.863 -0.2063  0.3538  0.2605
 5643TIP3    H138564   2.045   1.746   0.806  0.2077  1.0634  1.2186
 5643TIP3    H238565   2.124   1.626   0.854 -0.2017  0.3729  0.2124
 5644TIP3   OH238566   6.411   1.364   3.067 -0.4155 -0.4178 -0.0765
 5644TIP3    H138567   6.400   1.432   3.001 -1.1453 -1.0854 -0.6793
 5644TIP3    H238568   6.444   1.409   3.144 -1.7091  0.7608 -0.1781
 5645TIP3   OH238569   6.175   3.558   2.091  0.0058  0.4551 -0.5527
 5645TIP3    H138570   6.244   3.621   2.111  1.1118 -0.9553  0.2045
 5645TIP3    H238571   6.169   3.503   2.169 -1.6136  0.2025 -0.8239
 5646TIP3   OH238572   6.289   2.550   1.959 -0.3730  0.2846 -0.3581
 5646TIP3    H138573   6.309   2.598   2.040 -0.4171  1.0901 -0.8153
 5646TIP3    H238574   6.272   2.618   1.895 -0.6699 -0.3586 -0.9694
 5647TIP3   OH238575   6.228   2.755   3.382 -0.2485  0.0469  0.2094
 5647TIP3    H138576   6.260   2.665   3.374 -0.2804  0.1773 -2.1051
 5647TIP3    H238577   6.280   2.793   3.453  2.6775 -0.6256 -1.4112
 5648TIP3   OH238578   5.191   5.864   1.213 -0.2955 -0.0313 -0.4954
 5648TIP3    H138579   5.150   5.851   1.298 -0.5096 -0.4624 -0.6612
 5648TIP3    H238580   5.119   5.885   1.154 -0.7606 -3.3979 -1.3698
 5649TIP3   OH238581   4.184   3.759   3.071 -0.4929 -0.1693  0.2099
 5649TIP3    H138582   4.172   3.834   3.129  0.1179 -0.1110  0.2647
 5649TIP3    H238583   4.263   3.716   3.103 -0.9032 -0.9064  0.2509
 5650TIP3   OH238584   1.949   0.552   8.031  0.9214  0.4240 -0.7479
 5650TIP3    H138585   1.916   0.500   7.958 -0.6555  0.1493  0.1169
 5650TIP3    H238586   2.008   0.616   7.990 -0.4552  0.7345 -2.3551
 5651TIP3   OH238587   6.619   1.875   1.414 -0.0035  0.7337  0.1013
 5651TIP3    H138588   6.653   1.799   1.461  2.9717  1.5417 -0.5229
 5651TIP3    H238589   6.552   1.912   1.473  0.0858 -1.0590  1.4015
 5652TIP3   OH238590   0.461   4.908   2.183 -0.1576 -0.9106 -0.6320
 5652TIP3    H138591   0.383   4.893   2.131  0.7692  0.2343 -2.4627
 5652TIP3    H238592   0.471   4.829   2.236 -1.2074 -2.0990 -2.1350
 5653TIP3   OH238593   5.677   3.966   8.344 -0.0631 -0.0439 -0.1709
 5653TIP3    H138594   5.636   4.018   8.274  0.1903  0.8801  0.3564
 5653TIP3    H238595   5.769   3.989   8.339 -0.1275  0.4789  0.8370
 5654TIP3   OH238596   0.322   5.199   1.041  0.6477  0.9709 -0.3547
 5654TIP3    H138597   0.378   5.123   1.025  0.7982  0.8207  0.8045
 5654TIP3    H238598   0.354   5.265   0.979  1.5670  0.6152 -0.2725
 5655TIP3   OH238599   0.459   0.596   2.785  0.0905 -0.8331 -0.0832
 5655TIP3    H138600   0.439   0.654   2.859  2.2720 -0.4852  0.3031
 5655TIP3    H238601   0.393   0.526   2.791 -1.2078  0.4119  0.7725
 5656TIP3   OH238602   3.128   2.409   0.637  0.2452  0.3063  0.6668
 5656TIP3    H138603   3.069   2.462   0.690 -0.8568  1.0727 -1.2357
 5656TIP3    H238604   3.191   2.374   0.700 -1.5414  0.3686  2.6045
 5657TIP3   OH238605   3.327   2.135   2.412  1.1740  0.4195 -0.5019
 5657TIP3    H138606   3.415   2.170   2.422  0.6534  1.9250 -0.9888
 5657TIP3    H238607   3.286   2.145   2.498  1.3537  0.0375 -0.3688
 5658TIP3   OH238608   4.532   1.166   7.550 -0.1860  0.1189  0.5006
 5658TIP3    H138609   4.488   1.087   7.581  0.6045  0.2788  2.0974
 5658TIP3    H238610   4.483   1.238   7.590 -0.1618  0.3995  0.0300
 5659TIP3   OH238611   3.373   1.238   1.969  1.0166 -0.5905  0.3151
 5659TIP3    H138612   3.390   1.281   1.885  0.2213 -0.7795  0.0479
 5659TIP3    H238613   3.325   1.159   1.946 -0.8709  0.2726  1.0610
 5660TIP3   OH238614   4.080   2.019   0.078 -0.3030  0.0077 -0.7651
 5660TIP3    H138615   4.160   2.037   0.028  0.5584  1.3383  0.9771
 5660TIP3    H238616   4.010   2.024   0.013  0.9400 -0.3164 -2.1830
 5661TIP3   OH238617   0.167   5.971   8.326 -0.6160  0.4753 -0.5623
 5661TIP3    H138618   0.225   5.935   8.259 -1.3124 -0.3903 -0.7191
 5661TIP3    H238619   0.082   5.930   8.309 -0.7981  0.1931  0.8769
 5662TIP3   OH238620   4.712   6.221   0.932 -0.0162  0.3547 -0.8117
 5662TIP3    H138621   4.714   6.141   0.985  0.8417 -0.2776 -1.7381
 5662TIP3    H238622   4.702   6.292   0.995  1.3026 -0.3458  0.2367
 5663TIP3   OH238623   6.048   3.576   7.485 -0.1455  0.3187 -0.3031
 5663TIP3    H138624   6.050   3.499   7.541 -2.2164  1.6390  1.7483
 5663TIP3    H238625   5.961   3.576   7.447  0.8163  0.1293 -2.6567
 5664TIP3   OH238626   4.315   4.164   1.783  0.2445  0.3012  0.0728
 5664TIP3    H138627   4.239   4.218   1.803  0.6139  0.2341  1.8485
 5664TIP3    H238628   4.280   4.091   1.732 -0.2102  2.3041 -2.6600
 5665TIP3   OH238629   0.123   0.097   2.999  0.1843  0.4265  0.0084
 5665TIP3    H138630   0.095   0.006   3.012  0.6858  0.4903  1.8854
 5665TIP3    H238631   0.081   0.145   3.071 -1.1209  1.9575 -1.6939
 5666TIP3   OH238632   6.383   1.384   0.435  0.3187 -0.4450  0.2175
 5666TIP3    H138633   6.356   1.461   0.386 -1.2673 -0.3605  1.1416
 5666TIP3    H238634   6.375   1.312   0.372  1.5132  0.0774 -0.5605
 5667TIP3   OH238635   3.078   1.365   8.401 -0.1713 -0.1402  0.2664
 5667TIP3    H138636   3.043   1.343   8.315  1.0877  1.4479 -0.7010
 5667TIP3    H238637   3.124   1.285   8.430  0.3941 -0.3106 -1.0584
 5668TIP3   OH238638   2.521   1.196   2.867  0.5661 -0.1041 -0.4878
 5668TIP3    H138639   2.509   1.278   2.820  1.1063 -2.0176 -4.3724
 5668TIP3    H238640   2.616   1.186   2.875  0.5156 -0.4828 -0.2891
 5669TIP3   OH238641   5.164   1.334   2.179  0.3950  0.0010 -0.1554
 5669TIP3    H138642   5.107   1.339   2.256 -0.0442  0.4116 -0.5056
 5669TIP3    H238643   5.253   1.333   2.216  0.1726 -2.3792  0.4812
 5670TIP3   OH238644   4.657   4.104   0.051  0.0110  0.0238 -0.5765
 5670TIP3    H138645   4.719   4.036   0.079 -0.5836  0.2631  1.5533
 5670TIP3    H238646   4.580   4.055   0.022 -0.5185 -0.2640  1.2083
 5671TIP3   OH238647   3.019   2.920   2.045 -0.2988 -0.3306  0.7727
 5671TIP3    H138648   3.108   2.930   2.012 -0.3386  3.1006  1.3762
 5671TIP3    H238649   2.974   2.869   1.977  2.0792 -2.3944  0.5828
 5672TIP3   OH238650   5.396   1.305   3.456  0.7743  0.0034  0.1534
 5672TIP3    H138651   5.414   1.334   3.545  0.4302 -1.3442  0.6815
 5672TIP3    H238652   5.313   1.259   3.461  1.0628 -0.6542 -0.7273
 5673TIP3   OH238653   2.285   2.931   3.363 -0.4077  0.8313  0.5381
 5673TIP3    H138654   2.233   2.858   3.397 -1.2875  0.0811 -2.1447
 5673TIP3    H238655   2.233   3.009   3.384 -1.3989  0.3129  0.0598
 5674TIP3   OH238656   3.311   6.020   0.709  0.1342  0.7872  1.0901
 5674TIP3    H138657   3.381   5.955   0.708 -0.4990 -0.0298 -2.1814
 5674TIP3    H238658   3.263   6.003   0.789  1.3714 -1.2457  1.4509
 5675TIP3   OH238659   1.795   2.741   8.399 -0.3774 -0.0022 -0.0046
 5675TIP3    H138660   1.747   2.801   8.341  1.2379 -0.5521 -2.0368
 5675TIP3    H238661   1.776   2.654   8.364  1.7912 -0.2536 -0.7266
 5676TIP3   OH238662   1.493   3.106   8.182 -0.0522  0.2742  0.4822
 5676TIP3    H138663   1.493   3.093   8.087  0.5507 -1.8348  0.7100
 5676TIP3    H238664   1.585   3.118   8.205  0.1738 -2.1350  1.0704
 5677TIP3   OH238665   2.648   1.358   1.845  0.1874 -0.7607 -0.5265
 5677TIP3    H138666   2.705   1.342   1.770 -0.9147 -1.3713 -1.2664
 5677TIP3    H238667   2.570   1.305   1.828 -0.7599  0.3118  0.2720
 5678TIP3   OH238668   6.756   1.674   1.553 -0.4755 -0.4699  0.1063
 5678TIP3    H138669   6.747   1.581   1.533 -0.8640 -0.1626 -1.2021
 5678TIP3    H238670   6.832   1.679   1.611  3.2723 -1.0538 -4.1842
 5679TIP3   OH238671   4.329   0.170   0.107  0.7196 -0.1252 -0.1889
 5679TIP3    H138672   4.235   0.188   0.112  1.1104  2.4257 -0.6000
 5679TIP3    H238673   4.371   0.255   0.124  2.8508 -0.4803 -2.8590
 5680TIP3   OH238674   1.420   0.310   2.138  0.4137 -0.0567  0.1169
 5680TIP3    H138675   1.382   0.226   2.110 -1.5273  1.0021 -0.6927
 5680TIP3    H238676   1.360   0.342   2.206  3.1471 -0.9420  3.1640
 5681TIP3   OH238677   5.349   2.890   8.606 -0.5294 -0.3403  0.3728
 5681TIP3    H138678   5.440   2.886   8.637  0.1611 -0.0451 -1.4634
 5681TIP3    H238679   5.307   2.813   8.643  0.9248 -1.3681 -0.0408
 5682TIP3   OH238680   0.379   5.355   8.390 -0.5078  0.5125  0.5856
 5682TIP3    H138681   0.442   5.305   8.337  0.0321  0.8827  0.8716
 5682TIP3    H238682   0.396   5.327   8.480 -2.3506 -1.1543  0.4783
 5683TIP3   OH238683   3.715   4.970   1.681  0.1094 -0.0903 -0.2063
 5683TIP3    H138684   3.703   4.891   1.628  0.1197  1.2023 -2.2226
 5683TIP3    H238685   3.688   4.944   1.769  0.0528 -2.3101 -0.8192
 5684TIP3   OH238686   3.615   5.022   2.133 -0.4273 -0.3504  0.1104
 5684TIP3    H138687   3.646   4.949   2.080  0.2365 -0.5358  0.7430
 5684TIP3    H238688   3.555   5.070   2.075  1.3229  0.2334 -1.3037
 5685TIP3   OH238689   1.944   6.076   8.340 -0.1300  0.5125 -0.2688
 5685TIP3    H138690   1.900   6.002   8.297  0.1889  1.0111 -1.5144
 5685TIP3    H238691   1.982   6.039   8.419 -2.5962  0.0020  0.7653
 5686TIP3   OH238692   4.347   5.640   0.865 -0.0377  0.1058 -0.8605
 5686TIP3    H138693   4.339   5.567   0.804 -1.9496 -1.2390  0.8854
 5686TIP3    H238694   4.278   5.701   0.839 -1.2397 -0.7422  0.2597
 5687TIP3   OH238695   0.407   4.165   1.937 -0.1535  0.1907  0.0146
 5687TIP3    H138696   0.470   4.175   2.008 -2.2006  0.8274  1.8656
 5687TIP3    H238697   0.400   4.070   1.924 -1.5256 -0.1432  2.4849
 5688TIP3   OH238698   0.442   1.391   1.192  0.3317  0.5015 -0.2424
 5688TIP3    H138699   0.351   1.390   1.219  0.2207 -0.3093 -0.6128
 5688TIP3    H238700   0.450   1.469   1.137  0.5102  2.0330  1.8542
 5689TIP3   OH238701   6.271   2.848   3.136 -0.6422 -0.6256  0.0458
 5689TIP3    H138702   6.218   2.896   3.072 -0.3048 -2.2358 -1.5103
 5689TIP3    H238703   6.209   2.824   3.205 -1.0106  1.1397  0.3684
 5690TIP3   OH238704   1.530   2.666   3.229 -0.6863  0.2398  0.2037
 5690TIP3    H138705   1.538   2.594   3.292 -1.3290 -1.5606 -1.6575
 5690TIP3    H238706   1.599   2.728   3.254  1.3887 -2.0637  0.5709
 5691TIP3   OH238707   3.438   0.050   0.870 -0.2440 -0.1981  0.1895
 5691TIP3    H138708   3.463   0.079   0.782 -0.6796  0.9048  0.4122
 5691TIP3    H238709   3.513   0.072   0.925 -0.3561  0.0093  0.2609
 5692TIP3   OH238710   6.298   4.201   7.663 -0.0648 -0.1104 -0.2196
 5692TIP3    H138711   6.235   4.203   7.591  0.7523  0.9599 -0.9378
 5692TIP3    H238712   6.298   4.290   7.697  0.4633 -0.3046  0.3052
 5693TIP3   OH238713   2.572   3.048   0.030 -0.0906 -0.3082  0.1470
 5693TIP3    H138714   2.616   3.065  -0.053 -0.0658 -1.8077 -0.1849
 5693TIP3    H238715   2.530   2.963   0.017 -3.7203  1.2776  0.1632
 5694TIP3   OH238716   4.380   2.536   0.960 -0.1886 -0.4396  0.1226
 5694TIP3    H138717   4.297   2.583   0.954  0.2340  0.2802 -0.1756
 5694TIP3    H238718   4.383   2.504   1.050  0.0018  1.0289  0.6579
 5695TIP3   OH238719   1.843   0.866   2.533  0.3990 -0.2541 -0.0740
 5695TIP3    H138720   1.783   0.866   2.458 -0.0530 -0.7981  0.2825
 5695TIP3    H238721   1.798   0.816   2.600  0.2024  1.3434  1.0491
 5696TIP3   OH238722   6.584   4.543   8.542 -0.1678 -0.4117  0.0004
 5696TIP3    H138723   6.525   4.609   8.505  0.8132  0.0712 -0.7387
 5696TIP3    H238724   6.626   4.588   8.616  1.7721  0.4124 -1.5353
 5697TIP3   OH238725   2.210   4.590   0.039  0.5353  0.3115  0.6140
 5697TIP3    H138726   2.134   4.609  -0.016  0.0446 -0.0499  1.1440
 5697TIP3    H238727   2.278   4.650   0.008 -0.4424  1.7805  1.1517
 5698TIP3   OH238728   1.702   0.140   1.046  0.2450 -0.6505 -0.2914
 5698TIP3    H138729   1.622   0.158   1.096 -0.0226  2.0585 -1.5252
 5698TIP3    H238730   1.674   0.142   0.955  1.7054  0.4064 -0.7425
 5699TIP3   OH238731   2.187   0.640   2.431 -0.5236  0.0977 -0.0503
 5699TIP3    H138732   2.164   0.652   2.338 -0.8466 -0.1201  0.0011
 5699TIP3    H238733   2.183   0.545   2.445  2.2002 -0.1602 -0.4980
 5700TIP3   OH238734   3.471   6.695   2.790  0.0807  0.2784  0.2722
 5700TIP3    H138735   3.489   6.608   2.754 -1.0604  0.4942 -0.8662
 5700TIP3    H238736   3.378   6.710   2.771  0.4601  2.0854 -0.2649
 5701TIP3   OH238737   6.027   0.016   2.444  0.3309  0.1137 -1.0045
 5701TIP3    H138738   5.983   0.062   2.516  0.1264  0.6110 -1.4388
 5701TIP3    H238739   6.071   0.086   2.395  1.1090 -0.3129 -0.9200
 5702TIP3   OH238740   1.365   6.499   0.077 -0.2610  0.1253  0.0411
 5702TIP3    H138741   1.348   6.593   0.086  0.3089  0.1822  0.6310
 5702TIP3    H238742   1.300   6.468   0.014 -1.4014  0.6480  0.9359
 5703TIP3   OH238743   2.309   0.269   2.646 -0.3420 -0.4732  0.7552
 5703TIP3    H138744   2.246   0.331   2.610  0.5668 -0.5846 -1.1459
 5703TIP3    H238745   2.256   0.210   2.699 -1.8026 -0.3099 -0.4422
 5704TIP3   OH238746   3.192   2.673   0.483 -0.2362 -0.6214 -0.1892
 5704TIP3    H138747   3.158   2.718   0.562  1.3589 -0.1641  0.2645
 5704TIP3    H238748   3.211   2.584   0.513 -0.2978 -0.6529 -0.2439
 5705TIP3   OH238749   5.573   1.309   2.986  0.5911 -0.1456  0.2111
 5705TIP3    H138750   5.604   1.224   3.017  1.2339  0.4923  1.3872
 5705TIP3    H238751   5.542   1.354   3.065 -0.4110  0.4473 -0.4968
 5706TIP3   OH238752   6.431   6.191   1.137  0.1118  0.0821 -0.6443
 5706TIP3    H138753   6.514   6.167   1.178 -0.9814 -0.1546  1.5359
 5706TIP3    H238754   6.456   6.254   1.069  1.9460  1.3954  1.1222
 5707TIP3   OH238755   1.708   3.075   1.635 -0.1398  0.1706 -0.2967
 5707TIP3    H138756   1.790   3.093   1.679  1.2444 -0.5743 -2.4184
 5707TIP3    H238757   1.707   2.980   1.624 -0.1376  0.3556 -2.2813
 5708TIP3   OH238758   2.266   6.876   8.585  0.0383  0.1317  0.1069
 5708TIP3    H138759   2.279   6.960   8.541  2.6742 -0.1699  0.1074
 5708TIP3    H238760   2.182   6.885   8.630 -1.0080  1.7669 -2.0114
 5709TIP3   OH238761   4.678   0.639   7.947  0.4272 -0.0968  0.2791
 5709TIP3    H138762   4.769   0.608   7.945 -0.1064 -1.6782 -0.2547
 5709TIP3    H238763   4.657   0.657   7.855  0.6773  1.8446  0.5452
 5710TIP3   OH238764   5.699   1.852   0.769  0.0609  0.2133 -0.1638
 5710TIP3    H138765   5.660   1.821   0.851 -0.0409 -0.8026 -0.5821
 5710TIP3    H238766   5.663   1.940   0.757 -1.7402 -0.5132 -0.2998
 5711TIP3   OH238767   4.467   5.596   2.140  0.0659  0.0562  0.2065
 5711TIP3    H138768   4.469   5.501   2.127  1.0225  0.2454 -1.3531
 5711TIP3    H238769   4.544   5.614   2.195  0.2362 -0.0200 -0.0028
 5712TIP3   OH238770   2.659   6.331   3.568 -0.4668  0.2213  0.3087
 5712TIP3    H138771   2.582   6.353   3.621  0.2878  0.6667  1.2714
 5712TIP3    H238772   2.643   6.243   3.537 -0.8611 -0.1322  1.4644
 5713TIP3   OH238773   0.606   6.310   2.580 -0.0201 -0.1039 -0.1243
 5713TIP3    H138774   0.564   6.315   2.666  0.8933 -2.3895  0.5420
 5713TIP3    H238775   0.641   6.221   2.576  0.1699  0.0137 -2.7943
 5714TIP3   OH238776   1.222   2.875   1.041 -0.3383  0.0026  0.6954
 5714TIP3    H138777   1.247   2.784   1.058 -1.0441 -0.5865 -1.1560
 5714TIP3    H238778   1.250   2.891   0.952 -1.7231  1.0382  0.4096
 5715TIP3   OH238779   2.258   6.495   2.856  0.3605  0.7340  0.5010
 5715TIP3    H138780   2.187   6.513   2.918 -0.6269  1.0736 -0.6963
 5715TIP3    H238781   2.288   6.407   2.880 -1.9542 -0.3654 -0.3096
 5716TIP3   OH238782   3.768   1.315   1.721  0.0498  0.1565 -1.0128
 5716TIP3    H138783   3.825   1.239   1.734 -2.6363 -1.5841  2.3297
 5716TIP3    H238784   3.781   1.369   1.798 -2.1984  0.0004 -0.4400
 5717TIP3   OH238785   1.582   4.495   2.279  0.2309 -0.0056  0.3788
 5717TIP3    H138786   1.645   4.453   2.222  0.5863 -0.4994  1.1142
 5717TIP3    H238787   1.505   4.509   2.225  0.7353 -0.0040 -0.3469
 5718TIP3   OH238788   3.817   1.188   1.999 -0.1197  0.1599 -0.4707
 5718TIP3    H138789   3.808   1.281   2.018 -1.1519  0.3008 -1.5251
 5718TIP3    H238790   3.912   1.172   2.000  0.0127  0.8521  1.2730
 5719TIP3   OH238791   4.066   3.407   1.804  0.0767  0.2365  0.4645
 5719TIP3    H138792   4.049   3.360   1.722 -0.1275  1.1852 -0.0572
 5719TIP3    H238793   4.122   3.480   1.778 -1.6384  1.7578  0.7632
 5720TIP3   OH238794   5.713   2.434   2.541 -0.4335 -0.6450  0.0065
 5720TIP3    H138795   5.691   2.467   2.453  0.5585 -0.1345 -0.0727
 5720TIP3    H238796   5.652   2.362   2.556  0.5288 -1.9087 -1.8414
 5721TIP3   OH238797   3.006   3.980   3.287  0.0330 -0.2293  0.1861
 5721TIP3    H138798   3.076   3.980   3.352  0.8933 -1.5539 -0.6629
 5721TIP3    H238799   2.978   4.071   3.280 -0.5491 -0.1421  2.8525
 5722TIP3   OH238800   2.380   0.910   8.574  0.2518  0.1037 -0.0021
 5722TIP3    H138801   2.437   0.968   8.524  1.8641 -0.2388  1.3298
 5722TIP3    H238802   2.348   0.964   8.646  0.1221 -0.1213  0.1110
 5723TIP3   OH238803   2.530   1.001   1.840  0.3614  0.2379 -0.3314
 5723TIP3    H138804   2.449   0.953   1.822  0.5316  0.5105 -2.0125
 5723TIP3    H238805   2.517   1.086   1.797  1.9488 -0.1249 -1.6635
 5724TIP3   OH238806   1.407   4.677   1.814  0.0269 -1.0781 -0.2724
 5724TIP3    H138807   1.320   4.637   1.800 -0.4012 -0.3183  0.1530
 5724TIP3    H238808   1.396   4.767   1.783 -0.0511 -0.2504  2.0402
 5725TIP3   OH238809   0.977   6.286   1.268 -0.0460 -0.1571  0.6100
 5725TIP3    H138810   1.055   6.328   1.304 -0.2314  2.5134 -1.7067
 5725TIP3    H238811   0.905   6.343   1.294 -0.7254 -0.6124 -0.2108
 5726TIP3   OH238812   4.711   3.492   1.225 -0.1005  0.4609  0.8801
 5726TIP3    H138813   4.782   3.431   1.204  0.5677  1.0537  1.3795
 5726TIP3    H238814   4.703   3.547   1.147 -2.8842 -2.2021 -0.9712
 5727TIP3   OH238815   0.855   4.040   3.335  0.4741 -0.1637  0.3576
 5727TIP3    H138816   0.770   4.047   3.378  0.2772  3.5662 -0.3377
 5727TIP3    H238817   0.913   4.095   3.387  2.2164 -1.6869  0.1188
 5728TIP3   OH238818   4.175   6.163   1.009  0.5820 -0.0618 -0.4747
 5728TIP3    H138819   4.181   6.153   0.914  1.3093 -2.1117 -0.2444
 5728TIP3    H238820   4.245   6.226   1.030  0.7599  0.0108 -1.2346
 5729TIP3   OH238821   3.614   2.577   1.875  0.2225 -0.4304 -0.2799
 5729TIP3    H138822   3.609   2.636   1.799 -1.8720 -1.0276 -0.6603
 5729TIP3    H238823   3.661   2.501   1.842  2.1135  0.5679 -0.0472
 5730TIP3   OH238824   6.748   0.145   1.267 -0.0376  0.3178 -0.1042
 5730TIP3    H138825   6.724   0.076   1.206  0.1313 -0.3700  0.6004
 5730TIP3    H238826   6.765   0.221   1.211 -0.3233 -0.1730 -0.8762
 5731TIP3   OH238827   6.625   3.253   8.147 -0.7669 -0.2838 -0.1467
 5731TIP3    H138828   6.563   3.193   8.105 -1.5401 -0.8316  1.6634
 5731TIP3    H238829   6.668   3.199   8.215  1.2457  0.2558 -0.9148
 5732TIP3   OH238830   5.877   3.765   1.293  0.6869 -0.1511 -0.3183
 5732TIP3    H138831   5.901   3.696   1.354  2.3996  0.3436 -0.3836
 5732TIP3    H238832   5.802   3.808   1.334  0.4838 -1.1575  0.3968
 5733TIP3   OH238833   3.868   1.408   0.243  0.6207 -0.0571  0.6302
 5733TIP3    H138834   3.851   1.465   0.318  0.6536 -0.0742  0.6503
 5733TIP3    H238835   3.962   1.394   0.244  0.4299 -1.5117  1.6375
 5734TIP3   OH238836   4.546   1.433   1.905 -0.0434  0.6324 -0.0425
 5734TIP3    H138837   4.543   1.528   1.912 -1.0801  0.4915  2.0390
 5734TIP3    H238838   4.455   1.405   1.907  0.2222 -0.3968 -1.0653
 5735TIP3   OH238839   2.662   0.950   2.075  0.3816  0.6636  0.1933
 5735TIP3    H138840   2.637   1.037   2.105 -0.8393  0.3732  0.1027
 5735TIP3    H238841   2.595   0.927   2.011 -0.9785 -1.4355  2.2036
 5736TIP3   OH238842   1.540   1.346   2.088  0.2261  0.0270 -0.0984
 5736TIP3    H138843   1.603   1.373   2.021  0.5193  0.3869  0.3154
 5736TIP3    H238844   1.456   1.344   2.043  0.4660 -0.0459 -0.5535
 5737TIP3   OH238845   0.976   5.217   0.505  0.1837  0.1430 -0.4812
 5737TIP3    H138846   1.066   5.219   0.473 -0.2667  1.3793 -1.7480
 5737TIP3    H238847   0.980   5.164   0.585  2.0111  0.1377 -0.5457
 5738TIP3   OH238848   4.960   0.062   7.523 -0.8226 -0.4778 -0.0781
 5738TIP3    H138849   5.030   0.091   7.581 -1.2599 -0.0541  0.2493
 5738TIP3    H238850   4.909   0.142   7.506 -1.0725 -0.7278 -0.5206
 5739TIP3   OH238851   4.754   4.562   3.385 -0.3595 -0.2535 -0.2175
 5739TIP3    H138852   4.688   4.578   3.452  1.5499 -0.0824  1.7242
 5739TIP3    H238853   4.772   4.649   3.348 -0.3499 -0.1075  0.1246
 5740TIP3   OH238854   4.924   4.923   3.082 -0.2524 -0.8039 -0.2647
 5740TIP3    H138855   4.962   5.004   3.050  0.7235 -1.1285  0.0397
 5740TIP3    H238856   4.999   4.871   3.111 -0.8709 -1.7828 -0.3819
 5741TIP3   OH238857   3.587   5.328   0.753 -0.1987 -0.3856 -1.1691
 5741TIP3    H138858   3.595   5.403   0.694  0.5035 -0.5119 -1.2442
 5741TIP3    H238859   3.511   5.348   0.807  1.6911  1.9132  0.9363
 5742TIP3   OH238860   0.888   6.543   0.659  0.5428 -0.2788 -0.5315
 5742TIP3    H138861   0.934   6.604   0.717  0.7011 -1.2400  0.3747
 5742TIP3    H238862   0.908   6.457   0.694 -2.3403 -0.7336  0.2305
 5743TIP3   OH238863   6.702   3.335   2.383  0.3042  0.3336  0.0105
 5743TIP3    H138864   6.638   3.264   2.388  1.3137 -0.5709  0.5614
 5743TIP3    H238865   6.669   3.402   2.443 -0.6776  0.3595 -0.5386
 5744TIP3   OH238866   6.155   0.969   2.970  0.0148  0.5003 -0.2694
 5744TIP3    H138867   6.225   1.034   2.983 -0.9235  1.0657  2.7474
 5744TIP3    H238868   6.083   1.018   2.930  0.4435  0.4921 -1.0760
 5745TIP3   OH238869   4.399   6.144   1.278 -0.0787 -0.0265 -0.0071
 5745TIP3    H138870   4.330   6.090   1.239 -0.3932  0.8735 -0.7193
 5745TIP3    H238871   4.377   6.233   1.252  2.2983  0.1346 -1.7251
 5746TIP3   OH238872   3.210   2.994   2.923  0.0393 -0.0117  0.0898
 5746TIP3    H138873   3.251   3.063   2.976 -0.7063 -0.0374  0.7334
 5746TIP3    H238874   3.163   3.041   2.855  0.1451  0.0812  0.0809
 5747TIP3   OH238875   0.588   1.162   1.509  0.1966  0.3664  0.5333
 5747TIP3    H138876   0.654   1.179   1.441 -3.2248  2.7440 -2.6499
 5747TIP3    H238877   0.551   1.077   1.485 -0.4732  0.8452 -0.2055
 5748TIP3   OH238878   2.487   4.935   0.595 -0.1006  0.0836  0.5871
 5748TIP3    H138879   2.454   5.023   0.613  0.7676  0.1757  1.8578
 5748TIP3    H238880   2.499   4.932   0.500  3.3047  2.6321  0.7727
 5749TIP3   OH238881   6.883   3.871   2.861  0.3340 -0.0572 -0.2933
 5749TIP3    H138882   6.883   3.775   2.857  1.1359 -0.1008  0.4459
 5749TIP3    H238883   6.975   3.895   2.860  0.3878  0.4914  3.2173
 5750TIP3   OH238884   0.568   6.105   1.843  0.0677 -0.3935 -0.0344
 5750TIP3    H138885   0.595   6.081   1.931 -1.0263  0.2801  0.5011
 5750TIP3    H238886   0.517   6.186   1.854  0.7489  0.2678 -1.3891
 5751TIP3   OH238887   6.649   2.714   0.458 -0.0884 -0.3091  0.6691
 5751TIP3    H138888   6.674   2.624   0.478  1.4828  0.1495  0.8767
 5751TIP3    H238889   6.727   2.753   0.420 -1.4034  0.3634 -1.5606
 5752TIP3   OH238890   6.413   4.055   0.114 -0.0250  0.0425  0.2768
 5752TIP3    H138891   6.421   3.983   0.052  1.2074  1.4584 -1.3068
 5752TIP3    H238892   6.335   4.103   0.086 -0.4809 -0.3025  0.9338
 5753TIP3   OH238893   0.092   2.845   1.120 -0.3612  0.7170  0.4439
 5753TIP3    H138894   0.000   2.818   1.125  0.3155 -1.7229  1.1159
 5753TIP3    H238895   0.112   2.847   1.027 -0.3492 -1.8353  0.3201
 5754TIP3   OH238896   5.873   1.536   1.447 -0.4296 -0.4231 -0.4089
 5754TIP3    H138897   5.781   1.562   1.456 -0.8243 -1.2417 -1.7580
 5754TIP3    H238898   5.903   1.523   1.537 -1.8800 -0.9440  0.0317
 5755TIP3   OH238899   4.235   0.340   1.853 -0.2329 -0.0385 -0.4395
 5755TIP3    H138900   4.280   0.303   1.777 -0.8746  0.6405 -1.1684
 5755TIP3    H238901   4.165   0.278   1.873  0.5924 -0.7631  0.2878
 5756TIP3   OH238902   6.742   2.660   7.445 -0.5148 -0.6390  0.0144
 5756TIP3    H138903   6.669   2.613   7.485 -0.1471 -0.9392  0.3361
 5756TIP3    H238904   6.735   2.749   7.479  0.7029 -1.2593  2.0025
 5757TIP3   OH238905   4.671   1.565   2.315 -0.0108  0.4049 -0.4173
 5757TIP3    H138906   4.736   1.495   2.321 -0.8485 -0.3806 -0.1663
 5757TIP3    H238907   4.607   1.544   2.383 -0.7648  0.8999 -0.9517
 5758TIP3   OH238908   0.032   3.259   7.363 -0.2540 -0.3298  0.0262
 5758TIP3    H138909  -0.034   3.268   7.294  0.3313 -3.2313 -1.0504
 5758TIP3    H238910   0.100   3.205   7.324  1.4491  0.2402  2.0368
 5759TIP3   OH238911   3.015   2.788   0.685  0.6053  0.1672  0.3390
 5759TIP3    H138912   2.976   2.874   0.667 -0.8098 -0.5027  0.0295
 5759TIP3    H238913   3.018   2.782   0.780  1.0573  0.6870  0.3681
 5760TIP3   OH238914   1.771   3.553   2.496 -0.1043 -0.2243 -0.2632
 5760TIP3    H138915   1.797   3.540   2.588 -3.5060 -0.7513  0.7640
 5760TIP3    H238916   1.824   3.490   2.447  0.5095 -1.2476  1.6022
 5761TIP3   OH238917   0.069   3.528   7.255 -0.4523 -0.2863 -0.2550
 5761TIP3    H138918   0.037   3.451   7.301 -0.9826 -0.6772 -1.2430
 5761TIP3    H238919  -0.009   3.581   7.239 -0.0858  0.4895  0.4469
 5762TIP3   OH238920   1.704   3.473   3.188 -0.9689 -0.0760  0.0346
 5762TIP3    H138921   1.740   3.386   3.203  0.5706  0.4290 -0.5785
 5762TIP3    H238922   1.720   3.520   3.270  2.2983  0.9449 -1.0362
 5763TIP3   OH238923   5.216   0.593   7.405  0.2768 -0.1891 -0.1994
 5763TIP3    H138924   5.155   0.521   7.419 -0.6741  0.7164  0.4250
 5763TIP3    H238925   5.162   0.672   7.409  1.2205  0.5520 -1.3284
 5764TIP3   OH238926   0.240   3.764   8.534 -0.2337  0.7264  0.2912
 5764TIP3    H138927   0.328   3.735   8.508  0.0614  0.8814  1.0923
 5764TIP3    H238928   0.205   3.808   8.456  0.8283  1.6280  0.2988
 5765TIP3   OH238929   4.963   4.082   0.772 -0.5166 -0.6335 -0.0394
 5765TIP3    H138930   5.040   4.052   0.725  0.3381 -0.5561  1.2571
 5765TIP3    H238931   4.909   4.125   0.706  1.5144  1.1681 -0.6194
 5766TIP3   OH238932   5.947   0.783   0.460  0.3083 -0.4769  0.2568
 5766TIP3    H138933   5.909   0.863   0.497 -0.4824 -0.5049 -0.4866
 5766TIP3    H238934   5.882   0.715   0.479  0.5086 -0.7470 -0.0284
 5767TIP3   OH238935   5.204   4.575   1.006  0.6192 -0.0562 -0.1840
 5767TIP3    H138936   5.137   4.521   0.964  0.6326  0.3537 -0.7507
 5767TIP3    H238937   5.154   4.640   1.055  0.5496  1.3475 -2.0185
 5768TIP3   OH238938   0.010   3.163   2.012 -0.2509  0.7453  0.7199
 5768TIP3    H138939  -0.008   3.235   2.072 -1.3762 -0.5067  1.9669
 5768TIP3    H238940   0.102   3.141   2.027  0.0919  1.8674  0.3485
 5769TIP3   OH238941   3.479   2.526   0.895  0.2542 -0.1296 -0.5124
 5769TIP3    H138942   3.559   2.501   0.941 -1.0656 -0.1684  1.9833
 5769TIP3    H238943   3.488   2.620   0.878 -0.2477  0.5415  2.3842
 5770TIP3   OH238944   4.542   5.761   1.042  0.4603 -0.6369  0.1099
 5770TIP3    H138945   4.607   5.690   1.037 -0.3638 -1.3374 -0.9485
 5770TIP3    H238946   4.470   5.732   0.987 -0.9922 -0.0867  1.6278
 5771TIP3   OH238947   3.944   5.207   0.419  0.5417 -0.1159  0.3341
 5771TIP3    H138948   3.901   5.205   0.505  0.7515  0.8582  0.4675
 5771TIP3    H238949   3.937   5.298   0.391  2.3152  0.0119  0.2427
 5772TIP3   OH238950   2.063   3.787   2.051  0.2060  0.1102  0.3634
 5772TIP3    H138951   1.983   3.822   2.090 -0.6600 -0.0793 -1.1399
 5772TIP3    H238952   2.062   3.820   1.961  0.9541 -1.2486 -0.1775
 5773TIP3   OH238953   1.911   5.496   0.613  0.0684 -0.5373 -0.4247
 5773TIP3    H138954   1.993   5.461   0.579  0.9256  1.7412 -0.8717
 5773TIP3    H238955   1.936   5.554   0.685 -1.0225  0.9523 -1.1826
 5774TIP3   OH238956   0.272   3.098   2.057 -0.2033 -0.2530 -0.0639
 5774TIP3    H138957   0.326   3.111   1.979 -0.3777  0.1102 -0.1248
 5774TIP3    H238958   0.315   3.151   2.125  0.0340 -0.6878  0.1267
 5775TIP3   OH238959   6.680   0.222   0.966 -0.1646  0.5056  0.6779
 5775TIP3    H138960   6.697   0.144   0.913  1.1204  0.7985  0.6384
 5775TIP3    H238961   6.590   0.210   0.998 -0.2728 -0.5896  0.0022
 5776TIP3   OH238962   3.959   2.880   2.674  0.1019 -0.8328 -0.0510
 5776TIP3    H138963   3.881   2.885   2.730  0.0111  0.9612 -0.2972
 5776TIP3    H238964   3.952   2.794   2.631 -2.2394 -0.3639 -0.7482
 5777TIP3   OH238965   6.796   5.315   2.267  0.3082 -0.9933  0.0882
 5777TIP3    H138966   6.785   5.408   2.288 -0.6409 -1.1957  0.5143
 5777TIP3    H238967   6.777   5.309   2.173  3.2478 -0.3098 -0.6763
 5778TIP3   OH238968   3.875   1.994   8.564  0.5236 -0.0322 -0.1559
 5778TIP3    H138969   3.914   1.933   8.502  0.8812  0.4417 -0.4029
 5778TIP3    H238970   3.846   2.068   8.511  1.3618  0.6426  0.2889
 5779TIP3   OH238971   6.082   3.192   0.497  0.1631 -0.6551 -0.6154
 5779TIP3    H138972   6.000   3.175   0.543 -0.0365  0.5099 -0.5226
 5779TIP3    H238973   6.075   3.141   0.416 -1.2280  0.4461 -1.2154
 5780TIP3   OH238974   0.620   2.353   0.535 -0.4588 -0.2130  0.4041
 5780TIP3    H138975   0.664   2.289   0.479 -1.8458 -1.8877  1.1321
 5780TIP3    H238976   0.642   2.438   0.496  2.2657 -1.0109 -0.0135
 5781TIP3   OH238977   3.466   5.712   2.995 -0.7022  0.2132 -0.1363
 5781TIP3    H138978   3.419   5.750   3.070 -0.1445 -1.5556  1.1788
 5781TIP3    H238979   3.493   5.626   3.025  1.0049  0.0963 -1.8232
 5782TIP3   OH238980   4.713   6.392   1.874 -0.1397  0.1665  0.6859
 5782TIP3    H138981   4.645   6.420   1.934 -0.1661  0.1220  0.6767
 5782TIP3    H238982   4.753   6.316   1.916 -1.5669 -1.2058 -0.3103
 5783TIP3   OH238983   3.646   6.248   7.401 -1.0740  0.1051 -0.3454
 5783TIP3    H138984   3.592   6.298   7.340 -0.0908  2.8669  0.8861
 5783TIP3    H238985   3.736   6.273   7.379 -0.6522  0.4803  1.5672
 5784TIP3   OH238986   6.543   4.886   2.447  0.3325  0.4805  0.0207
 5784TIP3    H138987   6.555   4.979   2.426  1.4764  0.6571  1.2633
 5784TIP3    H238988   6.469   4.884   2.508  0.2258  0.5649 -0.1068
 5785TIP3   OH238989   2.177   4.299   7.764 -1.1654  0.3024  0.4692
 5785TIP3    H138990   2.218   4.213   7.771  3.6005  1.9206 -2.4202
 5785TIP3    H238991   2.200   4.344   7.845 -0.8332 -0.1308  0.6148
 5786TIP3   OH238992   1.468   2.251   1.670  0.0205 -0.5588  0.5814
 5786TIP3    H138993   1.467   2.315   1.599  0.3738 -0.2212  0.8802
 5786TIP3    H238994   1.439   2.300   1.747  0.2165 -0.7720  0.7930
 5787TIP3   OH238995   0.514   3.479   0.540  0.6081 -0.2785 -0.1459
 5787TIP3    H138996   0.519   3.445   0.451 -0.1513  1.1736 -0.7670
 5787TIP3    H238997   0.425   3.461   0.568  0.6614 -0.1755  0.0968
 5788TIP3   OH238998   4.320   1.160   1.186 -0.5598 -0.1435 -0.0970
 5788TIP3    H138999   4.388   1.200   1.240  0.7102  0.4066 -2.0125
 5788TIP3    H239000   4.317   1.213   1.107 -3.0971 -0.3072 -0.1843
 5789TIP3   OH239001   3.455   2.121   1.488 -0.0310  0.6472 -0.3317
 5789TIP3    H139002   3.435   2.036   1.448 -1.8105  1.0812 -0.4585
 5789TIP3    H239003   3.500   2.170   1.419  1.7995 -0.4469  0.0204
 5790TIP3   OH239004   5.679   3.926   0.650  0.2007  0.1225  0.7766
 5790TIP3    H139005   5.640   3.852   0.696 -1.4167  0.2177 -0.3471
 5790TIP3    H239006   5.715   3.889   0.570  0.8376  0.3190  0.9662
 5791TIP3   OH239007   5.881   5.475   2.378  0.3499  0.9025 -0.2966
 5791TIP3    H139008   5.910   5.392   2.339  1.0929 -0.0509  2.0719
 5791TIP3    H239009   5.786   5.469   2.379  0.3453  0.6758 -1.3333
 5792TIP3   OH239010   6.680   3.029   0.491  0.3490  0.4404  0.4947
 5792TIP3    H139011   6.752   2.995   0.438  1.7893  3.5312  0.2370
 5792TIP3    H239012   6.626   2.952   0.511  2.9004 -1.7768 -0.5312
 5793TIP3   OH239013   0.743   0.617   2.774 -0.0921  0.4191 -0.2438
 5793TIP3    H139014   0.760   0.676   2.700  1.9293 -0.5863 -0.6727
 5793TIP3    H239015   0.653   0.588   2.761  0.4116 -0.2899 -2.7995
 5794TIP3   OH239016   6.648   1.116   8.041 -0.2929  0.0588 -0.0909
 5794TIP3    H139017   6.672   1.138   8.131 -0.3511  1.1091 -0.3283
 5794TIP3    H239018   6.583   1.181   8.016 -0.4839 -0.3939 -0.8075
 5795TIP3   OH239019   1.874   0.420   1.891  0.6091  0.1433  0.1650
 5795TIP3    H139020   1.814   0.405   1.964  0.5904 -0.0964  0.1020
 5795TIP3    H239021   1.906   0.333   1.868 -0.1325  0.1021 -0.7474
 5796TIP3   OH239022   4.782   3.300   0.550 -0.1850 -0.3759  0.5303
 5796TIP3    H139023   4.835   3.309   0.470 -0.2884  0.8821  0.5716
 5796TIP3    H239024   4.719   3.231   0.529  0.0708 -0.3723 -0.3205
 5797TIP3   OH239025   1.325   3.722   7.944  0.6150 -0.2899  0.1611
 5797TIP3    H139026   1.359   3.790   8.003  1.2561 -0.4021 -0.0796
 5797TIP3    H239027   1.333   3.760   7.857 -0.5973 -0.0129  0.1524
 5798TIP3   OH239028   6.885   0.042   2.670  0.2616  0.6467  0.4785
 5798TIP3    H139029   6.949   0.002   2.611 -1.2590  0.4099 -1.0896
 5798TIP3    H239030   6.864  -0.026   2.733  1.7256  0.8182  1.1942
 5799TIP3   OH239031   4.393   1.115   0.843  0.1772 -0.0001 -0.4380
 5799TIP3    H139032   4.344   1.048   0.891 -1.3396  0.5050 -1.2284
 5799TIP3    H239033   4.444   1.066   0.779  0.8348 -0.5412  0.4709
 5800TIP3   OH239034   6.265   6.080   3.334  0.0339 -0.2210  0.3441
 5800TIP3    H139035   6.214   6.031   3.398  1.9849 -0.3655  1.8908
 5800TIP3    H239036   6.325   6.134   3.386  1.6603 -0.2810 -1.3251
 5801TIP3   OH239037   4.647   5.748   1.948 -0.2976  0.0009  0.1871
 5801TIP3    H139038   4.695   5.693   1.886  0.3071  0.1402  0.5173
 5801TIP3    H239039   4.574   5.694   1.977 -0.8339  0.0887 -0.9569
 5802TIP3   OH239040   2.640   4.901   3.143  0.4209  0.1466  0.3055
 5802TIP3    H139041   2.549   4.929   3.140 -0.0074 -1.2758 -0.9213
 5802TIP3    H239042   2.647   4.850   3.224  0.5165  1.4117  1.1258
 5803TIP3   OH239043   0.525   5.068   8.299  0.4011 -0.1364  0.5808
 5803TIP3    H139044   0.594   5.101   8.242  1.4933  0.3428  2.1393
 5803TIP3    H239045   0.518   4.975   8.277  0.3592  0.1574 -0.7425
 5804TIP3   OH239046   1.883   3.810   3.642 -0.4614 -0.9288 -0.1774
 5804TIP3    H139047   1.961   3.854   3.676 -0.5906  0.3263 -1.4301
 5804TIP3    H239048   1.816   3.827   3.709  0.1250 -1.3573  0.5342
 5805TIP3   OH239049   4.407   5.402   0.723  0.1553  0.4721 -0.5024
 5805TIP3    H139050   4.351   5.349   0.780  2.4997  0.0575  1.6410
 5805TIP3    H239051   4.401   5.360   0.637 -0.9324 -0.9856  0.2351
 5806TIP3   OH239052   5.992   6.823   3.117 -0.4017  0.2324 -0.0231
 5806TIP3    H139053   6.006   6.910   3.080  0.5982  0.4546  0.8119
 5806TIP3    H239054   5.990   6.837   3.212  0.6738 -0.7445  0.1760
 5807TIP3   OH239055   2.352   0.325   7.773 -0.1471  0.0006  0.3337
 5807TIP3    H139056   2.299   0.276   7.835 -0.1116  0.4308  0.7083
 5807TIP3    H239057   2.432   0.273   7.763 -0.9625 -1.0790 -0.8676
 5808TIP3   OH239058   3.588   4.735   2.619  0.2025 -0.0507 -0.0860
 5808TIP3    H139059   3.610   4.660   2.563 -0.6082  0.8907 -1.7364
 5808TIP3    H239060   3.637   4.720   2.699 -0.1703 -2.4996 -0.2509
 5809TIP3   OH239061   2.794   5.712   2.038  0.4068  0.1253  0.0504
 5809TIP3    H139062   2.753   5.792   2.007 -0.6310 -0.1625  0.6242
 5809TIP3    H239063   2.724   5.647   2.037  1.2151 -0.7676 -0.3622
 5810TIP3   OH239064   4.296   5.711   8.365 -0.6359 -0.3542  0.1063
 5810TIP3    H139065   4.288   5.616   8.367  0.0126 -0.4193  1.8572
 5810TIP3    H239066   4.212   5.742   8.332 -0.7527 -1.5289 -0.7559
 5811TIP3   OH239067   5.414   1.322   2.278  0.1326 -0.1773 -0.1795
 5811TIP3    H139068   5.488   1.376   2.250 -0.0285 -0.5614 -1.4300
 5811TIP3    H239069   5.412   1.331   2.373  1.0506  0.7827 -0.2325
 5812TIP3   OH239070   0.035   2.519   8.431  0.0349  0.3325  0.5563
 5812TIP3    H139071   0.061   2.447   8.489 -1.1785  1.4151  2.5696
 5812TIP3    H239072  -0.047   2.490   8.391  1.1007 -0.5995 -1.0395
 5813TIP3   OH239073   2.867   6.661   0.666 -0.2970 -0.8465  0.2051
 5813TIP3    H139074   2.839   6.689   0.753 -0.1070  1.5836 -0.4464
 5813TIP3    H239075   2.832   6.728   0.607  1.8274 -0.9632 -1.2924
 5814TIP3   OH239076   5.538   1.392   3.693 -0.5378  0.7520  0.3838
 5814TIP3    H139077   5.551   1.379   3.787  0.5134  0.0997  0.1682
 5814TIP3    H239078   5.626   1.387   3.656 -0.9806  0.5774 -0.6839
 5815TIP3   OH239079   6.580   5.883   1.362  0.1163  0.5392  0.7412
 5815TIP3    H139080   6.488   5.905   1.350  0.3975  1.0472 -0.7355
 5815TIP3    H239081   6.583   5.836   1.445 -1.4929  0.3772  0.7411
 5816TIP3   OH239082   3.144   0.389   1.215 -0.1266  0.1754 -0.2271
 5816TIP3    H139083   3.226   0.410   1.171 -0.3607  2.6206  0.3481
 5816TIP3    H239084   3.078   0.443   1.171 -1.1247 -0.4478  0.4462
 5817TIP3   OH239085   6.157   6.048   1.074  0.0798  0.1413 -0.5249
 5817TIP3    H139086   6.134   5.962   1.039  0.1618 -0.0449 -0.1132
 5817TIP3    H239087   6.253   6.050   1.073  0.0755  0.3180 -0.7534
 5818TIP3   OH239088   3.906   0.875   2.876  0.2540  0.8736 -0.1967
 5818TIP3    H139089   3.867   0.861   2.962 -1.9165 -0.8242 -1.3508
 5818TIP3    H239090   3.890   0.793   2.828 -1.3201  2.6990 -3.1598
 5819TIP3   OH239091   2.279   0.560   8.652  0.0793  0.2382  0.0071
 5819TIP3    H139092   2.361   0.596   8.620 -1.3573  0.8993 -3.4123
 5819TIP3    H239093   2.260   0.610   8.732  0.3791  4.0822 -2.0910
 5820TIP3   OH239094   1.272   2.036   0.497  0.2798  0.4824  0.3472
 5820TIP3    H139095   1.298   2.070   0.583 -0.4007  0.5162  0.5454
 5820TIP3    H239096   1.322   1.955   0.488 -2.0086 -1.2909  2.2397
 5821TIP3   OH239097   4.916   2.314   7.479 -0.4298 -0.1151 -0.7332
 5821TIP3    H139098   4.932   2.223   7.504 -0.6168  0.5946  2.5001
 5821TIP3    H239099   4.823   2.318   7.460 -0.4888 -0.5641 -0.5456
 5822TIP3   OH239100   2.844   2.661   2.272  0.1718 -0.5471 -0.0162
 5822TIP3    H139101   2.857   2.664   2.177 -1.4352 -2.2051 -0.3460
 5822TIP3    H239102   2.860   2.569   2.295 -2.3496 -0.8442  0.7902
 5823TIP3   OH239103   6.116   2.003   0.641  0.4742 -0.1985  0.0493
 5823TIP3    H139104   6.059   1.937   0.680 -0.0099  0.5831  0.6920
 5823TIP3    H239105   6.132   1.971   0.552 -1.5934 -0.0705 -0.4166
 5824TIP3   OH239106   2.255   0.899   1.807  0.0608 -1.0532 -0.3458
 5824TIP3    H139107   2.239   0.910   1.713  2.2707  0.1198 -0.6721
 5824TIP3    H239108   2.239   0.806   1.823  2.1299 -1.9190 -2.5303
 5825TIP3   OH239109   4.228   2.774   0.213  0.4778 -0.3860 -0.4209
 5825TIP3    H139110   4.286   2.727   0.274  0.8114 -1.8201 -1.7749
 5825TIP3    H239111   4.165   2.819   0.270  2.4134  0.6016  1.0834
 5826TIP3   OH239112   5.022   1.569   2.629 -0.0982  0.2167  0.0852
 5826TIP3    H139113   4.984   1.554   2.715  0.3958 -1.8671 -0.0131
 5826TIP3    H239114   5.092   1.633   2.645 -1.2067  1.2628  0.8859
 5827TIP3   OH239115   2.126   2.365   1.339  0.1618 -0.3067 -0.1006
 5827TIP3    H139116   2.079   2.283   1.320  0.4314 -0.0905 -1.8636
 5827TIP3    H239117   2.154   2.396   1.254  0.4601  1.4134  0.5954
 5828TIP3   OH239118   4.284   2.362   0.666  0.4409 -0.0437 -0.5267
 5828TIP3    H139119   4.335   2.371   0.746  0.8275 -1.5629 -0.5688
 5828TIP3    H239120   4.218   2.295   0.687  0.3593 -0.2389 -1.3703
 5829TIP3   OH239121   6.556   5.743   8.193  0.2297 -0.1148  0.1875
 5829TIP3    H139122   6.513   5.789   8.266 -0.8542 -0.5977 -0.1190
 5829TIP3    H239123   6.516   5.780   8.115 -0.8528 -1.6969 -0.0581
 5830TIP3   OH239124   4.218   5.081   8.382  0.0817  0.0439 -0.3791
 5830TIP3    H139125   4.140   5.117   8.341 -0.0397  1.4798  1.0201
 5830TIP3    H239126   4.202   5.089   8.476  1.6737 -0.1639 -0.0527
 5831TIP3   OH239127   6.276   6.477   3.791 -0.1352  0.6011  0.1772
 5831TIP3    H139128   6.264   6.535   3.866 -0.8760  1.8482 -0.8542
 5831TIP3    H239129   6.282   6.537   3.716  1.7134 -0.5356 -0.6565
 5832TIP3   OH239130   2.357   3.408   0.094  0.2702 -0.5259 -0.3503
 5832TIP3    H139131   2.341   3.500   0.115  1.4209 -0.5835  0.9443
 5832TIP3    H239132   2.272   3.366   0.106 -0.3552  0.4134 -1.3145
 5833TIP3   OH239133   3.552   1.534   0.313 -0.0424  0.0393  0.4430
 5833TIP3    H139134   3.593   1.613   0.348 -0.9359  0.1583  1.2750
 5833TIP3    H239135   3.573   1.466   0.377 -0.7101 -0.0031  0.6270
 5834TIP3   OH239136   2.502   5.995   3.131  0.0878  0.1048 -0.1301
 5834TIP3    H139137   2.573   6.050   3.099 -0.0049  0.4236  0.2082
 5834TIP3    H239138   2.480   5.939   3.057 -0.6854  1.4005 -0.9291
 5835TIP3   OH239139   0.270   5.735   0.296  0.4028 -0.9638  0.5747
 5835TIP3    H139140   0.235   5.820   0.273 -1.5639 -1.5938  1.0699
 5835TIP3    H239141   0.295   5.695   0.212  2.4754  0.4975  0.4235
 5836TIP3   OH239142   1.060   5.017   8.364 -0.1127  0.1799 -0.1875
 5836TIP3    H139143   1.003   4.975   8.429 -0.6011  2.6476  1.1085
 5836TIP3    H239144   1.004   5.029   8.288  0.2127 -1.9539 -0.8269
 5837TIP3   OH239145   2.923   2.890   7.886 -0.3587 -0.4900  0.0386
 5837TIP3    H139146   2.982   2.831   7.838 -0.3139 -1.1075  0.8449
 5837TIP3    H239147   2.939   2.976   7.847  0.9922 -0.6647  0.1523
 5838TIP3   OH239148   3.726   1.271   8.182 -0.2727  0.6543  0.0759
 5838TIP3    H139149   3.717   1.286   8.087  2.0797 -0.6943 -0.4521
 5838TIP3    H239150   3.731   1.176   8.190  2.5994  0.8138  1.1501
 5839TIP3   OH239151   5.874   2.463   2.156 -0.2435  0.9062 -0.3572
 5839TIP3    H139152   5.948   2.445   2.214 -2.0951  0.0413  1.8609
 5839TIP3    H239153   5.844   2.376   2.128 -1.3334  1.1595 -0.0185
 5840TIP3   OH239154   0.238   0.514   0.136 -0.8134  0.0598  0.2203
 5840TIP3    H139155   0.310   0.451   0.132 -1.1348 -0.2757 -0.4720
 5840TIP3    H239156   0.196   0.497   0.220  0.7536  1.2096  1.2808
 5841TIP3   OH239157   2.231   3.016   1.744 -0.6007  0.2354 -0.1952
 5841TIP3    H139158   2.192   3.092   1.700 -1.0304 -0.7146 -1.5321
 5841TIP3    H239159   2.248   2.954   1.673 -2.5535 -1.9291  1.1050
 5842TIP3   OH239160   5.829   1.383   2.160 -0.3234 -0.5301 -0.5832
 5842TIP3    H139161   5.794   1.470   2.142 -2.0500 -0.8766  0.7540
 5842TIP3    H239162   5.882   1.394   2.239  0.0174 -0.5652 -0.8079
 5843TIP3   OH239163   4.272   0.877   8.204  0.4671 -0.0942  0.0834
 5843TIP3    H139164   4.227   0.951   8.245  4.1347  0.9211  2.7842
 5843TIP3    H239165   4.267   0.807   8.269  0.4710 -0.8849 -0.7523
 5844TIP3   OH239166   0.292   6.658   2.321  0.6298 -0.1083  0.0821
 5844TIP3    H139167   0.219   6.642   2.381  0.6109  0.5879  0.2565
 5844TIP3    H239168   0.264   6.620   2.238 -1.3953  2.9349 -0.8290
 5845TIP3   OH239169   1.935   0.872   7.571  0.6406 -0.1158 -0.3134
 5845TIP3    H139170   1.987   0.815   7.514 -0.6229 -1.4963 -0.1603
 5845TIP3    H239171   1.909   0.815   7.644  1.0142  1.2248  0.9064
 5846TIP3   OH239172   0.388   4.702   3.794 -0.1520  0.3581  0.1569
 5846TIP3    H139173   0.337   4.709   3.875 -0.9552  0.1520 -0.3221
 5846TIP3    H239174   0.331   4.654   3.734 -1.1739  3.7115 -1.8005
 5847TIP3   OH239175   5.274   2.803   1.706  0.2674 -0.1046 -0.2834
 5847TIP3    H139176   5.303   2.719   1.672 -1.6904 -0.8469 -0.2052
 5847TIP3    H239177   5.287   2.864   1.634 -0.2648 -0.9033 -1.0672
 5848TIP3   OH239178   5.888   0.747   3.092  0.2784 -0.2197 -0.0321
 5848TIP3    H139179   5.820   0.814   3.091  0.3994 -0.0922  0.1767
 5848TIP3    H239180   5.856   0.681   3.154  0.0264 -0.5008 -0.4491
 5849TIP3   OH239181   2.780   1.777   2.192 -0.4835  0.0301  0.5810
 5849TIP3    H139182   2.833   1.800   2.268 -0.3351  2.2225 -0.1234
 5849TIP3    H239183   2.720   1.851   2.182 -1.2611 -0.7514 -0.7857
 5850TIP3   OH239184   3.851   6.827   1.331  0.2442  0.2119  0.3503
 5850TIP3    H139185   3.806   6.850   1.412 -0.0037  2.8684 -0.4509
 5850TIP3    H239186   3.929   6.781   1.359 -1.1333 -1.3008  1.9320
 5851TIP3   OH239187   3.592   3.819   0.061  0.4880  0.4138  0.0239
 5851TIP3    H139188   3.642   3.792  -0.016 -0.2589 -0.2994 -0.2329
 5851TIP3    H239189   3.516   3.761   0.061 -0.5464  1.7293  0.1712
 5852TIP3   OH239190   2.497   4.581   7.762  0.2077 -0.6471  0.1830
 5852TIP3    H139191   2.490   4.672   7.733  1.2628 -0.4028  0.6634
 5852TIP3    H239192   2.467   4.582   7.853 -1.2567 -1.0737 -0.2648
 5853TIP3   OH239193   2.255   3.000   7.794 -0.4152  0.2766 -0.5156
 5853TIP3    H139194   2.231   2.908   7.802  0.4667  0.1761  1.6757
 5853TIP3    H239195   2.320   3.002   7.723  0.5811 -1.0516  0.2956
 5854TIP3   OH239196   6.026   5.320   1.380  0.0675 -0.3165  0.1969
 5854TIP3    H139197   6.026   5.317   1.475  0.3918 -1.6499  0.1772
 5854TIP3    H239198   5.974   5.244   1.353  1.5646 -1.0904 -0.6745
 5855TIP3   OH239199   2.099   5.172   0.215  0.3066  0.0632 -0.1403
 5855TIP3    H139200   2.163   5.141   0.151  0.0960  0.4768 -0.5577
 5855TIP3    H239201   2.047   5.236   0.167 -0.0939  0.1021  0.3429
 5856TIP3   OH239202   0.669   3.839   3.258  0.3796  0.0996  0.2266
 5856TIP3    H139203   0.711   3.914   3.215  0.3360  0.2940  0.5203
 5856TIP3    H239204   0.740   3.799   3.308  0.0900  0.7792  1.2029
 5857TIP3   OH239205   4.501   6.337   8.474 -0.5559  0.3803 -0.5282
 5857TIP3    H139206   4.473   6.245   8.468  1.0312 -0.2250  0.6332
 5857TIP3    H239207   4.539   6.356   8.388 -2.7021  0.6469 -1.4915
 5858TIP3   OH239208   4.178   1.986   8.125 -0.4639  0.5434 -0.2212
 5858TIP3    H139209   4.254   1.974   8.182 -0.5822 -0.6412 -0.2713
 5858TIP3    H239210   4.165   1.899   8.086 -1.1690  1.0178 -1.0566
 5859TIP3   OH239211   0.294   2.327   0.318 -0.0548  0.0656  0.1931
 5859TIP3    H139212   0.293   2.392   0.389  0.7291  1.7078 -1.2167
 5859TIP3    H239213   0.275   2.378   0.239  2.7202 -0.9873 -1.2897
 5860TIP3   OH239214   2.060   6.522   0.725  0.1647  0.8956 -0.2079
 5860TIP3    H139215   2.041   6.497   0.634 -1.5636  0.2009  0.2958
 5860TIP3    H239216   2.148   6.488   0.742  0.4608  0.9276 -1.5602
 5861TIP3   OH239217   2.008   3.146   2.828  0.3447  0.1101  0.3124
 5861TIP3    H139218   2.038   3.190   2.908 -1.2284  0.5491  0.6939
 5861TIP3    H239219   1.925   3.189   2.807  0.0023 -1.0127 -0.7182
 5862TIP3   OH239220   0.462   6.821   8.066 -0.7913  0.2542 -0.1246
 5862TIP3    H139221   0.444   6.866   7.983  0.0617  1.0901  0.1314
 5862TIP3    H239222   0.428   6.880   8.133  0.3684  0.5660  0.2174
 5863TIP3   OH239223   0.780   0.977   8.597 -0.0185 -0.3606 -0.1687
 5863TIP3    H139224   0.692   0.940   8.587  0.0502 -0.7111  0.4760
 5863TIP3    H239225   0.802   1.011   8.510 -1.7656  1.9244  0.1850
 5864TIP3   OH239226   5.087   0.158   2.037 -0.3509 -0.4512 -0.4467
 5864TIP3    H139227   5.153   0.186   2.099 -0.3863  2.4408 -1.5958
 5864TIP3    H239228   5.043   0.084   2.080  1.2619 -0.1605  1.8276
 5865TIP3   OH239229   4.008   0.072   1.561 -0.2456 -0.0204  0.6162
 5865TIP3    H139230   4.097   0.038   1.570  0.9522  2.0908 -1.9524
 5865TIP3    H239231   3.952  -0.004   1.578  2.1170 -2.2823 -0.8808
 5866TIP3   OH239232   2.795   0.009   2.223 -0.0076 -0.0771 -0.2711
 5866TIP3    H139233   2.781  -0.011   2.315  0.6943 -1.8947 -0.5284
 5866TIP3    H239234   2.708   0.003   2.183 -0.0725 -0.9662 -0.0148
 5867TIP3   OH239235   6.805   1.394   1.821  0.2796  0.5715 -0.5462
 5867TIP3    H139236   6.899   1.380   1.808  0.4771  1.2478  0.0909
 5867TIP3    H239237   6.799   1.470   1.879 -0.6154 -0.3509  0.6352
 5868TIP3   OH239238   2.367   2.531   0.549  0.0053 -0.1224 -0.4128
 5868TIP3    H139239   2.355   2.620   0.517  0.1806 -0.3518 -1.1213
 5868TIP3    H239240   2.279   2.493   0.550  0.0655 -0.3099 -1.2235
 5869TIP3   OH239241   5.435   4.919   3.477 -0.6255  0.3227  0.2904
 5869TIP3    H139242   5.351   4.892   3.515  0.3766 -1.8005  1.1721
 5869TIP3    H239243   5.437   4.877   3.391 -0.9618  1.4096 -0.2692
 5870TIP3   OH239244   3.299   1.890   2.298  0.0692  0.1927  0.0484
 5870TIP3    H139245   3.299   1.971   2.349 -0.6574  0.8445 -0.9489
 5870TIP3    H239246   3.277   1.821   2.361 -0.3245  0.9098  0.7023
 5871TIP3   OH239247   2.141   2.271   2.992 -0.1890  0.2294  0.1106
 5871TIP3    H139248   2.211   2.298   3.051  2.3369 -0.1893 -2.4660
 5871TIP3    H239249   2.113   2.352   2.950 -2.0676  0.5445  1.7967
 5872TIP3   OH239250   0.517   3.481   1.559  0.0194  0.2791 -0.0102
 5872TIP3    H139251   0.443   3.421   1.570 -0.7087  1.0586 -0.5331
 5872TIP3    H239252   0.494   3.557   1.611  1.1777 -0.0697  1.0747
 5873TIP3   OH239253   0.367   1.954   2.225  0.1974 -0.1242  0.2601
 5873TIP3    H139254   0.442   1.965   2.165  0.0960  1.0288  0.3151
 5873TIP3    H239255   0.383   1.871   2.269  1.1455 -0.1779 -0.1652
 5874TIP3   OH239256   5.778   1.934   1.481  0.0506 -0.0235 -0.5957
 5874TIP3    H139257   5.810   2.023   1.497  0.4672 -0.0719 -1.1023
 5874TIP3    H239258   5.765   1.896   1.568  1.3159  0.0343 -0.3648
 5875TIP3   OH239259   3.216   1.342   1.239  0.0281 -0.4137  0.3882
 5875TIP3    H139260   3.217   1.250   1.266 -1.4058 -0.4045  0.5233
 5875TIP3    H239261   3.202   1.391   1.320  0.8128 -0.0588  0.3205
 5876TIP3   OH239262   5.898   2.295   0.873  0.0375  0.0627  0.4617
 5876TIP3    H139263   5.918   2.296   0.779  0.1020 -0.6500  0.4634
 5876TIP3    H239264   5.966   2.239   0.911  1.5786  2.3419  1.3164
 5877TIP3   OH239265   2.908   2.651   2.010 -0.0239  0.4299  0.5475
 5877TIP3    H139266   2.848   2.595   1.960 -0.8543 -0.3120  2.3047
 5877TIP3    H239267   2.992   2.605   2.006 -0.2021  0.1193  0.2744
 5878TIP3   OH239268   2.697   6.283   0.227  0.3496  0.4601 -0.2566
 5878TIP3    H139269   2.668   6.358   0.279  0.4616  1.5346 -1.6989
 5878TIP3    H239270   2.757   6.236   0.285  1.0392  2.0203  0.3676
 5879TIP3   OH239271   0.010   4.879   8.559 -0.8449  0.3906 -0.2813
 5879TIP3    H139272   0.032   4.960   8.513 -0.8912 -0.4324 -1.7953
 5879TIP3    H239273   0.060   4.811   8.515  0.8267 -0.1694  2.2817
 5880TIP3   OH239274   4.915   4.842   7.046 -0.2750 -0.5042 -0.3179
 5880TIP3    H139275   4.947   4.894   7.119  0.7111  1.4583 -2.0404
 5880TIP3    H239276   4.824   4.871   7.034 -0.4824 -0.9283  0.1793
 5881TIP3   OH239277   4.998   1.587   2.163 -0.1326 -0.3379 -0.0117
 5881TIP3    H139278   5.034   1.502   2.139  0.0860 -0.8860  2.0661
 5881TIP3    H239279   4.908   1.569   2.191 -0.2430  0.1784 -0.0183
 5882TIP3   OH239280   2.077   6.699   2.167  0.3023  0.5490 -0.1965
 5882TIP3    H139281   2.134   6.776   2.157  1.6331 -0.5028 -1.0214
 5882TIP3    H239282   2.118   6.648   2.236  0.4544 -0.2819 -0.8865
 5883TIP3   OH239283   4.341   4.780   1.076 -0.1078 -0.1725  0.2127
 5883TIP3    H139284   4.387   4.701   1.104 -0.2178  0.1036  1.1929
 5883TIP3    H239285   4.411   4.842   1.057 -0.0089 -0.5879 -0.8645
 5884TIP3   OH239286   1.540   6.086   0.870 -0.1457  0.0907  0.4067
 5884TIP3    H139287   1.475   6.156   0.876 -2.3218 -1.8911  1.5407
 5884TIP3    H239288   1.584   6.088   0.955 -0.0589  0.2190  0.3589
 5885TIP3   OH239289   0.072   4.419   8.584  0.3182  0.2978 -0.0868
 5885TIP3    H139290  -0.012   4.386   8.551 -1.2360  1.5731  2.2874
 5885TIP3    H239291   0.050   4.461   8.667  3.2544  1.2209  0.3349
 5886TIP3   OH239292   1.603   6.875   0.807  0.2825 -0.3886 -0.5331
 5886TIP3    H139293   1.618   6.968   0.790 -0.7622  0.1426  1.1631
 5886TIP3    H239294   1.690   6.836   0.806  0.9963  1.0514  1.0084
 5887TIP3   OH239295   4.716   1.984   1.645 -0.6633  0.0233  0.4698
 5887TIP3    H139296   4.670   1.901   1.660  1.5498 -1.0178  2.2355
 5887TIP3    H239297   4.757   2.004   1.729  2.5670  0.4644 -1.0295
 5888TIP3   OH239298   1.205   6.061   1.697 -0.3919 -0.2888  0.1646
 5888TIP3    H139299   1.153   6.007   1.638 -0.0571 -0.9681  0.4807
 5888TIP3    H239300   1.295   6.031   1.684 -0.2339  0.0214  0.5307
 5889TIP3   OH239301   5.139   6.676   3.487  0.5846  0.3730 -0.0389
 5889TIP3    H139302   5.130   6.680   3.392 -2.3546 -3.1768 -0.0995
 5889TIP3    H239303   5.070   6.733   3.520 -1.0565 -1.4675 -0.1614
 5890TIP3   OH239304   5.719   0.255   0.121  0.5033 -0.2342 -0.4764
 5890TIP3    H139305   5.741   0.164   0.101  0.7334 -0.0471 -1.0988
 5890TIP3    H239306   5.665   0.283   0.047  1.0696  0.3612 -0.6748
 5891TIP3   OH239307   4.150   2.898   7.388  0.1358 -0.0054 -0.7106
 5891TIP3    H139308   4.200   2.861   7.315 -0.2100  1.6114 -1.8075
 5891TIP3    H239309   4.192   2.982   7.406 -0.2161 -0.0767  0.5017
 5892TIP3   OH239310   2.858   6.495   0.127  0.5250  0.0152  0.5054
 5892TIP3    H139311   2.862   6.486   0.222  0.1718 -0.3262  0.4941
 5892TIP3    H239312   2.910   6.422   0.094  1.2357  0.5384  0.4345
 5893TIP3   OH239313   2.396   5.836   8.047 -0.3320  0.1715 -0.0798
 5893TIP3    H139314   2.448   5.878   7.979 -0.2806  2.0840  1.0831
 5893TIP3    H239315   2.317   5.889   8.053  0.1225  0.6881  2.0536
 5894TIP3   OH239316   5.799   6.777   2.052  0.1963  0.4158  0.2869
 5894TIP3    H139317   5.854   6.702   2.030  0.9249  1.1567 -0.4867
 5894TIP3    H239318   5.717   6.761   2.004  0.2580  0.0081  0.3105
 5895TIP3   OH239319   2.787   4.567   1.520 -0.5245  0.3336  0.2691
 5895TIP3    H139320   2.806   4.476   1.543  0.0982  0.5181  0.4985
 5895TIP3    H239321   2.710   4.561   1.463  0.8921 -0.5505 -1.6866
 5896TIP3   OH239322   6.147   5.864   3.122 -0.0382  0.0274 -0.4945
 5896TIP3    H139323   6.208   5.798   3.090 -0.4050 -0.5667  0.0049
 5896TIP3    H239324   6.078   5.814   3.165  0.1986  0.7635  0.8051
 5897TIP3   OH239325   5.565   0.626   0.059  0.4137 -0.0463  0.2676
 5897TIP3    H139326   5.578   0.715   0.092  2.3959  1.8661 -4.7268
 5897TIP3    H239327   5.652   0.595   0.036 -0.6409 -0.7143 -3.5296
 5898TIP3   OH239328   3.161   6.191   8.132  0.5005 -0.3987  0.0312
 5898TIP3    H139329   3.240   6.140   8.114  0.0105 -0.3482 -2.7103
 5898TIP3    H239330   3.192   6.282   8.136  0.6044 -0.3434 -1.3497
 5899TIP3   OH239331   0.566   0.732   2.197  0.2295  0.1222 -0.2246
 5899TIP3    H139332   0.649   0.712   2.241  0.4751  0.3302 -0.5805
 5899TIP3    H239333   0.547   0.652   2.147 -0.7121 -0.6058  1.2285
 5900TIP3   OH239334   2.733   1.678   1.124  0.1994  0.3104  0.5063
 5900TIP3    H139335   2.690   1.748   1.074  0.8438  0.9945  0.8817
 5900TIP3    H239336   2.696   1.687   1.212  1.3611  1.1670  0.9386
 5901TIP3   OH239337   2.230   6.701   2.661  0.1583  0.0007  0.3921
 5901TIP3    H139338   2.257   6.616   2.696  1.1340 -0.3481 -1.1148
 5901TIP3    H239339   2.175   6.739   2.729 -0.6807 -2.0427  0.9082
 5902TIP3   OH239340   5.801   5.161   1.159 -0.0470  0.1488  0.0500
 5902TIP3    H139341   5.867   5.172   1.090  1.0054  2.5665  1.3257
 5902TIP3    H239342   5.816   5.074   1.194  0.7871 -0.2992 -1.3578
 5903TIP3   OH239343   2.578   2.402   0.469 -1.0937  0.4974  0.2448
 5903TIP3    H139344   2.512   2.452   0.517 -3.8139 -0.1906 -2.4197
 5903TIP3    H239345   2.531   2.324   0.438  1.6843 -1.2894  0.2166
 5904TIP3   OH239346   1.620   0.252   0.780 -0.1382 -0.5690  0.1927
 5904TIP3    H139347   1.555   0.319   0.761 -0.0316  0.0185  1.8001
 5904TIP3    H239348   1.690   0.268   0.716 -0.3493  0.5086  0.2171
 5905TIP3   OH239349   0.074   3.139   0.619 -0.1786  0.6720 -0.5433
 5905TIP3    H139350   0.034   3.189   0.548 -1.9570 -0.6762 -0.5764
 5905TIP3    H239351   0.000   3.110   0.673  0.9328 -0.2982  0.5371
 5906TIP3   OH239352   3.740   2.814   8.489 -0.5340  0.2297  0.3045
 5906TIP3    H139353   3.661   2.762   8.474  0.7361 -1.6447 -0.2998
 5906TIP3    H239354   3.802   2.752   8.528  0.4138  1.8398  1.4962
 5907TIP3   OH239355   3.016   3.588   8.229 -0.5771  0.1833 -0.3380
 5907TIP3    H139356   3.051   3.675   8.247 -1.3502  0.5938 -0.7900
 5907TIP3    H239357   2.931   3.587   8.273  0.3995 -1.1792  1.6605
 5908TIP3   OH239358   4.160   3.847   1.442  0.8458 -0.5099  0.5091
 5908TIP3    H139359   4.232   3.785   1.431  2.9040  1.7282  0.4854
 5908TIP3    H239360   4.108   3.838   1.363  1.1047 -2.1397  0.4880
 5909TIP3   OH239361   6.544   3.588   0.585 -0.4132 -0.0276 -0.4899
 5909TIP3    H139362   6.496   3.629   0.656 -0.9849  0.9048 -1.3840
 5909TIP3    H239363   6.507   3.499   0.579  0.4584 -0.5352  1.1068
 5910TIP3   OH239364   1.358   5.237   0.445 -0.5825 -0.3566 -0.1167
 5910TIP3    H139365   1.328   5.204   0.361  1.3642 -1.2414 -0.5255
 5910TIP3    H239366   1.329   5.328   0.446 -1.4461 -0.5890 -1.3235
 5911TIP3   OH239367   1.969   0.891   0.826  0.0191 -0.6742  0.0561
 5911TIP3    H139368   1.965   0.948   0.903 -0.5862 -0.6389  0.0058
 5911TIP3    H239369   1.950   0.803   0.860  3.7035 -1.4184  0.6354
 5912TIP3   OH239370   2.739   1.185   0.666 -0.3434 -0.0536 -0.0387
 5912TIP3    H139371   2.647   1.168   0.686 -2.1633  4.0111 -3.3421
 5912TIP3    H239372   2.768   1.247   0.734 -1.3331  1.4779 -0.9615
 5913TIP3   OH239373   6.294   5.234   0.889  0.4505  0.4842 -0.1534
 5913TIP3    H139374   6.296   5.305   0.953  1.8899  1.3534 -1.1294
 5913TIP3    H239375   6.244   5.269   0.816 -1.1365 -0.4876  0.3959
 5914TIP3   OH239376   2.240   4.682   2.516  0.1516 -0.0095 -0.5424
 5914TIP3    H139377   2.290   4.760   2.494 -0.2721  0.2812 -0.4675
 5914TIP3    H239378   2.195   4.657   2.435  1.0180 -0.7248 -0.8264
 5915TIP3   OH239379   5.938   0.471   0.472 -0.1359 -0.2160 -0.6235
 5915TIP3    H139380   5.882   0.397   0.494  0.5589 -0.8596 -0.9858
 5915TIP3    H239381   5.904   0.503   0.388 -1.6066  1.0733  0.3953
 5916TIP3   OH239382   0.401   0.781   0.252  0.2425  0.0656 -0.0349
 5916TIP3    H139383   0.419   0.870   0.283  0.6019  0.5243 -1.4792
 5916TIP3    H239384   0.311   0.784   0.220  0.7518  0.3754 -1.5363
 5917TIP3   OH239385   0.659   4.091   8.454 -0.1750 -0.4731  0.2446
 5917TIP3    H139386   0.666   4.185   8.474 -0.6205 -0.5101  0.5672
 5917TIP3    H239387   0.620   4.052   8.532 -0.2760 -0.8855 -0.0103
 5918TIP3   OH239388   2.737   6.348   1.291 -0.4371 -0.1434  0.3759
 5918TIP3    H139389   2.643   6.360   1.285 -0.6355 -1.7411 -0.1096
 5918TIP3    H239390   2.773   6.406   1.224 -1.1069 -0.0305  0.1096
 5919TIP3   OH239391   0.634   2.568   2.385  0.5599  0.1703 -0.1682
 5919TIP3    H139392   0.539   2.564   2.387  0.4937  1.4934  0.9797
 5919TIP3    H239393   0.661   2.480   2.358 -0.9439 -0.7803  1.2078
 5920TIP3   OH239394   5.213   2.614   2.411 -0.1929 -0.2291  0.0016
 5920TIP3    H139395   5.148   2.617   2.481  0.7010  1.8580  0.8048
 5920TIP3    H239396   5.295   2.638   2.453  0.3419  1.2427 -1.7782
 5921TIP3   OH239397   3.611   1.596   0.040 -0.3066 -0.3150  0.3129
 5921TIP3    H139398   3.687   1.539   0.050  0.3951  0.6781  0.8173
 5921TIP3    H239399   3.566   1.591   0.124  0.0117  0.2218  0.5188
 5922TIP3   OH239400   2.217   6.332   1.039  0.4596  0.0395  0.1193
 5922TIP3    H139401   2.232   6.414   0.993  1.6531  0.3701  1.0400
 5922TIP3    H239402   2.127   6.340   1.073 -0.1511  0.1099 -1.4224
 5923TIP3   OH239403   6.870   5.597   7.496 -0.2319 -0.2981  0.0119
 5923TIP3    H139404   6.842   5.507   7.514 -0.9130 -0.1990 -0.5179
 5923TIP3    H239405   6.897   5.596   7.404 -1.3129  0.2809 -0.3325
 5924TIP3   OH239406   4.015   4.897   8.420 -0.4554 -0.2662 -0.6014
 5924TIP3    H139407   4.036   4.912   8.512 -0.1999  0.5793 -0.7844
 5924TIP3    H239408   4.096   4.867   8.380 -0.5034 -0.4034 -0.5941
 5925TIP3   OH239409   2.053   1.910   1.395  0.2907  0.1501 -0.0466
 5925TIP3    H139410   2.015   1.975   1.337  1.9652 -0.1786 -1.6163
 5925TIP3    H239411   2.136   1.949   1.423  0.2382 -0.3608  0.8607
 5926TIP3   OH239412   3.327   1.926   0.289  0.5606  0.3905 -0.0487
 5926TIP3    H139413   3.376   1.947   0.369  0.4617  2.2908 -0.4356
 5926TIP3    H239414   3.302   2.012   0.254 -0.0071 -0.4353 -1.7419
 5927TIP3   OH239415   1.502   2.976   7.673 -0.1135 -0.1638  0.2101
 5927TIP3    H139416   1.489   3.042   7.606  0.6479 -1.7690 -1.6370
 5927TIP3    H239417   1.479   2.893   7.630 -0.8533 -1.1512  2.3459
 5928TIP3   OH239418   6.140   5.798   0.982  0.2723 -0.0936  0.3073
 5928TIP3    H139419   6.097   5.716   0.961  0.4238 -0.5050  1.5304
 5928TIP3    H239420   6.222   5.795   0.932 -0.5824  0.2075 -1.1663
 5929TIP3   OH239421   6.226   4.569   7.643  0.5344  0.9425 -0.2263
 5929TIP3    H139422   6.245   4.662   7.638 -0.8354  1.2380 -0.3790
 5929TIP3    H239423   6.130   4.564   7.645  0.5944 -0.4194  0.6408
 5930TIP3   OH239424   3.029   2.068   8.368 -0.0775 -0.3187  0.2469
 5930TIP3    H139425   2.961   2.109   8.314  1.2525  1.3128 -0.2502
 5930TIP3    H239426   3.097   2.135   8.377 -0.1352 -0.5879  3.8422
 5931TIP3   OH239427   2.453   1.739   0.271 -0.2221  0.0457 -0.4035
 5931TIP3    H139428   2.389   1.769   0.336  0.8761  2.6776 -0.4527
 5931TIP3    H239429   2.426   1.781   0.190  1.2431  0.7373 -0.5474
 5932TIP3   OH239430   1.121   4.790   0.903  0.2515  0.2706 -0.0936
 5932TIP3    H139431   1.091   4.724   0.966  0.9782  0.2183  0.2043
 5932TIP3    H239432   1.041   4.835   0.876 -0.1126  0.0712  0.6176
 5933TIP3   OH239433   3.594   5.870   2.432 -0.3320 -0.1039  0.3240
 5933TIP3    H139434   3.606   5.893   2.524 -0.9351 -1.4025  0.7531
 5933TIP3    H239435   3.500   5.879   2.417 -0.2824 -0.2309 -0.0814
 5934TIP3   OH239436   2.413   3.659   2.488  0.5100  0.0931  0.0969
 5934TIP3    H139437   2.481   3.695   2.432 -0.9496 -0.3837 -2.1398
 5934TIP3    H239438   2.403   3.568   2.457 -1.7327  0.4217 -0.3382
 5935TIP3   OH239439   5.374   6.196   8.303 -0.2725 -0.0006  0.1672
 5935TIP3    H139440   5.298   6.142   8.327 -1.2324  1.6248  0.9449
 5935TIP3    H239441   5.368   6.203   8.208 -0.9902 -0.0844  0.1942
 5936TIP3   OH239442   3.768   3.859   1.666  0.5036 -0.2614  0.1942
 5936TIP3    H139443   3.824   3.784   1.682 -0.3118 -0.4011  2.7407
 5936TIP3    H239444   3.824   3.935   1.683  0.5448 -0.3503  0.4504
 5937TIP3   OH239445   2.652   1.428   1.332  0.3277  0.7974  0.5879
 5937TIP3    H139446   2.601   1.447   1.411 -1.1300 -1.0706  0.1557
 5937TIP3    H239447   2.587   1.419   1.263  1.4960  1.2539 -0.6149
 5938TIP3   OH239448   2.942   2.845   2.964 -0.2843  0.2484 -0.0209
 5938TIP3    H139449   2.989   2.923   2.994  2.0289 -1.2964  0.6607
 5938TIP3    H239450   2.876   2.830   3.032  2.2061 -0.8592  2.3164
 5939TIP3   OH239451   1.926   0.574   1.602  0.1591  0.6573  0.3071
 5939TIP3    H139452   1.903   0.666   1.589 -0.0398  0.7737  1.3774
 5939TIP3    H239453   1.889   0.552   1.687  3.5187  0.7078  1.9369
 5940TIP3   OH239454   5.716   4.088   3.196  0.1741  0.2779  0.0630
 5940TIP3    H139455   5.717   4.182   3.181 -1.2582  0.4542  0.9071
 5940TIP3    H239456   5.635   4.057   3.155  1.0879 -0.7662 -1.0511
 5941TIP3   OH239457   5.304   1.332   1.440 -0.4939  0.0725 -0.1610
 5941TIP3    H139458   5.253   1.338   1.520  1.0561  2.9375  0.7556
 5941TIP3    H239459   5.394   1.346   1.468  0.3428 -0.7669 -2.2072
 5942TIP3   OH239460   1.228   3.477   8.085  0.5578 -0.3828  0.4081
 5942TIP3    H139461   1.197   3.539   8.152  1.0447  0.1491  0.1518
 5942TIP3    H239462   1.152   3.422   8.066  0.1412  0.0795  0.7082
 5943TIP3   OH239463   6.584   2.041   2.073  0.2775  0.3345 -0.0317
 5943TIP3    H139464   6.675   2.041   2.102  0.5220  1.0104 -0.7496
 5943TIP3    H239465   6.552   2.128   2.097  0.5984  1.0630 -2.0645
 5944TIP3   OH239466   3.878   2.318   2.113 -0.8142  0.0674 -0.0870
 5944TIP3    H139467   3.950   2.302   2.173  0.6789  0.6462 -1.6502
 5944TIP3    H239468   3.841   2.232   2.096  0.0464 -0.3443  0.0837
 5945TIP3   OH239469   2.738   4.239   1.274  0.3154  0.4683 -0.1706
 5945TIP3    H139470   2.762   4.279   1.358  0.4648 -0.9948  0.5226
 5945TIP3    H239471   2.644   4.255   1.266  0.5044  1.6319 -0.3198
 5946TIP3   OH239472   3.912   3.804   3.440 -0.5170  0.5824  0.0753
 5946TIP3    H139473   3.986   3.858   3.412  1.3957 -1.5223  0.6899
 5946TIP3    H239474   3.870   3.776   3.359 -0.0332  1.0403 -0.3429
 5947TIP3   OH239475   6.049   1.437   1.255  0.4831 -0.5506  0.9090
 5947TIP3    H139476   6.048   1.494   1.179  2.1694 -0.4435  0.9337
 5947TIP3    H239477   6.005   1.486   1.324 -0.5554 -0.4271  0.1698
 5948TIP3   OH239478   2.047   1.439   2.570 -0.4842  0.3893  0.4521
 5948TIP3    H139479   1.952   1.436   2.562 -0.4812  2.8269 -2.5696
 5948TIP3    H239480   2.077   1.364   2.518 -0.8581  1.9012 -2.1548
 5949TIP3   OH239481   5.079   2.741   2.635  0.5170 -0.3789 -0.1550
 5949TIP3    H139482   5.077   2.811   2.569 -0.2411  0.9586  1.2358
 5949TIP3    H239483   5.125   2.780   2.710 -1.7450 -0.5795  1.4358
 5950TIP3   OH239484   3.499   3.702   2.315 -0.2308 -0.2956 -0.2031
 5950TIP3    H139485   3.531   3.615   2.342 -0.0212 -0.3934 -0.7488
 5950TIP3    H239486   3.435   3.725   2.381  1.6905  0.3585  1.5329
 5951TIP3   OH239487   0.397   0.755   2.999 -0.1842 -0.3188 -0.6952
 5951TIP3    H139488   0.406   0.725   3.090 -0.8929  0.4428 -0.3489
 5951TIP3    H239489   0.384   0.850   3.007 -0.7144 -0.3088 -1.5627
 5952TIP3   OH239490   2.527   3.574   0.531 -0.9287 -0.0285  0.1226
 5952TIP3    H139491   2.610   3.549   0.490  0.2439  0.1906  2.1892
 5952TIP3    H239492   2.520   3.668   0.515 -0.7527 -0.0365 -0.0081
 5953TIP3   OH239493   6.655   5.065   8.388  0.2030 -0.3169  0.2698
 5953TIP3    H139494   6.695   4.981   8.367  1.7280 -0.0161  1.7884
 5953TIP3    H239495   6.627   5.057   8.479 -0.6676  0.4459  0.0873
 5954TIP3   OH239496   4.803   5.157   2.327 -0.0053  0.0613 -0.6448
 5954TIP3    H139497   4.838   5.175   2.240  2.5300 -0.0338  0.2665
 5954TIP3    H239498   4.786   5.063   2.327  0.2088  0.0197 -0.9823
 5955TIP3   OH239499   0.159   2.587   8.131  0.3781 -0.5118  0.1314
 5955TIP3    H139500   0.114   2.570   8.214 -2.8984  0.2150 -1.3700
 5955TIP3    H239501   0.166   2.682   8.127 -0.1327 -0.5013 -0.7246
 5956TIP3   OH239502   3.042   0.827   8.141  0.1137  0.2570 -0.0097
 5956TIP3    H139503   3.021   0.786   8.226 -0.2634  1.1766  0.3558
 5956TIP3    H239504   2.976   0.896   8.131 -1.5192 -1.4846 -2.2869
 5957TIP3   OH239505   3.594   1.513   1.198  0.0518  0.3868  0.1584
 5957TIP3    H139506   3.565   1.426   1.170  1.8163  0.0029 -0.6013
 5957TIP3    H239507   3.532   1.538   1.266  0.8024 -2.4692  2.0749
 5958TIP3   OH239508   5.014   1.780   8.253  0.4965  0.4225 -0.0836
 5958TIP3    H139509   5.021   1.700   8.200  1.3456  1.8184 -2.1832
 5958TIP3    H239510   5.092   1.779   8.308 -0.8446 -1.5056  1.9811
 5959TIP3   OH239511   5.298   5.933   1.877 -0.1195  0.0952 -0.0235
 5959TIP3    H139512   5.389   5.962   1.884 -0.3148  0.2556  2.8450
 5959TIP3    H239513   5.252   6.007   1.837  0.4829  1.2924  1.4214
 5960TIP3   OH239514   4.004   4.726   3.050  0.3955  0.3069  0.2336
 5960TIP3    H139515   4.093   4.695   3.066  0.5141  1.0997  1.1640
 5960TIP3    H239516   3.950   4.647   3.053  0.9461 -0.0614  0.5462
 5961TIP3   OH239517   1.174   0.120   2.590 -0.7764  0.1970  0.6794
 5961TIP3    H139518   1.196   0.212   2.574  0.4292 -0.2422 -0.4075
 5961TIP3    H239519   1.254   0.082   2.626 -1.5857 -0.2184  2.0830
 5962TIP3   OH239520   5.714   4.689   2.768 -0.1948 -0.0571 -0.1138
 5962TIP3    H139521   5.621   4.678   2.788 -0.2149  1.3395  0.7264
 5962TIP3    H239522   5.758   4.674   2.852  0.2658 -0.0274 -0.3487
 5963TIP3   OH239523   5.674   6.236   2.013 -0.3095  0.2938 -0.1518
 5963TIP3    H139524   5.624   6.158   2.038  0.6637  0.2945  2.0139
 5963TIP3    H239525   5.700   6.276   2.096 -1.1214  3.2209 -1.1819
 5964TIP3   OH239526   6.322   4.340   1.095  0.7632 -0.2713 -0.4243
 5964TIP3    H139527   6.251   4.325   1.158  0.2588  0.5687 -0.7723
 5964TIP3    H239528   6.323   4.260   1.041 -0.1061 -0.1889 -0.5873
 5965TIP3   OH239529   6.395   6.170   2.307 -0.2232  0.0431  0.4592
 5965TIP3    H139530   6.376   6.247   2.361  1.8071  2.0020 -1.4181
 5965TIP3    H239531   6.393   6.203   2.217  0.9767 -2.0450 -0.4046
 5966TIP3   OH239532   6.211   3.496   2.870 -0.4602  0.2227  0.2077
 5966TIP3    H139533   6.293   3.448   2.879  0.4800  1.8892  1.0433
 5966TIP3    H239534   6.230   3.567   2.810 -1.5361  0.1550 -0.2400
 5967TIP3   OH239535   6.486   2.842   8.462  0.1418 -0.4368  0.7129
 5967TIP3    H139536   6.537   2.771   8.500 -1.3981 -1.7024  0.4805
 5967TIP3    H239537   6.395   2.818   8.476 -0.4393  1.0681 -0.1536
 5968TIP3   OH239538   0.303   4.034   2.326 -0.1544 -0.2960 -0.0068
 5968TIP3    H139539   0.237   3.966   2.334  2.6628 -3.2408  0.5345
 5968TIP3    H239540   0.355   4.007   2.250  1.4894  0.8187  0.6757
 5969TIP3   OH239541   3.129   5.680   2.360 -0.0551  0.3766  0.2260
 5969TIP3    H139542   3.074   5.758   2.368 -0.0050  0.4461 -0.0732
 5969TIP3    H239543   3.219   5.712   2.373  0.1460  0.7082 -1.6989
 5970TIP3   OH239544   4.793   2.942   0.515  0.7575  0.1716  0.1844
 5970TIP3    H139545   4.718   2.985   0.555  0.2464 -1.2643  0.8742
 5970TIP3    H239546   4.781   2.849   0.536  1.8730 -0.2992 -1.0927
 5971TIP3   OH239547   5.760   4.805   0.087  0.3485  0.1714  0.4079
 5971TIP3    H139548   5.770   4.729   0.028 -0.1411 -0.4335  1.0954
 5971TIP3    H239549   5.734   4.876   0.029 -1.5036 -0.7392  0.0498
 5972TIP3   OH239550   6.756   2.791   0.752  0.5577 -0.4432 -0.0854
 5972TIP3    H139551   6.767   2.886   0.752 -0.1187 -0.3602 -0.4495
 5972TIP3    H239552   6.743   2.768   0.844  1.2830 -0.2557  0.0684
 5973TIP3   OH239553   2.450   3.542   7.743  0.5572 -0.0980  0.1046
 5973TIP3    H139554   2.417   3.521   7.656 -1.4292  2.6658  0.0611
 5973TIP3    H239555   2.526   3.598   7.727 -0.5229  1.4271  0.0332
 5974TIP3   OH239556   1.196   5.512   3.118  0.0168 -0.1384  0.3523
 5974TIP3    H139557   1.210   5.606   3.125 -0.8077 -0.0678  1.1382
 5974TIP3    H239558   1.229   5.490   3.031 -0.2185  0.9582 -0.0326
 5975TIP3   OH239559   4.120   0.266   0.639 -0.1832  0.0665  0.2426
 5975TIP3    H139560   4.088   0.179   0.662  1.0968 -0.9791 -1.6482
 5975TIP3    H239561   4.042   0.322   0.643 -0.8347 -0.8934  2.5220
 5976TIP3   OH239562   1.497   0.245   3.201 -0.2136 -0.1062 -0.4877
 5976TIP3    H139563   1.563   0.273   3.137 -0.7963  0.5659 -0.8067
 5976TIP3    H239564   1.431   0.314   3.199  0.0283  0.2198  1.2702
 5977TIP3   OH239565   1.211   5.035   2.734  0.5840  0.7851  0.0275
 5977TIP3    H139566   1.304   5.030   2.754  0.4042  1.9438  1.2932
 5977TIP3    H239567   1.208   5.060   2.641  1.5807  2.4384  0.4039
 5978TIP3   OH239568   2.155   6.420   0.238 -0.1070 -0.1420  0.1536
 5978TIP3    H139569   2.094   6.455   0.302 -1.5094 -0.3601 -1.0264
 5978TIP3    H239570   2.183   6.496   0.188 -0.2205 -0.1933  0.0142
 5979TIP3   OH239571   4.916   0.830   2.989 -0.1198  0.3021 -0.6419
 5979TIP3    H139572   4.882   0.742   2.973 -0.4530  0.6354 -1.8650
 5979TIP3    H239573   5.008   0.816   3.013  0.1478 -0.3411 -1.9147
 5980TIP3   OH239574   2.445   0.357   1.672  0.6152  0.5610 -0.1072
 5980TIP3    H139575   2.359   0.384   1.639  1.2520  2.8264 -0.0760
 5980TIP3    H239576   2.499   0.350   1.594  0.3368 -1.2990 -0.1701
 5981TIP3   OH239577   3.349   4.578   0.550 -0.1800  0.5259 -0.0857
 5981TIP3    H139578   3.374   4.490   0.525  0.4894  1.0086 -1.2050
 5981TIP3    H239579   3.261   4.569   0.586  0.2026 -0.7021  0.5845
 5982TIP3   OH239580   6.009   1.739   1.960  0.6758  0.4612 -0.1218
 5982TIP3    H139581   6.064   1.791   2.019 -0.3838 -0.5547  1.8498
 5982TIP3    H239582   6.069   1.675   1.921  1.3432  0.9724  0.0469
 5983TIP3   OH239583   1.447   2.161   0.297  0.5576 -0.5150 -0.0910
 5983TIP3    H139584   1.528   2.128   0.334  0.5308  0.2043  0.6395
 5983TIP3    H239585   1.393   2.182   0.373 -0.4009 -1.1844 -0.5658
 5984TIP3   OH239586   2.516   6.713   2.003  0.3957 -0.0543  0.3660
 5984TIP3    H139587   2.492   6.683   1.916  0.4637 -0.9551  0.6438
 5984TIP3    H239588   2.472   6.652   2.062  0.6426  0.3259  0.9535
 5985TIP3   OH239589   4.089   0.044   3.301  0.2215 -0.3706 -0.6687
 5985TIP3    H139590   4.088   0.004   3.388 -1.1734  1.2434  0.1232
 5985TIP3    H239591   4.080   0.138   3.318  0.7804  0.0677 -2.5429
 5986TIP3   OH239592   2.513   1.521   1.541 -0.6450  0.0311 -0.1774
 5986TIP3    H139593   2.572   1.578   1.591  0.6074  0.2465 -1.8038
 5986TIP3    H239594   2.435   1.574   1.527  0.3928  1.3247 -1.4336
 5987TIP3   OH239595   4.837   2.842   0.261 -0.0033 -0.1810  0.1215
 5987TIP3    H139596   4.829   2.888   0.345  1.0450 -0.3942  0.3508
 5987TIP3    H239597   4.922   2.869   0.228  0.6285 -1.9114  0.2391
 5988TIP3   OH239598   0.240   4.192   8.601 -0.4710 -0.2278  0.0055
 5988TIP3    H139599   0.185   4.269   8.588 -2.0016 -1.1010  1.0375
 5988TIP3    H239600   0.208   4.128   8.538 -0.8739 -0.8333  0.7943
 5989TIP3   OH239601   4.337   4.301   0.074  0.0719  0.2039  0.2129
 5989TIP3    H139602   4.369   4.330  -0.011 -1.3701 -1.0391 -0.8178
 5989TIP3    H239603   4.254   4.348   0.085 -0.3161 -0.4996  0.3709
 5990TIP3   OH239604   5.015   5.914   0.562  0.5344 -0.4228  0.3307
 5990TIP3    H139605   4.958   5.886   0.634 -0.5706 -1.5835 -0.9505
 5990TIP3    H239606   5.095   5.864   0.574  0.2199 -0.8764  0.5620
 5991TIP3   OH239607   5.322   0.522   8.557  0.4941  0.4830  0.1889
 5991TIP3    H139608   5.300   0.527   8.650  0.0061  0.3005  0.0894
 5991TIP3    H239609   5.366   0.605   8.538 -1.2749  1.4586  0.1100
 5992TIP3   OH239610   0.484   6.313   2.205 -0.2558  0.3496  0.4953
 5992TIP3    H139611   0.523   6.230   2.233  0.5058  0.6307  0.2893
 5992TIP3    H239612   0.400   6.316   2.249 -0.6943 -0.9550 -0.1944
 5993TIP3   OH239613   1.469   3.845   0.126 -0.4413  0.2828  0.4969
 5993TIP3    H139614   1.536   3.902   0.164 -0.2261 -0.7604  1.7250
 5993TIP3    H239615   1.517   3.783   0.073 -0.6632  1.0942 -0.6887
 5994TIP3   OH239616   0.267   5.963   0.535  0.1418  0.7592 -0.3213
 5994TIP3    H139617   0.352   5.938   0.499  0.8950  1.7677  0.6832
 5994TIP3    H239618   0.212   5.977   0.457  1.2023  1.1338 -1.0300
 5995TIP3   OH239619   0.006   6.736   3.113  0.3404 -0.1970 -0.1388
 5995TIP3    H139620   0.095   6.707   3.136 -0.2832 -2.1436 -0.0070
 5995TIP3    H239621  -0.047   6.713   3.190 -0.6556 -1.1101 -1.0622
 5996TIP3   OH239622   2.525   2.775   2.499 -0.4441 -0.1748 -0.4998
 5996TIP3    H139623   2.565   2.692   2.526 -1.1723 -0.9721 -1.7706
 5996TIP3    H239624   2.583   2.843   2.534 -0.1569 -1.1896  1.1009
 5997TIP3   OH239625   6.669   6.333   1.976 -0.0141 -0.7136 -0.2295
 5997TIP3    H139626   6.757   6.302   1.997 -0.6826 -1.9258  0.9341
 5997TIP3    H239627   6.631   6.357   2.060 -1.1100 -1.0984 -0.5921
 5998TIP3   OH239628   1.143   6.414   8.614 -0.1404  0.1783  0.5284
 5998TIP3    H139629   1.168   6.343   8.555  2.0412 -0.1516  1.7247
 5998TIP3    H239630   1.065   6.452   8.575 -0.9882 -2.4268 -0.5138
 5999TIP3   OH239631   4.030   6.318   0.068  0.3133  0.0405 -0.4658
 5999TIP3    H139632   4.084   6.390   0.100 -0.2882 -0.5947  2.2218
 5999TIP3    H239633   3.953   6.360   0.031  0.2469  0.7927  0.5065
 6000TIP3   OH239634   4.943   5.485   1.666 -0.6133  0.8696 -0.9459
 6000TIP3    H139635   4.855   5.470   1.632 -0.7109  4.6069 -2.9180
 6000TIP3    H239636   4.940   5.574   1.700  1.6670 -0.0010  1.9116
 6001TIP3   OH239637   3.990   0.033   1.110 -0.1296 -0.2135 -0.1635
 6001TIP3    H139638   3.922   0.027   1.177 -1.2734  0.9527 -1.1732
 6001TIP3    H239639   3.953  -0.012   1.034  0.4067  0.0365 -0.5811
 6002TIP3   OH239640   1.462   0.061   2.511  0.0933 -0.4885  0.1237
 6002TIP3    H139641   1.417  -0.011   2.467 -2.0945  0.6923  0.2972
 6002TIP3    H239642   1.495   0.023   2.592 -0.5210 -1.4325 -0.0529
 6003TIP3   OH239643   0.429   2.377   8.475  0.1330 -0.2332  0.0971
 6003TIP3    H139644   0.352   2.344   8.430  0.1559 -0.6745  0.3807
 6003TIP3    H239645   0.472   2.433   8.411 -0.3477 -0.0925 -0.1079
 6004TIP3   OH239646   5.602   1.575   1.500 -0.4714  0.4711  0.0588
 6004TIP3    H139647   5.589   1.483   1.522 -0.9399  0.4519 -0.2895
 6004TIP3    H239648   5.555   1.623   1.568  0.5823  0.4853  0.8024
 6005TIP3   OH239649   0.648   4.984   7.621  0.3998 -0.8692  0.0785
 6005TIP3    H139650   0.635   5.064   7.570 -0.5657 -1.1387 -0.1318
 6005TIP3    H239651   0.574   4.928   7.596 -0.0389 -1.0542  1.6789
 6006TIP3   OH239652   0.760   2.749   8.556 -0.6346 -0.2483  0.0619
 6006TIP3    H139653   0.740   2.656   8.561 -1.7019 -0.2676 -2.5912
 6006TIP3    H239654   0.854   2.754   8.541 -0.5042 -0.8598  0.6712
 6007TIP3   OH239655   5.106   2.902   0.102 -0.1737 -0.1603  0.8254
 6007TIP3    H139656   5.153   2.819   0.113  2.5430  1.3158  1.3123
 6007TIP3    H239657   5.162   2.953   0.044 -2.0371  1.2031  0.1423
 6008TIP3   OH239658   3.567   3.990   1.514 -0.9099 -0.3063 -0.1473
 6008TIP3    H139659   3.622   3.945   1.579  0.9377 -0.4511 -1.7174
 6008TIP3    H239660   3.536   3.920   1.457 -0.7434  0.0456 -0.6733
 6009TIP3   OH239661   1.774   5.910   1.824 -0.2157 -0.3325  0.6636
 6009TIP3    H139662   1.799   5.843   1.888 -2.1210 -1.1407  0.6052
 6009TIP3    H239663   1.769   5.864   1.741  2.4785  0.7596 -0.2166
 6010TIP3   OH239664   0.247   5.055   3.739  0.4845 -0.3624 -0.1527
 6010TIP3    H139665   0.254   5.136   3.688 -1.4009 -0.2294 -0.2912
 6010TIP3    H239666   0.325   5.054   3.794  0.6762  1.4072 -0.3341
 6011TIP3   OH239667   4.193   2.377   3.297  0.2668 -0.2034  0.1395
 6011TIP3    H139668   4.222   2.303   3.350 -1.3413  0.6446  2.3665
 6011TIP3    H239669   4.124   2.418   3.350  0.7942  2.6124 -1.2043
 6012TIP3   OH239670   2.585   0.714   0.191 -0.0030 -0.2601 -0.3590
 6012TIP3    H139671   2.555   0.627   0.164 -0.9761  0.0783 -0.3832
 6012TIP3    H239672   2.646   0.740   0.122  1.5718 -1.5672  0.4321
 6013TIP3   OH239673   3.030   1.982   2.081 -0.0642  0.0682 -0.0897
 6013TIP3    H139674   3.119   2.014   2.063 -0.2066  0.3152 -0.3511
 6013TIP3    H239675   3.002   1.944   1.997  0.2317 -1.0518  0.2955
 6014TIP3   OH239676   0.327   3.520   7.790  0.5082  1.0878 -0.0869
 6014TIP3    H139677   0.295   3.545   7.876  0.2667  0.5046 -0.0019
 6014TIP3    H239678   0.249   3.494   7.742  0.9624 -2.5547  0.8387
 6015TIP3   OH239679   5.325   3.968   1.816  0.1419 -0.0667  0.4960
 6015TIP3    H139680   5.321   4.050   1.767  1.0079 -0.6327 -0.5774
 6015TIP3    H239681   5.293   3.902   1.755 -1.0021 -0.4900  1.5047
 6016TIP3   OH239682   1.334   0.414   7.584  0.2282  0.6459  0.6719
 6016TIP3    H139683   1.303   0.346   7.644 -0.6028  1.4439  1.1777
 6016TIP3    H239684   1.257   0.469   7.569  0.7572  1.1870 -0.1273
 6017TIP3   OH239685   4.591   2.385   0.556  0.0985 -0.3444  0.3587
 6017TIP3    H139686   4.513   2.412   0.507 -1.5350  0.8390  3.3393
 6017TIP3    H239687   4.648   2.346   0.490 -1.5131  1.8294 -2.6073
 6018TIP3   OH239688   1.486   2.931   8.457  0.7141  0.4591  0.1496
 6018TIP3    H139689   1.540   2.946   8.534  2.1912 -0.4640 -0.6644
 6018TIP3    H239690   1.517   2.994   8.392 -0.7483  1.4650  0.3550
 6019TIP3   OH239691   5.877   1.011   8.064 -0.3370  0.0187  0.0207
 6019TIP3    H139692   5.850   0.921   8.078 -1.0485  0.4407  1.5286
 6019TIP3    H239693   5.962   1.004   8.020 -0.3289 -1.3820  0.2242
 6020TIP3   OH239694   3.907   4.394   2.849  0.3058 -0.3430 -0.6024
 6020TIP3    H139695   3.985   4.438   2.815  0.0612  0.4688 -0.1392
 6020TIP3    H239696   3.884   4.444   2.928 -0.5651 -0.6988 -0.6262
 6021TIP3   OH239697   6.238   5.487   1.043  0.1661 -0.2031 -0.0755
 6021TIP3    H139698   6.303   5.549   1.011 -0.3537 -0.2334 -1.2429
 6021TIP3    H239699   6.173   5.481   0.972 -0.1636 -1.5256  0.3056
 6022TIP3   OH239700   2.107   0.484   0.318 -0.0998  0.0643 -0.2335
 6022TIP3    H139701   2.068   0.472   0.231  0.5099 -0.1937 -0.4761
 6022TIP3    H239702   2.093   0.401   0.363 -0.8495  0.3595  0.1001
 6023TIP3   OH239703   2.332   1.501   3.221 -0.1600 -0.1726 -0.6143
 6023TIP3    H139704   2.280   1.422   3.237 -0.3209  0.3811  2.2259
 6023TIP3    H239705   2.416   1.483   3.264 -0.5422  1.4961  0.9407
 6024TIP3   OH239706   2.470   4.855   7.825 -0.2298  0.9179 -0.3209
 6024TIP3    H139707   2.440   4.932   7.777  1.4287  1.8304  0.0522
 6024TIP3    H239708   2.451   4.876   7.917 -1.6372 -0.0128 -0.3689
 6025TIP3   OH239709   5.422   2.343   0.528 -0.4580  0.3740 -0.1628
 6025TIP3    H139710   5.366   2.282   0.575  0.0129  0.4163  0.4704
 6025TIP3    H239711   5.487   2.370   0.593  0.8641 -0.4040 -1.1073
 6026TIP3   OH239712   5.788   4.688   1.349  0.1899  0.3963 -0.0690
 6026TIP3    H139713   5.804   4.628   1.276 -1.7308  0.9388 -0.9953
 6026TIP3    H239714   5.737   4.638   1.412 -1.5777  1.0272 -0.9263
 6027TIP3   OH239715   6.105   5.595   2.735  0.4208 -0.3638  0.4208
 6027TIP3    H139716   6.162   5.629   2.666 -0.2640 -0.2904 -0.1175
 6027TIP3    H239717   6.055   5.526   2.692  1.3280 -1.6161  1.3365
 6028TIP3   OH239718   0.960   3.533   1.916  0.4788  0.3135  0.4867
 6028TIP3    H139719   1.041   3.555   1.870  0.3820 -1.6558 -0.7280
 6028TIP3    H239720   0.972   3.443   1.944 -1.5567 -0.2754 -0.3466
 6029TIP3   OH239721   6.419   2.494   0.891 -0.4296  0.0262 -0.0989
 6029TIP3    H139722   6.504   2.529   0.918  0.4502 -0.3652 -2.1626
 6029TIP3    H239723   6.437   2.447   0.810 -2.8740  1.3003 -1.4923
 6030TIP3   OH239724   0.508   2.288   1.253  0.6561  0.2114  0.1635
 6030TIP3    H139725   0.484   2.353   1.319  0.3224 -0.8729  1.1358
 6030TIP3    H239726   0.584   2.326   1.209  0.3952  1.3097  0.6305
 6031TIP3   OH239727   5.454   5.423   7.258 -0.2262 -0.2804 -0.5534
 6031TIP3    H139728   5.431   5.330   7.261  0.0299 -0.3262  0.4270
 6031TIP3    H239729   5.550   5.424   7.264 -0.2694  0.0584  0.2603
 6032TIP3   OH239730   3.447   6.122   2.572  0.4394 -0.2549  0.1339
 6032TIP3    H139731   3.520   6.177   2.600 -0.3885  0.8100  0.2748
 6032TIP3    H239732   3.397   6.177   2.511  1.2359 -1.9083 -2.1631
 6033TIP3   OH239733   1.148   1.599   2.517 -0.0840  0.8712  0.0999
 6033TIP3    H139734   1.059   1.612   2.550 -0.0950  0.1040  0.4130
 6033TIP3    H239735   1.197   1.674   2.549 -0.1661  0.3084  1.6700
 6034TIP3   OH239736   5.551   1.601   0.214 -0.3951  0.0797 -0.0459
 6034TIP3    H139737   5.485   1.614   0.146  1.0295 -0.3334 -1.5719
 6034TIP3    H239738   5.613   1.673   0.201  0.5583 -0.7168 -0.0117
 6035TIP3   OH239739   2.433   1.614   1.034  0.1428  0.1662  0.1682
 6035TIP3    H139740   2.388   1.648   0.956  1.8155 -0.0944 -0.9536
 6035TIP3    H239741   2.525   1.637   1.021  0.3638  0.7738  2.4612
 6036TIP3   OH239742   2.686   6.360   0.765  0.6362 -0.5429 -0.0293
 6036TIP3    H139743   2.667   6.417   0.839 -1.2949 -0.0640 -0.8299
 6036TIP3    H239744   2.715   6.278   0.804  0.4060 -0.0393  1.2346
 6037TIP3   OH239745   2.245   5.888   0.244  0.2981 -0.4070  0.7149
 6037TIP3    H139746   2.329   5.910   0.204  0.7220 -2.8805  0.0912
 6037TIP3    H239747   2.262   5.887   0.338 -0.1476  3.1909  0.9653
 6038TIP3   OH239748   1.782   1.973   0.152  0.2681  0.1226 -0.2672
 6038TIP3    H139749   1.787   1.895   0.097 -1.5636 -0.0735 -0.1967
 6038TIP3    H239750   1.729   2.035   0.102  0.8038  0.9343  0.1486
 6039TIP3   OH239751   5.387   2.348   8.561 -0.6803 -0.4406 -0.7504
 6039TIP3    H139752   5.439   2.368   8.483  1.2645  0.3401  0.6742
 6039TIP3    H239753   5.353   2.433   8.589 -0.4218 -0.5419 -0.1174
 6040TIP3   OH239754   6.013   3.717   7.974 -0.5071 -0.4050 -0.1929
 6040TIP3    H139755   5.947   3.666   8.021 -0.1404  1.5252  2.6511
 6040TIP3    H239756   5.968   3.799   7.952  0.5845  0.5216  0.8881
 6041TIP3   OH239757   1.851   3.661   0.833 -0.3510  0.1499 -0.1675
 6041TIP3    H139758   1.801   3.692   0.757 -0.9345 -0.0130  0.1386
 6041TIP3    H239759   1.784   3.625   0.891  0.4400 -4.2809 -1.6535
 6042TIP3   OH239760   2.480   4.193   0.972 -0.1992 -0.1911  0.1527
 6042TIP3    H139761   2.397   4.214   0.929 -0.6067  1.0011  1.4321
 6042TIP3    H239762   2.473   4.100   0.995 -0.0044 -0.8462 -2.1710
 6043TIP3   OH239763   0.338   6.787   1.788  0.0455  0.1381 -0.2679
 6043TIP3    H139764   0.335   6.882   1.803 -0.9029  0.3295 -1.4712
 6043TIP3    H239765   0.261   6.754   1.834  0.8381 -0.1909  0.8714
 6044TIP3   OH239766   1.517   3.576   7.724 -0.2205  0.2201 -0.4455
 6044TIP3    H139767   1.602   3.577   7.681 -0.4532  2.0521 -0.9502
 6044TIP3    H239768   1.467   3.645   7.679 -1.0142  1.1032  1.6681
 6045TIP3   OH239769   3.719   1.798   3.106  0.2002 -0.9243  0.4579
 6045TIP3    H139770   3.666   1.747   3.167  1.0662  0.0207  2.0786
 6045TIP3    H239771   3.809   1.779   3.130  0.6329  2.8705  2.6798
 6046TIP3   OH239772   4.967   1.179   2.807 -0.5258  0.0457  0.6294
 6046TIP3    H139773   4.894   1.236   2.828  0.6699  2.1632 -0.6113
 6046TIP3    H239774   4.927   1.097   2.779 -2.5343  1.6308 -1.4714
 6047TIP3   OH239775   1.455   3.921   1.441  0.2362  0.0935  0.3579
 6047TIP3    H139776   1.498   3.987   1.495 -0.1205  0.8926 -0.3240
 6047TIP3    H239777   1.380   3.966   1.403  1.9605  0.4103 -3.0244
 6048TIP3   OH239778   5.790   5.481   2.847 -0.4311 -0.1948 -0.6834
 6048TIP3    H139779   5.747   5.461   2.763  0.1174  0.6054 -1.1728
 6048TIP3    H239780   5.870   5.429   2.846 -0.9779 -1.0751 -0.1241
 6049TIP3   OH239781   5.150   2.576   7.128  0.1707 -0.6378 -0.3453
 6049TIP3    H139782   5.176   2.490   7.161 -0.3705 -1.2794 -1.5432
 6049TIP3    H239783   5.055   2.570   7.119  0.1859 -0.0765 -0.9126
 6050TIP3   OH239784   5.759   1.862   1.831  0.2322 -0.4150  0.1761
 6050TIP3    H139785   5.701   1.795   1.866  0.3391 -1.0663 -0.8521
 6050TIP3    H239786   5.846   1.838   1.863  0.0264  0.3108  1.3487
 6051TIP3   OH239787   0.759   3.923   1.938  0.3580  0.0312  0.8045
 6051TIP3    H139788   0.796   3.996   1.987  0.4192 -0.1827  1.0816
 6051TIP3    H239789   0.670   3.914   1.971 -0.2454  1.0866 -0.4638
 6052TIP3   OH239790   0.223   4.115   2.685 -0.7375 -0.1042 -0.5767
 6052TIP3    H139791   0.185   4.085   2.602 -2.9570 -1.6605  0.8698
 6052TIP3    H239792   0.250   4.034   2.729  0.6792  0.7144  0.1119
 6053TIP3   OH239793   5.236   6.272   0.703 -0.3898  0.1005 -0.1195
 6053TIP3    H139794   5.246   6.207   0.633 -1.4884  0.5555 -0.7253
 6053TIP3    H239795   5.145   6.300   0.697 -0.4359  0.3450  1.3470
 6054TIP3   OH239796   3.378   4.495   1.831 -0.8313  0.3815 -0.3779
 6054TIP3    H139797   3.432   4.440   1.889 -0.5074  0.6252 -0.4478
 6054TIP3    H239798   3.310   4.530   1.888 -0.5487  0.5702 -0.1532
 6055TIP3   OH239799   3.759   3.762   2.228  0.3353 -0.1783  0.0556
 6055TIP3    H139800   3.808   3.815   2.290 -1.8244  0.3744  1.3871
 6055TIP3    H239801   3.675   3.747   2.270 -0.2760 -2.0039 -1.6599
 6056TIP3   OH239802   3.867   6.479   7.487  0.4357  0.3728  0.1511
 6056TIP3    H139803   3.777   6.487   7.518  0.9460 -0.6282  2.0866
 6056TIP3    H239804   3.903   6.568   7.491  0.0806  0.4883  1.3110
 6057TIP3   OH239805   6.158   6.310   0.926 -0.4412  0.0348 -0.0991
 6057TIP3    H139806   6.251   6.298   0.905 -0.8213 -0.0980 -1.8750
 6057TIP3    H239807   6.158   6.365   1.004  1.1355 -0.9032  0.6186
 6058TIP3   OH239808   0.720   0.685   3.320 -0.1255  0.1626 -0.2516
 6058TIP3    H139809   0.768   0.605   3.341  1.6841  0.9580 -1.0968
 6058TIP3    H239810   0.723   0.690   3.224  0.7036  1.7341 -0.1740
 6059TIP3   OH239811   4.044   4.819   1.541 -0.1779  0.8039 -0.8713
 6059TIP3    H139812   4.125   4.829   1.491  0.2685 -0.6676 -0.5130
 6059TIP3    H239813   4.035   4.724   1.552 -0.3436  1.0349  1.6191
 6060TIP3   OH239814   3.977   3.979   2.496  0.3511 -0.9634 -0.5018
 6060TIP3    H139815   4.046   4.027   2.542  1.6426 -1.7516 -1.5544
 6060TIP3    H239816   3.991   3.999   2.404 -0.2073 -1.9229 -0.8084
 6061TIP3   OH239817   3.885   2.644   0.451 -0.0262 -0.3022  0.4617
 6061TIP3    H139818   3.920   2.721   0.408 -1.8909 -0.1061 -0.8461
 6061TIP3    H239819   3.961   2.588   0.468  0.9226 -0.0563 -2.4569
 6062TIP3   OH239820   5.160   3.444   3.050 -0.5732  0.2153  0.1019
 6062TIP3    H139821   5.252   3.417   3.048 -0.2396  1.3109 -1.4776
 6062TIP3    H239822   5.159   3.522   3.105  0.1953  2.4358 -2.8033
 6063TIP3   OH239823   1.451   0.315   2.453 -0.0726 -0.4039  0.1266
 6063TIP3    H139824   1.450   0.219   2.453 -0.7098 -0.4125 -0.5025
 6063TIP3    H239825   1.516   0.339   2.519  0.3293 -1.2720  0.0620
 6064TIP3   OH239826   6.112   4.408   0.151 -0.3857 -0.0947  0.1882
 6064TIP3    H139827   6.144   4.482   0.099  0.6327 -0.2379  0.5942
 6064TIP3    H239828   6.149   4.331   0.108 -1.4650 -0.3980 -0.2498
 6065TIP3   OH239829   3.615   5.938   0.539  0.7803  0.2223  0.5727
 6065TIP3    H139830   3.611   5.877   0.613 -0.3988 -0.2435  0.1546
 6065TIP3    H239831   3.698   5.984   0.551  2.4245 -2.3870  0.1863
 6066TIP3   OH239832   5.681   2.683   8.479 -0.0484 -0.0529  0.0515
 6066TIP3    H139833   5.710   2.772   8.503 -0.3575  0.2055 -0.5163
 6066TIP3    H239834   5.589   2.694   8.455 -0.5723 -0.8233  1.5693
 6067TIP3   OH239835   2.789   0.152   1.569 -0.6795  0.2524 -0.5428
 6067TIP3    H139836   2.858   0.203   1.526 -0.9979  1.8058  0.6734
 6067TIP3    H239837   2.785   0.188   1.658 -1.0999 -1.7819  0.3175
 6068TIP3   OH239838   2.360   3.269   8.214  0.0512  1.0983  0.2525
 6068TIP3    H139839   2.415   3.192   8.230  1.4140  2.1115  0.6544
 6068TIP3    H239840   2.290   3.237   8.156 -0.1064 -0.6942  1.3457
 6069TIP3   OH239841   2.580   4.607   8.205  0.2352  0.2404 -0.0288
 6069TIP3    H139842   2.612   4.678   8.150 -0.8639  1.3756  0.7479
 6069TIP3    H239843   2.506   4.571   8.157  0.9596 -0.5942 -0.5516
 6070TIP3   OH239844   2.177   6.179   0.122 -0.5039 -0.1950  0.1645
 6070TIP3    H139845   2.149   6.255   0.172 -2.7770 -1.4976  0.9886
 6070TIP3    H239846   2.180   6.108   0.185 -0.1072 -1.1627 -0.9100
 6071TIP3   OH239847   6.732   6.344   0.391 -0.0891 -0.5878 -0.1902
 6071TIP3    H139848   6.749   6.262   0.345  1.7394 -0.5786  0.3851
 6071TIP3    H239849   6.648   6.330   0.436 -0.8851 -1.3243 -1.8223
 6072TIP3   OH239850   3.363   1.829   0.662 -0.4998 -0.2474  0.1199
 6072TIP3    H139851   3.285   1.885   0.666 -0.7562 -0.5705 -0.3162
 6072TIP3    H239852   3.386   1.826   0.569 -1.4342 -2.1436 -0.1057
 6073TIP3   OH239853   6.876   6.278   3.504 -0.3647  0.0540 -0.1897
 6073TIP3    H139854   6.954   6.288   3.559 -0.7065 -0.7232  0.4612
 6073TIP3    H239855   6.806   6.321   3.554 -0.7531 -0.9736  0.1660
 6074TIP3   OH239856   6.751   6.107   0.274  0.0478  0.2567 -0.3721
 6074TIP3    H139857   6.751   6.033   0.335 -0.4694 -0.0959 -0.7879
 6074TIP3    H239858   6.669   6.098   0.226 -0.7023  1.9306  0.5431
 6075TIP3   OH239859   6.406   6.695   2.555 -0.0474  0.8655  0.0707
 6075TIP3    H139860   6.394   6.685   2.461 -0.9622  1.0453  0.1561
 6075TIP3    H239861   6.379   6.785   2.573 -0.5401  0.6191  0.5955
 6076TIP3   OH239862   6.441   1.306   7.914  0.5956  0.5094  0.2449
 6076TIP3    H139863   6.380   1.250   7.964 -0.2266  2.0909  1.0817
 6076TIP3    H239864   6.391   1.332   7.837 -0.0272  2.1736  1.1517
 6077TIP3   OH239865   2.326   6.090   2.461  0.3247  0.3687 -0.3982
 6077TIP3    H139866   2.389   6.119   2.527 -0.1783 -1.0637  0.7819
 6077TIP3    H239867   2.359   6.004   2.434  0.0495  0.5672 -1.3926
 6078TIP3   OH239868   4.510   2.919   2.604  0.1879  0.3645 -0.2990
 6078TIP3    H139869   4.501   2.906   2.699 -0.9702 -2.1402 -0.6710
 6078TIP3    H239870   4.594   2.964   2.594  0.9378 -0.4338  1.8492
 6079TIP3   OH239871   4.665   5.629   2.326 -0.5235 -0.0732  0.2178
 6079TIP3    H139872   4.624   5.601   2.408 -0.2223 -3.1626 -0.5611
 6079TIP3    H239873   4.756   5.600   2.333 -1.0444 -2.6447 -2.0736
 6080TIP3   OH239874   1.744   0.906   1.713 -0.3196 -0.8524 -0.3630
 6080TIP3    H139875   1.834   0.879   1.699  0.3169  0.7559  0.4100
 6080TIP3    H239876   1.750   0.987   1.763 -2.1960 -0.6863 -0.3157
 6081TIP3   OH239877   0.766   4.601   7.511 -0.1262  0.1722  0.1277
 6081TIP3    H139878   0.739   4.599   7.419  1.4053  0.3052 -0.3421
 6081TIP3    H239879   0.850   4.556   7.513 -0.9673 -1.4800  1.7812
 6082TIP3   OH239880   5.642   4.727   0.484 -0.3795  0.1492  0.2093
 6082TIP3    H139881   5.639   4.815   0.521 -0.8753 -0.3902  1.5327
 6082TIP3    H239882   5.735   4.713   0.463 -0.1666  0.6919  0.7403
 6083TIP3   OH239883   2.470   0.737   1.996 -0.0354  0.1440  0.0914
 6083TIP3    H139884   2.522   0.658   1.984  2.1203  1.5733 -0.4967
 6083TIP3    H239885   2.405   0.733   1.925  1.2859 -0.1787 -1.1588
 6084TIP3   OH239886   0.325   4.210   2.919  0.1393  0.4343 -0.4191
 6084TIP3    H139887   0.286   4.175   2.838 -0.9433 -1.4247  0.8434
 6084TIP3    H239888   0.415   4.177   2.919  0.1143  0.3582 -0.8038
 6085TIP3   OH239889   3.531   3.313   7.595  0.2476  0.2263 -0.4462
 6085TIP3    H139890   3.503   3.228   7.629 -1.7431  1.4384  1.2262
 6085TIP3    H239891   3.465   3.335   7.528  2.1993 -0.6016 -2.7717
 6086TIP3   OH239892   5.631   2.393   1.072  0.4226 -0.5434  0.8686
 6086TIP3    H139893   5.707   2.444   1.044  1.1278 -1.4084  1.1533
 6086TIP3    H239894   5.593   2.362   0.990 -0.0524  0.4851  0.6929
 6087TIP3   OH239895   2.351   2.229   0.453  0.1297  0.3442 -0.0338
 6087TIP3    H139896   2.423   2.200   0.398  0.5115 -0.5671  0.8968
 6087TIP3    H239897   2.309   2.299   0.404 -1.4245 -2.3401 -2.9404
 6088TIP3   OH239898   4.805   0.896   0.403 -0.0962 -0.1856 -0.3810
 6088TIP3    H139899   4.863   0.923   0.474 -0.0977 -0.8307 -0.1293
 6088TIP3    H239900   4.863   0.893   0.326 -0.0083  0.1168 -0.3283
 6089TIP3   OH239901   2.368   1.816   2.750  0.3887 -0.5645 -0.1881
 6089TIP3    H139902   2.309   1.741   2.758  1.0117 -0.8898  2.2486
 6089TIP3    H239903   2.453   1.782   2.779  1.4661  0.2940 -2.1436
 6090TIP3   OH239904   2.163   4.135   2.248 -0.0662  0.2693  0.0240
 6090TIP3    H139905   2.154   4.050   2.290 -0.3090  0.3812  0.1990
 6090TIP3    H239906   2.098   4.134   2.178 -0.6366  0.6205  0.5374
 6091TIP3   OH239907   2.004   6.689   3.158  0.2031  0.3368 -0.4399
 6091TIP3    H139908   2.011   6.783   3.173  1.7741  0.2556 -0.5635
 6091TIP3    H239909   1.994   6.651   3.245  0.4555  0.5563 -0.3158
 6092TIP3   OH239910   6.713   2.172   2.641  0.2384 -0.6974  0.7919
 6092TIP3    H139911   6.792   2.203   2.597 -0.0948  0.2616  0.8673
 6092TIP3    H239912   6.699   2.233   2.713 -1.9767  0.7102 -0.6930
 6093TIP3   OH239913   0.033   3.983   3.845 -0.2348 -0.3871 -0.6332
 6093TIP3    H139914  -0.050   3.936   3.852  0.1998 -0.9121  1.7896
 6093TIP3    H239915   0.100   3.916   3.862  0.7414  0.0478 -2.4072
 6094TIP3   OH239916   3.050   3.123   2.761  0.3149  0.6072  0.1716
 6094TIP3    H139917   3.089   3.180   2.695 -2.0368  1.0392 -0.9341
 6094TIP3    H239918   2.974   3.171   2.793 -1.5360 -1.6769 -0.5079
 6095TIP3   OH239919   2.422   1.412   2.642  0.5834 -0.2333 -0.0746
 6095TIP3    H139920   2.432   1.373   2.556  1.5714 -1.9418  0.7652
 6095TIP3    H239921   2.337   1.382   2.673  0.7512 -0.6212  0.0170
 6096TIP3   OH239922   0.134   1.393   8.569  0.2092 -0.3693  0.0151
 6096TIP3    H139923   0.073   1.322   8.586  1.2537 -1.0540  1.0359
 6096TIP3    H239924   0.109   1.426   8.483 -1.5973 -0.6087  0.3994
 6097TIP3   OH239925   4.406   3.782   8.373 -0.2001 -0.2650 -0.1295
 6097TIP3    H139926   4.468   3.769   8.301 -1.3541 -0.1636 -1.1840
 6097TIP3    H239927   4.361   3.698   8.381  0.8579 -0.7373  1.4542
 6098TIP3   OH239928   5.241   5.787   8.371  0.3873 -0.3743  0.6475
 6098TIP3    H139929   5.217   5.705   8.413  0.8603 -0.8107  0.0761
 6098TIP3    H239930   5.198   5.785   8.286 -0.4529  0.4468  1.0298
 6099TIP3   OH239931   0.639   0.884   0.571 -0.3316  0.1475  0.0169
 6099TIP3    H139932   0.563   0.942   0.574 -0.3874  0.1139 -0.5802
 6099TIP3    H239933   0.663   0.881   0.479 -0.4462 -0.9258  0.0116
 6100TIP3   OH239934   1.102   5.045   1.453 -0.1010  0.1420 -0.0380
 6100TIP3    H139935   1.178   5.083   1.409  0.2178  1.5518  1.6564
 6100TIP3    H239936   1.027   5.075   1.402  0.2769  1.4800  0.1631
 6101TIP3   OH239937   1.369   1.784   8.634  0.2562 -0.2708  0.3664
 6101TIP3    H139938   1.296   1.776   8.572 -1.1156 -2.4301  2.1394
 6101TIP3    H239939   1.333   1.835   8.707 -0.4077 -3.3476  2.3590
 6102TIP3   OH239940   3.615   2.806   1.061  0.1607 -0.0363 -0.1364
 6102TIP3    H139941   3.633   2.810   0.967 -0.0545  0.8173 -0.1537
 6102TIP3    H239942   3.632   2.895   1.092 -0.5465 -0.1090  0.4898
 6103TIP3   OH239943   0.826   6.069   1.215  0.1493 -0.0895  0.0670
 6103TIP3    H139944   0.864   6.015   1.145  0.5807  1.4502 -0.9246
 6103TIP3    H239945   0.890   6.139   1.227 -0.9580  0.8539  0.5166
 6104TIP3   OH239946   1.338   1.445   7.607  0.0079  0.1150  0.4148
 6104TIP3    H139947   1.382   1.362   7.590 -0.1212  0.1465 -0.0832
 6104TIP3    H239948   1.245   1.422   7.611  0.0884 -0.0415  2.0012
 6105TIP3   OH239949   4.044   2.478   1.168  0.0528 -0.2298  0.0634
 6105TIP3    H139950   4.009   2.472   1.079  0.6135 -1.1589 -0.1147
 6105TIP3    H239951   4.115   2.541   1.162 -0.1392 -0.0217 -0.0612
 6106TIP3   OH239952   1.284   3.101   2.518  0.4212 -0.1557 -0.1886
 6106TIP3    H139953   1.236   3.052   2.452 -0.5886  2.5094 -1.5953
 6106TIP3    H239954   1.223   3.112   2.590 -0.1312  0.8163 -0.7854
 6107TIP3   OH239955   6.184   3.944   8.092  0.4499 -0.4463 -0.4890
 6107TIP3    H139956   6.278   3.944   8.110  0.1697 -1.5152  1.2798
 6107TIP3    H239957   6.177   3.965   7.999  2.3164  1.4598 -0.2793
 6108TIP3   OH239958   5.492   1.646   7.443  0.1770 -0.4925  0.2540
 6108TIP3    H139959   5.435   1.570   7.446 -1.7398  0.8878  1.0595
 6108TIP3    H239960   5.562   1.621   7.382 -1.5076 -2.1200 -1.1596
 6109TIP3   OH239961   1.517   2.432   2.563  0.2249  0.2037  0.5954
 6109TIP3    H139962   1.485   2.377   2.634 -0.9009  0.2525  0.1370
 6109TIP3    H239963   1.605   2.399   2.545 -0.0230 -0.7352  1.0477
 6110TIP3   OH239964   0.454   3.624   2.818 -0.0829 -0.4951 -0.4711
 6110TIP3    H139965   0.525   3.639   2.881 -1.3436  0.2360  0.8481
 6110TIP3    H239966   0.479   3.674   2.741  1.2058 -0.9015 -0.3451
 6111TIP3   OH239967   1.795   6.753   2.013 -0.0981 -0.1973 -0.5035
 6111TIP3    H139968   1.860   6.686   1.992  1.6319  1.7054 -1.5902
 6111TIP3    H239969   1.713   6.718   1.978  0.2529 -2.6796  0.9263
 6112TIP3   OH239970   2.665   5.836   1.688 -0.4543  0.3373  0.1764
 6112TIP3    H139971   2.753   5.839   1.651  0.4380 -0.7767  2.0341
 6112TIP3    H239972   2.607   5.849   1.613  1.2731  2.1706 -0.9621
 6113TIP3   OH239973   0.695   6.805   1.046 -0.1068  0.1559  0.7121
 6113TIP3    H139974   0.620   6.838   1.096 -1.6104 -0.0468 -1.2743
 6113TIP3    H239975   0.661   6.729   0.999  1.6390 -0.5217  0.4826
 6114TIP3   OH239976   0.370   4.295   0.819 -0.0453  0.2586 -0.3596
 6114TIP3    H139977   0.296   4.271   0.874  0.1444 -0.0395 -0.2309
 6114TIP3    H239978   0.333   4.352   0.752  0.0799  2.6822  1.4754
 6115TIP3   OH239979   1.507   3.743   2.529  0.1418 -0.0068  0.0310
 6115TIP3    H139980   1.561   3.684   2.477 -1.1929 -0.2756 -1.1107
 6115TIP3    H239981   1.497   3.821   2.475 -0.7698 -0.0501  0.1233
 6116TIP3   OH239982   0.193   3.916   1.056  0.0229 -0.3007  0.2779
 6116TIP3    H139983   0.234   3.903   0.971  0.0296  0.7889  0.1067
 6116TIP3    H239984   0.266   3.924   1.117  0.2294  2.9894 -0.2081
 6117TIP3   OH239985   6.404   5.830   2.705  0.6439  0.0630  0.2202
 6117TIP3    H139986   6.430   5.906   2.653 -1.4782  0.4080 -0.4364
 6117TIP3    H239987   6.345   5.781   2.648  0.1852 -0.8646  1.4487
 6118TIP3   OH239988   6.404   0.193   0.528 -0.3244 -0.4249  0.3980
 6118TIP3    H139989   6.455   0.268   0.497 -2.7065  0.2100 -2.4584
 6118TIP3    H239990   6.361   0.224   0.607  2.2319 -0.4309  1.9049
 6119TIP3   OH239991   5.744   2.015   3.296 -0.1535  1.0690  0.4717
 6119TIP3    H139992   5.825   2.060   3.273 -0.1475  1.9333  2.0530
 6119TIP3    H239993   5.769   1.954   3.366 -0.5380 -0.0205 -0.3090
 6120TIP3   OH239994   5.858   3.297   3.031  0.5835  0.7881 -0.5477
 6120TIP3    H139995   5.852   3.209   3.068  1.0079  0.3705 -1.4451
 6120TIP3    H239996   5.768   3.320   3.008  0.3197  1.0373  0.6770
 6121TIP3   OH239997   5.056   6.156   2.886  0.0678  0.1756 -0.3708
 6121TIP3    H139998   5.014   6.241   2.874 -0.3047  0.0380 -0.0572
 6121TIP3    H239999   5.048   6.112   2.801 -1.0242 -0.1139 -0.1401
 6122TIP3   OH240000   3.184   4.957   2.112  0.1154  0.3782  0.2189
 6122TIP3    H140001   3.227   4.947   2.197 -0.9601 -3.6625  0.4627
 6122TIP3    H240002   3.257   4.963   2.049  0.9380  0.1295  1.1221
 6123TIP3   OH240003   2.706   4.518   2.109  0.1514 -0.6803  0.3314
 6123TIP3    H140004   2.639   4.555   2.051 -0.8313 -0.2142  1.7227
 6123TIP3    H240005   2.786   4.565   2.085 -0.5937  0.7411  0.5052
 6124TIP3   OH240006   3.731   5.953   1.201 -0.0085 -0.4325  0.0039
 6124TIP3    H140007   3.734   5.863   1.234  0.5736 -0.5109 -0.2421
 6124TIP3    H240008   3.810   5.961   1.147 -0.0464  0.2336  0.0400
 6125TIP3   OH240009   1.976   6.283   7.742 -1.0754 -0.5353  0.3161
 6125TIP3    H140010   1.927   6.362   7.767 -0.3153  0.0060  0.1524
 6125TIP3    H240011   1.927   6.246   7.669 -1.3321 -0.0960  0.2635
 6126TIP3   OH240012   4.219   4.795   0.043 -0.0584 -0.1258  0.2247
 6126TIP3    H140013   4.125   4.807   0.057 -0.0845 -0.3634  0.2630
 6126TIP3    H240014   4.232   4.812  -0.050  0.0349  0.9675  0.4200
 6127TIP3   OH240015   0.719   2.788   0.800  0.6448 -0.1045  0.6934
 6127TIP3    H140016   0.780   2.730   0.753 -0.2085  1.1911 -2.3131
 6127TIP3    H240017   0.772   2.865   0.821  0.4640  0.4084 -0.6096
 6128TIP3   OH240018   4.347   3.062   0.261 -0.3359 -0.3827 -0.0023
 6128TIP3    H140019   4.362   3.024   0.347 -1.3204 -0.0721  0.3167
 6128TIP3    H240020   4.310   2.991   0.209 -0.1893 -0.4358 -0.0362
 6129TIP3   OH240021   3.643   5.439   2.764 -0.0780 -0.4826  0.1539
 6129TIP3    H140022   3.710   5.506   2.756 -0.8941  0.2190 -1.0924
 6129TIP3    H240023   3.590   5.466   2.839 -1.4780  1.3138 -1.3850
 6130TIP3   OH240024   1.846   4.875   8.348  0.7536 -0.1161  0.2487
 6130TIP3    H140025   1.939   4.897   8.352  0.5514  0.6989  0.6437
 6130TIP3    H240026   1.807   4.945   8.297  0.6684 -1.5908 -1.8390
 6131TIP3   OH240027   0.969   2.255   8.247 -0.2258 -0.1491 -0.1711
 6131TIP3    H140028   1.049   2.277   8.294  0.2371 -0.7883 -0.6392
 6131TIP3    H240029   0.983   2.289   8.159 -0.4153 -0.3761 -0.2901
 6132TIP3   OH240030   2.188   3.999   1.034  0.8007  0.6136 -0.2480
 6132TIP3    H140031   2.132   3.921   1.032 -0.3381  1.4101 -0.7905
 6132TIP3    H240032   2.162   4.049   0.956  2.1896  1.0808 -0.4292
 6133TIP3   OH240033   3.788   6.483   1.963 -0.1475  0.0678 -0.1214
 6133TIP3    H140034   3.700   6.444   1.973 -0.1979  0.5536  1.8763
 6133TIP3    H240035   3.780   6.570   2.002  0.5449  1.2569 -2.5031
 6134TIP3   OH240036   4.495   2.597   8.207 -0.3988  0.1410  0.2669
 6134TIP3    H140037   4.401   2.579   8.204 -0.4116 -0.1759  1.8285
 6134TIP3    H240038   4.535   2.521   8.166 -0.7990 -0.0559  0.2381
 6135TIP3   OH240039   1.575   5.966   0.625  0.0224 -0.1375  0.2139
 6135TIP3    H140040   1.574   6.003   0.713 -1.9897  0.9325 -0.1960
 6135TIP3    H240041   1.665   5.977   0.595  0.6472 -0.1978  1.9872
 6136TIP3   OH240042   2.575   5.517   2.081 -0.1602  0.1483 -0.1363
 6136TIP3    H140043   2.544   5.563   2.159  1.8201 -0.9073  1.3756
 6136TIP3    H240044   2.623   5.442   2.115 -2.0590 -2.3410 -2.4591
 6137TIP3   OH240045   3.817   0.813   2.255 -0.2235  0.2973 -0.1546
 6137TIP3    H140046   3.777   0.727   2.268 -0.0950  0.4199  1.1492
 6137TIP3    H240047   3.817   0.825   2.160 -0.6502 -0.9463 -0.3315
 6138TIP3   OH240048   4.387   6.199   0.747  0.6046  0.2948  0.1913
 6138TIP3    H140049   4.412   6.109   0.770  1.1823  0.1633 -0.8906
 6138TIP3    H240050   4.332   6.190   0.670 -0.7949  0.7686  1.0976
 6139TIP3   OH240051   6.570   3.704   8.228 -0.3209 -0.1218 -0.3626
 6139TIP3    H140052   6.598   3.616   8.252  1.4705  0.1964 -1.1546
 6139TIP3    H240053   6.607   3.761   8.295  1.4882  0.3492 -1.6583
 6140TIP3   OH240054   3.203   5.263   1.385  0.0461  0.1803 -0.6404
 6140TIP3    H140055   3.156   5.336   1.424 -0.2623  1.2499 -2.8841
 6140TIP3    H240056   3.143   5.189   1.392 -1.2413  1.0786 -1.7652
 6141TIP3   OH240057   2.499   4.789   1.264 -0.6324  0.3145  0.2490
 6141TIP3    H140058   2.431   4.758   1.204 -2.5512  0.1226  2.3880
 6141TIP3    H240059   2.478   4.881   1.279  0.5235  0.6705 -0.2356
 6142TIP3   OH240060   1.167   3.370   2.457 -0.1747 -0.2760 -0.3377
 6142TIP3    H140061   1.255   3.360   2.420 -0.1684 -1.1839 -0.0891
 6142TIP3    H240062   1.109   3.375   2.381 -0.3592 -3.8075 -0.5610
 6143TIP3   OH240063   5.960   4.622   2.674 -0.2369  0.2300 -0.3803
 6143TIP3    H140064   5.966   4.676   2.595 -1.1549  1.8042  0.5874
 6143TIP3    H240065   5.877   4.647   2.714  0.6116  0.1102  1.5563
 6144TIP3   OH240066   3.914   4.301   7.873 -0.6302 -0.1334 -0.6481
 6144TIP3    H140067   3.836   4.246   7.881 -0.3393 -0.7117 -1.6080
 6144TIP3    H240068   3.985   4.239   7.855  0.8729 -0.1091  3.9131
 6145TIP3   OH240069   4.286   0.705   2.533  0.1852 -0.0161  0.1646
 6145TIP3    H140070   4.229   0.680   2.606  0.9207  0.3084  0.8747
 6145TIP3    H240071   4.232   0.695   2.455 -0.8813  0.4015  0.8263
 6146TIP3   OH240072   0.656   0.680   0.122 -0.0749  0.4429 -0.2397
 6146TIP3    H140073   0.633   0.718   0.038  0.4511  0.6322 -0.3055
 6146TIP3    H240074   0.583   0.701   0.180 -0.8162 -0.4013 -0.8526
 6147TIP3   OH240075   1.097   3.058   2.724 -0.5399  0.0138 -0.2357
 6147TIP3    H140076   1.123   2.993   2.790 -2.2883  1.7612  2.3388
 6147TIP3    H240077   1.002   3.060   2.728 -0.6180  1.2640 -1.8013
 6148TIP3   OH240078   1.525   3.505   8.307  0.6557 -0.3918 -0.4979
 6148TIP3    H140079   1.619   3.500   8.289  0.9720  0.1413  0.8684
 6148TIP3    H240080   1.506   3.599   8.305 -0.2351 -0.5627 -2.4612
 6149TIP3   OH240081   3.994   3.655   7.646  0.1483 -0.7876  0.3498
 6149TIP3    H140082   3.954   3.742   7.641  0.6015 -0.5618  0.5652
 6149TIP3    H240083   3.933   3.604   7.699 -1.2642 -1.2671 -1.6249
 6150TIP3   OH240084   0.020   4.987   3.607 -0.1188  1.0546 -0.5110
 6150TIP3    H140085   0.058   5.022   3.526  1.3521 -0.8216 -0.7083
 6150TIP3    H240086   0.088   4.998   3.673 -0.9641  1.7333  0.2641
 6151TIP3   OH240087   0.066   5.626   8.084 -0.1377 -0.6728  0.2085
 6151TIP3    H140088   0.087   5.548   8.136  1.7584 -0.4974 -0.2286
 6151TIP3    H240089   0.044   5.693   8.149  2.6581 -0.3218  0.9155
 6152TIP3   OH240090   6.659   3.904   8.383  0.4495  0.3794  0.7504
 6152TIP3    H140091   6.587   3.957   8.416 -1.2020 -1.1699 -0.1946
 6152TIP3    H240092   6.685   3.849   8.458 -0.8443 -0.5803  0.5208
 6153TIP3   OH240093   1.153   1.614   2.053  0.4817 -0.4191 -0.5126
 6153TIP3    H140094   1.213   1.543   2.075  0.3868 -0.7709 -1.3553
 6153TIP3    H240095   1.152   1.669   2.132 -0.1471 -1.8215  0.5077
 6154TIP3   OH240096   3.089   0.120   3.252  0.1518  0.1255  0.0014
 6154TIP3    H140097   3.014   0.107   3.194  0.0661 -0.3040  0.1997
 6154TIP3    H240098   3.111   0.213   3.244  0.1099  0.0812 -0.6771
 6155TIP3   OH240099   0.921   0.140   8.663 -0.6937 -0.5668 -0.1444
 6155TIP3    H140100   1.015   0.153   8.673 -0.8009  0.0645  0.0597
 6155TIP3    H240101   0.898   0.080   8.735 -1.1019  2.3372  2.3504
 6156TIP3   OH240102   4.269   1.439   1.896  0.4741  0.3404  0.4269
 6156TIP3    H140103   4.190   1.394   1.927 -0.0580  2.2078  2.0059
 6156TIP3    H240104   4.272   1.421   1.802 -1.1138 -0.8449  0.5657
 6157TIP3   OH240105   2.849   0.890   0.546  0.0392  0.3623 -0.1673
 6157TIP3    H140106   2.809   0.961   0.595 -0.7051  1.6297 -2.4357
 6157TIP3    H240107   2.776   0.834   0.520  0.5924 -1.1754  1.3966
 6158TIP3   OH240108   0.150   1.417   0.223 -0.4846  0.3447  0.6044
 6158TIP3    H140109   0.139   1.466   0.141 -3.2531  0.1577  0.7652
 6158TIP3    H240110   0.152   1.485   0.291 -0.2504  0.4080  0.5347
 6159TIP3   OH240111   1.920   5.968   1.107 -0.4329  0.1265  0.0315
 6159TIP3    H140112   1.863   6.028   1.058  0.3234 -0.2341 -1.3146
 6159TIP3    H240113   1.875   5.884   1.102 -0.2864  0.0604 -0.1453
 6160TIP3   OH240114   5.599   6.708   7.925 -0.7016 -0.1741 -0.3132
 6160TIP3    H140115   5.584   6.685   7.833 -0.1198  0.8758 -0.6820
 6160TIP3    H240116   5.561   6.795   7.935 -1.0386 -0.4110  0.5292
 6161TIP3   OH240117   5.536   1.371   7.790  0.3575 -0.7627  0.6944
 6161TIP3    H140118   5.485   1.350   7.712  1.8303  0.3258 -0.6229
 6161TIP3    H240119   5.539   1.467   7.792  0.6277 -0.7715  1.9317
 6162TIP3   OH240120   6.213   1.697   2.684  0.0138  0.1632  0.1178
 6162TIP3    H140121   6.255   1.726   2.765  0.6258  0.7858 -0.4050
 6162TIP3    H240122   6.251   1.753   2.616 -1.8275  0.8960 -0.3583
 6163TIP3   OH240123   4.302   6.083   2.283  0.3228  0.0304 -0.4069
 6163TIP3    H140124   4.207   6.095   2.286  0.2079 -0.8336  1.5038
 6163TIP3    H240125   4.315   6.006   2.227 -0.2439 -0.6710  0.3995
 6164TIP3   OH240126   6.640   2.624   0.983 -0.2044  0.0970 -0.1488
 6164TIP3    H140127   6.635   2.699   1.042  0.7891  0.7581 -0.8746
 6164TIP3    H240128   6.732   2.597   0.987 -0.5162 -1.0084 -0.0042
 6165TIP3   OH240129   2.237   1.531   0.177  0.4953 -0.3006 -0.5592
 6165TIP3    H140130   2.236   1.590   0.252  1.7119 -0.9164 -0.0439
 6165TIP3    H240131   2.234   1.443   0.215 -0.8627 -0.6055 -1.3053
 6166TIP3   OH240132   5.101   6.813   1.787  0.1347  0.3982 -0.1746
 6166TIP3    H140133   5.092   6.844   1.877 -0.0715  0.5619 -0.2480
 6166TIP3    H240134   5.179   6.859   1.754  0.1421  0.4283 -0.1162
 6167TIP3   OH240135   2.489   5.839   1.490 -0.1395  0.2033  0.3820
 6167TIP3    H140136   2.556   5.821   1.424  0.4502 -0.6792  1.1989
 6167TIP3    H240137   2.407   5.810   1.450  0.2470 -0.5675  0.1309
 6168TIP3   OH240138   5.601   2.101   2.585 -0.5752  0.1451 -0.0962
 6168TIP3    H140139   5.551   2.164   2.533 -1.5287 -0.4059  0.1286
 6168TIP3    H240140   5.571   2.115   2.675  0.2688  0.3467  0.1659
 6169TIP3   OH240141   1.120   3.290   1.647  1.2500 -0.2302 -0.1708
 6169TIP3    H140142   1.100   3.233   1.721  0.3171 -2.1053 -1.7908
 6169TIP3    H240143   1.153   3.370   1.687  0.7269 -1.1528  2.2619
 6170TIP3   OH240144   2.701   0.347   1.184  0.0163 -0.3042 -0.2457
 6170TIP3    H140145   2.654   0.428   1.164 -0.3445 -0.4394  0.0337
 6170TIP3    H240146   2.793   0.368   1.168  0.1718  0.7891  1.6975
 6171TIP3   OH240147   4.909   3.570   2.746 -0.6620  0.3580 -0.0713
 6171TIP3    H140148   4.933   3.652   2.702  2.1172  0.1765  0.9268
 6171TIP3    H240149   4.858   3.598   2.822 -1.2838  1.0055 -0.7046
 6172TIP3   OH240150   2.061   2.208   0.327 -0.1247 -0.1633 -0.0154
 6172TIP3    H140151   2.018   2.250   0.252 -0.1486 -0.4044 -0.1385
 6172TIP3    H240152   2.085   2.121   0.294  0.4318 -0.0387  0.0628
 6173TIP3   OH240153   6.625   0.751   3.318 -0.3009 -0.4807  0.9385
 6173TIP3    H140154   6.545   0.713   3.352 -0.5289 -0.7883  0.0790
 6173TIP3    H240155   6.687   0.679   3.314 -0.2616 -0.4363  0.7383
 6174TIP3   OH240156   0.742   2.475   8.537 -0.4783 -0.3444  0.0481
 6174TIP3    H140157   0.730   2.469   8.442 -0.2976 -0.1938  0.0151
 6174TIP3    H240158   0.721   2.387   8.569 -0.9805 -0.2711 -0.0783
 6175TIP3   OH240159   3.635   5.464   1.916  0.7084 -0.8801 -0.0294
 6175TIP3    H140160   3.702   5.527   1.946  0.9228 -0.2259 -1.7982
 6175TIP3    H240161   3.563   5.476   1.978  1.8915 -1.0212  1.4370
 6176TIP3   OH240162   5.010   4.447   3.328  0.0950  0.3428  0.4596
 6176TIP3    H140163   4.993   4.404   3.244 -0.7603 -0.7014  1.1510
 6176TIP3    H240164   4.927   4.486   3.353  0.4543  1.0225  0.6271
 6177TIP3   OH240165   4.449   4.033   0.886 -0.4579 -0.0274  0.3588
 6177TIP3    H140166   4.396   3.955   0.906  0.8554 -0.7929  0.9375
 6177TIP3    H240167   4.506   4.043   0.962  0.6659  0.4053 -0.5280
 6178TIP3   OH240168   4.810   4.942   8.334 -0.6156 -0.3758 -0.5914
 6178TIP3    H140169   4.758   4.886   8.390 -0.5966  0.5352  0.3536
 6178TIP3    H240170   4.893   4.895   8.323 -0.4550 -0.3699  0.5102
 6179TIP3   OH240171   2.500   6.527   7.730  0.0099  0.2728  0.1681
 6179TIP3    H140172   2.475   6.619   7.733  1.4124  0.7039 -0.3965
 6179TIP3    H240173   2.536   6.508   7.817  1.0056  0.6736 -0.1385
 6180TIP3   OH240174   5.847   1.596   7.333  0.0243 -0.3000  0.0871
 6180TIP3    H140175   5.850   1.692   7.329  0.6467 -0.3352 -0.5751
 6180TIP3    H240176   5.817   1.570   7.246 -4.6742 -0.6018  1.5111
 6181TIP3   OH240177   1.812   4.112   2.335 -0.2456 -0.4108 -0.0940
 6181TIP3    H140178   1.886   4.141   2.389 -0.4397  1.2253 -0.6524
 6181TIP3    H240179   1.850   4.049   2.274  0.6067  0.0465 -0.0512
 6182TIP3   OH240180   1.124   4.377   0.250  0.2698  0.0272  0.3642
 6182TIP3    H140181   1.201   4.335   0.288  2.1107  1.8760 -1.1085
 6182TIP3    H240182   1.077   4.414   0.325  0.5672 -1.4362  1.3183
 6183TIP3   OH240183   6.040   4.226   0.825 -0.1595  0.4019 -0.6791
 6183TIP3    H140184   6.035   4.314   0.863  0.6897 -0.4213  1.4808
 6183TIP3    H240185   5.948   4.201   0.812 -0.4336  1.2221 -0.3946
 6184TIP3   OH240186   6.820   5.692   8.597 -1.0111  0.2095  0.2930
 6184TIP3    H140187   6.874   5.671   8.520  0.4731  0.5808  1.1833
 6184TIP3    H240188   6.797   5.783   8.585 -2.2673 -0.1940 -0.5478
 6185TIP3   OH240189   4.427   0.226   1.014  0.3029  0.2152 -0.1560
 6185TIP3    H140190   4.468   0.235   0.928  0.5228 -1.0590 -0.2130
 6185TIP3    H240191   4.400   0.134   1.017  1.0639  0.0122  1.4590
 6186TIP3   OH240192   1.506   5.512   2.257  0.2443  0.0043 -0.3666
 6186TIP3    H140193   1.563   5.554   2.321  1.7816 -2.6726  0.1910
 6186TIP3    H240194   1.475   5.433   2.301 -1.1452 -0.3330 -1.8794
 6187TIP3   OH240195   2.767   5.003   0.306  0.0150 -0.3302  0.0655
 6187TIP3    H140196   2.791   5.034   0.393  1.8665 -1.1955 -0.0797
 6187TIP3    H240197   2.687   4.952   0.319  0.0883 -0.1749  1.1965
 6188TIP3   OH240198   3.120   5.221   8.608  0.0779 -0.3389  0.1145
 6188TIP3    H140199   3.127   5.212   8.513 -1.7627 -1.4622  0.0333
 6188TIP3    H240200   3.030   5.253   8.623  0.2116 -0.5392  1.4817
 6189TIP3   OH240201   1.743   2.615   1.963  0.4999 -0.0897 -0.3047
 6189TIP3    H140202   1.749   2.710   1.959  1.9420 -0.0131  2.0003
 6189TIP3    H240203   1.828   2.587   1.998 -0.7462 -2.0265  1.3615
 6190TIP3   OH240204   2.873   0.787   2.650  0.3176  0.5912 -0.2314
 6190TIP3    H140205   2.823   0.843   2.591 -1.0892 -0.4931 -0.1290
 6190TIP3    H240206   2.884   0.705   2.602 -0.0935 -0.0067  0.6613
 6191TIP3   OH240207   5.417   5.989   2.514 -0.0408  0.6553 -0.2887
 6191TIP3    H140208   5.472   6.063   2.541 -0.3182  1.6350 -2.2246
 6191TIP3    H240209   5.362   6.025   2.444 -2.6169 -0.4845  1.0154
 6192TIP3   OH240210   6.186   1.969   2.031 -0.0756 -0.5694 -0.1303
 6192TIP3    H140211   6.225   1.984   1.945 -0.4309  3.1019  0.1916
 6192TIP3    H240212   6.260   1.946   2.088  0.8382  1.0489 -0.6194
 6193TIP3   OH240213   2.533   0.130   0.683  0.2247 -0.2248 -0.3530
 6193TIP3    H140214   2.508   0.221   0.700 -0.9728 -0.5335 -0.3622
 6193TIP3    H240215   2.554   0.095   0.770 -2.8243 -0.9134  0.2391
 6194TIP3   OH240216   5.681   1.209   2.744 -0.1084  0.4490 -0.2770
 6194TIP3    H140217   5.639   1.229   2.827 -1.3317  3.2402 -1.4262
 6194TIP3    H240218   5.623   1.146   2.702  0.0547 -0.2938  0.5725
 6195TIP3   OH240219   0.349   6.634   3.426 -0.9741  0.1090  0.3547
 6195TIP3    H140220   0.397   6.637   3.343 -2.2258 -1.0425 -0.4615
 6195TIP3    H240221   0.377   6.551   3.466 -0.7262  0.4378  0.8687
 6196TIP3   OH240222   5.536   1.318   1.597 -0.4076 -0.0698  0.5520
 6196TIP3    H140223   5.548   1.342   1.689 -0.1503 -0.8105  0.7244
 6196TIP3    H240224   5.543   1.222   1.597  3.1290  0.0452 -0.7083
 6197TIP3   OH240225   0.673   1.299   8.600  0.1252 -0.0340  0.1358
 6197TIP3    H140226   0.621   1.363   8.552 -0.1728  0.0447  0.5616
 6197TIP3    H240227   0.761   1.307   8.563 -0.5653 -1.6605 -2.1308
 6198TIP3   OH240228   4.831   1.094   2.448  0.5055 -0.3642  0.5536
 6198TIP3    H140229   4.891   1.053   2.386  1.5952  0.0697  1.2862
 6198TIP3    H240230   4.845   1.047   2.530 -0.6004 -0.6467  0.6013
 6199TIP3   OH240231   3.907   3.598   1.665  0.8861 -0.6088  0.2977
 6199TIP3    H140232   3.999   3.625   1.658  0.8693 -0.6852 -0.2566
 6199TIP3    H240233   3.907   3.531   1.733  0.5705  2.3402  3.4708
 6200TIP3   OH240234   4.380   0.194   1.628  0.2325 -1.1574 -0.0613
 6200TIP3    H140235   4.331   0.120   1.592  0.4374 -1.9235  1.1816
 6200TIP3    H240236   4.355   0.269   1.573 -3.4605 -1.1783  1.2985
 6201TIP3   OH240237   0.194   5.135   0.075 -0.1808  0.1037  0.2041
 6201TIP3    H140238   0.140   5.189   0.133  1.0916  0.2573  1.2760
 6201TIP3    H240239   0.237   5.073   0.133 -0.3054 -0.9678 -0.8183
 6202TIP3   OH240240   1.662   1.774   2.411 -0.3399 -0.1637  0.5578
 6202TIP3    H140241   1.636   1.690   2.373 -1.4549 -0.7186  2.3670
 6202TIP3    H240242   1.755   1.762   2.433 -0.2607 -0.6044  0.0113
 6203TIP3   OH240243   2.131   3.231   2.527 -0.2390  0.6397 -0.5297
 6203TIP3    H140244   2.093   3.200   2.608 -1.5005  0.5279 -1.1502
 6203TIP3    H240245   2.131   3.155   2.469  1.4879  0.4719 -0.3758
 6204TIP3   OH240246   2.719   6.148   8.003  0.1020 -0.1912 -0.5845
 6204TIP3    H140247   2.780   6.188   7.941 -0.6510  1.1935 -0.4715
 6204TIP3    H240248   2.660   6.095   7.949  0.9003 -0.9190 -0.7703
 6205TIP3   OH240249   5.687   1.308   0.432  0.0033  0.1183 -0.6616
 6205TIP3    H140250   5.712   1.324   0.523  0.8068  0.4879 -0.9377
 6205TIP3    H240251   5.702   1.215   0.418  0.3401  0.1554 -0.5527
 6206TIP3   OH240252   0.639   3.622   3.010  0.3604  0.9683  0.2578
 6206TIP3    H140253   0.711   3.602   3.069 -0.1425  1.3380  1.0066
 6206TIP3    H240254   0.588   3.689   3.055 -1.8050 -0.9326  0.8915
 6207TIP3   OH240255   0.670   0.367   8.249  0.1209 -0.2037  0.6467
 6207TIP3    H140256   0.595   0.361   8.190 -0.4167 -0.2969  1.3380
 6207TIP3    H240257   0.693   0.460   8.250  0.0971 -0.1922  0.3456
 6208TIP3   OH240258   3.862   1.737   8.229  0.2001  0.0800 -0.1198
 6208TIP3    H140259   3.943   1.706   8.189  1.6446  0.7290  2.1306
 6208TIP3    H240260   3.827   1.660   8.276 -0.0099  0.0467 -0.3262
 6209TIP3   OH240261   0.400   0.565   0.439  0.9429 -0.2651 -0.0331
 6209TIP3    H140262   0.385   0.649   0.394 -1.8016 -1.3659 -1.4279
 6209TIP3    H240263   0.443   0.510   0.374 -0.4728 -0.9770 -0.4222
 6210TIP3   OH240264   4.513   6.676   2.534  0.1053  0.6366  0.7642
 6210TIP3    H140265   4.424   6.658   2.564 -0.2790 -1.8834 -1.5098
 6210TIP3    H240266   4.562   6.596   2.556  0.6483  0.1580 -1.8865
 6211TIP3   OH240267   0.224   4.442   3.403 -0.3519 -0.3183  0.0499
 6211TIP3    H140268   0.132   4.468   3.394  0.1454  0.9708 -1.5682
 6211TIP3    H240269   0.244   4.396   3.322  1.0984  1.5980 -0.7401
 6212TIP3   OH240270   6.042   5.478   8.078  0.3675  0.2419  0.2803
 6212TIP3    H140271   6.111   5.543   8.067 -2.3406  3.5902  1.3788
 6212TIP3    H240272   5.999   5.473   7.992  0.4914 -0.0184  0.2313
 6213TIP3   OH240273   1.620   6.307   3.288 -0.5213  0.0199 -0.6377
 6213TIP3    H140274   1.582   6.223   3.315  0.5010 -0.0908  0.5334
 6213TIP3    H240275   1.665   6.288   3.206 -0.0007 -0.6650 -0.1999
 6214TIP3   OH240276   6.657   5.642   2.839 -0.0891  0.5336 -0.3867
 6214TIP3    H140277   6.673   5.603   2.753  0.5806  0.8816 -0.4283
 6214TIP3    H240278   6.732   5.613   2.892 -0.8040 -0.1835  0.2559
 6215TIP3   OH240279   4.744   2.933   1.749  0.3196  0.4559 -0.6795
 6215TIP3    H140280   4.793   2.953   1.670  1.4244 -2.0344 -0.7086
 6215TIP3    H240281   4.811   2.915   1.815 -0.5804  2.2344  0.7926
 6216TIP3   OH240282   1.782   2.793   3.205 -0.3947  0.0217 -0.4797
 6216TIP3    H140283   1.800   2.860   3.271 -1.3653  1.0510 -1.2226
 6216TIP3    H240284   1.824   2.825   3.126 -0.3942 -0.5334 -0.7090
 6217TIP3   OH240285   4.407   1.397   3.522  0.5452  0.2730 -0.5148
 6217TIP3    H140286   4.415   1.492   3.520  3.2966  0.2330  1.6508
 6217TIP3    H240287   4.468   1.366   3.455  0.0285  0.0083 -0.8699
 6218TIP3   OH240288   6.446   0.841   0.960  0.3213  0.6114 -0.2185
 6218TIP3    H140289   6.381   0.801   1.018  0.8125  0.1233  0.0089
 6218TIP3    H240290   6.503   0.890   1.019 -0.5521  2.0651 -0.5433
 6219TIP3   OH240291   2.089   0.553   7.572 -0.4219  0.1866  0.6619
 6219TIP3    H140292   2.162   0.574   7.631 -1.4098  0.0977  1.9595
 6219TIP3    H240293   2.028   0.504   7.626 -0.5762 -1.4666 -0.9222
 6220TIP3   OH240294   0.813   6.121   0.474 -0.3822  0.1546 -0.1654
 6220TIP3    H140295   0.877   6.155   0.412 -0.0707 -0.3626 -0.1339
 6220TIP3    H240296   0.761   6.197   0.499  0.0705  0.5366 -0.3703
 6221TIP3   OH240297   1.368   6.475   1.408  0.0316 -0.4600 -0.3210
 6221TIP3    H140298   1.446   6.530   1.398 -1.6335  2.2712  0.4495
 6221TIP3    H240299   1.389   6.417   1.481  0.6644  1.6762  1.3178
 6222TIP3   OH240300   1.374   3.192   1.426 -0.4592 -0.1736  0.0523
 6222TIP3    H140301   1.397   3.148   1.507  0.1649  0.3301  0.1543
 6222TIP3    H240302   1.316   3.263   1.453  0.0748  0.2447  0.1076
 6223TIP3   OH240303   3.767   3.437   7.671 -0.1878  0.6373  0.2939
 6223TIP3    H140304   3.675   3.420   7.651 -0.3404  0.6863  0.9266
 6223TIP3    H240305   3.796   3.360   7.719  0.2445  0.4052 -0.3265
 6224TIP3   OH240306   0.999   4.503   3.359  0.0679  0.1539 -0.9766
 6224TIP3    H140307   0.997   4.462   3.445  0.1291  2.3258  0.1120
 6224TIP3    H240308   0.988   4.430   3.297 -1.6723 -1.2681  0.8842
 6225TIP3   OH240309   4.371   0.756   0.849 -0.3353 -0.4245  0.5346
 6225TIP3    H140310   4.463   0.747   0.871 -0.1414 -3.5115 -1.0137
 6225TIP3    H240311   4.324   0.705   0.915 -0.6750 -0.9704 -0.1137
 6226TIP3   OH240312   2.793   6.101   0.808 -0.5043  0.4752 -0.1666
 6226TIP3    H140313   2.825   6.072   0.893 -1.0858  0.9007  0.2053
 6226TIP3    H240314   2.871   6.100   0.752 -0.5448 -2.0776 -0.2801
 6227TIP3   OH240315   3.138   6.540   2.120 -0.2152  0.0356  0.4254
 6227TIP3    H140316   3.085   6.472   2.080 -2.8606  2.0762  0.1886
 6227TIP3    H240317   3.123   6.618   2.066  3.2081  0.7608  0.2602
 6228TIP3   OH240318   3.729   0.900   8.522  0.0252  0.4366 -0.5753
 6228TIP3    H140319   3.689   0.966   8.579 -0.5450  0.4422 -0.9698
 6228TIP3    H240320   3.660   0.836   8.508  0.6499 -0.3786 -0.0004
 6229TIP3   OH240321   1.225   1.565   1.489 -0.8459  0.3804 -0.1459
 6229TIP3    H140322   1.265   1.651   1.478  2.0302 -0.8402  0.0104
 6229TIP3    H240323   1.140   1.572   1.445  0.1830  2.6819 -1.9556
 6230TIP3   OH240324   0.959   4.349   7.024  0.3678  0.0392 -0.1989
 6230TIP3    H140325   1.051   4.345   6.996 -0.1084 -1.9588 -1.7062
 6230TIP3    H240326   0.948   4.439   7.057  1.6476  2.0319 -4.4326
 6231TIP3   OH240327   3.028   5.840   3.009 -0.3502 -0.4447 -0.0459
 6231TIP3    H140328   3.095   5.790   2.964 -0.4881  0.4888 -1.3705
 6231TIP3    H240329   3.069   5.869   3.090  1.2098  0.8659 -1.2330
 6232TIP3   OH240330   1.786   3.772   1.175  0.1966  0.3028 -0.3215
 6232TIP3    H140331   1.793   3.867   1.163  0.6743  0.4610  1.0195
 6232TIP3    H240332   1.782   3.760   1.270  0.4994 -1.0503 -0.4554
 6233TIP3   OH240333   1.274   4.336   3.647  0.6251  0.0585  0.2330
 6233TIP3    H140334   1.219   4.258   3.659 -0.3154  0.2362 -2.4143
 6233TIP3    H240335   1.331   4.314   3.574 -0.1662  2.0754 -1.0671
 6234TIP3   OH240336   6.262   1.310   1.133 -0.1609  0.0551 -0.7243
 6234TIP3    H140337   6.210   1.268   1.065 -1.6762  2.1925 -0.9919
 6234TIP3    H240338   6.197   1.345   1.194  1.1076  0.0170  0.6885
 6235TIP3   OH240339   5.114   0.499   2.941  0.0707  0.3502 -0.4048
 6235TIP3    H140340   5.040   0.542   2.897 -0.2896  0.8102  0.6124
 6235TIP3    H240341   5.075   0.422   2.982  0.2265  0.3903 -0.1814
 6236TIP3   OH240342   5.723   5.172   2.740 -0.1507  0.3626  0.2331
 6236TIP3    H140343   5.692   5.160   2.650 -0.9801  0.1055  0.5378
 6236TIP3    H240344   5.809   5.130   2.743 -1.5517 -2.7889  0.4171
 6237TIP3   OH240345   1.963   5.472   7.895 -0.0809  0.6088 -0.2538
 6237TIP3    H140346   1.892   5.535   7.882 -0.5079 -0.0390 -1.1152
 6237TIP3    H240347   2.015   5.478   7.815  0.5517  0.7112  0.1612
 6238TIP3   OH240348   0.855   6.400   2.608 -0.0949  0.0838 -0.0288
 6238TIP3    H140349   0.845   6.471   2.672  0.6456 -0.0234  0.2063
 6238TIP3    H240350   0.766   6.368   2.595 -0.4378  1.0182 -0.0957
 6239TIP3   OH240351   4.841   2.118   7.205  0.7970  0.4403  0.5785
 6239TIP3    H140352   4.860   2.123   7.299  0.4015 -1.2804  0.7731
 6239TIP3    H240353   4.745   2.121   7.200  0.6623 -2.1625  0.4767
 6240TIP3   OH240354   1.105   6.753   2.204 -0.3414  0.0749  0.1821
 6240TIP3    H140355   1.061   6.682   2.157 -0.6493  0.4612 -0.1230
 6240TIP3    H240356   1.077   6.833   2.158  1.3099  0.2786 -0.5442
 6241TIP3   OH240357   0.612   2.600   0.417 -0.0781  0.7156  0.2724
 6241TIP3    H140358   0.585   2.654   0.342 -1.2728  2.1263  1.6312
 6241TIP3    H240359   0.692   2.642   0.449  0.9644 -0.4408 -0.7170
 6242TIP3   OH240360   5.396   5.194   8.010 -0.2013  0.4943  0.2668
 6242TIP3    H140361   5.489   5.214   8.022  0.0614 -1.3031  1.6612
 6242TIP3    H240362   5.352   5.244   8.079  0.0599 -0.7391  1.3683
 6243TIP3   OH240363   0.942   2.331   3.552 -0.3694 -0.1787 -0.4074
 6243TIP3    H140364   0.995   2.410   3.562 -0.2602 -0.3748  0.6435
 6243TIP3    H240365   0.872   2.341   3.616 -1.6193  0.0673 -1.7587
 6244TIP3   OH240366   4.761   0.613   0.136  0.6300  0.1645 -0.5227
 6244TIP3    H140367   4.690   0.658   0.089 -0.8782 -1.9427 -0.4048
 6244TIP3    H240368   4.825   0.591   0.068  0.2679  0.4333 -0.9603
 6245TIP3   OH240369   0.432   3.485   0.020 -0.0058  0.5757  0.2597
 6245TIP3    H140370   0.469   3.407  -0.020 -1.7446 -0.9606  1.4951
 6245TIP3    H240371   0.354   3.504  -0.032 -0.0532  1.0058  0.4774
 6246TIP3   OH240372   5.323   4.909   1.587  0.1574 -0.2091 -0.1224
 6246TIP3    H140373   5.314   4.966   1.511  0.7638 -0.5679 -0.4718
 6246TIP3    H240374   5.371   4.833   1.554 -0.4071 -0.8037  0.3943
 6247TIP3   OH240375   3.671   1.736   8.484  0.0410 -0.0128  0.2812
 6247TIP3    H140376   3.641   1.694   8.565 -0.9133  0.9889  0.4599
 6247TIP3    H240377   3.718   1.666   8.438  0.1001 -0.7640  1.4228
 6248TIP3   OH240378   3.384   3.250   2.698 -0.0958 -0.1311  0.7440
 6248TIP3    H140379   3.369   3.335   2.739  0.4057  0.1432  0.3694
 6248TIP3    H240380   3.322   3.247   2.625  1.4022  0.8792 -0.6258
 6249TIP3   OH240381   4.773   0.042   2.441 -0.3804 -0.3244  0.3045
 6249TIP3    H140382   4.842   0.058   2.506  0.1966  1.7621 -0.7602
 6249TIP3    H240383   4.799  -0.040   2.399  1.2577  0.2239  0.1772
 6250TIP3   OH240384   3.462   2.032   2.702  0.9085  0.0232 -0.0097
 6250TIP3    H140385   3.434   1.951   2.659  1.4559  0.5928 -1.4735
 6250TIP3    H240386   3.422   2.027   2.790  1.0735 -1.8924 -0.0042
 6251TIP3   OH240387   2.575   1.053   8.037  0.2157 -0.5038  0.7199
 6251TIP3    H140388   2.552   0.993   7.966  0.5885 -3.2205  2.6987
 6251TIP3    H240389   2.502   1.114   8.042 -0.1012 -0.6148 -1.5471
 6252TIP3   OH240390   5.839   0.167   2.589 -0.6527  0.6765 -0.5381
 6252TIP3    H140391   5.810   0.115   2.664  0.2900 -2.5582 -2.2247
 6252TIP3    H240392   5.760   0.210   2.557 -1.2516  1.2969  1.6159
 6253TIP3   OH240393   3.664   6.390   3.110  0.2824  0.2185  0.1817
 6253TIP3    H140394   3.743   6.339   3.124  0.1420 -0.0467  0.0126
 6253TIP3    H240395   3.607   6.333   3.058  0.0778  0.4994  0.0949
 6254TIP3   OH240396   2.354   5.002   2.488 -0.1105 -0.0495 -0.3168
 6254TIP3    H140397   2.260   5.004   2.473 -0.2041  0.7015  0.2902
 6254TIP3    H240398   2.390   5.060   2.421  0.0576 -1.2732 -1.3259
 6255TIP3   OH240399   5.653   6.177   1.117 -0.3121  0.2933 -0.3002
 6255TIP3    H140400   5.683   6.095   1.079 -0.3354  1.2022 -2.3950
 6255TIP3    H240401   5.559   6.163   1.132 -0.3702  0.0091 -0.8859
 6256TIP3   OH240402   0.737   2.630   2.982 -0.4659  0.7577  0.5057
 6256TIP3    H140403   0.808   2.671   3.032 -0.4726 -1.1115  2.1727
 6256TIP3    H240404   0.657   2.669   3.017 -0.3995  0.5573  0.8830
 6257TIP3   OH240405   0.569   3.164   0.166  0.6088 -0.4912 -0.3282
 6257TIP3    H140406   0.514   3.115   0.228  1.6269 -0.0801  0.9564
 6257TIP3    H240407   0.644   3.106   0.150  1.0573 -0.0024 -0.0232
 6258TIP3   OH240408   0.387   4.958   7.421  0.4930 -0.1246  0.1596
 6258TIP3    H140409   0.353   4.987   7.336  0.1236  2.0300  0.9965
 6258TIP3    H240410   0.384   4.862   7.416 -2.0939 -0.0508 -1.2252
 6259TIP3   OH240411   5.248   1.905   0.499  0.3070  0.2806  0.4739
 6259TIP3    H140412   5.336   1.882   0.471 -0.0428  0.4876 -0.8848
 6259TIP3    H240413   5.258   1.988   0.546  1.1612 -1.0226  2.6957
 6260TIP3   OH240414   2.677   4.312   8.267  0.2119  0.1827 -0.2251
 6260TIP3    H140415   2.689   4.348   8.355 -1.3450 -0.0189  0.1016
 6260TIP3    H240416   2.644   4.386   8.215  1.2581  0.3395 -0.6995
 6261TIP3   OH240417   4.784   5.232   3.016 -0.0181  0.3185  0.1475
 6261TIP3    H140418   4.863   5.186   3.046  1.4802  1.5643 -1.6887
 6261TIP3    H240419   4.817   5.301   2.958 -2.3514  2.0592  0.7399
 6262TIP3   OH240420   2.682   5.348   8.197 -0.2469  0.2322 -0.1322
 6262TIP3    H140421   2.616   5.351   8.267  0.4898  0.0192  0.5739
 6262TIP3    H240422   2.653   5.277   8.140 -1.7528  1.4420 -0.9696
 6263TIP3   OH240423   4.239   5.409   2.989  0.0794  0.4154 -0.4129
 6263TIP3    H140424   4.217   5.414   3.083  0.0800 -0.2244 -0.3740
 6263TIP3    H240425   4.334   5.403   2.987 -0.0236 -3.5468 -0.2142
 6264TIP3   OH240426   4.633   3.829   8.163 -0.0223  0.3126  0.0867
 6264TIP3    H140427   4.660   3.825   8.071  0.6768  0.9070  0.2571
 6264TIP3    H240428   4.621   3.922   8.181  0.7366  0.2767  0.8445
 6265TIP3   OH240429   0.192   5.063   8.437 -0.5596 -0.0015  0.4913
 6265TIP3    H140430   0.265   5.112   8.401  1.1771 -1.8655  1.2680
 6265TIP3    H240431   0.206   5.064   8.532 -0.5237 -1.8091  0.5512
 6266TIP3   OH240432   6.362   2.407   2.231 -0.2385 -0.5017 -0.2809
 6266TIP3    H140433   6.402   2.329   2.268 -0.4069 -1.0035 -1.1303
 6266TIP3    H240434   6.435   2.466   2.215 -0.0153 -0.8041 -0.3897
 6267TIP3   OH240435   5.591   2.100   0.619 -0.5432  0.6783 -0.7842
 6267TIP3    H140436   5.636   2.173   0.662  2.1374  1.1749 -3.9997
 6267TIP3    H240437   5.503   2.133   0.602 -0.8190  1.4338  1.7019
 6268TIP3   OH240438   4.051   1.439   1.026  0.2906  0.0871 -0.0273
 6268TIP3    H140439   4.022   1.349   1.040 -0.7347  0.0170 -2.1995
 6268TIP3    H240440   3.988   1.475   0.964  0.7807  2.2693  0.6631
 6269TIP3   OH240441   1.080   3.132   0.168  0.8500 -0.2988 -0.2056
 6269TIP3    H140442   1.079   3.170   0.256  2.0380 -0.7790  0.0302
 6269TIP3    H240443   1.025   3.191   0.116 -0.4907 -0.4154  1.0064
 6270TIP3   OH240444   1.823   6.797   2.857  0.1732  0.0541  0.0994
 6270TIP3    H140445   1.914   6.822   2.872 -0.2777  0.8621  1.6815
 6270TIP3    H240446   1.828   6.706   2.827  1.5701  0.5841 -1.4217
 6271TIP3   OH240447   5.558   1.797   0.997  0.9402 -0.4300 -0.4179
 6271TIP3    H140448   5.593   1.739   1.064 -0.4225 -0.7008  0.0883
 6271TIP3    H240449   5.466   1.805   1.018  0.9900  1.5203 -0.7978
 6272TIP3   OH240450   1.228   0.234   0.078 -0.5010  0.1524 -0.0808
 6272TIP3    H140451   1.246   0.327   0.065  0.1771 -0.2608 -2.5922
 6272TIP3    H240452   1.307   0.189   0.048 -0.8442 -1.2537  1.0153
 6273TIP3   OH240453   0.361   5.178   1.937 -0.1469 -0.3217  0.3383
 6273TIP3    H140454   0.440   5.225   1.964 -1.4424  1.3722  1.4344
 6273TIP3    H240455   0.389   5.121   1.866  1.6706  1.6832 -0.6587
 6274TIP3   OH240456   5.334   2.688   0.594  0.0290 -0.6222 -0.1268
 6274TIP3    H140457   5.347   2.718   0.683  0.6740 -0.4462 -0.2731
 6274TIP3    H240458   5.422   2.662   0.564 -0.2513 -1.1219 -0.5476
 6275TIP3   OH240459   6.167   4.564   8.585  0.5329  0.1069  0.4664
 6275TIP3    H140460   6.199   4.577   8.496 -2.8628 -0.9902 -1.0926
 6275TIP3    H240461   6.132   4.649   8.610  0.6412  0.1756  0.3875
 6276TIP3   OH240462   5.364   4.997   0.008  0.4060 -0.2908  0.1496
 6276TIP3    H140463   5.359   4.964  -0.082 -2.3812 -1.7341  0.7044
 6276TIP3    H240464   5.389   4.920   0.060 -0.5281 -0.1216  0.8649
 6277TIP3   OH240465   4.204   4.579   0.389 -0.0786  0.0079 -0.5725
 6277TIP3    H140466   4.299   4.573   0.400  0.1337  0.3214 -1.9742
 6277TIP3    H240467   4.184   4.671   0.405 -0.0635  0.0549 -0.8241
 6278TIP3   OH240468   1.636   3.469   1.353 -0.4757  0.8750 -0.0800
 6278TIP3    H140469   1.583   3.413   1.410  1.2249 -0.7385  0.0104
 6278TIP3    H240470   1.646   3.550   1.403 -0.1490 -0.0009  1.3557
 6279TIP3   OH240471   1.797   5.933   3.015  0.2184 -0.1223  0.4444
 6279TIP3    H140472   1.752   5.883   3.083  1.6709  0.5584  1.9667
 6279TIP3    H240473   1.886   5.900   3.015  0.9082  1.6207  0.6650
 6280TIP3   OH240474   0.487   6.511   0.937  0.3849  0.5051  0.2198
 6280TIP3    H140475   0.430   6.444   0.974  1.5817  0.5717  2.4163
 6280TIP3    H240476   0.550   6.463   0.883  0.1475  0.0656  0.3365
 6281TIP3   OH240477   2.370   4.441   8.069 -0.3910 -0.4902  0.1864
 6281TIP3    H140478   2.320   4.372   8.111  0.4258 -0.0664  1.9637
 6281TIP3    H240479   2.305   4.495   8.025 -1.3844 -0.6146  1.4449
 6282TIP3   OH240480   6.386   2.410   0.626  0.2322 -0.0184  0.1455
 6282TIP3    H140481   6.310   2.467   0.633  1.1471  1.1763  0.8339
 6282TIP3    H240482   6.371   2.359   0.547 -0.6061  1.2289 -0.5355
 6283TIP3   OH240483   3.412   6.560   8.009 -0.1779  0.3496  0.2594
 6283TIP3    H140484   3.494   6.540   7.963 -0.3978  1.6286 -0.7582
 6283TIP3    H240485   3.345   6.518   7.956 -0.1440 -1.4387  1.5722
 6284TIP3   OH240486   2.292   4.172   3.072 -0.4524 -0.1433  0.1757
 6284TIP3    H140487   2.198   4.170   3.087 -0.2344  0.9222  2.0762
 6284TIP3    H240488   2.316   4.081   3.053 -1.7906 -0.5062  0.1439
 6285TIP3   OH240489   4.236   6.365   7.859  0.1444 -0.1078 -0.4191
 6285TIP3    H140490   4.284   6.335   7.782 -1.6687 -0.3192 -1.5239
 6285TIP3    H240491   4.158   6.408   7.824 -0.3237  0.5263  1.2905
 6286TIP3   OH240492   5.770   5.204   8.411  0.1672  0.2732 -0.2426
 6286TIP3    H140493   5.833   5.252   8.358 -0.3289  1.1140 -0.0786
 6286TIP3    H240494   5.686   5.214   8.365 -0.2013  0.7240  0.5151
 6287TIP3   OH240495   3.534   4.303   0.759  0.3646  0.6491  0.4784
 6287TIP3    H140496   3.591   4.277   0.831  0.0411 -0.5025  0.3291
 6287TIP3    H240497   3.590   4.354   0.701  0.4215  2.3709  1.9616
 6288TIP3   OH240498   0.744   1.488   2.572 -0.0247 -0.3426  0.1849
 6288TIP3    H140499   0.762   1.440   2.652 -0.7676 -0.0905  0.5124
 6288TIP3    H240500   0.764   1.580   2.594 -0.4788 -0.2375  0.1665
 6289TIP3   OH240501   5.322   0.946   1.826  0.5380  0.4846  0.1188
 6289TIP3    H140502   5.273   0.864   1.825  0.4965  0.4871 -1.4986
 6289TIP3    H240503   5.265   1.008   1.872  0.3309 -0.2488  0.8567
 6290TIP3   OH240504   5.209   1.790   2.812  0.6822  0.2142 -0.6842
 6290TIP3    H140505   5.287   1.758   2.858  1.6463  2.4532 -0.6498
 6290TIP3    H240506   5.140   1.727   2.835  1.8489 -0.4063  1.3466
 6291TIP3   OH240507   5.478   1.898   2.271 -0.3717  0.3127 -0.0628
 6291TIP3    H140508   5.462   1.854   2.355 -0.1874  0.0048 -0.1855
 6291TIP3    H240509   5.428   1.847   2.207 -0.5494  0.5739 -0.1327
 6292TIP3   OH240510   5.069   4.014   2.050  0.2707 -0.0734  0.5712
 6292TIP3    H140511   5.120   4.095   2.054  0.7568 -0.2394 -1.1986
 6292TIP3    H240512   5.049   4.003   1.957 -0.5642 -1.5267  0.8848
 6293TIP3   OH240513   4.756   3.636   1.870 -0.0835 -0.0841  0.1660
 6293TIP3    H140514   4.842   3.598   1.888 -0.2452  0.0254  1.2492
 6293TIP3    H240515   4.760   3.723   1.909  0.6605  1.5579 -3.1975
 6294TIP3   OH240516   3.815   0.377   8.577  0.3755 -0.3460 -0.0003
 6294TIP3    H140517   3.770   0.350   8.657 -0.4818 -2.6737 -1.1804
 6294TIP3    H240518   3.908   0.368   8.598  0.2009  0.1397  1.0600
 6295TIP3   OH240519   0.861   6.625   3.078  0.1398 -0.5569  0.0768
 6295TIP3    H140520   0.927   6.594   3.141 -0.8880 -3.2074 -0.0001
 6295TIP3    H240521   0.789   6.656   3.133  0.1777 -0.6575  0.1845
 6296TIP3   OH240522   4.255   5.107   1.737  0.3017  0.0277 -0.0594
 6296TIP3    H140523   4.161   5.098   1.750 -0.0940  3.5955  0.7439
 6296TIP3    H240524   4.273   5.059   1.657 -1.9310 -1.7809  0.4181
 6297TIP3   OH240525   2.356   6.788   2.300 -0.1063 -0.5856 -0.3143
 6297TIP3    H140526   2.330   6.796   2.392 -0.9921  0.3367 -0.6222
 6297TIP3    H240527   2.310   6.711   2.268 -0.1066 -0.6814 -0.0840
 6298TIP3   OH240528   1.390   3.700   0.931  0.0583 -0.2095  0.0506
 6298TIP3    H140529   1.303   3.662   0.942 -0.6849  1.3647 -0.1202
 6298TIP3    H240530   1.412   3.736   1.017 -0.5337  1.4893 -0.4608
 6299TIP3   OH240531   6.451   1.807   3.064  0.1241 -0.3869 -0.0091
 6299TIP3    H140532   6.386   1.855   3.012 -0.0370  0.5070  0.9747
 6299TIP3    H240533   6.403   1.780   3.143  1.2999  1.7516  1.5506
 6300TIP3   OH240534   1.486   5.306   2.447  0.1430 -0.2667  0.2073
 6300TIP3    H140535   1.572   5.264   2.455  0.7150  0.5291 -1.4365
 6300TIP3    H240536   1.475   5.353   2.529  0.7755 -1.2497  0.8908
 6301TIP3   OH240537   6.774   6.801   1.064 -0.7076 -0.1834  0.4708
 6301TIP3    H140538   6.712   6.799   0.990 -1.0492 -0.1702  0.7534
 6301TIP3    H240539   6.825   6.721   1.054 -1.2380 -0.5466  0.6257
 6302TIP3   OH240540   3.689   4.302   0.299  0.4474 -0.2588 -0.0568
 6302TIP3    H140541   3.761   4.305   0.236  1.3814 -1.1508  0.9154
 6302TIP3    H240542   3.689   4.212   0.330 -0.3207  0.0410  0.8432
 6303TIP3   OH240543   3.482   6.350   3.368 -0.4513  0.1664 -0.0524
 6303TIP3    H140544   3.477   6.267   3.321 -1.6535  0.2804 -0.1754
 6303TIP3    H240545   3.556   6.396   3.330  0.4678 -1.0002  0.2776
 6304TIP3   OH240546   5.736   4.243   8.607  0.1755 -0.6174  0.1210
 6304TIP3    H140547   5.643   4.248   8.589  0.0488 -0.9009  0.6860
 6304TIP3    H240548   5.747   4.285   8.692  0.8458  1.1981 -0.8216
 6305TIP3   OH240549   3.636   0.272   0.921 -0.3367 -0.4867  0.3044
 6305TIP3    H140550   3.582   0.301   0.994 -0.4947 -2.1859  0.9207
 6305TIP3    H240551   3.723   0.310   0.937 -0.6248 -0.0550  0.8365
 6306TIP3   OH240552   5.876   0.949   3.703 -0.0653 -0.2708 -0.2661
 6306TIP3    H140553   5.817   0.906   3.764  2.5310  0.5685  3.1259
 6306TIP3    H240554   5.877   1.041   3.730  0.2823  0.4464 -2.4388
 6307TIP3   OH240555   6.320   6.221   1.795 -0.5944  0.6228 -0.7471
 6307TIP3    H140556   6.289   6.154   1.735 -0.7911  0.7983 -0.8433
 6307TIP3    H240557   6.311   6.303   1.747  2.4189  0.4900 -1.7692
 6308TIP3   OH240558   0.514   1.778   0.815  0.2040 -0.1373 -0.3172
 6308TIP3    H140559   0.498   1.873   0.819 -0.9279 -0.3259  0.0816
 6308TIP3    H240560   0.483   1.753   0.728  1.8006  0.0628 -0.9678
 6309TIP3   OH240561   4.798   0.216   0.962  0.4540 -0.3059 -0.1795
 6309TIP3    H140562   4.778   0.266   0.883 -1.3199  0.5561  0.7482
 6309TIP3    H240563   4.768   0.272   1.034 -1.6718 -2.6795  0.9405
 6310TIP3   OH240564   2.980   3.082   3.254  0.2715  1.0113 -0.4757
 6310TIP3    H140565   2.995   3.147   3.185  1.2039  1.7536  0.4048
 6310TIP3    H240566   3.044   3.013   3.237 -0.6010  0.3816 -1.3064
 6311TIP3   OH240567   4.577   5.291   2.418  0.3631  0.2837 -0.3836
 6311TIP3    H140568   4.649   5.243   2.376  0.1502  0.7675 -1.3271
 6311TIP3    H240569   4.516   5.309   2.347 -1.3125 -1.1969  0.6013
 6312TIP3   OH240570   1.689   1.009   3.142 -0.1202  0.2949 -0.3108
 6312TIP3    H140571   1.684   1.040   3.051  0.9795 -0.0723 -0.5146
 6312TIP3    H240572   1.684   1.089   3.195 -3.9647  0.3650 -0.4758
 6313TIP3   OH240573   2.911   2.395   1.355  0.5890 -0.1596 -0.0855
 6313TIP3    H140574   2.909   2.373   1.262 -0.6501 -2.1050  0.3313
 6313TIP3    H240575   2.923   2.311   1.399  0.7566  0.6740  1.5314
 6314TIP3   OH240576   1.571   6.864   2.132  0.5264 -0.1860 -0.1825
 6314TIP3    H140577   1.649   6.889   2.081  0.1826  2.5687  0.4748
 6314TIP3    H240578   1.497   6.888   2.076  0.1660  1.0950  0.7890
 6315TIP3   OH240579   6.443   5.321   1.461 -0.4308  0.4325  0.3891
 6315TIP3    H140580   6.527   5.367   1.468 -1.1399  1.6312  1.5223
 6315TIP3    H240581   6.440   5.263   1.537  0.1051 -0.9479 -0.6016
 6316TIP3   OH240582   0.269   0.160   1.572 -0.6177  0.6801  0.3140
 6316TIP3    H140583   0.235   0.129   1.488 -0.2010 -1.2142  0.8015
 6316TIP3    H240584   0.234   0.248   1.581 -3.1579 -0.1716 -0.4643
 6317TIP3   OH240585   0.050   3.750   3.223 -0.5456 -0.1097 -0.1182
 6317TIP3    H140586  -0.024   3.694   3.198  0.2862 -0.4882 -1.8967
 6317TIP3    H240587   0.043   3.826   3.165 -0.2118  0.4150  0.5264
 6318TIP3   OH240588   2.468   2.361   2.666  0.1883 -0.0234 -0.8551
 6318TIP3    H140589   2.440   2.274   2.692 -0.4627  0.0299 -1.3515
 6318TIP3    H240590   2.519   2.394   2.740 -1.1176 -0.0959  0.1059
 6319TIP3   OH240591   0.227   6.507   2.103  0.0836 -0.2472  0.3414
 6319TIP3    H140592   0.186   6.498   2.017  0.5375  0.9664 -0.0246
 6319TIP3    H240593   0.240   6.417   2.133  0.8999 -0.7316 -1.3253
 6320TIP3   OH240594   4.347   4.233   1.053  0.3683 -0.2045 -1.2729
 6320TIP3    H140595   4.436   4.198   1.050 -0.0977 -1.3620 -3.0978
 6320TIP3    H240596   4.301   4.188   0.982 -1.6620  0.4228 -0.4171
 6321TIP3   OH240597   3.242   2.945   2.587 -0.0842  0.3354  0.6461
 6321TIP3    H140598   3.165   2.890   2.600 -0.0462 -0.0574 -0.7240
 6321TIP3    H240599   3.207   3.031   2.566 -0.1516  0.2026  0.2112
 6322TIP3   OH240600   2.959   4.132   8.045 -0.2985  0.7650 -0.1363
 6322TIP3    H140601   3.001   4.056   8.005  2.0193  2.9497 -2.2631
 6322TIP3    H240602   2.889   4.096   8.098  1.1295 -2.8580 -0.4361
 6323TIP3   OH240603   4.446   0.999   7.121  0.5435 -0.0255 -0.4847
 6323TIP3    H140604   4.385   1.016   7.193  1.4601  1.7969 -0.0796
 6323TIP3    H240605   4.389   0.979   7.047 -0.4404 -1.3812  0.5663
 6324TIP3   OH240606   2.141   4.843   1.352 -0.2072  0.3288 -0.4592
 6324TIP3    H140607   2.181   4.794   1.280 -0.5014 -1.8256  0.7462
 6324TIP3    H240608   2.047   4.830   1.341 -0.2983  0.7125 -0.1652
 6325TIP3   OH240609   2.508   3.844   8.021  0.1944  0.2402  0.3193
 6325TIP3    H140610   2.556   3.796   7.954  0.3294  1.7833 -0.7335
 6325TIP3    H240611   2.419   3.849   7.987  0.1065  0.4709  0.5821
 6326TIP3   OH240612   2.214   3.926   0.132 -0.1173  0.4679  0.5094
 6326TIP3    H140613   2.125   3.894   0.147 -0.2805  0.3455 -0.6668
 6326TIP3    H240614   2.205   3.995   0.067  0.8422 -0.8615 -1.1151
 6327TIP3   OH240615   3.459   6.416   2.701  0.3653  0.0954 -0.7165
 6327TIP3    H140616   3.465   6.376   2.788 -1.5298 -1.1968 -1.1317
 6327TIP3    H240617   3.548   6.412   2.667  0.8616 -0.7296  0.5949
 6328TIP3   OH240618   4.984   5.078   1.091 -0.0509 -0.1983 -0.0645
 6328TIP3    H140619   4.905   5.081   1.038 -0.1162 -0.7477 -0.0044
 6328TIP3    H240620   4.964   5.133   1.167 -0.9054 -1.4522  0.6472
 6329TIP3   OH240621   2.448   0.653   8.075 -0.1458  0.4318 -0.0372
 6329TIP3    H140622   2.465   0.577   8.020 -0.7991  0.5365 -0.3929
 6329TIP3    H240623   2.365   0.634   8.118 -1.4378  1.8293 -1.7593
 6330TIP3   OH240624   3.762   1.998   0.539  0.4361 -0.4973 -0.7081
 6330TIP3    H140625   3.850   1.966   0.556  0.2614 -0.6551 -0.0532
 6330TIP3    H240626   3.765   2.091   0.562  0.7340 -0.2195 -1.8318
 6331TIP3   OH240627   0.374   3.703   0.773 -0.2592 -0.1828  0.4280
 6331TIP3    H140628   0.337   3.664   0.853 -1.9901 -1.0620 -0.7329
 6331TIP3    H240629   0.466   3.717   0.794 -0.5956 -0.6529  2.4794
 6332TIP3   OH240630   3.508   1.617   2.009 -0.3482 -0.5097  0.1641
 6332TIP3    H140631   3.492   1.536   2.058 -0.6379 -1.9028 -2.1118
 6332TIP3    H240632   3.431   1.671   2.026 -0.5715 -1.0669  0.9881
 6333TIP3   OH240633   2.908   2.634   7.752 -0.2410  0.1972  0.1868
 6333TIP3    H140634   2.834   2.665   7.803 -1.0699 -0.5451 -0.5252
 6333TIP3    H240635   2.882   2.648   7.661  0.2142 -0.6607 -0.0865
 6334TIP3   OH240636   3.288   2.017   8.218  0.5278 -0.2636 -0.0542
 6334TIP3    H140637   3.193   2.011   8.230  0.4745 -1.2588 -0.8524
 6334TIP3    H240638   3.324   1.977   8.297  0.2523 -1.3746 -0.4746
 6335TIP3   OH240639   0.110   3.025   1.562 -0.6258  0.3122  0.0331
 6335TIP3    H140640   0.068   3.043   1.646 -0.5568 -1.1024  0.3808
 6335TIP3    H240641   0.191   2.980   1.584 -1.2995 -1.3872 -0.8198
 6336TIP3   OH240642   0.958   0.985   3.223  0.1275  0.1213  0.0995
 6336TIP3    H140643   0.928   0.939   3.302 -0.4996 -0.2294 -0.3300
 6336TIP3    H240644   0.990   1.069   3.255 -1.5043  0.5965  0.5895
 6337TIP3   OH240645   4.396   6.075   8.493  0.4435  0.5088  0.4228
 6337TIP3    H140646   4.338   6.061   8.418 -2.2714 -2.0266  2.7927
 6337TIP3    H240647   4.338   6.108   8.562  2.4717  0.8441  2.0470
 6338TIP3   OH240648   0.628   1.450   1.378  0.1465 -0.0300  0.9516
 6338TIP3    H140649   0.558   1.422   1.320  1.0447  2.1451 -1.3714
 6338TIP3    H240650   0.610   1.543   1.395  1.9081  0.3245  1.1017
 6339TIP3   OH240651   0.460   1.292   0.467 -0.1860  0.3908 -0.4656
 6339TIP3    H140652   0.403   1.363   0.496 -0.1896 -0.1564  0.9395
 6339TIP3    H240653   0.494   1.322   0.382 -1.5852  1.2565 -0.7543
 6340TIP3   OH240654   6.830   2.747   7.936 -0.4292  0.2232  0.0885
 6340TIP3    H140655   6.899   2.685   7.911  0.2680  0.4837  1.2654
 6340TIP3    H240656   6.749   2.707   7.906  0.3081  0.4566 -2.4145
 6341TIP3   OH240657   5.127   6.430   8.631  0.0170  0.8501  0.3327
 6341TIP3    H140658   5.219   6.410   8.615 -0.5881 -0.9643 -1.2940
 6341TIP3    H240659   5.096   6.471   8.551 -1.1719 -0.9789 -0.2159
 6342TIP3   OH240660   6.603   2.148   0.554  0.2790  0.8259  0.2935
 6342TIP3    H140661   6.594   2.238   0.523 -2.8830  0.3375 -0.5430
 6342TIP3    H240662   6.603   2.155   0.649 -0.0853  1.6975  0.2404
 6343TIP3   OH240663   3.297   4.948   2.398 -0.1378  0.0933  0.0222
 6343TIP3    H140664   3.323   5.039   2.384 -0.4225  0.4010  1.4131
 6343TIP3    H240665   3.373   4.907   2.439 -0.0536 -0.2856 -0.4941
 6344TIP3   OH240666   1.201   2.159   8.581 -0.5411  0.5703 -0.1118
 6344TIP3    H140667   1.210   2.178   8.488 -0.6176  1.0039 -0.0332
 6344TIP3    H240668   1.134   2.091   8.586 -0.5138  0.5254 -0.3747
 6345TIP3   OH240669   3.817   2.869   2.924 -0.5616  0.6351  0.2788
 6345TIP3    H140670   3.901   2.859   2.968  0.2290  0.2609 -1.2385
 6345TIP3    H240671   3.775   2.942   2.969  0.1151  0.1666  1.7366
 6346TIP3   OH240672   3.754   1.191   2.942  0.5111  0.2055  0.6298
 6346TIP3    H140673   3.833   1.154   2.904 -0.0485 -0.5827  0.1900
 6346TIP3    H240674   3.777   1.209   3.033  0.9972 -0.6681  0.6941
 6347TIP3   OH240675   3.079   0.899   7.376 -0.1983  0.3941 -0.0452
 6347TIP3    H140676   3.152   0.840   7.354 -0.4406  0.1209 -0.1294
 6347TIP3    H240677   3.057   0.877   7.466  0.3315  1.0224  0.2436
 6348TIP3   OH240678   6.660   2.556   1.371  0.0757  0.0792 -0.5017
 6348TIP3    H140679   6.660   2.525   1.280  0.9530 -1.5069 -0.0062
 6348TIP3    H240680   6.582   2.611   1.378  0.7829  1.4806 -2.6046
 6349TIP3   OH240681   5.546   2.193   3.309 -1.0036 -0.6474  0.0662
 6349TIP3    H140682   5.617   2.258   3.305 -1.9359  0.4108  0.0927
 6349TIP3    H240683   5.590   2.110   3.326  0.0764  0.2884  2.2673
 6350TIP3   OH240684   2.908   0.628   0.023 -0.1968 -0.6035  0.1907
 6350TIP3    H140685   2.918   0.677   0.104  3.6198 -0.6075 -0.1051
 6350TIP3    H240686   2.845   0.678  -0.029  0.6878  1.8981  1.4061
 6351TIP3   OH240687   3.765   2.813   1.305  0.4767  0.7078 -0.0632
 6351TIP3    H140688   3.709   2.882   1.341  0.1061  1.6781 -2.3069
 6351TIP3    H240689   3.705   2.755   1.258  0.8128 -1.1327  1.6538
 6352TIP3   OH240690   3.811   2.589   2.089 -0.6298 -0.2436 -0.5082
 6352TIP3    H140691   3.836   2.496   2.093 -1.5219 -0.5210 -1.2575
 6352TIP3    H240692   3.750   2.595   2.016 -1.5097  0.7196  0.2791
 6353TIP3   OH240693   1.873   0.698   1.318  0.4205 -0.1676 -0.3902
 6353TIP3    H140694   1.802   0.710   1.380  1.3617 -0.1342  0.7088
 6353TIP3    H240695   1.923   0.780   1.323  0.9193 -0.4536 -0.6501
 6354TIP3   OH240696   0.267   6.550   0.378 -0.0037 -0.2392  0.3119
 6354TIP3    H140697   0.200   6.486   0.403 -1.5087  1.3682  0.6347
 6354TIP3    H240698   0.337   6.498   0.339 -1.2267 -2.0432  0.3993
 6355TIP3   OH240699   0.924   6.704   7.713  0.2586 -0.1710  0.3174
 6355TIP3    H140700   0.896   6.669   7.798 -0.2372 -0.5563 -0.0001
 6355TIP3    H240701   0.843   6.719   7.665  0.4224  1.7240  0.5428
 6356TIP3   OH240702   3.700   3.209   0.749  0.0510  0.3794  0.2543
 6356TIP3    H140703   3.678   3.175   0.663 -1.0531  0.4504  0.5024
 6356TIP3    H240704   3.620   3.199   0.801  0.7763  0.0665  1.3558
 6357TIP3   OH240705   6.707   5.446   1.748 -0.8138 -0.1520 -0.4590
 6357TIP3    H140706   6.686   5.356   1.722 -1.2742 -0.1101 -0.2397
 6357TIP3    H240707   6.627   5.496   1.728 -0.8472  0.0533  0.1763
 6358TIP3   OH240708   3.555   5.695   1.225  0.3180  0.2714  0.1749
 6358TIP3    H140709   3.606   5.701   1.305  0.5442  0.1015  0.0437
 6358TIP3    H240710   3.508   5.611   1.232 -0.6136  0.8136  0.6880
 6359TIP3   OH240711   3.826   5.639   1.707  0.3690  0.6488 -0.2905
 6359TIP3    H140712   3.784   5.641   1.792  1.1335  0.9458  0.0916
 6359TIP3    H240713   3.920   5.639   1.726  0.5554  0.8566 -1.1302
 6360TIP3   OH240714   4.547   0.801   8.660  0.6171 -0.1313 -0.5139
 6360TIP3    H140715   4.588   0.743   8.596  2.1719  1.8592 -1.4109
 6360TIP3    H240716   4.453   0.793   8.642  0.4661 -4.1852  1.0589
 6361TIP3   OH240717   6.536   3.913   0.768  0.6248  0.0779  0.3546
 6361TIP3    H140718   6.620   3.901   0.724  0.5730  1.3904 -0.1363
 6361TIP3    H240719   6.483   3.965   0.707 -0.7564 -1.1584  0.4192
 6362TIP3   OH240720   1.075   0.100   0.347 -0.1452  0.4245 -0.7322
 6362TIP3    H140721   1.019   0.064   0.279 -1.5946  1.6066 -0.2147
 6362TIP3    H240722   1.031   0.078   0.429  0.2153  1.2240 -0.3094
 6363TIP3   OH240723   1.286   0.399   1.234 -0.9566  0.3947 -0.0748
 6363TIP3    H140724   1.317   0.440   1.315 -0.3868  0.3156 -0.2448
 6363TIP3    H240725   1.229   0.328   1.264 -1.0559  0.6030  0.2458
 6364TIP3   OH240726   6.832   5.630   1.213 -0.0339 -0.5984 -0.3393
 6364TIP3    H140727   6.790   5.705   1.171  2.0798  1.0237  0.3067
 6364TIP3    H240728   6.759   5.580   1.250 -1.6227  0.1843 -2.2374
 6365TIP3   OH240729   3.155   3.908   0.523  0.1867 -0.6421  0.2399
 6365TIP3    H140730   3.081   3.902   0.584  0.5187 -0.8825  0.6191
 6365TIP3    H240731   3.205   3.984   0.553 -0.0497 -0.3111 -0.1832
 6366TIP3   OH240732   2.849   2.318   8.386 -0.0431  0.0163  0.0178
 6366TIP3    H140733   2.829   2.377   8.313 -2.9644  0.7235  1.2344
 6366TIP3    H240734   2.789   2.244   8.373  1.6044 -1.3795  0.0478
 6367TIP3   OH240735   6.475   3.511   3.474 -0.0744 -0.1047 -0.3710
 6367TIP3    H140736   6.405   3.563   3.514  0.2098 -1.3303  1.9316
 6367TIP3    H240737   6.539   3.500   3.544  0.7461 -1.9578 -1.3418
 6368TIP3   OH240738   4.220   4.903   0.819 -0.2939  0.8211 -0.6213
 6368TIP3    H140739   4.299   4.850   0.812 -1.1046 -0.4675 -0.3486
 6368TIP3    H240740   4.204   4.935   0.730  0.5410  1.1272 -0.6699
 6369TIP3   OH240741   3.472   6.221   0.603 -0.4708 -0.2647  0.1335
 6369TIP3    H140742   3.510   6.140   0.638 -1.0334 -0.2115  0.8715
 6369TIP3    H240743   3.378   6.208   0.607 -0.5568 -0.2862 -1.4563
 6370TIP3   OH240744   6.558   0.765   0.165 -0.8482  0.5914 -0.0714
 6370TIP3    H140745   6.599   0.705   0.227 -1.4558 -0.0208 -0.2433
 6370TIP3    H240746   6.551   0.848   0.212 -1.2976  0.1359  0.6708
 6371TIP3   OH240747   3.273   0.220   7.820  0.0690  0.0939  0.1200
 6371TIP3    H140748   3.285   0.131   7.852  1.6148 -0.2500 -1.2471
 6371TIP3    H240749   3.228   0.209   7.736 -2.2909  0.8469  1.1843
 6372TIP3   OH240750   4.501   5.342   3.133 -0.8110 -0.0940  0.2691
 6372TIP3    H140751   4.583   5.380   3.102 -0.7116 -0.2534  0.3317
 6372TIP3    H240752   4.521   5.249   3.143 -0.8675 -0.0590  0.7246
 6373TIP3   OH240753   3.022   1.714   1.140 -0.2053 -0.3800  0.2858
 6373TIP3    H140754   2.974   1.754   1.067  1.8837  0.2116 -0.8396
 6373TIP3    H240755   3.038   1.785   1.201  0.3131 -0.2819  0.0441
 6374TIP3   OH240756   3.882   6.813   0.060  0.6435 -0.0404  0.2089
 6374TIP3    H140757   3.837   6.888   0.100  1.2063  0.5429 -0.2293
 6374TIP3    H240758   3.939   6.852  -0.006  2.2366 -0.7108  1.1423
 6375TIP3   OH240759   2.779   2.910   8.117 -0.3237  0.2661  0.5293
 6375TIP3    H140760   2.690   2.890   8.089 -0.0814 -2.8424  1.5082
 6375TIP3    H240761   2.834   2.880   8.045 -0.0059 -0.8905  1.2170
 6376TIP3   OH240762   3.267   5.314   8.330  0.1964  0.1323 -0.3525
 6376TIP3    H140763   3.353   5.328   8.291  1.4724 -0.7450  1.9430
 6376TIP3    H240764   3.258   5.383   8.395 -0.1759 -0.6024  0.4017
 6377TIP3   OH240765   0.601   2.500   7.580  0.1124 -0.0794 -0.6704
 6377TIP3    H140766   0.596   2.575   7.521 -0.8932 -0.7381 -1.4558
 6377TIP3    H240767   0.610   2.538   7.667 -1.2762  0.9846 -0.9656
 6378TIP3   OH240768   4.835   3.290   2.239  0.0668  0.5829 -0.1622
 6378TIP3    H140769   4.803   3.266   2.152  1.5881  0.7153 -0.7826
 6378TIP3    H240770   4.822   3.384   2.244 -0.3486  0.5261 -0.0905
 6379TIP3   OH240771   4.949   3.491   8.364  0.0317 -0.3987  0.6290
 6379TIP3    H140772   4.904   3.433   8.303 -0.1979  0.1963  0.2294
 6379TIP3    H240773   4.887   3.563   8.379  0.2929 -0.2753  1.1599
 6380TIP3   OH240774   1.926   4.439   7.800  0.7968  0.1077  0.1975
 6380TIP3    H140775   2.000   4.378   7.801  1.2142  0.6091  0.2476
 6380TIP3    H240776   1.924   4.472   7.710  1.3171  0.9031  0.4627
 6381TIP3   OH240777   5.693   0.937   8.359 -0.6791  0.4888 -0.0646
 6381TIP3    H140778   5.675   0.981   8.442  0.5798 -0.8519  0.9669
 6381TIP3    H240779   5.721   1.008   8.301  0.7177  1.2058  1.3771
 6382TIP3   OH240780   4.459   2.799   2.365  0.4017  0.0376  0.0534
 6382TIP3    H140781   4.487   2.823   2.453  0.5859 -0.2006  0.0622
 6382TIP3    H240782   4.472   2.704   2.361  0.6150  0.0812 -0.3076
 6383TIP3   OH240783   1.396   6.040   2.248  0.0817 -0.3574 -0.0150
 6383TIP3    H140784   1.382   6.122   2.201  1.4030 -0.1483 -0.0912
 6383TIP3    H240785   1.347   6.050   2.329 -0.7061  0.0346 -0.5312
 6384TIP3   OH240786   3.670   6.822   2.625  0.4412 -0.0143 -0.0103
 6384TIP3    H140787   3.758   6.816   2.661 -0.0684 -0.3370  1.2220
 6384TIP3    H240788   3.612   6.805   2.699 -0.6824  1.0521 -0.6029
 6385TIP3   OH240789   0.471   1.431   2.545 -0.4671 -0.1804 -0.4969
 6385TIP3    H140790   0.467   1.374   2.623 -0.6306  1.3971  0.6989
 6385TIP3    H240791   0.556   1.473   2.551 -0.3670 -0.2513 -1.3509
 6386TIP3   OH240792   1.051   5.009   0.657  0.1651 -0.4943  0.7741
 6386TIP3    H140793   0.998   4.929   0.665 -0.5247 -0.1952 -0.5572
 6386TIP3    H240794   1.141   4.978   0.650  0.0785 -1.0627  1.9375
 6387TIP3   OH240795   5.386   6.201   3.460 -0.3440  0.4283 -0.1542
 6387TIP3    H140796   5.316   6.177   3.520  0.7012  0.2710  1.0357
 6387TIP3    H240797   5.360   6.286   3.425 -0.8679  0.6167  0.6748
 6388TIP3   OH240798   1.288   1.216   3.261  0.3045 -0.4594 -0.6412
 6388TIP3    H140799   1.272   1.243   3.171  1.5595  1.0176 -0.4628
 6388TIP3    H240800   1.201   1.196   3.296 -0.1490 -1.8293 -2.3655
 6389TIP3   OH240801   3.837   2.211   3.724 -0.1843  0.3275 -0.6738
 6389TIP3    H140802   3.864   2.303   3.718  0.1189  0.2663 -0.2826
 6389TIP3    H240803   3.754   2.207   3.677  0.7094  0.4273 -2.3494
 6390TIP3   OH240804   4.972   3.569   2.035 -0.0553 -0.0571 -0.2209
 6390TIP3    H140805   4.968   3.635   2.105  1.7110  1.3992 -1.3761
 6390TIP3    H240806   5.018   3.495   2.075 -1.5061 -0.3971  0.9181
 6391TIP3   OH240807   4.933   1.306   1.553 -0.6455  0.1142  0.0463
 6391TIP3    H140808   4.904   1.219   1.525 -1.1526 -0.0027  0.8988
 6391TIP3    H240809   4.901   1.365   1.485  0.7150 -0.4798 -1.1559
 6392TIP3   OH240810   5.419   2.182   0.899 -0.3037 -0.0870  0.1950
 6392TIP3    H140811   5.364   2.261   0.906 -0.0574 -0.0179  1.6059
 6392TIP3    H240812   5.439   2.159   0.989 -0.8552 -2.1331 -0.1668
 6393TIP3   OH240813   3.973   3.049   1.070 -0.7918  0.7641 -0.6278
 6393TIP3    H140814   4.049   3.069   1.124 -0.7275  0.5991 -0.6558
 6393TIP3    H240815   3.986   3.102   0.990  0.2227 -0.6118 -1.4144
 6394TIP3   OH240816   4.756   3.867   2.087 -0.2350  0.2875 -0.0373
 6394TIP3    H140817   4.690   3.935   2.096  0.2558  0.6779  0.7014
 6394TIP3    H240818   4.839   3.915   2.086  0.0593 -0.2196 -0.6149
 6395TIP3   OH240819   5.009   5.453   1.274 -0.4782  0.3496 -0.5735
 6395TIP3    H140820   5.071   5.439   1.346  0.0404  1.4428 -0.7891
 6395TIP3    H240821   4.942   5.386   1.287  1.0384 -1.2563 -0.6652
 6396TIP3   OH240822   4.164   2.172   1.533 -0.3467  0.3496  0.7472
 6396TIP3    H140823   4.205   2.087   1.520  1.1641  1.3533 -1.8729
 6396TIP3    H240824   4.237   2.234   1.540 -1.4003  1.6339  0.9563
 6397TIP3   OH240825   0.368   4.661   7.426  0.1478 -0.1614  0.0355
 6397TIP3    H140826   0.274   4.663   7.412 -0.2221  0.3371  2.1518
 6397TIP3    H240827   0.389   4.568   7.440 -0.2642 -0.1523  0.7685
 6398TIP3   OH240828   3.913   5.260   2.210  0.3377  0.2657 -0.2013
 6398TIP3    H140829   3.839   5.271   2.270  0.1665  1.7671 -0.6294
 6398TIP3    H240830   3.877   5.209   2.137  0.1165 -0.2022  0.2284
 6399TIP3   OH240831   1.159   4.778   2.434 -0.1669  0.2105 -0.0919
 6399TIP3    H140832   1.178   4.744   2.521 -0.4297 -0.0164 -0.1198
 6399TIP3    H240833   1.117   4.704   2.388 -2.6575  1.1504  0.4994
 6400TIP3   OH240834   5.891   4.934   2.662  0.1081  0.0346 -0.6097
 6400TIP3    H140835   5.906   4.878   2.585  0.3614 -1.4650  0.4914
 6400TIP3    H240836   5.809   4.902   2.699  1.7608 -1.8179  1.7983
 6401TIP3   OH240837   6.158   0.729   0.622  0.7658  0.3450  0.0186
 6401TIP3    H140838   6.121   0.645   0.651  1.5564 -0.4424 -1.1783
 6401TIP3    H240839   6.087   0.771   0.574  1.0448 -0.7064 -1.3884
 6402TIP3   OH240840   1.940   1.717   1.588 -0.6282  0.3748 -0.0762
 6402TIP3    H140841   1.941   1.645   1.524  1.7968  0.4076 -0.1384
 6402TIP3    H240842   1.969   1.793   1.538 -0.0071  0.6890  0.7457
 6403TIP3   OH240843   6.761   6.512   3.643 -0.4422  0.2258  0.2803
 6403TIP3    H140844   6.814   6.575   3.693 -0.6899  1.1584 -0.6239
 6403TIP3    H240845   6.671   6.541   3.656 -0.5650 -0.0061 -0.0635
 6404TIP3   OH240846   0.861   6.269   3.389 -0.6319 -0.7274  0.0055
 6404TIP3    H140847   0.930   6.260   3.322  1.2470 -0.8007  1.8568
 6404TIP3    H240848   0.851   6.180   3.424 -3.2617 -1.1874 -1.6277
 6405TIP3   OH240849   1.406   3.255   2.330  0.4227 -0.7561  0.2434
 6405TIP3    H140850   1.372   3.189   2.391 -0.2203 -1.9195 -1.3050
 6405TIP3    H240851   1.499   3.234   2.322  1.3808  1.5316  3.3588
 6406TIP3   OH240852   4.893   3.940   8.464 -0.1661  0.2126 -0.3521
 6406TIP3    H140853   4.864   3.975   8.548  1.7440 -1.7606  1.2406
 6406TIP3    H240854   4.880   4.013   8.402 -2.4909  1.4336  1.3813
 6407TIP3   OH240855   0.561   2.711   7.411  0.3966  0.1375 -0.4433
 6407TIP3    H140856   0.612   2.785   7.377  0.3792 -0.8425 -2.8427
 6407TIP3    H240857   0.485   2.751   7.452  0.0239  1.5041 -2.2873
 6408TIP3   OH240858   0.257   1.191   0.136 -0.4458 -0.6382  0.8811
 6408TIP3    H140859   0.217   1.277   0.148  1.7443  0.6130 -0.3788
 6408TIP3    H240860   0.276   1.185   0.043 -1.8979 -3.1849  0.6329
 6409TIP3   OH240861   4.855   1.223   8.367 -0.6737 -0.1555 -0.3602
 6409TIP3    H140862   4.768   1.217   8.406 -0.7264 -0.6465 -0.5509
 6409TIP3    H240863   4.915   1.207   8.440 -0.7794 -1.3669 -0.5220
 6410TIP3   OH240864   4.120   0.767   3.111  0.9536  0.3026 -0.3409
 6410TIP3    H140865   4.027   0.776   3.088  1.1612 -1.1634 -1.9888
 6410TIP3    H240866   4.147   0.686   3.067  2.9076  0.4508  0.5063
 6411TIP3   OH240867   2.649   0.547   1.904 -0.7783  0.2571 -0.0063
 6411TIP3    H140868   2.742   0.536   1.925 -0.4512  0.2278 -1.3959
 6411TIP3    H240869   2.614   0.458   1.898 -0.9618  0.2717  0.7434
 6412TIP3   OH240870   2.395   3.875   8.253  0.0422 -0.7411 -0.0516
 6412TIP3    H140871   2.432   3.863   8.166 -1.5533 -1.5937 -0.6571
 6412TIP3    H240872   2.405   3.790   8.296 -2.1383 -1.3591 -0.6430
 6413TIP3   OH240873   3.655   5.888   0.797 -0.4484  0.0013 -0.3412
 6413TIP3    H140874   3.742   5.855   0.775 -0.4170 -1.4943  1.7826
 6413TIP3    H240875   3.671   5.975   0.834 -0.2435  1.2122 -3.0643
 6414TIP3   OH240876   3.750   1.786   2.842 -0.1713  0.0899  0.9113
 6414TIP3    H140877   3.725   1.780   2.935 -1.3101  0.7779  0.6756
 6414TIP3    H240878   3.791   1.872   2.834  0.1155 -0.0569  0.8259
 6415TIP3   OH240879   4.208   5.977   0.218 -0.0767 -0.0508  0.1401
 6415TIP3    H140880   4.196   6.041   0.147  0.5264 -0.0617  0.0228
 6415TIP3    H240881   4.180   6.023   0.297 -2.8352 -0.7313 -0.3447
 6416TIP3   OH240882   3.768   1.190   0.837 -0.1147  0.5892  0.0550
 6416TIP3    H140883   3.693   1.248   0.827  0.7194  1.5927 -0.6406
 6416TIP3    H240884   3.822   1.207   0.759 -0.7688 -2.5643 -1.2271
 6417TIP3   OH240885   3.904   3.634   1.053 -0.6976  0.0738  0.5748
 6417TIP3    H140886   3.856   3.577   1.112  0.1134  0.1249  1.3037
 6417TIP3    H240887   3.851   3.636   0.973 -0.9440 -1.3596  0.6839
 6418TIP3   OH240888   5.818   4.582   3.030 -0.4655 -0.1388 -0.6885
 6418TIP3    H140889   5.871   4.505   3.012 -1.4869 -0.8733 -0.6044
 6418TIP3    H240890   5.759   4.556   3.101  0.7349  1.4393  1.0006
 6419TIP3   OH240891   1.528   0.976   1.354  0.2036  0.1167  0.1312
 6419TIP3    H140892   1.532   1.009   1.264  1.4581  1.9744  0.8055
 6419TIP3    H240893   1.440   0.941   1.363 -0.5408  1.5245 -1.2896
 6420TIP3   OH240894   1.123   3.356   2.739  0.1214  0.2621  0.3511
 6420TIP3    H140895   1.119   3.374   2.645 -0.5944  0.9343  0.5001
 6420TIP3    H240896   1.103   3.263   2.746 -1.3889  0.5303 -0.0615
 6421TIP3   OH240897   3.630   4.326   8.148 -0.0933 -0.0630 -0.5799
 6421TIP3    H140898   3.662   4.257   8.089  0.7193  0.1470 -0.3994
 6421TIP3    H240899   3.617   4.402   8.091 -0.3806 -0.1755 -0.6698
 6422TIP3   OH240900   4.233   5.295   0.235 -0.0253  0.0292  0.0654
 6422TIP3    H140901   4.205   5.375   0.279 -0.9988 -0.3818  0.2235
 6422TIP3    H240902   4.203   5.224   0.292  1.4753 -0.4539  0.3027
 6423TIP3   OH240903   3.909   2.274   3.163  0.0249  0.2648 -0.6817
 6423TIP3    H140904   3.893   2.288   3.069  1.2104 -0.0788 -0.9525
 6423TIP3    H240905   4.004   2.270   3.170 -0.0840 -1.5209  0.2686
 6424TIP3   OH240906   2.168   6.066   1.201  0.2523  0.3488  0.3561
 6424TIP3    H140907   2.110   6.104   1.266  0.9209  2.0955 -0.0124
 6424TIP3    H240908   2.110   6.033   1.133 -0.4283 -1.0641  1.5709
 6425TIP3   OH240909   6.403   1.893   0.895 -0.1804  0.6385 -0.0275
 6425TIP3    H140910   6.370   1.975   0.858  0.5467  1.0349  0.1827
 6425TIP3    H240911   6.492   1.914   0.924 -0.2716 -0.0151  0.7514
 6426TIP3   OH240912   3.493   3.023   2.409 -0.1129  0.2444  0.0942
 6426TIP3    H140913   3.434   3.050   2.338 -0.5790  0.0091  0.3871
 6426TIP3    H240914   3.436   3.015   2.486  0.4220  0.6922  0.5475
 6427TIP3   OH240915   6.672   0.399   7.700 -0.1294  0.4340  0.0639
 6427TIP3    H140916   6.690   0.342   7.625  0.3466  1.1216 -0.3597
 6427TIP3    H240917   6.664   0.486   7.662 -0.9375  0.6527  0.6903
 6428TIP3   OH240918   6.492   5.783   3.093 -0.1219 -0.0189  0.1524
 6428TIP3    H140919   6.584   5.758   3.106  0.6044  1.9417 -0.7823
 6428TIP3    H240920   6.466   5.820   3.178  0.3608  0.5763  0.0475
 6429TIP3   OH240921   1.263   2.925   1.342 -0.0677 -1.1645 -0.2278
 6429TIP3    H140922   1.243   2.902   1.251  3.7962 -3.0345 -0.8218
 6429TIP3    H240923   1.258   3.021   1.344 -0.3644 -1.0890 -2.3889
 6430TIP3   OH240924   6.746   4.818   3.840 -0.0598  0.1909  0.4786
 6430TIP3    H140925   6.764   4.730   3.807 -1.2727 -0.5045  1.6034
 6430TIP3    H240926   6.803   4.827   3.916  0.1727  0.4445  0.2770
 6431TIP3   OH240927   3.069   1.970   2.572  0.0670  0.0413  0.1164
 6431TIP3    H140928   3.109   2.041   2.622  1.0084 -0.3603 -0.0535
 6431TIP3    H240929   3.008   2.015   2.513  0.5246  0.6939  0.1242
 6432TIP3   OH240930   6.743   6.388   8.149 -0.1320  0.1415 -0.0228
 6432TIP3    H140931   6.703   6.433   8.224  0.5492  0.0662  0.3968
 6432TIP3    H240932   6.730   6.449   8.076  0.4564  0.8734  0.4624
 6433TIP3   OH240933   6.534   4.611   1.628  0.4932  0.0494 -0.6653
 6433TIP3    H140934   6.481   4.534   1.606  1.7805 -0.6890 -1.2471
 6433TIP3    H240935   6.585   4.629   1.549  0.6127  1.1939 -0.3544
 6434TIP3   OH240936   6.107   4.389   0.419  0.3943 -0.0328 -0.0826
 6434TIP3    H140937   6.097   4.362   0.328 -0.9746  1.1763 -0.3408
 6434TIP3    H240938   6.156   4.471   0.415  0.0932  0.1682  0.2245
 6435TIP3   OH240939   0.664   3.454   1.830  0.0552 -0.1028 -0.5378
 6435TIP3    H140940   0.599   3.475   1.764  1.7083 -0.0949 -2.2422
 6435TIP3    H240941   0.740   3.507   1.806 -0.1985  2.3458  3.1881
 6436TIP3   OH240942   0.680   2.062   2.496 -0.3977  0.2852 -0.5257
 6436TIP3    H140943   0.722   2.102   2.572  1.3050 -0.8510 -0.8145
 6436TIP3    H240944   0.597   2.028   2.529 -0.7580  1.8421  0.2643
 6437TIP3   OH240945   0.169   0.741   3.255 -0.0642  0.4848  0.0354
 6437TIP3    H140946   0.263   0.725   3.260 -0.2671 -0.5607  0.9421
 6437TIP3    H240947   0.151   0.801   3.328 -0.2525 -0.1615  0.5277
 6438TIP3   OH240948   1.830   3.816   7.801 -0.6263  0.1256  0.0444
 6438TIP3    H140949   1.912   3.819   7.851 -0.2165  1.1594 -0.6537
 6438TIP3    H240950   1.853   3.769   7.721 -0.1667  2.1531 -1.0618
 6439TIP3   OH240951   3.520   3.575   8.418 -0.0480  0.1080  0.7011
 6439TIP3    H140952   3.426   3.560   8.409 -0.2094  0.9511  0.9399
 6439TIP3    H240953   3.552   3.499   8.467 -0.3139 -1.0230 -0.8101
 6440TIP3   OH240954   0.041   5.544   2.802  0.9142 -0.5362 -0.0793
 6440TIP3    H140955   0.133   5.537   2.830  2.1023  1.8026 -2.8545
 6440TIP3    H240956   0.034   5.483   2.728  0.0800 -1.0424  0.4079
 6441TIP3   OH240957   1.705   2.850   1.280 -0.1807  0.0802 -0.2580
 6441TIP3    H140958   1.767   2.885   1.216  0.1648 -1.7613 -0.9879
 6441TIP3    H240959   1.760   2.807   1.345 -0.6398 -0.5553 -0.2876
 6442TIP3   OH240960   6.265   0.741   1.158  0.3447  0.1026 -0.0032
 6442TIP3    H140961   6.241   0.814   1.215 -0.5775 -0.5390  0.4504
 6442TIP3    H240962   6.197   0.739   1.090 -0.2313 -0.9516  0.5766
 6443TIP3   OH240963   3.473   3.411   2.111 -0.5066 -0.1371  0.6240
 6443TIP3    H140964   3.473   3.316   2.120 -1.3804 -0.0664  1.6130
 6443TIP3    H240965   3.518   3.428   2.028  0.3482 -1.3658  0.8105
 6444TIP3   OH240966   3.607   4.702   1.078  0.1908 -0.1951 -0.2276
 6444TIP3    H140967   3.648   4.646   1.012  0.1156 -0.7959  0.2300
 6444TIP3    H240968   3.585   4.782   1.030 -0.0287 -0.6860 -0.9747
 6445TIP3   OH240969   4.232   0.023   1.239  0.3666 -0.3906  0.3630
 6445TIP3    H140970   4.152   0.040   1.189  0.1200 -0.0336  0.8581
 6445TIP3    H240971   4.287  -0.030   1.182  1.1571  2.0517 -1.3040
 6446TIP3   OH240972   2.164   4.574   1.452 -0.5117  0.3868 -0.2178
 6446TIP3    H140973   2.181   4.664   1.424 -2.4529  0.4187 -1.4597
 6446TIP3    H240974   2.081   4.580   1.499  0.1122 -0.5407  1.0509
 6447TIP3   OH240975   5.813   1.003   7.745  0.2854  0.0334  0.0040
 6447TIP3    H140976   5.898   0.969   7.718 -0.0640 -1.1250  0.3142
 6447TIP3    H240977   5.764   1.013   7.663  0.6494  0.5422 -0.1567
 6448TIP3   OH240978   0.333   5.610   0.069 -0.3376 -0.7574 -0.3723
 6448TIP3    H140979   0.239   5.589   0.066 -0.8775  1.5239 -1.9307
 6448TIP3    H240980   0.345   5.676   0.001  1.5651  2.3049  2.6250
 6449TIP3   OH240981   1.687   2.106   3.073  0.2753  0.2650 -0.2797
 6449TIP3    H140982   1.734   2.027   3.102 -0.0613 -0.7625 -2.3563
 6449TIP3    H240983   1.673   2.156   3.154  1.8010 -1.0816  0.8898
 6450TIP3   OH240984   0.781   1.468   3.686  0.0610  0.1173 -0.2034
 6450TIP3    H140985   0.752   1.535   3.624 -2.6693  1.1965  2.0251
 6450TIP3    H240986   0.814   1.397   3.632 -2.1322  1.0038 -2.9193
 6451TIP3   OH240987   6.545   5.175   7.713  0.4179 -0.5165  0.5734
 6451TIP3    H140988   6.566   5.103   7.653 -0.4460 -0.1425 -0.2072
 6451TIP3    H240989   6.449   5.178   7.713  0.4373  0.1864  1.1430
 6452TIP3   OH240990   0.829   0.395   0.971  0.3025 -0.6391  0.5634
 6452TIP3    H140991   0.897   0.442   0.923 -0.0279 -1.0980 -0.3778
 6452TIP3    H240992   0.874   0.319   1.008  0.7943  0.2667  1.9184
 6453TIP3   OH240993   4.183   4.505   1.374 -0.0787 -0.0730  0.5458
 6453TIP3    H140994   4.138   4.461   1.301 -0.5190 -0.6910  1.1805
 6453TIP3    H240995   4.179   4.443   1.446  1.1566  0.1617  0.8490
 6454TIP3   OH240996   1.100   0.641   1.417  0.6147 -0.1258 -0.0415
 6454TIP3    H140997   1.083   0.550   1.443  0.5510 -0.0868  0.0568
 6454TIP3    H240998   1.013   0.677   1.399  0.7597 -0.6153 -1.9157
 6455TIP3   OH240999   5.391   5.848   2.967 -0.1544 -0.1703  0.1131
 6455TIP3    H141000   5.326   5.850   2.898  0.5444 -0.2731 -0.5602
 6455TIP3    H241001   5.403   5.755   2.987  0.1397 -0.1781 -0.1024
 6456TIP3   OH241002   2.018   5.601   0.859 -0.0041 -0.0660 -0.2401
 6456TIP3    H141003   2.107   5.635   0.870  0.4725 -1.3844  0.1964
 6456TIP3    H241004   2.007   5.539   0.931 -2.5836  2.5391  1.8355
 6457TIP3   OH241005   1.694   2.057   0.425 -0.2339 -0.1734 -0.0420
 6457TIP3    H141006   1.782   2.083   0.453 -0.2928  2.0182 -1.6107
 6457TIP3    H241007   1.704   2.033   0.333 -1.2956  0.2665 -0.2844
 6458TIP3   OH241008   3.832   5.599   1.146 -0.0047  0.5641  0.3049
 6458TIP3    H141009   3.737   5.604   1.155 -0.1321 -0.2836 -0.4620
 6458TIP3    H241010   3.859   5.539   1.215 -0.3479 -1.3423 -1.1395
 6459TIP3   OH241011   3.609   5.277   2.277  0.3196  0.3191 -0.0538
 6459TIP3    H141012   3.597   5.258   2.370 -0.1450  0.2077 -0.1328
 6459TIP3    H241013   3.602   5.192   2.235  1.9664  0.1548 -0.0685
 6460TIP3   OH241014   2.383   0.079   1.739 -0.0100  0.6118  0.3326
 6460TIP3    H141015   2.325   0.093   1.813  1.6926  1.3688  1.5882
 6460TIP3    H241016   2.417   0.166   1.718  1.8384  0.0087  0.6519
 6461TIP3   OH241017   0.812   1.385   2.821  0.0565 -0.2138  0.2329
 6461TIP3    H141018   0.899   1.350   2.841 -0.3265 -0.8989  0.7188
 6461TIP3    H241019   0.779   1.417   2.905  0.2754  1.0561 -0.1460
 6462TIP3   OH241020   6.877   4.444   3.219 -0.9302 -0.0338 -0.5247
 6462TIP3    H141021   6.910   4.507   3.155  0.0553 -0.6805 -0.6887
 6462TIP3    H241022   6.840   4.497   3.289 -1.3296  0.6960 -1.2747
 6463TIP3   OH241023   5.898   1.903   0.353  0.1935 -0.1760  0.1159
 6463TIP3    H141024   5.920   1.995   0.370  0.4171 -0.1545 -0.2990
 6463TIP3    H241025   5.981   1.863   0.328  0.0253 -0.4078 -0.0695
 6464TIP3   OH241026   0.069   6.163   8.467  0.1792 -0.5218 -0.0089
 6464TIP3    H141027   0.098   6.080   8.430 -1.9509 -1.4159  0.1627
 6464TIP3    H241028   0.089   6.156   8.560  0.1685 -0.7741 -0.0245
 6465TIP3   OH241029   5.740   3.913   7.968 -0.4477  0.1755 -0.3111
 6465TIP3    H141030   5.714   3.832   8.010 -1.0473  0.4489 -0.1395
 6465TIP3    H241031   5.657   3.958   7.948 -0.1361  1.7304  1.5487
 6466TIP3   OH241032   3.841   3.660   0.162  0.0867 -0.6756  0.1552
 6466TIP3    H141033   3.935   3.655   0.181 -0.2281 -1.0711  1.6974
 6466TIP3    H241034   3.825   3.587   0.102  0.5479 -1.3240  0.8128
 6467TIP3   OH241035   0.836   2.749   0.395  0.0815 -0.1800  0.5462
 6467TIP3    H141036   0.907   2.704   0.441  0.6590  0.7534  0.6029
 6467TIP3    H241037   0.871   2.767   0.308  0.3776  1.3246  0.9435
 6468TIP3   OH241038   2.841   1.445   0.496  0.6950 -0.6687  0.0786
 6468TIP3    H141039   2.810   1.357   0.473 -1.1000 -0.0819  0.1013
 6468TIP3    H241040   2.772   1.481   0.551  0.5846  1.3582 -1.2834
 6469TIP3   OH241041   3.561   0.273   7.436  0.5336  0.1928  0.0347
 6469TIP3    H141042   3.490   0.325   7.472  0.7143 -0.6836  1.7693
 6469TIP3    H241043   3.640   0.325   7.452  0.4935  0.3073 -0.1366
 6470TIP3   OH241044   4.834   4.181   7.910 -0.2033 -0.3496  0.4467
 6470TIP3    H141045   4.747   4.180   7.870 -0.0718  0.0983  0.1483
 6470TIP3    H241046   4.839   4.265   7.955 -0.0051 -0.4665  0.6467
 6471TIP3   OH241047   0.503   1.454   7.256 -0.3309 -0.7355  0.4277
 6471TIP3    H141048   0.472   1.540   7.228  0.1708 -0.4235  0.8125
 6471TIP3    H241049   0.434   1.394   7.230 -0.9079 -0.1538  0.5995
 6472TIP3   OH241050   1.451   0.622   3.280 -0.3790  0.1329  0.2022
 6472TIP3    H141051   1.415   0.550   3.332 -0.5095 -0.6328 -0.9151
 6472TIP3    H241052   1.440   0.594   3.190 -0.8461  1.7793 -0.2745
 6473TIP3   OH241053   0.794   3.639   8.354  0.0553 -0.3833 -0.2721
 6473TIP3    H141054   0.813   3.551   8.386  0.3927 -0.3570 -0.4002
 6473TIP3    H241055   0.789   3.630   8.259  0.0754 -0.2687 -0.2846
 6474TIP3   OH241056   2.402   5.036   1.378  0.5649  0.2574 -0.0899
 6474TIP3    H141057   2.371   5.053   1.289 -0.7636  0.5911  0.4052
 6474TIP3    H241058   2.404   5.122   1.419 -3.8830 -0.2407  1.7148
 6475TIP3   OH241059   1.187   4.163   3.280 -0.2856  0.0215  0.6300
 6475TIP3    H141060   1.274   4.195   3.305  0.5396 -1.8586  0.3500
 6475TIP3    H241061   1.145   4.141   3.363  0.1705 -0.6533  0.6899
 6476TIP3   OH241062   5.743   6.635   1.295 -0.0923  0.2736 -0.7626
 6476TIP3    H141063   5.725   6.602   1.383  3.9022  2.1643  1.0121
 6476TIP3    H241064   5.679   6.706   1.283 -0.1299  0.6073  1.0728
 6477TIP3   OH241065   1.990   1.455   1.761 -0.4418  0.6367  0.3137
 6477TIP3    H141066   1.936   1.501   1.696 -1.0335  2.2099  1.8177
 6477TIP3    H241067   2.067   1.511   1.772  0.4517 -0.4613 -0.2026
 6478TIP3   OH241068   1.205   3.102   8.192  0.1593  0.4715  0.4345
 6478TIP3    H141069   1.300   3.109   8.184  0.4501 -1.8903  1.0674
 6478TIP3    H241070   1.176   3.065   8.108  0.1598 -1.0820  1.0725
 6479TIP3   OH241071   2.892   5.050   8.340  0.2513  0.2382  0.0214
 6479TIP3    H141072   2.986   5.034   8.348  0.1245 -0.0560  1.0874
 6479TIP3    H241073   2.868   5.010   8.256  0.7437 -1.3574  0.5996
 6480TIP3   OH241074   1.380   5.605   8.664  0.7627 -0.9707  0.0204
 6480TIP3    H141075   1.381   5.631   8.572 -2.0996 -0.2941  0.0700
 6480TIP3    H241076   1.393   5.686   8.712  1.5528 -1.2171  0.2382
 6481TIP3   OH241077   1.265   1.464   0.902  0.3186  0.0324  0.3153
 6481TIP3    H141078   1.267   1.514   0.820  1.8951 -1.3135 -0.5263
 6481TIP3    H241079   1.302   1.523   0.967 -0.9050  1.0985  0.0872
 6482TIP3   OH241080   6.646   3.183   1.020  0.0510  1.0326 -0.1558
 6482TIP3    H141081   6.616   3.240   0.950 -1.2467  1.3475  0.6172
 6482TIP3    H241082   6.712   3.234   1.066  1.3801  0.5791 -1.4980
 6483TIP3   OH241083   5.197   0.110   8.280 -0.1616  0.4252 -0.1815
 6483TIP3    H141084   5.103   0.093   8.281 -0.0609 -0.7409 -2.7778
 6483TIP3    H241085   5.236   0.033   8.321 -0.2597 -0.0889 -1.0408
 6484TIP3   OH241086   5.890   4.246   1.265  0.2862 -0.7827 -0.1850
 6484TIP3    H141087   5.822   4.313   1.256 -1.3717 -2.0076  2.2702
 6484TIP3    H241088   5.845   4.163   1.247  1.5492 -1.5136 -0.1176
 6485TIP3   OH241089   5.878   0.575   3.298  0.0793 -0.3640  0.4186
 6485TIP3    H141090   5.970   0.548   3.300 -0.2560 -1.5227  1.3085
 6485TIP3    H241091   5.863   0.617   3.382 -0.0661  0.3774  0.0330
 6486TIP3   OH241092   1.108   5.875   7.491 -0.3113  0.7712 -0.2346
 6486TIP3    H141093   1.029   5.929   7.492 -0.7873  0.2720 -2.7776
 6486TIP3    H241094   1.180   5.937   7.499 -0.9121  1.4865 -0.2855
 6487TIP3   OH241095   1.326   1.171   2.272  0.2126  0.4050  0.3084
 6487TIP3    H141096   1.399   1.212   2.317 -0.2089  1.8114 -0.2261
 6487TIP3    H241097   1.260   1.241   2.265 -0.6749 -0.4678 -0.3305
 6488TIP3   OH241098   5.694   1.307   8.279  0.3746  0.9532  0.0208
 6488TIP3    H141099   5.611   1.333   8.239 -0.8447 -0.3298  1.5490
 6488TIP3    H241100   5.755   1.376   8.255 -0.9504  1.5771 -1.7541
 6489TIP3   OH241101   0.691   3.158   7.417 -0.1595  0.1877  0.0219
 6489TIP3    H141102   0.654   3.246   7.411 -0.9011 -0.1975 -1.4088
 6489TIP3    H241103   0.621   3.104   7.453  0.3777  0.1967  1.1472
 6490TIP3   OH241104   4.023   5.969   2.727  0.2560  0.0531  0.0078
 6490TIP3    H141105   4.011   6.061   2.703 -0.2345 -0.0064  0.0107
 6490TIP3    H241106   4.042   5.925   2.644 -1.8549 -0.2231 -0.3806
 6491TIP3   OH241107   4.167   1.410   1.527 -0.0197 -0.0539  0.1847
 6491TIP3    H141108   4.109   1.362   1.468  0.4378 -0.4274  0.0396
 6491TIP3    H241109   4.252   1.411   1.483 -0.2095  1.6299 -0.2384
 6492TIP3   OH241110   5.672   5.958   0.768 -0.2727  0.1425 -0.2771
 6492TIP3    H141111   5.685   5.866   0.744  0.5530 -0.0457  0.8188
 6492TIP3    H241112   5.600   5.987   0.712  1.6262 -0.1957 -3.1501
 6493TIP3   OH241113   4.826   1.485   7.781  0.5272  0.1531  0.4994
 6493TIP3    H141114   4.763   1.476   7.853  0.5070  0.6786  0.5546
 6493TIP3    H241115   4.780   1.538   7.716  0.4694 -0.4986  0.0061
 6494TIP3   OH241116   6.326   3.573   0.371 -0.0574 -0.0691  0.2314
 6494TIP3    H141117   6.355   3.505   0.310 -1.0120 -0.1525 -0.1577
 6494TIP3    H241118   6.384   3.565   0.446 -1.7575 -3.1573  1.4052
 6495TIP3   OH241119   5.017   4.329   1.915  0.2102 -0.0993 -0.2683
 6495TIP3    H141120   5.065   4.387   1.974 -0.0994 -0.9760  0.8930
 6495TIP3    H241121   4.992   4.385   1.842  0.7316  0.9951  0.3546
 6496TIP3   OH241122   5.065   0.908   0.979 -0.5516  0.0668 -0.3589
 6496TIP3    H141123   4.974   0.918   0.951  0.2818  2.6630 -2.5237
 6496TIP3    H241124   5.080   0.981   1.038  0.7220  1.1193 -1.9079
 6497TIP3   OH241125   0.645   0.649   8.283 -0.2837 -0.0357 -0.7117
 6497TIP3    H141126   0.727   0.660   8.332 -1.0073  1.2252  0.2731
 6497TIP3    H241127   0.624   0.737   8.252 -2.1132  0.0171  0.4881
 6498TIP3   OH241128   1.007   1.993   0.881 -0.5153  0.5898 -0.5511
 6498TIP3    H141129   0.985   2.011   0.973 -0.5512  0.5102 -0.5439
 6498TIP3    H241130   0.926   1.959   0.844  0.0055 -1.2195 -0.1239
 6499TIP3   OH241131   6.698   4.308   8.464 -0.2634  0.0323 -0.0169
 6499TIP3    H141132   6.673   4.239   8.526 -0.3421  0.8742  0.9290
 6499TIP3    H241133   6.647   4.384   8.492 -0.0110  0.5353 -0.9006
 6500TIP3   OH241134   0.972   2.474   1.929  0.2076 -0.2006  0.2007
 6500TIP3    H141135   0.892   2.499   1.975 -0.0674 -0.1352 -0.3129
 6500TIP3    H241136   0.953   2.389   1.891 -0.6945  1.0911 -2.4465
 6501TIP3   OH241137   1.648   3.911   2.748  0.1800  0.6164 -0.3645
 6501TIP3    H141138   1.592   3.848   2.703 -0.6157  1.0650 -0.0060
 6501TIP3    H241139   1.734   3.869   2.749  0.2800  0.6603 -2.4694
 6502TIP3   OH241140   1.831   0.276   0.268 -0.0095  0.1316 -0.2581
 6502TIP3    H141141   1.740   0.267   0.241  0.0298  0.2351 -0.4283
 6502TIP3    H241142   1.836   0.362   0.310  0.0383  0.1841 -0.3701
 6503TIP3   OH241143   0.244   4.663   2.672  0.6066 -0.0298 -0.6203
 6503TIP3    H141144   0.285   4.626   2.594  1.7111  1.0417 -0.5760
 6503TIP3    H241145   0.289   4.622   2.745  1.8972  1.4021 -0.5707
 6504TIP3   OH241146   5.122   5.320   1.552  0.1842  0.1407  0.2223
 6504TIP3    H141147   5.052   5.371   1.592 -0.8110 -2.5984  2.3131
 6504TIP3    H241148   5.194   5.326   1.615  0.1811 -0.6648  0.3133
 6505TIP3   OH241149   5.218   5.546   1.072  0.0437 -0.2601 -0.0350
 6505TIP3    H141150   5.302   5.552   1.116  0.4057 -0.9257 -0.6122
 6505TIP3    H241151   5.174   5.472   1.113  0.8014 -1.5379 -1.4374
 6506TIP3   OH241152   0.666   1.299   7.446 -0.4812  0.1002 -0.8673
 6506TIP3    H141153   0.744   1.260   7.406  2.1081  3.6024  0.2748
 6506TIP3    H241154   0.622   1.345   7.375  0.1485  0.4821 -1.0158
 6507TIP3   OH241155   1.674   3.723   1.462  0.2428 -0.0265 -0.2516
 6507TIP3    H141156   1.592   3.773   1.454 -0.3901 -0.9828  0.0129
 6507TIP3    H241157   1.719   3.762   1.537 -0.0403  0.4095 -0.3014
 6508TIP3   OH241158   3.243   3.909   2.670 -0.5762  0.4164 -0.2558
 6508TIP3    H141159   3.172   3.972   2.668  0.5408  1.7064 -0.5420
 6508TIP3    H241160   3.270   3.904   2.761 -0.0768  1.0679 -0.3569
 6509TIP3   OH241161   0.489   1.708   8.554  0.0797 -0.5783 -0.0712
 6509TIP3    H141162   0.473   1.721   8.647 -1.5341 -1.5693 -0.1647
 6509TIP3    H241163   0.481   1.795   8.516  0.6595 -0.1806  0.7058
 6510TIP3   OH241164   2.896   3.764   1.055 -0.3804  0.2074 -0.2934
 6510TIP3    H141165   2.819   3.784   1.108  1.0946  0.4964  1.8601
 6510TIP3    H241166   2.958   3.834   1.076  1.0783 -0.9292 -0.6579
 6511TIP3   OH241167   5.596   1.133   3.340  0.1737 -0.0556  0.0366
 6511TIP3    H141168   5.673   1.142   3.397 -0.3038 -2.0433  1.1068
 6511TIP3    H241169   5.539   1.206   3.365  1.7193  1.5539 -0.8960
 6512TIP3   OH241170   3.699   6.681   2.147 -0.0295 -0.1969 -0.2501
 6512TIP3    H141171   3.604   6.676   2.163  0.1961 -0.5460  1.1139
 6512TIP3    H241172   3.738   6.669   2.233  1.2426  1.7361 -0.5049
 6513TIP3   OH241173   5.275   0.892   2.338  0.6619 -0.5836 -0.2970
 6513TIP3    H141174   5.269   0.904   2.433 -0.7958 -3.1310  0.0216
 6513TIP3    H241175   5.368   0.904   2.319  1.2645 -1.5552  1.7290
 6514TIP3   OH241176   5.781   3.963   2.551  0.3016  0.6173  0.3280
 6514TIP3    H141177   5.862   3.914   2.563  0.4659  1.0183  0.8362
 6514TIP3    H241178   5.809   4.051   2.528  0.0026  0.4090 -0.8942
 6515TIP3   OH241179   1.953   5.361   0.064 -0.5704  0.4389  0.2560
 6515TIP3    H141180   1.987   5.297   0.002 -1.4394 -1.3042  1.4797
 6515TIP3    H241181   1.858   5.360   0.051 -0.5407  2.4034 -0.4954
 6516TIP3   OH241182   0.545   5.206   1.295 -0.1622  0.2117  0.1811
 6516TIP3    H141183   0.552   5.250   1.380 -1.7380 -0.8662  0.9148
 6516TIP3    H241184   0.472   5.144   1.306  2.0778 -2.8096 -0.7107
 6517TIP3   OH241185   5.374   0.063   8.589  0.2299  0.3460 -0.1809
 6517TIP3    H141186   5.358  -0.019   8.542  1.2340  0.0159  0.0301
 6517TIP3    H241187   5.460   0.052   8.629  0.4280  1.5406 -0.2210
 6518TIP3   OH241188   3.696   1.360   2.397  0.2877 -0.2292  0.2801
 6518TIP3    H141189   3.737   1.419   2.334  1.0890 -0.9055  0.1500
 6518TIP3    H241190   3.741   1.277   2.385  1.2089 -0.1138  2.4768
 6519TIP3   OH241191   0.278   5.416   1.233  0.0875 -0.0579  0.1381
 6519TIP3    H141192   0.229   5.396   1.312 -0.2284 -0.7738 -0.2262
 6519TIP3    H241193   0.284   5.332   1.186  0.2769  0.3453 -0.5831
 6520TIP3   OH241194   1.083   1.132   1.757  0.3847 -0.1952  0.5452
 6520TIP3    H141195   1.009   1.074   1.736 -0.6459  0.6167  1.7263
 6520TIP3    H241196   1.046   1.221   1.751  1.6544  0.2967 -0.2259
 6521TIP3   OH241197   5.044   5.046   8.593 -0.0857  0.1271 -0.4571
 6521TIP3    H141198   4.999   5.123   8.560  1.1018  0.5588 -1.1010
 6521TIP3    H241199   5.137   5.062   8.577  0.1171 -2.0730 -2.0487
 6522TIP3   OH241200   1.233   4.708   7.661 -0.4828  0.4124  0.2777
 6522TIP3    H141201   1.187   4.782   7.622 -1.9249 -0.3665  0.4665
 6522TIP3    H241202   1.291   4.677   7.591 -1.2378  0.5615 -0.4315
 6523TIP3   OH241203   5.377   4.530   2.542  0.5934  0.2028 -0.1925
 6523TIP3    H141204   5.347   4.621   2.545 -1.6884 -0.5134  0.3210
 6523TIP3    H241205   5.362   4.497   2.631 -0.5979 -1.2399 -0.8929
 6524TIP3   OH241206   4.626   5.339   2.690  0.1778  0.2437 -0.2208
 6524TIP3    H141207   4.599   5.311   2.602 -1.0002  0.0218  0.2038
 6524TIP3    H241208   4.718   5.311   2.696 -0.2538 -1.3379 -0.7136
 6525TIP3   OH241209   0.234   4.900   2.005 -0.2662 -0.4041  0.2389
 6525TIP3    H141210   0.206   4.978   2.053  1.0863 -0.0536  0.5103
 6525TIP3    H241211   0.228   4.925   1.913  0.1911  0.0459  0.3247
 6526TIP3   OH241212   2.767   6.766   0.913 -0.4251 -0.3268  0.3406
 6526TIP3    H141213   2.702   6.698   0.933  0.9702 -1.1927  2.2435
 6526TIP3    H241214   2.720   6.849   0.926 -1.3968 -0.9243  0.7544
 6527TIP3   OH241215   0.544   0.803   8.535  0.5095 -0.2023  0.2070
 6527TIP3    H141216   0.591   0.736   8.486  0.2307  0.4405 -0.9583
 6527TIP3    H241217   0.459   0.763   8.554  1.1417 -1.0169  1.5266
 6528TIP3   OH241218   1.760   0.040   8.645 -0.2890 -0.1043  0.1033
 6528TIP3    H141219   1.795   0.026   8.733 -0.7360  0.6263  0.4099
 6528TIP3    H241220   1.740  -0.048   8.612  2.0648 -0.5703 -0.2010
 6529TIP3   OH241221   1.054   2.400   7.742  0.2729 -0.0027 -0.1972
 6529TIP3    H141222   1.148   2.380   7.746  0.6919  1.0877 -2.7941
 6529TIP3    H241223   1.049   2.482   7.693 -2.0036  0.5983  0.9157
 6530TIP3   OH241224   5.963   6.804   3.815  0.3850 -0.4371  0.5333
 6530TIP3    H141225   5.949   6.715   3.847 -0.7290 -0.3938  0.1918
 6530TIP3    H241226   5.986   6.793   3.723 -2.2465 -0.2971 -0.2268
 6531TIP3   OH241227   3.236   3.698   3.099  0.1069 -0.0154  0.0900
 6531TIP3    H141228   3.236   3.605   3.119  1.1997  0.3190  1.8139
 6531TIP3    H241229   3.145   3.725   3.113  0.1051 -0.5264  1.1376
 6532TIP3   OH241230   3.724   4.820   0.366  0.4732 -0.0914 -0.6430
 6532TIP3    H141231   3.768   4.736   0.369 -1.1147 -0.9301  0.8924
 6532TIP3    H241232   3.719   4.849   0.457 -0.9248  0.5997 -0.9029
 6533TIP3   OH241233   4.186   0.494   2.090  0.1656  0.6040  0.0770
 6533TIP3    H141234   4.187   0.438   2.012  2.4812 -0.7019  0.9403
 6533TIP3    H241235   4.164   0.581   2.057 -1.9169 -0.4583 -1.5558
 6534TIP3   OH241236   5.233   1.882   1.562  0.0208  0.5248 -0.6813
 6534TIP3    H141237   5.218   1.945   1.491  0.1981  1.7376  0.3188
 6534TIP3    H241238   5.170   1.906   1.629 -0.4863 -0.9230 -0.5947
 6535TIP3   OH241239   2.482   1.132   0.741  0.0751 -0.2995  0.2352
 6535TIP3    H141240   2.419   1.108   0.673 -1.7011 -1.5861  2.2167
 6535TIP3    H241241   2.503   1.050   0.786  1.5927  0.4293  0.9506
 6536TIP3   OH241242   1.967   3.588   8.650  0.5959 -0.1989  0.8274
 6536TIP3    H141243   2.027   3.590   8.575 -1.0275  1.1179 -0.5224
 6536TIP3    H241244   1.910   3.512   8.633 -0.4689  0.7301  0.1001
 6537TIP3   OH241245   1.328   0.139   0.763  0.0541 -0.5350 -0.7584
 6537TIP3    H141246   1.260   0.091   0.812 -0.0549 -0.9104 -1.2644
 6537TIP3    H241247   1.405   0.135   0.819 -0.1474 -0.7221 -0.4900
 6538TIP3   OH241248   1.480   0.898   1.795 -0.2049  0.0112  0.1182
 6538TIP3    H141249   1.427   0.975   1.773 -0.6744 -0.0939  0.8476
 6538TIP3    H241250   1.568   0.920   1.764 -0.2378  1.0313  0.7077
 6539TIP3   OH241251   4.068   4.066   7.870  0.2999  0.2924 -0.3876
 6539TIP3    H141252   4.130   3.994   7.880  0.8300  0.8156  0.1408
 6539TIP3    H241253   4.119   4.137   7.831  0.0728  0.7551  0.1357
 6540TIP3   OH241254   4.572   3.310   0.943  0.1009 -0.1128  0.0444
 6540TIP3    H141255   4.628   3.338   1.016 -0.2860 -0.8518  0.6372
 6540TIP3    H241256   4.631   3.308   0.867  1.0373 -1.4441  0.7697
 6541TIP3   OH241257   3.260   1.373   1.546 -0.3587 -0.4804 -0.4619
 6541TIP3    H141258   3.246   1.281   1.569 -0.0394 -0.5150 -0.4028
 6541TIP3    H241259   3.184   1.419   1.583  0.4027 -0.4556  1.1286
 6542TIP3   OH241260   2.758   4.045   8.225 -0.2403  0.3746 -0.6283
 6542TIP3    H141261   2.752   4.006   8.313 -1.9550 -0.5315 -1.0982
 6542TIP3    H241262   2.776   4.137   8.241  0.5571  0.0248  0.6445
 6543TIP3   OH241263   1.941   2.100   0.585 -0.1414  0.1046 -0.0080
 6543TIP3    H141264   1.891   2.155   0.645 -0.6972 -0.8848  0.4496
 6543TIP3    H241265   1.972   2.161   0.518 -0.6020  1.0048  0.5737
 6544TIP3   OH241266   1.101   0.212   2.300 -0.4448  0.7548  0.7637
 6544TIP3    H141267   1.160   0.159   2.353 -1.3362 -1.7769 -0.6377
 6544TIP3    H241268   1.015   0.172   2.310 -1.2565  2.1945 -0.0411
 6545TIP3   OH241269   6.698   4.678   1.418 -0.3070 -0.1707  0.3903
 6545TIP3    H141270   6.742   4.612   1.365  0.8528 -0.9147  2.1742
 6545TIP3    H241271   6.654   4.736   1.355  1.7726 -0.4426 -1.3907
 6546TIP3   OH241272   3.810   6.165   0.630 -0.3952 -0.0361 -0.5922
 6546TIP3    H141273   3.837   6.252   0.600 -0.0362  0.5686  1.2904
 6546TIP3    H241274   3.762   6.182   0.711  0.1836 -1.6096  0.1365
 6547TIP3   OH241275   5.692   3.693   8.345 -0.1621  0.5520 -0.4250
 6547TIP3    H141276   5.711   3.786   8.337 -1.0616  0.6667 -1.5507
 6547TIP3    H241277   5.646   3.671   8.264 -0.2748 -0.7990 -0.0245
 6548TIP3   OH241278   1.797   6.087   7.594 -0.2323 -0.0024 -0.0766
 6548TIP3    H141279   1.771   6.084   7.502  0.1716 -0.3283 -0.1793
 6548TIP3    H241280   1.722   6.129   7.638 -0.4578  0.0869 -0.5375
 6549TIP3   OH241281   0.157   6.720   1.479 -0.8154 -0.3656 -0.1226
 6549TIP3    H141282   0.190   6.649   1.533 -0.2496 -0.7474 -0.9529
 6549TIP3    H241283   0.234   6.771   1.454 -1.2827  0.9578  1.0156
 6550TIP3   OH241284   3.446   0.332   2.886 -0.1439  0.1399  0.1103
 6550TIP3    H141285   3.495   0.259   2.848 -0.2332  0.1957 -0.1100
 6550TIP3    H241286   3.511   0.381   2.936  0.0576  0.3021 -0.3073
 6551TIP3   OH241287   4.940   4.727   2.081 -0.2863  0.4266 -0.2538
 6551TIP3    H141288   4.873   4.660   2.069  0.1274  0.0326 -0.3884
 6551TIP3    H241289   5.016   4.694   2.033 -0.3621  1.4228 -1.0813
 6552TIP3   OH241290   4.473   0.983   1.896 -0.1058 -0.1257  0.1277
 6552TIP3    H141291   4.513   0.955   1.978  0.7948 -2.7367 -1.0805
 6552TIP3    H241292   4.381   0.959   1.905  0.0387 -0.6259  0.2766
 6553TIP3   OH241293   1.591   2.920   2.470  0.5643  0.0742  0.4330
 6553TIP3    H141294   1.604   2.827   2.455 -0.0431 -0.0616  0.7397
 6553TIP3    H241295   1.501   2.937   2.441  1.5405  1.1312 -2.3371
 6554TIP3   OH241296   6.205   1.311   7.786 -0.2560  0.5521 -1.1232
 6554TIP3    H141297   6.170   1.359   7.711 -1.8521 -0.2310 -0.9186
 6554TIP3    H241298   6.225   1.224   7.752 -1.0282  0.1773 -0.6646
 6555TIP3   OH241299   5.907   6.225   2.526  0.1129  0.3203  0.6740
 6555TIP3    H141300   5.965   6.297   2.504  1.6724 -0.3795  2.2724
 6555TIP3    H241301   5.884   6.239   2.618  0.1858 -1.0301  0.9251
 6556TIP3   OH241302   2.372   2.178   1.077 -0.5071 -0.1056 -0.6215
 6556TIP3    H141303   2.284   2.213   1.061 -0.5354 -0.0332 -0.3100
 6556TIP3    H241304   2.409   2.235   1.144  0.1636  0.4903 -1.4738
 6557TIP3   OH241305   6.788   6.749   1.357 -0.1386  0.5625 -0.4214
 6557TIP3    H141306   6.798   6.770   1.264 -0.8737  1.3818 -0.3287
 6557TIP3    H241307   6.878   6.739   1.390  0.1377  0.7029 -1.1214
 6558TIP3   OH241308   2.294   6.277   1.334 -0.2948 -0.1642 -0.0339
 6558TIP3    H141309   2.275   6.213   1.266  1.0378 -0.7248  0.0977
 6558TIP3    H241310   2.265   6.361   1.298  1.6066 -0.2333 -1.8517
 6559TIP3   OH241311   0.268   6.695   3.116 -0.4721  0.2380 -0.2073
 6559TIP3    H141312   0.334   6.625   3.115 -1.0341 -0.3133 -1.8362
 6559TIP3    H241313   0.319   6.776   3.109  0.1197 -0.0607  0.4537
 6560TIP3   OH241314   0.528   1.931   7.865  0.0906 -0.2093 -0.3739
 6560TIP3    H141315   0.475   1.912   7.788 -0.6410  0.7143 -0.1234
 6560TIP3    H241316   0.608   1.880   7.853 -0.3295 -0.6565 -1.3694
 6561TIP3   OH241317   4.678   4.237   2.518 -0.5271  0.0443  0.0256
 6561TIP3    H141318   4.607   4.181   2.551  1.1018 -1.2170  1.5785
 6561TIP3    H241319   4.739   4.244   2.591  1.1015  0.8475 -1.3468
 6562TIP3   OH241320   0.630   0.022   1.317 -0.2456 -0.1114 -0.1354
 6562TIP3    H141321   0.548  -0.021   1.341 -0.1365  0.4475  1.3710
 6562TIP3    H241322   0.604   0.112   1.298 -0.0885 -0.1260 -0.4113
 6563TIP3   OH241323   1.347   4.882   8.020  0.0534 -0.1750 -0.3149
 6563TIP3    H141324   1.405   4.958   8.017 -0.7796  0.4842 -0.2238
 6563TIP3    H241325   1.340   4.854   7.928  1.0772 -0.7094 -0.2386
 6564TIP3   OH241326   0.762   3.865   3.889 -0.5191 -0.0226  0.2913
 6564TIP3    H141327   0.750   3.797   3.955 -0.3290  0.8934  1.2928
 6564TIP3    H241328   0.684   3.920   3.898 -0.4939  0.1081 -0.2565
 6565TIP3   OH241329   1.415   1.025   3.434  0.0845  0.1665  0.3827
 6565TIP3    H141330   1.326   0.993   3.451  0.2795 -1.6325 -1.4917
 6565TIP3    H241331   1.402   1.107   3.386 -0.5598  0.0517  0.3456
 6566TIP3   OH241332   0.698   1.706   1.629 -0.3255  0.0578  0.0816
 6566TIP3    H141333   0.723   1.614   1.640 -0.4919 -0.0413 -0.3170
 6566TIP3    H241334   0.603   1.706   1.636 -0.3793  0.0996 -0.5246
 6567TIP3   OH241335   2.223   4.337   2.405 -0.0621 -0.4948 -0.0269
 6567TIP3    H141336   2.152   4.394   2.378 -0.5190  0.2592  2.5495
 6567TIP3    H241337   2.216   4.261   2.347 -2.1378  0.1343 -0.6885
 6568TIP3   OH241338   1.063   4.713   1.740 -0.7984  0.0887 -0.7127
 6568TIP3    H141339   0.982   4.712   1.690 -0.4590  0.5590 -1.2873
 6568TIP3    H241340   1.120   4.774   1.692 -0.3751  0.3467  0.0990
 6569TIP3   OH241341   5.376   2.189   1.506 -0.0717 -0.7025 -0.1547
 6569TIP3    H141342   5.459   2.222   1.538 -1.4326  1.6090  1.2375
 6569TIP3    H241343   5.385   2.188   1.411  1.4239 -0.1822 -0.0333
 6570TIP3   OH241344   1.671   5.354   1.553  0.5541 -0.1487  0.6343
 6570TIP3    H141345   1.763   5.369   1.574  1.0710 -2.4980  0.3394
 6570TIP3    H241346   1.661   5.381   1.462  0.8997  0.2719  0.7214
 6571TIP3   OH241347   2.891   1.846   0.236  0.5807 -0.3971  0.5896
 6571TIP3    H141348   2.868   1.930   0.275 -2.5212 -1.7122  1.8567
 6571TIP3    H241349   2.898   1.786   0.310 -0.9112 -1.9969 -0.4859
 6572TIP3   OH241350   0.500   4.674   2.972 -0.3673 -0.1187  0.5827
 6572TIP3    H141351   0.539   4.750   2.928 -0.2790 -0.0798  0.7287
 6572TIP3    H241352   0.426   4.710   3.021 -0.4972 -0.1698  0.4255
 6573TIP3   OH241353   3.030   1.165   0.539  0.0157  0.4569 -0.1585
 6573TIP3    H141354   2.947   1.171   0.585  0.4920  0.8904  0.6773
 6573TIP3    H241355   3.033   1.241   0.482 -0.5895 -0.0960 -0.9497
 6574TIP3   OH241356   4.921   5.342   8.267  0.4025  0.1566 -0.4314
 6574TIP3    H141357   4.867   5.312   8.194 -0.0381  0.3429 -0.1820
 6574TIP3    H241358   4.908   5.276   8.335  1.1660 -0.2600 -0.6753
 6575TIP3   OH241359   4.099   5.724   3.544  0.2783  0.3335  0.1864
 6575TIP3    H141360   4.049   5.767   3.475 -0.7040 -0.5323  0.3384
 6575TIP3    H241361   4.077   5.632   3.535  1.2404  0.0392  0.7707
 6576TIP3   OH241362   6.685   2.334   1.613  0.3628 -0.1783  0.6933
 6576TIP3    H141363   6.670   2.351   1.520  2.4926 -0.4028  0.2353
 6576TIP3    H241364   6.603   2.297   1.645 -0.7479  0.8212 -0.8440
 6577TIP3   OH241365   2.677   1.657   0.162 -0.2332  0.3909  0.4303
 6577TIP3    H141366   2.748   1.719   0.181  0.1430  0.3325 -0.7020
 6577TIP3    H241367   2.604   1.688   0.214  0.6226  0.4615  1.6235
 6578TIP3   OH241368   0.574   1.796   1.364  0.3911  0.1826  0.0641
 6578TIP3    H141369   0.669   1.781   1.366  0.4106  0.3544  0.6691
 6578TIP3    H241370   0.564   1.884   1.401 -0.1924 -0.8003  2.3970
 6579TIP3   OH241371   6.413   0.373   0.939  0.1368 -0.0210  0.2810
 6579TIP3    H141372   6.376   0.319   0.869 -1.0335 -0.1114  0.9302
 6579TIP3    H241373   6.337   0.414   0.980  0.9907  2.3040 -0.2911
 6580TIP3   OH241374   1.095   4.022   0.800 -0.7358 -0.2405 -0.8164
 6580TIP3    H141375   1.018   4.078   0.807 -0.4101  0.1007  0.3729
 6580TIP3    H241376   1.167   4.076   0.833 -0.0069 -0.5958 -1.7930
 6581TIP3   OH241377   5.064   3.757   1.282 -0.8679 -0.1280  0.1608
 6581TIP3    H141378   5.035   3.687   1.342 -0.0652  0.0842  0.8136
 6581TIP3    H241379   4.996   3.824   1.289 -1.4145 -0.6450 -0.1259
 6582TIP3   OH241380   1.144   6.143   1.965 -0.0125  0.4075 -0.1893
 6582TIP3    H141381   1.196   6.135   1.885 -0.0890  2.3906 -0.5094
 6582TIP3    H241382   1.203   6.185   2.028 -0.0718 -0.7967  0.6919
 6583TIP3   OH241383   5.162   3.485   1.064  0.1237  0.5374  0.2401
 6583TIP3    H141384   5.106   3.546   1.016  0.5625  1.8944  1.3537
 6583TIP3    H241385   5.245   3.485   1.016 -0.3201 -0.3015 -0.5548
 6584TIP3   OH241386   5.536   6.779   1.932 -0.6753 -0.1947  0.1207
 6584TIP3    H141387   5.488   6.790   2.014 -0.5984  1.2245  0.0028
 6584TIP3    H241388   5.516   6.858   1.881 -1.7079 -1.5887 -1.7625
 6585TIP3   OH241389   0.372   1.098   2.799 -0.4392 -0.4520  0.3044
 6585TIP3    H141390   0.343   1.089   2.709 -0.0431  0.1472  0.1082
 6585TIP3    H241391   0.452   1.150   2.793 -1.0708  0.6512  1.0964
 6586TIP3   OH241392   2.936   4.822   3.384  0.7181 -0.1540  0.7106
 6586TIP3    H141393   2.987   4.894   3.421  1.8219 -0.6987  0.2915
 6586TIP3    H241394   2.897   4.779   3.460 -0.0812  0.9488  0.9605
 6587TIP3   OH241395   4.611   4.861   8.497 -0.2810  0.4196 -0.1311
 6587TIP3    H141396   4.578   4.778   8.532  1.0459  0.1566  0.5846
 6587TIP3    H241397   4.605   4.922   8.569  1.2117  0.2270  0.2004
 6588TIP3   OH241398   5.360   3.582   0.085 -0.2711 -0.0597  0.1876
 6588TIP3    H141399   5.447   3.581   0.125 -0.4551  0.3456  0.6133
 6588TIP3    H241400   5.376   3.582  -0.009  0.1883 -0.1646  0.2658
 6589TIP3   OH241401   3.583   0.163   8.602 -0.1385 -0.0862  0.5790
 6589TIP3    H141402   3.611   0.101   8.535 -2.3936 -0.9099  0.2878
 6589TIP3    H241403   3.597   0.249   8.562  2.6372 -0.3362  0.8260
 6590TIP3   OH241404   5.288   0.523   0.680 -0.2831  0.4880 -0.3349
 6590TIP3    H141405   5.228   0.470   0.628 -0.7950  0.4280  0.3068
 6590TIP3    H241406   5.234   0.594   0.714  0.3062  1.1970 -0.8449
 6591TIP3   OH241407   6.547   5.166   1.011  0.4428 -0.0759  0.3233
 6591TIP3    H141408   6.621   5.143   1.067 -0.2172 -1.5874  0.6377
 6591TIP3    H241409   6.476   5.184   1.072  0.7396  2.3025  0.0623
 6592TIP3   OH241410   5.451   1.603   0.821 -0.0188  0.0013  0.5706
 6592TIP3    H141411   5.484   1.531   0.876 -1.7525 -0.2812  1.3339
 6592TIP3    H241412   5.462   1.681   0.875  1.5904  0.3007 -0.1424
 6593TIP3   OH241413   5.799   2.470   0.020  0.4649  0.1008  0.1139
 6593TIP3    H141414   5.760   2.383   0.008  2.7606 -0.9088 -0.5531
 6593TIP3    H241415   5.815   2.501  -0.069 -1.1741  1.6773  0.3081
 6594TIP3   OH241416   1.727   5.140   2.912 -0.0888 -0.1740 -0.2716
 6594TIP3    H141417   1.772   5.225   2.908  0.0449 -0.2872 -1.3796
 6594TIP3    H241418   1.637   5.160   2.886 -0.0647 -0.3639 -0.5002
 6595TIP3   OH241419   2.371   1.129   3.069  0.4367  0.6136  0.7181
 6595TIP3    H141420   2.452   1.120   3.121  1.0935 -3.6826 -0.6733
 6595TIP3    H241421   2.400   1.168   2.987  0.7889  0.6907  0.8740
 6596TIP3   OH241422   4.449   2.386   2.663 -0.3386  0.1763 -0.5408
 6596TIP3    H141423   4.479   2.315   2.606 -1.7754 -1.2783  0.4402
 6596TIP3    H241424   4.466   2.355   2.752 -2.8632  0.1104 -0.0205
 6597TIP3   OH241425   6.571   3.728   1.870 -0.4419 -0.3603 -0.3194
 6597TIP3    H141426   6.577   3.708   1.964  1.2400 -0.9931 -0.5209
 6597TIP3    H241427   6.514   3.660   1.835  1.1963 -1.8845 -0.1744
 6598TIP3   OH241428   0.190   1.351   1.741  0.4509 -0.1355 -0.3615
 6598TIP3    H141429   0.250   1.331   1.669  1.6567  0.5236  0.4304
 6598TIP3    H241430   0.236   1.417   1.793 -0.0956 -1.0863  1.4034
 6599TIP3   OH241431   5.473   2.078   7.936 -0.4311 -0.6404 -0.2397
 6599TIP3    H141432   5.470   2.115   7.848  1.0078 -0.5353 -0.2761
 6599TIP3    H241433   5.416   2.001   7.932 -1.3262  0.0425 -0.9104
 6600TIP3   OH241434   2.981   1.770   2.754  0.0087 -0.3109  0.0034
 6600TIP3    H141435   2.937   1.816   2.826 -3.8418 -0.8097 -1.7363
 6600TIP3    H241436   2.993   1.838   2.687 -2.7093 -0.9551 -1.3133
 6601TIP3   OH241437   3.489   5.159   1.557 -0.1100 -0.4852  0.4840
 6601TIP3    H141438   3.427   5.094   1.525  1.2761 -1.6162 -0.0202
 6601TIP3    H241439   3.459   5.179   1.645 -1.7192 -0.2862 -0.0915
 6602TIP3   OH241440   4.577   4.006   0.639  0.4104  0.1286 -0.1830
 6602TIP3    H141441   4.529   4.077   0.597  0.9532  0.2147 -0.6575
 6602TIP3    H241442   4.543   4.004   0.729 -0.6325  0.0515 -0.5650
 6603TIP3   OH241443   3.650   4.364   1.755  0.4794  0.3290  0.5028
 6603TIP3    H141444   3.640   4.458   1.739 -0.5336  0.2066  0.3370
 6603TIP3    H241445   3.614   4.350   1.842 -0.4702 -0.0725  0.0659
 6604TIP3   OH241446   3.941   1.216   0.600  0.1710  0.4114 -0.0506
 6604TIP3    H141447   4.022   1.168   0.616  0.3201  0.8773  0.6594
 6604TIP3    H241448   3.929   1.213   0.505 -1.6865 -3.9734  0.1087
 6605TIP3   OH241449   3.656   4.955   1.358  0.1541  0.1501 -0.2353
 6605TIP3    H141450   3.569   4.933   1.391 -0.1160  0.1224 -0.9643
 6605TIP3    H241451   3.694   4.871   1.333 -0.1047  0.2885 -1.1210
 6606TIP3   OH241452   0.937   3.264   2.250  0.0881 -0.5470 -0.4094
 6606TIP3    H141453   0.875   3.337   2.258 -1.5797 -2.0841  1.7170
 6606TIP3    H241454   1.022   3.307   2.243 -0.8676  1.6329  0.3722
 6607TIP3   OH241455   6.500   5.271   0.684  0.5454 -0.2688  0.5842
 6607TIP3    H141456   6.473   5.263   0.776 -3.5474 -1.3006 -0.4797
 6607TIP3    H241457   6.534   5.360   0.677 -0.1940  0.2871  2.8783
 6608TIP3   OH241458   4.349   1.979   1.358 -0.5903 -0.1208 -0.3309
 6608TIP3    H141459   4.388   2.062   1.330 -1.4106 -0.0146 -1.2028
 6608TIP3    H241460   4.418   1.914   1.342  0.1640  0.4086  0.6371
 6609TIP3   OH241461   5.800   6.843   2.330  0.6681 -0.2670  0.1214
 6609TIP3    H141462   5.874   6.892   2.365  2.1778 -0.9590 -1.8565
 6609TIP3    H241463   5.828   6.820   2.241 -0.8994 -2.7303  0.1836
 6610TIP3   OH241464   6.785   1.361   7.852  0.0533  0.0730 -0.3643
 6610TIP3    H141465   6.822   1.277   7.826  0.1532 -0.6090  1.7857
 6610TIP3    H241466   6.698   1.363   7.812  1.2281  0.4443 -3.1198
 6611TIP3   OH241467   5.164   0.838   8.083 -0.5836  0.5537 -0.3846
 6611TIP3    H141468   5.096   0.861   8.146  0.1301 -1.8110  1.4065
 6611TIP3    H241469   5.139   0.751   8.052  0.9956  0.1332 -0.5609
 6612TIP3   OH241470   2.473   3.152   3.471 -0.2164 -0.3088  0.3131
 6612TIP3    H141471   2.389   3.197   3.477 -0.2421 -0.3044 -0.0678
 6612TIP3    H241472   2.532   3.205   3.524 -0.5821 -0.6289  1.0593
 6613TIP3   OH241473   3.456   2.575   0.080 -0.2481 -0.2653  0.0053
 6613TIP3    H141474   3.498   2.641   0.136  0.7560  0.0199 -1.0501
 6613TIP3    H241475   3.458   2.495   0.132 -1.7094  0.5408  1.4147
 6614TIP3   OH241476   5.318   1.703   8.057 -0.3968 -0.2924  0.1628
 6614TIP3    H141477   5.339   1.631   7.997  0.9595 -0.2711  0.5662
 6614TIP3    H241478   5.258   1.759   8.007 -0.7834 -1.2512 -0.4747
 6615TIP3   OH241479   0.625   0.960   7.628 -0.1363  0.0621 -0.1966
 6615TIP3    H141480   0.634   0.877   7.581  0.7673  0.5530 -0.9194
 6615TIP3    H241481   0.548   1.002   7.588 -0.9151 -0.6499  0.5343
 6616TIP3   OH241482   4.621   0.098   0.139 -0.1070  0.1438 -0.4591
 6616TIP3    H141483   4.661   0.185   0.138  0.9714 -0.3408 -0.0943
 6616TIP3    H241484   4.530   0.114   0.111 -1.0126  1.8844  2.8909
 6617TIP3   OH241485   6.604   2.931   2.865 -0.2912 -0.1662  0.1304
 6617TIP3    H141486   6.598   3.016   2.910  0.3678  0.3524 -0.7256
 6617TIP3    H241487   6.593   2.953   2.772 -0.9973 -1.1384 -0.0259
 6618TIP3   OH241488   2.134   3.515   0.383 -0.0190  0.0497  0.1939
 6618TIP3    H141489   2.117   3.561   0.465  2.3652  2.3597 -0.4917
 6618TIP3    H241490   2.219   3.472   0.397 -0.6207 -1.4051 -0.3697
 6619TIP3   OH241491   3.333   0.901   8.337 -0.6044 -0.2963 -0.2379
 6619TIP3    H141492   3.403   0.871   8.394 -0.6012  1.3408  0.6906
 6619TIP3    H241493   3.313   0.826   8.281  1.1137 -1.1414  0.2181
 6620TIP3   OH241494   5.817   5.907   8.504  0.4180  0.1035 -0.0663
 6620TIP3    H141495   5.757   5.915   8.430 -0.1928 -0.6160  0.3420
 6620TIP3    H241496   5.903   5.926   8.466  0.0233  0.4695 -0.8017
 6621TIP3   OH241497   5.483   0.541   7.888  0.3729 -0.1670  0.1956
 6621TIP3    H141498   5.509   0.630   7.866 -0.4359  0.0461  0.0797
 6621TIP3    H241499   5.484   0.538   7.984  0.7780 -0.1573  0.1956
 6622TIP3   OH241500   3.358   1.699   8.477 -0.7081  0.0097  0.4218
 6622TIP3    H141501   3.442   1.729   8.443 -1.3812  0.0812 -1.2347
 6622TIP3    H241502   3.363   1.716   8.571  1.1063  0.0467  0.3543
 6623TIP3   OH241503   4.261   0.913   2.262  0.6237  0.1447  0.4625
 6623TIP3    H141504   4.240   1.004   2.241 -1.3677  0.0186  1.6683
 6623TIP3    H241505   4.233   0.901   2.353  2.9660 -1.0817  1.1295
 6624TIP3   OH241506   5.249   6.857   8.044 -0.1134 -0.2813  0.3428
 6624TIP3    H141507   5.344   6.850   8.053 -0.1391  0.3950  1.2929
 6624TIP3    H241508   5.219   6.887   8.130 -0.9698  1.5936 -0.5505
 6625TIP3   OH241509   4.932   2.219   2.143  0.6248  0.4442 -0.1871
 6625TIP3    H141510   4.975   2.190   2.063  2.8500  0.0524  1.0683
 6625TIP3    H241511   4.996   2.276   2.185 -1.2128  2.1431  0.4641
 6626TIP3   OH241512   0.338   3.544   2.444 -0.0545  0.1752 -0.1076
 6626TIP3    H141513   0.290   3.525   2.524  0.7558  0.2769  0.4209
 6626TIP3    H241514   0.410   3.601   2.473  0.0681  0.4618 -0.9546
 6627TIP3   OH241515   2.457   4.630   0.605  0.3344 -0.7785 -0.8844
 6627TIP3    H141516   2.457   4.609   0.512  0.7169 -1.8352 -0.6643
 6627TIP3    H241517   2.456   4.726   0.608  0.3628 -0.7303 -1.9695
 6628TIP3   OH241518   6.284   3.685   2.691  0.2412 -0.1410  0.1905
 6628TIP3    H141519   6.198   3.690   2.649 -0.2725 -0.4625  1.1542
 6628TIP3    H241520   6.338   3.748   2.644 -0.6503  0.3917 -0.1544
 6629TIP3   OH241521   5.943   4.318   3.327  0.2602 -0.7096 -0.6311
 6629TIP3    H141522   5.863   4.336   3.277 -1.0350 -1.9280  0.8604
 6629TIP3    H241523   5.945   4.386   3.395 -0.0860 -1.2467 -0.0668
 6630TIP3   OH241524   5.864   6.495   0.731  0.3932  0.1964  0.2025
 6630TIP3    H141525   5.802   6.498   0.658  1.5657  0.4508 -0.8204
 6630TIP3    H241526   5.861   6.404   0.761  1.7694 -0.6494 -1.9090
 6631TIP3   OH241527   0.729   6.829   1.552 -0.1796  0.4348  0.4374
 6631TIP3    H141528   0.687   6.868   1.475  0.3862 -1.1327 -0.7000
 6631TIP3    H241529   0.745   6.738   1.527  4.0286  0.9072  0.6945
 6632TIP3   OH241530   1.589   0.022   8.252  0.0318  0.2011  0.2032
 6632TIP3    H141531   1.615  -0.028   8.174  1.0373 -0.0215  0.6731
 6632TIP3    H241532   1.653  -0.002   8.319 -0.7939  0.4246  1.0984
 6633TIP3   OH241533   6.562   1.132   1.071 -0.1906  0.4531 -0.6446
 6633TIP3    H141534   6.629   1.141   1.003  0.3637  2.0646  0.0668
 6633TIP3    H241535   6.530   1.221   1.086 -1.4451 -0.0905  0.0869
 6634TIP3   OH241536   0.233   2.976   0.113 -0.3966  0.4957  0.2985
 6634TIP3    H141537   0.155   2.933   0.077 -0.7352  2.0468 -0.9192
 6634TIP3    H241538   0.305   2.944   0.059 -0.1929 -0.7174  1.2418
 6635TIP3   OH241539   2.878   2.113   0.309  0.1992 -0.7038  0.5895
 6635TIP3    H141540   2.881   2.193   0.361 -0.8598  0.9162 -1.6589
 6635TIP3    H241541   2.933   2.132   0.233 -2.6363 -0.6923 -1.6510
 6636TIP3   OH241542   6.019   1.117   0.739  0.4444  0.0073 -0.3537
 6636TIP3    H141543   6.101   1.086   0.702  0.0045 -2.8128  0.8053
 6636TIP3    H241544   6.039   1.138   0.830 -0.3218 -2.0708  0.3504
 6637TIP3   OH241545   5.565   0.352   8.559 -0.3905  0.1013 -0.1955
 6637TIP3    H141546   5.568   0.297   8.481  1.2342  2.6095 -2.0349
 6637TIP3    H241547   5.494   0.413   8.543  0.2302  0.9114  0.0593
 6638TIP3   OH241548   5.358   0.476   2.126 -0.3464  0.3299  0.4886
 6638TIP3    H141549   5.425   0.543   2.117 -0.3551  0.0467 -4.2948
 6638TIP3    H241550   5.276   0.522   2.105 -1.3259 -0.0303  3.1042
 6639TIP3   OH241551   0.608   1.176   3.113 -0.2120 -0.5430  0.1848
 6639TIP3    H141552   0.669   1.205   3.181  1.9494  0.1496 -1.9065
 6639TIP3    H241553   0.631   1.084   3.097  1.4604  0.1142 -1.6381
 6640TIP3   OH241554   4.867   3.103   8.170  0.1439 -0.1273 -0.3237
 6640TIP3    H141555   4.843   3.013   8.190  1.8442 -0.6583 -0.5464
 6640TIP3    H241556   4.963   3.105   8.174  0.1238  2.1162  1.5862
 6641TIP3   OH241557   2.295   1.719   1.535  0.5531 -0.0202 -0.4272
 6641TIP3    H141558   2.346   1.798   1.549  1.0940 -0.2310 -1.1112
 6641TIP3    H241559   2.206   1.742   1.560  1.1800 -0.0445  2.1376
 6642TIP3   OH241560   6.175   0.525   1.812  0.0571 -0.3264  0.2384
 6642TIP3    H141561   6.157   0.568   1.728 -1.7721  1.4029  1.3915
 6642TIP3    H241562   6.246   0.576   1.850 -0.7503  0.4385  0.7469
 6643TIP3   OH241563   0.306   2.412   1.998  0.1486 -0.2067  0.4530
 6643TIP3    H141564   0.225   2.428   1.949 -0.6988  0.8631  2.1492
 6643TIP3    H241565   0.333   2.324   1.970 -0.7207  0.0411 -1.3133
 6644TIP3   OH241566   3.144   1.837   3.141 -0.2704  0.9923 -0.2139
 6644TIP3    H141567   3.135   1.745   3.163  0.1580  0.4431 -2.1518
 6644TIP3    H241568   3.179   1.878   3.221 -1.7892 -0.2205  1.1369
 6645TIP3   OH241569   4.222   4.769   1.313 -0.2821  0.2587 -0.4026
 6645TIP3    H141570   4.210   4.674   1.314  1.5146 -0.0094  1.3412
 6645TIP3    H241571   4.268   4.787   1.231 -0.0465 -0.4452 -0.4257
 6646TIP3   OH241572   3.753   2.156   0.185  0.4082  0.2121  0.4428
 6646TIP3    H141573   3.716   2.069   0.166 -0.8494  1.3044 -2.9219
 6646TIP3    H241574   3.846   2.140   0.194  0.2547 -1.4936 -0.4431
 6647TIP3   OH241575   0.333   0.115   2.739 -0.2742 -0.0378  0.0878
 6647TIP3    H141576   0.373   0.160   2.814  0.1235 -0.0989 -0.0825
 6647TIP3    H241577   0.391   0.135   2.666 -0.2906 -0.5321 -0.0647
 6648TIP3   OH241578   4.554   2.313   0.130 -0.4708 -0.0092  0.5729
 6648TIP3    H141579   4.558   2.249   0.058  0.8464  0.3235  0.3188
 6648TIP3    H241580   4.537   2.396   0.087 -0.4054  0.0776  0.7149
 6649TIP3   OH241581   3.599   3.007   1.391  0.2226 -0.4048  0.0473
 6649TIP3    H141582   3.566   3.096   1.384  0.6229 -0.2908 -0.4418
 6649TIP3    H241583   3.543   2.965   1.456 -1.3371 -0.4308 -1.2588
 6650TIP3   OH241584   6.757   3.593   7.962  0.0328 -0.0297  0.7724
 6650TIP3    H141585   6.746   3.649   8.039  0.6222  1.0767  0.0691
 6650TIP3    H241586   6.698   3.631   7.896 -0.8124 -1.2378  0.7893
 6651TIP3   OH241587   4.317   1.944   0.804  0.4166  0.0376 -0.1554
 6651TIP3    H141588   4.249   2.008   0.783 -0.5824 -0.8711  0.2243
 6651TIP3    H241589   4.344   1.965   0.893  1.2876  0.9547 -0.6216
 6652TIP3   OH241590   1.990   0.211   1.749 -0.3520  0.2229 -0.8080
 6652TIP3    H141591   1.915   0.158   1.775  0.4299 -1.0073 -0.9816
 6652TIP3    H241592   1.993   0.204   1.654 -0.3531  0.7330 -0.8465
 6653TIP3   OH241593   1.886   3.412   0.438 -0.1612  0.1992 -0.2093
 6653TIP3    H141594   1.837   3.402   0.356  0.7896 -0.2979 -0.7393
 6653TIP3    H241595   1.975   3.434   0.409  0.4097 -0.8882  0.6573
 6654TIP3   OH241596   6.175   6.790   8.008 -0.1189 -0.3662 -0.1860
 6654TIP3    H141597   6.098   6.801   7.952  1.1105  1.5675 -1.6141
 6654TIP3    H241598   6.149   6.723   8.071 -2.7031 -0.2986 -1.0605
 6655TIP3   OH241599   0.764   2.704   8.145 -0.0844  0.9874  0.5664
 6655TIP3    H141600   0.778   2.612   8.166 -0.9409  0.3943 -1.2067
 6655TIP3    H241601   0.834   2.750   8.190  0.5288 -0.5624  1.2693
 6656TIP3   OH241602   6.466   2.858   0.627  0.6621  0.3437 -0.2188
 6656TIP3    H141603   6.477   2.891   0.716  2.5167  0.8508 -0.6036
 6656TIP3    H241604   6.532   2.789   0.619  0.2014 -0.0100 -1.0674
 6657TIP3   OH241605   2.210   4.718   7.613 -0.2537 -0.3120  0.1753
 6657TIP3    H141606   2.285   4.764   7.650  2.4879 -0.4508 -4.4657
 6657TIP3    H241607   2.136   4.777   7.627  1.6123  1.9716  1.0136
 6658TIP3   OH241608   1.986   4.111   2.855 -0.4248  0.3647  0.0449
 6658TIP3    H141609   2.023   4.148   2.934 -0.9654  1.1844 -0.0786
 6658TIP3    H241610   1.895   4.141   2.855 -1.0329 -1.3509  0.1933
 6659TIP3   OH241611   3.131   5.406   2.282 -0.3723  0.2549 -0.3571
 6659TIP3    H141612   3.144   5.339   2.349 -0.4247 -0.4828 -1.0741
 6659TIP3    H241613   3.128   5.488   2.331 -1.9091 -0.3845  0.7026
 6660TIP3   OH241614   5.805   5.111   3.232 -0.3930  0.6243  0.0199
 6660TIP3    H141615   5.891   5.108   3.274 -0.7480 -0.2128  0.7202
 6660TIP3    H241616   5.743   5.090   3.302 -0.7883 -4.3794 -1.4412
 6661TIP3   OH241617   5.587   1.738   2.510  0.4598  0.1081  0.5109
 6661TIP3    H141618   5.588   1.644   2.493 -0.9840  0.4659 -2.0504
 6661TIP3    H241619   5.676   1.767   2.490  1.2024 -0.8000  2.2874
 6662TIP3   OH241620   0.300   1.038   3.055  0.5969 -0.3573 -0.0996
 6662TIP3    H141621   0.339   1.036   2.968  2.5951 -0.6845  0.7641
 6662TIP3    H241622   0.265   1.126   3.063  1.3216  0.0135 -0.8541
 6663TIP3   OH241623   0.217   4.513   1.406  0.5180  0.1790 -0.3786
 6663TIP3    H141624   0.126   4.486   1.393  0.5843  0.4233 -1.4088
 6663TIP3    H241625   0.250   4.452   1.472  0.4620 -1.8946 -2.1571
 6664TIP3   OH241626   5.919   3.437   1.979 -0.1976  0.5784 -0.1272
 6664TIP3    H141627   6.003   3.465   2.017  0.6841 -1.8240 -0.1161
 6664TIP3    H241628   5.875   3.518   1.956  2.1417  1.9305 -0.1549
 6665TIP3   OH241629   3.850   2.433   1.435  0.6657  0.2420  0.1180
 6665TIP3    H141630   3.918   2.479   1.485  1.6736 -0.8451 -0.2050
 6665TIP3    H241631   3.892   2.412   1.351 -0.4171  0.4464 -0.5006
 6666TIP3   OH241632   1.345   3.649   2.056  0.6787 -0.1433  0.3066
 6666TIP3    H141633   1.327   3.737   2.023  2.3605  0.7078  1.5102
 6666TIP3    H241634   1.411   3.614   1.996  1.2308  0.0818  0.7725
 6667TIP3   OH241635   6.077   5.793   1.690  0.9153 -0.6364 -0.0031
 6667TIP3    H141636   6.140   5.820   1.756 -2.1927 -0.1482  3.0421
 6667TIP3    H241637   6.103   5.704   1.667  2.3306 -0.6818  1.5647
 6668TIP3   OH241638   3.572   1.910   2.192  0.3417 -0.0376  0.5723
 6668TIP3    H141639   3.481   1.881   2.190 -0.1729  1.3022  2.1901
 6668TIP3    H241640   3.618   1.851   2.132 -1.6288 -0.5475 -0.5154
 6669TIP3   OH241641   4.425   5.299   2.154  0.1567  0.0260  0.3885
 6669TIP3    H141642   4.399   5.318   2.063  1.8454  3.1116  0.4142
 6669TIP3    H241643   4.343   5.280   2.199 -0.9541  0.3895 -1.3789
 6670TIP3   OH241644   1.349   1.296   1.495  0.0999  0.0860 -0.0644
 6670TIP3    H141645   1.310   1.383   1.494  0.4942  0.3161 -2.6946
 6670TIP3    H241646   1.276   1.237   1.511 -0.5001  0.7975 -0.1352
 6671TIP3   OH241647   4.680   1.647   2.068  0.1774  0.6012 -0.0495
 6671TIP3    H141648   4.622   1.721   2.051 -0.1014  0.0692 -1.5776
 6671TIP3    H241649   4.642   1.603   2.145 -1.9067 -0.1347 -1.4095
 6672TIP3   OH241650   2.961   4.028   7.514 -0.0926 -0.0218  0.2034
 6672TIP3    H141651   2.908   3.983   7.580  1.5109 -3.7426 -0.8200
 6672TIP3    H241652   3.050   4.021   7.546  0.4674  0.2732 -1.2260
 6673TIP3   OH241653   1.940   0.918   0.261 -0.4669  0.2169 -0.1312
 6673TIP3    H141654   1.848   0.900   0.242 -0.3413 -1.2326  0.4802
 6673TIP3    H241655   1.951   0.888   0.352 -0.0731  3.0601  0.8652
 6674TIP3   OH241656   1.270   1.910   0.916  0.1593 -0.2146  0.6236
 6674TIP3    H141657   1.284   1.957   0.998 -0.5587 -0.9190  1.1739
 6674TIP3    H241658   1.177   1.922   0.897  0.6575  1.4509 -1.0706
 6675TIP3   OH241659   2.352   2.923   0.266  0.1089 -0.0079 -0.0271
 6675TIP3    H141660   2.443   2.951   0.251 -0.0497 -0.1696 -1.4786
 6675TIP3    H241661   2.307   3.003   0.295  0.4423  0.3887 -0.5840
 6676TIP3   OH241662   3.769   3.844   8.162  0.0974 -0.6822 -0.2723
 6676TIP3    H141663   3.838   3.866   8.225 -0.8512  0.7347  0.3139
 6676TIP3    H241664   3.714   3.781   8.208  1.3732 -2.4264 -1.0195
 6677TIP3   OH241665   6.569   5.343   2.684 -0.3083  0.2097 -0.0436
 6677TIP3    H141666   6.641   5.279   2.679  0.7012  1.1658  1.4745
 6677TIP3    H241667   6.524   5.335   2.600  2.3548  0.4655 -1.6130
 6678TIP3   OH241668   4.192   3.650   1.755  0.4042 -0.1987 -0.2281
 6678TIP3    H141669   4.134   3.716   1.793  1.0470  0.7419 -0.8249
 6678TIP3    H241670   4.267   3.700   1.722  0.5723 -1.1394 -1.3588
 6679TIP3   OH241671   0.387   6.559   1.593  0.4776 -0.4492  0.1235
 6679TIP3    H141672   0.334   6.481   1.575  0.4071 -0.6461  1.1491
 6679TIP3    H241673   0.414   6.549   1.684  2.0300 -0.1998 -0.2861
 6680TIP3   OH241674   3.842   3.701   0.708 -0.3841  0.2590  0.3524
 6680TIP3    H141675   3.865   3.609   0.694  1.2719  0.7143 -0.0277
 6680TIP3    H241676   3.758   3.697   0.754 -0.3533 -1.4378  0.3290
 6681TIP3   OH241677   4.403   1.725   0.098 -1.6551  0.2065  0.3365
 6681TIP3    H141678   4.416   1.816   0.124 -1.5085  0.2821  0.0057
 6681TIP3    H241679   4.324   1.727   0.044 -1.1191  0.2962 -0.4619
 6682TIP3   OH241680   5.163   5.008   1.781 -0.0028 -0.2281  0.0003
 6682TIP3    H141681   5.194   4.957   1.706  1.0513  0.1125  0.1776
 6682TIP3    H241682   5.236   5.005   1.844 -0.0352  1.2133  0.1444
 6683TIP3   OH241683   0.583   4.318   1.012 -0.6171  0.0108  0.9415
 6683TIP3    H141684   0.542   4.298   0.928  1.6229 -0.2382 -0.1773
 6683TIP3    H241685   0.511   4.315   1.075 -1.9540 -2.5942 -0.5269
 6684TIP3   OH241686   0.909   1.948   7.946  0.3189 -1.0739 -0.2840
 6684TIP3    H141687   0.834   1.901   7.910 -0.3529 -1.2294  1.2439
 6684TIP3    H241688   0.897   2.038   7.914 -0.6252 -1.0561  0.0801
 6685TIP3   OH241689   2.074   1.340   1.114  0.0908  0.0323  0.3877
 6685TIP3    H141690   2.110   1.380   1.035  0.0354 -1.8440 -0.6457
 6685TIP3    H241691   1.985   1.376   1.121 -0.0661 -0.1200 -0.6815
 6686TIP3   OH241692   6.791   4.711   1.690  0.0641 -0.1530 -0.7537
 6686TIP3    H141693   6.720   4.663   1.733  0.3405  0.6011  0.6091
 6686TIP3    H241694   6.772   4.703   1.597 -1.9051  0.1401 -0.4321
 6687TIP3   OH241695   6.598   5.474   8.177 -0.3794  0.1335  0.3441
 6687TIP3    H141696   6.674   5.448   8.228 -0.2506 -0.2712 -0.0392
 6687TIP3    H241697   6.578   5.563   8.206 -1.5249 -0.7509  2.5279
 6688TIP3   OH241698   5.288   4.731   1.808  0.0365 -0.3533  0.2197
 6688TIP3    H141699   5.294   4.804   1.746 -0.3189 -0.3994  0.1319
 6688TIP3    H241700   5.343   4.663   1.769  1.8647  0.4789  1.1747
 6689TIP3   OH241701   4.175   3.904   3.347  0.2955  0.0075 -0.0142
 6689TIP3    H141702   4.271   3.908   3.350  0.2778  1.3680 -0.2210
 6689TIP3    H241703   4.148   3.996   3.347 -0.9721 -0.3271 -1.0426
 6690TIP3   OH241704   2.136   2.746   2.987 -0.0973  0.5372  0.5498
 6690TIP3    H141705   2.065   2.809   2.975  0.7086  1.4102  0.2815
 6690TIP3    H241706   2.205   2.776   2.928  0.2824 -0.6350  0.3683
 6691TIP3   OH241707   6.353   6.030   2.938 -0.0839 -0.1934  0.0419
 6691TIP3    H141708   6.375   5.968   2.868  1.8424 -0.9640  1.2443
 6691TIP3    H241709   6.391   6.113   2.909 -0.0698 -0.2919 -0.2308
 6692TIP3   OH241710   3.991   5.985   1.134  0.0494  0.2853  0.8152
 6692TIP3    H141711   4.037   5.915   1.088 -3.1278 -1.0478 -0.5735
 6692TIP3    H241712   4.030   6.065   1.100  0.8550 -0.7573 -0.8541
 6693TIP3   OH241713   2.244   1.959   0.754  0.3657 -0.1519 -0.4889
 6693TIP3    H141714   2.268   1.945   0.845 -0.6111 -1.4555 -0.4031
 6693TIP3    H241715   2.155   1.923   0.747  0.0652  0.7812 -1.7299
 6694TIP3   OH241716   2.957   4.174   8.434 -0.4389  0.2577  0.5620
 6694TIP3    H141717   3.010   4.151   8.510  0.1895 -0.2618 -0.0127
 6694TIP3    H241718   2.867   4.165   8.462 -0.2202 -1.5511  0.7765
 6695TIP3   OH241719   6.307   6.697   2.830 -0.0750  0.2234 -0.0955
 6695TIP3    H141720   6.265   6.616   2.860  1.9234 -0.8158  0.0844
 6695TIP3    H241721   6.327   6.680   2.738 -0.5192  0.9097 -0.3211
 6696TIP3   OH241722   0.647   3.115   0.958  0.4798 -0.4082 -0.4038
 6696TIP3    H141723   0.677   3.123   0.868 -1.2601 -0.5125 -1.0289
 6696TIP3    H241724   0.717   3.153   1.010  1.0530  0.6403 -1.8782
 6697TIP3   OH241725   4.576   1.216   7.273 -0.6346  0.0739  0.2752
 6697TIP3    H141726   4.530   1.195   7.354 -0.3789 -1.2290  0.1059
 6697TIP3    H241727   4.541   1.154   7.209 -0.0456  0.3526 -0.3320
 6698TIP3   OH241728   0.823   5.140   0.971 -0.3024  0.2577  0.5905
 6698TIP3    H141729   0.740   5.188   0.978 -0.1704  0.5463  0.2316
 6698TIP3    H241730   0.804   5.068   0.911 -0.3327  0.2347  0.6271
 6699TIP3   OH241731   6.037   4.632   2.014 -0.0944  0.5008 -0.6331
 6699TIP3    H141732   6.081   4.611   1.932  0.5705  1.4036 -0.5159
 6699TIP3    H241733   5.994   4.716   1.999 -1.0648  0.0486 -0.4635
 6700TIP3   OH241734   3.460   3.463   7.833 -0.9166  0.1806 -0.1206
 6700TIP3    H141735   3.488   3.440   7.745 -0.1951 -1.4542  0.4830
 6700TIP3    H241736   3.436   3.380   7.873 -0.0281  0.6995  1.6140
 6701TIP3   OH241737   3.346   6.306   1.167 -0.0933 -0.1460  0.0491
 6701TIP3    H141738   3.357   6.226   1.219  0.3342  0.5116  1.0146
 6701TIP3    H241739   3.266   6.346   1.202 -0.0432  0.0876 -0.1024
 6702TIP3   OH241740   0.041   0.629   2.579  0.0155  0.5928 -0.4524
 6702TIP3    H141741   0.018   0.677   2.499  2.2781  1.4798 -0.6464
 6702TIP3    H241742   0.104   0.686   2.624  1.0960 -1.2274  0.4339
 6703TIP3   OH241743   0.002   4.608   8.331  0.7902  0.1984  0.0479
 6703TIP3    H141744   0.031   4.603   8.421 -1.6374  2.9469  1.1507
 6703TIP3    H241745   0.066   4.665   8.288  0.6507  0.8602  0.6982
 6704TIP3   OH241746   1.871   5.915   0.573 -0.0302  0.4585 -0.1861
 6704TIP3    H141747   1.846   5.861   0.498 -0.1532 -0.2547  0.3497
 6704TIP3    H241748   1.966   5.907   0.577 -0.0167  0.5557 -0.3092
 6705TIP3   OH241749   6.856   3.544   0.041 -0.0165  0.2429 -0.4652
 6705TIP3    H141750   6.805   3.463   0.055  1.0052 -0.2295  0.6858
 6705TIP3    H241751   6.929   3.536   0.101  0.3775  1.8176 -0.7164
 6706TIP3   OH241752   4.556   2.966   1.320 -0.0535 -0.5471  0.4652
 6706TIP3    H141753   4.536   2.971   1.227  0.0926 -0.1765  0.4540
 6706TIP3    H241754   4.489   2.907   1.356 -0.7588  0.1427  0.3079
 6707TIP3   OH241755   4.625   6.806   1.816 -0.5027  0.4868  0.4995
 6707TIP3    H141756   4.570   6.744   1.864 -1.3819  1.1770  0.4075
 6707TIP3    H241757   4.627   6.771   1.727 -0.6551  0.3704  0.5404
 6708TIP3   OH241758   2.201   0.194   1.945 -0.0985  0.7871  0.1799
 6708TIP3    H141759   2.129   0.171   2.005  0.2492  0.1249  0.3532
 6708TIP3    H241760   2.158   0.205   1.860 -0.5650  1.5214  0.5024
 6709TIP3   OH241761   6.755   1.446   8.189 -0.2879  1.0947  0.8018
 6709TIP3    H141762   6.801   1.494   8.257  0.8102  0.7173  0.3482
 6709TIP3    H241763   6.703   1.381   8.237  1.5509 -0.1127  1.2776
 6710TIP3   OH241764   1.926   2.970   2.199 -0.7065  0.0050  0.0829
 6710TIP3    H141765   1.857   2.942   2.139 -1.3391  2.0140 -0.2155
 6710TIP3    H241766   1.965   2.889   2.231 -2.2157 -1.1565 -0.8917
 6711TIP3   OH241767   2.229   2.426   1.594 -0.0918  0.6549 -0.2052
 6711TIP3    H141768   2.185   2.411   1.509  0.8242 -1.1555 -0.4039
 6711TIP3    H241769   2.312   2.467   1.571  0.7314 -1.0156 -0.3391
 6712TIP3   OH241770   6.411   5.061   0.217  0.4421 -0.4078 -0.8460
 6712TIP3    H141771   6.319   5.077   0.239  0.5707 -0.2249 -0.4320
 6712TIP3    H241772   6.459   5.082   0.297  0.6893 -2.1856 -0.4811
 6713TIP3   OH241773   2.433   2.836   2.968  0.2171 -0.1736  0.0606
 6713TIP3    H141774   2.381   2.849   2.889  0.2416  1.1358  0.2336
 6713TIP3    H241775   2.425   2.919   3.016 -1.7636 -1.6974  2.6286
 6714TIP3   OH241776   2.294   4.024   0.358 -0.5049  1.0945 -0.0838
 6714TIP3    H141777   2.231   3.981   0.416 -0.7481  1.1148 -0.3346
 6714TIP3    H241778   2.271   3.995   0.270  1.2606 -0.7298 -0.0059
 6715TIP3   OH241779   3.497   6.853   8.137  0.1622 -0.0398  0.0220
 6715TIP3    H141780   3.579   6.841   8.090  0.0426  0.0949 -0.2216
 6715TIP3    H241781   3.429   6.830   8.073  0.0041  0.0203  0.1674
 6716TIP3   OH241782   4.066   1.919   8.397 -0.9345  0.3754 -0.3151
 6716TIP3    H141783   4.031   1.896   8.311 -2.1110  0.0624  0.2223
 6716TIP3    H241784   4.076   2.014   8.395 -0.9071  0.3609 -0.8160
 6717TIP3   OH241785   3.429   4.240   7.901  0.0152 -0.2136 -0.3524
 6717TIP3    H141786   3.503   4.199   7.857 -0.0336  1.9041 -2.6329
 6717TIP3    H241787   3.364   4.252   7.832 -2.0799 -1.0455  1.3691
 6718TIP3   OH241788   1.036   5.201   2.879  0.1514  0.2720  0.4673
 6718TIP3    H141789   1.076   5.181   2.794 -0.2653  4.3787 -0.9237
 6718TIP3    H241790   1.108   5.191   2.942  1.0105 -0.8590 -0.6363
 6719TIP3   OH241791   1.809   1.765   8.643 -0.0895  0.1229 -0.8909
 6719TIP3    H141792   1.751   1.690   8.632  1.3588 -0.9400 -1.4354
 6719TIP3    H241793   1.897   1.731   8.628  1.2078  0.7558  3.7407
 6720TIP3   OH241794   3.171   1.903   1.697 -0.1381 -0.5069 -0.5605
 6720TIP3    H141795   3.086   1.860   1.708  0.3674 -1.4385 -0.1287
 6720TIP3    H241796   3.216   1.849   1.631  0.0806  0.0389 -0.8629
 6721TIP3   OH241797   6.868   2.925   0.335 -0.7512  0.5965 -0.1998
 6721TIP3    H141798   6.890   2.930   0.242 -0.8205  0.1197 -0.2431
 6721TIP3    H241799   6.953   2.929   0.380 -0.4234 -2.2886 -0.4051
 6722TIP3   OH241800   2.387   5.109   8.460 -0.0326  0.5267  0.3067
 6722TIP3    H141801   2.334   5.050   8.407  2.7526 -2.2886  0.3185
 6722TIP3    H241802   2.347   5.109   8.547  0.0711 -1.7366  0.3924
 6723TIP3   OH241803   4.234   4.726   2.205 -0.3971  0.2002  0.6416
 6723TIP3    H141804   4.279   4.718   2.289  0.1366  0.9081  0.4365
 6723TIP3    H241805   4.206   4.817   2.202  2.2056  1.0726 -1.2062
 6724TIP3   OH241806   2.681   6.352   8.208  0.1756  0.0408 -0.0703
 6724TIP3    H141807   2.609   6.343   8.271 -0.2613 -0.4313 -0.6240
 6724TIP3    H241808   2.681   6.270   8.160  1.5971 -0.2686  0.4288
 6725TIP3   OH241809   1.863   6.508   7.835  0.0158 -0.2438  0.0739
 6725TIP3    H141810   1.775   6.482   7.866 -1.3096  2.9610 -0.6453
 6725TIP3    H241811   1.893   6.572   7.900  0.8474  0.3442 -0.8707
 6726TIP3   OH241812   6.683   4.423   0.414 -0.3830 -0.4325 -0.6635
 6726TIP3    H141813   6.602   4.378   0.438  0.2567 -2.0070 -1.3160
 6726TIP3    H241814   6.752   4.359   0.432  0.7397  0.9384  0.0367
 6727TIP3   OH241815   1.364   0.218   8.380  0.0370  0.0613  0.8725
 6727TIP3    H141816   1.419   0.149   8.416 -0.9489 -0.4318  1.4851
 6727TIP3    H241817   1.402   0.299   8.415  0.4143 -0.2585  1.2202
 6728TIP3   OH241818   0.214   5.462   0.761 -0.1118  0.4803  0.4125
 6728TIP3    H141819   0.246   5.528   0.700  0.0857 -1.4655 -1.7513
 6728TIP3    H241820   0.120   5.478   0.768 -0.3461  0.1293 -1.3332
 6729TIP3   OH241821   6.633   5.201   1.681 -0.4009 -0.0795 -0.1284
 6729TIP3    H141822   6.684   5.126   1.650  0.3847  0.2879  0.2414
 6729TIP3    H241823   6.550   5.163   1.711 -0.6997 -0.5813 -1.5444
 6730TIP3   OH241824   6.134   4.190   2.467  0.4822 -0.2973 -0.0356
 6730TIP3    H141825   6.189   4.144   2.531  0.8922  0.3241  0.0681
 6730TIP3    H241826   6.066   4.233   2.519 -1.2041 -2.4800 -0.2910
 6731TIP3   OH241827   5.705   3.450   2.699  0.0635 -0.5569  0.5776
 6731TIP3    H141828   5.781   3.439   2.756 -0.8139 -1.7484  1.5494
 6731TIP3    H241829   5.653   3.518   2.742 -0.6735 -1.5629  1.3083
 6732TIP3   OH241830   1.031   3.572   0.297 -0.1891  0.2269 -0.3279
 6732TIP3    H141831   0.969   3.636   0.262 -1.8806 -0.1232  1.7753
 6732TIP3    H241832   1.117   3.609   0.278 -1.0794  1.9665 -1.2249
 6733TIP3   OH241833   1.710   3.392   0.223  0.9052 -0.3561  0.0725
 6733TIP3    H141834   1.667   3.349   0.149  0.5115 -1.5902  1.0019
 6733TIP3    H241835   1.705   3.485   0.202 -0.2703 -0.6090 -0.8827
 6734TIP3   OH241836   0.495   4.398   2.179  0.1638  0.7349  0.2306
 6734TIP3    H141837   0.584   4.363   2.165 -0.0120  0.6212 -0.6630
 6734TIP3    H241838   0.452   4.331   2.233  0.4196  0.4698  0.1125
 6735TIP3   OH241839   5.816   1.476   0.949  0.2170  0.1574  0.2472
 6735TIP3    H141840   5.813   1.537   1.023 -0.7166 -0.1516  0.4797
 6735TIP3    H241841   5.750   1.409   0.971  0.3792 -0.2788 -0.5665
 6736TIP3   OH241842   6.056   2.530   0.652  0.6176 -0.2935  0.4471
 6736TIP3    H141843   6.042   2.436   0.650  2.8120 -0.7247 -2.6256
 6736TIP3    H241844   5.989   2.565   0.593  0.1209  0.0525  1.1983
 6737TIP3   OH241845   1.686   6.660   8.569  0.2368 -0.2734  0.4977
 6737TIP3    H141846   1.686   6.567   8.591  1.3912  0.0044  1.8850
 6737TIP3    H241847   1.700   6.663   8.475 -0.6228 -1.5081  0.3137
 6738TIP3   OH241848   4.034   1.010   8.383 -0.1386  0.6253  0.5045
 6738TIP3    H141849   4.009   1.018   8.475  1.2929 -0.3425  1.0037
 6738TIP3    H241850   4.007   0.921   8.359  1.3921  0.1154  0.6141
 6739TIP3   OH241851   5.953   6.144   3.088 -0.1705  0.3183 -0.3119
 6739TIP3    H141852   5.910   6.223   3.055  1.3133  1.1833 -0.3032
 6739TIP3    H241853   5.900   6.071   3.055 -0.2431  1.2390 -2.3490
 6740TIP3   OH241854   5.311   2.523   1.154 -0.4916 -0.3424 -0.4438
 6740TIP3    H141855   5.265   2.578   1.217  1.4001  0.9608 -0.1213
 6740TIP3    H241856   5.389   2.493   1.200 -0.2051 -1.2166 -1.4559
 6741TIP3   OH241857   6.539   2.975   2.201  0.1337 -0.1277  0.0440
 6741TIP3    H141858   6.585   2.913   2.258  1.0994  0.4280 -0.1236
 6741TIP3    H241859   6.509   3.044   2.260 -0.0270 -0.2197  0.0714
 6742TIP3   OH241860   3.507   3.188   8.396  1.0714  0.6430 -0.2040
 6742TIP3    H141861   3.573   3.129   8.360 -0.7810 -0.0071 -2.8552
 6742TIP3    H241862   3.555   3.246   8.455  3.3690 -1.9542  0.6766
 6743TIP3   OH241863   5.312   2.287   2.269 -0.0166 -0.6049  0.4044
 6743TIP3    H141864   5.336   2.317   2.181 -0.5354  2.3745  1.1700
 6743TIP3    H241865   5.249   2.216   2.254 -0.9371  0.5500 -1.6756
 6744TIP3   OH241866   6.060   5.042   0.749 -0.2153  0.2592  0.1213
 6744TIP3    H141867   6.017   5.014   0.669  2.3314 -2.1373 -0.5724
 6744TIP3    H241868   6.127   5.104   0.720  0.2109 -0.0346  0.4558
 6745TIP3   OH241869   5.767   6.272   0.236  0.2062  0.0014 -0.5000
 6745TIP3    H141870   5.715   6.291   0.157 -0.0439 -0.6082 -0.4850
 6745TIP3    H241871   5.732   6.330   0.303 -0.0861 -0.0101 -0.6416
 6746TIP3   OH241872   5.725   1.446   2.587  0.0276  0.1010 -0.3449
 6746TIP3    H141873   5.794   1.411   2.531  0.9680  1.5180 -0.1270
 6746TIP3    H241874   5.728   1.393   2.666  0.6977 -0.0262 -0.4522
 6747TIP3   OH241875   1.140   5.744   0.882 -0.0414  0.4580 -0.5984
 6747TIP3    H141876   1.228   5.707   0.878  0.1487  0.9748 -1.6078
 6747TIP3    H241877   1.099   5.716   0.800 -0.9488 -0.0835  0.0244
 6748TIP3   OH241878   4.124   2.509   0.507  0.1173 -0.1886  0.2020
 6748TIP3    H141879   4.174   2.435   0.542 -2.4624 -1.3454  1.7936
 6748TIP3    H241880   4.102   2.484   0.418 -0.5236 -1.2906  0.6471
 6749TIP3   OH241881   3.813   2.411   1.864 -0.6619  0.4810 -0.6498
 6749TIP3    H141882   3.877   2.482   1.866  0.3291 -0.3618  1.8088
 6749TIP3    H241883   3.838   2.355   1.938 -2.4430 -1.5014 -1.4665
 6750TIP3   OH241884   5.920   2.913   0.633  0.0378  0.2056  0.1414
 6750TIP3    H141885   6.012   2.889   0.623 -0.0756 -0.2972  0.2701
 6750TIP3    H241886   5.873   2.851   0.577 -0.1809  0.8100 -0.3428
 6751TIP3   OH241887   4.307   6.747   0.073  0.0608 -0.0824  0.3708
 6751TIP3    H141888   4.287   6.835   0.104 -0.0539 -0.1009  0.3505
 6751TIP3    H241889   4.393   6.755   0.031  0.6042 -0.2272  1.4183
 6752TIP3   OH241890   2.284   4.460   7.551 -0.6131 -0.1822 -0.0898
 6752TIP3    H141891   2.250   4.410   7.625  0.6976 -0.6101  0.2420
 6752TIP3    H241892   2.267   4.551   7.574 -0.6535 -0.3381  0.5001
 6753TIP3   OH241893   2.922   2.155   1.462  0.0535  0.4032  0.1801
 6753TIP3    H141894   3.016   2.171   1.451 -0.0139  2.8320  2.2404
 6753TIP3    H241895   2.916   2.061   1.480  1.9819  0.0499 -0.7821
 6754TIP3   OH241896   5.291   3.923   0.591  0.2203 -0.5590  0.2400
 6754TIP3    H141897   5.206   3.890   0.562  0.5571 -0.9395 -0.3237
 6754TIP3    H241898   5.351   3.849   0.583  0.4529 -0.5124  1.3699
 6755TIP3   OH241899   3.410   5.461   7.239 -0.2809 -0.4645 -0.6790
 6755TIP3    H141900   3.412   5.374   7.198  0.1364 -0.4564 -0.6799
 6755TIP3    H241901   3.492   5.467   7.288 -1.2099 -0.8555  0.9884
 6756TIP3   OH241902   1.576   3.230   1.820 -0.1322 -0.4786 -0.0787
 6756TIP3    H141903   1.527   3.157   1.855  0.3877 -0.6570  0.2864
 6756TIP3    H241904   1.630   3.192   1.751  1.6904 -0.8654  1.4720
 6757TIP3   OH241905   1.697   1.785   1.713  0.0383 -0.4420  0.2176
 6757TIP3    H141906   1.763   1.745   1.657  1.5918 -0.2724  1.8328
 6757TIP3    H241907   1.623   1.723   1.710 -0.6752  0.3668 -3.2335
 6758TIP3   OH241908   3.018   4.691   1.485 -0.2565  0.1730 -0.9096
 6758TIP3    H141909   2.944   4.631   1.493 -0.4572  0.6002  0.9452
 6758TIP3    H241910   3.016   4.742   1.566  2.3390 -0.1119 -0.5915
 6759TIP3   OH241911   4.976   3.240   1.718 -0.3149  0.5978  0.2513
 6759TIP3    H141912   4.894   3.219   1.676 -1.0710 -0.7979  2.2668
 6759TIP3    H241913   5.036   3.171   1.691 -0.4717  0.3441  0.5440
 6760TIP3   OH241914   5.130   4.796   3.201  0.6915 -0.0409 -0.0129
 6760TIP3    H141915   5.136   4.759   3.289  0.0770  0.3963  0.2174
 6760TIP3    H241916   5.156   4.724   3.144  1.8331 -0.1021  0.5553
 6761TIP3   OH241917   5.509   1.427   1.930  0.2439  0.1402 -0.5232
 6761TIP3    H141918   5.522   1.431   2.025 -1.4667 -0.1533 -0.2517
 6761TIP3    H241919   5.455   1.350   1.916  0.4094  0.2257 -1.7450
 6762TIP3   OH241920   0.632   4.482   3.777  0.1843  0.0047 -0.2185
 6762TIP3    H141921   0.661   4.448   3.862 -1.9758  0.0157  0.5878
 6762TIP3    H241922   0.623   4.576   3.790 -1.2943 -0.1391 -0.0706
 6763TIP3   OH241923   4.665   3.724   0.298  0.2523 -0.4800 -0.1248
 6763TIP3    H141924   4.602   3.721   0.226 -0.0319 -1.0617  0.1488
 6763TIP3    H241925   4.613   3.711   0.377  0.3156  1.7069  0.3567
 6764TIP3   OH241926   5.881   3.497   8.099  0.2934  0.9270 -0.6255
 6764TIP3    H141927   5.795   3.506   8.142  0.1021  0.9260 -1.0018
 6764TIP3    H241928   5.860   3.472   8.009  0.7074  0.4972 -0.6050
 6765TIP3   OH241929   4.062   6.459   1.942  0.3006 -0.1880 -0.3409
 6765TIP3    H141930   4.061   6.406   1.863 -1.6831 -0.5553 -0.1333
 6765TIP3    H241931   3.969   6.469   1.965  0.7939  0.4769  1.5547
 6766TIP3   OH241932   0.536   2.327   2.555  0.3797  0.0603  0.3147
 6766TIP3    H141933   0.466   2.278   2.512 -1.6553  0.0345  3.3004
 6766TIP3    H241934   0.505   2.417   2.557  1.3495  0.4107 -0.0033
 6767TIP3   OH241935   0.150   6.479   1.817  0.1007  0.1613 -0.4195
 6767TIP3    H141936   0.164   6.462   1.724 -1.6326 -0.3595 -0.6076
 6767TIP3    H241937   0.067   6.436   1.838  0.8439 -0.4229  1.5653
 6768TIP3   OH241938   1.511   2.722   0.045 -0.0554 -0.5162  0.0649
 6768TIP3    H141939   1.443   2.784   0.017 -0.3243 -0.0315  1.6536
 6768TIP3    H241940   1.511   2.654  -0.022  0.1918  1.1517 -1.7026
 6769TIP3   OH241941   1.870   6.881   1.512  0.2686 -0.0819  0.9786
 6769TIP3    H141942   1.928   6.812   1.542 -0.0845 -2.2754 -2.7034
 6769TIP3    H241943   1.928   6.952   1.486  0.8673 -0.1799  2.0024
 6770TIP3   OH241944   1.649   6.173   2.285 -0.2768  0.6320  0.1181
 6770TIP3    H141945   1.645   6.252   2.339 -1.4711  0.3534  0.4722
 6770TIP3    H241946   1.557   6.147   2.273 -0.1142  0.9682 -2.4937
 6771TIP3   OH241947   3.835   1.489   3.154  0.3341  0.5542 -0.7121
 6771TIP3    H141948   3.832   1.393   3.154  0.9425  0.5267 -1.9506
 6771TIP3    H241949   3.863   1.511   3.243 -0.3193 -0.3921 -0.2522
 6772TIP3   OH241950   6.853   0.829   0.879  0.5864 -0.5482 -0.3945
 6772TIP3    H141951   6.927   0.775   0.908 -0.4326 -0.7212  2.2359
 6772TIP3    H241952   6.780   0.768   0.873 -0.0675  0.1405  0.3335
 6773TIP3   OH241953   2.602   4.523   7.524  0.2140 -0.0849 -0.3111
 6773TIP3    H141954   2.543   4.522   7.599 -0.1852 -0.3759 -0.6297
 6773TIP3    H241955   2.675   4.467   7.550  0.0407 -0.2470 -0.1723
 6774TIP3   OH241956   4.014   0.799   0.241  0.5659 -0.1501  0.0487
 6774TIP3    H141957   4.034   0.766   0.154 -1.8029 -0.0406 -0.6170
 6774TIP3    H241958   4.068   0.878   0.250  0.6227  0.0078 -1.4630
 6775TIP3   OH241959   5.447   5.595   2.762 -0.0194  0.1406 -0.7063
 6775TIP3    H141960   5.510   5.661   2.732 -1.1654  0.7821 -1.7683
 6775TIP3    H241961   5.478   5.513   2.722  0.9327  0.1641 -0.0625
 6776TIP3   OH241962   4.585   5.487   7.221  0.3360 -0.0176 -0.5577
 6776TIP3    H141963   4.664   5.530   7.255  0.9285 -1.7939  0.4855
 6776TIP3    H241964   4.547   5.443   7.298 -0.5623 -0.8255 -1.4323
 6777TIP3   OH241965   0.282   2.328   0.952 -0.6773  0.3433  0.0237
 6777TIP3    H141966   0.246   2.404   0.998 -0.6407  1.2903 -1.4170
 6777TIP3    H241967   0.343   2.289   1.013  0.5817  2.4909  0.2379
 6778TIP3   OH241968   0.185   0.413   8.156  0.0870  0.2617  0.2611
 6778TIP3    H141969   0.211   0.360   8.080 -0.2682  0.2302  0.1571
 6778TIP3    H241970   0.090   0.424   8.146 -0.0316 -0.0985  0.9207
 6779TIP3   OH241971   3.558   2.389   2.729 -0.1061  0.2925 -0.0853
 6779TIP3    H141972   3.594   2.373   2.817  1.2702  1.9310 -0.3123
 6779TIP3    H241973   3.463   2.384   2.741  0.0619 -2.3516  0.8953
 6780TIP3   OH241974   4.216   4.839   0.491 -0.1745  0.1713  0.9861
 6780TIP3    H141975   4.219   4.879   0.404  1.2957 -1.4030  0.2497
 6780TIP3    H241976   4.123   4.837   0.514 -0.5716  0.7682 -0.4688
 6781TIP3   OH241977   2.433   6.244   7.966  0.3766 -0.3612  0.2221
 6781TIP3    H141978   2.447   6.162   7.918  1.2830  0.7903 -1.6423
 6781TIP3    H241979   2.390   6.301   7.902  1.1822  1.1020  0.9392
 6782TIP3   OH241980   1.290   5.985   8.294 -0.0943  0.3790  0.5651
 6782TIP3    H141981   1.374   5.974   8.249 -0.4198 -0.7815  0.2354
 6782TIP3    H241982   1.282   5.908   8.350 -1.1878  0.2105  0.1991
 6783TIP3   OH241983   3.560   2.297   1.332  0.3641 -0.4940 -0.2302
 6783TIP3    H141984   3.560   2.377   1.385  0.0921  1.0204 -2.3542
 6783TIP3    H241985   3.499   2.316   1.260  1.5012 -1.9986 -1.6770
 6784TIP3   OH241986   4.635   3.577   8.600  0.5788 -0.0974 -0.1588
 6784TIP3    H141987   4.723   3.558   8.633  0.5583 -2.3049 -1.1956
 6784TIP3    H241988   4.649   3.633   8.524  1.0511 -0.0775 -0.0573
 6785TIP3   OH241989   1.663   1.722   3.823 -0.1959  0.2171 -0.2259
 6785TIP3    H141990   1.711   1.801   3.846  0.7007  0.4136 -2.5055
 6785TIP3    H241991   1.616   1.745   3.744 -2.7079 -0.5420  0.9530
 6786TIP3   OH241992   5.562   0.582   1.721  0.5411  0.1647  0.3228
 6786TIP3    H141993   5.595   0.492   1.714 -0.3798 -0.1018 -0.8362
 6786TIP3    H241994   5.469   0.572   1.739  0.3937  0.8879 -0.0203
 6787TIP3   OH241995   6.299   5.462   7.737  0.2659  1.0394  0.2637
 6787TIP3    H141996   6.334   5.440   7.824  1.5022 -0.6394 -0.6099
 6787TIP3    H241997   6.204   5.456   7.747  0.4366 -1.7312  0.8997
 6788TIP3   OH241998   6.571   0.449   0.565 -0.4226  0.2933  0.5086
 6788TIP3    H141999   6.525   0.530   0.583 -0.5727  0.2837  0.1685
 6788TIP3    H242000   6.591   0.452   0.471 -2.6273 -1.1818 -0.0794
 6789TIP3   OH242001   0.247   1.478   0.957 -0.0091  0.6486  0.2205
 6789TIP3    H142002   0.215   1.523   1.034 -1.9626  1.2597 -0.8864
 6789TIP3    H242003   0.231   1.539   0.885 -1.4908 -1.2156 -1.1411
 6790TIP3   OH242004   3.251   0.749   0.510  0.5144  0.6855 -0.3084
 6790TIP3    H142005   3.276   0.659   0.490  2.3604  1.4513 -1.8351
 6790TIP3    H242006   3.214   0.782   0.428 -0.2355  1.3060  0.2597
 6791TIP3   OH242007   2.193   0.614   0.562  0.4593  0.5387  0.1226
 6791TIP3    H142008   2.191   0.546   0.630  0.1938  0.8768  0.4535
 6791TIP3    H242009   2.157   0.571   0.485  1.7952 -0.1928 -0.1320
 6792TIP3   OH242010   2.142   3.617   0.650  0.1316  0.3418 -0.4788
 6792TIP3    H142011   2.211   3.583   0.707  0.0932  1.4171  0.2682
 6792TIP3    H242012   2.066   3.561   0.668  1.3398 -2.2960 -2.9808
 6793TIP3   OH242013   6.022   0.234   1.530 -0.5410  0.0130  0.0280
 6793TIP3    H142014   6.015   0.188   1.614  0.7702  1.2357  0.8400
 6793TIP3    H242015   6.104   0.203   1.492 -0.6583  0.1816 -0.3685
 6794TIP3   OH242016   6.096   5.242   1.903 -0.0513  0.1507 -0.1664
 6794TIP3    H142017   6.130   5.157   1.876  0.4270  0.2970 -0.0426
 6794TIP3    H242018   6.091   5.236   1.999  0.4077  0.4140 -0.1242
 6795TIP3   OH242019   0.460   0.721   3.273 -0.0253  0.3171  0.3111
 6795TIP3    H142020   0.552   0.742   3.289  0.2987  0.7089 -1.7696
 6795TIP3    H242021   0.451   0.630   3.302  0.9786  0.3051  0.6210
 6796TIP3   OH242022   1.114   6.847   7.444 -0.1507 -0.3914  0.1668
 6796TIP3    H142023   1.068   6.929   7.427 -1.6258 -1.2917 -0.3986
 6796TIP3    H242024   1.206   6.871   7.444 -0.4797  1.0470 -1.3213
 6797TIP3   OH242025   4.865   4.394   8.172 -0.2285  0.5213 -0.5459
 6797TIP3    H142026   4.771   4.414   8.171 -0.8543 -1.9178 -2.5743
 6797TIP3    H242027   4.902   4.454   8.107 -0.8036  0.0769 -1.3115
 6798TIP3   OH242028   3.376   1.591   1.718 -0.3217 -0.1718  0.4155
 6798TIP3    H142029   3.378   1.496   1.708  0.6478 -0.5674  3.3449
 6798TIP3    H242030   3.462   1.614   1.753 -0.1079  1.9917 -1.3235
 6799TIP3   OH242031   3.230   3.370   1.001  0.5413 -0.4111  0.5742
 6799TIP3    H142032   3.152   3.359   0.947  0.2316 -1.3809  1.1904
 6799TIP3    H242033   3.200   3.417   1.078  0.6500 -0.4254  0.6263
 6800TIP3   OH242034   1.633   4.292   8.487  0.2665 -0.4458  0.5360
 6800TIP3    H142035   1.640   4.276   8.581  0.8165 -0.1828  0.5459
 6800TIP3    H242036   1.565   4.231   8.457  0.7116 -1.1697  0.9581
 6801TIP3   OH242037   6.384   4.156   1.443 -0.1775  0.0458  0.7433
 6801TIP3    H142038   6.332   4.148   1.364  0.8474  0.7576 -0.0284
 6801TIP3    H242039   6.375   4.071   1.486 -1.8306  0.0979  0.5752
 6802TIP3   OH242040   3.317   5.678   2.741 -0.1970 -0.1489 -0.2221
 6802TIP3    H142041   3.382   5.677   2.811  0.2808 -1.4556 -0.6538
 6802TIP3    H242042   3.292   5.770   2.732  0.3133  0.1362  1.1177
 6803TIP3   OH242043   5.457   0.432   2.679  0.0075 -0.1189 -0.3128
 6803TIP3    H142044   5.552   0.418   2.670  0.0656 -1.8484  2.0006
 6803TIP3    H242045   5.418   0.360   2.630 -0.0549 -0.4742  0.2551
 6804TIP3   OH242046   0.813   1.800   2.605 -0.5673  0.0323  0.0103
 6804TIP3    H142047   0.880   1.797   2.674 -0.5765  1.1739  0.0951
 6804TIP3    H242048   0.827   1.884   2.562 -0.3245 -0.8237 -1.6549
 6805TIP3   OH242049   3.387   0.806   2.055  0.2558  1.0129  0.6475
 6805TIP3    H142050   3.292   0.795   2.044  0.6624 -1.4513 -0.9563
 6805TIP3    H242051   3.404   0.895   2.025 -1.4095  1.1600  0.0349
 6806TIP3   OH242052   0.775   5.634   1.034 -0.1882  0.0402 -0.2390
 6806TIP3    H142053   0.766   5.701   1.102  0.5797 -0.5952  0.5102
 6806TIP3    H242054   0.731   5.557   1.071 -0.0425 -0.2171 -0.5960
 6807TIP3   OH242055   5.570   1.707   1.910 -0.2991 -0.3511  0.3058
 6807TIP3    H142056   5.521   1.628   1.933 -0.1997  0.0429  2.0035
 6807TIP3    H242057   5.544   1.726   1.820  0.5607 -2.9661 -0.6072
 6808TIP3   OH242058   3.323   5.221   1.756 -0.0486  0.3713 -0.4687
 6808TIP3    H142059   3.251   5.281   1.774 -0.9294 -0.8305  0.1642
 6808TIP3    H242060   3.281   5.135   1.747  1.4846 -0.7401  1.9866
 6809TIP3   OH242061   5.353   3.071   2.548  0.2382 -0.4441  0.3045
 6809TIP3    H142062   5.414   3.000   2.564 -0.1086 -0.9794 -0.6449
 6809TIP3    H242063   5.266   3.032   2.561  0.0347 -0.2965 -0.5014
 6810TIP3   OH242064   4.809   4.454   2.111 -0.2107  0.4203  0.6472
 6810TIP3    H142065   4.851   4.392   2.051 -0.3885 -0.1071  1.0645
 6810TIP3    H242066   4.827   4.419   2.198 -0.1957  1.0314  0.8924
 6811TIP3   OH242067   3.768   5.713   2.258 -0.5071  0.3438 -0.0851
 6811TIP3    H142068   3.733   5.646   2.317  0.0726 -0.9217 -1.1364
 6811TIP3    H242069   3.734   5.796   2.293 -2.2522 -0.5909  0.5257
 6812TIP3   OH242070   1.730   2.999   8.339  0.0151  0.4611  0.3100
 6812TIP3    H142071   1.742   3.001   8.434  1.6298  0.8368  0.1424
 6812TIP3    H242072   1.805   3.049   8.305 -0.9131  0.9294 -1.1319
 6813TIP3   OH242073   5.067   6.077   1.446  0.8549  0.0405  0.1985
 6813TIP3    H142074   5.018   6.082   1.364  0.6148 -0.0973  0.3324
 6813TIP3    H242075   5.099   5.987   1.450 -0.0434 -0.2593  0.7735
 6814TIP3   OH242076   3.160   0.101   7.342  0.3117  0.3764 -0.0651
 6814TIP3    H142077   3.126   0.126   7.428 -1.6894  0.2586 -0.7625
 6814TIP3    H242078   3.182   0.184   7.300 -1.8171  0.7160 -0.6124
 6815TIP3   OH242079   3.526   4.876   0.150 -0.2790  0.3401 -0.0617
 6815TIP3    H142080   3.586   4.865   0.223  0.5980  0.3126 -0.7592
 6815TIP3    H242081   3.474   4.953   0.173  1.6363  1.8512 -0.4657
 6816TIP3   OH242082   0.969   2.960   1.751 -0.7224  0.1163 -0.2324
 6816TIP3    H142083   1.012   2.911   1.681  0.4767  1.6311 -0.6214
 6816TIP3    H242084   0.930   2.893   1.807  0.3637 -1.2385 -1.0325
 6817TIP3   OH242085   2.993   2.927   0.031  0.3212  0.1046  0.1323
 6817TIP3    H142086   3.058   2.923   0.101  1.0062 -1.6758 -0.5464
 6817TIP3    H242087   2.923   2.868   0.060  1.2642 -1.7990 -1.2331
 6818TIP3   OH242088   4.424   5.581   1.373 -0.2659  0.4026  0.1330
 6818TIP3    H142089   4.432   5.672   1.343  1.0699  0.7483  1.3774
 6818TIP3    H242090   4.347   5.582   1.430 -0.9499  0.4669 -0.7793
 6819TIP3   OH242091   6.372   5.396   8.000 -0.0242  0.0418  0.9829
 6819TIP3    H142092   6.442   5.371   8.061  0.1263  0.4886  0.9992
 6819TIP3    H242093   6.310   5.323   8.003  1.6008 -1.5293 -0.8270
 6820TIP3   OH242094   2.431   0.723   2.519 -0.7813 -0.1218  0.7279
 6820TIP3    H142095   2.346   0.692   2.486 -0.3799  0.8204 -1.3651
 6820TIP3    H242096   2.446   0.805   2.472  1.7511 -0.7703  0.2593
 6821TIP3   OH242097   2.854   4.520   1.813 -0.6023  0.4665 -0.6525
 6821TIP3    H142098   2.868   4.434   1.775 -0.6948  0.7237 -1.2780
 6821TIP3    H242099   2.765   4.544   1.787  0.4158  2.0232 -3.0803
 6822TIP3   OH242100   6.621   2.573   2.933 -0.1449 -0.1763  0.1027
 6822TIP3    H142101   6.557   2.638   2.905 -0.1675 -0.3327 -0.2162
 6822TIP3    H242102   6.686   2.623   2.982  0.2273  0.2133 -0.7636
 6823TIP3   OH242103   3.562   4.031   2.383 -0.0443 -0.6977 -0.4042
 6823TIP3    H142104   3.592   3.974   2.453 -0.4962 -2.0278 -1.2521
 6823TIP3    H242105   3.468   4.014   2.375 -0.3837  0.8695 -0.0638
 6824TIP3   OH242106   3.551   5.882   0.004  0.3418 -0.0635  0.3010
 6824TIP3    H142107   3.537   5.907   0.095 -1.0929 -0.0105  0.0834
 6824TIP3    H242108   3.586   5.961  -0.038 -0.0128  0.2366  0.5694
 6825TIP3   OH242109   1.731   1.741   0.685  0.2302 -0.2324  0.0245
 6825TIP3    H142110   1.734   1.824   0.733  1.7180 -2.3980  4.1134
 6825TIP3    H242111   1.672   1.686   0.735  0.3507 -2.1415 -1.8018
 6826TIP3   OH242112   2.031   3.028   1.415 -0.0007 -0.3541  0.1104
 6826TIP3    H142113   1.945   3.036   1.373  0.9537 -0.2908 -1.9777
 6826TIP3    H242114   2.013   3.036   1.508 -1.8221  4.1963 -0.3689
 6827TIP3   OH242115   3.106   1.403   0.387  0.1184  0.1692  0.1057
 6827TIP3    H142116   3.111   1.455   0.468  0.0211  1.5814 -0.7643
 6827TIP3    H242117   3.161   1.450   0.325 -1.6126  0.3791 -1.3273
 6828TIP3   OH242118   5.502   0.824   3.030 -0.4447 -0.1854 -0.3937
 6828TIP3    H142119   5.475   0.799   3.118  0.6983  0.2690  0.1110
 6828TIP3    H242120   5.519   0.741   2.986  0.1773 -0.3940  0.2187
 6829TIP3   OH242121   4.219   6.614   2.221 -0.1747  0.3079 -0.2730
 6829TIP3    H142122   4.307   6.618   2.184  0.2860  1.1009  0.8584
 6829TIP3    H242123   4.163   6.653   2.154  0.0051 -1.8916 -1.8119
 6830TIP3   OH242124   4.145   0.807   1.709 -1.2470 -0.7855  0.0592
 6830TIP3    H142125   4.129   0.832   1.618  0.0859 -0.3683 -0.0841
 6830TIP3    H242126   4.234   0.770   1.708 -0.2961  1.2564  1.5445
 6831TIP3   OH242127   0.746   5.595   7.820  0.5373 -0.0074 -0.2163
 6831TIP3    H142128   0.824   5.541   7.810  1.3925  0.9522  0.8475
 6831TIP3    H242129   0.681   5.538   7.860  2.1797  0.2356  3.1576
 6832TIP3   OH242130   4.214   4.742   2.494  0.2825 -0.7820  0.0388
 6832TIP3    H142131   4.185   4.831   2.512  1.7110 -0.5163  1.2354
 6832TIP3    H242132   4.159   4.687   2.550  0.4685 -0.5021  0.4990
 6833TIP3   OH242133   6.328   3.108   1.400 -0.4917  0.1027  0.1472
 6833TIP3    H142134   6.403   3.074   1.449 -0.8080  0.3175  0.7782
 6833TIP3    H242135   6.367   3.145   1.320  0.1701  1.0159  0.8766
 6834TIP3   OH242136   6.811   2.131   3.305  0.7353  0.3884 -0.1879
 6834TIP3    H142137   6.774   2.051   3.267  1.3749  0.8641 -1.9456
 6834TIP3    H242138   6.827   2.187   3.229  0.9040  1.9395  0.9497
 6835TIP3   OH242139   1.178   6.036   0.895  0.7441  0.1759  0.2042
 6835TIP3    H142140   1.111   6.050   0.829  0.3730  0.1467  0.5711
 6835TIP3    H242141   1.180   5.941   0.908  1.2740  0.1248 -0.2358
 6836TIP3   OH242142   6.439   6.870   7.414  0.6376 -0.2082  0.1502
 6836TIP3    H142143   6.383   6.794   7.428 -0.1540  0.1609 -0.8851
 6836TIP3    H242144   6.379   6.945   7.422  0.5422  0.1212 -2.8135
 6837TIP3   OH242145   6.142   2.686   8.431 -0.5817 -0.5633  0.1740
 6837TIP3    H142146   6.104   2.603   8.402 -1.1943 -0.0041 -0.6769
 6837TIP3    H242147   6.116   2.694   8.523 -2.3325 -0.3377 -0.3055
 6838TIP3   OH242148   5.700   4.986   0.547 -0.0730  0.5591 -0.4044
 6838TIP3    H142149   5.714   5.017   0.457  1.0885  0.2402 -0.3487
 6838TIP3    H242150   5.677   5.065   0.595  0.7520  0.9961 -0.6999
 6839TIP3   OH242151   1.524   1.660   8.265 -0.1183 -0.4380  0.1474
 6839TIP3    H142152   1.438   1.666   8.222  0.9595  2.1762 -1.9296
 6839TIP3    H242153   1.583   1.631   8.195  0.8122 -1.7525  1.4302
 6840TIP3   OH242154   1.810   6.533   2.810 -0.4998 -0.4027 -0.0626
 6840TIP3    H142155   1.747   6.464   2.791 -0.4750 -0.1230 -1.2321
 6840TIP3    H242156   1.888   6.487   2.841 -0.9888 -0.7970  0.6107
 6841TIP3   OH242157   5.938   6.237   1.161  0.3695  0.6575  0.0604
 6841TIP3    H142158   5.842   6.235   1.159  0.3117  2.0811  0.3671
 6841TIP3    H242159   5.960   6.323   1.198  1.7561 -0.1830  1.2844
 6842TIP3   OH242160   5.468   5.269   0.020 -0.4436  0.3900  0.1240
 6842TIP3    H142161   5.451   5.175   0.020  0.3531  0.1730  2.8176
 6842TIP3    H242162   5.382   5.309   0.005 -0.7895 -0.7203 -1.0468
 6843TIP3   OH242163   1.629   1.576   8.546  0.2750 -0.3038 -0.0237
 6843TIP3    H142164   1.718   1.548   8.525  0.0026  0.6783 -2.9438
 6843TIP3    H242165   1.598   1.619   8.466 -3.5983 -2.4475  0.1009
 6844TIP3   OH242166   2.809   2.264   8.090  0.0534  0.3016  0.4600
 6844TIP3    H142167   2.904   2.273   8.099 -0.0058 -0.1933  1.8581
 6844TIP3    H242168   2.791   2.290   8.000  1.8033 -1.7216 -0.5713
 6845TIP3   OH242169   6.599   4.656   2.306  0.2164 -0.1688  1.0451
 6845TIP3    H142170   6.675   4.666   2.249  0.5142 -1.7557  1.1292
 6845TIP3    H242171   6.603   4.732   2.364  0.6370  0.7782 -0.1942
 6846TIP3   OH242172   4.551   4.681   2.820  0.5074  0.3612  0.1792
 6846TIP3    H142173   4.584   4.617   2.883  1.8107  0.6217 -0.2035
 6846TIP3    H242174   4.472   4.642   2.785  0.8276 -0.6666  0.5628
 6847TIP3   OH242175   0.342   2.127   2.454 -0.5569  0.0389  0.6462
 6847TIP3    H142176   0.392   2.057   2.496 -1.0964 -0.5681  0.2985
 6847TIP3    H242177   0.318   2.091   2.369 -3.3896 -0.5504  1.6003
 6848TIP3   OH242178   5.235   1.942   1.285 -0.3759 -0.5744 -1.1136
 6848TIP3    H142179   5.228   2.037   1.281  1.4157 -0.2342  1.2694
 6848TIP3    H242180   5.329   1.925   1.296 -0.9249 -2.3206  2.1366
 6849TIP3   OH242181   3.771   5.659   2.645  0.4225 -0.0678 -0.1713
 6849TIP3    H142182   3.722   5.620   2.573 -0.6476 -0.9020  0.9636
 6849TIP3    H242183   3.752   5.752   2.639 -1.1939 -0.3420  0.1132
 6850TIP3   OH242184   0.628   5.335   0.679 -0.3260 -0.3819 -0.2044
 6850TIP3    H142185   0.702   5.395   0.681  0.0749 -0.8172 -1.2886
 6850TIP3    H242186   0.664   5.250   0.705 -0.0553 -0.9557 -2.3044
 6851TIP3   OH242187   0.449   3.179   7.213  0.5577 -0.3271  0.2688
 6851TIP3    H142188   0.453   3.124   7.291  2.6815 -1.1168 -0.3222
 6851TIP3    H242189   0.483   3.264   7.241 -1.8623  0.4886  0.9580
 6852TIP3   OH242190   5.431   4.421   0.648 -0.5233  0.4059 -0.5705
 6852TIP3    H142191   5.454   4.328   0.660 -0.8974  0.3753 -0.0092
 6852TIP3    H242192   5.342   4.419   0.613 -0.1997  0.5412 -1.4005
 6853TIP3   OH242193   5.099   3.920   0.201  0.2293  0.5507 -0.2746
 6853TIP3    H142194   5.192   3.938   0.186  0.1235  2.4270  1.0970
 6853TIP3    H242195   5.098   3.863   0.278  0.3400 -2.5308 -2.3479
 6854TIP3   OH242196   6.684   4.120   3.686  0.2937  0.3029 -1.2155
 6854TIP3    H142197   6.755   4.058   3.703  0.9473  0.7100 -2.3176
 6854TIP3    H242198   6.672   4.166   3.769  0.3827 -0.7069 -0.6291
 6855TIP3   OH242199   1.729   1.657   0.424 -0.3813 -0.3372 -0.0690
 6855TIP3    H142200   1.736   1.564   0.448  0.5984 -0.5974 -1.2853
 6855TIP3    H242201   1.735   1.703   0.508 -1.0330 -1.3658  0.5702
 6856TIP3   OH242202   4.725   3.811   7.614  0.8900  0.1938  0.0541
 6856TIP3    H142203   4.659   3.838   7.550  1.4946  0.9733 -0.2625
 6856TIP3    H242204   4.782   3.751   7.566 -0.4472 -1.7253  0.7547
 6857TIP3   OH242205   2.115   3.027   0.486 -0.0747 -0.7092 -0.1399
 6857TIP3    H142206   2.047   3.076   0.531  1.0696  0.4149  0.4496
 6857TIP3    H242207   2.171   2.993   0.555 -0.9936 -3.1706 -0.5266
 6858TIP3   OH242208   1.064   1.442   7.652 -0.0772  0.6171 -0.2306
 6858TIP3    H142209   1.021   1.356   7.650  0.4128  0.3144  0.9707
 6858TIP3    H242210   0.992   1.505   7.655 -0.4557  0.1643  0.5658
 6859TIP3   OH242211   0.411   3.045   1.344 -0.6547  0.2665  0.0899
 6859TIP3    H142212   0.357   3.113   1.305  0.6122  1.0907 -0.2748
 6859TIP3    H242213   0.469   3.091   1.404  1.5434 -0.1689 -1.5672
 6860TIP3   OH242214   2.811   3.297   2.829 -0.0697 -0.2008 -0.2503
 6860TIP3    H142215   2.797   3.367   2.765 -0.5348  1.2364  1.3400
 6860TIP3    H242216   2.723   3.266   2.850 -0.0403  0.3251  0.7097
 6861TIP3   OH242217   6.412   5.884   2.312 -0.1582 -0.0825 -0.4148
 6861TIP3    H142218   6.323   5.856   2.290  0.2260 -0.7747 -1.1301
 6861TIP3    H242219   6.405   5.979   2.324 -1.0878 -0.1982  0.0516
 6862TIP3   OH242220   3.178   1.146   1.640 -0.1199  0.3454 -0.0967
 6862TIP3    H142221   3.187   1.100   1.724 -0.5344  1.5888  0.6446
 6862TIP3    H242222   3.253   1.116   1.589  0.2364 -0.2971  0.7711
 6863TIP3   OH242223   2.716   0.729   8.129  0.6155  0.1753 -0.3199
 6863TIP3    H142224   2.634   0.712   8.082  0.0392  0.3255  0.5907
 6863TIP3    H242225   2.747   0.812   8.092 -0.1189  0.5806 -0.0685
 6864TIP3   OH242226   3.656   4.665   2.915  0.5066  0.4134 -0.5168
 6864TIP3    H142227   3.725   4.626   2.969  0.0730 -0.0676 -0.3056
 6864TIP3    H242228   3.577   4.617   2.938  0.2600  0.3877 -1.3753
 6865TIP3   OH242229   6.878   3.999   0.076 -0.4837  0.1068  0.3701
 6865TIP3    H142230   6.910   3.985  -0.013 -1.2853  1.0816 -0.1009
 6865TIP3    H242231   6.955   3.988   0.132  0.5105  1.5740 -0.6498
 6866TIP3   OH242232   1.022   6.447   1.710  0.3563 -0.5881  0.1506
 6866TIP3    H142233   0.987   6.363   1.740 -2.2667 -0.0106 -1.0625
 6866TIP3    H242234   0.961   6.512   1.744  0.1223  0.4701 -2.1364
 6867TIP3   OH242235   4.388   2.659   0.394 -0.0777 -0.2676  0.0410
 6867TIP3    H142236   4.370   2.566   0.411 -0.4648 -0.3734 -0.8392
 6867TIP3    H242237   4.479   2.661   0.364  0.2254 -0.2321  0.9379
 6868TIP3   OH242238   5.053   3.780   2.216  0.3163  0.0520  0.1084
 6868TIP3    H142239   5.084   3.863   2.178 -1.0617  1.2216  1.4277
 6868TIP3    H242240   5.112   3.765   2.291  0.6644 -0.2581 -0.2236
 6869TIP3   OH242241   0.898   2.920   1.388 -0.0523 -0.0346  0.3908
 6869TIP3    H142242   0.813   2.919   1.431 -0.7913 -1.4945 -0.9875
 6869TIP3    H242243   0.931   3.009   1.402 -1.6407  0.4574  1.2660
 6870TIP3   OH242244   6.608   4.788   3.217 -0.8297 -0.6625  0.2675
 6870TIP3    H142245   6.701   4.768   3.204 -0.6516 -0.5270  1.2281
 6870TIP3    H242246   6.578   4.820   3.132  0.2226  0.1503  0.1801
 6871TIP3   OH242247   6.858   0.782   0.013 -0.1364  0.3003  0.1758
 6871TIP3    H142248   6.951   0.792   0.036 -0.2034  2.2289 -0.2286
 6871TIP3    H242249   6.819   0.741   0.090  0.4467  2.6352  1.8144
 6872TIP3   OH242250   3.152   6.722   0.687 -0.4945  0.6132  0.4908
 6872TIP3    H142251   3.149   6.816   0.674  0.3345  0.5221 -0.4271
 6872TIP3    H242252   3.217   6.690   0.625 -3.0256 -0.9594 -1.6249
 6873TIP3   OH242253   5.190   1.136   0.362  0.2659  0.2900  0.6345
 6873TIP3    H142254   5.276   1.138   0.320  0.3310  2.8759  0.7315
 6873TIP3    H242255   5.130   1.111   0.292  0.8834  0.3805  0.0614
 6874TIP3   OH242256   5.964   2.701   1.678 -0.2581 -0.2745 -0.3399
 6874TIP3    H142257   5.919   2.782   1.657 -0.6714 -0.6130 -0.7669
 6874TIP3    H242258   5.902   2.651   1.730  0.4219  0.1685  0.9531
 6875TIP3   OH242259   1.922   1.492   0.090  0.0136  0.4751 -0.2608
 6875TIP3    H142260   1.921   1.453   0.002 -0.9212 -0.8561  0.3009
 6875TIP3    H242261   2.015   1.501   0.111  0.2614  1.8926 -1.8264
 6876TIP3   OH242262   0.866   1.051   8.367 -0.1277 -0.3609  0.8019
 6876TIP3    H142263   0.808   1.081   8.297  0.9169  1.7362  0.7477
 6876TIP3    H242264   0.936   1.004   8.322  0.7785  1.3622  0.3303
 6877TIP3   OH242265   2.044   5.591   7.661  0.3426  0.0034 -0.4705
 6877TIP3    H142266   2.067   5.549   7.578 -0.8294 -2.2865  0.2901
 6877TIP3    H242267   1.953   5.616   7.651  0.0967 -0.5840  0.2253
 6878TIP3   OH242268   2.825   2.950   2.277 -0.8163 -0.1950 -0.6975
 6878TIP3    H142269   2.869   2.947   2.192 -0.0497 -0.1661 -0.3085
 6878TIP3    H242270   2.797   2.859   2.292  0.0388 -0.4296 -0.4747
 6879TIP3   OH242271   3.682   5.275   7.639  0.0931  0.1795 -0.2091
 6879TIP3    H142272   3.642   5.193   7.666  0.4632  0.0477 -0.0533
 6879TIP3    H242273   3.692   5.325   7.720  1.5803 -0.3815 -0.0229
 6880TIP3   OH242274   3.107   2.311   8.049  0.7320 -0.1405 -0.3915
 6880TIP3    H142275   3.171   2.345   7.987  0.3505  1.2192 -0.0689
 6880TIP3    H242276   3.158   2.290   8.127  0.8525  0.4517 -0.3118
 6881TIP3   OH242277   5.184   0.304   0.905 -0.3178  0.0759  0.0775
 6881TIP3    H142278   5.276   0.310   0.930 -0.2399  0.8929 -0.3918
 6881TIP3    H242279   5.162   0.390   0.869 -0.3666 -1.0075 -2.7942
 6882TIP3   OH242280   3.993   5.839   1.373  0.1561  0.4776 -0.1598
 6882TIP3    H142281   3.972   5.895   1.298  3.6020  0.7920 -1.0689
 6882TIP3    H242282   4.064   5.885   1.418 -0.8282 -0.4331  2.5161
 6883TIP3   OH242283   3.799   4.983   2.329  0.2985  0.5385  0.0549
 6883TIP3    H142284   3.746   4.989   2.249 -0.1155 -0.5865  0.2105
 6883TIP3    H242285   3.841   4.897   2.323  0.3932  0.5112  0.9659
 6884TIP3   OH242286   2.289   4.520   1.886  0.1413  0.3601  0.4484
 6884TIP3    H142287   2.365   4.474   1.922  1.9281  0.8119 -2.4338
 6884TIP3    H242288   2.259   4.464   1.814 -0.5606  1.4802 -0.1512
 6885TIP3   OH242289   4.273   6.857   1.502  0.0871  0.3348  0.7396
 6885TIP3    H142290   4.239   6.870   1.413  2.1682  0.7716 -0.0505
 6885TIP3    H242291   4.365   6.833   1.489  1.0090  2.4040  2.7942
 6886TIP3   OH242292   1.564   4.777   0.519  0.1934  0.6765  0.0639
 6886TIP3    H142293   1.517   4.803   0.598 -0.0696  1.6431 -0.3975
 6886TIP3    H242294   1.634   4.841   0.510  0.5983  0.2104 -0.1536
 6887TIP3   OH242295   4.253   3.846   0.993  0.0790  0.1492  0.8261
 6887TIP3    H142296   4.177   3.890   0.957  1.6524  1.9706 -0.4618
 6887TIP3    H242297   4.247   3.756   0.959 -1.2776  0.3496  0.4750
 6888TIP3   OH242298   6.008   4.970   0.486 -0.2562 -0.0777 -0.4113
 6888TIP3    H142299   5.915   4.970   0.508 -0.9034 -0.5394 -2.8333
 6888TIP3    H242300   6.016   4.907   0.415  1.9550 -0.1263 -0.1881
 6889TIP3   OH242301   0.702   3.311   2.612  0.0705  0.7077  0.2225
 6889TIP3    H142302   0.705   3.340   2.703 -1.0759  0.3211  0.3886
 6889TIP3    H242303   0.709   3.216   2.616 -2.0081  0.5022  0.0694
 6890TIP3   OH242304   0.491   3.393   0.282  0.3885 -0.2564  0.7509
 6890TIP3    H142305   0.471   3.429   0.196  0.6384  0.1478  0.8577
 6890TIP3    H242306   0.526   3.305   0.264 -1.6929 -1.0997  0.5763
 6891TIP3   OH242307   1.357   2.063   1.124  0.6165  0.2036 -0.0375
 6891TIP3    H142308   1.353   2.150   1.085 -0.1083  0.7297  1.1568
 6891TIP3    H242309   1.350   2.078   1.218  1.6131 -1.0734  0.2850
 6892TIP3   OH242310   0.313   4.670   7.935  0.1914  0.0697  0.0218
 6892TIP3    H142311   0.358   4.703   7.857  2.0280 -1.6267  0.3040
 6892TIP3    H242312   0.333   4.577   7.937  0.7816  0.1789  2.8951
 6893TIP3   OH242313   5.082   5.571   1.993  0.1232  0.6608 -0.1053
 6893TIP3    H142314   5.139   5.644   2.016 -0.0124  1.2715 -1.6372
 6893TIP3    H242315   5.052   5.590   1.904  0.7035 -1.6414 -0.8498
 6894TIP3   OH242316   2.088   2.262   1.747 -0.1474  0.7710  0.2096
 6894TIP3    H142317   2.001   2.284   1.714 -0.0849 -0.9618 -1.2970
 6894TIP3    H242318   2.148   2.300   1.682  0.0710 -0.4489 -0.3418
 6895TIP3   OH242319   4.951   1.423   1.851 -1.1140 -0.0278 -0.2716
 6895TIP3    H142320   4.891   1.455   1.784 -0.6018 -0.0698 -0.7610
 6895TIP3    H242321   4.916   1.338   1.876 -0.3197 -0.8489 -1.8131
 6896TIP3   OH242322   6.438   3.187   3.451  0.4943  0.7256  0.1482
 6896TIP3    H142323   6.428   3.243   3.528 -2.0872  1.1001 -0.3835
 6896TIP3    H242324   6.460   3.247   3.381 -1.8112  1.0981 -0.3237
 6897TIP3   OH242325   3.272   1.573   0.295  0.1100 -0.2393  0.0586
 6897TIP3    H142326   3.258   1.665   0.274  0.2740 -0.4468 -1.0021
 6897TIP3    H242327   3.349   1.573   0.352 -0.3075  0.3289  0.6476
 6898TIP3   OH242328   6.879   3.657   2.565  0.5623  0.3285 -0.3453
 6898TIP3    H142329   6.869   3.715   2.489  0.8083  0.8477  0.0179
 6898TIP3    H242330   6.799   3.670   2.616  1.2400  1.4140  0.4605
 6899TIP3   OH242331   2.298   3.414   2.361 -0.0075 -0.2045 -0.4165
 6899TIP3    H142332   2.218   3.363   2.373  0.5136 -0.7866  0.7037
 6899TIP3    H242333   2.335   3.380   2.279 -0.9126  0.1099 -0.9761
 6900TIP3   OH242334   2.232   5.845   8.270  0.0659  0.2058  0.2771
 6900TIP3    H142335   2.167   5.834   8.339 -0.1269 -1.6684 -0.1333
 6900TIP3    H242336   2.188   5.896   8.202 -1.0843 -1.1492 -0.0537
 6901TIP3   OH242337   5.156   1.762   2.316 -0.4847  0.1199 -0.1501
 6901TIP3    H142338   5.089   1.695   2.327 -1.2797  1.2634  3.3574
 6901TIP3    H242339   5.194   1.772   2.403  1.3578  2.4775 -1.1034
 6902TIP3   OH242340   5.656   6.702   8.556  0.5616 -0.0218  0.0798
 6902TIP3    H142341   5.618   6.749   8.630  1.3381  0.4434  0.1967
 6902TIP3    H242342   5.713   6.767   8.514 -0.8955  0.1612 -1.7450
 6903TIP3   OH242343   3.360   2.022   7.947  0.3820 -0.4581 -0.4372
 6903TIP3    H142344   3.318   2.024   8.033  1.6632 -3.3043  0.3627
 6903TIP3    H242345   3.296   1.978   7.891  1.0426 -2.0684  0.0397
 6904TIP3   OH242346   5.754   6.770   0.547  0.3845  0.0867 -0.2157
 6904TIP3    H142347   5.827   6.728   0.592  1.1288 -0.1790 -1.6114
 6904TIP3    H242348   5.690   6.787   0.616  1.4196 -0.4074  0.9065
 6905TIP3   OH242349   0.002   3.325   3.470  0.3773 -0.1270  0.6482
 6905TIP3    H142350   0.093   3.349   3.488  0.5208 -0.3704  0.2589
 6905TIP3    H242351   0.007   3.235   3.437 -0.0233 -0.2050  0.7971
 6906TIP3   OH242352   1.771   6.785   2.319  0.7085 -0.1226  0.6284
 6906TIP3    H142353   1.727   6.868   2.301  2.7313  0.8197 -0.3436
 6906TIP3    H242354   1.773   6.740   2.235 -0.0793 -1.0253  1.0820
 6907TIP3   OH242355   0.702   1.210   0.591  0.6225 -0.5303 -0.1765
 6907TIP3    H142356   0.610   1.210   0.564  0.8521  2.9185 -1.5623
 6907TIP3    H242357   0.699   1.206   0.686 -0.7280 -3.3352 -0.2284
 6908TIP3   OH242358   5.856   3.735   7.682 -0.0975  0.5401  0.1568
 6908TIP3    H142359   5.840   3.661   7.623 -0.5886 -0.9592  2.0537
 6908TIP3    H242360   5.947   3.760   7.664 -0.1740  0.0164 -1.0819
 6909TIP3   OH242361   6.307   0.334   1.442 -0.7160  0.8513 -0.7014
 6909TIP3    H142362   6.365   0.404   1.473 -0.5048  0.2569  0.2761
 6909TIP3    H242363   6.235   0.380   1.399 -0.7123  1.6855  0.1577
 6910TIP3   OH242364   4.868   2.347   2.496 -0.8734  0.5999  0.0822
 6910TIP3    H142365   4.885   2.397   2.416  0.1827 -0.4779 -0.4040
 6910TIP3    H242366   4.823   2.268   2.467 -0.2956  0.0983  0.4979
 6911TIP3   OH242367   6.011   3.869   2.322  0.0839 -0.1635 -0.0163
 6911TIP3    H142368   5.945   3.807   2.351  0.0012 -0.2172 -0.3174
 6911TIP3    H242369   6.094   3.832   2.354  0.1969 -1.1460 -1.3265
 6912TIP3   OH242370   4.471   3.360   8.655  0.3765 -0.6456  0.0281
 6912TIP3    H142371   4.533   3.431   8.634  1.5639 -1.9792 -1.2771
 6912TIP3    H242372   4.501   3.325   8.739 -0.7780  0.9321  1.1502
 6913TIP3   OH242373   4.900   5.164   2.077 -0.1261 -0.4572 -0.0909
 6913TIP3    H142374   4.925   5.119   1.996 -1.9348  0.7099 -1.3653
 6913TIP3    H242375   4.895   5.256   2.053 -1.7450 -0.2057  1.0648
 6914TIP3   OH242376   3.490   1.832   1.087 -0.1642 -0.5067  0.0446
 6914TIP3    H142377   3.500   1.757   1.029  3.2949  1.3388 -2.1454
 6914TIP3    H242378   3.577   1.844   1.125 -0.5390  2.3565  0.2095
 6915TIP3   OH242379   3.925   1.068   1.691 -0.1823 -0.6580 -0.2449
 6915TIP3    H142380   3.992   1.114   1.642  0.0020  0.5726  1.1030
 6915TIP3    H242381   3.972   0.999   1.738  0.0721 -0.1337  0.2823
 6916TIP3   OH242382   3.272   3.914   0.153  0.1764  0.0966 -0.1532
 6916TIP3    H142383   3.329   3.958   0.215  0.1734 -0.9322  0.5914
 6916TIP3    H242384   3.329   3.851   0.108 -0.0577  0.0705 -0.4165
 6917TIP3   OH242385   3.977   3.575   2.671  0.6331  0.0683 -0.6720
 6917TIP3    H142386   3.954   3.601   2.760 -0.9519 -0.4943 -0.8894
 6917TIP3    H242387   4.066   3.540   2.679  0.3980 -0.2716  0.7430
 6918TIP3   OH242388   0.312   1.271   7.161  0.5443  0.1946  0.0990
 6918TIP3    H142389   0.343   1.187   7.194  1.7523  1.6371  2.9281
 6918TIP3    H242390   0.249   1.247   7.092  1.2931 -2.9659  0.3342
 6919TIP3   OH242391   0.241   4.365   1.616 -0.5473 -0.3785 -0.2034
 6919TIP3    H142392   0.328   4.382   1.653 -1.0656 -1.3655  1.6049
 6919TIP3    H242393   0.216   4.279   1.651 -2.1088 -0.2897 -0.9895
 6920TIP3   OH242394   6.801   0.086   8.379 -0.5976  0.6072 -0.0550
 6920TIP3    H142395   6.784  -0.008   8.369  1.4952  0.0922  0.7780
 6920TIP3    H242396   6.733   0.116   8.440 -0.6570 -0.6090  0.5009
 6921TIP3   OH242397   4.779   2.109   1.890  0.0256  0.0546 -0.1252
 6921TIP3    H142398   4.862   2.156   1.900 -0.1688  0.4490 -0.3493
 6921TIP3    H242399   4.713   2.178   1.887 -0.2592 -0.2318 -0.4860
 6922TIP3   OH242400   6.183   1.118   1.390 -0.1060  0.0309  0.3572
 6922TIP3    H142401   6.232   1.168   1.324 -0.5877  1.1027  0.7759
 6922TIP3    H242402   6.138   1.185   1.441 -1.8112 -0.8877  0.1385
 6923TIP3   OH242403   2.577   2.595   0.261 -0.0596 -1.3302 -0.1849
 6923TIP3    H142404   2.597   2.566   0.350  0.3370 -2.2243 -0.5503
 6923TIP3    H242405   2.482   2.587   0.253 -0.0465 -1.6900  0.0133
 6924TIP3   OH242406   5.769   6.363   2.243  0.1802  0.1106  0.3352
 6924TIP3    H142407   5.847   6.335   2.194 -1.1987 -0.1350 -1.8457
 6924TIP3    H242408   5.761   6.300   2.314  1.9370  0.1213  0.5928
 6925TIP3   OH242409   2.152   6.443   8.345 -0.4974 -0.8972 -0.0650
 6925TIP3    H142410   2.167   6.535   8.369  0.7908 -1.4181  1.2349
 6925TIP3    H242411   2.222   6.422   8.284 -0.1005 -1.3188  0.5207
 6926TIP3   OH242412   4.837   4.177   1.256 -0.2478  0.7706  0.2417
 6926TIP3    H142413   4.922   4.185   1.300 -0.4855 -0.2084  0.9246
 6926TIP3    H242414   4.776   4.222   1.314 -0.6031 -0.7329  1.0824
 6927TIP3   OH242415   1.910   5.886   1.403  0.0794  0.3144  0.2783
 6927TIP3    H142416   1.958   5.949   1.458  0.4592 -1.2431  1.8198
 6927TIP3    H242417   1.914   5.924   1.315  0.1945  2.4932  1.1439
 6928TIP3   OH242418   4.889   1.084   3.079  0.2790 -0.0581 -0.1260
 6928TIP3    H142419   4.848   1.071   3.164  1.8856 -0.2741  0.6555
 6928TIP3    H242420   4.879   1.000   3.035 -1.5951  0.4040 -0.6582
 6929TIP3   OH242421   3.100   6.241   0.927  0.3228 -0.3174  0.4470
 6929TIP3    H142422   3.114   6.278   1.014 -0.5561  1.2158 -0.0422
 6929TIP3    H242423   3.096   6.316   0.868  0.5180 -1.3074 -0.8891
 6930TIP3   OH242424   1.418   1.809   3.083  0.2468 -0.0090 -0.2935
 6930TIP3    H142425   1.438   1.883   3.141 -0.6547 -0.6766  0.9145
 6930TIP3    H242426   1.369   1.848   3.011  2.6386  1.0724 -1.4429
 6931TIP3   OH242427   2.556   1.204   3.534  0.3033  0.0678 -0.0761
 6931TIP3    H142428   2.597   1.138   3.477  1.6435  1.3264 -0.6355
 6931TIP3    H242429   2.604   1.198   3.616  0.4009  0.3240 -0.1151
 6932TIP3   OH242430   2.952   2.408   2.305 -0.2426 -0.0547  0.0668
 6932TIP3    H142431   3.027   2.361   2.269  1.5140  0.5680  2.5835
 6932TIP3    H242432   2.913   2.347   2.367 -0.0427  0.5783  0.8356
 6933TIP3   OH242433   0.206   0.002   0.068 -0.2009 -0.2019 -0.8071
 6933TIP3    H142434   0.257  -0.007   0.148 -0.8134 -0.6555 -0.4618
 6933TIP3    H242435   0.230   0.089   0.034  0.2298 -0.0998 -0.2593
 6934TIP3   OH242436   4.679   2.065   0.804  0.1842  0.1724  0.3347
 6934TIP3    H142437   4.636   2.149   0.818 -0.9194 -0.4968  1.0869
 6934TIP3    H242438   4.657   2.013   0.881 -0.8364 -1.4969 -1.0185
 6935TIP3   OH242439   2.400   2.614   3.562  0.1823  0.4548  0.2911
 6935TIP3    H142440   2.496   2.611   3.569  0.1074  1.3950  2.3879
 6935TIP3    H242441   2.369   2.558   3.633 -0.8562 -0.2606 -0.6902
 6936TIP3   OH242442   0.194   1.967   1.677 -0.3802  0.4432  1.1224
 6936TIP3    H142443   0.189   2.063   1.672 -1.2135  0.3364 -0.8615
 6936TIP3    H242444   0.234   1.941   1.595  2.4991 -0.8213  2.7695
 6937TIP3   OH242445   6.481   3.626   8.632  0.1003 -0.7391 -0.3139
 6937TIP3    H142446   6.524   3.542   8.619  0.7361 -0.3874 -0.5157
 6937TIP3    H242447   6.390   3.604   8.652 -0.0132 -1.4311 -1.5524
 6938TIP3   OH242448   5.652   1.183   2.398 -0.0183 -0.0370  0.4351
 6938TIP3    H142449   5.694   1.232   2.328 -0.7163  0.4993  0.3739
 6938TIP3    H242450   5.581   1.240   2.428  0.6156 -0.0099  1.9632
 6939TIP3   OH242451   0.567   6.284   0.781 -0.4415 -0.1041  0.5266
 6939TIP3    H142452   0.488   6.250   0.823 -0.2055 -2.1361 -0.5675
 6939TIP3    H242453   0.538   6.307   0.692 -0.1627  0.7697  0.6554
 6940TIP3   OH242454   6.555   1.546   8.052  0.0453  0.0664 -0.0375
 6940TIP3    H142455   6.627   1.483   8.061 -0.9270 -1.0287  0.2607
 6940TIP3    H242456   6.501   1.511   7.981  1.5689  2.6864 -2.7433
 6941TIP3   OH242457   4.127   4.614   0.945  0.0050  0.0503 -1.0675
 6941TIP3    H142458   4.182   4.689   0.969 -1.1818  0.8908 -0.8914
 6941TIP3    H242459   4.042   4.652   0.925 -0.7330 -1.2912 -0.6054
 6942TIP3   OH242460   6.359   2.858   0.294  0.0313  0.3958 -0.4457
 6942TIP3    H142461   6.281   2.832   0.343 -0.9731  1.0114 -1.6758
 6942TIP3    H242462   6.395   2.777   0.261  0.2746  0.0464  0.6334
 6943TIP3   OH242463   1.180   0.163   1.359 -0.0386 -0.1334  0.3820
 6943TIP3    H142464   1.183   0.071   1.332  0.9879  0.0815 -0.3146
 6943TIP3    H242465   1.094   0.174   1.399 -0.7603 -1.0375 -0.8443
 6944TIP3   OH242466   2.543   6.305   2.248 -0.2317  0.8391 -0.3025
 6944TIP3    H142467   2.540   6.209   2.251  1.0398  0.7571 -0.8826
 6944TIP3    H242468   2.532   6.332   2.340 -0.4437  0.1342 -0.1126
 6945TIP3   OH242469   0.869   2.146   2.322 -0.0122  0.2944 -0.2371
 6945TIP3    H142470   0.885   2.081   2.254 -1.1231 -0.8143  0.5048
 6945TIP3    H242471   0.802   2.106   2.378  0.7041  1.2425  1.3908
 6946TIP3   OH242472   5.578   2.409   3.094 -0.3598  0.3047  0.3623
 6946TIP3    H142473   5.659   2.417   3.143  0.0907  1.7601 -0.5489
 6946TIP3    H242474   5.512   2.388   3.160  0.5931  0.0567  1.2549
 6947TIP3   OH242475   4.875   3.096   1.033 -0.2998  0.1407  0.0900
 6947TIP3    H142476   4.952   3.044   1.058 -0.7732 -0.9939 -0.6989
 6947TIP3    H242477   4.818   3.034   0.987 -0.4662  1.5996 -1.7848
 6948TIP3   OH242478   1.670   0.747   0.993 -0.4921  0.4526  0.1920
 6948TIP3    H142479   1.685   0.654   0.977 -0.7224  0.6459 -1.2371
 6948TIP3    H242480   1.584   0.765   0.956  0.5811  1.7412 -1.8591
 6949TIP3   OH242481   4.611   4.939   1.076 -0.1216  0.0631  0.3675
 6949TIP3    H142482   4.645   4.988   1.001 -2.4823 -1.3518 -1.7985
 6949TIP3    H242483   4.586   5.006   1.139  0.8050  1.3823 -0.6127
 6950TIP3   OH242484   0.542   0.929   0.952  0.0714  0.1054 -0.3828
 6950TIP3    H142485   0.550   0.963   0.863 -0.5893 -1.2156 -0.9810
 6950TIP3    H242486   0.597   0.987   1.005 -0.1119  1.3606 -1.5137
 6951TIP3   OH242487   5.937   1.683   2.624  0.2382 -0.3463 -0.0622
 6951TIP3    H142488   5.893   1.768   2.629 -0.6226 -0.7862  0.1275
 6951TIP3    H242489   6.025   1.700   2.656  0.1519  0.5250 -0.2516
 6952TIP3   OH242490   4.546   5.812   8.645  0.1457 -0.1273  0.1589
 6952TIP3    H142491   4.614   5.745   8.635 -0.6845 -0.7660 -1.4935
 6952TIP3    H242492   4.584   5.891   8.606  1.0175  0.3446  1.8588
 6953TIP3   OH242493   2.024   5.017   1.132  0.3284 -0.2080  0.0706
 6953TIP3    H142494   1.961   5.012   1.060 -1.8429  0.3994  1.7925
 6953TIP3    H242495   1.996   4.948   1.193  1.9522 -0.5495  0.4593
 6954TIP3   OH242496   1.055   2.524   1.591  0.1883  0.1682  0.1426
 6954TIP3    H142497   1.068   2.613   1.623 -0.2769  1.2944 -2.5286
 6954TIP3    H242498   1.017   2.535   1.503 -2.9104 -2.6844  0.9025
 6955TIP3   OH242499   1.561   1.865   8.449 -0.1339 -0.4920  0.2652
 6955TIP3    H142500   1.519   1.833   8.529  0.3958  0.3969  0.9143
 6955TIP3    H242501   1.554   1.792   8.388 -2.1951 -0.5573  0.4908
 6956TIP3   OH242502   0.524   5.997   1.138 -0.4477  0.5554  0.1649
 6956TIP3    H142503   0.474   6.029   1.062  1.6532  1.3597 -0.9679
 6956TIP3    H242504   0.541   6.076   1.190 -0.0654  0.3429  0.3637
 6957TIP3   OH242505   1.225   1.842   3.718  0.4399  0.4087  0.3937
 6957TIP3    H142506   1.316   1.858   3.744 -0.1763  1.5731  1.9698
 6957TIP3    H242507   1.186   1.798   3.793  0.3613 -2.7921 -1.3530
 6958TIP3   OH242508   2.593   0.200   2.577 -0.4259  0.0437 -0.8543
 6958TIP3    H142509   2.637   0.260   2.636  0.1392 -1.7785  0.6963
 6958TIP3    H242510   2.500   0.222   2.584 -0.4491 -0.5742  1.3226
 6959TIP3   OH242511   0.731   5.077   0.708 -0.1329 -0.3366  0.3148
 6959TIP3    H142512   0.806   5.036   0.665 -0.1758  0.2178 -0.2980
 6959TIP3    H242513   0.676   5.004   0.736  0.5574 -0.7395  0.6283
 6960TIP3   OH242514   4.395   3.555   1.127 -0.1880 -0.0800  0.2565
 6960TIP3    H142515   4.488   3.539   1.109 -0.6553 -1.1543 -1.4623
 6960TIP3    H242516   4.364   3.603   1.051 -0.8686  1.1250  1.2512
 6961TIP3   OH242517   5.533   2.625   7.571 -0.6020 -0.1713  0.3198
 6961TIP3    H142518   5.627   2.603   7.570 -0.7035 -0.6177 -0.7952
 6961TIP3    H242519   5.520   2.670   7.655  0.9748  1.5042 -0.2536
 6962TIP3   OH242520   3.025   1.499   2.551  0.6055 -0.0939 -0.4353
 6962TIP3    H142521   2.973   1.420   2.565  0.2409  0.1619 -0.3138
 6962TIP3    H242522   2.960   1.567   2.531  0.8903  0.2429 -0.2306
 6963TIP3   OH242523   6.014   5.551   0.921 -0.1463 -0.6281  0.0911
 6963TIP3    H142524   5.929   5.584   0.894  0.2588  1.2619  0.9610
 6963TIP3    H242525   5.994   5.490   0.992 -0.7513  0.6599  1.0672
 6964TIP3   OH242526   1.998   4.144   2.014 -0.7089  0.1601  0.0253
 6964TIP3    H142527   2.043   4.077   1.963 -0.0727 -0.0334  0.8227
 6964TIP3    H242528   1.906   4.116   2.016 -0.3731 -0.9377  0.7397
 6965TIP3   OH242529   4.754   3.824   7.900  0.0170 -0.0564  0.1266
 6965TIP3    H142530   4.761   3.779   7.816  0.8581  0.1140  0.0953
 6965TIP3    H242531   4.817   3.896   7.894  0.8019 -0.6197  1.2575
 6966TIP3   OH242532   6.480   3.365   2.141  0.1844  1.0264 -0.2284
 6966TIP3    H142533   6.448   3.431   2.203  0.8989  0.4304  0.8160
 6966TIP3    H242534   6.576   3.370   2.149  0.2667  0.5692 -0.9024
 6967TIP3   OH242535   6.596   3.280   0.552 -0.0029  0.1636  0.0719
 6967TIP3    H142536   6.619   3.187   0.549  0.0806  0.2026 -0.8612
 6967TIP3    H242537   6.535   3.292   0.478  0.1439  0.8875  0.0623
 6968TIP3   OH242538   0.733   1.376   7.094  0.0136  0.2537 -0.1207
 6968TIP3    H142539   0.642   1.390   7.120 -0.2341 -0.3160 -0.6229
 6968TIP3    H242540   0.785   1.409   7.166 -0.6249 -0.5311  0.7242
 6969TIP3   OH242541   2.402   4.134   2.081  0.3651  0.1936 -0.1382
 6969TIP3    H142542   2.314   4.115   2.116  0.0275 -0.2925 -1.2235
 6969TIP3    H242543   2.437   4.199   2.142 -0.8788  0.6431  0.1451
 6970TIP3   OH242544   6.508   1.745   1.724 -0.0521 -0.0883  1.1773
 6970TIP3    H142545   6.480   1.692   1.650 -0.8828  0.4198  1.1046
 6970TIP3    H242546   6.587   1.703   1.756 -0.7822 -1.4787  1.2334
 6971TIP3   OH242547   2.662   4.722   7.249  0.7109  0.1056  0.6653
 6971TIP3    H142548   2.581   4.672   7.240  1.3478 -0.9750  0.7388
 6971TIP3    H242549   2.730   4.664   7.216  1.5612  0.6920  1.3186
 6972TIP3   OH242550   3.874   3.392   2.171  0.0079 -0.0142 -0.1176
 6972TIP3    H142551   3.804   3.391   2.105  0.8581  1.0701 -1.0907
 6972TIP3    H242552   3.829   3.397   2.255 -1.1125 -1.4789 -0.6004
 6973TIP3   OH242553   0.603   6.634   0.616 -0.1321 -0.1257 -0.1408
 6973TIP3    H142554   0.634   6.724   0.609 -0.1014 -0.0638  0.6342
 6973TIP3    H242555   0.684   6.583   0.629 -0.1761 -0.2203 -0.2440
 6974TIP3   OH242556   0.335   1.632   1.277  0.4094 -0.8258 -0.0920
 6974TIP3    H142557   0.418   1.679   1.283 -0.1364  0.0841  0.6582
 6974TIP3    H242558   0.297   1.639   1.364 -1.8424  1.4138 -1.1390
 6975TIP3   OH242559   1.666   6.267   8.175 -0.0873 -0.3686  0.6510
 6975TIP3    H142560   1.757   6.288   8.199 -0.2558 -0.0884  1.0534
 6975TIP3    H242561   1.630   6.224   8.252 -0.1473 -0.9464  0.3082
 6976TIP3   OH242562   5.827   2.545   1.891 -0.0710  0.7711 -0.7788
 6976TIP3    H142563   5.749   2.508   1.850 -0.0984 -0.2494  0.1595
 6976TIP3    H242564   5.832   2.502   1.977  0.2625  2.4538  0.1033
 6977TIP3   OH242565   3.803   1.009   8.160  0.0469  0.3574 -0.0035
 6977TIP3    H142566   3.847   0.956   8.226  0.8835  0.4383 -0.4830
 6977TIP3    H242567   3.784   0.949   8.088 -0.6828  0.3139  0.2090
 6978TIP3   OH242568   2.717   4.372   8.547 -0.1209  0.1737 -0.5613
 6978TIP3    H142569   2.724   4.278   8.563  0.6622  0.2665 -0.3347
 6978TIP3    H242570   2.682   4.407   8.629  2.0041  0.3909  0.3149
 6979TIP3   OH242571   4.876   4.608   1.492  0.6567 -0.4686 -0.2292
 6979TIP3    H142572   4.896   4.694   1.454 -1.3408  0.3182  0.3598
 6979TIP3    H242573   4.793   4.621   1.538  0.5706 -2.6022  0.3195
 6980TIP3   OH242574   1.958   2.064   1.184  0.3493 -0.6253 -0.3206
 6980TIP3    H142575   1.891   2.017   1.135 -0.1518  0.5227 -0.7667
 6980TIP3    H242576   2.027   2.083   1.120 -1.0163  2.3064 -1.1309
 6981TIP3   OH242577   6.030   3.815   2.654  0.2518 -0.1377  0.1704
 6981TIP3    H142578   6.012   3.742   2.595 -2.3830  0.4287  0.1477
 6981TIP3    H242579   5.978   3.797   2.732  1.7466  0.3770  1.3480
 6982TIP3   OH242580   4.067   6.229   2.575 -0.4794  0.1738 -0.1982
 6982TIP3    H142581   4.148   6.253   2.530 -0.8259  0.9661 -0.4273
 6982TIP3    H242582   3.999   6.281   2.531 -1.1932 -0.8603 -0.3573
 6983TIP3   OH242583   3.980   1.758   2.449 -0.1214 -0.0168 -0.2541
 6983TIP3    H142584   3.965   1.780   2.357  0.2217  0.1763 -0.2622
 6983TIP3    H242585   3.893   1.757   2.488 -0.4246 -1.4744 -0.8941
 6984TIP3   OH242586   3.941   1.899   1.829 -0.6068 -0.4292  0.0206
 6984TIP3    H142587   3.965   1.974   1.774  1.7644 -1.3619 -0.3150
 6984TIP3    H242588   3.848   1.914   1.850 -0.8986  1.2717 -2.1045
 6985TIP3   OH242589   1.888   1.140   7.584  0.4347 -0.0403 -0.2390
 6985TIP3    H142590   1.977   1.171   7.568  0.8716  0.0916  2.0588
 6985TIP3    H242591   1.890   1.047   7.563  1.3251 -0.1805  0.4069
 6986TIP3   OH242592   0.863   2.768   1.184 -0.3272  0.0439  0.0646
 6986TIP3    H142593   0.769   2.766   1.167 -0.3493  0.2162  0.1588
 6986TIP3    H242594   0.872   2.818   1.265 -0.0171  1.9185 -1.0498
 6987TIP3   OH242595   3.884   0.366   0.921  0.2341  0.2187  0.3080
 6987TIP3    H142596   3.888   0.363   0.825  0.1480  0.4627  0.2963
 6987TIP3    H242597   3.968   0.331   0.949 -0.0882 -0.7231  0.1598
 6988TIP3   OH242598   0.639   0.769   2.576  0.0483  0.5904  0.4526
 6988TIP3    H142599   0.579   0.715   2.627 -2.3048  1.1584 -1.5350
 6988TIP3    H242600   0.592   0.851   2.562  1.3613  1.1552 -1.0401
 6989TIP3   OH242601   3.135   5.651   8.271 -0.3844 -0.5129  0.6132
 6989TIP3    H142602   3.079   5.651   8.349 -0.5384 -0.1687  0.5022
 6989TIP3    H242603   3.199   5.720   8.288 -0.3246 -0.5421  0.5044
 6990TIP3   OH242604   6.784   2.286   2.046  0.3942  0.1556 -0.4164
 6990TIP3    H142605   6.858   2.226   2.052  0.4039  0.2507  0.7368
 6990TIP3    H242606   6.741   2.264   1.963 -0.1324 -2.0756  0.3703
 6991TIP3   OH242607   2.081   5.762   7.308  0.3745  0.3993  0.4008
 6991TIP3    H142608   2.085   5.667   7.302  0.4723  0.4116  0.2669
 6991TIP3    H242609   2.151   5.785   7.369  2.8237  0.6457 -2.2566
 6992TIP3   OH242610   3.882   4.658   2.477 -0.2252  0.2054 -0.0952
 6992TIP3    H142611   3.916   4.637   2.391  0.3523 -2.6835  0.7443
 6992TIP3    H242612   3.803   4.604   2.487  0.1717 -0.1481  1.4665
 6993TIP3   OH242613   1.413   4.498   1.058  0.5922  0.3956  0.6182
 6993TIP3    H142614   1.436   4.436   0.988 -1.5324 -0.2200  0.3752
 6993TIP3    H242615   1.445   4.582   1.026  0.4941 -0.0307 -0.6714
 6994TIP3   OH242616   2.003   0.827   0.511 -0.0562  0.2043  0.3475
 6994TIP3    H142617   2.063   0.764   0.551  0.3047 -0.4903 -1.1892
 6994TIP3    H242618   1.962   0.872   0.585  2.9186  1.2830  1.4835
 6995TIP3   OH242619   3.981   1.291   1.336 -1.3913  0.4032  0.3756
 6995TIP3    H142620   3.893   1.325   1.351 -0.4519  3.6807 -0.7544
 6995TIP3    H242621   3.987   1.281   1.241 -0.4532  0.5835  0.4104
 6996TIP3   OH242622   1.872   1.102   1.354  0.1350  0.2931  0.0207
 6996TIP3    H142623   1.932   1.150   1.412 -0.8883  0.7337  0.7526
 6996TIP3    H242624   1.785   1.130   1.383 -0.4048  0.5789 -1.7903
 6997TIP3   OH242625   6.657   2.299   2.879  0.1190  0.0047  0.4561
 6997TIP3    H142626   6.651   2.395   2.872 -0.9606 -0.1556 -1.2664
 6997TIP3    H242627   6.739   2.284   2.927  0.8764  1.7726 -0.1962
 6998TIP3   OH242628   0.848   5.406   1.697  0.0055 -0.3314 -0.3651
 6998TIP3    H142629   0.855   5.498   1.722  1.1268 -1.0904  2.4970
 6998TIP3    H242630   0.869   5.405   1.603  2.5233  2.0300  0.0381
 6999TIP3   OH242631   2.683   5.068   7.628  0.1893 -0.3213 -0.2588
 6999TIP3    H142632   2.707   5.160   7.614 -3.1780  0.6539 -0.5831
 6999TIP3    H242633   2.592   5.072   7.658  0.2303 -3.5469  0.6081
 7000TIP3   OH242634   3.311   3.746   8.263  0.4251 -0.3612 -0.1099
 7000TIP3    H142635   3.313   3.746   8.359  3.6732 -0.3228 -0.0882
 7000TIP3    H242636   3.292   3.838   8.241 -1.3244 -0.5473  0.4126
 7001TIP3   OH242637   0.321   6.102   0.983 -0.0221  0.0383 -0.2442
 7001TIP3    H142638   0.277   6.102   0.898  0.3696  2.6959 -0.5353
 7001TIP3    H242639   0.258   6.140   1.044 -0.3117 -1.8759  0.7225
 7002TIP3   OH242640   6.158   0.083   0.256  0.0111 -0.0109 -0.1243
 7002TIP3    H142641   6.167   0.034   0.337  0.7679  1.9846  1.0750
 7002TIP3    H242642   6.177   0.174   0.281  2.2326  0.4094 -2.8920
 7003TIP3   OH242643   1.582   6.056   1.601  0.4461 -0.5851 -0.0497
 7003TIP3    H142644   1.583   6.043   1.506  1.2326  1.2934 -0.3409
 7003TIP3    H242645   1.673   6.044   1.628  0.9763  2.4944 -0.1467
 7004TIP3   OH242646   5.829   3.253   0.763  0.0524  0.0279 -0.3894
 7004TIP3    H142647   5.846   3.164   0.794 -0.9731 -0.4361 -1.0940
 7004TIP3    H242648   5.763   3.286   0.825  0.6606  0.4199  0.0572
 7005TIP3   OH242649   0.275   4.269   1.213 -0.3128  0.2147  0.0463
 7005TIP3    H142650   0.265   4.218   1.293  1.0534  2.2425  1.5963
 7005TIP3    H242651   0.225   4.220   1.147 -0.7929 -1.9527  1.9017
 7006TIP3   OH242652   5.590   6.078   2.836 -0.2334 -0.3670  0.8735
 7006TIP3    H142653   5.596   6.073   2.932 -0.3530 -0.0943  0.8949
 7006TIP3    H242654   5.497   6.091   2.818 -0.0846  0.5817  0.7649
 7007TIP3   OH242655   3.689   2.744   1.639  0.5318 -0.3916  0.6465
 7007TIP3    H142656   3.777   2.779   1.642 -0.0746  1.0858  2.4405
 7007TIP3    H242657   3.634   2.818   1.613 -0.2766 -1.1489  0.1145
 7008TIP3   OH242658   5.373   3.229   3.088 -0.5190 -0.7079 -0.4992
 7008TIP3    H142659   5.450   3.200   3.135 -0.7618 -1.6543 -0.6637
 7008TIP3    H242660   5.300   3.212   3.148 -0.6582 -0.3595 -0.5672
 7009TIP3   OH242661   6.172   1.943   1.633  0.2962 -0.2528  0.4495
 7009TIP3    H142662   6.221   1.947   1.715 -0.3991  0.3914  0.8609
 7009TIP3    H242663   6.156   1.850   1.618  2.7086 -0.5901 -0.3857
 7010TIP3   OH242664   4.045   5.724   3.090 -0.4242 -0.0372 -0.0405
 7010TIP3    H142665   3.997   5.644   3.067  0.8504 -0.6461 -0.6459
 7010TIP3    H242666   4.010   5.748   3.176 -1.5508 -0.6653 -0.2999
 7011TIP3   OH242667   3.341   2.071   1.130 -0.1898  0.0170  0.5808
 7011TIP3    H142668   3.399   2.014   1.078  0.2098 -0.2608  1.3187
 7011TIP3    H242669   3.395   2.146   1.153 -1.1310  1.4915 -1.6435
 7012TIP3   OH242670   4.748   3.301   7.885 -0.7408 -0.1173 -0.9875
 7012TIP3    H142671   4.813   3.301   7.814  0.5917  0.5235  0.1871
 7012TIP3    H242672   4.780   3.236   7.947  0.6074  2.3725  1.1288
 7013TIP3   OH242673   0.392   6.307   7.365  0.5129 -0.0686 -0.1529
 7013TIP3    H142674   0.316   6.298   7.421  0.2713 -0.6662 -0.5698
 7013TIP3    H242675   0.455   6.243   7.399  1.1746  0.9879  0.7146
 7014TIP3   OH242676   1.882   1.131   8.595  0.1342 -0.2603  0.1755
 7014TIP3    H142677   1.925   1.109   8.678  0.0877  0.2141  0.3229
 7014TIP3    H242678   1.893   1.052   8.542  0.2158 -0.5453  0.6092
 7015TIP3   OH242679   1.471   5.696   0.552 -0.8327  0.3012 -0.5410
 7015TIP3    H142680   1.491   5.785   0.582 -0.6423 -0.3875  1.5376
 7015TIP3    H242681   1.525   5.639   0.608 -1.4672 -1.1630 -1.3544
 7016TIP3   OH242682   0.844   4.387   0.951 -0.4568 -0.3093  0.2885
 7016TIP3    H142683   0.825   4.313   0.894 -0.0757  0.0644 -0.3407
 7016TIP3    H242684   0.760   4.411   0.990 -1.2979  1.1852 -2.2561
 7017TIP3   OH242685   2.277   5.114   2.066 -0.5647 -0.0670  0.0592
 7017TIP3    H142686   2.286   5.143   1.975 -1.3447 -2.6825 -0.9332
 7017TIP3    H242687   2.183   5.119   2.082 -0.6472 -1.3501  0.0617
 7018TIP3   OH242688   1.006   3.798   3.303 -0.5688 -0.6687  0.1437
 7018TIP3    H142689   0.959   3.881   3.304  0.0717 -0.2645 -1.1342
 7018TIP3    H242690   1.073   3.807   3.370  0.2279  0.3072 -0.7523
 7019TIP3   OH242691   1.342   2.315   0.091  0.1803 -0.0644 -0.3111
 7019TIP3    H142692   1.274   2.267   0.044 -1.2417  0.0321  1.5430
 7019TIP3    H242693   1.373   2.253   0.158  0.9875  0.3462 -0.2927
 7020TIP3   OH242694   1.352   1.984   1.959  0.1780 -0.3274  0.0969
 7020TIP3    H142695   1.446   2.001   1.956  0.5820 -2.2150  0.3225
 7020TIP3    H242696   1.313   2.067   1.986  1.5934  0.9869 -1.6645
 7021TIP3   OH242697   1.848   1.998   2.487 -0.4296  0.7632 -0.2828
 7021TIP3    H142698   1.834   1.938   2.561 -1.1918 -0.6407 -1.5005
 7021TIP3    H242699   1.818   2.083   2.519  0.6247  0.5322  1.4843
 7022TIP3   OH242700   1.665   2.049   0.703 -0.5820  0.0924 -0.1080
 7022TIP3    H142701   1.621   2.035   0.619  0.5892  0.0863 -0.7435
 7022TIP3    H242702   1.707   2.134   0.695  0.1204 -0.2141  0.1941
 7023TIP3   OH242703   0.418   2.121   1.078 -0.2755 -0.3766 -0.0714
 7023TIP3    H142704   0.425   2.198   1.135  0.7038 -0.5491  0.0648
 7023TIP3    H242705   0.509   2.095   1.063 -0.5904 -1.3767 -0.2923
 7024TIP3   OH242706   3.880   4.603   0.312  0.2668  0.2526 -0.2946
 7024TIP3    H142707   3.953   4.543   0.330 -1.3552 -1.2700  1.6961
 7024TIP3    H242708   3.845   4.574   0.228  1.0099  0.0444 -0.5420
 7025TIP3   OH242709   0.088   1.213   1.011 -0.2775  0.2570  0.2156
 7025TIP3    H142710   0.109   1.269   1.085  1.4516  0.7024 -0.5583
 7025TIP3    H242711   0.120   1.261   0.935 -0.1845 -1.0879 -0.6176
 7026TIP3   OH242712   1.038   2.245   0.745 -0.0758  0.3790 -0.1920
 7026TIP3    H142713   1.079   2.288   0.820 -0.2479  0.5043 -0.1704
 7026TIP3    H242714   1.027   2.154   0.773 -0.1998  0.4409 -0.0413
 7027TIP3   OH242715   1.682   5.437   1.025 -0.2541  0.0288 -0.5801
 7027TIP3    H142716   1.668   5.490   0.947  1.0872 -0.3954 -1.1471
 7027TIP3    H242717   1.761   5.385   1.004 -0.1029 -0.3711  0.9007
 7028TIP3   OH242718   2.274   1.337   1.939 -0.0628 -0.1870  0.3264
 7028TIP3    H142719   2.215   1.353   2.013  0.1215  0.9386  0.2423
 7028TIP3    H242720   2.270   1.417   1.887 -0.9429 -1.3058 -1.4496
 7029TIP3   OH242721   6.727   1.938   1.833  0.2521  0.3416 -0.5480
 7029TIP3    H142722   6.675   1.882   1.775 -0.2863  0.7053 -0.4221
 7029TIP3    H242723   6.663   1.982   1.888  0.7866 -0.4917  0.7995
 7030TIP3   OH242724   6.551   6.463   0.003 -0.2113 -0.0472 -0.6974
 7030TIP3    H142725   6.470   6.462  -0.049  0.1243 -0.6942 -1.2194
 7030TIP3    H242726   6.601   6.537  -0.032 -0.9364  0.9123  0.2159
 7031TIP3   OH242727   1.018   1.341   1.039  0.3437  0.1798 -0.5551
 7031TIP3    H142728   0.940   1.389   1.008  0.4614  1.8650  1.5262
 7031TIP3    H242729   1.082   1.353   0.969  0.2206  2.8155 -0.3268
 7032TIP3   OH242730   6.652   6.435   2.248 -0.0135 -0.2561  0.2693
 7032TIP3    H142731   6.566   6.473   2.231 -0.1220 -0.0529  1.1700
 7032TIP3    H242732   6.714   6.504   2.222 -0.2340  1.3043  3.3258
 7033TIP3   OH242733   3.600   4.997   2.518 -0.4012 -0.3102 -0.2646
 7033TIP3    H142734   3.669   4.981   2.454 -0.2481  0.5275 -0.3169
 7033TIP3    H242735   3.590   4.913   2.564  1.0152 -0.2967  0.1009
 7034TIP3   OH242736   4.772   6.714   2.995  0.0815  0.0392 -0.1796
 7034TIP3    H142737   4.741   6.629   3.027  0.9833  0.0839  0.8426
 7034TIP3    H242738   4.820   6.693   2.915 -0.5255 -0.2918 -0.4653
 7035TIP3   OH242739   6.733   5.886   1.610  0.2441  0.1839 -1.1047
 7035TIP3    H142740   6.738   5.874   1.705  0.7432  0.4900 -1.0900
 7035TIP3    H242741   6.813   5.934   1.588 -0.3049  0.9052 -1.5548
 7036TIP3   OH242742   5.517   2.677   1.943  0.1163 -0.6877 -0.0575
 7036TIP3    H142743   5.584   2.633   1.891 -0.0916 -0.6898 -0.3249
 7036TIP3    H242744   5.531   2.770   1.926 -1.9265 -0.7143 -2.6808
 7037TIP3   OH242745   4.932   0.067   1.294 -0.3507 -0.4750 -0.3069
 7037TIP3    H142746   4.969   0.065   1.206 -0.8309 -3.6906 -0.5686
 7037TIP3    H242747   4.843   0.101   1.282 -0.5276 -1.1939 -1.1754
 7038TIP3   OH242748   1.242   0.833   2.307  0.1054 -0.1610  0.2302
 7038TIP3    H142749   1.321   0.778   2.310 -1.5302 -2.7491 -1.0205
 7038TIP3    H242750   1.264   0.904   2.247  1.3218 -1.1188 -0.4898
 7039TIP3   OH242751   1.760   0.588   8.248  0.6107  0.4692 -0.1080
 7039TIP3    H142752   1.709   0.507   8.239  0.2226  0.8611 -1.8278
 7039TIP3    H242753   1.840   0.572   8.198  1.4379  0.4612  1.1904
 7040TIP3   OH242754   6.183   3.338   2.298 -0.1008 -0.0861 -0.8452
 7040TIP3    H142755   6.253   3.380   2.347 -0.6311 -0.2369  0.0712
 7040TIP3    H242756   6.110   3.334   2.360 -1.1219  0.6063 -1.9592
 7041TIP3   OH242757   1.177   0.803   7.452 -0.3485  0.2122  0.1276
 7041TIP3    H142758   1.149   0.716   7.481  1.6834 -0.1871  0.9756
 7041TIP3    H242759   1.208   0.789   7.362 -1.5452  0.4186 -0.3457
 7042TIP3   OH242760   3.778   4.427   7.587 -0.4312 -0.2603 -0.2016
 7042TIP3    H142761   3.845   4.458   7.526  0.3807 -1.5416 -0.0024
 7042TIP3    H242762   3.705   4.487   7.575  0.0582  0.0678 -1.7696
 7043TIP3   OH242763   6.334   2.305   2.672 -0.0408  0.2180 -0.1734
 7043TIP3    H142764   6.269   2.374   2.660 -0.6747 -0.4065 -0.3613
 7043TIP3    H242765   6.416   2.344   2.642 -0.5233  0.6644 -0.9347
 7044TIP3   OH242766   0.451   4.113   3.260 -0.2333  0.6202 -0.0596
 7044TIP3    H142767   0.409   4.134   3.343  0.3903 -0.7114  0.6339
 7044TIP3    H242768   0.525   4.173   3.254  0.9484 -0.5945  1.3976
 7045TIP3   OH242769   3.388   6.197   7.936 -0.5308 -0.1796 -0.1945
 7045TIP3    H142770   3.467   6.235   7.973 -0.8082 -0.0516  0.2668
 7045TIP3    H242771   3.327   6.270   7.928 -0.9841 -0.4744  0.4800
 7046TIP3   OH242772   0.136   2.131   2.039 -0.0398 -0.1928 -0.1295
 7046TIP3    H142773   0.222   2.135   1.998 -0.4827  2.7946 -1.0173
 7046TIP3    H242774   0.151   2.156   2.131  0.1588 -0.5203 -0.0751
 7047TIP3   OH242775   4.931   0.630   3.329 -0.5559  0.2992  0.3758
 7047TIP3    H142776   4.902   0.594   3.413  0.5675 -1.3587  0.0898
 7047TIP3    H242777   5.025   0.640   3.338 -0.2736 -0.8255 -0.9944
 7048TIP3   OH242778   4.664   0.193   0.512  0.2080 -0.1723 -0.1535
 7048TIP3    H142779   4.575   0.227   0.499 -0.6453 -1.9108  0.8528
 7048TIP3    H242780   4.658   0.100   0.493  2.0180 -0.1970 -0.8045
 7049TIP3   OH242781   1.968   6.167   1.387 -0.3199 -0.0403 -0.3568
 7049TIP3    H142782   1.887   6.212   1.364 -0.0126  1.8122  1.8831
 7049TIP3    H242783   1.983   6.188   1.479  3.1253  0.3490 -0.8629
 7050TIP3   OH242784   1.058   3.454   7.858 -0.0896  0.1052 -0.2210
 7050TIP3    H142785   1.084   3.375   7.812 -0.6212 -2.5985  3.6002
 7050TIP3    H242786   0.962   3.455   7.852 -0.1911 -0.4799  1.0012
 7051TIP3   OH242787   1.113   5.249   1.863  0.7917  0.5171  0.3277
 7051TIP3    H142788   1.026   5.222   1.833  0.7962  1.1976 -0.3326
 7051TIP3    H242789   1.138   5.183   1.928  0.5877 -0.7178 -0.8165
 7052TIP3   OH242790   1.979   4.899   2.203 -0.3966  0.4067 -0.1611
 7052TIP3    H142791   2.049   4.834   2.214 -0.4807  0.5579  1.6774
 7052TIP3    H242792   1.901   4.848   2.182  0.0391  0.1455 -1.1967
 7053TIP3   OH242793   4.767   0.432   1.147  0.2161  0.5127  0.5474
 7053TIP3    H142794   4.745   0.407   1.237  1.6907  0.0506  0.8146
 7053TIP3    H242795   4.831   0.502   1.156  2.1017 -1.0230 -0.0384
 7054TIP3   OH242796   0.485   0.675   7.879  0.0751 -0.3069 -0.1436
 7054TIP3    H142797   0.549   0.746   7.878 -2.2182  1.8967 -0.0550
 7054TIP3    H242798   0.457   0.666   7.787  0.9186 -1.6847 -0.2855
 7055TIP3   OH242799   0.852   2.871   1.999  0.3961 -0.4947 -0.0737
 7055TIP3    H142800   0.807   2.839   2.077  0.4915  0.7798  0.5326
 7055TIP3    H242801   0.874   2.962   2.020 -0.6185  0.2573 -2.0222
 7056TIP3   OH242802   0.306   0.284   0.597  0.8913  0.0975  0.2138
 7056TIP3    H142803   0.340   0.374   0.604 -1.6297  1.0868  0.9418
 7056TIP3    H242804   0.252   0.273   0.676 -0.5586 -1.2757 -0.9073
 7057TIP3   OH242805   6.269   2.788   7.835  0.2656 -0.4038  0.2328
 7057TIP3    H142806   6.207   2.725   7.798 -0.2748 -0.7193  1.5902
 7057TIP3    H242807   6.263   2.774   7.930  1.5277  0.4054  0.4611
 7058TIP3   OH242808   4.686   3.066   8.466  0.3246  0.2056  0.5136
 7058TIP3    H142809   4.722   3.154   8.479  0.3132  0.6611 -2.0689
 7058TIP3    H242810   4.597   3.072   8.501  0.5791  0.9700  1.0706
 7059TIP3   OH242811   5.284   1.234   1.949  0.0702  0.3320  0.0103
 7059TIP3    H142812   5.250   1.257   1.862  1.5336  2.0704 -0.1706
 7059TIP3    H242813   5.225   1.279   2.010 -0.8736 -0.7717 -0.0617
 7060TIP3   OH242814   5.497   2.816   0.803  0.5042 -0.1682 -0.1467
 7060TIP3    H142815   5.505   2.877   0.729  0.5803 -1.3584 -1.1383
 7060TIP3    H242816   5.586   2.808   0.837  0.7749 -0.8971 -0.9897
 7061TIP3   OH242817   1.532   1.985   1.608 -0.4224  0.9604 -0.0100
 7061TIP3    H142818   1.599   1.935   1.654 -2.4519 -0.9548  1.0414
 7061TIP3    H242819   1.530   2.069   1.654 -0.4351  0.1201  1.6085
 7062TIP3   OH242820   6.292   2.157   0.745 -0.1792  0.1018 -0.1118
 7062TIP3    H142821   6.268   2.070   0.714  3.4082 -1.1525  0.0814
 7062TIP3    H242822   6.318   2.205   0.666 -0.1053  0.2193 -0.0179
 7063TIP3   OH242823   1.283   4.349   8.417 -0.5020  0.2408  1.3597
 7063TIP3    H142824   1.340   4.423   8.439 -1.0890  0.6085  1.6567
 7063TIP3    H242825   1.290   4.291   8.493  0.5079 -0.3591  0.8287
 7064TIP3   OH242826   4.748   2.997   2.308 -0.5732 -0.7799  0.1286
 7064TIP3    H142827   4.810   2.955   2.368  0.0637 -2.6785 -1.7465
 7064TIP3    H242828   4.787   3.082   2.289  0.3430 -1.0544  0.7059
 7065TIP3   OH242829   1.303   4.988   0.521  0.4469  0.1448 -0.1677
 7065TIP3    H142830   1.299   4.982   0.426 -0.9328  0.8772 -0.1794
 7065TIP3    H242831   1.352   5.068   0.538 -0.0937  0.5048 -0.2829
 7066TIP3   OH242832   2.976   1.064   7.678 -0.0758  0.1683 -0.0814
 7066TIP3    H142833   2.884   1.051   7.701 -0.2230  2.2924  0.7680
 7066TIP3    H242834   3.015   0.977   7.686 -1.7266 -0.5510  0.7709
 7067TIP3   OH242835   0.330   6.222   1.990 -0.2407  0.1527 -0.1187
 7067TIP3    H142836   0.395   6.256   2.051  0.2732 -1.1448  0.0813
 7067TIP3    H242837   0.303   6.138   2.028 -2.2372  0.7567 -0.0479
 7068TIP3   OH242838   2.470   3.253   2.185 -0.0291 -0.3180 -0.0521
 7068TIP3    H142839   2.434   3.261   2.096 -3.3251  0.8966  1.2077
 7068TIP3    H242840   2.546   3.311   2.186 -1.1910  1.3409 -1.5576
 7069TIP3   OH242841   5.628   1.803   8.309 -0.5063 -0.3021 -0.7446
 7069TIP3    H142842   5.662   1.847   8.231 -1.0147 -0.2947 -0.9676
 7069TIP3    H242843   5.626   1.870   8.376  0.9033 -0.5490 -0.4220
 7070TIP3   OH242844   1.185   0.797   2.652  0.5659  0.0020 -1.0467
 7070TIP3    H142845   1.138   0.755   2.724 -2.2721  1.0972 -2.1488
 7070TIP3    H242846   1.207   0.725   2.593  0.0309 -0.4951 -0.6537
 7071TIP3   OH242847   3.379   6.485   0.709 -0.2631  0.3669  0.0567
 7071TIP3    H142848   3.414   6.549   0.646  0.0357  1.3398  1.1734
 7071TIP3    H242849   3.437   6.409   0.700  0.1209  0.7071 -0.4411
 7072TIP3   OH242850   1.304   6.098   7.441 -0.2679  0.0379 -0.0834
 7072TIP3    H142851   1.313   6.041   7.365 -3.5227 -0.2411 -0.4119
 7072TIP3    H242852   1.284   6.184   7.405 -0.9808  0.0919  0.4034
 7073TIP3   OH242853   4.265   5.904   1.498 -0.0881  0.0780 -0.9788
 7073TIP3    H142854   4.298   5.830   1.548  1.2678  2.4206  1.9077
 7073TIP3    H242855   4.310   5.899   1.413 -0.5115 -2.6363 -1.1048
 7074TIP3   OH242856   0.118   6.447   8.256 -0.0035 -0.4514 -0.4930
 7074TIP3    H142857   0.120   6.367   8.203  0.4184 -0.8360  0.0876
 7074TIP3    H242858   0.110   6.416   8.346 -0.2164  0.1767 -0.2878
 7075TIP3   OH242859   4.648   5.715   0.770  0.1817  0.0497 -0.2529
 7075TIP3    H142860   4.670   5.658   0.696 -2.8721 -1.8117  0.1126
 7075TIP3    H242861   4.623   5.655   0.840 -0.7076  1.8155  1.0125
 7076TIP3   OH242862   2.603   5.904   2.484  0.0171 -0.7070 -0.5201
 7076TIP3    H142863   2.687   5.939   2.514  0.7308 -1.2930 -1.7829
 7076TIP3    H242864   2.564   5.866   2.563 -0.5094  2.2383  0.7800
 7077TIP3   OH242865   2.964   5.910   2.733 -0.0717  0.0046  0.3236
 7077TIP3    H142866   2.987   5.889   2.824  1.7372 -1.0207 -0.3258
 7077TIP3    H242867   3.012   5.991   2.715  0.5914 -0.4685 -0.0822
 7078TIP3   OH242868   1.990   3.100   8.188 -0.3026  0.0118 -0.1926
 7078TIP3    H142869   2.056   3.143   8.241 -0.5598  0.4591 -0.2351
 7078TIP3    H242870   2.036   3.077   8.107  0.0091 -0.4032  0.0983
 7079TIP3   OH242871   1.307   6.185   1.076  0.1012 -0.8639 -0.7438
 7079TIP3    H142872   1.241   6.135   1.028 -1.6735 -1.0127  1.6772
 7079TIP3    H242873   1.311   6.144   1.162  1.8881  0.4221 -0.1582
 7080TIP3   OH242874   3.747   6.843   8.062 -0.5612  0.5294  0.2175
 7080TIP3    H142875   3.799   6.920   8.083  0.6291  0.8839 -3.3332
 7080TIP3    H242876   3.811   6.773   8.048 -0.9853  0.5626 -2.5940
 7081TIP3   OH242877   6.541   0.235   3.256  0.2059 -0.8242  0.2788
 7081TIP3    H142878   6.452   0.201   3.247  0.5265 -2.6634  2.8525
 7081TIP3    H242879   6.540   0.284   3.338  1.3560 -0.0173 -0.1623
 7082TIP3   OH242880   2.568   4.997   0.092  0.3605  0.1447 -0.0490
 7082TIP3    H142881   2.577   4.976  -0.001 -0.1878 -2.1751  0.3702
 7082TIP3    H242882   2.642   5.054   0.111  0.6518  0.4076 -1.8356
 7083TIP3   OH242883   5.770   0.473   0.799  0.3484  0.3926 -0.5745
 7083TIP3    H142884   5.690   0.508   0.762  0.5788  0.7396 -0.7451
 7083TIP3    H242885   5.763   0.378   0.786  0.8481  0.5697 -2.3480
 7084TIP3   OH242886   5.311   1.313   0.032  0.6967 -0.8810  0.4985
 7084TIP3    H142887   5.253   1.381   0.067  0.1271 -0.4187 -1.2182
 7084TIP3    H242888   5.357   1.355  -0.041  0.6032 -2.2030 -0.3713
 7085TIP3   OH242889   1.085   6.846   2.848 -0.0879 -0.1428 -0.0673
 7085TIP3    H142890   1.141   6.904   2.796  0.0546 -1.2530 -1.1923
 7085TIP3    H242891   1.018   6.904   2.884  2.1188  1.3604  1.8896
 7086TIP3   OH242892   5.715   4.611   8.379 -0.1349 -0.0823 -0.7417
 7086TIP3    H142893   5.746   4.520   8.371  1.7753  0.4929 -0.4567
 7086TIP3    H242894   5.684   4.633   8.292  1.4447 -0.3491 -1.4225
 7087TIP3   OH242895   4.603   0.985   1.432 -0.2796 -0.2884 -0.3581
 7087TIP3    H142896   4.630   0.989   1.524  2.2412  1.2253 -1.0764
 7087TIP3    H242897   4.584   0.892   1.417 -0.1505 -0.6564  1.5189
 7088TIP3   OH242898   2.291   3.714   1.809 -0.3918 -0.4333  0.6119
 7088TIP3    H142899   2.326   3.745   1.725  0.0724 -2.8588 -0.1648
 7088TIP3    H242900   2.277   3.794   1.860  0.9683  0.9998 -1.1238
 7089TIP3   OH242901   2.885   3.811   0.552  0.0020 -0.6430 -0.1338
 7089TIP3    H142902   2.860   3.723   0.525  0.7647 -0.7091 -0.6687
 7089TIP3    H242903   2.867   3.866   0.475  0.5888 -0.5308 -0.1951
 7090TIP3   OH242904   0.529   6.651   2.625  0.1520  0.5824  0.0813
 7090TIP3    H142905   0.620   6.659   2.650  0.0047  2.1678  0.1711
 7090TIP3    H242906   0.532   6.622   2.533  0.6761 -4.1629  1.3529
 7091TIP3   OH242907   0.767   2.776   2.283 -0.1320  0.1563  0.4514
 7091TIP3    H142908   0.726   2.712   2.342 -3.8340  0.6965 -1.2918
 7091TIP3    H242909   0.722   2.858   2.302 -0.1211  0.7364 -1.8206
 7092TIP3   OH242910   5.867   2.365   2.760 -0.4075 -0.1168 -0.1945
 7092TIP3    H142911   5.807   2.393   2.691  0.7789 -0.1680 -1.2870
 7092TIP3    H242912   5.933   2.313   2.714  0.9496  0.6475  0.8272
 7093TIP3   OH242913   1.220   3.297   0.933 -0.1316 -0.6360 -0.3362
 7093TIP3    H142914   1.185   3.382   0.908 -0.3034 -0.7119 -0.3525
 7093TIP3    H242915   1.314   3.302   0.912  0.5584  0.6817  2.5018
 7094TIP3   OH242916   0.490   6.353   0.315 -0.3350 -0.0039  0.3156
 7094TIP3    H142917   0.480   6.277   0.258  0.8865 -0.6876  0.9719
 7094TIP3    H242918   0.449   6.326   0.397  1.6512 -0.6764  1.1417
 7095TIP3   OH242919   3.264   6.542   0.076 -0.4214  0.5403 -0.6581
 7095TIP3    H142920   3.338   6.571   0.023  0.4019 -0.9937 -0.4057
 7095TIP3    H242921   3.203   6.502   0.014  1.2028 -2.6115 -0.4385
 7096TIP3   OH242922   5.900   2.174   1.510 -0.4314 -0.1802  0.2273
 7096TIP3    H142923   5.982   2.144   1.470  0.2907 -0.8329  2.0748
 7096TIP3    H242924   5.923   2.190   1.602 -2.0326  1.1385  0.4469
 7097TIP3   OH242925   4.531   0.252   8.219 -0.0870 -0.2809  0.0989
 7097TIP3    H142926   4.618   0.285   8.241  0.4321 -0.5205 -1.5148
 7097TIP3    H242927   4.471   0.323   8.246  0.5552 -0.1795  1.3555
 7098TIP3   OH242928   0.079   4.912   1.462 -0.1232  0.1819 -0.2401
 7098TIP3    H142929   0.116   4.836   1.508 -1.7306 -0.1489  0.6075
 7098TIP3    H242930   0.076   4.886   1.370 -0.0746 -0.5280 -0.0449
 7099TIP3   OH242931   3.525   0.843   0.486  0.1967 -0.0179  0.4736
 7099TIP3    H142932   3.529   0.893   0.404  0.6798 -1.9637 -0.7390
 7099TIP3    H242933   3.434   0.850   0.514  0.5429  2.8131  1.2404
 7100TIP3   OH242934   4.576   1.504   1.267  0.3400  0.0021  0.9884
 7100TIP3    H142935   4.534   1.418   1.265 -0.9458  0.6035  0.8684
 7100TIP3    H242936   4.670   1.485   1.267  0.2084 -1.3804 -2.2559
 7101TIP3   OH242937   0.078   2.858   2.084 -0.1026 -0.0333  0.6538
 7101TIP3    H142938   0.125   2.942   2.090 -0.0241 -0.0250  0.0022
 7101TIP3    H242939   0.011   2.873   2.017 -1.9688  0.3852  2.4908
 7102TIP3   OH242940   3.420   2.997   0.307  0.6634  0.1270  0.1249
 7102TIP3    H142941   3.509   2.993   0.274  0.4523  1.5119 -0.6849
 7102TIP3    H242942   3.367   3.022   0.231 -0.6041 -1.8179  0.3011
 7103TIP3   OH242943   1.706   5.016   2.647  0.3327  0.2870  0.0030
 7103TIP3    H142944   1.717   5.015   2.742 -0.1753  0.5240  0.0695
 7103TIP3    H242945   1.740   5.101   2.620  0.3017  0.2975 -0.0028
 7104TIP3   OH242946   1.025   4.074   1.804 -0.0728  0.6922 -0.9671
 7104TIP3    H142947   0.988   4.088   1.716 -1.3664  2.9338 -0.1515
 7104TIP3    H242948   1.018   3.979   1.818 -0.0063  0.2998 -3.1850
 7105TIP3   OH242949   6.831   0.680   0.292  0.3708  0.0633  0.3653
 7105TIP3    H142950   6.893   0.614   0.325 -2.6126 -2.4751  1.3771
 7105TIP3    H242951   6.791   0.716   0.371 -0.8476  0.1394 -0.2662
 7106TIP3   OH242952   3.805   6.147   2.918 -0.4354 -0.2155 -0.2410
 7106TIP3    H142953   3.840   6.164   3.005  1.4367 -1.1434 -0.7634
 7106TIP3    H242954   3.771   6.058   2.922 -1.0854  0.0224 -0.2648
 7107TIP3   OH242955   3.973   0.179   1.840  0.2315 -0.4515  0.3269
 7107TIP3    H142956   3.959   0.141   1.754 -0.7069  1.3595 -0.3741
 7107TIP3    H242957   3.927   0.120   1.900 -1.2952 -0.3754 -0.7239
 7108TIP3   OH242958   5.748   4.528   1.127  0.4515  0.2653  0.3175
 7108TIP3    H142959   5.675   4.466   1.132 -0.1290  1.0261  2.0423
 7108TIP3    H242960   5.735   4.575   1.044  0.8118 -1.7432 -0.9334
 7109TIP3   OH242961   3.695   2.246   2.946  0.3678 -0.2556 -0.4416
 7109TIP3    H142962   3.709   2.160   2.906  0.5351 -0.5436  0.2175
 7109TIP3    H242963   3.629   2.230   3.014 -0.6065  0.4085 -1.2034
 7110TIP3   OH242964   3.930   2.740   3.887 -0.2619  0.5546 -0.0689
 7110TIP3    H142965   3.852   2.794   3.877  0.4915  2.3048  2.5437
 7110TIP3    H242966   4.003   2.800   3.877  0.6537 -0.3161  1.1276
 7111TIP3   OH242967   1.515   1.973   2.235  0.8333 -0.1337 -0.2084
 7111TIP3    H142968   1.578   2.017   2.177  2.3025 -1.1958  0.4980
 7111TIP3    H242969   1.569   1.912   2.286 -0.6387 -0.2909  1.2243
 7112TIP3   OH242970   6.764   0.993   1.516  0.8121  0.0110 -0.5211
 7112TIP3    H142971   6.785   0.906   1.481  0.8571 -0.8953  1.5968
 7112TIP3    H242972   6.720   0.975   1.599 -0.5113  2.0202 -0.7281
 7113TIP3   OH242973   1.708   0.836   2.040  0.5052  0.2800  0.1527
 7113TIP3    H142974   1.629   0.782   2.044  0.1897  0.6690 -0.6946
 7113TIP3    H242975   1.685   0.909   1.983  1.4721  0.4080 -0.0951
 7114TIP3   OH242976   2.899   1.933   1.012  0.3124  0.1644  0.5757
 7114TIP3    H142977   2.976   1.986   1.034  0.2572  0.9792 -1.0205
 7114TIP3    H242978   2.825   1.985   1.044  0.0715  2.4544 -3.1186
 7115TIP3   OH242979   5.785   5.732   0.370 -0.1535  0.2307 -0.1781
 7115TIP3    H142980   5.780   5.822   0.337 -1.7717 -0.0151 -0.7026
 7115TIP3    H242981   5.743   5.680   0.301  1.2643 -1.0150 -0.1456
 7116TIP3   OH242982   1.822   6.229   0.215 -0.2583  0.2195  0.0620
 7116TIP3    H142983   1.860   6.205   0.130  3.4199  3.1781  0.5840
 7116TIP3    H242984   1.786   6.317   0.201  1.1581  1.1197  1.6041
 7117TIP3   OH242985   6.864   2.114   8.444  0.4714 -0.3454 -0.4058
 7117TIP3    H142986   6.804   2.041   8.427 -0.4827  0.7903 -2.2897
 7117TIP3    H242987   6.866   2.122   8.539 -2.6015 -0.2889 -0.2618
 7118TIP3   OH242988   4.786   0.800   1.192  0.8945  0.2243  0.0256
 7118TIP3    H142989   4.823   0.882   1.224  1.9809  0.8290 -2.5906
 7118TIP3    H242990   4.698   0.821   1.164  0.7216  0.1928  0.5400
 7119TIP3   OH242991   1.932   3.366   2.395  0.2941 -0.0467  0.6342
 7119TIP3    H142992   2.014   3.355   2.442  0.2840  0.1807  0.7063
 7119TIP3    H242993   1.940   3.310   2.318  0.7811  0.4753  0.2968
 7120TIP3   OH242994   6.169   2.660   0.368  0.4744 -0.5263  0.7808
 7120TIP3    H142995   6.081   2.637   0.337  0.5684 -0.9671  0.8378
 7120TIP3    H242996   6.228   2.610   0.312  0.6931 -0.1429  0.6695
 7121TIP3   OH242997   1.195   4.706   8.464  0.6322  0.2859 -0.5616
 7121TIP3    H142998   1.170   4.719   8.556 -0.9285 -1.0531 -0.7410
 7121TIP3    H242999   1.279   4.661   8.468 -0.4513 -1.8296  0.3373
 7122TIP3   OH243000   1.916   4.142   8.047 -0.1440 -0.0288  0.3572
 7122TIP3    H143001   1.961   4.058   8.061 -0.8888 -0.2783  1.4379
 7122TIP3    H243002   1.847   4.122   7.984  0.5936  0.1178 -0.5087
 7123TIP3   OH243003   6.063   1.139   1.024 -0.0962  0.1510 -0.0336
 7123TIP3    H143004   6.053   1.047   1.048  0.1688  0.6904  2.3667
 7123TIP3    H243005   5.994   1.184   1.072 -0.1401  1.2353 -1.0754
 7124TIP3   OH243006   1.167   1.770   2.263  0.1397 -0.2027  0.1404
 7124TIP3    H143007   1.188   1.729   2.347 -0.4602  0.1563  0.4721
 7124TIP3    H243008   1.191   1.862   2.274 -0.2968 -0.0762  0.0501
 7125TIP3   OH243009   4.299   4.665   3.121  0.2023 -0.5365  0.5307
 7125TIP3    H143010   4.381   4.624   3.149  1.3473  1.4711  0.3755
 7125TIP3    H243011   4.294   4.746   3.173 -0.4946  0.4947 -1.0638
 7126TIP3   OH243012   0.425   1.864   8.128 -0.3034  0.7668  0.1748
 7126TIP3    H143013   0.445   1.872   8.035 -0.8339 -0.3069 -0.0565
 7126TIP3    H243014   0.420   1.769   8.143 -1.1448  0.9349  1.0827
 7127TIP3   OH243015   2.732   2.578   2.649 -0.7108 -0.9443  0.1232
 7127TIP3    H143016   2.670   2.560   2.720 -0.3634 -1.3416  0.3314
 7127TIP3    H243017   2.808   2.617   2.692 -0.5580 -1.0549 -0.0438
 7128TIP3   OH243018   6.132   1.422   8.134  0.7347  0.0473 -0.2960
 7128TIP3    H143019   6.220   1.414   8.171  0.4924 -0.5911  0.1560
 7128TIP3    H243020   6.126   1.351   8.070  0.2639 -0.4334  0.2673
 7129TIP3   OH243021   6.414   2.051   2.770  0.2706  0.2276  0.6142
 7129TIP3    H143022   6.427   2.144   2.753  1.3849 -0.2444 -1.5082
 7129TIP3    H243023   6.500   2.012   2.755 -0.9325 -1.5860 -2.3479
 7130TIP3   OH243024   4.380   1.105   8.564  0.4442  0.0665 -0.0698
 7130TIP3    H143025   4.357   1.014   8.544 -1.3693  0.5472 -0.4117
 7130TIP3    H243026   4.395   1.105   8.659  0.4414 -0.5864 -0.0625
 7131TIP3   OH243027   3.660   0.143   1.374 -0.4501  0.1458 -0.6478
 7131TIP3    H143028   3.593   0.197   1.332 -1.5557 -0.9259 -0.3389
 7131TIP3    H243029   3.632   0.053   1.357  1.5576 -0.3742 -1.5029
 7132TIP3   OH243030   6.297   2.849   1.131 -0.1903  0.4237 -0.6420
 7132TIP3    H143031   6.242   2.815   1.061 -0.7781 -0.2934  0.1584
 7132TIP3    H243032   6.239   2.906   1.182 -0.4933 -1.0377  0.7409
 7133TIP3   OH243033   6.765   6.802   0.374  0.0396 -0.0718  0.2506
 7133TIP3    H143034   6.835   6.746   0.407 -1.5088 -1.9143  0.6395
 7133TIP3    H243035   6.759   6.874   0.437  1.9359  0.4761 -0.1368
 7134TIP3   OH243036   3.153   3.081   8.018 -0.0040 -0.3628 -0.1295
 7134TIP3    H143037   3.084   3.080   7.951 -0.6589 -2.6853  0.4910
 7134TIP3    H243038   3.106   3.089   8.101  0.4713 -1.4501  0.2669
 7135TIP3   OH243039   1.146   5.988   0.203  0.1450 -0.3406  0.4586
 7135TIP3    H143040   1.113   6.068   0.244 -0.8352 -0.6867  0.3674
 7135TIP3    H243041   1.151   6.009   0.110  1.6558  0.1990  0.6297
 7136TIP3   OH243042   4.355   4.525   2.717  0.0123  0.3073 -0.7680
 7136TIP3    H143043   4.269   4.549   2.751  0.5074  1.4849 -0.2982
 7136TIP3    H243044   4.365   4.433   2.743 -0.6529  0.4664  0.1318
 7137TIP3   OH243045   3.414   0.387   3.192  0.0422  0.3155  0.0144
 7137TIP3    H143046   3.447   0.336   3.266 -0.3413  2.0147  1.4267
 7137TIP3    H243047   3.319   0.371   3.192 -0.0288  0.7424  0.2244
 7138TIP3   OH243048   2.456   1.484   0.016 -0.4271  0.0580 -0.3326
 7138TIP3    H143049   2.389   1.511   0.079  0.4527  1.2797  0.1220
 7138TIP3    H243050   2.538   1.517   0.053  0.2574 -0.2401 -1.5389
 7139TIP3   OH243051   4.048   5.700   2.179 -0.0594  0.0694 -0.4355
 7139TIP3    H143052   3.961   5.727   2.209 -0.2711 -0.1108 -0.8787
 7139TIP3    H243053   4.064   5.752   2.101 -0.1749 -0.5688 -0.8972
 7140TIP3   OH243054   1.618   4.356   2.502 -0.0453  0.2606  0.2331
 7140TIP3    H143055   1.677   4.356   2.427  1.1009  0.6550  1.1036
 7140TIP3    H243056   1.558   4.429   2.486  0.3549  0.5012 -0.1747
 7141TIP3   OH243057   0.662   4.369   8.453 -0.4046 -0.2756 -0.2232
 7141TIP3    H143058   0.718   4.376   8.376 -1.1592 -1.5522 -0.9153
 7141TIP3    H243059   0.710   4.415   8.522  1.0846 -0.6000 -1.0101
 7142TIP3   OH243060   6.236   1.882   2.881  0.1212 -0.0534  0.0067
 7142TIP3    H143061   6.148   1.893   2.845 -0.2093 -0.7378  0.5912
 7142TIP3    H243062   6.288   1.949   2.836 -0.5491 -0.0606 -0.8130
 7143TIP3   OH243063   6.001   4.400   2.222 -0.2190 -0.3680  0.5200
 7143TIP3    H143064   5.977   4.338   2.291 -3.0388  1.2853  1.1733
 7143TIP3    H243065   5.919   4.418   2.175  1.0855  0.6206 -1.5503
 7144TIP3   OH243066   4.507   6.871   7.457 -0.2707  0.9279 -0.4602
 7144TIP3    H143067   4.455   6.950   7.441  0.3556  1.2107 -1.1557
 7144TIP3    H243068   4.471   6.835   7.538 -2.1547  0.6241 -1.3493
 7145TIP3   OH243069   5.361   0.614   2.875  0.2116 -0.0722 -0.3494
 7145TIP3    H143070   5.286   0.566   2.909  1.2239 -2.0098 -0.6802
 7145TIP3    H243071   5.409   0.549   2.823  2.5713  0.8380  0.5542
 7146TIP3   OH243072   5.915   6.632   6.950  0.1605 -0.1376 -0.6082
 7146TIP3    H143073   5.827   6.628   6.988  0.1258 -0.5052 -0.7251
 7146TIP3    H243074   5.967   6.574   7.006  0.6305  1.0526  0.2441
 7147LIG     O143075   3.477   6.083   1.837 -0.2027 -0.1551  0.2015
 7147LIG     O243076   3.489   5.986   2.084  0.2503  0.3252  0.4053
 7147LIG     O343077   3.268   6.304   1.865  0.1674 -0.1353 -0.2155
 7147LIG     O443078   3.695   6.029   2.190  0.0650 -0.2604 -1.2788
 7147LIG     O543079   3.402   6.265   2.146 -0.3158  0.3146 -0.2602
 7147LIG     O643080   3.527   6.370   2.376 -0.0898  0.4673 -0.3886
 7147LIG     O743081   3.816   6.307   2.386  0.1224  0.2282 -0.8348
 7147LIG     O843082   3.880   5.965   2.383 -0.3083  0.5276 -0.4461
 7147LIG     O943083   4.024   6.100   2.269 -0.0800  0.2321 -0.4738
 7147LIG      N43084   3.307   5.676   1.585  0.3850  0.5443  0.2315
 7147LIG     C143085   3.426   5.869   1.754 -0.2975 -0.5642  0.0374
 7147LIG     C243086   3.400   5.724   1.812  0.1165 -0.0055  1.1358
 7147LIG     C343087   3.527   5.952   1.837  0.2356  0.6483 -0.5392
 7147LIG     C443088   3.281   5.678   1.731  0.2352  0.6021 -0.2331
 7147LIG     C543089   3.452   5.876   1.599 -0.1509 -0.1840 -0.3912
 7147LIG     C643090   3.297   5.947   1.767 -0.3861  0.0999  0.0460
 7147LIG     C743091   3.150   5.757   1.764 -0.3607  0.1924 -0.5386
 7147LIG     C843092   3.342   5.806   1.522 -1.1812 -0.5572  0.0012
 7147LIG     C943093   3.542   5.901   1.988  0.9181  0.5158 -0.8593
 7147LIG    C1043094   3.168   5.905   1.780  0.6117  0.7990  0.1370
 7147LIG    C1143095   3.379   5.714   1.961  0.4089 -0.7418  0.4947
 7147LIG    C1243096   3.339   6.074   1.811  0.9721 -0.1687  0.9884
 7147LIG    C1343097   3.437   5.803   2.044  0.6640  1.1089 -0.1543
 7147LIG    C1443098   3.413   5.578   1.554  0.5445 -0.2145  0.3938
 7147LIG    C1543099   3.075   5.993   1.825  0.1282 -0.1527  0.5653
 7147LIG    C1643100   3.239   6.168   1.831  0.3700  0.5448 -0.3674
 7147LIG    C1743101   3.108   6.127   1.839  0.8472 -0.7535 -0.3451
 7147LIG    C1843102   3.584   6.086   2.124  0.5966 -0.1804 -0.3150
 7147LIG    C1943103   3.507   6.190   2.212  0.3053 -0.4120  0.7075
 7147LIG    C2043104   3.600   6.292   2.280 -0.1531  0.8848 -0.7991
 7147LIG    C2143105   3.719   6.216   2.338  0.5728 -0.4813 -0.3962
 7147LIG    C2243106   3.785   6.132   2.240 -0.1273  0.5746 -0.2752
 7147LIG    C2343107   3.910   6.069   2.304 -0.1193 -0.1235  0.0376
 7147LIG     H143108   3.489   5.662   1.788 -0.4357 -0.1986 -0.4932
 7147LIG     H243109   3.627   5.940   1.789  0.1896 -0.4618 -0.3908
 7147LIG     H343110   3.274   5.572   1.764  1.0293  0.9328  1.0830
 7147LIG     H443111   3.547   5.821   1.585 -0.9142 -1.6885  0.1280
 7147LIG     H543112   3.457   5.979   1.556 -4.9033  1.1662  1.5965
 7147LIG     H643113   3.117   5.715   1.861 -0.8638 -1.1532 -1.2708
 7147LIG     H743114   3.067   5.730   1.696 -0.3176  1.0042 -0.9220
 7147LIG     H843115   3.248   5.865   1.516 -1.1066 -0.4564 -0.2009
 7147LIG     H943116   3.378   5.783   1.419 -1.4630 -0.8617 -0.0293
 7147LIG    H1043117   3.650   5.884   2.007  1.2446  2.5126 -0.6851
 7147LIG    H1143118   3.345   5.617   1.999 -2.4942  0.7919  2.1910
 7147LIG    H1243119   3.438   5.777   2.150 -2.1590 -0.5400 -0.4555
 7147LIG    H1343120   3.399   5.520   1.460  2.1307  1.7032 -1.1308
 7147LIG    H1443121   3.419   5.505   1.637  1.3115  1.6876  2.0976
 7147LIG    H1543122   3.507   5.637   1.542  0.2598 -0.1285 -1.7890
 7147LIG    H1643123   2.973   5.968   1.850 -1.0245  2.5533 -0.9429
 7147LIG    H1743124   3.035   6.198   1.874  0.7562 -1.0861  0.1534
 7147LIG    H1843125   3.636   6.131   2.037  0.6546 -0.0578 -0.2164
 7147LIG    H1943126   3.465   6.137   2.300 -0.3835  0.4973  0.9332
 7147LIG    H2043127   3.625   6.359   2.195  0.9232  1.2313 -0.2189
 7147LIG    H2143128   3.362   6.320   1.879 -0.2821  3.5914 -0.4766
 7147LIG    H2243129   3.686   6.158   2.426  1.2105 -1.2978 -0.6909
 7147LIG    H2343130   3.822   6.193   2.156  2.3747  0.3515  0.5931
 7147LIG    H2443131   3.347   6.194   2.113  1.4754 -0.1931 -2.4032
 7147LIG    H2543132   3.449   6.394   2.326 -0.0757 -0.0690 -0.6665
 7147LIG    H2643133   3.752   6.356   2.438  0.8361  1.5082 -1.1405
 7147LIG    H2743134   3.958   5.922   2.417 -1.2768  1.6243  3.8372
   6.88862   6.88862   8.66467
