Title
43134
    1CHL1    C3    1   1.737   6.157   8.955 -0.0430 -0.2369 -0.5471
    1CHL1    H3    2   1.710   6.259   8.918  0.0500 -0.3604 -0.9575
    1CHL1    O3    3   1.692   6.145   9.090  0.4222 -0.1690  0.0273
    1CHL1   H3'    4   1.759   6.094   9.136  3.1729  2.1487 -1.1152
    1CHL1    C4    5   1.661   6.061   8.865  1.1839 -0.1205  0.6873
    1CHL1   H4A    6   1.655   5.961   8.915 -0.5684 -0.2912  0.2110
    1CHL1   H4B    7   1.555   6.095   8.868  1.1372 -0.2499  0.5245
    1CHL1    C5    8   1.701   6.042   8.720  0.1038 -0.2680 -0.6596
    1CHL1    C6    9   1.619   6.052   8.617 -0.5445 -0.0860  0.1412
    1CHL1    H6   10   1.513   6.070   8.637 -0.4083  0.4102  0.4296
    1CHL1    C7   11   1.647   6.024   8.472  0.2702 -0.5711  0.6244
    1CHL1   H7A   12   1.586   5.945   8.425  1.6528 -0.8719 -0.7582
    1CHL1   H7B   13   1.628   6.108   8.401 -0.0281 -1.5543 -0.4836
    1CHL1    C8   14   1.795   5.971   8.459 -1.1119  0.4408 -1.6721
    1CHL1    H8   15   1.792   5.865   8.493 -0.8737 -0.1336 -3.3461
    1CHL1   C14   16   1.848   5.985   8.313 -0.2918 -0.2309 -0.8063
    1CHL1   H14   17   1.866   6.094   8.300  0.4040 -0.4894 -2.2127
    1CHL1   C15   18   1.754   5.936   8.206  0.3334  0.4718 -0.4723
    1CHL1  H15A   19   1.726   5.832   8.232  1.1064  0.0408 -1.3338
    1CHL1  H15B   20   1.665   5.999   8.182 -1.6444 -1.0555  2.3330
    1CHL1   C16   21   1.847   5.936   8.090  0.0520  0.5978 -0.0317
    1CHL1  H16A   22   1.830   5.840   8.037 -1.2701 -0.6220  2.4344
    1CHL1  H16B   23   1.827   6.015   8.014  0.2920  2.3081  1.6022
    1CHL1   C17   24   1.996   5.948   8.134  0.2448  0.0277  0.8757
    1CHL1   H17   25   2.029   6.054   8.122  0.4516 -0.2586 -1.6663
    1CHL1   C13   26   1.983   5.921   8.282 -0.0282 -0.3323 -0.0694
    1CHL1   C18   27   1.978   5.772   8.308  0.2624 -0.4704 -0.3832
    1CHL1  H18A   28   2.079   5.727   8.296  0.9845  0.7380  0.8324
    1CHL1  H18B   29   1.944   5.748   8.412 -2.0443  0.1030 -0.9433
    1CHL1  H18C   30   1.900   5.723   8.246 -1.3562  1.2049  0.2295
    1CHL1   C12   31   2.079   6.002   8.382 -0.7523  0.3590  0.3739
    1CHL1  H12A   32   2.184   5.970   8.370 -0.9725  0.2699 -1.6207
    1CHL1  H12B   33   2.080   6.107   8.347  1.4756  0.2375 -0.0175
    1CHL1   C11   34   2.035   6.000   8.529 -0.1273 -0.5909 -0.9446
    1CHL1  H11A   35   2.055   5.899   8.571  0.3164 -0.7788 -1.5844
    1CHL1  H11B   36   2.090   6.072   8.592 -2.0875  1.9710 -1.9991
    1CHL1    C9   37   1.894   6.036   8.557 -0.4452  0.2724  0.3632
    1CHL1    H9   38   1.887   6.142   8.524  0.0219  0.4082  0.7002
    1CHL1   C10   39   1.855   6.023   8.702 -0.9686  0.3707  0.6072
    1CHL1   C19   40   1.889   5.881   8.759  0.5391  0.1626  0.8652
    1CHL1  H19A   41   1.999   5.863   8.757  0.1788 -2.3304  0.0096
    1CHL1  H19B   42   1.846   5.861   8.859  0.4889  1.1603  1.0495
    1CHL1  H19C   43   1.850   5.802   8.691 -0.0513  1.9493 -0.9547
    1CHL1    C1   44   1.934   6.124   8.800  0.6275 -0.6346  0.2446
    1CHL1   H1A   45   2.040   6.092   8.807  0.8948  0.3509  0.7365
    1CHL1   H1B   46   1.916   6.227   8.764 -0.4297 -0.4982  1.1297
    1CHL1    C2   47   1.882   6.127   8.949  0.1826  0.1341 -0.1023
    1CHL1   H2A   48   1.951   6.198   9.000  3.0301 -1.0816 -1.9792
    1CHL1   H2B   49   1.908   6.025   8.984  2.6629  0.5127 -0.6309
    1CHL1   C20   50   2.087   5.854   8.050  0.3032 -0.1727 -0.4004
    1CHL1   H20   51   2.076   5.747   8.079  1.4035  0.1246  1.2870
    1CHL1   C21   52   2.234   5.885   8.089  0.0653  0.3738 -0.0910
    1CHL1  H21A   53   2.304   5.811   8.044 -0.1931  0.5521 -0.7928
    1CHL1  H21B   54   2.252   5.862   8.196  0.1479  0.0532 -0.1728
    1CHL1  H21C   55   2.273   5.988   8.073  0.4300  0.5299  1.5969
    1CHL1   C22   56   2.071   5.874   7.896  0.4082 -0.8091 -0.4725
    1CHL1  H22A   57   1.965   5.865   7.864  0.3301  1.4535 -1.0223
    1CHL1  H22B   58   2.103   5.977   7.868 -1.4901 -0.3183 -0.9577
    1CHL1   C23   59   2.138   5.774   7.809  0.3958  0.2968 -0.6386
    1CHL1  H23A   60   2.239   5.816   7.789  0.9018  0.5571  2.1079
    1CHL1  H23B   61   2.164   5.684   7.869  0.1308 -0.4078 -1.5539
    1CHL1   C24   62   2.076   5.740   7.668 -0.0289  0.5927  0.1696
    1CHL1  H24A   63   1.977   5.696   7.690  0.0370  0.0195 -0.6463
    1CHL1  H24B   64   2.054   5.831   7.608  1.3193  0.3266 -0.7791
    1CHL1   C25   65   2.160   5.649   7.572 -1.3961 -0.0293 -0.0247
    1CHL1   H25   66   2.258   5.701   7.564 -1.5825  0.3493  0.1379
    1CHL1   C26   67   2.184   5.507   7.626 -0.3755 -0.5093  0.1378
    1CHL1  H26A   68   2.222   5.508   7.731  2.3484  0.4357 -0.7770
    1CHL1  H26B   69   2.091   5.449   7.611  0.3228 -1.4304 -0.7981
    1CHL1  H26C   70   2.254   5.445   7.566 -0.7294 -1.8449  1.0558
    1CHL1   C27   71   2.104   5.643   7.427  0.3656 -0.2347  1.1680
    1CHL1  H27A   72   2.022   5.570   7.411  0.9182 -0.7013  0.3809
    1CHL1  H27B   73   2.075   5.747   7.399  3.5089  0.5136  0.2291
    1CHL1  H27C   74   2.186   5.603   7.363 -0.5969 -2.0784  1.0326
    2CHL1    C3   75   2.616   0.045   0.213 -0.0649  0.5820  0.2679
    2CHL1    H3   76   2.597  -0.063   0.198 -1.5071  0.9061 -0.4620
    2CHL1    O3   77   2.575   0.093   0.344  0.1159  0.3834  0.0801
    2CHL1   H3'   78   2.625   0.034   0.402  2.4813 -0.7102 -2.8070
    2CHL1    C4   79   2.762   0.057   0.195 -0.1717  0.4745  0.7975
    2CHL1   H4A   80   2.788   0.165   0.207 -2.7583  1.1903  0.6233
    2CHL1   H4B   81   2.820   0.009   0.277  2.8880  2.0099 -0.2998
    2CHL1    C5   82   2.805   0.014   0.056  0.2868 -0.5151 -0.3175
    2CHL1    C6   83   2.901  -0.079   0.041  0.2288  0.1285 -0.3440
    2CHL1    H6   84   2.951  -0.123   0.129  0.2459 -3.6187 -2.0491
    2CHL1    C7   85   2.957  -0.123  -0.087 -0.2305 -0.7369  0.1707
    2CHL1   H7A   86   3.067  -0.140  -0.091  0.1449  1.4281  0.0453
    2CHL1   H7B   87   2.901  -0.215  -0.114  0.0229 -1.3560  1.6525
    2CHL1    C8   88   2.934  -0.008  -0.195 -0.0465  0.2287  0.5721
    2CHL1    H8   89   2.990   0.082  -0.163 -2.1518  0.9283  2.4640
    2CHL1   C14   90   2.963  -0.064  -0.338  0.2268  0.3843 -0.7881
    2CHL1   H14   91   2.895  -0.152  -0.335  2.9772 -1.8644  1.4368
    2CHL1   C15   92   3.099  -0.125  -0.365  0.1842 -0.0630  0.1181
    2CHL1  H15A   93   3.192  -0.068  -0.341 -1.0165  1.8136  0.4967
    2CHL1  H15B   94   3.097  -0.223  -0.312 -0.6593 -0.9639 -1.4957
    2CHL1   C16   95   3.094  -0.139  -0.520  0.3664 -0.0992  0.0301
    2CHL1  H16A   96   3.190  -0.096  -0.555  1.1184 -0.3238  1.7171
    2CHL1  H16B   97   3.094  -0.244  -0.557  1.5048  0.4646 -1.7125
    2CHL1   C17   98   2.969  -0.065  -0.581 -0.0970  0.6998  0.3407
    2CHL1   H17   99   2.890  -0.143  -0.589 -0.8874  1.4819  0.3018
    2CHL1   C13  100   2.923   0.021  -0.462  0.1850  0.6071 -0.2876
    2CHL1   C18  101   3.012   0.145  -0.468 -0.2162 -0.3792  0.7278
    2CHL1  H18A  102   2.965   0.213  -0.541  0.3949  0.5994  1.2125
    2CHL1  H18B  103   3.012   0.191  -0.366 -1.9884  0.6209  0.3072
    2CHL1  H18C  104   3.119   0.136  -0.496  0.3630  1.3838  2.1729
    2CHL1   C12  105   2.775   0.065  -0.457 -0.6554 -0.7222  0.4274
    2CHL1  H12A  106   2.751   0.139  -0.536  1.0228  0.8271  1.3152
    2CHL1  H12B  107   2.701  -0.018  -0.464 -0.5892 -0.7418 -0.1196
    2CHL1   C11  108   2.741   0.124  -0.317 -0.0105  0.3370  0.1481
    2CHL1  H11A  109   2.787   0.225  -0.308  0.5219  0.4497 -2.8274
    2CHL1  H11B  110   2.630   0.122  -0.320 -0.2292 -0.3545  3.8428
    2CHL1    C9  111   2.783   0.037  -0.198  0.9505  0.5494  0.1294
    2CHL1    H9  112   2.728  -0.058  -0.209  1.8946 -0.3525  2.6699
    2CHL1   C10  113   2.732   0.090  -0.055  0.1462  0.1335 -0.3471
    2CHL1   C19  114   2.768   0.244  -0.044  0.2944 -0.5967  0.1272
    2CHL1  H19A  115   2.735   0.295   0.049 -1.8162  2.5039 -2.1207
    2CHL1  H19B  116   2.876   0.265  -0.053  0.0205  0.5950 -0.6238
    2CHL1  H19C  117   2.717   0.296  -0.128  0.4681 -2.6044 -1.2898
    2CHL1    C1  118   2.577   0.075  -0.040 -0.3112  0.6789 -0.2572
    2CHL1   H1A  119   2.519   0.136  -0.113 -1.9647 -0.4320  0.0698
    2CHL1   H1B  120   2.543  -0.030  -0.057  0.9584  0.4726 -1.7068
    2CHL1    C2  121   2.529   0.108   0.102  0.4284 -1.5418 -0.1384
    2CHL1   H2A  122   2.420   0.087   0.105 -0.4748  2.2958 -0.5229
    2CHL1   H2B  123   2.528   0.217   0.124 -0.2633 -2.0413  2.7047
    2CHL1   C20  124   2.987  -0.005  -0.720 -0.1718 -0.6608 -0.4172
    2CHL1   H20  125   3.026   0.099  -0.710 -0.2762 -0.8111  2.4494
    2CHL1   C21  126   2.851   0.000  -0.774  0.3050 -0.1564 -0.3265
    2CHL1  H21A  127   2.805  -0.100  -0.766  0.4893 -0.1603  0.9135
    2CHL1  H21B  128   2.851   0.031  -0.881  0.7190 -2.5072 -1.0685
    2CHL1  H21C  129   2.788   0.074  -0.720 -2.1967 -1.0175 -1.9020
    2CHL1   C22  130   3.060  -0.105  -0.809 -0.0509  0.7242  0.2347
    2CHL1  H22A  131   3.157  -0.141  -0.770  0.6622  0.1870 -1.8800
    2CHL1  H22B  132   2.993  -0.191  -0.830  0.1480 -0.0415  2.5457
    2CHL1   C23  133   3.101  -0.057  -0.943 -0.0475 -0.0672 -0.5206
    2CHL1  H23A  134   3.015  -0.018  -1.001  0.2373 -0.1484 -1.0015
    2CHL1  H23B  135   3.166   0.032  -0.927  1.6289 -1.2888 -0.2868
    2CHL1   C24  136   3.179  -0.154  -1.035  0.1484  0.1317  0.1887
    2CHL1  H24A  137   3.279  -0.180  -0.994 -0.8670 -0.6144  2.4038
    2CHL1  H24B  138   3.128  -0.253  -1.044  1.6681 -0.5940 -0.8116
    2CHL1   C25  139   3.193  -0.104  -1.180  0.2753  0.4765  0.3321
    2CHL1   H25  140   3.102  -0.044  -1.201  0.1945 -0.0968 -1.0841
    2CHL1   C26  141   3.305   0.001  -1.196 -0.4586  0.6018 -0.1942
    2CHL1  H26A  142   3.300   0.082  -1.119 -0.0826  2.4458 -2.0214
    2CHL1  H26B  143   3.408  -0.039  -1.182 -0.2166  1.3895  0.3714
    2CHL1  H26C  144   3.304   0.046  -1.297 -2.8567  1.5068  0.1593
    2CHL1   C27  145   3.209  -0.222  -1.278  0.3644 -0.7226  0.0152
    2CHL1  H27A  146   3.234  -0.182  -1.379 -1.5172  2.9037  0.8267
    2CHL1  H27B  147   3.278  -0.296  -1.233 -1.6210 -1.2894  2.3410
    2CHL1  H27C  148   3.111  -0.273  -1.277 -0.8481  1.4458 -0.6573
    3CHL1    C3  149   3.717   5.544   0.231  0.0617  0.8181 -0.3129
    3CHL1    H3  150   3.825   5.568   0.241  0.3535 -0.4324 -0.2239
    3CHL1    O3  151   3.660   5.578   0.359  0.1546  0.8460  0.2446
    3CHL1   H3'  152   3.575   5.534   0.369 -2.1410  5.1716  2.8095
    3CHL1    C4  153   3.658   5.636   0.124  0.2680  1.1366  0.6186
    3CHL1   H4A  154   3.548   5.646   0.123  0.0765 -0.5761 -0.2087
    3CHL1   H4B  155   3.693   5.737   0.155  1.4768  0.8401  0.2887
    3CHL1    C5  156   3.714   5.607  -0.017 -0.6537  0.0412 -0.2617
    3CHL1    C6  157   3.767   5.703  -0.097 -0.7731  0.2804 -0.7719
    3CHL1    H6  158   3.758   5.806  -0.059  1.6585 -0.5250  2.4215
    3CHL1    C7  159   3.836   5.667  -0.224  0.0262  0.0670  0.8192
    3CHL1   H7A  160   3.819   5.754  -0.291  0.2163 -0.2963  0.2886
    3CHL1   H7B  161   3.945   5.646  -0.221  0.0117 -0.1760 -0.0857
    3CHL1    C8  162   3.789   5.532  -0.284  0.1237 -0.2814  0.8746
    3CHL1    H8  163   3.682   5.537  -0.315  0.8677 -1.3806 -2.2248
    3CHL1   C14  164   3.872   5.491  -0.411  0.2028  0.2851  0.3985
    3CHL1   H14  165   3.972   5.460  -0.373  0.0153 -1.1169 -0.2198
    3CHL1   C15  166   3.910   5.597  -0.514 -0.2347 -0.4799 -0.3357
    3CHL1  H15A  167   3.826   5.669  -0.521  1.1629  1.1765 -0.4377
    3CHL1  H15B  168   4.002   5.647  -0.476  0.3043 -1.5739 -0.1468
    3CHL1   C16  169   3.939   5.517  -0.640 -0.0057  0.1806 -0.5065
    3CHL1  H16A  170   3.868   5.557  -0.716 -1.2038 -0.4289  0.2585
    3CHL1  H16B  171   4.039   5.533  -0.684 -0.4904 -0.6219 -1.9456
    3CHL1   C17  172   3.915   5.366  -0.609  0.0558  0.5136 -0.6463
    3CHL1   H17  173   4.007   5.318  -0.569  0.8763  1.0909 -1.7838
    3CHL1   C13  174   3.817   5.366  -0.486 -0.4457  0.1712  0.2943
    3CHL1   C18  175   3.675   5.396  -0.542  0.0957  0.0428  0.2181
    3CHL1  H18A  176   3.676   5.484  -0.610 -1.4102 -0.2522 -0.2281
    3CHL1  H18B  177   3.634   5.311  -0.601 -0.4202  0.0211  0.6002
    3CHL1  H18C  178   3.596   5.405  -0.464 -0.3002  0.5180 -0.2281
    3CHL1   C12  179   3.827   5.249  -0.381 -0.4706  0.8510 -0.3618
    3CHL1  H12A  180   3.782   5.151  -0.408 -1.6104  1.3766 -0.4139
    3CHL1  H12B  181   3.934   5.241  -0.351 -0.4670  0.7200 -0.4091
    3CHL1   C11  182   3.762   5.287  -0.247  0.2403 -0.1918  0.3236
    3CHL1  H11A  183   3.654   5.284  -0.274  0.6394 -0.4660 -1.3129
    3CHL1  H11B  184   3.775   5.207  -0.171 -2.5363  0.4493  1.5850
    3CHL1    C9  185   3.796   5.421  -0.182 -0.2488  0.2235  0.1520
    3CHL1    H9  186   3.904   5.413  -0.157 -0.5659 -0.1918  1.5004
    3CHL1   C10  187   3.723   5.460  -0.053  0.8217 -0.2525 -0.4440
    3CHL1   C19  188   3.573   5.419  -0.068  0.0191  0.1874 -0.3104
    3CHL1  H19A  189   3.523   5.462  -0.157  0.3086 -0.3953 -0.7556
    3CHL1  H19B  190   3.564   5.309  -0.074 -2.0361  0.3783 -1.8104
    3CHL1  H19C  191   3.502   5.444   0.014 -2.2017  0.7215 -2.2803
    3CHL1    C1  192   3.788   5.376   0.066  0.7410  0.7172 -0.5906
    3CHL1   H1A  193   3.789   5.269   0.035  1.1130  1.0108 -1.6108
    3CHL1   H1B  194   3.892   5.407   0.089  0.9976 -0.1154 -0.5769
    3CHL1    C2  195   3.717   5.395   0.201 -0.3162  0.2703 -0.4282
    3CHL1   H2A  196   3.764   5.338   0.284 -0.7801 -1.5133 -1.3215
    3CHL1   H2B  197   3.614   5.352   0.201 -0.0311 -0.6142  2.2003
    3CHL1   C20  198   3.876   5.295  -0.741 -0.3687 -0.3709 -0.5192
    3CHL1   H20  199   3.787   5.338  -0.792 -1.5500 -0.7449  1.1519
    3CHL1   C21  200   3.852   5.151  -0.716 -0.1296 -0.1908 -0.3473
    3CHL1  H21A  201   3.813   5.103  -0.809 -1.7460 -2.3528  1.3495
    3CHL1  H21B  202   3.784   5.129  -0.631  0.7554  1.2812  0.7881
    3CHL1  H21C  203   3.948   5.101  -0.694  0.0374 -0.5981 -1.8668
    3CHL1   C22  204   3.986   5.305  -0.849 -0.8257 -0.2253 -0.2220
    3CHL1  H22A  205   4.012   5.407  -0.883  1.2261 -0.2041  1.2526
    3CHL1  H22B  206   4.082   5.261  -0.814  0.0134  1.6892 -0.0228
    3CHL1   C23  207   3.951   5.230  -0.982  0.1063  0.3652  0.0630
    3CHL1  H23A  208   3.947   5.121  -0.959 -0.3984  0.2097 -0.7309
    3CHL1  H23B  209   3.857   5.265  -1.031  0.6738  0.3417 -1.0807
    3CHL1   C24  210   4.066   5.246  -1.082  0.4016 -0.3286 -0.1988
    3CHL1  H24A  211   4.080   5.355  -1.099  1.1232 -0.0359  1.9533
    3CHL1  H24B  212   4.153   5.197  -1.034  0.1521  0.3366  0.9561
    3CHL1   C25  213   4.061   5.188  -1.224  0.0754 -0.2659 -0.5895
    3CHL1   H25  214   4.033   5.081  -1.212  0.7520 -0.3225  0.6906
    3CHL1   C26  215   3.949   5.256  -1.308 -0.5979  0.6548  0.5829
    3CHL1  H26A  216   3.861   5.206  -1.263  1.3841 -1.3498  2.5241
    3CHL1  H26B  217   3.940   5.366  -1.294 -1.4058  0.8211 -1.0433
    3CHL1  H26C  218   3.953   5.226  -1.415 -1.3352  0.5089  0.5923
    3CHL1   C27  219   4.204   5.183  -1.287  0.0602 -0.6508  0.3639
    3CHL1  H27A  220   4.207   5.138  -1.388  2.6796  1.3895 -0.5719
    3CHL1  H27B  221   4.246   5.285  -1.294 -1.4181 -0.0443 -0.1239
    3CHL1  H27C  222   4.282   5.127  -1.231  0.1841 -1.9940 -1.0758
    4CHL1    C3  223   1.154   3.332   8.984 -0.0269  0.4323  0.2605
    4CHL1    H3  224   1.077   3.410   8.968 -0.6582 -0.0533  0.8445
    4CHL1    O3  225   1.119   3.276   9.102  1.0806 -0.8192 -0.2894
    4CHL1   H3'  226   1.057   3.203   9.093  0.0629 -0.1120  0.7422
    4CHL1    C4  227   1.159   3.222   8.875  0.7926  0.9751  0.0980
    4CHL1   H4A  228   1.220   3.134   8.907  0.2864 -0.1791 -1.9114
    4CHL1   H4B  229   1.056   3.181   8.874  0.2710  2.2226 -1.7882
    4CHL1    C5  230   1.215   3.269   8.748  0.5314  0.1436  0.7562
    4CHL1    C6  231   1.147   3.262   8.634 -0.1157  0.3701  0.6490
    4CHL1    H6  232   1.047   3.217   8.639  0.0936 -0.0034  1.7249
    4CHL1    C7  233   1.212   3.273   8.500  0.3361  0.3319 -0.3128
    4CHL1   H7A  234   1.183   3.186   8.437  3.0920 -1.8115  1.1486
    4CHL1   H7B  235   1.173   3.357   8.439  4.6233  2.7526 -0.1411
    4CHL1    C8  236   1.369   3.295   8.499  1.0728 -0.4520 -0.1581
    4CHL1    H8  237   1.421   3.197   8.501  3.2635  0.6429 -0.4088
    4CHL1   C14  238   1.410   3.373   8.367  0.1871 -0.2135 -0.1010
    4CHL1   H14  239   1.363   3.472   8.380 -0.4064 -0.5397  0.2401
    4CHL1   C15  240   1.368   3.323   8.234 -0.3063 -0.3385  0.0866
    4CHL1  H15A  241   1.379   3.213   8.233  1.9148 -0.2031  1.7246
    4CHL1  H15B  242   1.264   3.360   8.221  0.4026  1.1762 -1.8565
    4CHL1   C16  243   1.459   3.393   8.132  0.6963  0.4331  0.3041
    4CHL1  H16A  244   1.505   3.308   8.078 -0.0714  0.4940 -0.4558
    4CHL1  H16B  245   1.415   3.459   8.055 -0.2444  0.1389  0.5791
    4CHL1   C17  246   1.573   3.461   8.220 -0.0250  0.5312  0.0990
    4CHL1   H17  247   1.536   3.565   8.237  1.2091  0.6290  2.6279
    4CHL1   C13  248   1.564   3.401   8.358  0.1807 -1.0492  0.6350
    4CHL1   C18  249   1.641   3.265   8.353 -0.4681 -0.8539 -0.0173
    4CHL1  H18A  250   1.746   3.297   8.338 -1.8521  3.0461 -3.1388
    4CHL1  H18B  251   1.627   3.208   8.448  0.4508 -1.9995 -0.5423
    4CHL1  H18C  252   1.610   3.192   8.276  0.0309 -0.2224 -0.8247
    4CHL1   C12  253   1.595   3.491   8.482 -0.2337  0.4709 -0.5936
    4CHL1  H12A  254   1.702   3.521   8.487  0.2930 -1.1948 -1.3431
    4CHL1  H12B  255   1.528   3.580   8.479 -0.5239  0.2206 -1.6930
    4CHL1   C11  256   1.562   3.411   8.613  0.6192 -0.4399  0.3387
    4CHL1  H11A  257   1.617   3.315   8.626  0.4253 -0.4373  1.2236
    4CHL1  H11B  258   1.584   3.485   8.693 -0.8194  0.6421 -0.2221
    4CHL1    C9  259   1.414   3.374   8.622 -0.5499 -0.3857 -0.8899
    4CHL1    H9  260   1.360   3.471   8.624  0.0734 -0.0498  1.3437
    4CHL1   C10  261   1.359   3.321   8.758 -0.9811  0.4814 -0.1827
    4CHL1   C19  262   1.451   3.204   8.796 -0.0212 -0.2975 -0.1288
    4CHL1  H19A  263   1.421   3.153   8.890  1.4293  0.1391  0.5917
    4CHL1  H19B  264   1.468   3.128   8.718  1.5142  0.7272 -0.8396
    4CHL1  H19C  265   1.552   3.245   8.818  0.2144  1.8007 -4.2303
    4CHL1    C1  266   1.356   3.433   8.866  0.0182 -0.6417 -0.1206
    4CHL1   H1A  267   1.454   3.469   8.905 -0.2539  0.1133 -0.1265
    4CHL1   H1B  268   1.304   3.525   8.830  0.5772 -0.4847 -0.5460
    4CHL1    C2  269   1.287   3.396   8.995 -0.4225  0.0511 -0.1821
    4CHL1   H2A  270   1.290   3.482   9.064 -0.1372  0.4569 -0.6989
    4CHL1   H2B  271   1.347   3.312   9.036 -3.2438 -1.7704  0.5445
    4CHL1   C20  272   1.705   3.463   8.150 -0.2154  0.0112 -0.6682
    4CHL1   H20  273   1.738   3.359   8.127 -0.1696 -0.2833  0.6759
    4CHL1   C21  274   1.810   3.539   8.241  0.2141 -0.3682 -0.3413
    4CHL1  H21A  275   1.875   3.472   8.302  0.8361  0.3454 -0.2141
    4CHL1  H21B  276   1.771   3.626   8.296  0.3876  0.0928 -0.9347
    4CHL1  H21C  277   1.884   3.594   8.179  0.4419  2.9966  2.6367
    4CHL1   C22  278   1.693   3.540   8.012  0.3418  0.1831 -0.4846
    4CHL1  H22A  279   1.602   3.604   8.010 -0.2480 -0.6009  0.4327
    4CHL1  H22B  280   1.778   3.610   7.997  1.1131 -0.9901 -1.7897
    4CHL1   C23  281   1.687   3.445   7.895  0.3064  0.2748 -0.7325
    4CHL1  H23A  282   1.770   3.371   7.899 -0.3004 -0.4275 -0.8982
    4CHL1  H23B  283   1.593   3.385   7.901 -0.0693  0.8748 -0.5275
    4CHL1   C24  284   1.712   3.530   7.766 -0.1786 -0.2973  0.5863
    4CHL1  H24A  285   1.630   3.603   7.753 -0.1004 -0.3910 -0.6182
    4CHL1  H24B  286   1.803   3.590   7.785 -0.6415  0.3552  0.7734
    4CHL1   C25  287   1.709   3.446   7.633 -0.2065  0.3564  0.9791
    4CHL1   H25  288   1.616   3.386   7.644 -0.2115 -0.2061 -1.4812
    4CHL1   C26  289   1.693   3.535   7.507 -1.1998 -0.4488  0.3346
    4CHL1  H26A  290   1.594   3.585   7.506 -1.4975 -1.0395 -0.2108
    4CHL1  H26B  291   1.776   3.609   7.499 -1.4345 -0.2013  0.1861
    4CHL1  H26C  292   1.709   3.470   7.418  1.2942  0.9797 -0.3765
    4CHL1   C27  293   1.824   3.336   7.619  0.1382 -0.2682  0.0717
    4CHL1  H27A  294   1.816   3.271   7.530 -1.5561 -1.0972  0.7849
    4CHL1  H27B  295   1.922   3.388   7.615  0.4058 -0.4018  2.8283
    4CHL1  H27C  296   1.829   3.276   7.713 -2.2258 -1.2609 -0.3832
    5CHL1    C3  297   0.461   3.800   8.993 -0.3132  0.1741  1.1584
    5CHL1    H3  298   0.571   3.791   9.006  0.3778  1.3652 -2.7348
    5CHL1    O3  299   0.401   3.796   9.124  0.3913 -0.2441 -0.3809
    5CHL1   H3'  300   0.439   3.713   9.155  0.0413 -0.9651 -1.8274
    5CHL1    C4  301   0.441   3.942   8.928  0.1636 -0.2348  0.0341
    5CHL1   H4A  302   0.332   3.965   8.929 -0.4883 -2.9379  0.2052
    5CHL1   H4B  303   0.492   4.007   9.003 -1.4724 -0.4260  1.3870
    5CHL1    C5  304   0.489   3.945   8.784 -0.4002  0.4861 -0.5474
    5CHL1    C6  305   0.571   4.040   8.736 -0.0993  0.1593 -0.0531
    5CHL1    H6  306   0.620   4.112   8.803  1.6794 -0.6006 -0.4797
    5CHL1    C7  307   0.597   4.057   8.595 -0.4511  0.2147  0.3768
    5CHL1   H7A  308   0.587   4.166   8.577 -0.8713 -0.0467 -1.1650
    5CHL1   H7B  309   0.698   4.015   8.571 -0.6785  0.7338 -1.6359
    5CHL1    C8  310   0.506   3.973   8.498 -0.2172  0.6180  0.3535
    5CHL1    H8  311   0.404   4.018   8.492 -1.2992 -1.6095  0.8910
    5CHL1   C14  312   0.570   3.953   8.361  0.2196 -0.2921 -0.4454
    5CHL1   H14  313   0.661   3.890   8.377 -1.5958 -2.8693  0.4915
    5CHL1   C15  314   0.604   4.081   8.284 -0.6637 -0.7971 -0.3047
    5CHL1  H15A  315   0.519   4.152   8.292  0.4212  0.2897  3.5799
    5CHL1  H15B  316   0.680   4.146   8.333 -2.1688 -0.2951  1.4839
    5CHL1   C16  317   0.619   4.035   8.144 -0.2793  0.0856 -0.6739
    5CHL1  H16A  318   0.560   4.086   8.065 -1.4501 -2.7907 -1.7635
    5CHL1  H16B  319   0.727   4.048   8.120  1.4224 -0.8074  4.9637
    5CHL1   C17  320   0.577   3.887   8.140  0.1053  0.3870 -0.0397
    5CHL1   H17  321   0.677   3.841   8.157  0.9820  2.4023  0.6122
    5CHL1   C13  322   0.488   3.873   8.258 -0.0833  0.0727  0.0388
    5CHL1   C18  323   0.347   3.933   8.228 -0.8336  0.0422  0.6115
    5CHL1  H18A  324   0.303   3.963   8.326  1.0316 -0.3884  1.6312
    5CHL1  H18B  325   0.351   4.025   8.166 -1.4082 -0.6914 -0.5393
    5CHL1  H18C  326   0.289   3.863   8.165  1.7577  0.6481 -2.7176
    5CHL1   C12  327   0.472   3.725   8.323 -0.2133 -0.1520 -0.0509
    5CHL1  H12A  328   0.399   3.666   8.263 -1.9617  2.5849 -0.8151
    5CHL1  H12B  329   0.568   3.670   8.330  0.3784  0.9380  0.5925
    5CHL1   C11  330   0.410   3.731   8.465  0.0277  0.4859 -0.6140
    5CHL1  H11A  331   0.304   3.760   8.452 -0.3194 -1.1247 -1.7625
    5CHL1  H11B  332   0.410   3.629   8.511  2.2906  1.1904  1.1233
    5CHL1    C9  333   0.478   3.832   8.566 -0.3909  1.0753  0.5384
    5CHL1    H9  334   0.581   3.792   8.571 -0.7954  0.0818  1.3090
    5CHL1   C10  335   0.428   3.834   8.702  0.1375 -0.0402  0.4987
    5CHL1   C19  336   0.273   3.862   8.682 -0.8745 -0.3814 -0.8438
    5CHL1  H19A  337   0.225   3.765   8.657 -1.3517 -0.5310  0.5606
    5CHL1  H19B  338   0.235   3.896   8.781 -0.4966 -1.4259 -0.3209
    5CHL1  H19C  339   0.258   3.942   8.607  2.9034  0.0143 -1.3934
    5CHL1    C1  340   0.456   3.698   8.770  0.5069 -0.8818  0.3485
    5CHL1   H1A  341   0.399   3.619   8.716 -1.2196  1.8351 -2.0707
    5CHL1   H1B  342   0.564   3.675   8.768  1.3203  2.2438 -2.9232
    5CHL1    C2  343   0.396   3.691   8.914  0.1296  0.0449 -0.5604
    5CHL1   H2A  344   0.412   3.592   8.961 -0.1468  0.7896  1.1773
    5CHL1   H2B  345   0.286   3.708   8.915  0.0177 -0.7126  0.4888
    5CHL1   C20  346   0.530   3.847   7.998 -0.7360 -0.2776 -0.3159
    5CHL1   H20  347   0.450   3.916   7.966 -0.2384  0.6978  0.4827
    5CHL1   C21  348   0.483   3.707   8.006 -0.1978 -0.1586 -0.3042
    5CHL1  H21A  349   0.380   3.703   8.048  0.2634 -2.3126  0.7229
    5CHL1  H21B  350   0.550   3.648   8.071 -1.1403 -1.9224 -0.8531
    5CHL1  H21C  351   0.465   3.666   7.904  0.4930  3.8874 -2.2815
    5CHL1   C22  352   0.640   3.879   7.893  0.2799 -0.5359 -0.5283
    5CHL1  H22A  353   0.645   3.990   7.888  0.2630 -0.5915 -3.2919
    5CHL1  H22B  354   0.734   3.831   7.927 -1.3701 -2.4229  1.7196
    5CHL1   C23  355   0.611   3.822   7.754 -0.0778 -0.3473 -0.6555
    5CHL1  H23A  356   0.590   3.712   7.757 -0.1155 -0.4069 -2.0864
    5CHL1  H23B  357   0.518   3.867   7.713  0.4545  0.7085 -0.7254
    5CHL1   C24  358   0.721   3.854   7.653  0.2068  0.2355  0.0139
    5CHL1  H24A  359   0.685   3.849   7.548 -0.7028 -0.4427  0.3503
    5CHL1  H24B  360   0.764   3.956   7.668 -0.3694  1.0675 -3.1921
    5CHL1   C25  361   0.848   3.759   7.658  0.0897 -0.6639 -0.1698
    5CHL1   H25  362   0.878   3.738   7.763  0.7179 -0.4666 -0.3029
    5CHL1   C26  363   0.817   3.611   7.611  0.2517  0.2667 -0.4230
    5CHL1  H26A  364   0.766   3.555   7.692 -0.5158  1.6223  0.0607
    5CHL1  H26B  365   0.751   3.618   7.522 -0.5678 -0.4164  0.1238
    5CHL1  H26C  366   0.913   3.567   7.575 -0.6031  0.8985 -3.9264
    5CHL1   C27  367   0.964   3.808   7.568  0.6656  0.1535 -1.0625
    5CHL1  H27A  368   0.987   3.913   7.595  0.3017 -0.1138  0.3588
    5CHL1  H27B  369   1.056   3.745   7.563 -0.4566 -1.6381 -0.4470
    5CHL1  H27C  370   0.923   3.826   7.467 -0.8017  0.9887 -0.3482
    6CHL1    C3  371   2.295   4.844   8.887  0.2566 -0.1569 -0.1556
    6CHL1    H3  372   2.188   4.825   8.863  0.4858 -0.0150 -1.3325
    6CHL1    O3  373   2.312   4.867   9.024 -0.4686 -0.7770 -0.3933
    6CHL1   H3'  374   2.398   4.841   9.056  0.5524  1.0811 -1.4539
    6CHL1    C4  375   2.387   4.730   8.848  0.8663  0.1428  0.2105
    6CHL1   H4A  376   2.488   4.768   8.874  0.2102  0.7257  2.0623
    6CHL1   H4B  377   2.366   4.639   8.908 -0.2925  0.9650  1.1025
    6CHL1    C5  378   2.385   4.706   8.703 -0.1670  1.0265  0.8488
    6CHL1    C6  379   2.356   4.582   8.652  0.4950  0.2625 -0.0322
    6CHL1    H6  380   2.349   4.495   8.719  0.6102  0.3543  0.0995
    6CHL1    C7  381   2.372   4.537   8.509 -0.0086  0.2244  0.1798
    6CHL1   H7A  382   2.447   4.456   8.519  0.4137  0.2723 -2.0930
    6CHL1   H7B  383   2.280   4.491   8.467 -1.8337  0.8672  3.1842
    6CHL1    C8  384   2.442   4.639   8.422 -0.3277 -0.1678  0.0941
    6CHL1    H8  385   2.550   4.615   8.435  0.2120  1.2725 -1.3255
    6CHL1   C14  386   2.407   4.616   8.281 -0.1005 -0.2910 -0.3610
    6CHL1   H14  387   2.298   4.639   8.279 -0.1126 -0.3770 -1.4131
    6CHL1   C15  388   2.443   4.479   8.219  0.7550  0.2213 -0.5400
    6CHL1  H15A  389   2.534   4.437   8.265  1.1545  0.0971 -1.4282
    6CHL1  H15B  390   2.357   4.409   8.227  1.9058 -1.2394 -0.6235
    6CHL1   C16  391   2.460   4.505   8.063  0.3510 -0.7061  0.1645
    6CHL1  H16A  392   2.566   4.478   8.046  0.3114 -0.4901 -0.4554
    6CHL1  H16B  393   2.387   4.445   8.005  0.4949 -0.6813 -0.0434
    6CHL1   C17  394   2.437   4.660   8.050  0.8947 -0.7783  0.8272
    6CHL1   H17  395   2.327   4.668   8.033  1.5113  0.2774 -4.0901
    6CHL1   C13  396   2.460   4.722   8.186 -0.2963 -0.1978  0.4559
    6CHL1   C18  397   2.622   4.715   8.200 -0.0667 -0.7957  0.4067
    6CHL1  H18A  398   2.651   4.609   8.185  0.7484 -0.3882 -1.0041
    6CHL1  H18B  399   2.658   4.796   8.133 -2.9479  0.8411  0.6520
    6CHL1  H18C  400   2.658   4.740   8.302  1.4911  3.1366 -0.9562
    6CHL1   C12  401   2.395   4.859   8.224 -0.4327  0.0996 -0.0986
    6CHL1  H12A  402   2.432   4.941   8.158  1.5987  0.8719  1.8522
    6CHL1  H12B  403   2.285   4.857   8.211 -0.7088 -0.3503  1.9303
    6CHL1   C11  404   2.427   4.886   8.373 -0.4361 -0.6723  0.8459
    6CHL1  H11A  405   2.533   4.920   8.371 -0.6122 -0.0928  1.0740
    6CHL1  H11B  406   2.357   4.970   8.390 -0.6425 -0.2338 -1.7760
    6CHL1    C9  407   2.389   4.774   8.462 -0.0099 -0.3939  0.4378
    6CHL1    H9  408   2.279   4.764   8.454 -0.1901 -0.6395  2.5751
    6CHL1   C10  409   2.418   4.821   8.606 -0.1041 -0.1081 -0.1369
    6CHL1   C19  410   2.569   4.852   8.614  0.0792 -0.2640  0.4198
    6CHL1  H19A  411   2.603   4.861   8.719 -1.6643 -3.3469  1.3865
    6CHL1  H19B  412   2.628   4.772   8.562 -0.0738 -1.2652  1.7343
    6CHL1  H19C  413   2.593   4.948   8.564  0.7581 -0.7215 -0.1727
    6CHL1    C1  414   2.336   4.943   8.648  0.0508  0.4571 -0.0756
    6CHL1   H1A  415   2.374   5.034   8.597 -0.3499 -0.7759 -2.7562
    6CHL1   H1B  416   2.231   4.931   8.612 -0.9364  2.5261  1.8860
    6CHL1    C2  417   2.334   4.964   8.801 -0.0271 -0.8360 -0.4664
    6CHL1   H2A  418   2.264   5.048   8.821  0.3562 -0.3354 -1.1475
    6CHL1   H2B  419   2.439   4.993   8.823 -0.3906  1.2599 -1.1919
    6CHL1   C20  420   2.489   4.724   7.921  0.3567 -0.1942  0.4660
    6CHL1   H20  421   2.490   4.834   7.936  2.2372  0.1007 -1.3215
    6CHL1   C21  422   2.383   4.686   7.808 -0.9144 -0.5367 -0.7068
    6CHL1  H21A  423   2.382   4.575   7.810 -1.4022 -0.5623  2.3688
    6CHL1  H21B  424   2.412   4.725   7.708  1.3005  1.9805  0.7865
    6CHL1  H21C  425   2.278   4.711   7.835 -1.2559 -1.5870 -0.9964
    6CHL1   C22  426   2.634   4.686   7.880 -0.1671 -0.2115 -0.4152
    6CHL1  H22A  427   2.686   4.664   7.975 -4.3436  0.8204  2.4133
    6CHL1  H22B  428   2.631   4.595   7.817 -0.6347 -0.8063  0.4406
    6CHL1   C23  429   2.697   4.804   7.799 -0.4436  0.7714  0.0686
    6CHL1  H23A  430   2.626   4.837   7.721 -0.9118 -2.2716 -0.9539
    6CHL1  H23B  431   2.728   4.885   7.868 -1.2602  2.1221 -1.1096
    6CHL1   C24  432   2.807   4.743   7.709 -0.0089 -0.2616 -0.4909
    6CHL1  H24A  433   2.900   4.729   7.767  0.1865  0.0706 -0.7206
    6CHL1  H24B  434   2.787   4.644   7.662  0.7999 -0.0149 -1.3800
    6CHL1   C25  435   2.851   4.837   7.601 -0.1399 -0.3022  1.0469
    6CHL1   H25  436   2.867   4.938   7.645 -2.8133  0.7151 -0.1580
    6CHL1   C26  437   2.987   4.785   7.555  0.2810 -0.7453  0.3142
    6CHL1  H26A  438   2.975   4.687   7.504  1.7895 -0.4454 -0.6766
    6CHL1  H26B  439   3.021   4.859   7.480  2.8066 -0.9066  1.1781
    6CHL1  H26C  440   3.043   4.784   7.651  0.3555 -0.6922  0.2715
    6CHL1   C27  441   2.769   4.865   7.475  0.0687  0.6319  0.0033
    6CHL1  H27A  442   2.665   4.895   7.498 -0.0889  1.4438 -1.5849
    6CHL1  H27B  443   2.818   4.935   7.403  0.3070  2.1202  1.5513
    6CHL1  H27C  444   2.763   4.769   7.420 -1.3391  1.0046 -0.5219
    7CHL1    C3  445   1.385   2.657   8.916 -0.3616 -0.3628 -0.5041
    7CHL1    H3  446   1.470   2.591   8.891  0.6493  0.0128  1.7121
    7CHL1    O3  447   1.377   2.671   9.059  0.4289  0.0159 -0.1697
    7CHL1   H3'  448   1.440   2.740   9.084  0.0276 -0.4576  2.4226
    7CHL1    C4  449   1.412   2.807   8.866  0.0760  1.0086  0.5460
    7CHL1   H4A  450   1.331   2.872   8.906 -1.4249  0.0047 -0.7578
    7CHL1   H4B  451   1.502   2.838   8.923  0.7142  2.1301 -1.0111
    7CHL1    C5  452   1.419   2.807   8.719  0.0315 -0.1621  0.3469
    7CHL1    C6  453   1.521   2.868   8.656 -0.7935 -0.0127 -0.5156
    7CHL1    H6  454   1.596   2.906   8.726 -2.5634 -1.1386  2.1546
    7CHL1    C7  455   1.546   2.880   8.508  0.0089  0.1422  0.0041
    7CHL1   H7A  456   1.574   2.987   8.499 -1.1231  0.4367 -0.2106
    7CHL1   H7B  457   1.629   2.814   8.476  0.1900  0.4508 -0.1676
    7CHL1    C8  458   1.415   2.847   8.436  0.0489 -0.0063 -0.3290
    7CHL1    H8  459   1.347   2.934   8.439 -2.5556 -1.8960  2.5519
    7CHL1   C14  460   1.448   2.818   8.294 -0.0877  0.0287 -0.0946
    7CHL1   H14  461   1.508   2.724   8.300  2.0290  1.4081  2.2361
    7CHL1   C15  462   1.547   2.919   8.225 -0.0487 -0.5063  0.8647
    7CHL1  H15A  463   1.510   3.022   8.245 -1.0570 -1.4083  4.2446
    7CHL1  H15B  464   1.654   2.911   8.254  0.7787 -3.2145 -2.2920
    7CHL1   C16  465   1.548   2.869   8.078 -0.4332 -0.9067 -0.6274
    7CHL1  H16A  466   1.557   2.958   8.012  1.2569 -0.8232 -0.3316
    7CHL1  H16B  467   1.638   2.806   8.064 -0.7048 -1.3423 -0.4482
    7CHL1   C17  468   1.412   2.786   8.058 -0.1141  0.4833  0.0451
    7CHL1   H17  469   1.456   2.684   8.047  0.9868  0.9335  0.1717
    7CHL1   C13  470   1.335   2.787   8.193 -0.1120  0.1468  0.1850
    7CHL1   C18  471   1.240   2.906   8.198 -0.1400  0.4800 -0.2787
    7CHL1  H18A  472   1.143   2.898   8.145 -1.3399  0.6889  1.7742
    7CHL1  H18B  473   1.200   2.922   8.301 -2.1199  0.7952 -1.0577
    7CHL1  H18C  474   1.293   3.001   8.174 -2.5540  1.8515 -0.4388
    7CHL1   C12  475   1.268   2.657   8.251  0.0048 -0.8449  0.4775
    7CHL1  H12A  476   1.180   2.645   8.184  0.2475  2.1596 -0.5235
    7CHL1  H12B  477   1.334   2.568   8.244 -0.7456 -1.2726 -2.5265
    7CHL1   C11  478   1.227   2.682   8.400 -0.1864 -0.0258  0.1491
    7CHL1  H11A  479   1.148   2.759   8.394  1.3889  1.6638  0.4198
    7CHL1  H11B  480   1.185   2.585   8.436 -0.3192 -1.0128 -2.4197
    7CHL1    C9  481   1.336   2.727   8.500 -0.7061 -1.4411  0.1093
    7CHL1    H9  482   1.418   2.651   8.500 -0.9355 -1.7547 -2.1788
    7CHL1   C10  483   1.296   2.754   8.645 -0.3890  0.4123  0.9870
    7CHL1   C19  484   1.187   2.860   8.662 -0.3001  0.3074  0.8907
    7CHL1  H19A  485   1.151   2.884   8.765 -0.7416 -1.6256  1.2266
    7CHL1  H19B  486   1.229   2.955   8.622 -0.3149 -0.0415  0.0344
    7CHL1  H19C  487   1.104   2.834   8.593 -1.5917 -1.8771  3.1195
    7CHL1    C1  488   1.242   2.620   8.703 -0.5132 -0.3959 -0.3890
    7CHL1   H1A  489   1.143   2.591   8.661 -0.6298  1.7284 -1.7205
    7CHL1   H1B  490   1.317   2.547   8.666 -1.4821 -0.3896 -2.4906
    7CHL1    C2  491   1.248   2.605   8.854 -0.4950 -0.7604 -0.5465
    7CHL1   H2A  492   1.236   2.503   8.897 -0.6366 -0.3089  0.5317
    7CHL1   H2B  493   1.174   2.673   8.902  1.3616  1.2939 -0.4311
    7CHL1   C20  494   1.342   2.836   7.926 -0.3779  0.4926  0.8819
    7CHL1   H20  495   1.302   2.939   7.931  0.9956  1.1593 -0.9959
    7CHL1   C21  496   1.220   2.734   7.917 -0.6146 -0.6868 -0.4162
    7CHL1  H21A  497   1.139   2.746   7.992 -0.6061  0.5853 -0.5929
    7CHL1  H21B  498   1.251   2.627   7.914  0.8967 -0.2717 -0.8512
    7CHL1  H21C  499   1.171   2.754   7.820  2.3557 -0.1003 -1.9288
    7CHL1   C22  500   1.423   2.818   7.791  0.2765 -0.3434 -0.3940
    7CHL1  H22A  501   1.523   2.867   7.791  0.9038 -1.5997 -0.2385
    7CHL1  H22B  502   1.438   2.708   7.785 -0.6429 -0.5979  1.4025
    7CHL1   C23  503   1.344   2.861   7.664  0.1614 -0.3090  0.1644
    7CHL1  H23A  504   1.246   2.809   7.668 -0.1799  0.3961  1.3484
    7CHL1  H23B  505   1.326   2.970   7.668 -2.8957 -0.7790  1.4637
    7CHL1   C24  506   1.424   2.811   7.536 -0.1603  0.6075 -0.2794
    7CHL1  H24A  507   1.359   2.842   7.452 -0.5578 -0.4963 -0.3976
    7CHL1  H24B  508   1.516   2.870   7.516  0.6762 -0.8291 -0.7828
    7CHL1   C25  509   1.445   2.655   7.525 -0.2350  0.1351 -0.1964
    7CHL1   H25  510   1.500   2.622   7.616  0.0844  0.4317 -0.2791
    7CHL1   C26  511   1.315   2.587   7.522  0.4350  0.4474 -0.3535
    7CHL1  H26A  512   1.323   2.477   7.505  1.3163  0.6095 -1.0480
    7CHL1  H26B  513   1.248   2.592   7.610  0.8142 -0.4244 -0.0016
    7CHL1  H26C  514   1.265   2.627   7.431 -0.1026  0.5471 -0.0230
    7CHL1   C27  515   1.538   2.613   7.408  0.1443 -0.0247  0.1028
    7CHL1  H27A  516   1.475   2.606   7.317  0.9439  0.0940 -0.4666
    7CHL1  H27B  517   1.628   2.678   7.406  0.1416  0.1506  2.5120
    7CHL1  H27C  518   1.577   2.510   7.426 -0.2918 -0.3949 -1.0099
    8CHL1    C3  519   1.022   3.717   8.925  0.2258 -0.1102  1.4690
    8CHL1    H3  520   1.113   3.653   8.930  1.2726  0.7211 -2.8605
    8CHL1    O3  521   0.963   3.733   9.047  0.4412  0.0559 -0.5309
    8CHL1   H3'  522   0.879   3.776   9.034  0.4758  0.1373 -0.4883
    8CHL1    C4  523   1.062   3.855   8.868  0.4092  0.3920  0.3058
    8CHL1   H4A  524   0.973   3.921   8.880 -0.2595 -0.7763  2.3601
    8CHL1   H4B  525   1.135   3.904   8.936  1.5323 -0.5244 -0.2017
    8CHL1    C5  526   1.126   3.846   8.732 -0.3231  0.6245 -0.0816
    8CHL1    C6  527   1.243   3.896   8.695  0.0098  0.6679 -0.9154
    8CHL1    H6  528   1.296   3.949   8.775  0.7611 -0.3874 -0.6772
    8CHL1    C7  529   1.294   3.901   8.554 -0.1143 -0.0672 -0.3341
    8CHL1   H7A  530   1.327   4.004   8.530 -0.8297  0.1637 -0.3433
    8CHL1   H7B  531   1.389   3.843   8.546 -0.8160 -1.3617  0.3475
    8CHL1    C8  532   1.190   3.848   8.450 -0.2171  0.2308 -0.1760
    8CHL1    H8  533   1.129   3.940   8.443  1.3135  1.2918 -0.1556
    8CHL1   C14  534   1.253   3.818   8.319  0.6341 -0.0817  0.3461
    8CHL1   H14  535   1.312   3.728   8.345 -0.0573 -0.7558 -0.3520
    8CHL1   C15  536   1.353   3.912   8.256  0.2216 -0.0193 -0.3806
    8CHL1  H15A  537   1.312   4.015   8.261 -0.2843 -0.1468 -1.5900
    8CHL1  H15B  538   1.455   3.913   8.300  0.3674 -1.9857 -0.5728
    8CHL1   C16  539   1.358   3.870   8.108 -0.1547 -0.2359 -0.2841
    8CHL1  H16A  540   1.323   3.956   8.046  0.6530 -1.9155 -3.2607
    8CHL1  H16B  541   1.462   3.844   8.077 -0.6104 -0.0051 -2.1452
    8CHL1   C17  542   1.263   3.755   8.101  0.4941  0.6229 -0.1869
    8CHL1   H17  543   1.326   3.667   8.128 -0.2331  0.2763  0.4198
    8CHL1   C13  544   1.158   3.764   8.215  0.6193 -0.2131  0.0820
    8CHL1   C18  545   1.047   3.878   8.187 -0.1478  0.2269 -0.0045
    8CHL1  H18A  546   0.994   3.899   8.282 -0.2867  0.4111 -0.1227
    8CHL1  H18B  547   1.094   3.965   8.136 -0.3028 -0.3685 -1.1961
    8CHL1  H18C  548   0.973   3.828   8.120  0.5284 -4.1221  2.1126
    8CHL1   C12  549   1.103   3.635   8.273  0.1962 -0.1839 -0.4391
    8CHL1  H12A  550   1.045   3.581   8.195  1.4001  1.3585 -2.4887
    8CHL1  H12B  551   1.194   3.571   8.282  0.8573  0.7561 -0.3635
    8CHL1   C11  552   1.027   3.648   8.404 -0.3679  0.0990 -0.1921
    8CHL1  H11A  553   0.930   3.697   8.378  0.3065  1.4337 -0.3151
    8CHL1  H11B  554   1.014   3.542   8.434  0.1132 -0.0001 -0.3213
    8CHL1    C9  555   1.114   3.727   8.505 -0.2790 -0.0760 -0.3057
    8CHL1    H9  556   1.187   3.653   8.544 -2.5774 -2.1201  0.4420
    8CHL1   C10  557   1.037   3.768   8.632  0.8694 -0.2509 -0.3819
    8CHL1   C19  558   0.923   3.865   8.597  0.1503 -0.2271 -0.0385
    8CHL1  H19A  559   0.845   3.827   8.527  0.6504  1.4949 -1.6460
    8CHL1  H19B  560   0.873   3.887   8.694  2.5575  2.3197  0.7723
    8CHL1  H19C  561   0.958   3.960   8.550 -0.5551  0.9385  1.6808
    8CHL1    C1  562   0.972   3.632   8.687 -0.4345 -1.6237 -0.6188
    8CHL1   H1A  563   0.889   3.594   8.624  0.0813 -3.2791 -0.3425
    8CHL1   H1B  564   1.050   3.553   8.687  0.0399 -1.1882  0.6682
    8CHL1    C2  565   0.914   3.661   8.833  0.3327  0.5883 -0.1911
    8CHL1   H2A  566   0.884   3.563   8.875 -0.7747  2.2601  3.3305
    8CHL1   H2B  567   0.821   3.721   8.826 -0.5049 -0.6472  0.0481
    8CHL1   C20  568   1.206   3.731   7.961  0.3567  0.2137  0.2967
    8CHL1   H20  569   1.124   3.795   7.922  1.0462  0.0106 -1.5995
    8CHL1   C21  570   1.147   3.587   7.958 -0.5354 -0.9427 -0.0236
    8CHL1  H21A  571   1.199   3.532   8.039  1.3573  1.5781  0.6010
    8CHL1  H21B  572   1.166   3.536   7.861 -0.7321 -1.2767  0.1131
    8CHL1  H21C  573   1.042   3.589   7.993  0.1210  1.2720  2.0557
    8CHL1   C22  574   1.327   3.756   7.855  0.2434  0.1633  0.5734
    8CHL1  H22A  575   1.361   3.860   7.878 -0.8030  0.4642  0.8323
    8CHL1  H22B  576   1.403   3.677   7.876 -1.3937 -2.2129 -1.8403
    8CHL1   C23  577   1.291   3.755   7.705  1.1332  0.7638 -0.1119
    8CHL1  H23A  578   1.252   3.652   7.691  1.2078  0.6876  0.2374
    8CHL1  H23B  579   1.206   3.825   7.687 -0.9115 -1.5087  0.1420
    8CHL1   C24  580   1.403   3.792   7.617 -0.5329  0.5784  0.2425
    8CHL1  H24A  581   1.500   3.810   7.668 -0.0364  0.2982 -0.5828
    8CHL1  H24B  582   1.417   3.709   7.545 -2.2521  0.6394 -0.1983
    8CHL1   C25  583   1.386   3.913   7.515  0.5402  0.0276 -0.1298
    8CHL1   H25  584   1.291   3.891   7.462  1.3047 -0.9045 -1.1554
    8CHL1   C26  585   1.368   4.049   7.580  0.3813  0.2877 -0.5960
    8CHL1  H26A  586   1.455   4.063   7.647 -0.4277 -0.7484  0.7401
    8CHL1  H26B  587   1.365   4.134   7.509  0.3215  1.5432  0.8798
    8CHL1  H26C  588   1.272   4.033   7.633  0.1169 -2.7973 -1.7989
    8CHL1   C27  589   1.501   3.906   7.414 -0.1372 -0.4699 -0.5326
    8CHL1  H27A  590   1.524   3.804   7.376  0.8163 -1.1741  1.7478
    8CHL1  H27B  591   1.476   3.961   7.321 -0.2670  0.6589  0.1535
    8CHL1  H27C  592   1.597   3.940   7.458 -0.3797 -0.5573  0.0865
    9CHL1    C3  593   3.683   3.789   8.847 -0.3182 -0.0119 -0.4016
    9CHL1    H3  594   3.654   3.685   8.819  1.0182 -1.2488  2.4260
    9CHL1    O3  595   3.676   3.804   8.987  0.1415 -0.5990  0.0334
    9CHL1   H3'  596   3.717   3.727   9.028  0.0519  0.6995  2.7579
    9CHL1    C4  597   3.824   3.820   8.801  0.0397 -0.1198  0.4855
    9CHL1   H4A  598   3.843   3.925   8.833 -0.9002  0.0521  0.5181
    9CHL1   H4B  599   3.892   3.742   8.841 -0.5718 -1.9283 -1.7782
    9CHL1    C5  600   3.852   3.814   8.650  0.7602 -0.5621  0.4109
    9CHL1    C6  601   3.940   3.731   8.596 -0.4035 -0.4008  0.1019
    9CHL1    H6  602   4.007   3.672   8.660 -1.1398  2.5855  4.0957
    9CHL1    C7  603   3.958   3.713   8.446 -0.2748 -0.2819 -0.4283
    9CHL1   H7A  604   4.065   3.706   8.418  0.1754 -0.2245  1.1859
    9CHL1   H7B  605   3.905   3.619   8.418 -0.2784 -0.7020  0.9357
    9CHL1    C8  606   3.887   3.827   8.364 -0.3932 -0.1626  0.3609
    9CHL1    H8  607   3.950   3.919   8.370 -0.3935 -0.0395 -1.0908
    9CHL1   C14  608   3.872   3.783   8.216 -0.4755  0.5461 -0.2460
    9CHL1   H14  609   3.804   3.696   8.213 -0.3237  0.4333 -0.4811
    9CHL1   C15  610   4.000   3.727   8.135 -0.1137  0.3965 -1.0133
    9CHL1  H15A  611   4.091   3.781   8.169  0.5257 -0.8011 -0.7663
    9CHL1  H15B  612   4.005   3.617   8.149 -1.7473  0.1184 -2.3036
    9CHL1   C16  613   3.972   3.753   7.985 -0.5669 -0.3132  0.2543
    9CHL1  H16A  614   4.049   3.821   7.944  1.3419 -1.2762  2.0565
    9CHL1  H16B  615   3.981   3.660   7.926  3.3541  0.2152 -0.2188
    9CHL1   C17  616   3.827   3.817   7.984  0.2131  1.1638  0.0672
    9CHL1   H17  617   3.765   3.725   7.971  2.5046 -0.6551  1.2582
    9CHL1   C13  618   3.805   3.878   8.118 -0.2433 -0.9422  0.2083
    9CHL1   C18  619   3.876   4.024   8.123 -0.2330  0.0521 -0.5139
    9CHL1  H18A  620   3.881   4.061   8.227 -0.0251  2.2604 -1.2527
    9CHL1  H18B  621   3.981   4.017   8.086 -0.5911 -0.4722 -1.4755
    9CHL1  H18C  622   3.816   4.095   8.062  0.1023  1.9568  1.2869
    9CHL1   C12  623   3.658   3.892   8.173 -0.1150  0.7659  0.0594
    9CHL1  H12A  624   3.601   3.967   8.115 -1.4372 -0.4396 -0.2499
    9CHL1  H12B  625   3.611   3.792   8.157 -0.3069  0.8260  0.2521
    9CHL1   C11  626   3.657   3.933   8.324 -0.2231  0.0729  0.0451
    9CHL1  H11A  627   3.692   4.039   8.321  0.4365 -0.0520  2.0011
    9CHL1  H11B  628   3.552   3.928   8.358 -0.5496 -0.6737 -1.0066
    9CHL1    C9  629   3.747   3.850   8.421  0.1788 -0.6594  0.2809
    9CHL1    H9  630   3.702   3.748   8.423 -0.3722 -0.4100  1.8615
    9CHL1   C10  631   3.744   3.890   8.567 -0.0778 -0.6507 -0.0567
    9CHL1   C19  632   3.781   4.043   8.577 -0.2927  0.2240 -0.3595
    9CHL1  H19A  633   3.709   4.100   8.514  0.0377  1.1424  0.0819
    9CHL1  H19B  634   3.780   4.075   8.683 -0.4744  2.8513 -1.0840
    9CHL1  H19C  635   3.885   4.053   8.536 -0.3318  1.0593 -0.2566
    9CHL1    C1  636   3.603   3.888   8.631  0.3651  0.0192 -0.6913
    9CHL1   H1A  637   3.541   3.971   8.590  0.5464 -0.8013 -2.7854
    9CHL1   H1B  638   3.553   3.797   8.591  0.7966 -0.3918 -0.3104
    9CHL1    C2  639   3.589   3.895   8.781 -0.1989  0.1219 -0.4342
    9CHL1   H2A  640   3.482   3.876   8.803 -0.4993  1.3112 -0.7640
    9CHL1   H2B  641   3.616   3.999   8.811 -1.0587 -0.3905  2.4434
    9CHL1   C20  642   3.802   3.900   7.858 -1.1014  0.5826  0.4101
    9CHL1   H20  643   3.842   4.004   7.862 -0.5276  0.4755 -1.3101
    9CHL1   C21  644   3.650   3.917   7.836 -1.0606 -0.7145 -0.6131
    9CHL1  H21A  645   3.604   3.816   7.836 -0.7749 -0.9010  1.5227
    9CHL1  H21B  646   3.621   3.953   7.736 -1.0846 -2.5714 -1.3239
    9CHL1  H21C  647   3.598   3.986   7.905 -0.8111 -1.1409  0.0153
    9CHL1   C22  648   3.871   3.845   7.733 -0.1035 -0.4686  0.0669
    9CHL1  H22A  649   3.980   3.845   7.749 -0.0339  1.8453 -0.0470
    9CHL1  H22B  650   3.852   3.737   7.717  1.7536 -0.6185 -1.4824
    9CHL1   C23  651   3.839   3.925   7.603 -0.3443 -0.0422 -0.0012
    9CHL1  H23A  652   3.736   3.907   7.567  0.0235  0.1465 -1.1897
    9CHL1  H23B  653   3.848   4.034   7.623 -1.5714 -0.1120  1.0843
    9CHL1   C24  654   3.949   3.906   7.494  0.4004 -0.6855 -0.8205
    9CHL1  H24A  655   4.049   3.893   7.540  0.6097 -0.1390 -1.1003
    9CHL1  H24B  656   3.920   3.813   7.442  0.1608  0.4830 -2.9088
    9CHL1   C25  657   3.968   4.022   7.393  0.0437 -0.1327 -0.3059
    9CHL1   H25  658   3.971   4.113   7.457 -3.6986 -1.2695  1.8052
    9CHL1   C26  659   4.088   3.992   7.300  0.0741  0.0475 -0.2879
    9CHL1  H26A  660   4.075   4.065   7.217 -0.1153 -0.6709 -0.9074
    9CHL1  H26B  661   4.181   3.996   7.359 -0.0107  1.5391 -0.2152
    9CHL1  H26C  662   4.066   3.894   7.253 -2.8687  0.7220 -0.5503
    9CHL1   C27  663   3.841   4.031   7.314 -0.6031 -0.3242  0.5718
    9CHL1  H27A  664   3.862   4.083   7.218  1.8093 -1.3491  0.4674
    9CHL1  H27B  665   3.807   3.932   7.277  1.1873  0.1470 -2.7322
    9CHL1  H27C  666   3.756   4.076   7.370 -0.3686 -0.0080  0.6824
   10CHL1    C3  667   1.756   6.563   8.772  0.0967 -0.6918  0.4457
   10CHL1    H3  668   1.767   6.455   8.797 -1.9812 -0.7237  1.4893
   10CHL1    O3  669   1.724   6.628   8.897 -1.3125  0.3304  0.2900
   10CHL1   H3'  670   1.767   6.565   8.956 -0.1387 -0.9363 -1.7943
   10CHL1    C4  671   1.888   6.617   8.726 -0.6179  0.1332 -0.0061
   10CHL1   H4A  672   1.900   6.723   8.699  1.1519 -0.2169 -0.7332
   10CHL1   H4B  673   1.966   6.614   8.806 -1.3831  4.4942  1.1671
   10CHL1    C5  674   1.920   6.543   8.594 -0.1285 -0.2281  0.1263
   10CHL1    C6  675   2.034   6.471   8.582  0.5068 -0.2733 -0.3445
   10CHL1    H6  676   2.098   6.487   8.670 -0.4900 -0.5180  0.4339
   10CHL1    C7  677   2.075   6.417   8.450 -0.2650  0.0604  0.4305
   10CHL1   H7A  678   2.184   6.435   8.439 -0.4376 -0.0813 -2.0872
   10CHL1   H7B  679   2.057   6.307   8.456  0.1029 -0.0151  0.1680
   10CHL1    C8  680   2.003   6.476   8.327  0.9195  0.1978 -0.6004
   10CHL1    H8  681   2.048   6.575   8.305  1.1870  0.1995 -0.0765
   10CHL1   C14  682   2.025   6.393   8.206 -0.3079 -0.6600 -0.3054
   10CHL1   H14  683   1.983   6.293   8.232  0.5689 -0.5238  1.8293
   10CHL1   C15  684   2.172   6.368   8.175  0.5605 -0.0565 -0.6411
   10CHL1  H15A  685   2.246   6.451   8.164 -0.1440  0.4171 -2.1189
   10CHL1  H15B  686   2.220   6.291   8.239 -0.9696 -0.8012 -0.3267
   10CHL1   C16  687   2.161   6.311   8.030  0.3663 -0.7757  0.1400
   10CHL1  H16A  688   2.241   6.363   7.974  0.2248  1.9094  2.2441
   10CHL1  H16B  689   2.178   6.201   8.029 -0.2467 -0.8767  0.3477
   10CHL1   C17  690   2.016   6.338   7.983 -0.2519  0.1329 -0.2054
   10CHL1   H17  691   1.968   6.243   8.014 -0.1587  0.7596  2.0466
   10CHL1   C13  692   1.960   6.443   8.079 -0.6737 -0.1050  0.0439
   10CHL1   C18  693   2.018   6.588   8.044  0.7107  0.6839 -0.7749
   10CHL1  H18A  694   2.129   6.583   8.042  0.6498 -2.2622 -0.9491
   10CHL1  H18B  695   1.980   6.626   7.946 -2.1033 -1.7048 -0.7389
   10CHL1  H18C  696   1.985   6.659   8.123 -0.8481  0.6932 -1.3981
   10CHL1   C12  697   1.807   6.444   8.101  0.1091  0.1830 -0.3349
   10CHL1  H12A  698   1.756   6.492   8.015 -0.1202  3.4716  1.4807
   10CHL1  H12B  699   1.778   6.337   8.109  1.3486 -0.1122  0.4458
   10CHL1   C11  700   1.766   6.528   8.224 -0.6341 -0.7515 -0.6957
   10CHL1  H11A  701   1.787   6.634   8.197 -0.9014  0.8207  4.2644
   10CHL1  H11B  702   1.660   6.512   8.253 -0.0929 -0.9686  1.3383
   10CHL1    C9  703   1.850   6.479   8.346  0.6839 -0.1778 -0.4638
   10CHL1    H9  704   1.815   6.374   8.361  0.7745 -0.1995 -0.3985
   10CHL1   C10  705   1.817   6.560   8.479 -0.0510  0.1178 -0.1988
   10CHL1   C19  706   1.821   6.710   8.447 -0.2224 -0.2584 -0.5785
   10CHL1  H19A  707   1.795   6.767   8.538  3.3161 -1.3202  1.2799
   10CHL1  H19B  708   1.914   6.764   8.419  0.7580 -2.3282 -1.5564
   10CHL1  H19C  709   1.733   6.736   8.384 -1.4208  0.6120  1.3815
   10CHL1    C1  710   1.681   6.515   8.533  0.3676  0.2121 -0.3755
   10CHL1   H1A  711   1.600   6.536   8.459 -0.2690 -0.8628 -0.0011
   10CHL1   H1B  712   1.684   6.404   8.540 -0.0208  0.2291  0.0914
   10CHL1    C2  713   1.643   6.581   8.669 -0.2665  0.4882  0.2733
   10CHL1   H2A  714   1.549   6.528   8.694 -0.4843 -0.1956 -1.8145
   10CHL1   H2B  715   1.620   6.687   8.650  0.0025  0.3540 -0.8527
   10CHL1   C20  716   1.982   6.347   7.833 -0.4904 -0.3581 -0.0899
   10CHL1   H20  717   1.877   6.378   7.817 -0.4839  1.5836  2.8537
   10CHL1   C21  718   1.993   6.205   7.782  0.2473  0.1883  0.4201
   10CHL1  H21A  719   1.915   6.138   7.824 -2.9321  2.6136 -1.1509
   10CHL1  H21B  720   2.096   6.167   7.802  0.7721  2.0502  1.5032
   10CHL1  H21C  721   1.984   6.194   7.672  0.3115 -0.2985  0.4620
   10CHL1   C22  722   2.079   6.433   7.740  0.3194 -0.4764 -0.7285
   10CHL1  H22A  723   2.122   6.528   7.781 -1.2386  0.1985 -0.6118
   10CHL1  H22B  724   2.174   6.380   7.716  1.7369  2.3031 -1.8105
   10CHL1   C23  725   2.020   6.467   7.606 -0.6430 -0.3646  0.6350
   10CHL1  H23A  726   1.995   6.383   7.537 -1.6882 -0.1663  0.7488
   10CHL1  H23B  727   1.922   6.516   7.626 -1.6139 -1.6447 -0.7984
   10CHL1   C24  728   2.125   6.556   7.535 -0.5209  0.4039  0.4885
   10CHL1  H24A  729   2.143   6.644   7.601 -3.9642  0.2049  1.9030
   10CHL1  H24B  730   2.226   6.512   7.526 -0.5612  0.0349  1.6792
   10CHL1   C25  731   2.079   6.622   7.400 -0.0896  0.6366  0.2919
   10CHL1   H25  732   2.083   6.541   7.324 -2.5293 -0.0027  0.7478
   10CHL1   C26  733   1.941   6.681   7.403 -0.3842  0.0122 -0.1741
   10CHL1  H26A  734   1.864   6.610   7.366 -0.3526  0.5216 -1.2510
   10CHL1  H26B  735   1.903   6.720   7.500 -2.7160 -0.2466 -0.9279
   10CHL1  H26C  736   1.942   6.765   7.330  0.1213  0.5203  0.4012
   10CHL1   C27  737   2.200   6.728   7.372  0.7427  0.0162  0.2448
   10CHL1  H27A  738   2.192   6.809   7.448 -0.5544 -1.0706  1.3294
   10CHL1  H27B  739   2.298   6.677   7.371  0.8369  0.2022  0.0390
   10CHL1  H27C  740   2.191   6.772   7.271  1.9123 -0.4980 -0.0965
   11CHL1    C3  741   6.573   3.494   8.931 -0.3916 -0.2217 -0.0204
   11CHL1    H3  742   6.473   3.529   8.896 -0.9180 -1.8044 -0.2131
   11CHL1    O3  743   6.578   3.473   9.073 -0.0330 -0.3916  0.6866
   11CHL1   H3'  744   6.669   3.487   9.097 -0.1812  1.0548  0.4766
   11CHL1    C4  745   6.608   3.355   8.864 -0.2218 -0.2409 -0.5337
   11CHL1   H4A  746   6.703   3.320   8.910 -0.3160  0.3296  0.1151
   11CHL1   H4B  747   6.534   3.278   8.893  0.0022 -0.7849 -1.3836
   11CHL1    C5  748   6.625   3.373   8.717 -0.0499  0.0054  0.2408
   11CHL1    C6  749   6.553   3.298   8.628 -1.5208  0.0950 -0.6005
   11CHL1    H6  750   6.481   3.224   8.666  0.8940 -1.9952  0.1770
   11CHL1    C7  751   6.573   3.302   8.484 -0.0792 -0.4811  0.3765
   11CHL1   H7A  752   6.589   3.197   8.452 -0.4070 -0.6271  0.6846
   11CHL1   H7B  753   6.476   3.331   8.437 -0.6373 -2.2766  0.3706
   11CHL1    C8  754   6.694   3.387   8.427  1.3160  0.0615  0.1315
   11CHL1    H8  755   6.785   3.324   8.441  2.6305  1.8482 -0.0058
   11CHL1   C14  756   6.676   3.428   8.286 -0.3704 -0.2234 -0.1802
   11CHL1   H14  757   6.585   3.491   8.291 -1.3583 -1.5814 -0.3881
   11CHL1   C15  758   6.641   3.320   8.179  0.1475 -0.3703 -0.2208
   11CHL1  H15A  759   6.714   3.238   8.198  2.4946  1.4733 -0.7770
   11CHL1  H15B  760   6.542   3.271   8.187  0.0324  0.0026  0.8970
   11CHL1   C16  761   6.670   3.385   8.042  0.3518  0.5958 -0.3102
   11CHL1  H16A  762   6.718   3.307   7.981 -0.8223 -0.0331 -0.4606
   11CHL1  H16B  763   6.572   3.414   7.998 -1.3031 -1.1030  1.9602
   11CHL1   C17  764   6.742   3.518   8.077 -0.6236  0.2413 -0.4114
   11CHL1   H17  765   6.663   3.595   8.086 -1.2921 -0.4801  0.0153
   11CHL1   C13  766   6.791   3.504   8.225 -0.2368 -0.2352 -0.4225
   11CHL1   C18  767   6.924   3.417   8.225  0.0478 -0.8752 -0.2780
   11CHL1  H18A  768   6.901   3.330   8.159 -2.6399 -1.1213  0.8726
   11CHL1  H18B  769   7.005   3.483   8.187 -1.3701  1.0963  0.0221
   11CHL1  H18C  770   6.949   3.376   8.325 -2.5051  1.6141  1.5456
   11CHL1   C12  771   6.817   3.629   8.308  0.3749  0.2795 -0.4581
   11CHL1  H12A  772   6.907   3.690   8.284 -0.8574  1.3866 -2.6252
   11CHL1  H12B  773   6.734   3.703   8.297 -0.3699 -0.6070 -0.8971
   11CHL1   C11  774   6.835   3.593   8.458 -0.0337  0.4790  0.5129
   11CHL1  H11A  775   6.927   3.531   8.466  0.9628  2.0308  1.7266
   11CHL1  H11B  776   6.853   3.687   8.516  2.4091  0.2993  0.1527
   11CHL1    C9  777   6.721   3.513   8.516 -0.6148  0.2139  0.4829
   11CHL1    H9  778   6.630   3.575   8.497  0.9619  2.3719 -0.5344
   11CHL1   C10  779   6.727   3.475   8.667 -0.5339 -0.0459 -0.8838
   11CHL1   C19  780   6.871   3.423   8.705 -0.1068  0.6226 -0.1607
   11CHL1  H19A  781   6.951   3.498   8.684  3.0663 -2.6945 -1.0335
   11CHL1  H19B  782   6.873   3.395   8.813  1.1554  0.3182 -0.2433
   11CHL1  H19C  783   6.904   3.336   8.646 -0.8909  0.0869  0.1728
   11CHL1    C1  784   6.689   3.607   8.744  0.4963 -0.5501  0.0305
   11CHL1   H1A  785   6.764   3.686   8.723 -0.5619 -0.1483 -2.5633
   11CHL1   H1B  786   6.586   3.640   8.719  0.7806 -0.5500 -1.1834
   11CHL1    C2  787   6.686   3.592   8.898  0.0219  0.1046  0.5563
   11CHL1   H2A  788   6.668   3.696   8.932  0.5647  0.6316 -0.7103
   11CHL1   H2B  789   6.779   3.553   8.945 -1.0753 -1.7676  1.2627
   11CHL1   C20  790   6.833   3.574   7.971 -0.0885  0.4280 -0.0015
   11CHL1   H20  791   6.903   3.648   8.016  1.6576 -2.1124  1.6583
   11CHL1   C21  792   6.743   3.659   7.877 -0.1803 -0.6154  0.6082
   11CHL1  H21A  793   6.670   3.712   7.941 -0.0071  0.7337 -0.2569
   11CHL1  H21B  794   6.675   3.593   7.819 -0.5226 -1.4868  1.9834
   11CHL1  H21C  795   6.806   3.721   7.809  0.0741 -2.8896 -1.3840
   11CHL1   C22  796   6.914   3.475   7.882  0.0759 -0.1686  0.0491
   11CHL1  H22A  797   6.995   3.423   7.937  0.9950  0.5507 -0.5815
   11CHL1  H22B  798   6.851   3.402   7.829 -0.7512  1.7615 -1.7746
   11CHL1   C23  799   6.992   3.531   7.757 -1.1081 -0.5877  0.0455
   11CHL1  H23A  800   6.926   3.577   7.680 -1.2168  0.2357  0.6160
   11CHL1  H23B  801   7.067   3.611   7.776 -1.2065 -0.2742 -0.8390
   11CHL1   C24  802   7.070   3.414   7.684 -0.2499 -0.4589  0.6247
   11CHL1  H24A  803   7.125   3.351   7.756  1.7008  0.1483 -0.2681
   11CHL1  H24B  804   6.992   3.351   7.636  0.4570 -1.7409  1.1061
   11CHL1   C25  805   7.168   3.445   7.568 -0.3479 -0.8877  0.6603
   11CHL1   H25  806   7.250   3.500   7.618  0.8733 -2.8493  0.9476
   11CHL1   C26  807   7.232   3.323   7.504 -0.7682  0.0562  0.7012
   11CHL1  H26A  808   7.319   3.350   7.441 -1.5473 -1.0210 -0.9223
   11CHL1  H26B  809   7.276   3.255   7.580 -1.0494 -1.1791 -0.2088
   11CHL1  H26C  810   7.153   3.262   7.455 -2.0013  1.9511  0.2132
   11CHL1   C27  811   7.110   3.535   7.452 -0.0796 -0.2819  0.6030
   11CHL1  H27A  812   7.193   3.574   7.388  0.7090 -0.0069  1.7666
   11CHL1  H27B  813   7.038   3.475   7.393  0.2846  0.7133 -0.9271
   11CHL1  H27C  814   7.066   3.627   7.496  2.4911  1.3385  0.0172
   12CHL1    C3  815   0.313   2.137   0.326 -0.2558  0.1860  0.6241
   12CHL1    H3  816   0.214   2.087   0.326 -0.7171  1.0636  1.0709
   12CHL1    O3  817   0.348   2.175   0.457  0.3871 -0.4998  0.2844
   12CHL1   H3'  818   0.441   2.195   0.452  0.0732  1.0439  0.0293
   12CHL1    C4  819   0.427   2.040   0.279  0.5508  0.9982  0.5114
   12CHL1   H4A  820   0.526   2.062   0.325  0.3833 -1.2403  2.1604
   12CHL1   H4B  821   0.408   1.952   0.345  1.7750  0.3442  0.0183
   12CHL1    C5  822   0.432   2.017   0.129  0.7646  0.0801  0.3037
   12CHL1    C6  823   0.426   1.896   0.078  0.0281 -0.1603  0.2209
   12CHL1    H6  824   0.432   1.809   0.145 -0.9671  0.1606  0.7605
   12CHL1    C7  825   0.434   1.875  -0.070 -0.1430 -0.4485  0.4085
   12CHL1   H7A  826   0.493   1.782  -0.085  0.0387 -0.1766 -0.5895
   12CHL1   H7B  827   0.335   1.855  -0.117  0.2221  3.1083 -2.2230
   12CHL1    C8  828   0.480   1.997  -0.154 -0.3993  0.2939 -0.1169
   12CHL1    H8  829   0.589   2.013  -0.141 -0.2205  0.7953 -1.9524
   12CHL1   C14  830   0.447   1.973  -0.298 -0.2674 -0.2075 -0.1023
   12CHL1   H14  831   0.337   1.972  -0.307 -0.1828  0.1173 -1.2990
   12CHL1   C15  832   0.488   1.839  -0.352  0.6196  0.2930  0.1295
   12CHL1  H15A  833   0.590   1.820  -0.313  0.7140  1.5645  0.5592
   12CHL1  H15B  834   0.415   1.762  -0.321 -1.5712  2.4905  0.8122
   12CHL1   C16  835   0.505   1.861  -0.502 -0.2851  0.5373 -0.2722
   12CHL1  H16A  836   0.608   1.845  -0.541 -1.2182  0.6359 -2.9802
   12CHL1  H16B  837   0.448   1.791  -0.567 -1.2746 -1.4512  2.5043
   12CHL1   C17  838   0.458   2.006  -0.530 -0.4627  0.8058  0.3138
   12CHL1   H17  839   0.348   2.001  -0.542 -0.3491  0.9275 -0.8719
   12CHL1   C13  840   0.497   2.071  -0.397 -0.1423 -0.3101  0.6550
   12CHL1   C18  841   0.645   2.092  -0.389  0.3735  0.7639  0.3861
   12CHL1  H18A  842   0.675   2.129  -0.288  2.3628 -2.1634  0.9852
   12CHL1  H18B  843   0.695   1.994  -0.400  2.5807  1.6165  1.8985
   12CHL1  H18C  844   0.681   2.156  -0.472  1.7193 -2.5042 -1.7450
   12CHL1   C12  845   0.427   2.205  -0.362  0.2986 -1.1778 -0.1486
   12CHL1  H12A  846   0.459   2.293  -0.421 -2.8588  0.9522  1.0973
   12CHL1  H12B  847   0.321   2.179  -0.384 -0.2558 -0.6365  1.6957
   12CHL1   C11  848   0.438   2.244  -0.214 -0.6405  0.5712 -1.4500
   12CHL1  H11A  849   0.545   2.273  -0.203 -0.6188  0.2552 -0.7468
   12CHL1  H11B  850   0.365   2.319  -0.178 -1.5679 -1.3795  1.0427
   12CHL1    C9  851   0.409   2.125  -0.120  1.0504 -0.5515 -0.4044
   12CHL1    H9  852   0.299   2.117  -0.130  0.4295  3.7281  1.2289
   12CHL1   C10  853   0.428   2.142   0.036 -1.0704 -0.3706 -0.2760
   12CHL1   C19  854   0.568   2.218   0.053  0.3672 -0.4514 -0.0814
   12CHL1  H19A  855   0.644   2.164  -0.008  1.8205 -0.8404  1.9398
   12CHL1  H19B  856   0.555   2.323   0.021 -3.4596 -1.1450 -1.2689
   12CHL1  H19C  857   0.591   2.222   0.162  1.7512 -0.9016 -0.3315
   12CHL1    C1  858   0.307   2.226   0.088 -0.3571 -0.8521 -1.0573
   12CHL1   H1A  859   0.307   2.314   0.021  1.3498 -0.1874 -0.2500
   12CHL1   H1B  860   0.216   2.167   0.066 -0.2074 -1.4475 -0.1058
   12CHL1    C2  861   0.312   2.262   0.240 -0.1598  0.3938 -0.0987
   12CHL1   H2A  862   0.220   2.309   0.281 -0.9617  0.1900 -1.5905
   12CHL1   H2B  863   0.396   2.334   0.254 -0.3137  0.9894 -1.8855
   12CHL1   C20  864   0.527   2.046  -0.660 -0.5561  0.6226 -0.3900
   12CHL1   H20  865   0.633   2.075  -0.640  0.0589 -1.3034 -0.6889
   12CHL1   C21  866   0.462   2.177  -0.706 -0.2440 -0.4880  0.8034
   12CHL1  H21A  867   0.514   2.216  -0.795  3.1923  2.5898  3.8028
   12CHL1  H21B  868   0.469   2.254  -0.626  0.3771 -1.1552  1.4138
   12CHL1  H21C  869   0.353   2.161  -0.723 -0.3397 -0.6690  1.5441
   12CHL1   C22  870   0.529   1.950  -0.784 -0.3430  0.2297 -0.6735
   12CHL1  H22A  871   0.564   1.847  -0.764 -0.5558  0.4669  1.0959
   12CHL1  H22B  872   0.426   1.947  -0.827 -1.3632 -0.4561  1.6553
   12CHL1   C23  873   0.606   1.998  -0.910  0.1849 -0.4176 -0.1181
   12CHL1  H23A  874   0.602   2.108  -0.929 -1.0548 -0.6896 -1.6475
   12CHL1  H23B  875   0.711   1.970  -0.890 -0.6470 -2.9546  1.1148
   12CHL1   C24  876   0.578   1.925  -1.042  0.3932  0.6102 -0.1731
   12CHL1  H24A  877   0.576   1.820  -1.003  3.1781  0.7974  0.7022
   12CHL1  H24B  878   0.477   1.958  -1.074  0.0275  0.5388  0.8512
   12CHL1   C25  879   0.683   1.948  -1.151  0.2289  0.0812  0.2494
   12CHL1   H25  880   0.788   1.951  -1.113  0.8722  0.1485 -1.4324
   12CHL1   C26  881   0.681   1.836  -1.257  0.1682 -0.2502  0.4213
   12CHL1  H26A  882   0.739   1.869  -1.346 -0.2005  1.2094  0.6868
   12CHL1  H26B  883   0.727   1.749  -1.206  1.5984  0.6427  0.6995
   12CHL1  H26C  884   0.573   1.826  -1.282  0.5700 -0.2733 -1.3865
   12CHL1   C27  885   0.681   2.097  -1.204 -0.2044  0.3667  0.1585
   12CHL1  H27A  886   0.736   2.106  -1.301  1.3550  1.8256  1.1179
   12CHL1  H27B  887   0.581   2.140  -1.229  0.7643  3.1066  0.6142
   12CHL1  H27C  888   0.717   2.158  -1.118 -1.6275  0.0300  1.0153
   13CHL1    C3  889   2.545   2.937   8.748 -0.4135  1.0653 -0.7922
   13CHL1    H3  890   2.646   2.984   8.745 -0.0849  1.0797  3.6295
   13CHL1    O3  891   2.490   2.980   8.873 -0.0036  0.4398 -0.3809
   13CHL1   H3'  892   2.410   3.026   8.844 -1.1389  1.0753  3.2126
   13CHL1    C4  893   2.464   3.010   8.644 -1.0249 -0.4466  0.1931
   13CHL1   H4A  894   2.361   2.975   8.663 -0.2630 -2.4457  0.9279
   13CHL1   H4B  895   2.467   3.120   8.662 -0.9205 -0.2398 -1.0300
   13CHL1    C5  896   2.502   2.971   8.503  0.9582 -0.6378 -0.8274
   13CHL1    C6  897   2.543   3.058   8.415 -0.5066 -0.2163 -0.1697
   13CHL1    H6  898   2.538   3.168   8.425  2.0497  0.2948 -2.8640
   13CHL1    C7  899   2.586   3.024   8.273  0.2473  0.1249  0.5469
   13CHL1   H7A  900   2.525   3.081   8.199  0.3164  0.6752  0.9168
   13CHL1   H7B  901   2.692   3.045   8.250 -0.2522 -0.2181 -2.6821
   13CHL1    C8  902   2.564   2.871   8.234  0.3507 -0.3199  0.0777
   13CHL1    H8  903   2.459   2.865   8.198  0.7236  0.4742 -1.1771
   13CHL1   C14  904   2.664   2.844   8.128  0.6694 -0.0686 -0.2133
   13CHL1   H14  905   2.768   2.860   8.162  0.2841  1.4293  0.3376
   13CHL1   C15  906   2.649   2.940   8.002  0.0490 -0.1611 -0.0389
   13CHL1  H15A  907   2.543   2.961   7.974  0.1099  0.4855  0.1943
   13CHL1  H15B  908   2.701   3.036   8.020 -2.0972  1.1398 -0.4824
   13CHL1   C16  909   2.734   2.870   7.898  0.5798  0.4014  0.5195
   13CHL1  H16A  910   2.674   2.863   7.804 -0.4199 -0.7146  1.2002
   13CHL1  H16B  911   2.830   2.922   7.883  1.3373 -0.6153  1.6694
   13CHL1   C17  912   2.761   2.721   7.952 -0.4323 -0.5085 -0.4411
   13CHL1   H17  913   2.861   2.730   8.000  1.0338  0.5402 -3.4434
   13CHL1   C13  914   2.655   2.703   8.065 -0.5750  0.2833  0.1450
   13CHL1   C18  915   2.520   2.675   7.998 -0.0079  0.3335  0.2855
   13CHL1  H18A  916   2.438   2.701   8.068  0.7928 -2.4201  2.4394
   13CHL1  H18B  917   2.516   2.750   7.916 -0.6826  0.1996  0.1915
   13CHL1  H18C  918   2.508   2.572   7.959  1.8195  0.5287 -0.9194
   13CHL1   C12  919   2.689   2.609   8.182 -0.3759 -0.1541 -0.0188
   13CHL1  H12A  920   2.670   2.503   8.156 -1.3164 -0.5073  1.9023
   13CHL1  H12B  921   2.797   2.625   8.203 -0.3508  1.4921 -1.2108
   13CHL1   C11  922   2.602   2.634   8.311  0.3543  0.5041  0.2644
   13CHL1  H11A  923   2.502   2.605   8.274  0.3631 -0.5443  0.9992
   13CHL1  H11B  924   2.639   2.564   8.389  0.4801 -1.7001 -1.6811
   13CHL1    C9  925   2.589   2.779   8.351 -0.1059 -0.2412 -0.1750
   13CHL1    H9  926   2.695   2.787   8.383 -0.4709  0.0852  1.0144
   13CHL1   C10  927   2.510   2.822   8.471  0.0376  0.4233  0.5600
   13CHL1   C19  928   2.368   2.761   8.450  0.2389 -0.4036  0.0233
   13CHL1  H19A  929   2.319   2.800   8.358  1.1804  2.2505  0.5455
   13CHL1  H19B  930   2.386   2.652   8.450  3.3264  0.0336 -0.3329
   13CHL1  H19C  931   2.301   2.795   8.532  0.4200  0.1061 -0.0341
   13CHL1    C1  932   2.569   2.750   8.598 -0.3701  0.9073  0.2066
   13CHL1   H1A  933   2.543   2.643   8.583  0.5572  1.0447 -3.2754
   13CHL1   H1B  934   2.680   2.750   8.600 -0.2705 -2.4382 -0.1242
   13CHL1    C2  935   2.522   2.790   8.731  0.2705 -0.0900 -0.3722
   13CHL1   H2A  936   2.578   2.731   8.807 -0.9719 -0.2602  0.4406
   13CHL1   H2B  937   2.413   2.776   8.748  0.3073  1.4453  1.5241
   13CHL1   C20  938   2.767   2.618   7.841  0.2372  0.4614 -0.4294
   13CHL1   H20  939   2.671   2.621   7.785  1.0066 -0.1347 -1.8313
   13CHL1   C21  940   2.806   2.480   7.908  0.3075  0.3768 -0.0574
   13CHL1  H21A  941   2.713   2.442   7.955 -1.5199  1.4702 -2.5568
   13CHL1  H21B  942   2.889   2.498   7.980 -1.3485  3.7909  1.2285
   13CHL1  H21C  943   2.845   2.408   7.833  1.1504 -0.4846  1.1658
   13CHL1   C22  944   2.868   2.653   7.729 -0.1978  0.0148  0.0792
   13CHL1  H22A  945   2.880   2.763   7.715  3.4813  0.1414  2.8362
   13CHL1  H22B  946   2.966   2.608   7.756  0.5559  2.2016  1.2400
   13CHL1   C23  947   2.829   2.605   7.584  0.4226  0.5697  0.1712
   13CHL1  H23A  948   2.843   2.496   7.570  0.4102  0.9062 -3.4068
   13CHL1  H23B  949   2.731   2.646   7.554 -0.7950 -2.2659 -0.0296
   13CHL1   C24  950   2.926   2.665   7.478 -0.3215 -0.4070 -0.8010
   13CHL1  H24A  951   2.915   2.775   7.490  2.2297 -0.2673  1.2027
   13CHL1  H24B  952   3.032   2.650   7.508 -1.2836 -1.1892  2.6741
   13CHL1   C25  953   2.890   2.637   7.331 -0.0730 -0.2112 -0.0622
   13CHL1   H25  954   2.929   2.535   7.313 -2.5286 -1.4519  1.1172
   13CHL1   C26  955   2.743   2.629   7.301 -0.1366 -0.0525 -0.2149
   13CHL1  H26A  956   2.689   2.725   7.315 -4.2203 -2.2962  1.0516
   13CHL1  H26B  957   2.730   2.602   7.194  0.3158 -1.0375 -0.0314
   13CHL1  H26C  958   2.677   2.553   7.348 -0.4641 -0.2696 -0.9970
   13CHL1   C27  959   2.961   2.730   7.237  0.2282 -0.4646 -0.2642
   13CHL1  H27A  960   2.963   2.675   7.140 -1.1657  0.3294 -0.7733
   13CHL1  H27B  961   2.907   2.826   7.222 -0.2730 -0.3832  1.7873
   13CHL1  H27C  962   3.069   2.741   7.258  0.2978 -0.4240 -0.6395
   14CHL1    C3  963   1.425   1.586   0.338 -0.4453  0.4642 -0.7768
   14CHL1    H3  964   1.334   1.525   0.356 -0.7136  1.6526  2.8165
   14CHL1    O3  965   1.438   1.652   0.463  0.2546 -0.1879 -0.3302
   14CHL1   H3'  966   1.419   1.593   0.536  0.0506  4.1017  3.6007
   14CHL1    C4  967   1.550   1.504   0.296 -0.8316 -0.0603  0.0765
   14CHL1   H4A  968   1.625   1.585   0.294 -1.0020  0.1141 -1.9517
   14CHL1   H4B  969   1.578   1.428   0.372  0.1679  2.3556  2.2894
   14CHL1    C5  970   1.542   1.450   0.156  0.6582  0.0153 -0.1338
   14CHL1    C6  971   1.564   1.318   0.148  0.5405 -0.3525 -1.0262
   14CHL1    H6  972   1.601   1.263   0.236 -1.9770 -1.0889 -0.3424
   14CHL1    C7  973   1.561   1.246   0.019  0.1494  0.0333  0.1672
   14CHL1   H7A  974   1.652   1.182   0.010  0.6944  0.6619  0.9561
   14CHL1   H7B  975   1.471   1.181   0.018  0.7461 -0.8085 -0.0886
   14CHL1    C8  976   1.554   1.345  -0.101  0.3518  0.9811 -0.5504
   14CHL1    H8  977   1.651   1.398  -0.111 -0.5808  2.4980 -2.1659
   14CHL1   C14  978   1.515   1.273  -0.229 -0.4549 -0.1242 -0.9276
   14CHL1   H14  979   1.411   1.237  -0.214 -0.2110 -0.8268 -0.8988
   14CHL1   C15  980   1.623   1.167  -0.277  0.3291 -0.1541 -0.2153
   14CHL1  H15A  981   1.729   1.200  -0.271  0.3894 -0.4214  0.2044
   14CHL1  H15B  982   1.612   1.091  -0.197 -2.6414  1.4010  1.0070
   14CHL1   C16  983   1.585   1.131  -0.415 -0.8570 -0.3570  0.3739
   14CHL1  H16A  984   1.673   1.133  -0.483 -1.0012  0.3073  0.1973
   14CHL1  H16B  985   1.535   1.033  -0.429 -1.0399 -0.2346  0.1593
   14CHL1   C17  986   1.479   1.245  -0.457 -0.2737 -0.2753 -0.5711
   14CHL1   H17  987   1.380   1.201  -0.430  0.7385 -2.0521  0.4709
   14CHL1   C13  988   1.502   1.358  -0.349  0.4652  0.5347 -0.1401
   14CHL1   C18  989   1.635   1.431  -0.375 -0.1664 -0.1213  0.1002
   14CHL1  H18A  990   1.677   1.479  -0.284 -1.4199 -1.5210  1.4799
   14CHL1  H18B  991   1.708   1.362  -0.423  0.0699  0.1538  0.0657
   14CHL1  H18C  992   1.618   1.519  -0.439 -0.8757 -0.1213  0.2784
   14CHL1   C12  993   1.387   1.451  -0.322 -0.6182  0.0214  0.1014
   14CHL1  H12A  994   1.373   1.519  -0.408 -1.9375 -1.0413 -0.5452
   14CHL1  H12B  995   1.292   1.394  -0.328 -1.7783  1.9847 -1.1375
   14CHL1   C11  996   1.401   1.532  -0.196 -0.1550  0.4243  0.9477
   14CHL1  H11A  997   1.480   1.603  -0.230  0.9493 -1.5853 -0.9251
   14CHL1  H11B  998   1.312   1.593  -0.171  0.6753  2.2046 -0.1931
   14CHL1    C9  999   1.446   1.450  -0.072  1.0213 -0.2686 -0.6823
   14CHL1    H9 1000   1.357   1.397  -0.032  0.3805  2.7946  2.4746
   14CHL1   C10 1001   1.491   1.543   0.046  0.0429 -0.4769 -0.4498
   14CHL1   C19 1002   1.606   1.638   0.009  0.2847 -0.2631 -0.1256
   14CHL1  H19A 1003   1.561   1.710  -0.064  1.1491  0.0804 -0.3351
   14CHL1  H19B 1004   1.638   1.699   0.096 -0.7139  0.7295 -0.4194
   14CHL1  H19C 1005   1.698   1.595  -0.036 -0.0259 -0.8084 -0.2393
   14CHL1    C1 1006   1.374   1.627   0.098  0.2700 -0.1084 -0.0006
   14CHL1   H1A 1007   1.350   1.698   0.016 -1.1663 -1.5980 -0.9400
   14CHL1   H1B 1008   1.286   1.561   0.113 -0.7935  1.4745  1.0665
   14CHL1    C2 1009   1.390   1.699   0.230  0.4583  0.4340  0.1981
   14CHL1   H2A 1010   1.292   1.745   0.254  0.1761  0.5260 -1.0757
   14CHL1   H2B 1011   1.474   1.771   0.225  0.2441  0.6406 -0.5807
   14CHL1   C20 1012   1.495   1.277  -0.605 -0.1436  0.7230 -0.7138
   14CHL1   H20 1013   1.601   1.300  -0.630  0.3812 -2.1375 -1.4745
   14CHL1   C21 1014   1.395   1.383  -0.645 -0.7147 -0.5854  0.2826
   14CHL1  H21A 1015   1.388   1.397  -0.755  2.2134 -1.4626 -0.1012
   14CHL1  H21B 1016   1.416   1.485  -0.606 -0.8047  0.2960 -1.8413
   14CHL1  H21C 1017   1.290   1.362  -0.616 -0.8883 -0.0077  0.0975
   14CHL1   C22 1018   1.468   1.152  -0.691 -0.3801  0.1829  0.3530
   14CHL1  H22A 1019   1.515   1.062  -0.647  1.2423  0.0396 -1.5169
   14CHL1  H22B 1020   1.360   1.125  -0.694 -0.2310 -0.7572  2.3642
   14CHL1   C23 1021   1.522   1.160  -0.832 -0.6040  0.6552  0.4475
   14CHL1  H23A 1022   1.436   1.149  -0.901 -1.6055  0.1909  1.7208
   14CHL1  H23B 1023   1.560   1.259  -0.867  3.0025 -0.7387 -0.0322
   14CHL1   C24 1024   1.624   1.047  -0.856  0.4156  0.0795 -0.3430
   14CHL1  H24A 1025   1.688   1.029  -0.767  3.2863  1.5601 -1.9678
   14CHL1  H24B 1026   1.576   0.950  -0.881  0.0917  0.5722 -1.7220
   14CHL1   C25 1027   1.718   1.088  -0.968 -0.8489 -0.2711  1.2586
   14CHL1   H25 1028   1.735   1.198  -0.969  1.6927 -0.5923 -1.2378
   14CHL1   C26 1029   1.858   1.041  -0.946  0.0013  0.7608  1.0050
   14CHL1  H26A 1030   1.891   1.055  -0.841  1.1217 -1.1049  0.9419
   14CHL1  H26B 1031   1.867   0.931  -0.956  2.4591  0.9842  0.2634
   14CHL1  H26C 1032   1.934   1.085  -1.013  0.5000 -2.7776 -0.9953
   14CHL1   C27 1033   1.655   1.054  -1.103 -0.1750  0.1599  0.1273
   14CHL1  H27A 1034   1.699   1.107  -1.190 -1.6032 -0.5604 -1.0691
   14CHL1  H27B 1035   1.667   0.945  -1.122  3.5598  0.4644 -0.0894
   14CHL1  H27C 1036   1.547   1.079  -1.108 -0.0536  0.6964  0.1063
   15CHL1    C3 1037   2.389   6.365   8.990 -1.1474  0.7512 -0.4558
   15CHL1    H3 1038   2.323   6.432   8.930 -0.8529  0.4602 -1.1220
   15CHL1    O3 1039   2.358   6.373   9.132 -0.1348  0.4428  0.2597
   15CHL1   H3' 1040   2.442   6.386   9.177  0.3515 -0.4372 -0.3710
   15CHL1    C4 1041   2.356   6.231   8.934  0.1634 -0.0448  0.6961
   15CHL1   H4A 1042   2.410   6.154   8.994 -2.9841 -0.1862  3.6684
   15CHL1   H4B 1043   2.250   6.199   8.937  0.4382 -1.1700 -0.7314
   15CHL1    C5 1044   2.401   6.229   8.788 -0.6190  0.2067  0.3633
   15CHL1    C6 1045   2.322   6.194   8.683 -0.0201 -0.1630 -1.0959
   15CHL1    H6 1046   2.213   6.188   8.695  0.2408 -0.3222  2.0417
   15CHL1    C7 1047   2.361   6.188   8.538 -0.0961 -0.1293 -0.3538
   15CHL1   H7A 1048   2.309   6.097   8.500  0.4135  0.0186 -1.4455
   15CHL1   H7B 1049   2.327   6.281   8.489 -1.1152  0.9458  2.1982
   15CHL1    C8 1050   2.513   6.171   8.525 -0.1336  0.1384 -0.6816
   15CHL1    H8 1051   2.546   6.072   8.563 -1.4578 -0.1616 -0.2516
   15CHL1   C14 1052   2.550   6.192   8.384 -0.4081 -0.2120  0.1485
   15CHL1   H14 1053   2.529   6.299   8.364  2.8990  0.1945 -1.9055
   15CHL1   C15 1054   2.476   6.105   8.281 -0.7747  0.4095  0.7883
   15CHL1  H15A 1055   2.485   5.998   8.307  1.0784  0.4548  0.4893
   15CHL1  H15B 1056   2.375   6.146   8.262 -0.4002  1.0922  0.1960
   15CHL1   C16 1057   2.562   6.124   8.153 -0.0305 -0.6501  0.3574
   15CHL1  H16A 1058   2.579   6.028   8.099 -0.6792 -0.7272  0.2890
   15CHL1  H16B 1059   2.513   6.190   8.079  2.0488 -0.2925 -0.7790
   15CHL1   C17 1060   2.688   6.202   8.198  0.6823 -0.6895 -0.2615
   15CHL1   H17 1061   2.650   6.306   8.190 -0.0862 -0.8333  1.2142
   15CHL1   C13 1062   2.698   6.186   8.354 -0.1860 -0.3700  0.4321
   15CHL1   C18 1063   2.758   6.041   8.380 -0.2641  1.1134  0.9078
   15CHL1  H18A 1064   2.715   5.970   8.306  1.2566  1.1123 -0.0272
   15CHL1  H18B 1065   2.869   6.041   8.376 -0.1711 -2.3115  1.1776
   15CHL1  H18C 1066   2.735   6.012   8.484  0.3117  1.1217  1.0413
   15CHL1   C12 1067   2.774   6.295   8.430  0.2543  0.4242  0.3372
   15CHL1  H12A 1068   2.881   6.271   8.414  0.0219 -2.1866  2.0641
   15CHL1  H12B 1069   2.745   6.391   8.381 -2.7478 -1.1309 -1.2535
   15CHL1   C11 1070   2.735   6.293   8.585 -0.2359  0.2478 -0.4087
   15CHL1  H11A 1071   2.786   6.199   8.616  3.1268  0.6415 -3.9491
   15CHL1  H11B 1072   2.781   6.381   8.634  0.5449 -0.3056 -0.1255
   15CHL1    C9 1073   2.582   6.285   8.612  0.0797 -0.8792  0.1374
   15CHL1    H9 1074   2.536   6.382   8.584  2.9313 -0.1529 -2.5718
   15CHL1   C10 1075   2.554   6.268   8.764  0.7392  0.6003  0.0548
   15CHL1   C19 1076   2.634   6.149   8.828  0.0860  0.1157  0.5602
   15CHL1  H19A 1077   2.743   6.168   8.833  0.1197  0.3217 -0.6035
   15CHL1  H19B 1078   2.594   6.141   8.931 -2.6145 -2.6555 -0.5425
   15CHL1  H19C 1079   2.609   6.053   8.776 -0.7024 -0.5791  2.1485
   15CHL1    C1 1080   2.586   6.401   8.834 -0.1048  0.6249  0.1323
   15CHL1   H1A 1081   2.697   6.408   8.840  0.2532 -2.6232 -0.9049
   15CHL1   H1B 1082   2.547   6.485   8.772 -2.6383  1.4174  2.6036
   15CHL1    C2 1083   2.532   6.418   8.975  0.2439  0.6696 -0.0830
   15CHL1   H2A 1084   2.541   6.523   9.009  2.0745  0.3556  0.5165
   15CHL1   H2B 1085   2.600   6.355   9.037 -0.3968 -0.8626 -0.8878
   15CHL1   C20 1086   2.816   6.197   8.110 -0.0209  0.2835  0.1842
   15CHL1   H20 1087   2.882   6.126   8.163  0.8216  1.0559  0.1976
   15CHL1   C21 1088   2.875   6.339   8.102 -0.3336  0.6891  0.0472
   15CHL1  H21A 1089   2.802   6.407   8.054 -0.3275 -0.6238 -1.9912
   15CHL1  H21B 1090   2.972   6.355   8.051  0.3221  0.1795  1.1071
   15CHL1  H21C 1091   2.903   6.383   8.199 -1.9789  1.4049  0.2185
   15CHL1   C22 1092   2.787   6.153   7.963  0.1218  0.1869 -0.6853
   15CHL1  H22A 1093   2.711   6.073   7.946 -0.6197  0.7523 -0.0898
   15CHL1  H22B 1094   2.741   6.240   7.911 -1.8003  0.1140  0.7561
   15CHL1   C23 1095   2.910   6.106   7.885 -0.1517  0.3031  0.5413
   15CHL1  H23A 1096   2.984   6.188   7.894  0.6332 -0.5011  1.6302
   15CHL1  H23B 1097   2.948   6.020   7.944 -0.7132 -2.2291 -2.5238
   15CHL1   C24 1098   2.880   6.052   7.741  0.4467 -0.1083 -0.1879
   15CHL1  H24A 1099   2.823   5.956   7.743  2.8763 -1.6360  1.3060
   15CHL1  H24B 1100   2.821   6.134   7.696  0.7724  1.1183  1.5639
   15CHL1   C25 1101   2.996   6.029   7.643  0.1200  0.5117 -0.2475
   15CHL1   H25 1102   3.074   5.977   7.702 -1.1788  0.3461  1.3864
   15CHL1   C26 1103   2.939   5.953   7.516 -0.1152 -0.3094  0.7115
   15CHL1  H26A 1104   2.928   6.007   7.420 -2.0001 -0.8489  0.5770
   15CHL1  H26B 1105   2.997   5.859   7.509 -0.1738 -0.5206  2.4602
   15CHL1  H26C 1106   2.831   5.929   7.528 -1.3868  1.3188 -4.7411
   15CHL1   C27 1107   3.063   6.162   7.596  0.2155  0.6563 -0.4180
   15CHL1  H27A 1108   3.111   6.200   7.689  0.1122 -0.0358 -0.0778
   15CHL1  H27B 1109   3.135   6.138   7.515  0.2005 -0.9058 -0.0061
   15CHL1  H27C 1110   2.983   6.235   7.568 -0.1477  0.2438 -0.4625
   16CHL1    C3 1111   5.913   4.469   0.120  0.5645 -1.1129  0.0081
   16CHL1    H3 1112   5.914   4.360   0.141  1.6693 -1.2033 -0.4828
   16CHL1    O3 1113   5.908   4.538   0.247  0.5614 -0.1844 -0.1465
   16CHL1   H3' 1114   5.876   4.627   0.230 -0.4497 -0.9922 -3.1362
   16CHL1    C4 1115   6.040   4.501   0.044 -0.4145 -0.1271 -0.5223
   16CHL1   H4A 1116   6.040   4.612   0.032 -1.5335 -0.1673 -1.0071
   16CHL1   H4B 1117   6.131   4.478   0.103  0.3086  3.0920 -0.1876
   16CHL1    C5 1118   6.039   4.436  -0.092  0.6166  0.1637 -0.2783
   16CHL1    C6 1119   6.134   4.342  -0.124  0.2123  0.2091  0.6290
   16CHL1    H6 1120   6.211   4.311  -0.051 -0.2211  1.8619  1.8669
   16CHL1    C7 1121   6.142   4.272  -0.256  0.8432  0.4890 -0.8386
   16CHL1   H7A 1122   6.245   4.274  -0.296  0.4123  2.2724 -2.0031
   16CHL1   H7B 1123   6.107   4.168  -0.237 -1.4372  1.7328  2.9149
   16CHL1    C8 1124   6.058   4.342  -0.365 -0.0715  0.9392  0.2024
   16CHL1    H8 1125   6.110   4.434  -0.397 -1.2359  0.8511 -2.1379
   16CHL1   C14 1126   6.057   4.249  -0.484  0.6744 -0.2677  0.7233
   16CHL1   H14 1127   6.004   4.157  -0.450  0.0866  0.1342  0.9271
   16CHL1   C15 1128   6.187   4.212  -0.537 -0.1012 -0.6218  0.3318
   16CHL1  H15A 1129   6.274   4.282  -0.529  0.4347 -0.8069 -2.6767
   16CHL1  H15B 1130   6.221   4.113  -0.500  1.5707 -0.6225 -1.0782
   16CHL1   C16 1131   6.169   4.189  -0.688 -0.4998  0.8247  0.3306
   16CHL1  H16A 1132   6.215   4.261  -0.759 -0.1664  0.0654 -0.2317
   16CHL1  H16B 1133   6.204   4.089  -0.722  1.5393  1.5930 -0.0025
   16CHL1   C17 1134   6.014   4.206  -0.707 -0.3617 -0.2166 -0.0018
   16CHL1   H17 1135   5.950   4.119  -0.685 -1.9685  0.7072 -0.8365
   16CHL1   C13 1136   5.971   4.307  -0.597  0.2771  0.3395  0.5254
   16CHL1   C18 1137   6.003   4.450  -0.637  0.3293  0.1805 -0.1814
   16CHL1  H18A 1138   5.997   4.525  -0.556 -1.1000 -0.1103  0.0181
   16CHL1  H18B 1139   6.106   4.449  -0.679  1.1055 -0.6712  1.6570
   16CHL1  H18C 1140   5.942   4.481  -0.725  2.5868 -2.5347 -2.9448
   16CHL1   C12 1141   5.825   4.303  -0.546  0.0683 -0.0476  0.2107
   16CHL1  H12A 1142   5.751   4.333  -0.623 -0.8608  0.9427  1.4302
   16CHL1  H12B 1143   5.784   4.204  -0.517  2.3371 -0.4760  2.3043
   16CHL1   C11 1144   5.811   4.394  -0.418  0.3767 -0.1369  0.4004
   16CHL1  H11A 1145   5.825   4.497  -0.455 -1.3676 -0.3078 -0.8384
   16CHL1  H11B 1146   5.706   4.378  -0.386  0.1685  1.0847  0.3508
   16CHL1    C9 1147   5.922   4.369  -0.305  0.8900  0.0936  0.2784
   16CHL1    H9 1148   5.887   4.273  -0.261 -2.3064 -0.3899 -2.8547
   16CHL1   C10 1149   5.926   4.469  -0.182 -0.1419  0.3012  0.0950
   16CHL1   C19 1150   5.935   4.616  -0.235  0.0461  0.3390 -0.2280
   16CHL1  H19A 1151   5.962   4.687  -0.155  2.2078 -0.3329 -0.2966
   16CHL1  H19B 1152   6.027   4.620  -0.297  1.4292 -0.0728  1.7228
   16CHL1  H19C 1153   5.833   4.633  -0.277 -0.1861 -1.0354 -0.2713
   16CHL1    C1 1154   5.797   4.441  -0.101 -0.0973 -0.3377 -0.0805
   16CHL1   H1A 1155   5.712   4.472  -0.165 -1.9697 -0.4063  2.2320
   16CHL1   H1B 1156   5.774   4.333  -0.083  3.2751 -0.8723  1.8838
   16CHL1    C2 1157   5.795   4.510   0.032  0.0722  0.5422  0.9637
   16CHL1   H2A 1158   5.702   4.480   0.085  0.9665 -1.6026  1.3831
   16CHL1   H2B 1159   5.799   4.620   0.016  1.1572  0.5409  1.1612
   16CHL1   C20 1160   5.981   4.238  -0.856  0.0766 -0.2860 -0.4394
   16CHL1   H20 1161   6.030   4.332  -0.890  1.0279 -0.2316  0.9549
   16CHL1   C21 1162   5.828   4.272  -0.866  0.2998 -1.0102 -0.1061
   16CHL1  H21A 1163   5.766   4.189  -0.826  0.8049 -1.2637  0.1613
   16CHL1  H21B 1164   5.797   4.287  -0.972  1.3011 -0.2554 -0.3131
   16CHL1  H21C 1165   5.805   4.371  -0.821 -0.0292 -1.0041 -0.2824
   16CHL1   C22 1166   6.028   4.124  -0.941  0.4196 -0.3206  0.1316
   16CHL1  H22A 1167   6.133   4.096  -0.918  0.1425 -0.2444  1.5938
   16CHL1  H22B 1168   5.968   4.034  -0.915 -1.0800  0.2695 -1.1163
   16CHL1   C23 1169   6.027   4.155  -1.092 -0.0724 -0.2806 -0.2248
   16CHL1  H23A 1170   5.926   4.184  -1.127  0.3353  0.0963 -1.1148
   16CHL1  H23B 1171   6.078   4.252  -1.113 -0.7017  0.0899 -0.0729
   16CHL1   C24 1172   6.081   4.041  -1.176  0.0101  0.5167  1.3501
   16CHL1  H24A 1173   6.174   4.004  -1.127 -0.8153 -1.3522  1.5902
   16CHL1  H24B 1174   6.009   3.957  -1.173 -0.6514  1.1003  2.8309
   16CHL1   C25 1175   6.103   4.075  -1.325 -0.6257  0.3347  0.4504
   16CHL1   H25 1176   6.171   4.163  -1.323 -1.8202  1.2783  0.3593
   16CHL1   C26 1177   6.181   3.968  -1.410 -0.1422 -0.6996 -0.3539
   16CHL1  H26A 1178   6.183   4.010  -1.513 -0.9862 -0.0568 -0.1215
   16CHL1  H26B 1179   6.283   3.952  -1.368 -1.0804 -1.0174  1.9539
   16CHL1  H26C 1180   6.129   3.870  -1.415 -2.2908  0.3043  0.9266
   16CHL1   C27 1181   5.977   4.113  -1.398 -0.5069  0.3631  0.2741
   16CHL1  H27A 1182   5.930   4.205  -1.356 -0.0242  1.1419 -0.8375
   16CHL1  H27B 1183   5.989   4.144  -1.504 -0.7285 -0.1416  0.0978
   16CHL1  H27C 1184   5.915   4.021  -1.400 -0.3033  0.2115  0.8118
   17CHL1    C3 1185   6.523   0.641   0.370 -0.0826  0.1762  0.0730
   17CHL1    H3 1186   6.621   0.612   0.326  0.1421 -0.5841  1.0502
   17CHL1    O3 1187   6.539   0.657   0.510  0.4084 -0.7391  0.3714
   17CHL1   H3' 1188   6.454   0.685   0.545 -0.1429  0.3951 -1.7206
   17CHL1    C4 1189   6.473   0.762   0.299 -0.4204 -0.3248  0.5657
   17CHL1   H4A 1190   6.384   0.801   0.352 -1.0059  0.7709 -1.1532
   17CHL1   H4B 1191   6.549   0.839   0.325 -0.2995 -0.0714 -0.5027
   17CHL1    C5 1192   6.452   0.736   0.151  0.1915  0.0162  0.0321
   17CHL1    C6 1193   6.515   0.802   0.051  0.5196  0.3043  0.0989
   17CHL1    H6 1194   6.582   0.885   0.076  0.1605 -0.0930  2.5707
   17CHL1    C7 1195   6.507   0.772  -0.098  0.2647 -1.0018  0.2259
   17CHL1   H7A 1196   6.503   0.861  -0.164  0.5527 -1.7214 -0.8035
   17CHL1   H7B 1197   6.607   0.730  -0.122 -0.4447 -1.3389 -2.4408
   17CHL1    C8 1198   6.383   0.686  -0.133  0.1104  0.0338 -0.6004
   17CHL1    H8 1199   6.292   0.748  -0.120  0.7652  1.1562 -1.2021
   17CHL1   C14 1200   6.394   0.634  -0.277 -0.9050 -0.0531 -0.2872
   17CHL1   H14 1201   6.493   0.583  -0.275 -1.2966 -0.8199  2.2477
   17CHL1   C15 1202   6.405   0.744  -0.388  0.5329 -0.2254 -0.4975
   17CHL1  H15A 1203   6.326   0.819  -0.365 -1.1187 -1.2983 -2.3903
   17CHL1  H15B 1204   6.504   0.795  -0.380 -0.2712  1.3604 -0.2366
   17CHL1   C16 1205   6.372   0.657  -0.518  0.0789 -0.3958 -0.2377
   17CHL1  H16A 1206   6.310   0.720  -0.585 -0.6743  0.8964  1.5982
   17CHL1  H16B 1207   6.464   0.640  -0.578  0.8743  1.6335  0.3280
   17CHL1   C17 1208   6.321   0.512  -0.472  0.2112  0.0772 -0.3383
   17CHL1   H17 1209   6.411   0.447  -0.466  0.8121  0.9984  1.8765
   17CHL1   C13 1210   6.275   0.542  -0.322 -0.2405 -0.3747 -0.4095
   17CHL1   C18 1211   6.141   0.610  -0.318 -1.1229 -0.2512 -0.2554
   17CHL1  H18A 1212   6.110   0.646  -0.217  1.0209  4.5589 -1.0370
   17CHL1  H18B 1213   6.134   0.708  -0.370 -0.9917  0.8905  1.7693
   17CHL1  H18C 1214   6.066   0.541  -0.361 -2.1791  1.0775 -0.6236
   17CHL1   C12 1215   6.276   0.431  -0.223  0.1834 -0.1611  0.5514
   17CHL1  H12A 1216   6.200   0.356  -0.255  1.4351 -1.9125  1.5475
   17CHL1  H12B 1217   6.374   0.382  -0.236  0.8396  0.9585  1.1211
   17CHL1   C11 1218   6.261   0.467  -0.077 -0.7423  0.0091 -0.0318
   17CHL1  H11A 1219   6.164   0.516  -0.055 -0.1529  0.1838  2.4846
   17CHL1  H11B 1220   6.271   0.376  -0.013  0.2162  1.1594  1.5194
   17CHL1    C9 1221   6.372   0.571  -0.031  0.6222  0.1612  0.1959
   17CHL1    H9 1222   6.471   0.522  -0.044  0.0345 -0.9357 -0.3354
   17CHL1   C10 1223   6.370   0.608   0.120  0.2292 -0.3030 -0.5931
   17CHL1   C19 1224   6.219   0.639   0.159 -1.1223  0.2111  0.7129
   17CHL1  H19A 1225   6.148   0.554   0.154 -2.6043  1.3673  1.3521
   17CHL1  H19B 1226   6.211   0.681   0.261 -0.4197  0.8762  0.5021
   17CHL1  H19C 1227   6.180   0.722   0.096  0.8545  0.6093 -0.0686
   17CHL1    C1 1228   6.414   0.480   0.196 -0.3362 -0.0985  0.3803
   17CHL1   H1A 1229   6.338   0.400   0.187 -0.2305 -0.0593 -1.0138
   17CHL1   H1B 1230   6.511   0.443   0.156  0.2732  1.7398  0.0444
   17CHL1    C2 1231   6.427   0.519   0.345 -1.1975 -0.1792  0.2268
   17CHL1   H2A 1232   6.474   0.430   0.392  2.0387  1.1409 -0.2379
   17CHL1   H2B 1233   6.332   0.544   0.397 -3.1015 -1.5915 -2.3662
   17CHL1   C20 1234   6.226   0.445  -0.567  0.3759 -0.8879 -0.4399
   17CHL1   H20 1235   6.139   0.511  -0.587  0.8513 -0.3553 -0.7429
   17CHL1   C21 1236   6.173   0.307  -0.515  0.1502 -0.4057 -0.3627
   17CHL1  H21A 1237   6.103   0.327  -0.431 -0.9277 -1.1868 -1.0468
   17CHL1  H21B 1238   6.257   0.248  -0.472 -0.0094  1.0690  2.1651
   17CHL1  H21C 1239   6.109   0.256  -0.590  0.2690 -1.6161  0.3366
   17CHL1   C22 1240   6.294   0.413  -0.707  0.0966 -0.0026  0.2036
   17CHL1  H22A 1241   6.361   0.498  -0.732  2.9436 -1.7613  1.3982
   17CHL1  H22B 1242   6.360   0.326  -0.691 -1.2726 -0.8546  1.4690
   17CHL1   C23 1243   6.204   0.383  -0.832 -0.0062  0.3026 -0.2838
   17CHL1  H23A 1244   6.119   0.315  -0.812 -0.7371  1.2015 -0.2439
   17CHL1  H23B 1245   6.153   0.480  -0.854 -0.0612 -0.0017 -1.5120
   17CHL1   C24 1246   6.288   0.348  -0.953  0.1685 -0.1192 -0.2862
   17CHL1  H24A 1247   6.373   0.420  -0.950  1.0964 -1.1818  2.1807
   17CHL1  H24B 1248   6.326   0.244  -0.941 -1.2851 -0.7097 -0.6640
   17CHL1   C25 1249   6.216   0.370  -1.089  0.4511 -0.6409  0.0038
   17CHL1   H25 1250   6.198   0.478  -1.111  1.4694 -0.5011 -0.1827
   17CHL1   C26 1251   6.310   0.316  -1.200  0.1713 -0.3569 -0.4815
   17CHL1  H26A 1252   6.299   0.206  -1.183 -1.9111 -0.0442  0.5120
   17CHL1  H26B 1253   6.258   0.331  -1.298  0.5447  1.2577 -0.4486
   17CHL1  H26C 1254   6.416   0.346  -1.198  0.0446  0.0861 -0.3919
   17CHL1   C27 1255   6.082   0.290  -1.099 -0.4426 -0.7423  0.3706
   17CHL1  H27A 1256   6.005   0.343  -1.039  0.1784  0.4231  0.1889
   17CHL1  H27B 1257   6.050   0.288  -1.205  2.4711 -1.5413 -0.5991
   17CHL1  H27C 1258   6.085   0.184  -1.068 -0.7723 -0.8152  0.1545
   18CHL1    C3 1259   0.392   3.194   0.063  0.5935  0.1383  0.4617
   18CHL1    H3 1260   0.326   3.109   0.032 -0.7061  1.1601  0.3439
   18CHL1    O3 1261   0.357   3.206   0.197  0.2424  0.3938  0.2011
   18CHL1   H3' 1262   0.399   3.136   0.246  2.1647  2.4543  1.6916
   18CHL1    C4 1263   0.536   3.146   0.042  0.7506  0.4638  0.5990
   18CHL1   H4A 1264   0.606   3.205   0.105  0.3542  0.6511  0.8634
   18CHL1   H4B 1265   0.535   3.046   0.090  1.5474 -0.9532 -2.1093
   18CHL1    C5 1266   0.586   3.136  -0.107 -0.2191  0.3594 -0.1604
   18CHL1    C6 1267   0.633   3.024  -0.163  0.1143  0.1890  0.7686
   18CHL1    H6 1268   0.653   2.938  -0.098  1.7034 -0.9759 -1.1571
   18CHL1    C7 1269   0.679   3.027  -0.311 -0.1028  1.2253 -0.1622
   18CHL1   H7A 1270   0.775   2.971  -0.322 -0.7964  0.0068 -0.1792
   18CHL1   H7B 1271   0.614   2.965  -0.377 -1.0100  2.7624 -0.7849
   18CHL1    C8 1272   0.694   3.162  -0.376  0.8464 -0.5260  0.2661
   18CHL1    H8 1273   0.790   3.201  -0.337  2.4337 -2.5231 -1.4722
   18CHL1   C14 1274   0.701   3.143  -0.528  0.0199 -0.2252  0.3911
   18CHL1   H14 1275   0.603   3.094  -0.547  0.6648 -1.4054 -0.0091
   18CHL1   C15 1276   0.812   3.050  -0.584 -0.4057  0.2017 -0.1059
   18CHL1  H15A 1277   0.907   3.080  -0.535 -0.4812  0.9556 -0.4026
   18CHL1  H15B 1278   0.788   2.944  -0.561 -1.2651  0.5791  0.8000
   18CHL1   C16 1279   0.817   3.095  -0.732  0.1619  0.1197 -0.5857
   18CHL1  H16A 1280   0.923   3.113  -0.757  0.1256 -0.7183 -1.4216
   18CHL1  H16B 1281   0.791   2.999  -0.782  0.8269 -0.4255  0.0978
   18CHL1   C17 1282   0.722   3.224  -0.751 -0.1166 -0.2228 -0.1243
   18CHL1   H17 1283   0.626   3.178  -0.784 -1.3756  1.1881  1.4147
   18CHL1   C13 1284   0.695   3.276  -0.611 -0.1575  0.2952 -0.4222
   18CHL1   C18 1285   0.807   3.378  -0.569 -0.3305  0.1648  0.6205
   18CHL1  H18A 1286   0.836   3.379  -0.462  0.2467 -0.1298  0.4680
   18CHL1  H18B 1287   0.898   3.350  -0.627 -0.5904 -0.9811  0.7499
   18CHL1  H18C 1288   0.778   3.482  -0.596  0.6451  0.0869 -0.8496
   18CHL1   C12 1289   0.561   3.334  -0.573  0.7143 -0.6501 -0.8039
   18CHL1  H12A 1290   0.540   3.430  -0.624  0.9156  1.0849  2.1308
   18CHL1  H12B 1291   0.476   3.266  -0.596 -0.9948 -0.2003  3.3166
   18CHL1   C11 1292   0.552   3.380  -0.424 -0.2803  0.0730 -0.4652
   18CHL1  H11A 1293   0.640   3.438  -0.387 -1.9331  0.0048  4.2268
   18CHL1  H11B 1294   0.455   3.429  -0.402  0.0195  0.4823 -0.0203
   18CHL1    C9 1295   0.572   3.249  -0.338  0.2953  0.2713  0.3687
   18CHL1    H9 1296   0.486   3.192  -0.379 -1.0741  3.9292 -2.4431
   18CHL1   C10 1297   0.546   3.261  -0.186 -0.5984 -0.2626 -0.1558
   18CHL1   C19 1298   0.646   3.370  -0.127  0.5865  1.1687  0.1782
   18CHL1  H19A 1299   0.624   3.391  -0.020 -0.5149 -1.1068  0.4616
   18CHL1  H19B 1300   0.755   3.350  -0.137  0.4315  0.4300 -0.0499
   18CHL1  H19C 1301   0.643   3.466  -0.183  4.5715  0.6251 -1.2748
   18CHL1    C1 1302   0.399   3.304  -0.164 -0.3769 -0.2871 -0.2901
   18CHL1   H1A 1303   0.381   3.401  -0.216  1.0930 -0.1639 -0.6053
   18CHL1   H1B 1304   0.340   3.223  -0.211 -0.6066  0.3037 -1.0458
   18CHL1    C2 1305   0.363   3.320  -0.012  0.3741 -0.0615 -0.6704
   18CHL1   H2A 1306   0.254   3.338   0.005  0.2558 -0.2207 -1.2258
   18CHL1   H2B 1307   0.414   3.406   0.035  1.5371 -1.3017  0.4238
   18CHL1   C20 1308   0.777   3.317  -0.869  0.2225  0.4961 -0.2052
   18CHL1   H20 1309   0.872   3.368  -0.846  0.3437  1.2351 -2.1893
   18CHL1   C21 1310   0.671   3.423  -0.883 -0.2760 -0.7341  0.1257
   18CHL1  H21A 1311   0.669   3.485  -0.792  0.8870 -0.6240  0.0942
   18CHL1  H21B 1312   0.576   3.370  -0.905  1.0983 -3.7477  0.9696
   18CHL1  H21C 1313   0.703   3.491  -0.965  1.2502 -2.7915 -1.0918
   18CHL1   C22 1314   0.796   3.238  -1.001  0.1162 -0.7750 -0.0762
   18CHL1  H22A 1315   0.843   3.141  -0.978  0.4836 -0.2743  1.3691
   18CHL1  H22B 1316   0.694   3.220  -1.041 -0.1789  0.2563  0.1797
   18CHL1   C23 1317   0.874   3.314  -1.105 -0.3684 -0.2922 -0.6777
   18CHL1  H23A 1318   0.855   3.424  -1.107  0.6086 -0.1096 -2.2256
   18CHL1  H23B 1319   0.977   3.298  -1.065 -0.6397  0.0806  0.1777
   18CHL1   C24 1320   0.859   3.254  -1.250 -0.0638 -0.9207 -0.0039
   18CHL1  H24A 1321   0.756   3.268  -1.288  0.5706  1.9213 -0.9370
   18CHL1  H24B 1322   0.915   3.311  -1.328 -0.0396 -0.7895  0.1092
   18CHL1   C25 1323   0.893   3.099  -1.270  0.5728 -0.5129  0.2176
   18CHL1   H25 1324   0.849   3.038  -1.188 -1.5364  0.4659 -0.1045
   18CHL1   C26 1325   0.868   3.054  -1.410  0.8112  0.1481  0.0869
   18CHL1  H26A 1326   0.765   3.013  -1.411 -0.1419  2.3392  0.9362
   18CHL1  H26B 1327   0.863   3.133  -1.488  0.4590  0.9353  0.8853
   18CHL1  H26C 1328   0.939   2.973  -1.437 -0.9855 -1.0297 -1.3271
   18CHL1   C27 1329   1.041   3.084  -1.236 -0.4454 -0.2000 -0.2661
   18CHL1  H27A 1330   1.075   2.981  -1.261 -2.7183 -0.6993 -1.6086
   18CHL1  H27B 1331   1.103   3.145  -1.305  1.9337 -1.8377  0.3370
   18CHL1  H27C 1332   1.067   3.106  -1.130 -1.1120 -0.5035 -0.0299
   19CHL1    C3 1333   6.714   1.979   0.330  0.2049  0.3817 -0.1191
   19CHL1    H3 1334   6.777   2.069   0.311  2.1851 -0.7586  0.7888
   19CHL1    O3 1335   6.689   1.977   0.468  0.4267  0.2248 -0.4746
   19CHL1   H3' 1336   6.773   1.956   0.510 -0.5405 -0.7980  1.0474
   19CHL1    C4 1337   6.581   1.985   0.255 -0.8891 -0.4315  0.0217
   19CHL1   H4A 1338   6.520   1.897   0.285  0.8725 -1.2855  1.2522
   19CHL1   H4B 1339   6.517   2.073   0.280  0.0282 -0.0931  1.2705
   19CHL1    C5 1340   6.618   1.983   0.105 -0.0154  0.3081 -0.5549
   19CHL1    C6 1341   6.584   2.085   0.022 -0.0284  0.5210  0.0161
   19CHL1    H6 1342   6.543   2.178   0.063  3.2514  2.5011 -0.8174
   19CHL1    C7 1343   6.603   2.085  -0.124  0.0029  0.1368  0.4922
   19CHL1   H7A 1344   6.511   2.122  -0.175  0.2415 -0.1367 -0.1469
   19CHL1   H7B 1345   6.693   2.146  -0.145  1.5184 -2.3505 -0.7390
   19CHL1    C8 1346   6.623   1.943  -0.188  0.5072 -0.7149 -0.5823
   19CHL1    H8 1347   6.523   1.893  -0.185  0.5785 -0.8691 -0.7186
   19CHL1   C14 1348   6.684   1.962  -0.329  0.7044 -0.6847  0.3194
   19CHL1   H14 1349   6.776   2.020  -0.308  0.6314 -0.4753  0.0838
   19CHL1   C15 1350   6.610   2.049  -0.434 -0.3315  0.1586  0.4553
   19CHL1  H15A 1351   6.502   2.025  -0.438  0.3444 -3.2055 -1.5570
   19CHL1  H15B 1352   6.623   2.159  -0.424 -0.5865  0.2173  0.1423
   19CHL1   C16 1353   6.672   2.000  -0.571  0.4123 -0.1014 -0.2460
   19CHL1  H16A 1354   6.586   1.971  -0.635 -1.1381  1.1992  1.1942
   19CHL1  H16B 1355   6.734   2.079  -0.619  0.3104 -0.7733 -1.5519
   19CHL1   C17 1356   6.761   1.874  -0.540  0.3046  0.1875  0.4512
   19CHL1   H17 1357   6.866   1.905  -0.526 -0.3729  2.2875  1.2522
   19CHL1   C13 1358   6.719   1.823  -0.394 -0.6921  0.1830 -0.1502
   19CHL1   C18 1359   6.592   1.728  -0.411 -0.5918 -0.7104  0.1648
   19CHL1  H18A 1360   6.543   1.722  -0.311 -1.6667  1.8068 -0.1438
   19CHL1  H18B 1361   6.526   1.789  -0.476 -0.8139 -1.5121 -0.3759
   19CHL1  H18C 1362   6.625   1.631  -0.453  3.1325  0.7522 -0.6766
   19CHL1   C12 1363   6.821   1.741  -0.308 -0.3428 -0.2439 -0.5448
   19CHL1  H12A 1364   6.835   1.638  -0.349 -1.4183 -1.5106  2.0674
   19CHL1  H12B 1365   6.920   1.791  -0.311  0.0012 -0.9268 -1.6138
   19CHL1   C11 1366   6.770   1.721  -0.163 -0.7402  1.0015  0.2301
   19CHL1  H11A 1367   6.675   1.664  -0.167  0.6648 -1.5299  0.9079
   19CHL1  H11B 1368   6.850   1.671  -0.105 -0.1049  2.0805  0.3059
   19CHL1    C9 1369   6.726   1.857  -0.099  0.3099 -0.3606 -0.0754
   19CHL1    H9 1370   6.818   1.918  -0.110 -0.7880  1.1772 -1.1579
   19CHL1   C10 1371   6.690   1.857   0.057  0.2766  0.3425 -0.5910
   19CHL1   C19 1372   6.602   1.730   0.070 -0.3264 -0.1262 -0.1553
   19CHL1  H19A 1373   6.656   1.635   0.090 -0.8252  0.0307  2.2498
   19CHL1  H19B 1374   6.526   1.742   0.150  1.1297  0.3876  1.1922
   19CHL1  H19C 1375   6.547   1.718  -0.026  1.2275  0.2421 -1.1192
   19CHL1    C1 1376   6.814   1.848   0.147 -0.0088 -0.2244 -1.0722
   19CHL1   H1A 1377   6.862   1.750   0.123  2.2848  0.1954  1.3225
   19CHL1   H1B 1378   6.889   1.928   0.128  1.3936 -1.3887 -0.6268
   19CHL1    C2 1379   6.789   1.853   0.296  0.1030  0.4744  0.0238
   19CHL1   H2A 1380   6.878   1.856   0.362 -0.4223 -1.3472  0.8929
   19CHL1   H2B 1381   6.722   1.770   0.328 -0.5526  1.9378  2.6763
   19CHL1   C20 1382   6.757   1.769  -0.658  0.2034 -0.6635  0.3076
   19CHL1   H20 1383   6.654   1.733  -0.678  0.1199 -0.9685  1.2292
   19CHL1   C21 1384   6.854   1.662  -0.635  0.6113 -0.3918 -0.3551
   19CHL1  H21A 1385   6.950   1.711  -0.612 -0.5071  2.2511 -0.9730
   19CHL1  H21B 1386   6.864   1.593  -0.721  0.9849  0.5731 -1.1019
   19CHL1  H21C 1387   6.814   1.605  -0.548  0.6971  0.6553  0.3876
   19CHL1   C22 1388   6.791   1.840  -0.792 -0.2652 -0.5142  0.0581
   19CHL1  H22A 1389   6.785   1.764  -0.872  3.4939  0.2349 -1.1343
   19CHL1  H22B 1390   6.715   1.914  -0.826 -0.2845 -1.2666 -1.5931
   19CHL1   C23 1391   6.927   1.907  -0.813  0.0834  0.1174 -0.4530
   19CHL1  H23A 1392   6.945   1.996  -0.749  2.2724  1.4243 -2.6821
   19CHL1  H23B 1393   6.999   1.825  -0.792 -1.8028 -0.9809  2.2898
   19CHL1   C24 1394   6.944   1.971  -0.954 -0.6144 -0.3262 -0.0184
   19CHL1  H24A 1395   6.871   2.055  -0.965 -1.0524 -0.4134  1.9513
   19CHL1  H24B 1396   7.043   2.020  -0.960  0.1039 -1.6362  0.8115
   19CHL1   C25 1397   6.920   1.880  -1.077 -0.0156  0.4633  0.2332
   19CHL1   H25 1398   6.810   1.863  -1.071 -0.2004  1.6728  0.6142
   19CHL1   C26 1399   6.939   1.957  -1.214  0.1952  0.2705  0.3180
   19CHL1  H26A 1400   6.889   2.056  -1.212 -0.8545 -0.1747 -1.6200
   19CHL1  H26B 1401   7.046   1.965  -1.241 -0.4536  1.4727 -2.2135
   19CHL1  H26C 1402   6.903   1.896  -1.300  0.0214  0.5673  0.1786
   19CHL1   C27 1403   7.008   1.756  -1.086  0.4327 -0.1738  0.8898
   19CHL1  H27A 1404   7.110   1.786  -1.053 -0.5465  0.6967  3.3626
   19CHL1  H27B 1405   6.975   1.664  -1.033 -1.1597  0.7994  1.6734
   19CHL1  H27C 1406   7.015   1.724  -1.192  2.2250 -0.2134  0.9924
   20CHL1    C3 1407   1.062   0.027   8.928  0.3392 -0.0591 -0.0272
   20CHL1    H3 1408   1.060  -0.079   8.896  0.2926  0.4081 -1.6347
   20CHL1    O3 1409   1.055   0.037   9.067  0.5362  0.2054 -0.2041
   20CHL1   H3' 1410   1.118  -0.029   9.098  0.6863 -0.6888 -2.2500
   20CHL1    C4 1411   1.201   0.083   8.883 -0.4749 -0.1022  0.5509
   20CHL1   H4A 1412   1.198   0.189   8.917 -1.5817  0.8154 -2.1543
   20CHL1   H4B 1413   1.283   0.041   8.946  0.9809  2.3550  0.4557
   20CHL1    C5 1414   1.215   0.076   8.734  0.4727  0.2401 -0.1663
   20CHL1    C6 1415   1.314   0.003   8.684  0.6135  0.4154  0.9505
   20CHL1    H6 1416   1.377  -0.052   8.755 -1.0358  1.6452  3.5340
   20CHL1    C7 1417   1.350  -0.006   8.544  0.1865 -0.4034  0.1672
   20CHL1   H7A 1418   1.459  -0.007   8.528  0.6582  0.3124  2.8652
   20CHL1   H7B 1419   1.309  -0.099   8.499  1.4108 -0.2846 -1.2571
   20CHL1    C8 1420   1.288   0.113   8.466  0.3756  0.0470  1.0376
   20CHL1    H8 1421   1.330   0.210   8.497 -1.0257  0.2794  2.3235
   20CHL1   C14 1422   1.302   0.099   8.321 -0.3711  0.2044  0.8721
   20CHL1   H14 1423   1.253   0.002   8.294  0.8571  0.0129 -0.8744
   20CHL1   C15 1424   1.438   0.072   8.259 -0.5624 -0.3707 -0.1151
   20CHL1  H15A 1425   1.501   0.161   8.278 -1.1609  0.4941 -1.9075
   20CHL1  H15B 1426   1.492  -0.022   8.283 -0.2740 -0.0215  0.6524
   20CHL1   C16 1427   1.420   0.092   8.109 -0.0819 -0.5284  0.4018
   20CHL1  H16A 1428   1.489   0.171   8.074  0.4009  0.5274  3.4437
   20CHL1  H16B 1429   1.426   0.006   8.039 -0.1370  0.4844 -0.8668
   20CHL1   C17 1430   1.274   0.139   8.092 -0.2838  0.1692  1.2636
   20CHL1   H17 1431   1.210   0.052   8.066 -0.8758  1.1692 -0.8323
   20CHL1   C13 1432   1.219   0.196   8.229 -0.0045  0.5687 -0.0325
   20CHL1   C18 1433   1.266   0.344   8.240  0.0711  0.4101 -0.4367
   20CHL1  H18A 1434   1.375   0.342   8.218 -0.1158 -0.9972 -1.3592
   20CHL1  H18B 1435   1.211   0.411   8.170 -3.6421 -2.7048 -0.8396
   20CHL1  H18C 1436   1.259   0.375   8.347 -1.4593 -0.6604 -0.1878
   20CHL1   C12 1437   1.071   0.187   8.260  0.6528  0.0942  0.0662
   20CHL1  H12A 1438   1.008   0.260   8.205  0.6387  0.1835  0.2006
   20CHL1  H12B 1439   1.042   0.081   8.246 -1.7443  0.6803  0.2756
   20CHL1   C11 1440   1.052   0.212   8.403 -0.1616  0.4939 -0.7821
   20CHL1  H11A 1441   1.050   0.322   8.414 -1.4395  0.6270 -1.9694
   20CHL1  H11B 1442   0.944   0.190   8.420  0.0454 -0.9113 -1.1279
   20CHL1    C9 1443   1.138   0.118   8.504  0.4860  0.0939 -0.3300
   20CHL1    H9 1444   1.102   0.016   8.476  0.5807 -0.3415  1.0834
   20CHL1   C10 1445   1.110   0.147   8.649  0.7144  0.3045 -0.2460
   20CHL1   C19 1446   1.117   0.299   8.665 -0.4514  0.2442  0.4927
   20CHL1  H19A 1447   1.042   0.364   8.615  0.6378  0.8753 -0.3831
   20CHL1  H19B 1448   1.122   0.325   8.773 -0.0864  0.4096  0.4406
   20CHL1  H19C 1449   1.215   0.322   8.618  0.2357 -1.1681  1.1610
   20CHL1    C1 1450   0.977   0.097   8.694  1.2089 -0.1569  0.5454
   20CHL1   H1A 1451   0.894   0.158   8.652  1.3028 -0.2198  0.2653
   20CHL1   H1B 1452   0.961  -0.011   8.671 -0.3376  0.2613 -0.4971
   20CHL1    C2 1453   0.953   0.107   8.849 -0.3585 -0.0460  0.1294
   20CHL1   H2A 1454   0.862   0.048   8.874 -0.8407  0.5455 -0.2169
   20CHL1   H2B 1455   0.944   0.209   8.892 -1.0034  1.1074 -2.5510
   20CHL1   C20 1456   1.252   0.223   7.960 -0.0723 -0.3276  0.1561
   20CHL1   H20 1457   1.290   0.327   7.973  3.2557 -1.0112 -2.6044
   20CHL1   C21 1458   1.099   0.233   7.937 -0.0852  0.2182 -0.2170
   20CHL1  H21A 1459   1.048   0.134   7.933  1.9354 -1.0727  2.8884
   20CHL1  H21B 1460   1.078   0.286   7.841  3.6491  0.0851 -1.2449
   20CHL1  H21C 1461   1.052   0.299   8.012 -1.7585  0.9289 -1.8093
   20CHL1   C22 1462   1.331   0.183   7.830  0.0955  0.9634  0.6080
   20CHL1  H22A 1463   1.307   0.258   7.751  1.6292  1.7170  0.8239
   20CHL1  H22B 1464   1.438   0.195   7.858  0.0415  2.0794  0.4132
   20CHL1   C23 1465   1.284   0.034   7.786  0.1093 -0.0285 -0.1639
   20CHL1  H23A 1466   1.308  -0.041   7.864  0.4539  0.7246  0.4706
   20CHL1  H23B 1467   1.175   0.016   7.774  0.0611 -1.2340  1.6846
   20CHL1   C24 1468   1.357  -0.016   7.659 -0.3975  0.2123 -0.0477
   20CHL1  H24A 1469   1.311  -0.102   7.606 -0.2462 -0.6047  1.1111
   20CHL1  H24B 1470   1.365   0.068   7.586  0.0074 -0.3498 -0.6586
   20CHL1   C25 1471   1.506  -0.062   7.681  0.5883 -0.0140 -0.3790
   20CHL1   H25 1472   1.567   0.009   7.742  2.0059 -2.0445  0.6770
   20CHL1   C26 1473   1.519  -0.188   7.767 -0.5614 -0.4916 -0.2363
   20CHL1  H26A 1474   1.479  -0.166   7.868 -0.3201 -1.4544  0.0779
   20CHL1  H26B 1475   1.474  -0.281   7.726 -0.0964 -1.1090  0.6123
   20CHL1  H26C 1476   1.623  -0.224   7.780 -0.5413 -0.2312  0.3790
   20CHL1   C27 1477   1.561  -0.086   7.539  0.1976  0.2648  0.3856
   20CHL1  H27A 1478   1.544   0.003   7.475 -2.5096  0.7062  1.6086
   20CHL1  H27B 1479   1.670  -0.108   7.544  0.0901 -1.5158 -2.4869
   20CHL1  H27C 1480   1.524  -0.179   7.491 -0.2119  0.8514 -0.4613
   21CHL1    C3 1481   5.338   3.084   0.093  0.1858  0.2882 -0.2699
   21CHL1    H3 1482   5.341   3.176   0.030  1.8346  0.0909 -0.5422
   21CHL1    O3 1483   5.251   3.094   0.201  0.1562 -0.3548  0.3638
   21CHL1   H3' 1484   5.283   3.158   0.265  1.0626 -0.7450  0.3039
   21CHL1    C4 1485   5.288   2.972   0.006 -0.1601  0.2462 -0.0637
   21CHL1   H4A 1486   5.277   2.877   0.063 -2.2847 -1.1680 -2.6388
   21CHL1   H4B 1487   5.184   2.993  -0.024 -0.8403 -1.2144  1.1426
   21CHL1    C5 1488   5.380   2.949  -0.112  0.0905  0.1264  0.5562
   21CHL1    C6 1489   5.334   2.941  -0.239 -0.6485 -0.7480  0.5933
   21CHL1    H6 1490   5.226   2.933  -0.258 -0.4839 -2.0470  0.1220
   21CHL1    C7 1491   5.428   2.933  -0.355 -0.3251  0.7188  0.0270
   21CHL1   H7A 1492   5.388   2.868  -0.436 -0.2461  1.7839 -0.8887
   21CHL1   H7B 1493   5.437   3.035  -0.400  0.0968  0.5217 -0.3437
   21CHL1    C8 1494   5.567   2.880  -0.320 -0.5961 -0.2242  0.1293
   21CHL1    H8 1495   5.566   2.775  -0.284 -1.4294  0.2471  1.5887
   21CHL1   C14 1496   5.656   2.904  -0.440  0.1618  0.4671  0.6402
   21CHL1   H14 1497   5.662   3.015  -0.449 -1.7321  0.7477  2.2583
   21CHL1   C15 1498   5.614   2.847  -0.577  0.1873 -0.0501 -0.2393
   21CHL1  H15A 1499   5.568   2.747  -0.558 -1.9603  0.5216 -1.9904
   21CHL1  H15B 1500   5.533   2.902  -0.630 -0.9383 -0.6422  0.7929
   21CHL1   C16 1501   5.743   2.834  -0.652  0.3727 -0.1010  0.2978
   21CHL1  H16A 1502   5.758   2.732  -0.695  0.4597  0.4751 -1.0919
   21CHL1  H16B 1503   5.740   2.901  -0.740  0.7624 -1.0217 -0.4284
   21CHL1   C17 1504   5.858   2.872  -0.558  0.8228  0.0717  0.6548
   21CHL1   H17 1505   5.864   2.982  -0.571 -0.6575  0.2196  1.1246
   21CHL1   C13 1506   5.802   2.851  -0.418 -0.7163 -0.5280  0.2404
   21CHL1   C18 1507   5.801   2.706  -0.384  0.3148  0.5481 -0.2027
   21CHL1  H18A 1508   5.906   2.672  -0.397  0.6388  1.0695  0.8806
   21CHL1  H18B 1509   5.783   2.686  -0.276  1.1654 -1.8492 -0.4421
   21CHL1  H18C 1510   5.730   2.651  -0.450  0.8435 -0.4751  0.0492
   21CHL1   C12 1511   5.860   2.935  -0.297 -0.1930 -0.3536  0.5515
   21CHL1  H12A 1512   5.963   2.897  -0.279 -0.6796 -0.7423  2.7046
   21CHL1  H12B 1513   5.876   3.041  -0.326 -0.3342 -0.5130 -0.1207
   21CHL1   C11 1514   5.775   2.923  -0.177  0.3756  0.3058 -0.4028
   21CHL1  H11A 1515   5.784   2.826  -0.124 -1.9107  1.0307  1.5106
   21CHL1  H11B 1516   5.816   3.002  -0.110  1.3755 -0.5212 -0.0076
   21CHL1    C9 1517   5.626   2.949  -0.200  0.1005 -0.7211  0.3769
   21CHL1    H9 1518   5.616   3.054  -0.234 -3.5703 -1.3844 -1.0436
   21CHL1   C10 1519   5.529   2.942  -0.077 -0.4732 -0.4209  0.0508
   21CHL1   C19 1520   5.551   2.803  -0.009 -1.0046  0.1270 -0.2410
   21CHL1  H19A 1521   5.650   2.801   0.041  1.0385 -0.8874 -3.9439
   21CHL1  H19B 1522   5.470   2.790   0.066 -0.6972 -0.0130  0.0745
   21CHL1  H19C 1523   5.552   2.724  -0.087  0.5470  0.3437 -0.4708
   21CHL1    C1 1524   5.578   3.044   0.022 -0.4672 -0.8696 -0.0917
   21CHL1   H1A 1525   5.684   3.032   0.052  0.5496  0.8776 -2.6288
   21CHL1   H1B 1526   5.581   3.142  -0.030 -0.1223 -1.2569 -0.8285
   21CHL1    C2 1527   5.481   3.063   0.139 -0.4456 -0.7189 -0.8895
   21CHL1   H2A 1528   5.520   3.145   0.203  0.2471 -1.8392  0.1570
   21CHL1   H2B 1529   5.467   2.982   0.213  2.1508  2.1932  3.3026
   21CHL1   C20 1530   5.992   2.824  -0.603 -0.0675  0.2989 -0.3891
   21CHL1   H20 1531   5.996   2.714  -0.593 -0.4537  0.2260 -0.9932
   21CHL1   C21 1532   6.099   2.891  -0.518 -0.4590  0.2121  0.1968
   21CHL1  H21A 1533   6.109   2.850  -0.416 -0.5878 -0.4838 -0.0635
   21CHL1  H21B 1534   6.088   3.001  -0.513 -0.3201  0.1640  1.9463
   21CHL1  H21C 1535   6.192   2.857  -0.568 -0.1315  1.1995  0.1240
   21CHL1   C22 1536   6.024   2.850  -0.753 -0.7482 -0.4888 -0.0466
   21CHL1  H22A 1537   5.934   2.832  -0.815 -0.8021 -1.4929  0.3091
   21CHL1  H22B 1538   6.053   2.957  -0.769 -0.6304 -0.8699 -2.8833
   21CHL1   C23 1539   6.137   2.763  -0.819  0.4013 -0.1861 -0.1266
   21CHL1  H23A 1540   6.232   2.761  -0.762  0.1337 -2.1857  0.3219
   21CHL1  H23B 1541   6.102   2.658  -0.810  0.6003 -0.4873 -2.4054
   21CHL1   C24 1542   6.171   2.801  -0.964  0.1822  0.0781 -0.8362
   21CHL1  H24A 1543   6.085   2.846  -1.017  0.5396  0.5513 -1.0277
   21CHL1  H24B 1544   6.236   2.891  -0.962  0.0398  0.2007  1.4021
   21CHL1   C25 1545   6.253   2.684  -1.028 -0.4574 -0.5152 -0.1338
   21CHL1   H25 1546   6.324   2.640  -0.955 -0.2554  0.6245  0.3884
   21CHL1   C26 1547   6.157   2.574  -1.081 -0.4678 -0.3297 -0.0066
   21CHL1  H26A 1548   6.210   2.503  -1.148 -2.0495 -2.2424  0.6747
   21CHL1  H26B 1549   6.113   2.517  -0.996 -0.5488 -0.7656 -0.3357
   21CHL1  H26C 1550   6.075   2.626  -1.135  1.2807  0.2998 -2.1814
   21CHL1   C27 1551   6.333   2.727  -1.155  0.2014  0.0821  0.3093
   21CHL1  H27A 1552   6.402   2.655  -1.202 -0.8472 -0.1272 -0.9581
   21CHL1  H27B 1553   6.263   2.770  -1.229  0.2392  3.4600  2.0348
   21CHL1  H27C 1554   6.408   2.804  -1.126  0.2832  0.2802 -0.4216
   22CHL1    C3 1555   6.434   6.345   0.369  0.3995 -0.1408 -0.5997
   22CHL1    H3 1556   6.342   6.401   0.344 -0.1481 -0.7047  0.1168
   22CHL1    O3 1557   6.441   6.335   0.511 -0.1250 -0.8744 -0.1111
   22CHL1   H3' 1558   6.409   6.248   0.536  1.2691 -1.4137 -0.1088
   22CHL1    C4 1559   6.430   6.201   0.313 -0.4332 -0.1353  0.0707
   22CHL1   H4A 1560   6.513   6.145   0.361  0.2110  0.9949  0.2960
   22CHL1   H4B 1561   6.336   6.153   0.347  0.3860 -2.2196 -0.4366
   22CHL1    C5 1562   6.450   6.191   0.162 -0.8902 -0.4385 -0.2056
   22CHL1    C6 1563   6.370   6.108   0.093  0.2828  0.4952  0.3799
   22CHL1    H6 1564   6.287   6.050   0.136  0.0515 -0.0630 -0.7909
   22CHL1    C7 1565   6.373   6.092  -0.058  0.0113 -0.1424 -0.0208
   22CHL1   H7A 1566   6.380   5.984  -0.085 -1.7722 -0.8207  2.0120
   22CHL1   H7B 1567   6.275   6.119  -0.104 -0.1860 -1.8768 -0.7012
   22CHL1    C8 1568   6.485   6.175  -0.132 -0.2153 -0.4016  0.7459
   22CHL1    H8 1569   6.578   6.114  -0.126  0.0097 -0.3044 -1.0677
   22CHL1   C14 1570   6.451   6.187  -0.283 -0.3859  0.4699 -0.1100
   22CHL1   H14 1571   6.367   6.260  -0.294  0.4481  1.1253 -3.1927
   22CHL1   C15 1572   6.409   6.059  -0.358 -0.6236 -0.0447  0.2617
   22CHL1  H15A 1573   6.478   5.974  -0.339  1.2462  1.0141 -1.3208
   22CHL1  H15B 1574   6.305   6.032  -0.333 -0.7312 -1.0022 -1.1112
   22CHL1   C16 1575   6.419   6.097  -0.507  0.3073 -0.4160  0.8693
   22CHL1  H16A 1576   6.473   6.010  -0.550 -0.0333 -1.2712  2.1376
   22CHL1  H16B 1577   6.322   6.097  -0.562  0.1305  0.4308  1.1659
   22CHL1   C17 1578   6.489   6.236  -0.515  0.0390  0.2684 -0.3261
   22CHL1   H17 1579   6.403   6.306  -0.516 -0.3956 -0.2265  0.7552
   22CHL1   C13 1580   6.559   6.248  -0.372  0.4936 -0.2964  0.2609
   22CHL1   C18 1581   6.686   6.163  -0.377 -0.6760  0.0032  1.1438
   22CHL1  H18A 1582   6.723   6.154  -0.272 -1.6873  3.3540  1.9148
   22CHL1  H18B 1583   6.676   6.057  -0.409  2.2416 -0.0168  0.0298
   22CHL1  H18C 1584   6.760   6.208  -0.447 -1.5896  0.9079  0.7424
   22CHL1   C12 1585   6.592   6.388  -0.308 -0.0518  0.0837 -0.7938
   22CHL1  H12A 1586   6.665   6.455  -0.358 -1.1335  0.1737 -2.3053
   22CHL1  H12B 1587   6.495   6.443  -0.310 -1.4816 -2.1633  1.1378
   22CHL1   C11 1588   6.627   6.385  -0.155 -0.9244  0.1919 -0.2867
   22CHL1  H11A 1589   6.727   6.337  -0.146  0.5084  2.6949 -1.5418
   22CHL1  H11B 1590   6.648   6.490  -0.123 -1.5281 -0.0086  0.8229
   22CHL1    C9 1591   6.522   6.306  -0.065 -0.2239 -0.0420  0.4755
   22CHL1    H9 1592   6.436   6.377  -0.063  0.7700  1.2128 -0.2849
   22CHL1   C10 1593   6.553   6.283   0.093  0.4636  0.2079 -0.6199
   22CHL1   C19 1594   6.697   6.227   0.111  1.2038  0.6276  0.2186
   22CHL1  H19A 1595   6.771   6.305   0.084  2.5289  0.0122  1.9095
   22CHL1  H19B 1596   6.719   6.209   0.218 -1.4952  0.3741  0.8150
   22CHL1  H19C 1597   6.720   6.129   0.064 -0.4842  1.0246 -1.5465
   22CHL1    C1 1598   6.551   6.434   0.156 -0.3317  0.3652 -0.2533
   22CHL1   H1A 1599   6.635   6.493   0.114 -0.3446  0.0564 -0.7202
   22CHL1   H1B 1600   6.456   6.482   0.124 -3.2024 -3.2102  2.0256
   22CHL1    C2 1601   6.554   6.422   0.312 -1.1427  0.1559 -0.4109
   22CHL1   H2A 1602   6.563   6.521   0.361 -0.4552 -0.0493 -0.1109
   22CHL1   H2B 1603   6.643   6.368   0.351 -0.3007  1.9009  0.1576
   22CHL1   C20 1604   6.572   6.266  -0.636 -0.2032 -0.3233 -0.2679
   22CHL1   H20 1605   6.660   6.199  -0.644  0.5481  0.5139  0.6370
   22CHL1   C21 1606   6.640   6.402  -0.629 -0.5192 -0.1530  0.5624
   22CHL1  H21A 1607   6.556   6.475  -0.624  0.5913  1.1316  0.9813
   22CHL1  H21B 1608   6.696   6.419  -0.723 -1.2627 -0.0342  0.1345
   22CHL1  H21C 1609   6.719   6.410  -0.551  2.0109  1.9586 -2.0279
   22CHL1   C22 1610   6.493   6.239  -0.767  0.1491  0.1894  0.1360
   22CHL1  H22A 1611   6.450   6.137  -0.754  1.9167 -0.5281  0.7706
   22CHL1  H22B 1612   6.406   6.306  -0.781 -0.7864 -1.0945 -0.3908
   22CHL1   C23 1613   6.581   6.237  -0.890 -0.3329 -1.2822 -0.5692
   22CHL1  H23A 1614   6.632   6.336  -0.904 -0.1348 -1.1003  1.1645
   22CHL1  H23B 1615   6.654   6.158  -0.862  0.5925  0.0978  1.2181
   22CHL1   C24 1616   6.516   6.200  -1.019  0.9882 -0.2191  0.7369
   22CHL1  H24A 1617   6.456   6.107  -1.007 -0.2558  0.5408  0.5073
   22CHL1  H24B 1618   6.446   6.276  -1.060 -0.6306 -1.1506  1.6692
   22CHL1   C25 1619   6.620   6.178  -1.131 -0.5964  0.3930 -0.0401
   22CHL1   H25 1620   6.690   6.264  -1.131  0.3133 -0.3222 -1.1513
   22CHL1   C26 1621   6.710   6.055  -1.096  0.2145 -0.5196 -0.1950
   22CHL1  H26A 1622   6.820   6.073  -1.099  0.6573 -2.2365  2.4019
   22CHL1  H26B 1623   6.700   6.021  -0.991  0.6424 -2.4358 -0.7354
   22CHL1  H26C 1624   6.673   5.967  -1.153  0.0659  0.0249 -0.9616
   22CHL1   C27 1625   6.565   6.174  -1.275 -0.1843  0.1225  0.2250
   22CHL1  H27A 1626   6.494   6.258  -1.287 -0.0892  0.0325 -1.1075
   22CHL1  H27B 1627   6.642   6.204  -1.349  0.0967  0.6843  0.7385
   22CHL1  H27C 1628   6.507   6.080  -1.288 -2.1094  1.4645 -1.5514
   23CHL1    C3 1629   3.001   3.335   8.852  0.1995  0.2370  0.3497
   23CHL1    H3 1630   3.078   3.262   8.885  0.0062  0.2581  0.8649
   23CHL1    O3 1631   2.916   3.350   8.965 -0.1268  0.3451 -0.0021
   23CHL1   H3' 1632   2.889   3.262   8.991 -3.6449  0.9120 -1.1476
   23CHL1    C4 1633   3.063   3.466   8.800 -0.0392  0.1748  0.3582
   23CHL1   H4A 1634   2.967   3.513   8.768 -1.2210 -2.9939 -1.1712
   23CHL1   H4B 1635   3.113   3.509   8.889  0.1388 -2.2738  1.5095
   23CHL1    C5 1636   3.158   3.433   8.686  0.2484 -1.0781  0.0886
   23CHL1    C6 1637   3.288   3.470   8.686  0.5583 -0.7020 -0.3426
   23CHL1    H6 1638   3.318   3.522   8.778 -1.7774 -0.5036  0.3721
   23CHL1    C7 1639   3.372   3.468   8.565 -0.1423  0.7415 -0.3568
   23CHL1   H7A 1640   3.425   3.564   8.550  1.1830  0.2334  0.8120
   23CHL1   H7B 1641   3.450   3.388   8.567 -2.1111 -1.3062 -1.1763
   23CHL1    C8 1642   3.291   3.432   8.439  0.1425 -0.1482  0.4309
   23CHL1    H8 1643   3.233   3.523   8.411 -0.2526 -0.8806 -1.2456
   23CHL1   C14 1644   3.381   3.406   8.314  0.3464 -0.2067 -0.7990
   23CHL1   H14 1645   3.431   3.311   8.345 -0.8092 -0.6444 -0.2050
   23CHL1   C15 1646   3.502   3.503   8.285  0.0064  0.7257  0.1643
   23CHL1  H15A 1647   3.471   3.608   8.303 -2.5008  0.1897 -0.6266
   23CHL1  H15B 1648   3.595   3.481   8.341  0.5212  0.8176 -0.6500
   23CHL1   C16 1649   3.530   3.476   8.136 -0.0773  0.1062 -0.0267
   23CHL1  H16A 1650   3.500   3.572   8.089 -2.1276 -0.3301  0.2813
   23CHL1  H16B 1651   3.637   3.450   8.119 -0.3856 -1.1321 -0.1627
   23CHL1   C17 1652   3.432   3.367   8.083  0.1011  0.3346  0.1347
   23CHL1   H17 1653   3.491   3.274   8.067 -0.7083 -0.1714  0.0485
   23CHL1   C13 1654   3.312   3.372   8.184  0.0173 -0.5838  0.6015
   23CHL1   C18 1655   3.226   3.496   8.140  0.1308  1.1536  0.2519
   23CHL1  H18A 1656   3.166   3.474   8.049  0.6415  0.6385  0.0297
   23CHL1  H18B 1657   3.151   3.533   8.212 -0.0913  2.5842 -0.6532
   23CHL1  H18C 1658   3.294   3.581   8.114  1.5343 -0.5013 -1.8492
   23CHL1   C12 1659   3.222   3.243   8.205 -0.4452 -0.0579 -0.0283
   23CHL1  H12A 1660   3.169   3.225   8.109  1.6934 -0.0687 -1.2709
   23CHL1  H12B 1661   3.293   3.160   8.227 -0.0181  0.4950  0.7294
   23CHL1   C11 1662   3.129   3.267   8.320 -0.1848 -0.0035 -0.3277
   23CHL1  H11A 1663   3.052   3.338   8.283 -3.4058 -2.5313  1.0301
   23CHL1  H11B 1664   3.077   3.172   8.346 -0.7016  0.7161  1.4428
   23CHL1    C9 1665   3.191   3.320   8.459 -0.1316 -0.1750 -0.3199
   23CHL1    H9 1666   3.241   3.233   8.505 -1.7399 -2.0482 -1.9266
   23CHL1   C10 1667   3.088   3.373   8.569 -0.1025  0.8358  0.4630
   23CHL1   C19 1668   2.979   3.454   8.502  0.4452 -0.8444 -0.3301
   23CHL1  H19A 1669   2.913   3.503   8.576  1.6737 -0.6613  0.6695
   23CHL1  H19B 1670   3.026   3.530   8.435  1.5362  0.2938  1.6550
   23CHL1  H19C 1671   2.916   3.390   8.436 -1.0537  1.4608 -1.2970
   23CHL1    C1 1672   3.018   3.243   8.622  0.0337 -0.2074  0.1632
   23CHL1   H1A 1673   2.973   3.186   8.538 -0.9834  2.6405 -1.3908
   23CHL1   H1B 1674   3.100   3.180   8.662  0.3044  0.9820  1.5759
   23CHL1    C2 1675   2.922   3.267   8.741  0.2785 -0.1188 -0.3341
   23CHL1   H2A 1676   2.874   3.172   8.771  2.6614 -1.3591 -0.1909
   23CHL1   H2B 1677   2.844   3.343   8.717  0.2678  0.3952  1.2088
   23CHL1   C20 1678   3.405   3.410   7.936  0.1543 -0.2434  0.6387
   23CHL1   H20 1679   3.355   3.509   7.925  1.8451  0.4767 -0.9751
   23CHL1   C21 1680   3.318   3.308   7.865 -0.2804 -0.4084 -0.0617
   23CHL1  H21A 1681   3.368   3.214   7.832  1.0558 -0.1643  1.1807
   23CHL1  H21B 1682   3.272   3.354   7.775  0.3001 -0.9424 -0.6456
   23CHL1  H21C 1683   3.229   3.299   7.931 -0.9337  1.1667 -0.6802
   23CHL1   C22 1684   3.534   3.429   7.857 -0.4454  0.4062  0.6313
   23CHL1  H22A 1685   3.604   3.499   7.907 -1.0066  1.8073 -0.4604
   23CHL1  H22B 1686   3.578   3.329   7.838  0.3871  1.1207 -1.5433
   23CHL1   C23 1687   3.506   3.489   7.715  0.4096 -0.0885 -0.0944
   23CHL1  H23A 1688   3.438   3.425   7.655  2.7618 -0.5134 -2.4692
   23CHL1  H23B 1689   3.453   3.585   7.734  0.8635  0.0036  0.7208
   23CHL1   C24 1690   3.643   3.506   7.637  0.6621  0.5951  0.3082
   23CHL1  H24A 1691   3.700   3.588   7.686 -0.3306  0.0317  2.5896
   23CHL1  H24B 1692   3.686   3.404   7.647  1.4123  1.0003  1.4805
   23CHL1   C25 1693   3.627   3.533   7.490  0.1317 -0.4843  0.0713
   23CHL1   H25 1694   3.542   3.465   7.466  0.6021 -1.1381  0.2516
   23CHL1   C26 1695   3.590   3.681   7.466  0.0764 -0.0378 -0.1012
   23CHL1  H26A 1696   3.538   3.733   7.549  1.8511  2.7163 -0.5725
   23CHL1  H26B 1697   3.671   3.753   7.441 -0.2323  1.3845  2.5921
   23CHL1  H26C 1698   3.515   3.684   7.383 -2.2079 -0.8933  1.8166
   23CHL1   C27 1699   3.748   3.491   7.408  0.7301 -0.7081 -0.2659
   23CHL1  H27A 1700   3.835   3.548   7.447 -0.0179  0.9235 -0.8604
   23CHL1  H27B 1701   3.762   3.383   7.427  1.5833 -0.6057 -0.2849
   23CHL1  H27C 1702   3.730   3.515   7.301 -1.2260  1.0803  0.3859
   24CHL1    C3 1703   0.279   0.637   0.230  0.5327  0.2493  0.3707
   24CHL1    H3 1704   0.234   0.548   0.182  1.3563  0.6083 -1.1438
   24CHL1    O3 1705   0.328   0.636   0.362  0.7540  1.0117  0.1904
   24CHL1   H3' 1706   0.415   0.597   0.353 -0.4606 -1.5789 -1.0312
   24CHL1    C4 1707   0.391   0.679   0.131 -0.0679  0.0734  0.0139
   24CHL1   H4A 1708   0.424   0.782   0.153 -2.6625  0.9601  0.1197
   24CHL1   H4B 1709   0.465   0.598   0.148 -1.2030 -0.9988 -0.0048
   24CHL1    C5 1710   0.356   0.693  -0.015  0.4033  0.5087  0.0327
   24CHL1    C6 1711   0.411   0.618  -0.113  0.4606  0.6399 -0.5873
   24CHL1    H6 1712   0.481   0.541  -0.079 -1.7563 -0.4631  1.8191
   24CHL1    C7 1713   0.370   0.632  -0.254  0.3117  0.0595  0.1306
   24CHL1   H7A 1714   0.465   0.647  -0.309 -1.3551  0.3964 -2.8231
   24CHL1   H7B 1715   0.318   0.540  -0.287  1.4545 -0.7564  0.5184
   24CHL1    C8 1716   0.281   0.754  -0.283 -0.8699 -0.0739 -0.0868
   24CHL1    H8 1717   0.348   0.843  -0.273  1.9491 -2.1720  1.1121
   24CHL1   C14 1718   0.211   0.739  -0.413  0.2932 -0.0356  0.5652
   24CHL1   H14 1719   0.139   0.655  -0.402 -0.3923  0.5003  0.2291
   24CHL1   C15 1720   0.301   0.703  -0.543 -0.0769 -0.5793  0.4709
   24CHL1  H15A 1721   0.397   0.754  -0.521 -0.2080 -0.3355  0.4732
   24CHL1  H15B 1722   0.309   0.592  -0.543  0.1920 -0.5593  0.4483
   24CHL1   C16 1723   0.236   0.768  -0.663 -0.9848 -0.3973  0.0581
   24CHL1  H16A 1724   0.302   0.855  -0.684 -1.8173  0.5744  1.3465
   24CHL1  H16B 1725   0.228   0.698  -0.749  0.6924 -0.5486 -0.0053
   24CHL1   C17 1726   0.095   0.821  -0.608 -0.0013 -0.3632 -0.9853
   24CHL1   H17 1727   0.029   0.731  -0.607 -1.7313  0.8395 -0.9247
   24CHL1   C13 1728   0.129   0.858  -0.454  0.2869  0.0902 -0.5528
   24CHL1   C18 1729   0.212   0.985  -0.453  0.1360  0.2676 -0.0768
   24CHL1  H18A 1730   0.295   0.980  -0.527  0.4686 -0.6921  0.3358
   24CHL1  H18B 1731   0.139   1.067  -0.466 -1.1538 -0.2089  3.1767
   24CHL1  H18C 1732   0.257   1.015  -0.355 -0.2379  0.3411  0.0724
   24CHL1   C12 1733   0.011   0.879  -0.352 -0.5756 -0.0128  0.2616
   24CHL1  H12A 1734  -0.047   0.971  -0.376  1.1990  1.1253  0.1812
   24CHL1  H12B 1735  -0.051   0.787  -0.344  0.7836 -0.9152  0.7437
   24CHL1   C11 1736   0.079   0.896  -0.213  0.0033  1.0324  0.3849
   24CHL1  H11A 1737   0.124   0.997  -0.204 -1.0114  1.6761 -1.2118
   24CHL1  H11B 1738  -0.007   0.882  -0.144 -0.5151 -1.6889 -0.6656
   24CHL1    C9 1739   0.177   0.776  -0.171  0.2773 -0.2785 -0.4567
   24CHL1    H9 1740   0.116   0.683  -0.168  0.2249 -0.2304  1.4070
   24CHL1   C10 1741   0.238   0.785  -0.031  0.4656  0.1806  0.2504
   24CHL1   C19 1742   0.300   0.929  -0.014 -0.2905 -0.3340  0.2205
   24CHL1  H19A 1743   0.213   0.994   0.011 -0.3433 -0.2902 -0.0824
   24CHL1  H19B 1744   0.358   0.943   0.080 -0.9481  1.5942  0.3855
   24CHL1  H19C 1745   0.344   0.974  -0.105 -3.1550 -0.6053 -1.4421
   24CHL1    C1 1746   0.125   0.763   0.079 -0.0314  0.3837 -0.9891
   24CHL1   H1A 1747   0.054   0.847   0.071 -0.7680 -0.2680 -1.4144
   24CHL1   H1B 1748   0.065   0.671   0.064  1.1788 -0.5983 -0.0560
   24CHL1    C2 1749   0.181   0.756   0.224 -0.2358  0.1042  0.0112
   24CHL1   H2A 1750   0.107   0.735   0.305  0.0239 -1.5130 -0.1359
   24CHL1   H2B 1751   0.236   0.848   0.251  0.9255 -0.5790  0.0275
   24CHL1   C20 1752   0.023   0.925  -0.695  0.2468 -0.6289  0.9882
   24CHL1   H20 1753   0.038   1.026  -0.651  0.7375 -0.3783  0.2542
   24CHL1   C21 1754  -0.126   0.897  -0.690  0.7341  0.1082  0.7199
   24CHL1  H21A 1755  -0.182   0.983  -0.732  0.2703 -0.6665 -0.3018
   24CHL1  H21B 1756  -0.158   0.875  -0.586 -0.5082 -1.9175 -0.0316
   24CHL1  H21C 1757  -0.156   0.806  -0.746 -0.6510  1.4334 -0.7806
   24CHL1   C22 1758   0.082   0.930  -0.842  0.4826  0.9543  0.2131
   24CHL1  H22A 1759   0.190   0.947  -0.861  0.7783 -0.0865  0.9147
   24CHL1  H22B 1760   0.048   0.835  -0.888  2.4391  1.0626 -1.6646
   24CHL1   C23 1761   0.027   1.038  -0.943  0.1004 -0.7713  0.0974
   24CHL1  H23A 1762  -0.083   1.031  -0.952 -0.1824  2.4668  0.0070
   24CHL1  H23B 1763   0.072   1.133  -0.908  3.3447 -2.3759  0.6995
   24CHL1   C24 1764   0.093   1.019  -1.084 -0.0790  0.2094  0.7817
   24CHL1  H24A 1765   0.203   1.015  -1.067  0.0267 -4.0102  0.0615
   24CHL1  H24B 1766   0.059   0.926  -1.133 -1.1833 -0.0919  2.0735
   24CHL1   C25 1767   0.055   1.136  -1.184 -0.0926  0.2084 -0.0937
   24CHL1   H25 1768  -0.040   1.180  -1.146 -0.4676 -0.2283 -0.5246
   24CHL1   C26 1769   0.160   1.240  -1.192  0.0925  0.2925  0.3026
   24CHL1  H26A 1770   0.205   1.260  -1.093  1.5234 -1.8971  0.1603
   24CHL1  H26B 1771   0.239   1.219  -1.268 -0.5458  0.7076 -0.5024
   24CHL1  H26C 1772   0.115   1.338  -1.221 -0.7240 -0.0349  0.4239
   24CHL1   C27 1773   0.018   1.081  -1.316 -0.4872  0.5372 -0.0058
   24CHL1  H27A 1774   0.101   1.034  -1.372 -0.5706 -1.1678  1.2535
   24CHL1  H27B 1775  -0.048   0.994  -1.296 -2.1000  1.9465  1.0510
   24CHL1  H27C 1776  -0.036   1.161  -1.372  0.1347  2.3399  1.8669
   25CHL1    C3 1777   5.999   5.713   0.354 -0.9785 -0.5495  0.1817
   25CHL1    H3 1778   5.892   5.696   0.327 -1.2115 -0.3696  0.9604
   25CHL1    O3 1779   6.006   5.736   0.494  0.4325  0.6325 -0.4876
   25CHL1   H3' 1780   6.095   5.765   0.515  1.1879  0.1252 -2.7024
   25CHL1    C4 1781   6.094   5.601   0.323 -0.2856  0.8396  0.0984
   25CHL1   H4A 1782   6.191   5.609   0.376 -0.5041  0.1840  0.6051
   25CHL1   H4B 1783   6.052   5.508   0.366  1.7004  0.1467  0.6731
   25CHL1    C5 1784   6.116   5.570   0.180 -0.3836  0.1191  0.5112
   25CHL1    C6 1785   6.105   5.448   0.123  0.8991  0.2896 -0.2748
   25CHL1    H6 1786   6.074   5.362   0.184  1.6767 -0.8773 -1.4703
   25CHL1    C7 1787   6.121   5.414  -0.020 -0.2116 -0.5724  0.6264
   25CHL1   H7A 1788   6.195   5.333  -0.040  0.2321 -0.1502  0.5325
   25CHL1   H7B 1789   6.019   5.382  -0.050 -0.2263 -0.7053  0.8151
   25CHL1    C8 1790   6.173   5.531  -0.105  0.0815  0.1413  0.3392
   25CHL1    H8 1791   6.281   5.531  -0.081  0.4674 -0.6892 -1.2624
   25CHL1   C14 1792   6.151   5.512  -0.254 -0.0788 -0.5389  0.6732
   25CHL1   H14 1793   6.042   5.514  -0.277 -0.3046  1.2011  1.7051
   25CHL1   C15 1794   6.189   5.381  -0.327 -0.2164 -0.4136 -0.1389
   25CHL1  H15A 1795   6.287   5.336  -0.301 -0.1370  0.8467  1.9824
   25CHL1  H15B 1796   6.107   5.309  -0.306 -2.3653  1.7375 -0.7274
   25CHL1   C16 1797   6.198   5.412  -0.476 -0.5354 -0.5717  0.2551
   25CHL1  H16A 1798   6.303   5.390  -0.502 -1.0687 -1.6842 -1.1424
   25CHL1  H16B 1799   6.134   5.343  -0.536 -2.0738  0.4735  0.6243
   25CHL1   C17 1800   6.170   5.557  -0.491  0.1030 -0.1238 -0.1961
   25CHL1   H17 1801   6.060   5.569  -0.497  0.1860  1.7883  1.2663
   25CHL1   C13 1802   6.206   5.614  -0.357  0.3372 -0.2501  0.5120
   25CHL1   C18 1803   6.360   5.611  -0.337 -1.0031  0.3489  0.5025
   25CHL1  H18A 1804   6.376   5.672  -0.245 -2.2237 -1.4450  1.9795
   25CHL1  H18B 1805   6.397   5.507  -0.343 -1.4621  0.2123 -0.0185
   25CHL1  H18C 1806   6.407   5.664  -0.423  0.1914  1.3507  1.7323
   25CHL1   C12 1807   6.136   5.746  -0.319 -0.4738 -0.0492  0.2274
   25CHL1  H12A 1808   6.184   5.835  -0.365  1.8938 -1.2663  0.1656
   25CHL1  H12B 1809   6.031   5.730  -0.352 -0.5221  0.0077  0.3531
   25CHL1   C11 1810   6.144   5.778  -0.164  0.0335 -0.4394  0.6246
   25CHL1  H11A 1811   6.250   5.809  -0.161  0.7283 -1.6934 -3.6334
   25CHL1  H11B 1812   6.079   5.866  -0.146  1.0275 -0.1951  3.5028
   25CHL1    C9 1813   6.109   5.658  -0.064 -0.0253 -0.2272 -0.2793
   25CHL1    H9 1814   5.999   5.655  -0.078  0.0784 -1.0184 -0.9831
   25CHL1   C10 1815   6.140   5.687   0.090  0.5376  0.5185  0.0649
   25CHL1   C19 1816   6.295   5.724   0.100  0.2394  0.7128  0.5411
   25CHL1  H19A 1817   6.307   5.829   0.064 -2.2552  0.8703  0.0485
   25CHL1  H19B 1818   6.326   5.738   0.206 -0.2589 -3.9872  1.5213
   25CHL1  H19C 1819   6.358   5.660   0.034  0.1531 -1.7054  2.6649
   25CHL1    C1 1820   6.056   5.807   0.139 -0.0446  0.3452  0.2480
   25CHL1   H1A 1821   6.086   5.897   0.081  3.8352 -1.8386 -1.5210
   25CHL1   H1B 1822   5.950   5.784   0.118  0.2845 -1.6475  0.6075
   25CHL1    C2 1823   6.063   5.840   0.289  0.1380  0.4800  0.0125
   25CHL1   H2A 1824   5.993   5.924   0.310  0.2034  0.5102  0.1052
   25CHL1   H2B 1825   6.164   5.873   0.320 -0.7007  1.1674  2.2184
   25CHL1   C20 1826   6.229   5.614  -0.619 -0.4748  0.2805  0.4817
   25CHL1   H20 1827   6.339   5.598  -0.627 -0.8058 -1.6907 -0.8521
   25CHL1   C21 1828   6.203   5.768  -0.621  0.1511  0.7407  1.2338
   25CHL1  H21A 1829   6.269   5.817  -0.546  2.5679  0.8917 -0.8579
   25CHL1  H21B 1830   6.096   5.791  -0.603 -1.0389  1.0147 -4.3827
   25CHL1  H21C 1831   6.230   5.807  -0.721 -0.2990 -1.4501  0.1987
   25CHL1   C22 1832   6.169   5.553  -0.746  0.3491  0.0261 -0.0266
   25CHL1  H22A 1833   6.226   5.591  -0.833 -0.4593  4.0450  0.9940
   25CHL1  H22B 1834   6.169   5.442  -0.750  0.2815  0.0245  0.0045
   25CHL1   C23 1835   6.021   5.598  -0.778 -0.5432  0.3143  0.5456
   25CHL1  H23A 1836   5.960   5.581  -0.687 -0.0729  2.3891  1.3123
   25CHL1  H23B 1837   6.023   5.708  -0.796 -0.0833  0.2640  0.2596
   25CHL1   C24 1838   5.979   5.520  -0.910  0.1691  0.8737  1.2364
   25CHL1  H24A 1839   6.055   5.536  -0.989 -0.6137 -0.5071  0.1664
   25CHL1  H24B 1840   5.969   5.412  -0.888 -1.1531  0.1843 -2.2421
   25CHL1   C25 1841   5.845   5.587  -0.967 -0.2214  0.0943 -0.0144
   25CHL1   H25 1842   5.759   5.573  -0.897  0.6222 -1.3005  0.7857
   25CHL1   C26 1843   5.849   5.735  -1.011  0.6971  0.4775 -0.5989
   25CHL1  H26A 1844   5.904   5.754  -1.106 -1.3232 -1.2902 -2.2318
   25CHL1  H26B 1845   5.746   5.774  -1.025  0.5279 -0.0310 -0.8176
   25CHL1  H26C 1846   5.892   5.798  -0.931 -0.2967  0.6230 -0.1738
   25CHL1   C27 1847   5.821   5.508  -1.094  0.5105  0.1706 -0.3378
   25CHL1  H27A 1848   5.736   5.550  -1.153 -0.0496 -1.9575 -1.1512
   25CHL1  H27B 1849   5.906   5.506  -1.165  0.3143  1.0449 -0.6168
   25CHL1  H27C 1850   5.798   5.402  -1.071  0.5972  0.4861  1.2759
   26CHL1    C3 1851   0.781   1.832   0.286 -0.8888  0.4439 -0.0658
   26CHL1    H3 1852   0.673   1.843   0.260 -0.7378  2.4740 -0.0088
   26CHL1    O3 1853   0.792   1.860   0.426  0.2672  0.2946 -0.2212
   26CHL1   H3' 1854   0.879   1.896   0.445  0.0890  0.0324  1.2159
   26CHL1    C4 1855   0.826   1.695   0.267 -0.2408 -0.1723  0.2147
   26CHL1   H4A 1856   0.936   1.686   0.286  0.6124  2.2323 -2.8693
   26CHL1   H4B 1857   0.767   1.620   0.325  1.7869 -1.0475  1.2930
   26CHL1    C5 1858   0.809   1.656   0.123  0.1720 -0.4730  0.2696
   26CHL1    C6 1859   0.734   1.552   0.089 -0.4611 -0.3730 -0.3748
   26CHL1    H6 1860   0.681   1.494   0.167  1.1691 -0.2268  0.8788
   26CHL1    C7 1861   0.708   1.511  -0.055 -0.1514 -0.1850 -0.0704
   26CHL1   H7A 1862   0.715   1.401  -0.067  0.6419 -0.0881 -0.5968
   26CHL1   H7B 1863   0.605   1.542  -0.083 -0.3352 -0.7746 -0.0400
   26CHL1    C8 1864   0.814   1.574  -0.149  0.3572  0.5432  0.2407
   26CHL1    H8 1865   0.910   1.524  -0.123 -0.0686 -0.9801 -0.9363
   26CHL1   C14 1866   0.779   1.552  -0.295  0.1219 -1.0756 -0.2401
   26CHL1   H14 1867   0.689   1.614  -0.314  1.6913  1.6763  0.6219
   26CHL1   C15 1868   0.756   1.406  -0.343  0.3824  0.2789 -0.6643
   26CHL1  H15A 1869   0.840   1.342  -0.306  1.1691  1.5000 -0.2566
   26CHL1  H15B 1870   0.661   1.362  -0.307  1.9054 -0.8082  2.3975
   26CHL1   C16 1871   0.775   1.409  -0.498  0.1930  0.3881 -0.3710
   26CHL1  H16A 1872   0.858   1.343  -0.531  1.4845 -0.2898  3.6020
   26CHL1  H16B 1873   0.681   1.383  -0.552  0.7542  0.3164 -1.3259
   26CHL1   C17 1874   0.814   1.558  -0.527 -0.6216 -0.5718 -0.1015
   26CHL1   H17 1875   0.721   1.617  -0.536 -0.2600  0.0493  0.1425
   26CHL1   C13 1876   0.876   1.609  -0.396  0.2246 -0.5764 -0.0158
   26CHL1   C18 1877   1.014   1.544  -0.383  0.0782  0.0820 -0.3121
   26CHL1  H18A 1878   1.072   1.575  -0.293 -0.9635  2.1746 -0.2990
   26CHL1  H18B 1879   1.020   1.433  -0.392 -1.9197 -0.1676  0.9050
   26CHL1  H18C 1880   1.078   1.580  -0.467  0.1783 -0.9943 -0.7078
   26CHL1   C12 1881   0.887   1.763  -0.380 -0.2074  0.0905  0.2335
   26CHL1  H12A 1882   0.974   1.798  -0.440 -0.5804 -1.1619 -1.1004
   26CHL1  H12B 1883   0.789   1.813  -0.399  0.1174  0.8708  0.5724
   26CHL1   C11 1884   0.921   1.792  -0.233  0.0315 -0.4406 -0.6933
   26CHL1  H11A 1885   1.030   1.771  -0.225 -0.1324 -0.8161  1.0088
   26CHL1  H11B 1886   0.921   1.902  -0.221 -1.1403 -0.2804 -1.9100
   26CHL1    C9 1887   0.832   1.728  -0.127  0.2940  0.7060 -0.4465
   26CHL1    H9 1888   0.731   1.773  -0.132 -0.0093 -0.0308 -1.3912
   26CHL1   C10 1889   0.887   1.749   0.021 -0.6509 -0.3512  0.3198
   26CHL1   C19 1890   1.040   1.724   0.041 -0.2956 -0.5211  0.2603
   26CHL1  H19A 1891   1.102   1.771  -0.039 -1.0916  1.7665  0.8964
   26CHL1  H19B 1892   1.079   1.757   0.140 -3.9096  1.6382  1.1622
   26CHL1  H19C 1893   1.050   1.615   0.023  2.6606 -0.2233 -0.3758
   26CHL1    C1 1894   0.863   1.897   0.051  0.6561 -0.1333  1.1507
   26CHL1   H1A 1895   0.931   1.967  -0.001  0.0578  0.3299  0.9808
   26CHL1   H1B 1896   0.760   1.923   0.020 -0.4329 -4.7633  0.0830
   26CHL1    C2 1897   0.864   1.932   0.199  0.2213  0.3315  0.6337
   26CHL1   H2A 1898   0.833   2.038   0.215 -1.0889  0.5432 -2.6883
   26CHL1   H2B 1899   0.969   1.921   0.235  0.8830  1.2622 -0.9179
   26CHL1   C20 1900   0.890   1.588  -0.656 -0.0864  0.5113 -0.0395
   26CHL1   H20 1901   0.998   1.597  -0.635 -0.1159  0.3423  0.1904
   26CHL1   C21 1902   0.836   1.728  -0.700 -0.0369  0.1730  0.5388
   26CHL1  H21A 1903   0.826   1.803  -0.619 -1.3109 -0.6326  1.1472
   26CHL1  H21B 1904   0.737   1.701  -0.743 -0.4110  3.7079 -1.2292
   26CHL1  H21C 1905   0.901   1.775  -0.778  0.2097 -0.3638  0.4170
   26CHL1   C22 1906   0.869   1.473  -0.759 -0.7355  0.3433  0.5245
   26CHL1  H22A 1907   0.927   1.384  -0.729  0.6932  1.2249  0.4757
   26CHL1  H22B 1908   0.763   1.441  -0.768 -0.0823 -1.3138 -2.8462
   26CHL1   C23 1909   0.915   1.500  -0.903 -0.0641  0.8800  0.1354
   26CHL1  H23A 1910   0.873   1.407  -0.946 -0.7499  0.9360  0.6643
   26CHL1  H23B 1911   0.863   1.586  -0.950 -0.5681  0.2156 -0.5255
   26CHL1   C24 1912   1.062   1.513  -0.927 -0.1283 -0.5696 -0.1795
   26CHL1  H24A 1913   1.093   1.608  -0.877 -2.1698 -1.3950  2.9890
   26CHL1  H24B 1914   1.126   1.433  -0.884 -0.6959 -0.9375 -0.0152
   26CHL1   C25 1915   1.095   1.526  -1.081 -0.6431  0.1667  0.0623
   26CHL1   H25 1916   1.204   1.543  -1.095 -0.4332  0.0242  1.4311
   26CHL1   C26 1917   1.066   1.391  -1.147  0.2851 -0.6082  0.1863
   26CHL1  H26A 1918   1.113   1.300  -1.103  1.1664 -0.3145 -0.1365
   26CHL1  H26B 1919   0.956   1.378  -1.138  0.2322  0.4373  1.4787
   26CHL1  H26C 1920   1.089   1.399  -1.255  1.0960 -1.8080  0.2557
   26CHL1   C27 1921   1.029   1.645  -1.153  0.2783  0.4315 -0.0183
   26CHL1  H27A 1922   1.029   1.735  -1.089  0.7807  1.9744 -2.0606
   26CHL1  H27B 1923   1.086   1.664  -1.247 -0.3887  0.0959 -0.5077
   26CHL1  H27C 1924   0.926   1.623  -1.190  0.1993  1.3553 -0.3649
   27CHL1    C3 1925   1.097   4.389   8.782  0.3155 -0.2206 -0.0192
   27CHL1    H3 1926   1.201   4.426   8.778  0.7775 -1.3539  0.9662
   27CHL1    O3 1927   1.067   4.368   8.920 -0.1496 -0.1807  0.5103
   27CHL1   H3' 1928   0.975   4.345   8.930  0.1303 -1.3552  0.5068
   27CHL1    C4 1929   1.004   4.493   8.715 -0.6622  0.0540  0.4074
   27CHL1   H4A 1930   0.903   4.460   8.749  0.0642 -1.7394  0.9777
   27CHL1   H4B 1931   1.034   4.587   8.765 -0.8836 -0.5506  1.7235
   27CHL1    C5 1932   1.005   4.501   8.562 -0.4288  0.9210 -0.0368
   27CHL1    C6 1933   1.012   4.618   8.496 -0.2178 -0.6277 -0.7126
   27CHL1    H6 1934   1.014   4.709   8.558  0.0286 -0.6566 -0.6771
   27CHL1    C7 1935   1.007   4.628   8.349 -0.0152  0.4408  0.1391
   27CHL1   H7A 1936   0.932   4.707   8.326 -1.7990 -1.5452 -1.2135
   27CHL1   H7B 1937   1.101   4.664   8.302 -0.9222 -0.7533 -2.7661
   27CHL1    C8 1938   0.961   4.498   8.269  0.0785 -0.4465 -0.3581
   27CHL1    H8 1939   0.850   4.487   8.275  0.1033 -1.1558 -1.0266
   27CHL1   C14 1940   0.997   4.502   8.123 -0.1661  0.2792  0.7204
   27CHL1   H14 1941   1.108   4.506   8.119 -0.1841  3.4830  0.8501
   27CHL1   C15 1942   0.957   4.622   8.034 -0.1380  0.6107  0.1049
   27CHL1  H15A 1943   0.853   4.642   8.068 -0.4989 -0.1672 -0.4883
   27CHL1  H15B 1944   1.033   4.703   8.033  1.1284 -0.4325  3.0495
   27CHL1   C16 1945   0.939   4.572   7.893  0.4118 -0.2899  0.6025
   27CHL1  H16A 1946   0.833   4.568   7.862  0.6748 -1.7801 -0.1959
   27CHL1  H16B 1947   0.994   4.638   7.822 -1.8528 -0.4406 -1.4063
   27CHL1   C17 1948   0.994   4.421   7.896 -0.2047 -0.5356  0.1075
   27CHL1   H17 1949   1.104   4.432   7.895 -0.0444 -1.6340 -2.4740
   27CHL1   C13 1950   0.954   4.377   8.038 -0.1144  0.0842  0.1196
   27CHL1   C18 1951   0.801   4.352   8.043  0.2665 -0.5464  0.0989
   27CHL1  H18A 1952   0.764   4.290   8.128  0.3552  1.8847  2.0363
   27CHL1  H18B 1953   0.746   4.448   8.055 -2.3710 -1.9647 -0.0573
   27CHL1  H18C 1954   0.750   4.317   7.952  0.3044 -0.8417  0.1913
   27CHL1   C12 1955   1.028   4.255   8.096  0.5853  0.0209  0.7835
   27CHL1  H12A 1956   0.983   4.162   8.057  2.9611 -1.1628  0.6754
   27CHL1  H12B 1957   1.135   4.255   8.064 -0.1126 -0.5482 -1.7635
   27CHL1   C11 1958   1.013   4.237   8.246  0.7376 -0.3550 -0.2295
   27CHL1  H11A 1959   0.906   4.213   8.267  0.0027  1.6392 -1.4171
   27CHL1  H11B 1960   1.075   4.154   8.286 -0.9993 -1.4426  0.3138
   27CHL1    C9 1961   1.030   4.373   8.331 -0.6056 -0.3807  0.7506
   27CHL1    H9 1962   1.138   4.394   8.316 -0.9786  0.5404 -0.9317
   27CHL1   C10 1963   1.001   4.366   8.488 -0.3552  0.5562  0.1275
   27CHL1   C19 1964   0.863   4.306   8.505  0.0109 -0.5980  0.0016
   27CHL1  H19A 1965   0.789   4.367   8.449  1.6942  2.6029  1.0135
   27CHL1  H19B 1966   0.862   4.199   8.476 -2.1549 -1.0798  1.6422
   27CHL1  H19C 1967   0.828   4.302   8.610 -0.6245 -0.2907 -0.1956
   27CHL1    C1 1968   1.107   4.269   8.553 -0.3186  0.6830 -0.0555
   27CHL1   H1A 1969   1.101   4.168   8.506  1.4639 -0.0779  1.2266
   27CHL1   H1B 1970   1.210   4.306   8.535  0.1019 -0.5247 -0.2123
   27CHL1    C2 1971   1.083   4.251   8.706  0.4012  0.1420  0.0770
   27CHL1   H2A 1972   1.153   4.182   8.758 -0.3796  1.3894  3.0038
   27CHL1   H2B 1973   0.977   4.220   8.722  0.3512  0.1579 -0.2227
   27CHL1   C20 1974   0.958   4.337   7.771 -0.2929  0.6928 -1.4047
   27CHL1   H20 1975   0.848   4.321   7.767 -0.5944  1.4005  1.7194
   27CHL1   C21 1976   1.045   4.207   7.775  0.1686 -0.2590 -0.9125
   27CHL1  H21A 1977   1.009   4.137   7.853  0.5078 -2.0639 -2.2922
   27CHL1  H21B 1978   1.148   4.248   7.782 -0.6004  2.0296 -1.9472
   27CHL1  H21C 1979   1.010   4.159   7.681 -0.3106  0.4129 -1.0895
   27CHL1   C22 1980   0.979   4.405   7.637  0.3880 -0.7403  0.5104
   27CHL1  H22A 1981   0.935   4.352   7.549 -1.9352  0.0900  1.0800
   27CHL1  H22B 1982   0.918   4.498   7.641 -0.8350 -1.3258 -2.0597
   27CHL1   C23 1983   1.125   4.446   7.610  0.0869  0.6483  0.1102
   27CHL1  H23A 1984   1.174   4.499   7.694  0.0945  2.1640 -0.8260
   27CHL1  H23B 1985   1.193   4.364   7.580  0.1315  0.7437 -0.0503
   27CHL1   C24 1986   1.131   4.554   7.496 -0.5427 -0.1887  0.6655
   27CHL1  H24A 1987   1.056   4.516   7.424 -2.0512  1.2334  1.4139
   27CHL1  H24B 1988   1.086   4.639   7.551 -0.4052  0.2730  0.0659
   27CHL1   C25 1989   1.275   4.576   7.441  0.4529 -0.1901  0.1839
   27CHL1   H25 1990   1.311   4.472   7.426 -0.0843 -0.8105  2.6135
   27CHL1   C26 1991   1.286   4.647   7.309 -0.2854  0.1994  0.2116
   27CHL1  H26A 1992   1.228   4.742   7.322  0.5616  0.5815  1.3422
   27CHL1  H26B 1993   1.390   4.667   7.276  0.3933  3.2501  3.5518
   27CHL1  H26C 1994   1.239   4.585   7.230  2.1687 -1.7297  0.1465
   27CHL1   C27 1995   1.365   4.643   7.544  0.5071  0.3952 -0.6009
   27CHL1  H27A 1996   1.393   4.583   7.634 -0.6929 -0.7556 -0.9614
   27CHL1  H27B 1997   1.464   4.663   7.497  0.6568  2.6519  0.5344
   27CHL1  H27C 1998   1.330   4.742   7.580  0.0361 -0.0291  0.1389
   28CHL1    C3 1999   6.656   0.244   8.920  0.0724  0.5726  0.6455
   28CHL1    H3 2000   6.548   0.247   8.894  0.2338 -0.7878 -0.2991
   28CHL1    O3 2001   6.660   0.233   9.064  0.3124  1.1119 -0.1036
   28CHL1   H3' 2002   6.755   0.220   9.064  0.1084 -0.5684  0.2180
   28CHL1    C4 2003   6.717   0.117   8.857  0.7844  0.3183  0.3258
   28CHL1   H4A 2004   6.822   0.100   8.890  1.7523  0.7517 -2.2881
   28CHL1   H4B 2005   6.668   0.027   8.900  2.8386 -0.7223  0.6004
   28CHL1    C5 2006   6.713   0.126   8.708  0.3027 -0.0343  0.2902
   28CHL1    C6 2007   6.651   0.021   8.642  0.7708 -0.1320 -1.0847
   28CHL1    H6 2008   6.616  -0.070   8.693 -0.6719  0.2129 -1.4286
   28CHL1    C7 2009   6.629   0.035   8.496  0.2362 -0.4645 -0.1033
   28CHL1   H7A 2010   6.641  -0.054   8.431 -1.0374 -0.4907 -0.3133
   28CHL1   H7B 2011   6.525   0.071   8.481  1.1272  2.8868  0.8167
   28CHL1    C8 2012   6.717   0.145   8.424  0.5214  0.2349  0.1177
   28CHL1    H8 2013   6.821   0.105   8.418  1.2955  2.2107 -0.9732
   28CHL1   C14 2014   6.663   0.161   8.282  0.2856  1.0557  0.8494
   28CHL1   H14 2015   6.558   0.192   8.296  0.1477  0.9442  0.1129
   28CHL1   C15 2016   6.668   0.037   8.182 -0.2412  0.1906  0.1363
   28CHL1  H15A 2017   6.766  -0.015   8.186 -0.2392 -0.3722 -3.4892
   28CHL1  H15B 2018   6.585  -0.033   8.205 -2.1461  1.6078 -1.9398
   28CHL1   C16 2019   6.647   0.107   8.047  0.0050  0.4563  0.5358
   28CHL1  H16A 2020   6.709   0.060   7.967 -1.2257 -0.1080 -0.1262
   28CHL1  H16B 2021   6.544   0.088   8.010  0.6881 -1.1509 -0.6962
   28CHL1   C17 2022   6.670   0.254   8.064 -0.6428  0.0586  0.3120
   28CHL1   H17 2023   6.572   0.306   8.067 -1.3766 -1.3107  1.1740
   28CHL1   C13 2024   6.728   0.276   8.201 -0.5370  0.5729  0.0790
   28CHL1   C18 2025   6.883   0.248   8.189  0.1289 -0.0313 -0.3092
   28CHL1  H18A 2026   6.899   0.157   8.128  1.7814  0.8593 -1.2741
   28CHL1  H18B 2027   6.935   0.339   8.152  0.7900  0.1858  1.0823
   28CHL1  H18C 2028   6.932   0.234   8.288 -0.4573 -0.6196 -0.0918
   28CHL1   C12 2029   6.697   0.402   8.276 -0.3731  0.1744 -0.0013
   28CHL1  H12A 2030   6.744   0.493   8.233 -1.2408  0.4528 -0.4004
   28CHL1  H12B 2031   6.590   0.433   8.277  0.0714  2.1233  3.5943
   28CHL1   C11 2032   6.753   0.397   8.420  0.4707  0.4905  0.1724
   28CHL1  H11A 2033   6.864   0.402   8.411  0.4828 -0.9534 -0.8570
   28CHL1  H11B 2034   6.717   0.486   8.474  0.1629 -0.4585  1.5841
   28CHL1    C9 2035   6.704   0.274   8.499  0.0915 -0.3328  0.6186
   28CHL1    H9 2036   6.594   0.285   8.511 -0.1865  0.0015 -1.7381
   28CHL1   C10 2037   6.759   0.258   8.645  0.2480 -0.0809  0.5617
   28CHL1   C19 2038   6.922   0.256   8.652 -0.2941 -0.2312 -0.4313
   28CHL1  H19A 2039   6.960   0.171   8.591 -0.3818  0.7070 -1.8527
   28CHL1  H19B 2040   6.961   0.351   8.610 -1.0016  0.7458  1.0407
   28CHL1  H19C 2041   6.965   0.241   8.753  0.9725 -1.1768 -1.0836
   28CHL1    C1 2042   6.711   0.386   8.723 -0.1818 -0.4752 -0.2345
   28CHL1   H1A 2043   6.756   0.484   8.694  1.6499 -0.7549  1.4428
   28CHL1   H1B 2044   6.602   0.387   8.703 -0.2276  0.4160 -0.0062
   28CHL1    C2 2045   6.732   0.363   8.873 -0.1600 -0.0285  0.1262
   28CHL1   H2A 2046   6.701   0.453   8.931 -0.6149  0.5771 -1.0221
   28CHL1   H2B 2047   6.841   0.352   8.889 -0.1397 -1.6169 -0.9314
   28CHL1   C20 2048   6.746   0.308   7.936  0.4831  0.0952 -0.5112
   28CHL1   H20 2049   6.852   0.275   7.942  0.4273  0.0777  0.7389
   28CHL1   C21 2050   6.756   0.463   7.951 -0.7533 -0.2162 -0.2544
   28CHL1  H21A 2051   6.820   0.502   7.869  1.4533  0.3549  1.6223
   28CHL1  H21B 2052   6.822   0.484   8.038  0.0997 -0.7184 -0.7609
   28CHL1  H21C 2053   6.663   0.523   7.948 -0.4870  0.2756  0.9088
   28CHL1   C22 2054   6.687   0.276   7.795 -0.2363  0.9358  0.6203
   28CHL1  H22A 2055   6.655   0.170   7.804 -0.3597  1.0063  1.0005
   28CHL1  H22B 2056   6.597   0.338   7.776 -2.0392 -1.0312  2.2318
   28CHL1   C23 2057   6.794   0.289   7.679 -0.0713 -0.5366  0.6721
   28CHL1  H23A 2058   6.847   0.387   7.681 -1.0651  0.0219  0.5624
   28CHL1  H23B 2059   6.878   0.219   7.696 -0.7485 -1.8538 -1.0288
   28CHL1   C24 2060   6.725   0.281   7.539  0.0979 -0.3677 -0.2140
   28CHL1  H24A 2061   6.667   0.188   7.519 -1.6318  0.9470 -1.6698
   28CHL1  H24B 2062   6.662   0.373   7.538 -0.7750 -0.9566 -0.3585
   28CHL1   C25 2063   6.836   0.301   7.430  0.3271  0.2718  0.3053
   28CHL1   H25 2064   6.886   0.386   7.480 -0.8885 -0.3019  2.6096
   28CHL1   C26 2065   6.932   0.181   7.409  0.2844 -0.2671  0.4737
   28CHL1  H26A 2066   6.979   0.148   7.504 -0.1570  1.1746  1.2214
   28CHL1  H26B 2067   6.867   0.099   7.372 -1.3777  0.8324  0.8003
   28CHL1  H26C 2068   7.003   0.213   7.330  0.4656 -0.7321  0.4498
   28CHL1   C27 2069   6.785   0.366   7.296  0.1806 -0.6446  0.0749
   28CHL1  H27A 2070   6.877   0.398   7.242  1.7782 -1.9588  1.8776
   28CHL1  H27B 2071   6.722   0.301   7.231 -3.7158  2.6594  0.1171
   28CHL1  H27C 2072   6.726   0.458   7.318 -0.9313 -1.2506 -0.2884
   29CHL1    C3 2073   2.851   0.133   5.969  0.4533  0.1082 -0.5153
   29CHL1    H3 2074   2.821   0.240   5.968  0.7100  0.2344  1.2806
   29CHL1    O3 2075   2.928   0.121   5.850 -0.2806 -0.4621  0.7142
   29CHL1   H3' 2076   2.922   0.027   5.831 -2.5104  0.0489 -1.7506
   29CHL1    C4 2077   2.942   0.105   6.089  0.3039 -0.9541 -0.1991
   29CHL1   H4A 2078   2.986   0.003   6.087  0.3310 -0.9432 -0.1440
   29CHL1   H4B 2079   3.035   0.166   6.085 -1.1653  1.5963  1.7343
   29CHL1    C5 2080   2.853   0.127   6.214 -0.1700 -0.1299 -0.6730
   29CHL1    C6 2081   2.887   0.223   6.305  0.6695 -0.5850  0.2870
   29CHL1    H6 2082   2.977   0.281   6.279  0.1358 -0.0297 -0.3491
   29CHL1    C7 2083   2.832   0.255   6.433 -0.1233  0.1203 -0.0493
   29CHL1   H7A 2084   2.922   0.265   6.496  0.1698 -3.0420  0.2123
   29CHL1   H7B 2085   2.777   0.351   6.422 -3.0911 -1.4198  0.3120
   29CHL1    C8 2086   2.744   0.135   6.484 -0.4454  0.1901 -0.0203
   29CHL1    H8 2087   2.811   0.052   6.515 -1.6081 -1.6169 -2.0500
   29CHL1   C14 2088   2.659   0.166   6.601 -0.0180 -0.1472 -0.1661
   29CHL1   H14 2089   2.584   0.237   6.561 -2.9241 -0.1783  4.4716
   29CHL1   C15 2090   2.721   0.236   6.722  0.4007  0.1308  0.1804
   29CHL1  H15A 2091   2.825   0.199   6.736  0.5466  0.5467  0.2358
   29CHL1  H15B 2092   2.736   0.346   6.716 -1.9406  0.5114  0.3257
   29CHL1   C16 2093   2.620   0.217   6.839 -0.4015  0.4735  0.6115
   29CHL1  H16A 2094   2.677   0.168   6.921  1.4697 -2.8464 -2.3895
   29CHL1  H16B 2095   2.572   0.315   6.862 -2.4511 -0.7537  1.8797
   29CHL1   C17 2096   2.511   0.123   6.778  0.9358 -0.4180 -0.4507
   29CHL1   H17 2097   2.435   0.195   6.740  0.8361  0.4194  1.2444
   29CHL1   C13 2098   2.571   0.051   6.658  0.7112 -0.0309  0.0539
   29CHL1   C18 2099   2.660  -0.066   6.717  0.4979 -0.0019 -0.6960
   29CHL1  H18A 2100   2.710  -0.125   6.637  2.4321 -0.3065  0.6594
   29CHL1  H18B 2101   2.735  -0.032   6.791  0.0283 -1.7670  0.6766
   29CHL1  H18C 2102   2.595  -0.146   6.760 -0.4824 -0.4880 -2.9212
   29CHL1   C12 2103   2.478   0.012   6.544 -0.4519  1.0402 -0.9613
   29CHL1  H12A 2104   2.421  -0.080   6.571  1.0365 -0.0527 -1.4000
   29CHL1  H12B 2105   2.404   0.093   6.527 -1.0334  0.1353 -3.1332
   29CHL1   C11 2106   2.558  -0.030   6.417 -0.4617 -0.4135  0.3408
   29CHL1  H11A 2107   2.625  -0.113   6.448  0.3580  0.2821  0.5017
   29CHL1  H11B 2108   2.501  -0.080   6.336 -1.2043 -2.1346  1.8619
   29CHL1    C9 2109   2.658   0.082   6.362 -0.3159 -0.2851 -0.5566
   29CHL1    H9 2110   2.604   0.172   6.325  2.0437  0.3712 -2.7213
   29CHL1   C10 2111   2.740   0.031   6.236  0.6409 -0.5207  0.1492
   29CHL1   C19 2112   2.789  -0.118   6.252  0.1743 -0.5786  0.2839
   29CHL1  H19A 2113   2.708  -0.193   6.262  1.2478 -1.9714 -1.0544
   29CHL1  H19B 2114   2.845  -0.156   6.163 -0.4326 -3.7527  1.1205
   29CHL1  H19C 2115   2.859  -0.113   6.338 -0.1313  0.1234  0.4942
   29CHL1    C1 2116   2.653   0.033   6.114 -0.3592 -0.5184  0.5696
   29CHL1   H1A 2117   2.586  -0.056   6.115 -0.3449 -0.5525 -0.4523
   29CHL1   H1B 2118   2.583   0.119   6.122  0.5945  0.2710  0.5041
   29CHL1    C2 2119   2.734   0.037   5.975  0.3087 -0.0533  0.0356
   29CHL1   H2A 2120   2.668   0.055   5.887  1.6289  2.5830 -0.5162
   29CHL1   H2B 2121   2.771  -0.066   5.959  0.2476  0.0061 -0.5137
   29CHL1   C20 2122   2.440   0.037   6.896  0.0696  0.4513  0.2977
   29CHL1   H20 2123   2.520  -0.027   6.939 -0.8504 -0.0208  1.3636
   29CHL1   C21 2124   2.345  -0.064   6.839  0.7996 -0.5811 -0.1193
   29CHL1  H21A 2125   2.291  -0.107   6.926 -0.3918  0.8093 -0.1379
   29CHL1  H21B 2126   2.391  -0.138   6.770 -1.3594 -0.5997 -1.6216
   29CHL1  H21C 2127   2.271  -0.005   6.780 -0.5634 -0.0962  1.9747
   29CHL1   C22 2128   2.371   0.122   6.996 -0.4996 -0.4246  0.2171
   29CHL1  H22A 2129   2.315   0.058   7.067  1.8120 -0.3741  2.2510
   29CHL1  H22B 2130   2.442   0.176   7.063  0.4746 -0.8846 -0.4284
   29CHL1   C23 2131   2.272   0.223   6.946  0.3070  0.2307 -0.0828
   29CHL1  H23A 2132   2.323   0.321   6.932  1.0242 -0.5711 -4.7322
   29CHL1  H23B 2133   2.225   0.184   6.853 -0.0806 -1.4685  0.7845
   29CHL1   C24 2134   2.160   0.247   7.055  0.4158  0.6748  0.6213
   29CHL1  H24A 2135   2.113   0.149   7.082  1.1463 -0.2602 -1.2649
   29CHL1  H24B 2136   2.212   0.289   7.143  2.5472 -1.3304  0.4117
   29CHL1   C25 2137   2.056   0.353   7.017 -0.0967 -0.1980  1.0678
   29CHL1   H25 2138   1.987   0.310   6.942 -0.2125  2.2437 -0.3299
   29CHL1   C26 2139   1.971   0.388   7.137  0.0301  0.2249 -0.2508
   29CHL1  H26A 2140   1.924   0.298   7.182  2.1809 -1.0554 -0.4311
   29CHL1  H26B 2141   2.043   0.425   7.214  0.3147 -2.3050  0.7914
   29CHL1  H26C 2142   1.896   0.467   7.116  0.6664  1.6947  2.4498
   29CHL1   C27 2143   2.114   0.480   6.962  0.2565 -0.2159 -0.1032
   29CHL1  H27A 2144   2.031   0.552   6.944 -0.8520 -1.4841 -0.2690
   29CHL1  H27B 2145   2.186   0.526   7.033  0.3481  0.7482 -0.8024
   29CHL1  H27C 2146   2.159   0.455   6.864 -1.8622 -0.9632 -0.9490
   30CHL1    C3 2147   5.539   1.893   6.018 -0.6417 -0.0807  0.1016
   30CHL1    H3 2148   5.633   1.952   6.023 -1.5935  1.4117  1.8076
   30CHL1    O3 2149   5.495   1.863   5.887  0.6017 -0.1092  0.1346
   30CHL1   H3' 2150   5.524   1.938   5.834 -1.0204  1.0309  0.8070
   30CHL1    C4 2151   5.565   1.760   6.093 -0.1293  0.8630  0.2062
   30CHL1   H4A 2152   5.481   1.692   6.067 -1.0284  2.1015 -0.2246
   30CHL1   H4B 2153   5.653   1.723   6.036 -0.5220  2.4517 -1.5558
   30CHL1    C5 2154   5.588   1.779   6.240 -0.1254  0.1662 -1.0514
   30CHL1    C6 2155   5.693   1.730   6.313 -0.3425 -0.1043 -0.5591
   30CHL1    H6 2156   5.760   1.659   6.262  1.2063 -0.0831  1.3639
   30CHL1    C7 2157   5.715   1.752   6.464  0.3346 -0.3028  0.7585
   30CHL1   H7A 2158   5.740   1.660   6.520  2.0202  0.1283  0.7714
   30CHL1   H7B 2159   5.785   1.836   6.485 -0.4870  0.5740  0.0821
   30CHL1    C8 2160   5.581   1.792   6.532  0.0990 -0.0743 -0.5889
   30CHL1    H8 2161   5.503   1.714   6.515 -1.0057  1.1250 -1.1920
   30CHL1   C14 2162   5.604   1.831   6.676 -0.7861  0.9193  0.5920
   30CHL1   H14 2163   5.678   1.914   6.682 -0.0391  0.1837  2.2120
   30CHL1   C15 2164   5.676   1.722   6.765 -0.5112  0.5724 -0.0718
   30CHL1  H15A 2165   5.620   1.628   6.746 -0.7343  0.5903  0.4996
   30CHL1  H15B 2166   5.785   1.712   6.744 -0.1941 -0.0576  1.6964
   30CHL1   C16 2167   5.653   1.768   6.910  0.1483  0.4491 -0.3814
   30CHL1  H16A 2168   5.595   1.684   6.954  0.6090  0.1975 -0.2535
   30CHL1  H16B 2169   5.748   1.781   6.967  0.0154 -1.7424  0.4435
   30CHL1   C17 2170   5.554   1.890   6.897  0.3313  0.2121 -0.1494
   30CHL1   H17 2171   5.615   1.982   6.886  0.8313 -0.1434 -0.3621
   30CHL1   C13 2172   5.488   1.877   6.760 -0.1298  0.0510 -0.4582
   30CHL1   C18 2173   5.376   1.772   6.768  0.6379 -0.9527 -0.3963
   30CHL1  H18A 2174   5.415   1.682   6.819 -0.9122 -2.0172 -1.0392
   30CHL1  H18B 2175   5.284   1.813   6.815  1.0190  0.6811 -0.9888
   30CHL1  H18C 2176   5.353   1.733   6.666  1.4643  0.9598 -1.3722
   30CHL1   C12 2177   5.446   2.007   6.687  0.5242  0.1525 -0.2265
   30CHL1  H12A 2178   5.367   2.060   6.745 -0.8130 -2.1440  0.1852
   30CHL1  H12B 2179   5.535   2.073   6.692  1.1915 -0.7740  0.8414
   30CHL1   C11 2180   5.406   1.982   6.538 -0.5260 -0.3827  0.4321
   30CHL1  H11A 2181   5.317   1.920   6.559  0.3999 -1.7307  0.5393
   30CHL1  H11B 2182   5.382   2.075   6.483  0.7896  0.2968  0.9542
   30CHL1    C9 2183   5.523   1.911   6.463  0.4849 -0.0853  0.5066
   30CHL1    H9 2184   5.606   1.983   6.451  0.0398  0.1472 -1.4097
   30CHL1   C10 2185   5.483   1.866   6.318  0.3410 -0.5389 -0.0925
   30CHL1   C19 2186   5.345   1.800   6.328 -0.3797 -1.2176  0.5418
   30CHL1  H19A 2187   5.302   1.776   6.229 -1.4535  1.3624  0.2991
   30CHL1  H19B 2188   5.356   1.703   6.380  1.8057 -1.8833 -1.0727
   30CHL1  H19C 2189   5.272   1.869   6.377  0.5651  0.5199 -0.4267
   30CHL1    C1 2190   5.450   1.997   6.231  0.1321  0.1380 -0.0410
   30CHL1   H1A 2191   5.365   2.055   6.273 -0.3302  0.0068 -0.7870
   30CHL1   H1B 2192   5.527   2.076   6.249  1.1241 -0.0055 -3.1242
   30CHL1    C2 2193   5.429   1.976   6.083 -0.0553 -0.9238  0.0178
   30CHL1   H2A 2194   5.424   2.067   6.021  0.1223 -1.8136 -1.3358
   30CHL1   H2B 2195   5.334   1.921   6.066  1.1181 -2.0827 -3.8390
   30CHL1   C20 2196   5.471   1.913   7.026  0.2187  0.3372 -0.3841
   30CHL1   H20 2197   5.410   1.821   7.038 -0.5977  0.7026 -1.5396
   30CHL1   C21 2198   5.358   2.014   7.009 -1.0694 -0.3599  0.2411
   30CHL1  H21A 2199   5.313   2.025   7.110 -0.7147  0.0967  0.3537
   30CHL1  H21B 2200   5.282   1.983   6.934 -2.4094  0.5907  1.1681
   30CHL1  H21C 2201   5.391   2.106   6.956 -2.1103  0.1744  0.4939
   30CHL1   C22 2202   5.557   1.941   7.150  0.4231  0.5415 -0.3391
   30CHL1  H22A 2203   5.644   1.872   7.152  0.2564  0.3299 -0.3955
   30CHL1  H22B 2204   5.600   2.044   7.144  2.3210 -0.2115 -0.3833
   30CHL1   C23 2205   5.493   1.916   7.286 -0.5327 -0.9656 -0.2194
   30CHL1  H23A 2206   5.389   1.953   7.284 -0.2207 -0.1018 -1.9268
   30CHL1  H23B 2207   5.492   1.806   7.302 -0.5275 -0.9142  0.1460
   30CHL1   C24 2208   5.564   1.987   7.403 -0.2254 -0.1306 -0.1566
   30CHL1  H24A 2209   5.674   1.975   7.408 -0.1088  1.0743  3.5564
   30CHL1  H24B 2210   5.545   2.095   7.382  1.2657  0.1308 -0.3072
   30CHL1   C25 2211   5.503   1.940   7.547 -0.9253  0.2977 -0.3904
   30CHL1   H25 2212   5.392   1.939   7.548 -1.0165 -3.2833 -0.2007
   30CHL1   C26 2213   5.560   1.809   7.600  0.6576 -0.4027 -0.5128
   30CHL1  H26A 2214   5.528   1.723   7.538 -4.7245 -0.0294  1.2229
   30CHL1  H26B 2215   5.671   1.814   7.614  0.4942  0.4097  0.6651
   30CHL1  H26C 2216   5.526   1.789   7.704 -0.3349 -1.1999 -0.9809
   30CHL1   C27 2217   5.544   2.047   7.657  0.1549 -0.1206 -0.3740
   30CHL1  H27A 2218   5.511   2.009   7.756  1.5556  0.0773  0.1900
   30CHL1  H27B 2219   5.652   2.069   7.642 -0.3456  0.7245 -3.7496
   30CHL1  H27C 2220   5.499   2.146   7.636  0.6077  0.0180 -0.7077
   31CHL1    C3 2221   1.279   3.251   5.921  0.5102  1.0821  0.7202
   31CHL1    H3 2222   1.370   3.314   5.926  0.1177  1.6773  0.4878
   31CHL1    O3 2223   1.244   3.226   5.786 -0.0876  0.6469  0.3541
   31CHL1   H3' 2224   1.235   3.317   5.755 -1.6565  1.1463  2.1100
   31CHL1    C4 2225   1.302   3.113   6.006 -0.5930 -0.1879  0.1831
   31CHL1   H4A 2226   1.218   3.048   5.973  1.1698 -1.5049 -2.0629
   31CHL1   H4B 2227   1.393   3.064   5.964  0.1814  0.1157  1.4662
   31CHL1    C5 2228   1.326   3.139   6.157 -0.4631 -0.8783  0.9272
   31CHL1    C6 2229   1.429   3.083   6.222  0.9487  0.8157 -0.0574
   31CHL1    H6 2230   1.507   3.021   6.177  0.1181 -1.1898  1.1391
   31CHL1    C7 2231   1.436   3.092   6.374  0.4864 -0.1314 -0.9421
   31CHL1   H7A 2232   1.431   2.993   6.425 -0.3457  0.0907 -0.5714
   31CHL1   H7B 2233   1.529   3.147   6.401 -0.6434  0.8399  1.2487
   31CHL1    C8 2234   1.315   3.162   6.451 -0.3382  0.2964  0.2429
   31CHL1    H8 2235   1.237   3.087   6.474 -1.0253  0.6364 -0.8629
   31CHL1   C14 2236   1.358   3.209   6.586 -0.9779  0.1979 -0.2315
   31CHL1   H14 2237   1.438   3.286   6.575  0.5506 -1.2932 -0.0076
   31CHL1   C15 2238   1.419   3.101   6.671  0.5732 -0.3490 -0.2043
   31CHL1  H15A 2239   1.348   3.016   6.669  1.3464 -0.9946 -1.3395
   31CHL1  H15B 2240   1.518   3.060   6.641  1.3519  2.1341 -1.3388
   31CHL1   C16 2241   1.425   3.159   6.809  0.2148  0.1197 -0.0929
   31CHL1  H16A 2242   1.387   3.087   6.884 -0.6199  0.0282 -0.5957
   31CHL1  H16B 2243   1.519   3.212   6.836  0.4958  0.2177 -1.1968
   31CHL1   C17 2244   1.322   3.277   6.804  0.1257  0.3349  0.0744
   31CHL1   H17 2245   1.386   3.368   6.807  0.2878  0.3721 -2.5782
   31CHL1   C13 2246   1.247   3.267   6.671 -0.1191 -0.0108  0.9847
   31CHL1   C18 2247   1.128   3.160   6.692  0.5655 -0.3299 -0.2480
   31CHL1  H18A 2248   1.165   3.057   6.712  1.8723  0.4670  1.7717
   31CHL1  H18B 2249   1.057   3.185   6.773  0.6487 -0.1587 -0.2264
   31CHL1  H18C 2250   1.077   3.149   6.595  1.4068 -0.6466 -0.6687
   31CHL1   C12 2251   1.188   3.383   6.600  0.1361  1.0808 -0.8799
   31CHL1  H12A 2252   1.098   3.428   6.648  0.5808  0.3738  0.6924
   31CHL1  H12B 2253   1.259   3.465   6.579 -0.8642  1.8212 -1.4465
   31CHL1   C11 2254   1.150   3.347   6.457 -0.0118  0.5704  0.7642
   31CHL1  H11A 2255   1.052   3.293   6.452 -0.8244  2.0861 -1.6712
   31CHL1  H11B 2256   1.129   3.446   6.409  0.9928  0.3506 -0.1606
   31CHL1    C9 2257   1.255   3.271   6.371  0.9443 -0.0789  0.0498
   31CHL1    H9 2258   1.342   3.340   6.366  1.0978 -0.2339  0.5296
   31CHL1   C10 2259   1.216   3.232   6.225  0.7221  0.1733  0.4733
   31CHL1   C19 2260   1.077   3.157   6.234  0.0862 -0.2107  0.6287
   31CHL1  H19A 2261   0.996   3.227   6.264 -1.1480 -1.2782 -0.0683
   31CHL1  H19B 2262   1.034   3.110   6.142  2.0962 -1.6285  0.3542
   31CHL1  H19C 2263   1.081   3.072   6.305 -0.5443 -2.2566 -1.6303
   31CHL1    C1 2264   1.187   3.357   6.135  0.2666  0.2317  0.3150
   31CHL1   H1A 2265   1.110   3.430   6.170 -1.3681 -1.0589 -0.4220
   31CHL1   H1B 2266   1.280   3.417   6.134  1.6509 -1.8244  0.0605
   31CHL1    C2 2267   1.166   3.334   5.984 -0.9220  0.7792  0.3101
   31CHL1   H2A 2268   1.164   3.433   5.934  0.4790  0.8479  0.3588
   31CHL1   H2B 2269   1.070   3.278   5.974 -1.4273  1.6550  0.2259
   31CHL1   C20 2270   1.237   3.288   6.934  0.2691 -0.3705 -0.2863
   31CHL1   H20 2271   1.173   3.197   6.938 -0.0165 -0.1996 -0.9024
   31CHL1   C21 2272   1.148   3.412   6.922  0.3373 -0.6531 -0.1253
   31CHL1  H21A 2273   1.091   3.448   7.010  0.9842  2.1415 -0.7585
   31CHL1  H21B 2274   1.073   3.395   6.841 -1.0476  0.4691  0.8702
   31CHL1  H21C 2275   1.207   3.502   6.892 -2.0699  0.7529 -0.9331
   31CHL1   C22 2276   1.319   3.303   7.069  0.0178  0.7213 -0.2080
   31CHL1  H22A 2277   1.394   3.222   7.078 -0.1079  0.0335 -3.8364
   31CHL1  H22B 2278   1.378   3.396   7.052  2.2539 -0.6007  0.0065
   31CHL1   C23 2279   1.229   3.308   7.194 -0.5650 -0.5547 -0.0049
   31CHL1  H23A 2280   1.174   3.405   7.187 -0.4673 -0.3224  1.8951
   31CHL1  H23B 2281   1.166   3.216   7.191  2.2308 -2.5643 -1.0186
   31CHL1   C24 2282   1.309   3.298   7.325  0.5784 -0.2381  0.2072
   31CHL1  H24A 2283   1.367   3.203   7.323  2.8048  1.0452  0.4432
   31CHL1  H24B 2284   1.381   3.382   7.326 -0.0714  0.4023 -1.9677
   31CHL1   C25 2285   1.237   3.302   7.458  0.3030  0.6937 -0.4676
   31CHL1   H25 2286   1.175   3.210   7.463  1.7124 -0.2985 -0.5468
   31CHL1   C26 2287   1.345   3.292   7.571  0.6691 -0.1709 -0.1677
   31CHL1  H26A 2288   1.390   3.191   7.583  2.2190  0.2107 -2.3241
   31CHL1  H26B 2289   1.420   3.368   7.542  1.1527 -1.0691 -1.3799
   31CHL1  H26C 2290   1.305   3.314   7.672 -1.9560  1.5534 -1.4491
   31CHL1   C27 2291   1.161   3.431   7.487 -0.1959  0.4636  0.4975
   31CHL1  H27A 2292   1.102   3.415   7.579 -0.2673 -1.0270  0.2206
   31CHL1  H27B 2293   1.227   3.517   7.509  2.2407 -0.6099 -1.8878
   31CHL1  H27C 2294   1.090   3.445   7.402 -0.0155  0.0372  0.2717
   32CHL1    C3 2295   2.913   5.329   5.407 -1.0194 -0.6195  0.4206
   32CHL1    H3 2296   2.850   5.253   5.458  1.3686 -2.2818  1.0436
   32CHL1    O3 2297   2.876   5.354   5.276  0.1530 -0.8073  0.3516
   32CHL1   H3' 2298   2.895   5.280   5.219 -1.8354  1.2431 -3.3049
   32CHL1    C4 2299   2.905   5.458   5.496 -0.1137  0.6063 -0.1004
   32CHL1   H4A 2300   2.965   5.533   5.440  0.2030 -1.0146 -2.0404
   32CHL1   H4B 2301   2.797   5.486   5.499 -0.0978  0.5974  0.7889
   32CHL1    C5 2302   2.969   5.441   5.634  0.1074 -0.2047 -0.2835
   32CHL1    C6 2303   2.894   5.469   5.737 -0.1059 -0.4163 -0.0577
   32CHL1    H6 2304   2.789   5.503   5.727 -0.7463 -1.6332  1.8948
   32CHL1    C7 2305   2.936   5.457   5.884  0.0151 -0.0596 -0.2963
   32CHL1   H7A 2306   2.914   5.551   5.939 -4.1205 -1.1870  0.3487
   32CHL1   H7B 2307   2.875   5.376   5.930  0.7672 -0.8049 -0.5773
   32CHL1    C8 2308   3.089   5.411   5.899  0.3463 -0.8055 -0.5575
   32CHL1    H8 2309   3.142   5.509   5.897  1.4427 -1.3845 -0.0831
   32CHL1   C14 2310   3.117   5.349   6.040  0.0840  0.0551  0.4724
   32CHL1   H14 2311   3.055   5.257   6.034  1.0804 -0.8464  2.6598
   32CHL1   C15 2312   3.065   5.425   6.169 -0.1666 -0.4320  0.2369
   32CHL1  H15A 2313   3.073   5.536   6.175 -2.2158 -0.2953  1.8374
   32CHL1  H15B 2314   2.957   5.401   6.174 -0.2977 -0.1065 -0.7570
   32CHL1   C16 2315   3.146   5.353   6.278 -0.1322 -0.7936  0.2803
   32CHL1  H16A 2316   3.207   5.427   6.334 -3.0300  0.0773  2.4914
   32CHL1  H16B 2317   3.074   5.307   6.349 -0.8666 -0.6879 -0.3900
   32CHL1   C17 2318   3.241   5.248   6.209 -0.7281  0.6473  0.2547
   32CHL1   H17 2319   3.185   5.155   6.187  1.1098 -0.5709  0.5010
   32CHL1   C13 2320   3.261   5.293   6.068 -0.0441 -0.4907  0.3012
   32CHL1   C18 2321   3.356   5.413   6.065  0.9325  0.0191 -0.9055
   32CHL1  H18A 2322   3.455   5.361   6.064  1.0645  0.1293  1.4871
   32CHL1  H18B 2323   3.340   5.475   5.975  1.3931 -0.3373 -1.2387
   32CHL1  H18C 2324   3.347   5.473   6.158 -4.0506 -0.5029 -0.7874
   32CHL1   C12 2325   3.301   5.206   5.953  0.1907  0.5786 -0.6813
   32CHL1  H12A 2326   3.405   5.167   5.961 -0.2270 -0.6535 -0.9428
   32CHL1  H12B 2327   3.244   5.112   5.972 -0.4447  1.2609  1.0055
   32CHL1   C11 2328   3.272   5.263   5.812 -0.3196  0.3216  0.5331
   32CHL1  H11A 2329   3.358   5.333   5.802 -0.2124  0.0605 -0.6378
   32CHL1  H11B 2330   3.293   5.178   5.743 -0.5327  0.6581  0.0443
   32CHL1    C9 2331   3.134   5.319   5.789  0.4184  0.9200  0.0860
   32CHL1    H9 2332   3.071   5.228   5.795  2.2435 -0.4881 -1.0515
   32CHL1   C10 2333   3.106   5.375   5.648  0.3333 -0.5389  0.2386
   32CHL1   C19 2334   3.210   5.477   5.616 -1.1515  0.3236  1.3626
   32CHL1  H19A 2335   3.184   5.527   5.520 -1.6552 -2.1495  0.1438
   32CHL1  H19B 2336   3.220   5.548   5.701 -1.0570  1.7042  0.2335
   32CHL1  H19C 2337   3.310   5.434   5.596 -0.9720  1.4842 -0.4826
   32CHL1    C1 2338   3.109   5.254   5.555  0.1595  1.0216  0.0889
   32CHL1   H1A 2339   3.215   5.221   5.552  0.2915  1.2787  1.2399
   32CHL1   H1B 2340   3.036   5.181   5.596 -1.6123  2.4125 -0.4612
   32CHL1    C2 2341   3.059   5.277   5.408  0.2588 -0.6620  0.4358
   32CHL1   H2A 2342   3.063   5.180   5.354  1.2664 -0.8424  0.8236
   32CHL1   H2B 2343   3.122   5.350   5.353  0.7796  1.0055  3.1059
   32CHL1   C20 2344   3.363   5.221   6.289 -0.1418  0.2134  0.4660
   32CHL1   H20 2345   3.421   5.315   6.305 -1.5447  1.2922 -0.5516
   32CHL1   C21 2346   3.467   5.123   6.225 -0.5779  0.0953 -0.3165
   32CHL1  H21A 2347   3.550   5.108   6.297  0.3519 -0.0666 -1.3877
   32CHL1  H21B 2348   3.523   5.176   6.144 -1.7500  1.3471 -0.3410
   32CHL1  H21C 2349   3.424   5.028   6.187  0.2433 -0.1105 -0.7824
   32CHL1   C22 2350   3.333   5.154   6.428 -0.5535 -0.2574  0.0164
   32CHL1  H22A 2351   3.228   5.169   6.462 -0.3670 -0.3904  0.6472
   32CHL1  H22B 2352   3.349   5.045   6.415 -1.0562 -0.3822  0.3955
   32CHL1   C23 2353   3.404   5.205   6.550 -0.3777 -1.0080 -0.3704
   32CHL1  H23A 2354   3.511   5.215   6.521 -0.8573 -0.8394 -2.2061
   32CHL1  H23B 2355   3.375   5.306   6.587  1.0962 -0.6775 -0.0556
   32CHL1   C24 2356   3.405   5.118   6.675 -0.0936 -0.4663  0.5702
   32CHL1  H24A 2357   3.310   5.062   6.687 -0.2654 -0.4537 -0.5570
   32CHL1  H24B 2358   3.473   5.031   6.667 -0.6465 -0.7735 -1.2134
   32CHL1   C25 2359   3.433   5.192   6.810  0.3688  1.0427  0.2763
   32CHL1   H25 2360   3.365   5.280   6.815  1.6227  2.0492 -0.1123
   32CHL1   C26 2361   3.393   5.099   6.924  0.3445  0.1430 -0.7040
   32CHL1  H26A 2362   3.284   5.097   6.946  0.6599 -1.6232  0.9519
   32CHL1  H26B 2363   3.437   4.999   6.904 -0.8485 -0.3141 -1.1432
   32CHL1  H26C 2364   3.442   5.129   7.019  2.1807  0.5468 -1.7124
   32CHL1   C27 2365   3.576   5.232   6.827  0.1711  0.6442  0.1409
   32CHL1  H27A 2366   3.601   5.307   6.749  0.0882  0.1629 -0.3547
   32CHL1  H27B 2367   3.596   5.281   6.924  1.4872 -0.9266  0.7207
   32CHL1  H27C 2368   3.643   5.145   6.814  0.3773  0.3633  2.6201
   33CHL1    C3 2369   2.607   1.761   5.409  0.6149 -0.1472 -0.4870
   33CHL1    H3 2370   2.717   1.763   5.400  0.9057  0.2483  2.3025
   33CHL1    O3 2371   2.539   1.755   5.288  1.0664 -0.2516  0.7565
   33CHL1   H3' 2372   2.452   1.716   5.301  1.3362 -0.9117  0.6172
   33CHL1    C4 2373   2.562   1.639   5.493  0.5103 -0.1005  0.1585
   33CHL1   H4A 2374   2.452   1.649   5.489  0.6443  1.2681 -1.4932
   33CHL1   H4B 2375   2.585   1.548   5.433 -2.4723  0.3663 -1.9035
   33CHL1    C5 2376   2.619   1.642   5.637  0.3845 -0.0532 -0.0695
   33CHL1    C6 2377   2.690   1.538   5.688  0.2774 -0.0149 -0.1849
   33CHL1    H6 2378   2.710   1.441   5.640  1.6670 -0.5888  1.4326
   33CHL1    C7 2379   2.734   1.534   5.835  0.6473  0.2549  0.2553
   33CHL1   H7A 2380   2.710   1.435   5.880  0.9894  0.3555  0.6746
   33CHL1   H7B 2381   2.845   1.545   5.841  0.5688  1.9132 -0.6981
   33CHL1    C8 2382   2.671   1.645   5.919  0.8796  1.3626  0.1849
   33CHL1    H8 2383   2.568   1.619   5.951  0.9657  0.7362 -0.0304
   33CHL1   C14 2384   2.748   1.657   6.051 -0.2239  0.1798  0.5344
   33CHL1   H14 2385   2.850   1.690   6.022  1.7340 -4.5152  1.2273
   33CHL1   C15 2386   2.786   1.533   6.125  0.4644  0.1690  0.3440
   33CHL1  H15A 2387   2.703   1.460   6.115  1.3545 -0.7483 -0.6608
   33CHL1  H15B 2388   2.875   1.477   6.087  0.7720  1.9970 -1.8544
   33CHL1   C16 2389   2.809   1.576   6.267 -0.0361 -0.6127 -0.1318
   33CHL1  H16A 2390   2.739   1.544   6.347 -2.5112  0.7455 -1.6156
   33CHL1  H16B 2391   2.914   1.554   6.295 -0.2636 -1.2244  0.2412
   33CHL1   C17 2392   2.787   1.732   6.272  0.1430 -0.1390 -0.4373
   33CHL1   H17 2393   2.885   1.768   6.233  0.7716 -1.3618 -0.0316
   33CHL1   C13 2394   2.690   1.752   6.154  0.2082  0.2944 -0.3477
   33CHL1   C18 2395   2.547   1.711   6.191  0.4706  0.4412  0.0242
   33CHL1  H18A 2396   2.484   1.692   6.102 -1.4566 -0.4882  1.5263
   33CHL1  H18B 2397   2.550   1.617   6.250 -2.6365 -0.1932 -0.6809
   33CHL1  H18C 2398   2.505   1.790   6.257  1.1281 -0.9676  2.2466
   33CHL1   C12 2399   2.685   1.887   6.090 -0.2686  0.0669 -0.2759
   33CHL1  H12A 2400   2.637   1.962   6.156  0.4759  1.8244 -1.6592
   33CHL1  H12B 2401   2.791   1.916   6.080 -0.3460  0.4458  0.0008
   33CHL1   C11 2402   2.611   1.892   5.950 -0.1475  0.3639 -0.2082
   33CHL1  H11A 2403   2.503   1.867   5.962  0.6712 -3.1048  1.0852
   33CHL1  H11B 2404   2.621   1.994   5.905  0.1156 -0.5800 -2.4059
   33CHL1    C9 2405   2.661   1.773   5.852  0.3805  0.1247  1.4438
   33CHL1    H9 2406   2.764   1.799   5.820 -0.3066 -0.8961 -1.9623
   33CHL1   C10 2407   2.585   1.772   5.715  0.0212  0.5764  0.3554
   33CHL1   C19 2408   2.430   1.775   5.743  0.3319  0.6122 -0.7209
   33CHL1  H19A 2409   2.403   1.701   5.822  1.2080  0.1835 -0.8075
   33CHL1  H19B 2410   2.383   1.873   5.767 -1.0498  0.2615 -1.8919
   33CHL1  H19C 2411   2.373   1.740   5.655  2.2549 -2.3343 -0.9517
   33CHL1    C1 2412   2.624   1.895   5.626 -0.2682 -0.7025  0.2486
   33CHL1   H1A 2413   2.595   1.978   5.694 -1.5164 -1.0151  0.1297
   33CHL1   H1B 2414   2.734   1.910   5.625 -0.1427 -1.5607 -0.0567
   33CHL1    C2 2415   2.568   1.891   5.484  0.0612  0.0072 -0.4878
   33CHL1   H2A 2416   2.613   1.968   5.417  3.4597 -0.7501  0.7669
   33CHL1   H2B 2417   2.457   1.900   5.480  0.1007  0.7746 -0.0160
   33CHL1   C20 2418   2.759   1.795   6.407 -0.3227  0.2122  0.2082
   33CHL1   H20 2419   2.668   1.741   6.443 -0.9231  0.1360 -1.3414
   33CHL1   C21 2420   2.724   1.946   6.411  0.8122 -0.1819 -0.1514
   33CHL1  H21A 2421   2.631   1.965   6.354 -0.3717 -0.8734  1.4790
   33CHL1  H21B 2422   2.807   2.005   6.365  0.1672  0.3141 -0.7011
   33CHL1  H21C 2423   2.720   1.981   6.516 -0.4797 -3.0800  0.8552
   33CHL1   C22 2424   2.874   1.760   6.516  0.9986 -0.4187 -0.0679
   33CHL1  H22A 2425   2.912   1.660   6.484  1.3204  1.0042 -5.0109
   33CHL1  H22B 2426   2.956   1.832   6.495  0.4772  0.0406 -0.5612
   33CHL1   C23 2427   2.821   1.764   6.654 -0.1637  0.3301 -0.1710
   33CHL1  H23A 2428   2.897   1.805   6.724 -1.9856  0.3526  1.9193
   33CHL1  H23B 2429   2.739   1.839   6.667 -1.3469 -1.0680  0.8549
   33CHL1   C24 2430   2.766   1.627   6.707 -0.2476  0.1820 -0.1079
   33CHL1  H24A 2431   2.705   1.573   6.632  0.0188  0.4248 -0.5063
   33CHL1  H24B 2432   2.855   1.563   6.721  0.0476  0.8708  1.4561
   33CHL1   C25 2433   2.689   1.644   6.839  0.6095  0.0795  0.4445
   33CHL1   H25 2434   2.653   1.545   6.874 -2.3265  0.2813 -1.5738
   33CHL1   C26 2435   2.768   1.710   6.955  0.3593 -0.0543  0.1149
   33CHL1  H26A 2436   2.697   1.715   7.041  0.3393 -1.8874  0.2517
   33CHL1  H26B 2437   2.850   1.639   6.978  0.6096 -0.2645 -1.3218
   33CHL1  H26C 2438   2.806   1.813   6.935  0.6868 -0.0916  0.5213
   33CHL1   C27 2439   2.547   1.710   6.825  0.5098  0.1546  0.1124
   33CHL1  H27A 2440   2.501   1.663   6.736 -0.4145 -0.0155  0.6566
   33CHL1  H27B 2441   2.473   1.695   6.907 -0.4635 -2.0958 -1.0795
   33CHL1  H27C 2442   2.551   1.815   6.790  0.1159 -0.3798 -1.6339
   34CHL1    C3 2443   5.654   2.325   5.924 -0.2792  0.4610  0.0793
   34CHL1    H3 2444   5.609   2.229   5.960  1.1835  0.1418  1.1123
   34CHL1    O3 2445   5.627   2.324   5.785  0.0967 -1.2642  0.0598
   34CHL1   H3' 2446   5.673   2.404   5.762  0.3419 -0.8003  1.9552
   34CHL1    C4 2447   5.598   2.454   5.995 -0.2186  0.4594  0.1599
   34CHL1   H4A 2448   5.671   2.534   5.973  3.4507 -1.7537  3.1538
   34CHL1   H4B 2449   5.498   2.472   5.950 -0.4536 -1.6976 -0.3275
   34CHL1    C5 2450   5.605   2.429   6.141  0.7282  0.0171 -0.4062
   34CHL1    C6 2451   5.492   2.421   6.216 -0.1859 -0.0269  0.3612
   34CHL1    H6 2452   5.392   2.423   6.169 -0.3361 -0.6299  0.6542
   34CHL1    C7 2453   5.496   2.412   6.368 -0.0563  0.0679 -0.8658
   34CHL1   H7A 2454   5.423   2.477   6.420  0.1923 -0.5170  0.2477
   34CHL1   H7B 2455   5.454   2.311   6.386 -0.9882  0.3955 -1.1321
   34CHL1    C8 2456   5.640   2.412   6.433  0.3492 -0.1257 -0.0235
   34CHL1    H8 2457   5.681   2.514   6.446 -1.2673  0.3914  1.3762
   34CHL1   C14 2458   5.637   2.349   6.569  0.6918 -0.5676 -0.4761
   34CHL1   H14 2459   5.587   2.251   6.555 -1.6004  0.8242 -2.9346
   34CHL1   C15 2460   5.540   2.419   6.672 -0.2001  0.0047  0.5851
   34CHL1  H15A 2461   5.555   2.529   6.671 -0.4782  0.0740 -1.9059
   34CHL1  H15B 2462   5.434   2.396   6.649 -0.5228 -2.7666  3.9451
   34CHL1   C16 2463   5.587   2.356   6.801 -0.3910  0.5577  0.5403
   34CHL1  H16A 2464   5.601   2.439   6.873  3.1198  2.2039 -1.7550
   34CHL1  H16B 2465   5.521   2.277   6.842  0.4536 -1.1251 -1.1749
   34CHL1   C17 2466   5.721   2.281   6.774 -0.7403  0.2143  0.3242
   34CHL1   H17 2467   5.706   2.171   6.763 -0.8579  0.1775  0.8282
   34CHL1   C13 2468   5.772   2.335   6.640 -0.8885 -0.1176 -0.2801
   34CHL1   C18 2469   5.843   2.470   6.664  0.4957  0.1380 -0.0702
   34CHL1  H18A 2470   5.944   2.458   6.708  0.0577  0.0293  0.9440
   34CHL1  H18B 2471   5.856   2.523   6.568 -0.8282 -1.1748 -1.0104
   34CHL1  H18C 2472   5.778   2.529   6.733  0.8656 -1.0465  1.3497
   34CHL1   C12 2473   5.852   2.242   6.550  0.3706 -0.0510  0.0832
   34CHL1  H12A 2474   5.954   2.225   6.591  1.2039  1.2790 -1.3527
   34CHL1  H12B 2475   5.800   2.144   6.543 -2.3336  1.2192  1.1807
   34CHL1   C11 2476   5.870   2.302   6.404  0.2994 -0.9063  0.2981
   34CHL1  H11A 2477   5.946   2.383   6.397  0.9130 -1.4183  0.9085
   34CHL1  H11B 2478   5.912   2.216   6.348 -0.6368 -1.4407  0.3896
   34CHL1    C9 2479   5.731   2.334   6.340 -0.3339 -0.0308  0.0151
   34CHL1    H9 2480   5.673   2.240   6.329 -3.0046  1.4769  0.4096
   34CHL1   C10 2481   5.744   2.394   6.197  0.1393 -0.0922  0.7615
   34CHL1   C19 2482   5.821   2.527   6.204  0.3010 -0.0916  0.1018
   34CHL1  H19A 2483   5.809   2.579   6.302 -0.2200 -2.1266  1.1768
   34CHL1  H19B 2484   5.931   2.510   6.205  0.5105  1.1563  0.0718
   34CHL1  H19C 2485   5.821   2.591   6.114  0.8596  0.8924  0.7793
   34CHL1    C1 2486   5.826   2.299   6.103  0.2916 -0.0938 -0.6728
   34CHL1   H1A 2487   5.934   2.300   6.130 -0.0232 -0.4422  0.6864
   34CHL1   H1B 2488   5.791   2.195   6.123 -0.6435  0.2770 -0.3285
   34CHL1    C2 2489   5.801   2.315   5.954  0.2956 -0.4900  0.2710
   34CHL1   H2A 2490   5.845   2.238   5.887  1.3457 -0.1154  0.5004
   34CHL1   H2B 2491   5.853   2.408   5.925  1.6639 -1.5026 -0.6642
   34CHL1   C20 2492   5.813   2.300   6.893 -0.3596  0.1543  0.6564
   34CHL1   H20 2493   5.848   2.405   6.901  2.3055 -0.7366  2.0036
   34CHL1   C21 2494   5.931   2.208   6.867 -0.1360  0.0450 -0.0366
   34CHL1  H21A 2495   5.998   2.184   6.953  0.7601  0.4740 -0.6012
   34CHL1  H21B 2496   5.993   2.261   6.792 -1.6834 -2.0729 -3.0066
   34CHL1  H21C 2497   5.908   2.107   6.826 -1.3539 -0.0126  0.7559
   34CHL1   C22 2498   5.753   2.260   7.032 -0.2835  0.0149  0.4401
   34CHL1  H22A 2499   5.647   2.292   7.042  0.2179  1.7494  0.5677
   34CHL1  H22B 2500   5.754   2.149   7.029  0.4235  0.0460 -1.9392
   34CHL1   C23 2501   5.833   2.325   7.143  0.5725 -0.0196 -0.3207
   34CHL1  H23A 2502   5.940   2.304   7.119  0.8634  1.9195 -0.9309
   34CHL1  H23B 2503   5.818   2.435   7.145  1.1975  0.0573  0.8482
   34CHL1   C24 2504   5.793   2.270   7.283  0.3967  0.4353  0.0048
   34CHL1  H24A 2505   5.689   2.290   7.317 -0.7352 -1.9465 -1.7595
   34CHL1  H24B 2506   5.789   2.160   7.268  1.2384  0.2699  0.9008
   34CHL1   C25 2507   5.888   2.297   7.402  0.8546  0.1714  0.4738
   34CHL1   H25 2508   5.837   2.253   7.490 -2.5890  0.3094 -1.2897
   34CHL1   C26 2509   6.024   2.233   7.375  0.0232 -0.6388 -0.2073
   34CHL1  H26A 2510   6.078   2.305   7.309 -1.0734  1.1835  0.8117
   34CHL1  H26B 2511   6.085   2.241   7.468 -2.1471  0.7068  1.2011
   34CHL1  H26C 2512   6.027   2.127   7.344  1.5475 -0.5196 -0.5795
   34CHL1   C27 2513   5.915   2.446   7.435  0.4010 -1.0992  0.6839
   34CHL1  H27A 2514   5.977   2.504   7.364  2.3412 -0.7666  2.5493
   34CHL1  H27B 2515   5.824   2.505   7.459  1.8614  0.9369  1.4803
   34CHL1  H27C 2516   5.978   2.457   7.525  1.4878 -1.5408  0.0030
   35CHL1    C3 2517   0.686   3.751   5.903 -0.0825 -0.3667 -0.0525
   35CHL1    H3 2518   0.588   3.798   5.927 -0.3913 -1.0935  0.1285
   35CHL1    O3 2519   0.736   3.816   5.782  0.1990 -0.5428  0.4642
   35CHL1   H3' 2520   0.688   3.785   5.705  0.0201 -0.5321  0.5706
   35CHL1    C4 2521   0.782   3.794   6.015  0.1954 -0.0484  0.0995
   35CHL1   H4A 2522   0.886   3.764   5.990  0.1758  1.0701 -1.4982
   35CHL1   H4B 2523   0.791   3.905   6.008  0.7494 -0.0794  0.3002
   35CHL1    C5 2524   0.751   3.745   6.151  0.7809 -0.2756 -0.2732
   35CHL1    C6 2525   0.722   3.823   6.257  0.4928 -0.2936  0.0820
   35CHL1    H6 2526   0.736   3.931   6.242 -1.1173 -0.2536 -1.5953
   35CHL1    C7 2527   0.683   3.769   6.391  0.3140  0.7727 -0.3057
   35CHL1   H7A 2528   0.751   3.815   6.466 -1.8491 -1.2527  3.1914
   35CHL1   H7B 2529   0.581   3.798   6.424  0.2140  0.0307  0.0621
   35CHL1    C8 2530   0.711   3.615   6.410 -0.6760 -0.2920 -0.0149
   35CHL1    H8 2531   0.820   3.612   6.432 -0.9317  0.6826  1.4937
   35CHL1   C14 2532   0.615   3.566   6.518 -0.4470 -0.0093  0.5882
   35CHL1   H14 2533   0.512   3.578   6.480 -0.6497  2.7695  1.7756
   35CHL1   C15 2534   0.626   3.642   6.647 -0.3934  0.1890  0.6621
   35CHL1  H15A 2535   0.726   3.670   6.688  0.4882  0.2340 -1.3869
   35CHL1  H15B 2536   0.565   3.735   6.648 -2.3474 -1.0354 -0.7316
   35CHL1   C16 2537   0.547   3.548   6.740  0.2713  0.1348 -0.3062
   35CHL1  H16A 2538   0.612   3.523   6.827 -2.4890 -2.2623  1.2417
   35CHL1  H16B 2539   0.453   3.590   6.781  0.2733 -1.9466  2.0403
   35CHL1   C17 2540   0.519   3.406   6.672 -0.5839  0.4390  0.3375
   35CHL1   H17 2541   0.415   3.403   6.633  0.9988 -0.6347 -4.3643
   35CHL1   C13 2542   0.626   3.417   6.551  0.5196 -0.0765  0.4714
   35CHL1   C18 2543   0.772   3.380   6.591 -0.6545  0.1798  0.2686
   35CHL1  H18A 2544   0.804   3.428   6.685  1.6945  0.7673 -0.7655
   35CHL1  H18B 2545   0.789   3.271   6.606 -1.6534 -0.1290 -0.6544
   35CHL1  H18C 2546   0.841   3.419   6.513 -1.3579 -0.9951 -0.9917
   35CHL1   C12 2547   0.584   3.345   6.418 -0.2823 -0.8950 -0.5639
   35CHL1  H12A 2548   0.583   3.234   6.422  2.1300 -0.9291  0.7031
   35CHL1  H12B 2549   0.485   3.370   6.373  1.0488 -0.5542 -3.5524
   35CHL1   C11 2550   0.672   3.381   6.302  0.5738  0.2923 -0.1712
   35CHL1  H11A 2551   0.777   3.356   6.327  0.5697  0.4233 -0.0201
   35CHL1  H11B 2552   0.645   3.339   6.202  1.3106 -1.1910  0.2251
   35CHL1    C9 2553   0.669   3.537   6.284  0.3706 -0.8265 -0.8019
   35CHL1    H9 2554   0.560   3.557   6.278  0.6089  0.8691 -0.0947
   35CHL1   C10 2555   0.728   3.590   6.151 -0.0909  0.6596  0.8301
   35CHL1   C19 2556   0.869   3.524   6.133 -0.4018 -0.5036  0.3413
   35CHL1  H19A 2557   0.864   3.413   6.128 -0.4523 -0.4473 -1.7348
   35CHL1  H19B 2558   0.928   3.569   6.051 -0.4949  0.1770  0.6469
   35CHL1  H19C 2559   0.922   3.554   6.226  1.2108 -0.6618 -0.4959
   35CHL1    C1 2560   0.632   3.549   6.037 -0.1481  0.1348  0.8141
   35CHL1   H1A 2561   0.626   3.438   6.025 -0.2664  0.2496 -0.2646
   35CHL1   H1B 2562   0.531   3.591   6.059 -0.4659 -0.3406  0.2963
   35CHL1    C2 2563   0.675   3.605   5.899 -0.2244  0.4513  0.6776
   35CHL1   H2A 2564   0.598   3.571   5.827 -0.1208 -0.2612  0.8941
   35CHL1   H2B 2565   0.777   3.571   5.868 -0.2290  2.1954 -1.4899
   35CHL1   C20 2566   0.544   3.284   6.768 -0.0190  0.2093 -0.3080
   35CHL1   H20 2567   0.654   3.281   6.782 -0.0885 -0.6839  0.1487
   35CHL1   C21 2568   0.507   3.149   6.703 -0.1638  0.5456  0.3281
   35CHL1  H21A 2569   0.537   3.056   6.756  2.2740  1.0546 -0.0515
   35CHL1  H21B 2570   0.558   3.144   6.604  0.5446  1.0387  0.6569
   35CHL1  H21C 2571   0.401   3.147   6.670  0.8970 -0.6014 -3.5681
   35CHL1   C22 2572   0.473   3.283   6.901  0.5510 -0.4651  0.1362
   35CHL1  H22A 2573   0.494   3.197   6.967 -0.4354 -2.0915 -1.5777
   35CHL1  H22B 2574   0.522   3.371   6.949 -0.2705 -0.0752  0.2812
   35CHL1   C23 2575   0.324   3.311   6.894  0.4815 -0.1834  0.7852
   35CHL1  H23A 2576   0.297   3.418   6.882 -1.0378 -0.5925  0.4173
   35CHL1  H23B 2577   0.281   3.255   6.808  1.3633  0.6627 -0.2442
   35CHL1   C24 2578   0.255   3.270   7.031 -0.7537  0.5209 -0.3820
   35CHL1  H24A 2579   0.300   3.171   7.054  1.5107  1.4351 -0.6299
   35CHL1  H24B 2580   0.297   3.353   7.093 -1.7874  1.7565 -1.2955
   35CHL1   C25 2581   0.099   3.270   7.040 -0.6498  0.1472 -0.1163
   35CHL1   H25 2582   0.083   3.235   7.144 -0.7786 -0.4555 -0.3373
   35CHL1   C26 2583   0.036   3.413   7.026 -0.4977 -0.1056 -0.9519
   35CHL1  H26A 2584  -0.070   3.402   6.994 -0.4964  0.7109 -1.2560
   35CHL1  H26B 2585   0.043   3.461   7.125  0.1913 -3.0341  0.5273
   35CHL1  H26C 2586   0.096   3.471   6.952 -0.6421  3.7420  1.6797
   35CHL1   C27 2587   0.035   3.188   6.931 -0.0701 -0.2406  0.3646
   35CHL1  H27A 2588   0.084   3.089   6.924  0.9846  0.3208 -0.3137
   35CHL1  H27B 2589  -0.074   3.170   6.945  0.2668 -4.8375 -1.2708
   35CHL1  H27C 2590   0.045   3.235   6.831 -1.0137  0.3688  0.5363
   36CHL1    C3 2591   4.056   6.619   5.717  0.3250  0.1342  0.0006
   36CHL1    H3 2592   4.046   6.726   5.747  0.2634  0.5475 -1.3989
   36CHL1    O3 2593   4.068   6.611   5.574 -0.2012 -0.4748 -0.1304
   36CHL1   H3' 2594   3.987   6.566   5.549 -0.7640 -0.1186  0.9796
   36CHL1    C4 2595   4.169   6.550   5.785  0.4920 -0.2392  0.6178
   36CHL1   H4A 2596   4.165   6.443   5.756 -1.7567 -0.0047 -0.1452
   36CHL1   H4B 2597   4.269   6.585   5.750 -1.2099  3.0849 -1.4337
   36CHL1    C5 2598   4.161   6.560   5.937  0.8532 -0.1627 -0.2876
   36CHL1    C6 2599   4.259   6.621   6.004 -0.5804  0.1683 -0.5561
   36CHL1    H6 2600   4.351   6.663   5.960 -0.5164  0.9656  0.3170
   36CHL1    C7 2601   4.244   6.637   6.152 -0.0317  0.1976 -0.0497
   36CHL1   H7A 2602   4.345   6.609   6.191  0.5476 -0.8782 -2.1760
   36CHL1   H7B 2603   4.234   6.745   6.175 -0.2293 -0.1987  1.9303
   36CHL1    C8 2604   4.138   6.545   6.219  0.4409  0.8788  0.0765
   36CHL1    H8 2605   4.169   6.439   6.225  0.7099  1.0088  1.2940
   36CHL1   C14 2606   4.114   6.589   6.361 -0.5287  0.0619 -0.2904
   36CHL1   H14 2607   4.062   6.686   6.351 -0.2880  0.1339 -0.8693
   36CHL1   C15 2608   4.240   6.606   6.448  0.1622 -0.4669  0.3989
   36CHL1  H15A 2609   4.298   6.511   6.441 -0.1177 -1.0147  3.5825
   36CHL1  H15B 2610   4.305   6.693   6.429 -0.9266  0.0160 -1.3131
   36CHL1   C16 2611   4.186   6.591   6.589 -0.2626  0.0350 -0.4284
   36CHL1  H16A 2612   4.246   6.521   6.651 -1.2720 -0.1660  0.3497
   36CHL1  H16B 2613   4.210   6.689   6.635 -0.3194  0.3876 -1.1458
   36CHL1   C17 2614   4.034   6.561   6.580 -0.5445 -0.2890  0.3397
   36CHL1   H17 2615   3.992   6.664   6.574 -0.5218 -0.3198 -0.5545
   36CHL1   C13 2616   4.019   6.499   6.434 -0.4097  0.4716 -0.4087
   36CHL1   C18 2617   4.054   6.350   6.455 -0.0861 -1.2039  0.5036
   36CHL1  H18A 2618   4.058   6.313   6.350 -2.2787  3.5403 -1.5355
   36CHL1  H18B 2619   4.150   6.346   6.511 -0.3809  1.3928  1.3391
   36CHL1  H18C 2620   3.983   6.290   6.516 -1.6225  0.4502  0.4295
   36CHL1   C12 2621   3.879   6.524   6.359  0.6429 -0.8693  0.3010
   36CHL1  H12A 2622   3.800   6.465   6.412  0.3237 -2.0923 -1.4432
   36CHL1  H12B 2623   3.853   6.631   6.375 -0.5948 -0.8182 -1.7478
   36CHL1   C11 2624   3.879   6.492   6.212 -0.1722  0.4746 -0.8581
   36CHL1  H11A 2625   3.886   6.381   6.209 -0.7875  0.4342 -0.8795
   36CHL1  H11B 2626   3.792   6.530   6.153  0.2819 -0.7385 -2.3860
   36CHL1    C9 2627   4.007   6.552   6.136  0.4013  0.4054 -0.5552
   36CHL1    H9 2628   3.980   6.660   6.136 -2.9741 -0.3104  0.9186
   36CHL1   C10 2629   4.033   6.508   5.994 -0.4210  0.7704 -0.4352
   36CHL1   C19 2630   4.045   6.351   5.984  0.3545 -0.4783 -0.3116
   36CHL1  H19A 2631   3.946   6.306   6.007  0.0496 -0.4315 -1.4542
   36CHL1  H19B 2632   4.059   6.312   5.881 -1.1145 -2.9425  0.3455
   36CHL1  H19C 2633   4.115   6.302   6.056 -1.2833  0.2707  1.8694
   36CHL1    C1 2634   3.908   6.554   5.907 -0.2378 -0.3791 -0.1404
   36CHL1   H1A 2635   3.830   6.477   5.926  1.3979 -1.9639  0.4674
   36CHL1   H1B 2636   3.884   6.657   5.941 -0.1250 -0.1369 -0.7920
   36CHL1    C2 2637   3.925   6.548   5.753  0.0624 -0.0454  0.0434
   36CHL1   H2A 2638   3.831   6.597   5.718 -0.2275 -0.3418  0.4007
   36CHL1   H2B 2639   3.929   6.445   5.712 -1.8129  0.3999 -1.4210
   36CHL1   C20 2640   3.984   6.485   6.710  0.2251  0.4542 -0.0105
   36CHL1   H20 2641   4.041   6.390   6.712  0.6336  0.6123 -2.0330
   36CHL1   C21 2642   3.834   6.465   6.701 -0.5395 -0.1298  0.2030
   36CHL1  H21A 2643   3.773   6.558   6.698 -0.4797 -0.1075 -0.3094
   36CHL1  H21B 2644   3.802   6.413   6.794 -0.3145  0.3182  0.5279
   36CHL1  H21C 2645   3.812   6.401   6.613  0.2413  0.2722 -0.2939
   36CHL1   C22 2646   4.019   6.573   6.838  0.5352  0.1316 -0.1430
   36CHL1  H22A 2647   4.121   6.616   6.843  0.4570  0.3796 -0.6590
   36CHL1  H22B 2648   3.950   6.660   6.842  0.3743  0.1056 -1.7392
   36CHL1   C23 2649   3.999   6.501   6.972 -0.3170  0.5771 -0.0236
   36CHL1  H23A 2650   3.891   6.489   6.994  0.1105 -1.0376  1.3285
   36CHL1  H23B 2651   4.051   6.404   6.968  0.9219  1.1360  1.7090
   36CHL1   C24 2652   4.068   6.578   7.089 -0.2986  0.8003 -0.6507
   36CHL1  H24A 2653   4.176   6.600   7.073  0.2495  0.5356  2.1381
   36CHL1  H24B 2654   4.024   6.679   7.103 -0.1696  0.8667 -0.7246
   36CHL1   C25 2655   4.060   6.505   7.226 -0.1444  0.2671 -0.3896
   36CHL1   H25 2656   4.104   6.405   7.206  0.5674  0.5772 -0.4224
   36CHL1   C26 2657   4.156   6.566   7.327  0.0088  0.3370 -0.6067
   36CHL1  H26A 2658   4.129   6.672   7.350 -1.0176 -0.2767  1.2459
   36CHL1  H26B 2659   4.159   6.504   7.419  4.8797  0.1119 -0.6794
   36CHL1  H26C 2660   4.258   6.555   7.285  1.4285 -0.3236  2.7084
   36CHL1   C27 2661   3.919   6.499   7.279 -0.3526 -0.3111 -0.2774
   36CHL1  H27A 2662   3.889   6.597   7.323 -1.7406 -0.3058 -1.1783
   36CHL1  H27B 2663   3.839   6.488   7.203  1.0903  0.7919 -2.0331
   36CHL1  H27C 2664   3.908   6.415   7.351 -0.7197 -1.6380 -1.8327
   37CHL1    C3 2665   2.552   0.366   5.952 -0.2763  0.0188 -0.4957
   37CHL1    H3 2666   2.601   0.295   6.022  1.2027  3.2109  2.0304
   37CHL1    O3 2667   2.546   0.309   5.825 -0.0561 -0.1116 -0.0921
   37CHL1   H3' 2668   2.513   0.374   5.763 -0.4326  1.4874  1.6972
   37CHL1    C4 2669   2.410   0.377   6.009  0.6562  0.8108 -0.3978
   37CHL1   H4A 2670   2.353   0.448   5.946 -0.6946 -0.6946 -0.9205
   37CHL1   H4B 2671   2.350   0.284   5.999  0.7315  0.3835  2.2302
   37CHL1    C5 2672   2.422   0.435   6.149 -0.3037 -0.6091 -0.5572
   37CHL1    C6 2673   2.362   0.372   6.248  0.3761  0.0700  0.2221
   37CHL1    H6 2674   2.298   0.286   6.222 -1.0680  1.0584  0.3925
   37CHL1    C7 2675   2.368   0.416   6.390 -0.2889 -0.5386  0.2999
   37CHL1   H7A 2676   2.271   0.410   6.444  0.0053  2.2158  1.3328
   37CHL1   H7B 2677   2.438   0.348   6.443  2.6901  2.1509  0.2045
   37CHL1    C8 2678   2.437   0.555   6.406  0.4292  0.1147 -0.0319
   37CHL1    H8 2679   2.367   0.636   6.377  1.8519  0.1146 -4.0187
   37CHL1   C14 2680   2.494   0.564   6.546  0.1213 -0.0115  0.0030
   37CHL1   H14 2681   2.580   0.495   6.547 -0.7474 -1.1300  0.2653
   37CHL1   C15 2682   2.401   0.522   6.669 -0.3728 -0.1116 -0.8167
   37CHL1  H15A 2683   2.292   0.542   6.660 -0.3641  0.3619  0.0592
   37CHL1  H15B 2684   2.417   0.412   6.679 -0.6674 -0.0586  0.3507
   37CHL1   C16 2685   2.458   0.605   6.786 -0.2990  0.5103 -0.1430
   37CHL1  H16A 2686   2.387   0.683   6.820  0.7857  1.4900 -0.0457
   37CHL1  H16B 2687   2.473   0.546   6.879 -2.2264 -1.3501 -0.9220
   37CHL1   C17 2688   2.583   0.680   6.722  0.0424  0.0565 -0.2183
   37CHL1   H17 2689   2.673   0.616   6.722  0.1578  0.1905 -1.5319
   37CHL1   C13 2690   2.550   0.698   6.574 -0.2085 -0.6256 -0.9011
   37CHL1   C18 2691   2.438   0.806   6.570 -0.5744  0.0929  0.4100
   37CHL1  H18A 2692   2.456   0.904   6.617  0.6315 -0.3573  0.9183
   37CHL1  H18B 2693   2.419   0.844   6.467  0.6850 -1.3000 -0.3766
   37CHL1  H18C 2694   2.342   0.760   6.602 -0.8175  0.2397 -0.0858
   37CHL1   C12 2695   2.672   0.729   6.485  0.5751 -0.0131 -0.0616
   37CHL1  H12A 2696   2.699   0.836   6.496 -0.4008  0.3444 -0.9494
   37CHL1  H12B 2697   2.741   0.654   6.530 -2.7692 -2.0772  2.0691
   37CHL1   C11 2698   2.640   0.707   6.340 -0.3514 -0.1437  0.4221
   37CHL1  H11A 2699   2.585   0.801   6.317  0.5080  0.3771  0.4633
   37CHL1  H11B 2700   2.734   0.708   6.281  1.2335  0.8624  2.8124
   37CHL1    C9 2701   2.555   0.582   6.309  0.1540  0.1031 -0.0938
   37CHL1    H9 2702   2.619   0.496   6.339 -1.5839 -1.4929 -0.7433
   37CHL1   C10 2703   2.520   0.557   6.165 -0.6805 -0.0252  0.4677
   37CHL1   C19 2704   2.448   0.679   6.112 -0.1913 -0.5103  0.1631
   37CHL1  H19A 2705   2.410   0.668   6.008 -1.2887 -1.7020  0.6669
   37CHL1  H19B 2706   2.355   0.709   6.165 -0.7105 -0.6209 -0.6697
   37CHL1  H19C 2707   2.514   0.768   6.117 -2.1131  0.9326  1.0027
   37CHL1    C1 2708   2.651   0.548   6.091  0.3908  0.1157  0.6415
   37CHL1   H1A 2709   2.707   0.643   6.073  1.3353 -0.8118 -1.7969
   37CHL1   H1B 2710   2.716   0.477   6.147 -0.4563 -0.1891  1.2518
   37CHL1    C2 2711   2.635   0.488   5.947 -0.7871 -0.0806 -0.7404
   37CHL1   H2A 2712   2.737   0.470   5.908 -0.7176 -0.9271 -0.1980
   37CHL1   H2B 2713   2.591   0.562   5.877  3.1202 -0.6649 -4.1999
   37CHL1   C20 2714   2.619   0.799   6.820 -0.0588  0.0183  0.8358
   37CHL1   H20 2715   2.533   0.869   6.812  1.6666  2.0866 -1.2203
   37CHL1   C21 2716   2.746   0.879   6.785  0.9402 -0.4443 -0.7717
   37CHL1  H21A 2717   2.739   0.954   6.703  0.4382  0.1423 -0.1974
   37CHL1  H21B 2718   2.829   0.816   6.745  2.0544  0.9953 -0.8123
   37CHL1  H21C 2719   2.772   0.940   6.873 -1.4180  0.1337 -0.4226
   37CHL1   C22 2720   2.626   0.755   6.974  0.1646 -0.1827 -0.1130
   37CHL1  H22A 2721   2.646   0.847   7.032 -0.3368  0.0520 -0.3017
   37CHL1  H22B 2722   2.521   0.725   6.996 -0.8464  0.0043 -4.0199
   37CHL1   C23 2723   2.724   0.636   7.005  0.2285 -0.0954  0.0374
   37CHL1  H23A 2724   2.696   0.548   6.942 -1.3014  0.8578 -0.6559
   37CHL1  H23B 2725   2.825   0.675   6.982  0.6423 -1.3756 -0.4274
   37CHL1   C24 2726   2.703   0.597   7.151 -0.1073 -0.6111 -0.3782
   37CHL1  H24A 2727   2.705   0.689   7.213 -0.5926  0.4843 -1.9187
   37CHL1  H24B 2728   2.597   0.571   7.172 -0.8468  2.7561  0.7089
   37CHL1   C25 2729   2.791   0.482   7.202  0.0309  0.0224 -0.1654
   37CHL1   H25 2730   2.803   0.408   7.120 -1.9044  0.1893 -0.6416
   37CHL1   C26 2731   2.938   0.523   7.228 -0.2907 -0.6751  0.2155
   37CHL1  H26A 2732   2.951   0.592   7.313  0.5404 -0.4754 -0.0611
   37CHL1  H26B 2733   2.999   0.434   7.254 -0.3700 -0.8104 -0.0553
   37CHL1  H26C 2734   2.988   0.572   7.142  0.9160 -0.5645  0.9650
   37CHL1   C27 2735   2.728   0.415   7.326 -0.1793  0.4246 -0.8119
   37CHL1  H27A 2736   2.723   0.484   7.413 -2.1033 -0.3851 -0.2118
   37CHL1  H27B 2737   2.629   0.368   7.307 -0.8239  1.1442  0.6511
   37CHL1  H27C 2738   2.786   0.323   7.347 -0.5207 -0.1924 -2.3974
   38CHL1    C3 2739   3.194   0.558   5.799  0.1516  0.3182  0.1755
   38CHL1    H3 2740   3.304   0.546   5.809  0.6190  4.1864  1.4392
   38CHL1    O3 2741   3.166   0.538   5.660  0.0250 -0.2532  0.2907
   38CHL1   H3' 2742   3.220   0.598   5.609  2.1732 -1.7985  0.5868
   38CHL1    C4 2743   3.123   0.457   5.888 -0.0378  0.4970  0.1800
   38CHL1   H4A 2744   3.013   0.466   5.874 -0.1557 -0.7857  0.1311
   38CHL1   H4B 2745   3.158   0.356   5.856 -1.7770 -0.1410  0.2097
   38CHL1    C5 2746   3.167   0.484   6.028  0.2479 -0.7242 -0.4640
   38CHL1    C6 2747   3.235   0.389   6.093  0.1133 -0.5569  0.0405
   38CHL1    H6 2748   3.256   0.294   6.042  0.5186 -0.2151 -0.4371
   38CHL1    C7 2749   3.283   0.401   6.229  0.1526 -0.0235 -0.9511
   38CHL1   H7A 2750   3.274   0.301   6.277  0.3322  0.2803 -0.2650
   38CHL1   H7B 2751   3.388   0.438   6.231 -0.4328  1.7404 -1.3701
   38CHL1    C8 2752   3.199   0.510   6.304 -0.3593  0.6327 -0.2940
   38CHL1    H8 2753   3.097   0.470   6.317  0.5788 -3.0096 -2.5601
   38CHL1   C14 2754   3.258   0.541   6.439  0.3228 -0.0851  0.7947
   38CHL1   H14 2755   3.362   0.571   6.413  0.2777 -1.4939 -1.2031
   38CHL1   C15 2756   3.268   0.419   6.534  0.1281  0.3121 -0.7276
   38CHL1  H15A 2757   3.169   0.369   6.531  0.1994  0.1288 -0.0909
   38CHL1  H15B 2758   3.341   0.346   6.493 -2.1835 -1.1593 -2.5374
   38CHL1   C16 2759   3.296   0.487   6.665 -0.1315 -0.2504 -0.5774
   38CHL1  H16A 2760   3.230   0.455   6.748 -1.0435  1.0037 -0.7900
   38CHL1  H16B 2761   3.396   0.464   6.706 -0.0744  0.6576 -0.1713
   38CHL1   C17 2762   3.275   0.638   6.648  0.4394  0.1776  0.5527
   38CHL1   H17 2763   3.376   0.682   6.630  0.8225 -0.2503  1.5356
   38CHL1   C13 2764   3.185   0.649   6.520 -0.1190  0.0185  0.2547
   38CHL1   C18 2765   3.045   0.610   6.566  0.5965  0.3107 -0.4897
   38CHL1  H18A 2766   3.008   0.684   6.640 -0.7420 -0.6128 -0.2026
   38CHL1  H18B 2767   2.973   0.618   6.482 -1.8171  2.1398  1.5823
   38CHL1  H18C 2768   3.042   0.517   6.625  1.5374  1.6425  1.7988
   38CHL1   C12 2769   3.194   0.778   6.444 -0.3596  0.0670  0.0271
   38CHL1  H12A 2770   3.138   0.859   6.496  0.7109  2.9071 -2.9297
   38CHL1  H12B 2771   3.289   0.831   6.421 -1.5826  2.4650  0.2079
   38CHL1   C11 2772   3.124   0.752   6.303 -0.3782 -0.7037 -0.4875
   38CHL1  H11A 2773   3.018   0.725   6.322  0.4724 -3.6340  0.5343
   38CHL1  H11B 2774   3.143   0.850   6.253  1.3005 -1.4196 -1.3305
   38CHL1    C9 2775   3.193   0.641   6.223  0.4177  0.3916  0.0325
   38CHL1    H9 2776   3.298   0.674   6.207 -0.0014  2.0826  0.6045
   38CHL1   C10 2777   3.137   0.626   6.078  0.4708 -0.0402  0.2949
   38CHL1   C19 2778   2.977   0.640   6.082 -0.0669  0.3729 -0.6832
   38CHL1  H19A 2779   2.933   0.581   6.165 -2.5404  2.1445 -0.6329
   38CHL1  H19B 2780   2.950   0.748   6.083 -0.6225  0.2786 -2.3165
   38CHL1  H19C 2781   2.927   0.605   5.989 -0.3827  1.0555 -0.7746
   38CHL1    C1 2782   3.199   0.728   5.983  0.2042  0.4920 -0.1923
   38CHL1   H1A 2783   3.171   0.829   6.020 -1.5765 -0.0607  0.0636
   38CHL1   H1B 2784   3.309   0.718   5.990  0.3447  1.7551 -0.2581
   38CHL1    C2 2785   3.162   0.707   5.844 -0.6972 -0.3236  0.3836
   38CHL1   H2A 2786   3.212   0.784   5.781 -1.7621 -1.1458 -1.5362
   38CHL1   H2B 2787   3.053   0.732   5.844 -0.1150  2.6746  0.6696
   38CHL1   C20 2788   3.239   0.699   6.782 -0.1521  0.3120 -0.5139
   38CHL1   H20 2789   3.148   0.651   6.824 -2.1617  3.8674 -0.4211
   38CHL1   C21 2790   3.200   0.852   6.777 -0.4570 -0.6514 -0.0380
   38CHL1  H21A 2791   3.115   0.871   6.709 -0.3336 -3.9954 -1.3225
   38CHL1  H21B 2792   3.288   0.905   6.735 -1.4632  0.2086 -1.0920
   38CHL1  H21C 2793   3.175   0.890   6.879  1.4619 -0.8258  0.5536
   38CHL1   C22 2794   3.346   0.685   6.889  0.3017  0.4933  0.2362
   38CHL1  H22A 2795   3.413   0.596   6.884 -1.2072 -0.8145  1.8905
   38CHL1  H22B 2796   3.416   0.768   6.870  0.0913  1.0051  1.6341
   38CHL1   C23 2797   3.293   0.702   7.037 -0.6267  0.2294  1.0287
   38CHL1  H23A 2798   3.285   0.810   7.065  0.6539  0.3434  1.0248
   38CHL1  H23B 2799   3.188   0.668   7.039 -1.5084  2.3213 -1.9042
   38CHL1   C24 2800   3.392   0.650   7.143  0.1774 -0.7842  0.1352
   38CHL1  H24A 2801   3.426   0.554   7.099  0.7470  0.2330 -1.7758
   38CHL1  H24B 2802   3.483   0.714   7.132 -2.6176  3.3266 -1.7342
   38CHL1   C25 2803   3.336   0.638   7.286 -0.4440 -0.3031 -0.1174
   38CHL1   H25 2804   3.260   0.557   7.294  0.4367 -1.0820  0.5791
   38CHL1   C26 2805   3.456   0.599   7.381  0.9318  0.3999  0.3431
   38CHL1  H26A 2806   3.522   0.682   7.415 -1.7459  3.1767 -0.7424
   38CHL1  H26B 2807   3.398   0.554   7.464 -2.4917  0.1250 -2.0096
   38CHL1  H26C 2808   3.515   0.525   7.323 -1.3948  0.1701 -1.9169
   38CHL1   C27 2809   3.260   0.761   7.331  0.4104  0.2263 -0.0892
   38CHL1  H27A 2810   3.163   0.777   7.279  0.5850 -2.3102 -1.3319
   38CHL1  H27B 2811   3.241   0.745   7.439  0.8235 -1.5466 -0.2570
   38CHL1  H27C 2812   3.316   0.857   7.323  0.6806  0.1763  1.0887
   39CHL1    C3 2813   5.855   0.901   5.894 -0.8388  0.1693 -0.1544
   39CHL1    H3 2814   5.907   0.996   5.918 -1.0147  0.2517 -0.0975
   39CHL1    O3 2815   5.880   0.873   5.758 -0.1139 -0.3816 -0.0329
   39CHL1   H3' 2816   5.852   0.782   5.746  1.3274 -0.9102  0.4942
   39CHL1    C4 2817   5.910   0.780   5.969  0.5872 -0.1714  1.6756
   39CHL1   H4A 2818   5.867   0.683   5.937  0.2038  0.2517  0.8814
   39CHL1   H4B 2819   6.019   0.782   5.947  0.5715 -0.5655  1.5559
   39CHL1    C5 2820   5.887   0.801   6.117 -0.6098  0.5593 -0.5541
   39CHL1    C6 2821   5.998   0.808   6.205 -0.0662  0.3455 -0.1518
   39CHL1    H6 2822   6.097   0.827   6.161 -0.1460  0.3148 -0.3490
   39CHL1    C7 2823   5.996   0.814   6.355 -0.0676  0.1964 -0.3766
   39CHL1   H7A 2824   6.053   0.733   6.405  1.5936  1.8301  0.4634
   39CHL1   H7B 2825   6.046   0.907   6.388  1.5608 -0.4822 -0.8289
   39CHL1    C8 2826   5.849   0.783   6.405  0.7627 -0.0382  0.7909
   39CHL1    H8 2827   5.821   0.676   6.393  2.1954 -0.4021  0.4876
   39CHL1   C14 2828   5.840   0.830   6.550  0.8972  0.3803  0.8445
   39CHL1   H14 2829   5.860   0.939   6.545 -0.2835  0.6543  1.6329
   39CHL1   C15 2830   5.939   0.768   6.643  0.3950 -0.5685  0.7029
   39CHL1  H15A 2831   5.956   0.660   6.619  1.4305 -0.4149  0.7084
   39CHL1  H15B 2832   6.037   0.820   6.636  0.5025 -0.6283  1.7333
   39CHL1   C16 2833   5.872   0.783   6.782 -0.4497  0.8376  0.3808
   39CHL1  H16A 2834   5.838   0.682   6.815 -0.8310  0.5169 -0.9338
   39CHL1  H16B 2835   5.941   0.823   6.859 -1.2880  1.7208  0.6927
   39CHL1   C17 2836   5.731   0.855   6.759 -0.3923  0.7913 -0.3322
   39CHL1   H17 2837   5.758   0.962   6.759 -1.6489  1.1911  2.1581
   39CHL1   C13 2838   5.704   0.815   6.613 -1.0379  0.2320 -0.2764
   39CHL1   C18 2839   5.652   0.666   6.606  0.0827 -0.1767  0.3830
   39CHL1  H18A 2840   5.623   0.647   6.500  0.0910 -0.8092  0.4932
   39CHL1  H18B 2841   5.721   0.585   6.637 -1.2556 -1.2281  0.7664
   39CHL1  H18C 2842   5.556   0.656   6.662 -0.6259  0.4927 -0.6687
   39CHL1   C12 2843   5.611   0.907   6.527 -0.2589 -0.2384  0.4171
   39CHL1  H12A 2844   5.503   0.904   6.555 -0.2217  0.2323  0.6257
   39CHL1  H12B 2845   5.634   1.014   6.544 -0.9701  0.4736 -2.4042
   39CHL1   C11 2846   5.612   0.881   6.378  0.4453  0.4289  0.7418
   39CHL1  H11A 2847   5.542   0.798   6.357 -0.6137  1.5931 -0.5170
   39CHL1  H11B 2848   5.558   0.966   6.331  0.0529 -0.3309 -0.2273
   39CHL1    C9 2849   5.758   0.865   6.313  0.1831 -0.0910 -0.6913
   39CHL1    H9 2850   5.812   0.962   6.317  1.7958 -0.9866  0.5476
   39CHL1   C10 2851   5.746   0.825   6.163  0.6013  0.0288  0.1684
   39CHL1   C19 2852   5.667   0.687   6.150 -0.8410 -0.1624  0.5630
   39CHL1  H19A 2853   5.714   0.613   6.218 -0.1738 -0.0303  0.2416
   39CHL1  H19B 2854   5.563   0.693   6.190 -1.5335 -0.3503 -1.1564
   39CHL1  H19C 2855   5.658   0.659   6.043  0.0872  1.9114 -0.1024
   39CHL1    C1 2856   5.677   0.936   6.072  1.0297  0.3061 -0.0201
   39CHL1   H1A 2857   5.569   0.947   6.093  1.0877  0.1864  0.3434
   39CHL1   H1B 2858   5.732   1.025   6.109  1.0246  0.2988  0.0046
   39CHL1    C2 2859   5.704   0.912   5.919  0.4962  0.1126  0.0287
   39CHL1   H2A 2860   5.662   1.008   5.881 -0.7849  0.6045  2.4827
   39CHL1   H2B 2861   5.635   0.832   5.883  0.8550  0.9194 -2.6297
   39CHL1   C20 2862   5.624   0.840   6.862  0.3487  0.7586  0.3660
   39CHL1   H20 2863   5.585   0.737   6.871 -0.5229  1.1544  1.5676
   39CHL1   C21 2864   5.499   0.924   6.825 -0.1709 -0.1802 -0.1428
   39CHL1  H21A 2865   5.434   0.875   6.750 -1.2020  1.0840 -0.1038
   39CHL1  H21B 2866   5.537   1.024   6.797  2.9630 -1.3034 -0.2565
   39CHL1  H21C 2867   5.438   0.949   6.915  0.0428 -0.8277  0.1950
   39CHL1   C22 2868   5.664   0.887   7.000  0.0352  0.4231 -0.2658
   39CHL1  H22A 2869   5.758   0.842   7.038  0.2499 -1.7147 -3.0176
   39CHL1  H22B 2870   5.676   0.997   6.998  0.6361  0.3664  0.0159
   39CHL1   C23 2871   5.563   0.844   7.110 -0.1713 -0.1009 -0.3383
   39CHL1  H23A 2872   5.458   0.845   7.074  0.7545 -0.1492 -3.3508
   39CHL1  H23B 2873   5.586   0.736   7.120  0.3021 -0.0444 -0.7625
   39CHL1   C24 2874   5.593   0.910   7.239 -0.0220 -0.2498 -0.9079
   39CHL1  H24A 2875   5.543   0.854   7.321  1.2600 -0.8089 -0.4879
   39CHL1  H24B 2876   5.702   0.915   7.257 -0.1986  0.3976  0.1193
   39CHL1   C25 2877   5.539   1.054   7.261 -0.5635 -0.9134 -0.4625
   39CHL1   H25 2878   5.589   1.124   7.190  3.0526 -1.8126  0.9644
   39CHL1   C26 2879   5.388   1.074   7.235 -0.7292  0.3238 -0.0182
   39CHL1  H26A 2880   5.366   1.058   7.127 -0.8170 -1.5170  0.2321
   39CHL1  H26B 2881   5.326   1.003   7.294 -2.7006  2.8362  1.1340
   39CHL1  H26C 2882   5.348   1.172   7.269 -0.2537  0.2261  0.8266
   39CHL1   C27 2883   5.589   1.096   7.399 -0.1779 -0.2350 -0.0679
   39CHL1  H27A 2884   5.699   1.111   7.404 -0.3997  1.1528  2.4834
   39CHL1  H27B 2885   5.543   1.195   7.421  1.0991 -0.0865  2.2261
   39CHL1  H27C 2886   5.557   1.014   7.467  0.4644 -0.5371 -0.1268
   40CHL1    C3 2887   6.566   6.140   5.706 -0.0805  0.8128  0.5273
   40CHL1    H3 2888   6.577   6.033   5.735  4.3246  1.0449  0.2833
   40CHL1    O3 2889   6.607   6.167   5.572  0.1122  0.3006  0.1303
   40CHL1   H3' 2890   6.703   6.163   5.570  0.1084 -1.2551 -2.9100
   40CHL1    C4 2891   6.410   6.174   5.706 -0.2102 -0.2983  0.4448
   40CHL1   H4A 2892   6.401   6.277   5.664  1.2502 -0.1107  0.5299
   40CHL1   H4B 2893   6.368   6.108   5.628 -1.1076  2.4902 -1.6212
   40CHL1    C5 2894   6.341   6.162   5.839  0.6926  0.4748 -0.2385
   40CHL1    C6 2895   6.231   6.082   5.860 -0.4282 -0.3745 -0.1069
   40CHL1    H6 2896   6.189   6.016   5.783  1.7583 -0.2687 -1.4554
   40CHL1    C7 2897   6.160   6.081   5.994 -0.2138 -0.0220 -0.1277
   40CHL1   H7A 2898   6.054   6.104   5.972  0.6116  1.6917 -2.9065
   40CHL1   H7B 2899   6.157   5.978   6.034  0.2338 -0.3889 -1.0100
   40CHL1    C8 2900   6.215   6.193   6.097 -0.4106  0.4024 -0.4653
   40CHL1    H8 2901   6.170   6.290   6.066  1.8497  1.6356 -0.0825
   40CHL1   C14 2902   6.178   6.147   6.239 -0.5963 -0.6727 -0.0648
   40CHL1   H14 2903   6.226   6.048   6.251 -2.9441 -2.1489 -2.0658
   40CHL1   C15 2904   6.032   6.106   6.259 -0.3938  0.7083  0.0387
   40CHL1  H15A 2905   5.958   6.159   6.194 -0.1757  0.7876 -0.1448
   40CHL1  H15B 2906   6.020   5.999   6.231  0.4964  0.0635  2.0309
   40CHL1   C16 2907   6.013   6.125   6.406 -0.0042 -0.1821  0.5314
   40CHL1  H16A 2908   5.941   6.209   6.410 -2.5435 -1.8946 -3.2802
   40CHL1  H16B 2909   5.971   6.043   6.468  0.3696  0.2890  1.4311
   40CHL1   C17 2910   6.155   6.157   6.465 -0.5189 -0.3929  0.1910
   40CHL1   H17 2911   6.203   6.057   6.473 -0.6840 -0.5419 -0.5832
   40CHL1   C13 2912   6.215   6.239   6.353 -0.2158 -0.2065  0.0691
   40CHL1   C18 2913   6.135   6.370   6.334 -0.1494 -0.3291 -0.0764
   40CHL1  H18A 2914   6.155   6.428   6.427 -1.7783 -0.0046  0.0978
   40CHL1  H18B 2915   6.172   6.421   6.243  1.3565 -1.0475  0.0993
   40CHL1  H18C 2916   6.026   6.363   6.313 -0.0021 -0.7955 -0.7233
   40CHL1   C12 2917   6.369   6.255   6.347  0.4810  0.6739 -0.4770
   40CHL1  H12A 2918   6.396   6.333   6.421 -1.6281 -0.3442  1.4882
   40CHL1  H12B 2919   6.420   6.161   6.379  1.2457  1.5469  0.9551
   40CHL1   C11 2920   6.422   6.296   6.211 -0.6282 -0.2038  0.3030
   40CHL1  H11A 2921   6.405   6.404   6.189 -0.8899 -0.4259 -0.6077
   40CHL1  H11B 2922   6.532   6.278   6.206 -0.4536  1.1620 -2.2183
   40CHL1    C9 2923   6.361   6.208   6.090 -0.5802 -0.4399 -0.4347
   40CHL1    H9 2924   6.392   6.105   6.119 -0.9243 -0.5511 -0.4625
   40CHL1   C10 2925   6.417   6.245   5.952  0.4777  0.2310 -0.1431
   40CHL1   C19 2926   6.394   6.396   5.932  0.1484  0.5572 -0.4775
   40CHL1  H19A 2927   6.462   6.451   6.000  0.1034 -0.6046  0.5355
   40CHL1  H19B 2928   6.429   6.437   5.834 -0.5778  2.3647 -0.0340
   40CHL1  H19C 2929   6.290   6.429   5.954  0.0207  1.9527 -2.7438
   40CHL1    C1 2930   6.575   6.225   5.945 -0.2529 -0.0713 -0.1738
   40CHL1   H1A 2931   6.625   6.309   5.997 -0.2577 -0.6693  0.8193
   40CHL1   H1B 2932   6.609   6.126   5.983  2.2269 -0.8732 -3.9273
   40CHL1    C2 2933   6.636   6.235   5.797 -0.1045 -0.1953  0.1681
   40CHL1   H2A 2934   6.745   6.217   5.787 -0.1785 -0.1666 -0.7520
   40CHL1   H2B 2935   6.616   6.340   5.765  0.7815 -0.8696 -2.9584
   40CHL1   C20 2936   6.155   6.216   6.603  0.2071 -0.2106  0.2626
   40CHL1   H20 2937   6.165   6.326   6.598  0.1968 -0.2154  0.1389
   40CHL1   C21 2938   6.284   6.167   6.672  0.0778 -0.2090  0.1857
   40CHL1  H21A 2939   6.271   6.056   6.677 -2.3198  0.0391  0.4512
   40CHL1  H21B 2940   6.284   6.201   6.778 -1.6106  0.5011 -0.0174
   40CHL1  H21C 2941   6.379   6.177   6.615 -0.3751 -0.0947 -0.5642
   40CHL1   C22 2942   6.028   6.177   6.677 -0.0901  0.0329 -0.7271
   40CHL1  H22A 2943   5.937   6.226   6.637 -1.0063 -0.3368  0.8307
   40CHL1  H22B 2944   6.012   6.068   6.692  0.9573  0.2250  2.4915
   40CHL1   C23 2945   6.037   6.240   6.817  0.6070  0.1533  0.6979
   40CHL1  H23A 2946   6.107   6.185   6.884  1.0250  0.7843  0.7826
   40CHL1  H23B 2947   6.074   6.344   6.815  1.0425 -0.0118  0.2376
   40CHL1   C24 2948   5.905   6.230   6.892  0.1120  0.0141  0.1620
   40CHL1  H24A 2949   5.808   6.250   6.840 -1.0808  3.1676  3.1629
   40CHL1  H24B 2950   5.895   6.124   6.923  0.4135 -0.1965 -0.4448
   40CHL1   C25 2951   5.904   6.321   7.019 -0.5130 -0.8033 -0.4043
   40CHL1   H25 2952   5.912   6.428   6.988 -0.5790 -0.3310  1.1152
   40CHL1   C26 2953   5.779   6.293   7.102  0.0509 -0.0231  0.2719
   40CHL1  H26A 2954   5.779   6.195   7.153 -0.3808 -0.4835 -0.5783
   40CHL1  H26B 2955   5.780   6.363   7.188 -1.2545 -0.7965  0.9586
   40CHL1  H26C 2956   5.684   6.300   7.044  0.4999 -0.2088 -0.4997
   40CHL1   C27 2957   6.027   6.299   7.111  0.5102 -0.2154 -0.1155
   40CHL1  H27A 2958   6.046   6.189   7.120 -0.8615 -0.3878  1.0549
   40CHL1  H27B 2959   6.116   6.334   7.055 -0.0940  0.1692 -0.8506
   40CHL1  H27C 2960   6.017   6.348   7.210  0.4403 -0.7765  0.1629
   41CHL1    C3 2961   6.066   1.406   5.862  0.1593  0.8040  0.9396
   41CHL1    H3 2962   6.050   1.516   5.867 -0.3518  0.7857  0.0179
   41CHL1    O3 2963   6.073   1.379   5.721 -0.8494 -0.0610  0.3022
   41CHL1   H3' 2964   6.057   1.285   5.710  0.6108 -0.3675  0.5325
   41CHL1    C4 2965   6.191   1.360   5.929 -0.4126  0.0909  0.0789
   41CHL1   H4A 2966   6.190   1.251   5.907 -1.2169  0.6947 -3.5526
   41CHL1   H4B 2967   6.279   1.407   5.880 -0.3964 -0.3991 -0.3804
   41CHL1    C5 2968   6.181   1.379   6.078  0.4228 -0.2072  0.1818
   41CHL1    C6 2969   6.276   1.437   6.146  0.7849 -0.4318 -0.4061
   41CHL1    H6 2970   6.361   1.480   6.091  2.1240 -1.8148  0.5049
   41CHL1    C7 2971   6.273   1.447   6.297 -0.7263 -0.2322  0.0864
   41CHL1   H7A 2972   6.371   1.436   6.349 -0.9359  2.0943  1.0799
   41CHL1   H7B 2973   6.256   1.553   6.325 -0.0341  0.8788 -3.1869
   41CHL1    C8 2974   6.161   1.366   6.373 -0.2532  0.1553 -0.1757
   41CHL1    H8 2975   6.203   1.263   6.375 -0.6871 -0.0287  1.5339
   41CHL1   C14 2976   6.131   1.402   6.520 -0.3862 -0.7195  0.0749
   41CHL1   H14 2977   6.088   1.504   6.508 -0.8702 -0.7525  1.3941
   41CHL1   C15 2978   6.253   1.424   6.613 -0.2817  0.2231  0.1704
   41CHL1  H15A 2979   6.326   1.341   6.604 -1.0161 -0.2548 -1.8382
   41CHL1  H15B 2980   6.304   1.518   6.584  2.5675 -1.3790 -0.4463
   41CHL1   C16 2981   6.182   1.424   6.750 -0.4235 -0.5074 -0.2850
   41CHL1  H16A 2982   6.229   1.344   6.811 -1.3424 -1.0440 -0.2491
   41CHL1  H16B 2983   6.186   1.520   6.805  0.4541  0.4505 -1.9455
   41CHL1   C17 2984   6.024   1.385   6.727 -0.4105 -0.1185  0.4696
   41CHL1   H17 2985   5.976   1.485   6.724 -2.3055 -1.0057 -2.4519
   41CHL1   C13 2986   6.028   1.317   6.588  0.1924 -0.4383  0.8049
   41CHL1   C18 2987   6.074   1.167   6.596 -0.2501  0.1652 -0.3888
   41CHL1  H18A 2988   6.063   1.105   6.505  0.1479 -1.3363  0.5605
   41CHL1  H18B 2989   6.178   1.164   6.635 -0.7779  3.8596  1.7867
   41CHL1  H18C 2990   6.009   1.114   6.669 -1.4459 -0.2284 -1.6789
   41CHL1   C12 2991   5.900   1.346   6.506  0.1999 -0.3075 -0.0949
   41CHL1  H12A 2992   5.815   1.285   6.544 -0.1102 -0.6614 -1.3016
   41CHL1  H12B 2993   5.867   1.451   6.520 -0.9808 -0.9628  3.0141
   41CHL1   C11 2994   5.908   1.307   6.357 -0.2680 -0.3693  0.0622
   41CHL1  H11A 2995   5.925   1.197   6.361 -1.6400 -0.5862  0.5437
   41CHL1  H11B 2996   5.808   1.332   6.316 -0.3366  2.6176  1.7127
   41CHL1    C9 2997   6.034   1.380   6.287  0.3376  0.0809 -1.1733
   41CHL1    H9 2998   6.002   1.486   6.279  0.6676  0.3278  0.3777
   41CHL1   C10 2999   6.048   1.333   6.140 -0.3220 -0.0790 -0.3352
   41CHL1   C19 3000   6.055   1.175   6.150 -1.0626  0.2773  0.0423
   41CHL1  H19A 3001   5.956   1.128   6.169 -2.0018  0.9557 -2.6654
   41CHL1  H19B 3002   6.093   1.123   6.059 -0.5114 -2.1329  1.5514
   41CHL1  H19C 3003   6.113   1.143   6.240 -2.0247  0.4241  0.7273
   41CHL1    C1 3004   5.922   1.380   6.061  0.0682 -1.2231 -0.3967
   41CHL1   H1A 3005   5.831   1.331   6.101 -1.2465  1.6103  0.3638
   41CHL1   H1B 3006   5.917   1.491   6.065 -1.7030 -1.0904 -3.2360
   41CHL1    C2 3007   5.934   1.342   5.913 -0.1533 -0.4787 -0.4230
   41CHL1   H2A 3008   5.851   1.374   5.847 -1.5478  0.1034  1.5258
   41CHL1   H2B 3009   5.929   1.231   5.909 -4.0718 -0.4295 -0.9251
   41CHL1   C20 3010   5.954   1.315   6.842  0.5262 -0.1119 -0.1931
   41CHL1   H20 3011   6.005   1.219   6.864 -1.8663 -1.6801 -1.0238
   41CHL1   C21 3012   5.805   1.279   6.809 -0.2664  0.2121 -0.2524
   41CHL1  H21A 3013   5.756   1.377   6.793 -0.0396  0.1031 -1.7326
   41CHL1  H21B 3014   5.750   1.235   6.895 -1.0304  1.4222 -0.0943
   41CHL1  H21C 3015   5.793   1.208   6.725  0.2526  0.2397 -0.3527
   41CHL1   C22 3016   5.957   1.408   6.963  0.3447  0.2815 -0.3497
   41CHL1  H22A 3017   6.055   1.449   6.995 -1.0485  2.3626  1.4654
   41CHL1  H22B 3018   5.896   1.499   6.946 -2.0553 -0.4729  3.1950
   41CHL1   C23 3019   5.912   1.340   7.095  0.2388  0.6469  0.4996
   41CHL1  H23A 3020   5.843   1.255   7.075  1.5554 -1.2267  3.2160
   41CHL1  H23B 3021   6.008   1.301   7.135  0.2451  1.1616  1.0070
   41CHL1   C24 3022   5.861   1.452   7.190  0.8387  0.1736 -0.3073
   41CHL1  H24A 3023   5.951   1.511   7.216 -0.0313  1.2134  0.3942
   41CHL1  H24B 3024   5.793   1.519   7.133 -0.4406 -1.8913 -1.3618
   41CHL1   C25 3025   5.795   1.404   7.324 -0.0916  0.2071  0.5471
   41CHL1   H25 3026   5.716   1.328   7.304 -0.1060 -0.4104  2.6660
   41CHL1   C26 3027   5.904   1.333   7.412  0.3730  0.2112  0.4418
   41CHL1  H26A 3028   5.928   1.230   7.377 -0.8967 -0.2784  0.9696
   41CHL1  H26B 3029   5.996   1.395   7.413 -0.6097  1.7232  1.7148
   41CHL1  H26C 3030   5.861   1.318   7.514  1.3169  1.0139  0.9727
   41CHL1   C27 3031   5.717   1.513   7.406 -0.6925  0.4016  0.1055
   41CHL1  H27A 3032   5.639   1.562   7.344 -0.0503  1.9644  0.4776
   41CHL1  H27B 3033   5.657   1.455   7.479 -2.5646  2.8660  0.6524
   41CHL1  H27C 3034   5.770   1.594   7.462 -1.2219 -0.2917  1.6500
   42CHL1    C3 3035   5.812   1.570   0.485 -0.3490  0.1249 -0.0858
   42CHL1    H3 3036   5.908   1.618   0.458  0.0111 -0.8871 -0.6391
   42CHL1    O3 3037   5.810   1.553   0.629 -0.3014 -0.3635 -0.2471
   42CHL1   H3' 3038   5.884   1.608   0.657 -1.5566  0.4684  1.6617
   42CHL1    C4 3039   5.693   1.659   0.445  0.6401 -0.2183 -0.1052
   42CHL1   H4A 3040   5.593   1.617   0.469  0.0093  0.7397 -0.9252
   42CHL1   H4B 3041   5.691   1.754   0.502  0.9211 -0.1236 -0.2532
   42CHL1    C5 3042   5.699   1.684   0.292  0.5475 -0.5009  0.5364
   42CHL1    C6 3043   5.693   1.810   0.251  0.2953  0.8105  0.0569
   42CHL1    H6 3044   5.670   1.881   0.332 -0.6880 -0.2322  0.7157
   42CHL1    C7 3045   5.692   1.855   0.102 -0.0558  0.3991  0.2124
   42CHL1   H7A 3046   5.620   1.934   0.070 -1.3603 -0.3581  1.2087
   42CHL1   H7B 3047   5.796   1.886   0.077  1.2995 -3.6517  0.1375
   42CHL1    C8 3048   5.681   1.730   0.003 -0.0019  0.0855 -0.5497
   42CHL1    H8 3049   5.574   1.708  -0.016 -0.3667 -0.3514  1.6866
   42CHL1   C14 3050   5.735   1.752  -0.135 -0.1992 -0.3198 -0.4077
   42CHL1   H14 3051   5.845   1.760  -0.122 -0.2830 -1.3969  1.2651
   42CHL1   C15 3052   5.693   1.881  -0.210 -0.1223  0.2640 -0.2557
   42CHL1  H15A 3053   5.586   1.906  -0.199 -0.0028  0.2214  1.1258
   42CHL1  H15B 3054   5.762   1.953  -0.162  0.7169 -0.5775 -0.1726
   42CHL1   C16 3055   5.736   1.860  -0.357 -0.4810 -0.4733  0.3676
   42CHL1  H16A 3056   5.648   1.870  -0.425 -0.9476  1.3807  1.1972
   42CHL1  H16B 3057   5.806   1.933  -0.402 -0.9798 -0.4894 -0.4477
   42CHL1   C17 3058   5.792   1.716  -0.365 -0.0083 -0.4675  0.5857
   42CHL1   H17 3059   5.901   1.715  -0.343  0.2610  0.3597 -0.6182
   42CHL1   C13 3060   5.726   1.645  -0.247  0.7005  0.0898 -1.0382
   42CHL1   C18 3061   5.574   1.618  -0.286 -0.5664 -0.4469 -0.8595
   42CHL1  H18A 3062   5.527   1.711  -0.326 -1.0161  0.8657  2.3117
   42CHL1  H18B 3063   5.561   1.536  -0.359 -1.4855  0.0353 -1.2541
   42CHL1  H18C 3064   5.515   1.597  -0.194  0.3940  2.6467  0.6189
   42CHL1   C12 3065   5.791   1.516  -0.187  0.6765 -0.5910 -0.6594
   42CHL1  H12A 3066   5.787   1.433  -0.260 -0.5477  0.3755 -1.7466
   42CHL1  H12B 3067   5.897   1.539  -0.166  0.3465  1.4772 -1.0700
   42CHL1   C11 3068   5.727   1.485  -0.048 -0.0273  0.5817  0.0068
   42CHL1  H11A 3069   5.622   1.450  -0.058  0.2146  0.3636 -2.5960
   42CHL1  H11B 3070   5.786   1.397  -0.015  1.3313  1.8539  1.0842
   42CHL1    C9 3071   5.742   1.601   0.054 -0.1453 -0.8022 -0.2621
   42CHL1    H9 3072   5.851   1.624   0.062 -0.3317 -0.4812  2.3218
   42CHL1   C10 3073   5.705   1.559   0.202  0.2500 -0.5402 -0.0197
   42CHL1   C19 3074   5.559   1.493   0.200 -0.6163 -0.0564  0.4758
   42CHL1  H19A 3075   5.500   1.553   0.127  2.3946  1.1831 -1.1051
   42CHL1  H19B 3076   5.559   1.389   0.162 -2.6995 -0.2535  0.8722
   42CHL1  H19C 3077   5.522   1.484   0.304  1.9111 -0.2478  1.4226
   42CHL1    C1 3078   5.808   1.457   0.263 -0.2472  0.1682 -0.4776
   42CHL1   H1A 3079   5.804   1.362   0.205  0.8151 -0.4913  0.4773
   42CHL1   H1B 3080   5.909   1.501   0.250  0.1921 -1.1944 -1.9326
   42CHL1    C2 3081   5.798   1.435   0.412 -0.1701  0.0328 -1.0334
   42CHL1   H2A 3082   5.878   1.369   0.451 -0.5031  0.8915  1.2709
   42CHL1   H2B 3083   5.694   1.405   0.436 -0.3528 -0.1892 -2.0595
   42CHL1   C20 3084   5.773   1.655  -0.503  0.0780 -0.3300 -0.1577
   42CHL1   H20 3085   5.664   1.656  -0.525 -0.0033  0.0013  0.2467
   42CHL1   C21 3086   5.818   1.508  -0.507  1.1352  0.1171  0.2491
   42CHL1  H21A 3087   5.804   1.471  -0.611 -2.0109 -1.3490  1.0820
   42CHL1  H21B 3088   5.744   1.448  -0.451  0.4533 -0.1788 -0.9336
   42CHL1  H21C 3089   5.922   1.497  -0.470  0.8517  2.1439  1.8493
   42CHL1   C22 3090   5.841   1.740  -0.619  0.1908 -0.7930  0.8955
   42CHL1  H22A 3091   5.818   1.848  -0.611  0.3069 -0.6710 -0.2584
   42CHL1  H22B 3092   5.951   1.725  -0.616  0.1036 -1.2738  2.3604
   42CHL1   C23 3093   5.792   1.692  -0.762 -0.2749 -0.4388  0.4405
   42CHL1  H23A 3094   5.829   1.591  -0.789 -4.2491 -2.5757  2.1488
   42CHL1  H23B 3095   5.681   1.684  -0.757 -0.4730  1.0344 -0.7251
   42CHL1   C24 3096   5.837   1.799  -0.868 -0.3798 -0.4999  0.0399
   42CHL1  H24A 3097   5.807   1.904  -0.845  1.2493 -0.2384  1.1028
   42CHL1  H24B 3098   5.948   1.792  -0.866 -0.3978 -3.6107 -2.5874
   42CHL1   C25 3099   5.794   1.759  -1.007  0.6883  0.3888  0.4073
   42CHL1   H25 3100   5.824   1.653  -1.011  2.2244  0.7134  1.8376
   42CHL1   C26 3101   5.648   1.770  -1.023  0.5891  0.1092  0.6184
   42CHL1  H26A 3102   5.611   1.711  -1.110  1.1324 -1.5421  1.4687
   42CHL1  H26B 3103   5.597   1.723  -0.936  1.4812  1.6821  2.0379
   42CHL1  H26C 3104   5.612   1.875  -1.022  0.0282 -0.0817  1.3031
   42CHL1   C27 3105   5.861   1.827  -1.124  0.0191 -0.9382 -0.1692
   42CHL1  H27A 3106   5.845   1.937  -1.123 -0.4092 -0.9326 -2.4677
   42CHL1  H27B 3107   5.970   1.807  -1.129  0.1068 -0.2824 -0.9383
   42CHL1  H27C 3108   5.818   1.784  -1.217 -1.2757 -0.2602  0.0847
   43CHL1    C3 3109   3.568   0.716   5.773  0.5095  0.0804 -0.1823
   43CHL1    H3 3110   3.462   0.703   5.805  0.9518  0.2053  1.4354
   43CHL1    O3 3111   3.578   0.728   5.633  0.1624  0.2677 -0.2651
   43CHL1   H3' 3112   3.653   0.788   5.635  0.5297 -0.1941  2.0033
   43CHL1    C4 3113   3.634   0.837   5.851 -0.0552  0.4208  0.6871
   43CHL1   H4A 3114   3.732   0.838   5.799 -0.9928  0.0563 -1.1843
   43CHL1   H4B 3115   3.581   0.932   5.831 -1.7227 -0.3334  1.2810
   43CHL1    C5 3116   3.662   0.810   5.998 -0.2501  0.3138  0.0742
   43CHL1    C6 3117   3.607   0.902   6.080  0.1053  0.6076 -0.0306
   43CHL1    H6 3118   3.575   0.997   6.036 -0.7325 -0.3862 -1.6470
   43CHL1    C7 3119   3.593   0.898   6.231  0.0502  0.1675  0.0856
   43CHL1   H7A 3120   3.637   0.987   6.280  0.4928 -0.5358  1.0090
   43CHL1   H7B 3121   3.486   0.889   6.263  0.5202 -0.7322  1.5113
   43CHL1    C8 3122   3.667   0.777   6.291  0.2781 -0.5068  0.6093
   43CHL1    H8 3123   3.774   0.807   6.278  0.1729 -0.0619  0.7619
   43CHL1   C14 3124   3.631   0.758   6.434 -0.2176  0.1748 -0.5643
   43CHL1   H14 3125   3.523   0.733   6.445 -0.1329 -0.1597 -0.4689
   43CHL1   C15 3126   3.638   0.884   6.531 -0.0801 -0.4827 -0.0390
   43CHL1  H15A 3127   3.731   0.942   6.510 -1.2718  1.3107 -0.5585
   43CHL1  H15B 3128   3.546   0.943   6.515 -1.0618 -1.7388  0.8391
   43CHL1   C16 3129   3.635   0.815   6.667  0.8002 -1.3524 -0.1396
   43CHL1  H16A 3130   3.718   0.864   6.723  0.6850 -1.5866  0.2398
   43CHL1  H16B 3131   3.537   0.842   6.712  0.0335  1.9018 -3.2746
   43CHL1   C17 3132   3.667   0.662   6.651  0.3047  0.2171 -0.1438
   43CHL1   H17 3133   3.569   0.610   6.658  1.4910 -1.9642  1.4776
   43CHL1   C13 3134   3.715   0.648   6.506 -0.0552 -1.0041 -0.0617
   43CHL1   C18 3135   3.866   0.687   6.492  0.0792 -0.3150  0.3843
   43CHL1  H18A 3136   3.928   0.603   6.530 -0.2212 -1.2315 -1.1188
   43CHL1  H18B 3137   3.895   0.696   6.385  1.0265  0.5490  0.6860
   43CHL1  H18C 3138   3.899   0.784   6.537 -0.0472 -0.9992  2.0406
   43CHL1   C12 3139   3.682   0.518   6.424 -0.3686  0.2796  0.6465
   43CHL1  H12A 3140   3.734   0.434   6.476  3.8195  2.0257 -0.2748
   43CHL1  H12B 3141   3.575   0.490   6.431 -0.3600  0.2316  0.5836
   43CHL1   C11 3142   3.717   0.521   6.274 -0.0166 -0.2762 -0.3759
   43CHL1  H11A 3143   3.827   0.511   6.265  0.0504 -0.3883  0.5055
   43CHL1  H11B 3144   3.669   0.434   6.224 -2.1158 -1.6213  3.5446
   43CHL1    C9 3145   3.655   0.646   6.205 -0.6186 -0.6827 -0.3702
   43CHL1    H9 3146   3.545   0.639   6.192 -0.4709 -0.3517 -1.9910
   43CHL1   C10 3147   3.698   0.668   6.055 -0.5256  0.3528  0.1700
   43CHL1   C19 3148   3.853   0.656   6.046 -0.2847 -0.3169 -0.4916
   43CHL1  H19A 3149   3.897   0.674   5.946 -1.0219 -0.6525 -0.8874
   43CHL1  H19B 3150   3.899   0.728   6.116 -2.1760  1.2911 -0.8207
   43CHL1  H19C 3151   3.888   0.557   6.082  0.6008  0.5591  1.1648
   43CHL1    C1 3152   3.625   0.556   5.973  0.0813 -0.4315 -0.0646
   43CHL1   H1A 3153   3.675   0.459   5.990  2.5983  0.8049  0.0942
   43CHL1   H1B 3154   3.514   0.555   5.980 -0.0988  0.6957 -1.9506
   43CHL1    C2 3155   3.637   0.589   5.820  0.3669 -0.0141  0.2510
   43CHL1   H2A 3156   3.614   0.499   5.759  0.4201 -0.6256  1.1027
   43CHL1   H2B 3157   3.740   0.604   5.782 -0.7348  1.1399 -2.5041
   43CHL1   C20 3158   3.765   0.605   6.754  0.2177  0.2192  0.1312
   43CHL1   H20 3159   3.868   0.644   6.737  0.2712  0.5625  1.1821
   43CHL1   C21 3160   3.772   0.453   6.739  0.7757 -0.2990 -0.3296
   43CHL1  H21A 3161   3.827   0.417   6.829 -0.6485 -3.8967 -0.7404
   43CHL1  H21B 3162   3.834   0.417   6.654  2.1141 -2.2624  1.3653
   43CHL1  H21C 3163   3.672   0.405   6.746  1.9120 -2.7543  0.4024
   43CHL1   C22 3164   3.738   0.644   6.900 -0.2491  0.3638 -0.2878
   43CHL1  H22A 3165   3.700   0.749   6.900 -0.1295  0.4088 -0.6272
   43CHL1  H22B 3166   3.670   0.567   6.943 -0.0659  0.9730  1.1562
   43CHL1   C23 3167   3.859   0.647   6.997  0.5238 -0.7286  0.1842
   43CHL1  H23A 3168   3.915   0.552   6.987 -0.7390 -1.5035  0.2201
   43CHL1  H23B 3169   3.925   0.733   6.975 -0.0912 -0.3866 -0.3717
   43CHL1   C24 3170   3.821   0.662   7.144  0.1221  0.1737  0.0437
   43CHL1  H24A 3171   3.778   0.761   7.171 -1.7765 -0.8420  0.8929
   43CHL1  H24B 3172   3.739   0.590   7.163 -1.8457  1.9668 -1.2440
   43CHL1   C25 3173   3.936   0.654   7.247 -0.8697 -0.5585  0.1671
   43CHL1   H25 3174   3.990   0.751   7.241 -0.0659 -0.8940  1.6051
   43CHL1   C26 3175   3.888   0.648   7.401 -0.4291  0.5058  0.3470
   43CHL1  H26A 3176   3.843   0.748   7.418 -0.8155  0.5899 -1.0860
   43CHL1  H26B 3177   3.805   0.575   7.410  0.8353 -0.8744  1.3433
   43CHL1  H26C 3178   3.977   0.625   7.465 -0.8686 -3.3692 -0.1635
   43CHL1   C27 3179   4.035   0.544   7.228 -0.7671  0.5368  0.9854
   43CHL1  H27A 3180   3.977   0.452   7.251 -0.0028 -0.2149 -0.0072
   43CHL1  H27B 3181   4.074   0.530   7.125 -1.8997 -3.3774  0.9545
   43CHL1  H27C 3182   4.118   0.559   7.300 -0.4346 -1.6327  1.1200
   44CHL1    C3 3183   5.771   3.286   7.249 -1.0297  0.7683  0.3016
   44CHL1    H3 3184   5.771   3.178   7.224  1.6509  0.0203  2.9408
   44CHL1    O3 3185   5.910   3.326   7.239 -0.2771 -0.2836  0.2363
   44CHL1   H3' 3186   5.962   3.250   7.214  0.9577  0.8325 -0.7412
   44CHL1    C4 3187   5.689   3.364   7.148  0.0928 -0.2427 -0.2212
   44CHL1   H4A 3188   5.700   3.472   7.168  1.2191 -0.3220 -0.3748
   44CHL1   H4B 3189   5.724   3.333   7.047 -1.2707 -2.0866 -0.1893
   44CHL1    C5 3190   5.545   3.327   7.163  0.0023  0.2124 -0.5142
   44CHL1    C6 3191   5.471   3.278   7.055  1.0936 -0.5609  0.0304
   44CHL1    H6 3192   5.514   3.259   6.956  0.9129  1.7502 -0.5438
   44CHL1    C7 3193   5.322   3.265   7.053  0.0699 -0.0521 -0.0665
   44CHL1   H7A 3194   5.274   3.314   6.966 -1.8371  0.2889  1.0998
   44CHL1   H7B 3195   5.294   3.158   7.037 -0.5880  0.1438 -0.2770
   44CHL1    C8 3196   5.250   3.329   7.181 -0.9283  0.2894 -0.0254
   44CHL1    H8 3197   5.252   3.438   7.165 -2.0483  0.1509 -1.3380
   44CHL1   C14 3198   5.107   3.283   7.189  0.7079 -0.3639 -0.3402
   44CHL1   H14 3199   5.114   3.172   7.176 -1.1122 -0.4248 -1.0792
   44CHL1   C15 3200   5.019   3.313   7.062  0.5231 -0.2392  0.3848
   44CHL1  H15A 3201   5.031   3.422   7.046 -0.9940 -0.2486 -1.0885
   44CHL1  H15B 3202   5.063   3.256   6.977  0.5553  3.2663 -2.1521
   44CHL1   C16 3203   4.873   3.286   7.114  0.9401  0.2311  0.4023
   44CHL1  H16A 3204   4.801   3.370   7.104 -3.1876 -3.0930 -0.4039
   44CHL1  H16B 3205   4.815   3.211   7.056  1.0255  0.7948 -0.4253
   44CHL1   C17 3206   4.901   3.247   7.270 -0.3505 -0.4168  0.7412
   44CHL1   H17 3207   4.933   3.140   7.273 -1.0781 -0.6337  0.8528
   44CHL1   C13 3208   5.026   3.320   7.308  0.1721  0.1411 -0.1411
   44CHL1   C18 3209   5.007   3.473   7.317 -0.0965 -0.6897  0.5824
   44CHL1  H18A 3210   5.106   3.521   7.305 -0.0952 -1.1079 -1.5824
   44CHL1  H18B 3211   4.946   3.508   7.231  0.6657 -0.4569  0.1317
   44CHL1  H18C 3212   4.964   3.505   7.415  1.1477 -0.1546  0.9655
   44CHL1   C12 3213   5.102   3.257   7.434  0.0411  0.1997 -0.2375
   44CHL1  H12A 3214   5.044   3.287   7.524 -0.4009 -0.7786 -0.1757
   44CHL1  H12B 3215   5.111   3.146   7.428  2.2459  0.3434 -0.2663
   44CHL1   C11 3216   5.248   3.309   7.437 -0.3560  0.0306 -0.9461
   44CHL1  H11A 3217   5.234   3.417   7.457 -1.5518 -0.0341 -1.3439
   44CHL1  H11B 3218   5.295   3.250   7.518 -1.3707 -0.8020 -0.9388
   44CHL1    C9 3219   5.332   3.291   7.306 -0.1576  0.4632 -0.3622
   44CHL1    H9 3220   5.351   3.182   7.303  1.0873  0.5897  1.2443
   44CHL1   C10 3221   5.479   3.349   7.302  0.2526  0.8455 -0.2071
   44CHL1   C19 3222   5.479   3.495   7.343 -0.3534  0.7605 -0.2311
   44CHL1  H19A 3223   5.442   3.500   7.448  1.4708 -0.5128  0.5329
   44CHL1  H19B 3224   5.584   3.530   7.349  0.0443 -0.0712 -1.8930
   44CHL1  H19C 3225   5.421   3.557   7.272 -0.7401  1.1563  0.4196
   44CHL1    C1 3226   5.572   3.265   7.395  0.0371 -0.8328  0.8281
   44CHL1   H1A 3227   5.535   3.278   7.499 -1.6777 -1.4747  0.3225
   44CHL1   H1B 3228   5.544   3.163   7.360 -0.4091 -0.8011  1.0931
   44CHL1    C2 3229   5.720   3.299   7.394 -1.0889  0.2392  0.2341
   44CHL1   H2A 3230   5.774   3.224   7.456 -1.3655 -3.0935 -3.1321
   44CHL1   H2B 3231   5.746   3.405   7.414 -3.2827  1.1196 -1.2126
   44CHL1   C20 3232   4.778   3.258   7.363 -0.2209  0.4960  0.1411
   44CHL1   H20 3233   4.803   3.266   7.472  2.3480  1.2913 -0.4212
   44CHL1   C21 3234   4.696   3.122   7.343  0.0400  0.9040  0.7674
   44CHL1  H21A 3235   4.598   3.127   7.396  0.3987 -0.0067  1.5360
   44CHL1  H21B 3236   4.758   3.046   7.394 -0.9122  0.1821  0.8748
   44CHL1  H21C 3237   4.678   3.107   7.234  1.2697  0.1548  0.6551
   44CHL1   C22 3238   4.683   3.378   7.333  0.6369  0.0760 -0.2438
   44CHL1  H22A 3239   4.742   3.471   7.343 -2.0219  1.7034  1.7325
   44CHL1  H22B 3240   4.632   3.367   7.234 -0.8017 -1.2824  0.5985
   44CHL1   C23 3241   4.562   3.389   7.438  0.0953  0.4525  0.0970
   44CHL1  H23A 3242   4.470   3.333   7.411  0.7464  0.3783 -2.1790
   44CHL1  H23B 3243   4.599   3.347   7.534  0.5942  0.2812 -0.1652
   44CHL1   C24 3244   4.512   3.538   7.430 -0.3155 -0.0973 -0.0081
   44CHL1  H24A 3245   4.607   3.594   7.446 -1.2896  2.3174 -1.9872
   44CHL1  H24B 3246   4.492   3.563   7.324 -0.5378  3.3003  0.7134
   44CHL1   C25 3247   4.382   3.572   7.509  0.3816 -0.3086  0.4332
   44CHL1   H25 3248   4.295   3.514   7.473 -2.5281  2.3970  2.4430
   44CHL1   C26 3249   4.391   3.554   7.662  0.2610  0.3235 -0.6638
   44CHL1  H26A 3250   4.403   3.451   7.702 -0.1280  0.7653  0.6565
   44CHL1  H26B 3251   4.467   3.622   7.705  0.3810  1.0128 -1.9164
   44CHL1  H26C 3252   4.296   3.592   7.706 -0.0232 -0.3731 -0.6617
   44CHL1   C27 3253   4.353   3.725   7.490 -0.4221  0.2707 -0.0873
   44CHL1  H27A 3254   4.428   3.784   7.546 -0.5690 -1.4399  2.0385
   44CHL1  H27B 3255   4.349   3.754   7.383 -1.1475  1.5002  0.2503
   44CHL1  H27C 3256   4.252   3.735   7.535  0.0795 -0.4188  1.2528
   45CHL1    C3 3257   5.794   3.309   5.986  0.6812 -0.3593 -0.0399
   45CHL1    H3 3258   5.815   3.417   5.971  2.4393 -0.3674  1.8300
   45CHL1    O3 3259   5.772   3.243   5.860 -0.2155  0.4248  0.3100
   45CHL1   H3' 3260   5.769   3.149   5.876 -0.2883  0.4529  0.4694
   45CHL1    C4 3261   5.906   3.244   6.057  0.7444  0.0552 -0.0240
   45CHL1   H4A 3262   5.877   3.137   6.056  1.4601 -0.1431 -0.0846
   45CHL1   H4B 3263   6.001   3.247   5.999  1.3993 -0.4003  0.9936
   45CHL1    C5 3264   5.921   3.308   6.195 -0.4978  0.3975  0.7204
   45CHL1    C6 3265   6.041   3.365   6.225 -0.5506  0.4267 -0.8302
   45CHL1    H6 3266   6.130   3.364   6.160 -0.4433  0.4078 -0.6860
   45CHL1    C7 3267   6.055   3.427   6.355 -0.3858 -0.1197 -0.0959
   45CHL1   H7A 3268   6.150   3.393   6.403 -1.4535 -1.5471  1.0823
   45CHL1   H7B 3269   6.072   3.535   6.336  1.1579  0.3745  3.2339
   45CHL1    C8 3270   5.948   3.397   6.458  0.5199 -0.5943 -0.1867
   45CHL1    H8 3271   5.955   3.293   6.494  0.5141 -0.4839  0.1322
   45CHL1   C14 3272   5.953   3.505   6.570 -0.1419 -0.2391  0.3542
   45CHL1   H14 3273   5.928   3.603   6.525  0.4072 -0.7115 -1.0402
   45CHL1   C15 3274   6.094   3.541   6.621 -0.7455  0.4183  0.5720
   45CHL1  H15A 3275   6.165   3.459   6.644  0.5256  1.5181  0.6514
   45CHL1  H15B 3276   6.147   3.601   6.544 -1.9714  1.2444  0.3400
   45CHL1   C16 3277   6.065   3.615   6.753 -0.2151  0.9763  0.5077
   45CHL1  H16A 3278   6.120   3.561   6.833 -3.0874 -0.8656  1.4058
   45CHL1  H16B 3279   6.110   3.717   6.753  2.2354 -0.0246  1.3969
   45CHL1   C17 3280   5.905   3.610   6.770  0.0956  0.1613 -0.3446
   45CHL1   H17 3281   5.874   3.694   6.704  0.9592  1.0909  0.3928
   45CHL1   C13 3282   5.856   3.493   6.683  0.0104  0.2365 -0.0892
   45CHL1   C18 3283   5.873   3.365   6.769  0.3104 -0.4613  0.6103
   45CHL1  H18A 3284   5.806   3.356   6.857 -0.8140 -0.4408 -0.2361
   45CHL1  H18B 3285   5.850   3.271   6.714 -3.5653 -0.0126  1.2338
   45CHL1  H18C 3286   5.982   3.369   6.791  0.0681  0.8975  1.7074
   45CHL1   C12 3287   5.719   3.511   6.616  0.2219 -0.2603 -0.2244
   45CHL1  H12A 3288   5.633   3.501   6.685  0.9022 -0.1429  0.6484
   45CHL1  H12B 3289   5.720   3.614   6.572  0.2452 -0.6285 -1.1011
   45CHL1   C11 3290   5.703   3.406   6.504  0.2709 -0.0622  0.0890
   45CHL1  H11A 3291   5.679   3.309   6.551 -1.4794 -0.8976 -2.3308
   45CHL1  H11B 3292   5.610   3.424   6.446 -0.2313  0.0651  0.9155
   45CHL1    C9 3293   5.812   3.406   6.396 -0.0586 -0.1984  0.3942
   45CHL1    H9 3294   5.806   3.513   6.365 -2.8596  0.2893  2.2735
   45CHL1   C10 3295   5.792   3.318   6.283  0.1225 -0.0832  0.6856
   45CHL1   C19 3296   5.762   3.175   6.340 -0.8227  0.5371  0.2159
   45CHL1  H19A 3297   5.676   3.182   6.410 -0.2192  0.8439  0.9455
   45CHL1  H19B 3298   5.739   3.098   6.263 -1.6436 -1.2588  2.1441
   45CHL1  H19C 3299   5.853   3.141   6.393 -0.0588 -0.0274 -1.3986
   45CHL1    C1 3300   5.669   3.367   6.193  0.8124 -0.0053  0.0183
   45CHL1   H1A 3301   5.585   3.327   6.253  1.9029 -1.0477  0.8980
   45CHL1   H1B 3302   5.660   3.478   6.196  1.6213  0.0420  2.5292
   45CHL1    C2 3303   5.659   3.298   6.060 -0.1906 -0.1276  0.3607
   45CHL1   H2A 3304   5.566   3.337   6.013 -0.0138  2.2196  1.8428
   45CHL1   H2B 3305   5.642   3.188   6.072 -0.3862 -0.2090 -0.5768
   45CHL1   C20 3306   5.851   3.640   6.910 -0.2181  0.0146 -0.2426
   45CHL1   H20 3307   5.901   3.568   6.979  0.1100  0.5387  0.0718
   45CHL1   C21 3308   5.700   3.633   6.905  0.4700  0.0599  0.2960
   45CHL1  H21A 3309   5.663   3.656   7.007 -1.2581  0.6047 -0.4166
   45CHL1  H21B 3310   5.668   3.530   6.880  0.1632  0.6165 -1.8358
   45CHL1  H21C 3311   5.649   3.704   6.836  0.7724 -0.4216 -0.4423
   45CHL1   C22 3312   5.906   3.774   6.959 -0.6259 -0.0601 -0.8355
   45CHL1  H22A 3313   6.017   3.771   6.965 -0.6054  1.9956  1.9045
   45CHL1  H22B 3314   5.864   3.840   6.880 -1.5057 -0.2324 -0.5204
   45CHL1   C23 3315   5.850   3.822   7.093  0.1234 -0.5612  0.6410
   45CHL1  H23A 3316   5.907   3.917   7.101 -2.2826  1.0144  0.1512
   45CHL1  H23B 3317   5.742   3.844   7.085  0.6277  3.3137  2.3531
   45CHL1   C24 3318   5.884   3.729   7.211  0.2074 -0.8166  0.7210
   45CHL1  H24A 3319   5.799   3.659   7.219 -1.3396  0.8589 -0.2369
   45CHL1  H24B 3320   5.969   3.661   7.188  1.2677 -0.0745  2.2462
   45CHL1   C25 3321   5.906   3.796   7.349  0.7806 -0.3543 -0.4273
   45CHL1   H25 3322   5.982   3.877   7.336 -0.0845  0.6683  0.7383
   45CHL1   C26 3323   5.775   3.868   7.397  0.1767  0.0947 -0.3384
   45CHL1  H26A 3324   5.741   3.935   7.316 -3.0658 -1.5712 -0.4908
   45CHL1  H26B 3325   5.697   3.792   7.419  0.0275  0.8357  2.0351
   45CHL1  H26C 3326   5.791   3.925   7.492 -2.3361 -1.0242  0.8446
   45CHL1   C27 3327   5.955   3.698   7.460  0.4627  0.7703  0.7898
   45CHL1  H27A 3328   6.058   3.667   7.433  0.3807 -0.0231  1.3207
   45CHL1  H27B 3329   5.959   3.749   7.558 -0.6180  0.3157  1.0919
   45CHL1  H27C 3330   5.885   3.611   7.459  0.8293  0.4753  0.3108
   46CHL1    C3 3331   3.091   2.136   5.791  0.0546 -0.7589  0.0815
   46CHL1    H3 3332   2.996   2.191   5.809  1.4993  1.8460  0.2903
   46CHL1    O3 3333   3.105   2.106   5.653  0.2513  0.2022 -0.0015
   46CHL1   H3' 3334   3.189   2.061   5.649  0.4371  0.4268  1.0435
   46CHL1    C4 3335   3.203   2.230   5.835 -0.1874 -0.0413  0.5517
   46CHL1   H4A 3336   3.304   2.186   5.827 -0.1887  0.1219 -0.3658
   46CHL1   H4B 3337   3.195   2.321   5.772  0.1170  0.6856  1.5291
   46CHL1    C5 3338   3.188   2.261   5.990 -0.5936  0.2119 -0.1653
   46CHL1    C6 3339   3.191   2.385   6.044 -0.7248  0.1451  0.1679
   46CHL1    H6 3340   3.208   2.466   5.972 -0.3498  0.3628  0.5001
   46CHL1    C7 3341   3.179   2.421   6.195 -0.5473  0.1747  0.1184
   46CHL1   H7A 3342   3.249   2.505   6.216 -1.1621  1.3725 -2.2586
   46CHL1   H7B 3343   3.079   2.466   6.213 -0.0557  1.5665 -0.5004
   46CHL1    C8 3344   3.212   2.303   6.284  0.2230 -0.2209 -0.6095
   46CHL1    H8 3345   3.319   2.277   6.294  0.4303  1.0412  0.9767
   46CHL1   C14 3346   3.158   2.323   6.427  0.0780  0.5927  0.5264
   46CHL1   H14 3347   3.050   2.331   6.401  0.2033  0.2387 -0.1397
   46CHL1   C15 3348   3.194   2.446   6.502  0.5727 -0.0790 -0.7076
   46CHL1  H15A 3349   3.301   2.468   6.525  0.9070 -2.9298  1.0051
   46CHL1  H15B 3350   3.149   2.538   6.459  0.8168 -0.4174 -1.7172
   46CHL1   C16 3351   3.133   2.426   6.643  0.2929 -0.0093  0.4341
   46CHL1  H16A 3352   3.218   2.445   6.713 -0.4948 -0.0158  1.4219
   46CHL1  H16B 3353   3.059   2.507   6.662  0.3156  0.9563 -2.9344
   46CHL1   C17 3354   3.100   2.278   6.654 -1.2031 -0.2782  0.5536
   46CHL1   H17 3355   2.994   2.269   6.624 -1.1999 -0.2310  0.5293
   46CHL1   C13 3356   3.175   2.213   6.531 -0.6444 -0.4691  0.7521
   46CHL1   C18 3357   3.325   2.192   6.566  0.1553 -1.0533 -0.0338
   46CHL1  H18A 3358   3.362   2.278   6.625 -2.2535  0.4487 -0.5862
   46CHL1  H18B 3359   3.341   2.096   6.620 -0.4321  0.1599  2.4100
   46CHL1  H18C 3360   3.376   2.202   6.468 -0.9740  0.5360 -0.4922
   46CHL1   C12 3361   3.097   2.097   6.468 -0.4536  0.6509  0.8879
   46CHL1  H12A 3362   3.111   2.007   6.531  1.0275  0.0665 -0.2090
   46CHL1  H12B 3363   2.993   2.132   6.481 -0.4707  1.2016 -0.5255
   46CHL1   C11 3364   3.146   2.062   6.329 -0.2067 -0.3921  0.7315
   46CHL1  H11A 3365   3.253   2.036   6.341  0.3704 -0.5586 -3.3542
   46CHL1  H11B 3366   3.104   1.968   6.287 -0.5120 -0.0842  0.3394
   46CHL1    C9 3367   3.142   2.173   6.225 -0.2380 -0.6662 -0.1905
   46CHL1    H9 3368   3.037   2.210   6.212  0.7387  2.7162  0.4262
   46CHL1   C10 3369   3.182   2.135   6.083  0.2004 -0.4849 -0.1039
   46CHL1   C19 3370   3.320   2.071   6.080 -0.7534 -1.3402  0.0985
   46CHL1  H19A 3371   3.319   1.978   6.140 -0.2383 -3.0539 -2.3719
   46CHL1  H19B 3372   3.348   2.042   5.977 -0.7071 -1.4044  0.1297
   46CHL1  H19C 3373   3.396   2.143   6.116 -0.9913 -1.2934  0.5100
   46CHL1    C1 3374   3.071   2.033   6.021 -0.4295  0.2832  0.9570
   46CHL1   H1A 3375   3.077   1.939   6.081  1.1730  0.8174  1.6832
   46CHL1   H1B 3376   2.972   2.078   6.043 -0.6667  0.1488  0.2094
   46CHL1    C2 3377   3.092   2.001   5.868  0.8627 -0.0927 -0.2816
   46CHL1   H2A 3378   3.017   1.925   5.838  0.5334  0.2567 -0.3556
   46CHL1   H2B 3379   3.192   1.954   5.858  0.8031  0.1397 -2.4743
   46CHL1   C20 3380   3.133   2.200   6.783  0.6030 -0.7743  0.5572
   46CHL1   H20 3381   3.234   2.156   6.793  0.8224 -0.4223 -0.0790
   46CHL1   C21 3382   3.028   2.084   6.790 -0.5097 -0.0245  0.5145
   46CHL1  H21A 3383   3.023   2.034   6.889  0.5544  1.3782  1.3111
   46CHL1  H21B 3384   3.051   2.007   6.713 -0.4106  1.7832 -1.3560
   46CHL1  H21C 3385   2.930   2.129   6.763 -0.1010  2.2444  2.4374
   46CHL1   C22 3386   3.107   2.284   6.909  0.0045  0.0767  0.6949
   46CHL1  H22A 3387   3.176   2.371   6.917  0.5564 -0.4342  1.6660
   46CHL1  H22B 3388   3.007   2.331   6.921  1.2063  3.3343 -0.7958
   46CHL1   C23 3389   3.133   2.211   7.047 -0.1998  0.8357 -0.3171
   46CHL1  H23A 3390   3.133   2.291   7.124 -2.2134  0.5636  0.0230
   46CHL1  H23B 3391   3.050   2.141   7.074  1.0888 -0.8423 -0.5051
   46CHL1   C24 3392   3.262   2.125   7.053  0.0753 -0.7337 -0.3575
   46CHL1  H24A 3393   3.259   2.037   6.985 -3.3066  0.5729 -2.1470
   46CHL1  H24B 3394   3.350   2.186   7.024  1.0354 -2.7510 -1.9300
   46CHL1   C25 3395   3.298   2.064   7.189  0.1968 -0.0310  0.2750
   46CHL1   H25 3396   3.282   2.146   7.262  2.1970  2.7501 -2.1736
   46CHL1   C26 3397   3.203   1.955   7.227  0.0309 -0.1173  0.4125
   46CHL1  H26A 3398   3.099   1.985   7.251  1.1034  3.7459  0.9216
   46CHL1  H26B 3399   3.210   1.878   7.147  1.3528  0.4730 -0.0740
   46CHL1  H26C 3400   3.240   1.900   7.317  2.3314 -1.0047 -0.9892
   46CHL1   C27 3401   3.447   2.019   7.196 -0.2529 -0.4347  0.5752
   46CHL1  H27A 3402   3.457   1.921   7.145 -0.8268 -0.0055 -0.3754
   46CHL1  H27B 3403   3.508   2.101   7.153 -0.5478 -1.0646 -1.1095
   46CHL1  H27C 3404   3.480   2.008   7.302  0.7512 -0.6602  0.2438
   47CHL1    C3 3405   3.546   2.485   5.554 -0.2803 -0.8421 -0.1341
   47CHL1    H3 3406   3.463   2.560   5.558 -2.1885 -2.8723  0.3605
   47CHL1    O3 3407   3.572   2.436   5.426 -0.1514  0.1686  0.3860
   47CHL1   H3' 3408   3.618   2.353   5.442 -1.2495 -0.7684 -1.0484
   47CHL1    C4 3409   3.673   2.542   5.614  0.7395  0.1329  0.3120
   47CHL1   H4A 3410   3.752   2.471   5.579 -0.1635  0.2256 -2.1090
   47CHL1   H4B 3411   3.711   2.628   5.556  0.3447 -0.8319 -1.4658
   47CHL1    C5 3412   3.684   2.556   5.767  0.2446  0.1430  0.3622
   47CHL1    C6 3413   3.718   2.680   5.812  0.1930 -0.4716  0.3259
   47CHL1    H6 3414   3.745   2.761   5.743  1.3423 -0.2308  1.0220
   47CHL1    C7 3415   3.743   2.706   5.957  0.0056  0.2867  0.6923
   47CHL1   H7A 3416   3.832   2.771   5.960  1.0764 -1.0770 -0.3330
   47CHL1   H7B 3417   3.660   2.763   6.006 -0.8764 -1.2716  1.0888
   47CHL1    C8 3418   3.748   2.567   6.040 -0.2699 -0.0508  0.8384
   47CHL1    H8 3419   3.837   2.510   6.008  1.4218  2.0546  1.5592
   47CHL1   C14 3420   3.740   2.590   6.185  0.3298  0.1289 -0.2571
   47CHL1   H14 3421   3.656   2.658   6.211  0.5976  0.1439  0.6127
   47CHL1   C15 3422   3.862   2.661   6.245  0.5697  0.4415 -0.1458
   47CHL1  H15A 3423   3.960   2.615   6.218  0.4203 -2.1277  3.0558
   47CHL1  H15B 3424   3.867   2.770   6.223 -2.5612  0.8754  0.8409
   47CHL1   C16 3425   3.853   2.638   6.395  0.4984  0.2874  0.0383
   47CHL1  H16A 3426   3.952   2.601   6.430  1.1473  1.8196 -0.1219
   47CHL1  H16B 3427   3.830   2.730   6.452 -2.9470  0.1214 -0.8660
   47CHL1   C17 3428   3.741   2.529   6.410  0.5684 -0.4665 -0.8460
   47CHL1   H17 3429   3.650   2.590   6.432  1.1116  0.5244 -1.2785
   47CHL1   C13 3430   3.722   2.468   6.272  0.1760 -0.2049  0.4874
   47CHL1   C18 3431   3.827   2.354   6.250  0.3075  0.9194  0.0461
   47CHL1  H18A 3432   3.924   2.384   6.297  0.9790 -2.2263  0.9422
   47CHL1  H18B 3433   3.790   2.257   6.290 -0.4831  1.0900 -0.2580
   47CHL1  H18C 3434   3.837   2.330   6.142 -0.7316  0.0574  0.1201
   47CHL1   C12 3435   3.574   2.422   6.241 -0.6483  0.3709 -0.3039
   47CHL1  H12A 3436   3.545   2.335   6.303  1.7768 -0.6244 -0.4417
   47CHL1  H12B 3437   3.506   2.509   6.252 -0.9066 -0.0398  1.6532
   47CHL1   C11 3438   3.576   2.375   6.091 -0.1283  0.5712  0.3879
   47CHL1  H11A 3439   3.640   2.287   6.072 -0.1535  0.5845  0.2384
   47CHL1  H11B 3440   3.474   2.341   6.064 -0.2401  0.3641  1.0582
   47CHL1    C9 3441   3.624   2.490   5.991 -0.0286 -0.1662 -0.1886
   47CHL1    H9 3442   3.541   2.564   5.996 -1.6286 -1.8567 -0.9405
   47CHL1   C10 3443   3.638   2.436   5.844  0.5026  0.3705  0.3047
   47CHL1   C19 3444   3.745   2.320   5.826  0.7177 -0.4341  0.2377
   47CHL1  H19A 3445   3.841   2.357   5.869  0.9765  0.7805 -1.3062
   47CHL1  H19B 3446   3.713   2.225   5.875  0.9799  0.0053  1.2950
   47CHL1  H19C 3447   3.766   2.312   5.718 -0.0810  1.2905 -0.0635
   47CHL1    C1 3448   3.508   2.380   5.792  0.2192 -0.0307  0.2458
   47CHL1   H1A 3449   3.497   2.277   5.831 -0.5280 -0.4979 -1.1286
   47CHL1   H1B 3450   3.421   2.442   5.820 -0.0754 -0.3082 -0.0452
   47CHL1    C2 3451   3.492   2.363   5.638 -0.0547  0.2675 -0.4587
   47CHL1   H2A 3452   3.386   2.351   5.606 -0.4733  2.7073 -0.1754
   47CHL1   H2B 3453   3.555   2.274   5.620  1.4245  1.0140  0.8211
   47CHL1   C20 3454   3.766   2.433   6.527 -0.5816  0.2980 -0.2601
   47CHL1   H20 3455   3.822   2.346   6.486 -1.5340 -0.0301 -0.9107
   47CHL1   C21 3456   3.635   2.368   6.580  0.1614 -0.1220 -0.1127
   47CHL1  H21A 3457   3.657   2.289   6.654  0.4586 -0.2551 -0.3428
   47CHL1  H21B 3458   3.586   2.317   6.494 -0.6376 -0.8780  0.7672
   47CHL1  H21C 3459   3.569   2.447   6.621  0.6447 -0.1021  0.6323
   47CHL1   C22 3460   3.848   2.484   6.652  0.4892 -0.6120  0.0510
   47CHL1  H22A 3461   3.862   2.393   6.714  0.2803  1.2463  3.0809
   47CHL1  H22B 3462   3.946   2.532   6.632  0.5329 -0.5203  0.4655
   47CHL1   C23 3463   3.756   2.570   6.733  0.0954  0.3915 -0.0045
   47CHL1  H23A 3464   3.696   2.639   6.670  0.8049  0.5690 -0.4868
   47CHL1  H23B 3465   3.678   2.508   6.783 -0.6058  1.8514  0.8076
   47CHL1   C24 3466   3.819   2.645   6.853 -0.3022  0.9719  0.9285
   47CHL1  H24A 3467   3.872   2.575   6.921  2.4462  1.1668 -0.8280
   47CHL1  H24B 3468   3.901   2.703   6.805 -1.1185  0.7177 -0.8573
   47CHL1   C25 3469   3.721   2.736   6.932 -0.5254 -0.5832 -0.0972
   47CHL1   H25 3470   3.624   2.681   6.931  0.0270 -1.6369  1.2237
   47CHL1   C26 3471   3.756   2.753   7.083 -0.0889 -1.6926  0.0610
   47CHL1  H26A 3472   3.671   2.807   7.130  0.3492 -2.6486  2.1117
   47CHL1  H26B 3473   3.767   2.653   7.131  1.1482 -0.6638  2.0774
   47CHL1  H26C 3474   3.850   2.808   7.103 -1.7709  1.1583  0.6610
   47CHL1   C27 3475   3.737   2.874   6.850 -0.1439  0.1254  0.3804
   47CHL1  H27A 3476   3.680   2.957   6.897  1.0104  0.7203  0.7416
   47CHL1  H27B 3477   3.847   2.889   6.847  0.2815 -2.2714  1.4229
   47CHL1  H27C 3478   3.691   2.862   6.749  1.2211  1.1010 -0.3862
   48CHL1    C3 3479   1.924   0.216   5.703  0.4796 -0.8888  0.1955
   48CHL1    H3 3480   1.866   0.301   5.660 -1.2685 -1.8203  0.6237
   48CHL1    O3 3481   1.967   0.134   5.601  0.0572  0.4466  0.4680
   48CHL1   H3' 3482   1.953   0.044   5.628 -0.6268  0.0934 -0.9346
   48CHL1    C4 3483   2.048   0.260   5.791  0.0491 -0.1050  0.2652
   48CHL1   H4A 3484   2.097   0.164   5.818 -0.0839  0.3308  2.1764
   48CHL1   H4B 3485   2.112   0.323   5.726 -0.1406  1.0103  1.1239
   48CHL1    C5 3486   1.999   0.331   5.917  0.3922  0.3387 -0.6126
   48CHL1    C6 3487   2.032   0.455   5.947 -1.1516 -0.2674 -0.6786
   48CHL1    H6 3488   2.094   0.514   5.878  0.8090  0.8634  1.9085
   48CHL1    C7 3489   1.993   0.529   6.073  0.3402 -0.0246 -0.6495
   48CHL1   H7A 3490   2.081   0.586   6.112 -0.1436 -0.2843  0.8932
   48CHL1   H7B 3491   1.912   0.603   6.054 -0.1050 -0.6118 -1.0587
   48CHL1    C8 3492   1.942   0.433   6.184  0.1915  0.0996  0.0048
   48CHL1    H8 3493   2.027   0.370   6.216 -0.7944 -0.7948  0.9289
   48CHL1   C14 3494   1.890   0.502   6.312 -0.0760 -0.1454 -0.5102
   48CHL1   H14 3495   1.803   0.566   6.286  2.0320  2.7994 -0.7669
   48CHL1   C15 3496   1.986   0.606   6.373 -0.0792 -0.5278  0.1422
   48CHL1  H15A 3497   2.089   0.564   6.385  0.0843 -0.5718 -1.1986
   48CHL1  H15B 3498   1.986   0.688   6.298 -0.8425 -0.8550 -0.2278
   48CHL1   C16 3499   1.924   0.621   6.511 -0.8049  0.0337  0.1094
   48CHL1  H16A 3500   2.008   0.589   6.576  0.6763  2.3173 -0.5750
   48CHL1  H16B 3501   1.889   0.726   6.518  0.4461  0.6661 -2.0243
   48CHL1   C17 3502   1.807   0.522   6.530 -0.2292 -0.3834  0.1528
   48CHL1   H17 3503   1.719   0.574   6.487  1.5524  0.7624 -2.3363
   48CHL1   C13 3504   1.836   0.415   6.425  0.5294 -0.1448  1.0592
   48CHL1   C18 3505   1.943   0.314   6.472 -0.1955  0.6965  0.5505
   48CHL1  H18A 3506   2.028   0.350   6.533  0.2811 -2.6026  2.0073
   48CHL1  H18B 3507   1.907   0.233   6.538 -1.9717  0.1089 -1.0314
   48CHL1  H18C 3508   1.994   0.264   6.387 -0.5101  1.1595  0.0795
   48CHL1   C12 3509   1.716   0.342   6.364  0.4354  0.0533 -0.8220
   48CHL1  H12A 3510   1.664   0.266   6.427 -1.8192  0.6585 -1.8740
   48CHL1  H12B 3511   1.637   0.413   6.335  1.0355  1.3650  0.6124
   48CHL1   C11 3512   1.748   0.269   6.228  0.2861 -0.5282 -0.0725
   48CHL1  H11A 3513   1.800   0.174   6.252  1.6998 -0.5474 -2.8671
   48CHL1  H11B 3514   1.654   0.231   6.181 -0.0322 -1.6296  1.3808
   48CHL1    C9 3515   1.835   0.345   6.117 -0.0606 -0.2580  0.6319
   48CHL1    H9 3516   1.761   0.414   6.069 -0.4597 -0.1178  1.4226
   48CHL1   C10 3517   1.887   0.254   5.997 -0.4082  0.2756  0.0902
   48CHL1   C19 3518   1.952   0.123   6.065  0.2959 -0.3861  0.0399
   48CHL1  H19A 3519   2.006   0.065   5.987 -1.9969  0.6999 -2.5363
   48CHL1  H19B 3520   2.007   0.137   6.160 -0.1275 -1.5158  0.4743
   48CHL1  H19C 3521   1.863   0.064   6.096 -0.1847  0.8461  1.1046
   48CHL1    C1 3522   1.774   0.204   5.904  0.8154  0.6184 -0.2264
   48CHL1   H1A 3523   1.709   0.145   5.971  1.3228  1.5023  1.0807
   48CHL1   H1B 3524   1.717   0.289   5.862  1.0271 -0.0063 -1.8796
   48CHL1    C2 3525   1.822   0.130   5.788 -0.8160 -0.4315  0.1780
   48CHL1   H2A 3526   1.732   0.102   5.728 -0.1051 -0.7776 -0.7430
   48CHL1   H2B 3527   1.877   0.038   5.816 -0.3101 -0.7393 -1.7343
   48CHL1   C20 3528   1.768   0.487   6.676  0.2196  0.1336  0.1841
   48CHL1   H20 3529   1.858   0.436   6.718 -0.4202 -2.1193 -1.0370
   48CHL1   C21 3530   1.652   0.384   6.684 -0.8643  0.2244  0.8441
   48CHL1  H21A 3531   1.626   0.340   6.783 -0.5080 -1.5793  0.1644
   48CHL1  H21B 3532   1.672   0.292   6.626 -1.3515  0.7306 -0.1541
   48CHL1  H21C 3533   1.561   0.423   6.635 -0.6948 -1.6882 -1.0951
   48CHL1   C22 3534   1.738   0.624   6.754 -1.0821 -0.6880 -0.0779
   48CHL1  H22A 3535   1.838   0.673   6.761 -1.0253 -1.0022  1.5259
   48CHL1  H22B 3536   1.674   0.689   6.691  0.3326  0.0793 -0.7785
   48CHL1   C23 3537   1.678   0.602   6.897  0.9446  0.1334  0.6264
   48CHL1  H23A 3538   1.583   0.544   6.897 -0.5298  2.3759  1.9437
   48CHL1  H23B 3539   1.740   0.553   6.976 -0.4491 -0.7714  1.1982
   48CHL1   C24 3540   1.646   0.736   6.959  0.4489  0.1053  0.9141
   48CHL1  H24A 3541   1.742   0.791   6.968  0.4493  0.0189  1.4426
   48CHL1  H24B 3542   1.585   0.798   6.889  0.5645 -1.2621 -0.4512
   48CHL1   C25 3543   1.578   0.730   7.098  0.4776  1.0191  0.7768
   48CHL1   H25 3544   1.655   0.675   7.156  1.1538  0.8860 -0.2192
   48CHL1   C26 3545   1.566   0.873   7.154  0.4293  0.3194 -0.0808
   48CHL1  H26A 3546   1.500   0.878   7.243 -1.2505  0.7247 -1.2907
   48CHL1  H26B 3547   1.663   0.921   7.180 -0.9215  1.6063  3.0484
   48CHL1  H26C 3548   1.510   0.942   7.087 -1.0801 -0.5620  0.2173
   48CHL1   C27 3549   1.439   0.663   7.091 -0.9064  0.6035 -0.0034
   48CHL1  H27A 3550   1.378   0.709   7.010  0.9925  0.5896 -1.5319
   48CHL1  H27B 3551   1.451   0.555   7.067  0.6081  1.4117 -3.5757
   48CHL1  H27C 3552   1.390   0.686   7.188  1.5304  1.1230  1.1809
   49CHL1    C3 3553   1.191   4.270   5.711 -0.2152 -0.1542 -0.6139
   49CHL1    H3 3554   1.240   4.173   5.731 -0.7276 -0.8830 -2.6421
   49CHL1    O3 3555   1.211   4.285   5.571 -0.0818  0.0353 -0.5642
   49CHL1   H3' 3556   1.260   4.367   5.563  2.5822 -1.3249  0.3453
   49CHL1    C4 3557   1.046   4.267   5.733  0.2126 -0.2528 -0.7666
   49CHL1   H4A 3558   1.011   4.370   5.709 -0.0041 -0.3201 -0.7397
   49CHL1   H4B 3559   0.992   4.191   5.673  0.0565 -0.6386 -0.1435
   49CHL1    C5 3560   1.023   4.254   5.882  0.0450 -0.3272  0.5374
   49CHL1    C6 3561   0.943   4.161   5.933  0.0408  0.6904 -0.2247
   49CHL1    H6 3562   0.886   4.103   5.858 -0.1840 -0.7184  0.9806
   49CHL1    C7 3563   0.919   4.137   6.082  0.0965  0.1168  0.2819
   49CHL1   H7A 3564   0.812   4.126   6.108 -0.2328 -0.7595 -1.3506
   49CHL1   H7B 3565   0.964   4.040   6.112  2.1686  1.2030  0.9251
   49CHL1    C8 3566   0.976   4.256   6.169  0.3217 -0.9452  0.0625
   49CHL1    H8 3567   0.916   4.348   6.148  0.5010 -0.6234  0.9051
   49CHL1   C14 3568   0.981   4.214   6.319 -0.2210  0.0226 -0.1282
   49CHL1   H14 3569   1.053   4.130   6.314  0.7803  0.8540 -0.0184
   49CHL1   C15 3570   0.854   4.160   6.383 -0.2780  0.4472 -0.3022
   49CHL1  H15A 3571   0.762   4.217   6.354  0.4657  1.6845 -0.3033
   49CHL1  H15B 3572   0.835   4.054   6.358  1.0708  0.0411  0.3266
   49CHL1   C16 3573   0.866   4.179   6.535  0.3620 -0.7664 -1.2859
   49CHL1  H16A 3574   0.798   4.255   6.577  0.3344 -0.6766 -1.4913
   49CHL1  H16B 3575   0.860   4.083   6.591  0.8434  0.9487  1.9541
   49CHL1   C17 3576   1.011   4.236   6.553  0.0808 -0.0564 -0.5228
   49CHL1   H17 3577   1.081   4.152   6.572  2.1050  1.6704  0.0279
   49CHL1   C13 3578   1.033   4.308   6.423 -0.4847 -0.0788 -0.0449
   49CHL1   C18 3579   0.943   4.432   6.416 -0.3209 -0.1045 -0.2391
   49CHL1  H18A 3580   0.974   4.511   6.489  1.0309 -1.4837  0.7505
   49CHL1  H18B 3581   0.923   4.479   6.317 -1.8324 -0.2408 -0.0160
   49CHL1  H18C 3582   0.839   4.408   6.446  0.9232 -5.0536  0.9848
   49CHL1   C12 3583   1.176   4.334   6.375  0.4295  0.1014 -0.5832
   49CHL1  H12A 3584   1.236   4.405   6.437 -1.2563 -0.6525  2.0845
   49CHL1  H12B 3585   1.233   4.239   6.372 -0.2001 -0.2434 -2.7088
   49CHL1   C11 3586   1.178   4.393   6.233  0.0508 -0.0493 -0.0772
   49CHL1  H11A 3587   1.139   4.497   6.227  0.0644 -0.1258 -2.3575
   49CHL1  H11B 3588   1.286   4.414   6.212  0.1751  0.7745  1.2910
   49CHL1    C9 3589   1.109   4.300   6.127 -0.0425  0.1994  0.2729
   49CHL1    H9 3590   1.168   4.206   6.121  2.8682  1.9750 -1.2144
   49CHL1   C10 3591   1.108   4.352   5.976 -0.0217  0.0790 -0.3858
   49CHL1   C19 3592   1.035   4.489   5.957  0.2763  0.1827  0.5220
   49CHL1  H19A 3593   0.928   4.475   5.985  0.1079  1.4921  0.6308
   49CHL1  H19B 3594   1.072   4.579   6.010 -0.9703  2.0090 -1.5150
   49CHL1  H19C 3595   1.034   4.523   5.851  0.3890  0.5308  0.6318
   49CHL1    C1 3596   1.258   4.340   5.933 -0.7514 -1.1332  0.9534
   49CHL1   H1A 3597   1.308   4.418   5.994 -0.7454  0.6441 -1.2130
   49CHL1   H1B 3598   1.298   4.238   5.952 -0.6060 -1.1995  0.3104
   49CHL1    C2 3599   1.273   4.374   5.790  0.1180  0.1560 -0.2276
   49CHL1   H2A 3600   1.376   4.366   5.747 -0.0514 -0.1649 -0.5760
   49CHL1   H2B 3601   1.241   4.476   5.762 -1.3657  0.0939  1.1526
   49CHL1   C20 3602   1.025   4.324   6.682  0.5849  0.1416  0.2651
   49CHL1   H20 3603   0.941   4.397   6.684 -0.3033 -0.7815 -1.3270
   49CHL1   C21 3604   1.173   4.383   6.676 -0.4138  0.1730  0.8668
   49CHL1  H21A 3605   1.183   4.473   6.612  1.2720 -0.0540  0.7846
   49CHL1  H21B 3606   1.247   4.306   6.647 -2.3114 -1.1710 -0.6997
   49CHL1  H21C 3607   1.203   4.419   6.777 -0.2685 -0.1176  0.9275
   49CHL1   C22 3608   1.019   4.227   6.804  0.1483 -0.0881 -0.5990
   49CHL1  H22A 3609   0.935   4.155   6.791 -1.4264  0.7848  3.2041
   49CHL1  H22B 3610   1.118   4.177   6.801  2.6148  4.2696 -0.1840
   49CHL1   C23 3611   1.015   4.289   6.947 -0.8593 -0.5932 -0.0451
   49CHL1  H23A 3612   1.111   4.334   6.980 -0.7082 -0.0208 -1.2022
   49CHL1  H23B 3613   0.939   4.370   6.952 -1.3147 -1.0889  1.9973
   49CHL1   C24 3614   0.987   4.191   7.061 -0.1899  0.4007  0.2277
   49CHL1  H24A 3615   0.889   4.141   7.048 -0.4889  0.7785  1.0070
   49CHL1  H24B 3616   1.070   4.118   7.049 -0.3268  0.3830 -0.7317
   49CHL1   C25 3617   0.982   4.249   7.203  0.5272 -0.5505 -0.1591
   49CHL1   H25 3618   1.072   4.312   7.215  3.0107 -3.2536 -2.9558
   49CHL1   C26 3619   0.852   4.330   7.226  0.1086 -0.0687 -0.1660
   49CHL1  H26A 3620   0.766   4.272   7.188  0.1325 -0.5216  0.4625
   49CHL1  H26B 3621   0.838   4.349   7.335  1.9338 -1.3651  0.3471
   49CHL1  H26C 3622   0.854   4.423   7.165  2.0577  0.5071  0.6978
   49CHL1   C27 3623   0.994   4.139   7.305  0.0347 -0.2549 -0.1259
   49CHL1  H27A 3624   0.907   4.070   7.306 -0.7656  0.7247  0.2065
   49CHL1  H27B 3625   1.085   4.084   7.273 -0.8972 -1.8206 -0.1983
   49CHL1  H27C 3626   1.026   4.190   7.398 -2.1479  2.1259 -0.5474
   50CHL1    C3 3627   4.760   4.513   5.995  0.0870 -0.1916  0.2091
   50CHL1    H3 3628   4.690   4.591   5.958 -1.4641 -1.8060 -0.4028
   50CHL1    O3 3629   4.830   4.444   5.894  0.3641  0.5735  0.4763
   50CHL1   H3' 3630   4.774   4.411   5.823  1.1507 -1.1819  0.6062
   50CHL1    C4 3631   4.871   4.581   6.074  0.1295  1.2605  0.2275
   50CHL1   H4A 3632   4.945   4.504   6.104 -0.6096  0.3499 -0.2384
   50CHL1   H4B 3633   4.921   4.652   6.004 -1.4053 -0.8381 -3.2629
   50CHL1    C5 3634   4.816   4.644   6.201  0.8098 -0.3426  0.1774
   50CHL1    C6 3635   4.831   4.772   6.228  0.3576 -0.3784  0.2932
   50CHL1    H6 3636   4.896   4.827   6.158  0.2338 -1.0499 -0.3521
   50CHL1    C7 3637   4.793   4.842   6.356 -0.0472 -0.0580  0.0765
   50CHL1   H7A 3638   4.860   4.922   6.395  0.8732 -0.9326  0.3247
   50CHL1   H7B 3639   4.703   4.903   6.333 -0.1627 -0.0023  0.6660
   50CHL1    C8 3640   4.755   4.744   6.467  0.9910  0.2685 -0.6953
   50CHL1    H8 3641   4.848   4.700   6.507  1.2191  1.9621  0.7823
   50CHL1   C14 3642   4.681   4.811   6.584  0.0310  0.2668  0.1280
   50CHL1   H14 3643   4.596   4.845   6.520  1.2683  0.3473 -1.5616
   50CHL1   C15 3644   4.735   4.937   6.654 -0.1201 -0.7596 -0.1330
   50CHL1  H15A 3645   4.842   4.915   6.674 -0.7168 -1.6009  2.4619
   50CHL1  H15B 3646   4.725   5.032   6.596 -2.4172 -0.2831  0.9523
   50CHL1   C16 3647   4.659   4.946   6.791 -0.5128  0.1314 -0.4821
   50CHL1  H16A 3648   4.727   4.949   6.879 -1.5680 -0.2279  0.3688
   50CHL1  H16B 3649   4.599   5.039   6.789 -0.4417  0.2490  1.1892
   50CHL1   C17 3650   4.565   4.821   6.789  0.2219 -0.1211  0.4466
   50CHL1   H17 3651   4.472   4.856   6.738 -1.4435  0.3756  3.5960
   50CHL1   C13 3652   4.628   4.715   6.697 -0.8362  0.5180  0.1662
   50CHL1   C18 3653   4.753   4.653   6.766 -0.5744  0.0467 -0.0355
   50CHL1  H18A 3654   4.807   4.597   6.687 -3.2215 -1.4258 -0.9329
   50CHL1  H18B 3655   4.813   4.737   6.807  0.1115 -0.2432 -0.4426
   50CHL1  H18C 3656   4.720   4.589   6.851 -0.5845 -0.2623 -0.2730
   50CHL1   C12 3657   4.537   4.611   6.630 -0.2503  0.4559 -0.4245
   50CHL1  H12A 3658   4.481   4.544   6.698  0.1426  0.6185  0.0723
   50CHL1  H12B 3659   4.456   4.650   6.565  0.0163 -3.1613 -3.2292
   50CHL1   C11 3660   4.607   4.529   6.522  0.6448 -0.0167  0.6696
   50CHL1  H11A 3661   4.683   4.466   6.572 -0.6843 -3.4301 -1.2443
   50CHL1  H11B 3662   4.530   4.463   6.475  1.5654 -0.0269 -0.8817
   50CHL1    C9 3663   4.666   4.626   6.416  0.4109  0.3776 -0.4008
   50CHL1    H9 3664   4.582   4.673   6.361 -2.0440 -2.8109  0.3197
   50CHL1   C10 3665   4.734   4.553   6.300  0.0207  0.0304 -0.2217
   50CHL1   C19 3666   4.817   4.436   6.367 -0.0163 -0.6460 -0.0465
   50CHL1  H19A 3667   4.751   4.350   6.389 -0.3478 -1.4450 -3.4748
   50CHL1  H19B 3668   4.888   4.399   6.290 -0.2106 -0.1044 -0.4935
   50CHL1  H19C 3669   4.883   4.469   6.450 -0.0916 -0.0859 -0.2050
   50CHL1    C1 3670   4.624   4.486   6.210 -0.2126  0.2905  0.2821
   50CHL1   H1A 3671   4.567   4.409   6.267  1.1783 -1.9893 -1.2168
   50CHL1   H1B 3672   4.558   4.568   6.176  0.2090 -0.3770 -2.3846
   50CHL1    C2 3673   4.688   4.415   6.091 -0.4275 -0.2261  1.0087
   50CHL1   H2A 3674   4.609   4.359   6.035  0.7679 -1.0413  0.0937
   50CHL1   H2B 3675   4.768   4.347   6.127 -0.9115 -0.5655  1.4753
   50CHL1   C20 3676   4.518   4.789   6.927 -0.0007  0.2666 -0.0981
   50CHL1   H20 3677   4.606   4.750   6.981  0.7784  0.6563 -1.0424
   50CHL1   C21 3678   4.419   4.663   6.924 -0.2484  0.8358  0.0388
   50CHL1  H21A 3679   4.335   4.671   6.851 -0.3154  1.4668  0.1795
   50CHL1  H21B 3680   4.383   4.646   7.027  0.6902 -1.3385  0.0600
   50CHL1  H21C 3681   4.470   4.569   6.892  0.3184  1.1227  0.0928
   50CHL1   C22 3682   4.452   4.904   7.006 -0.0984  0.5361 -0.1473
   50CHL1  H22A 3683   4.508   4.998   6.986  1.1587  0.1906  1.5117
   50CHL1  H22B 3684   4.355   4.913   6.952  1.0132  0.8369 -2.2126
   50CHL1   C23 3685   4.435   4.899   7.153  0.0485  0.2741  0.2199
   50CHL1  H23A 3686   4.409   4.795   7.182 -1.0709  0.6279  0.5773
   50CHL1  H23B 3687   4.533   4.912   7.204  0.5452  3.7309 -1.3394
   50CHL1   C24 3688   4.308   4.987   7.195 -0.2010  0.9651 -0.3774
   50CHL1  H24A 3689   4.320   5.098   7.200 -0.7286  0.9775  1.1279
   50CHL1  H24B 3690   4.228   4.964   7.122  0.2092  1.5237 -1.0162
   50CHL1   C25 3691   4.256   4.932   7.330 -0.1111 -0.1245  0.4790
   50CHL1   H25 3692   4.236   4.823   7.325 -1.6771  0.1022  1.1745
   50CHL1   C26 3693   4.353   4.975   7.443  0.0763 -0.3039 -0.2173
   50CHL1  H26A 3694   4.460   4.951   7.425 -0.1261 -1.4319  0.0128
   50CHL1  H26B 3695   4.344   5.082   7.469  0.7842  0.5104 -3.0191
   50CHL1  H26C 3696   4.334   4.903   7.525  0.9470 -1.9350 -1.3681
   50CHL1   C27 3697   4.108   4.976   7.365 -0.2166  0.6317  0.2842
   50CHL1  H27A 3698   4.033   4.948   7.288  2.0328 -2.4147 -0.9612
   50CHL1  H27B 3699   4.078   4.935   7.464 -0.7585 -2.6859 -1.1376
   50CHL1  H27C 3700   4.098   5.087   7.369  0.3327  0.8303 -2.4908
   51CHL1    C3 3701   1.601   2.299   5.759  0.7495  0.2337 -0.3891
   51CHL1    H3 3702   1.541   2.387   5.789 -0.3591 -0.8100  0.5784
   51CHL1    O3 3703   1.609   2.304   5.621 -0.2142 -0.1586  0.6866
   51CHL1   H3' 3704   1.648   2.223   5.589 -2.4292 -1.0314  0.0082
   51CHL1    C4 3705   1.746   2.318   5.812  0.1199 -0.0957 -0.0011
   51CHL1   H4A 3706   1.801   2.232   5.768  0.5668 -0.3554  1.0354
   51CHL1   H4B 3707   1.798   2.408   5.775 -0.5493  1.1617  1.9559
   51CHL1    C5 3708   1.755   2.313   5.961 -0.0536 -0.5553 -0.5123
   51CHL1    C6 3709   1.804   2.419   6.031  0.2536  0.2755  0.1230
   51CHL1    H6 3710   1.846   2.500   5.971  2.3054 -1.2426 -0.5889
   51CHL1    C7 3711   1.807   2.431   6.183 -0.2983  0.4137 -0.5268
   51CHL1   H7A 3712   1.904   2.478   6.212 -0.1870 -0.3241  0.3360
   51CHL1   H7B 3713   1.728   2.502   6.212 -1.8551 -0.7551 -1.7467
   51CHL1    C8 3714   1.780   2.293   6.255  0.2835 -0.0695  0.3452
   51CHL1    H8 3715   1.867   2.231   6.226 -0.6758 -1.0528 -0.5298
   51CHL1   C14 3716   1.747   2.320   6.404 -0.0585  0.2336  0.2391
   51CHL1   H14 3717   1.658   2.385   6.411  0.3396  0.9759 -1.1598
   51CHL1   C15 3718   1.842   2.401   6.493 -0.0256  0.6218 -0.2008
   51CHL1  H15A 3719   1.942   2.363   6.462 -0.4420 -1.3862  0.7597
   51CHL1  H15B 3720   1.839   2.512   6.491  1.8274  0.7256  0.7571
   51CHL1   C16 3721   1.803   2.362   6.640 -0.2044  0.3178  0.3348
   51CHL1  H16A 3722   1.895   2.322   6.687  0.2326  0.2948 -0.5161
   51CHL1  H16B 3723   1.755   2.440   6.703  1.2089  1.2506  0.2989
   51CHL1   C17 3724   1.695   2.250   6.619 -0.1580 -0.3402 -0.5749
   51CHL1   H17 3725   1.606   2.315   6.611 -0.4136 -0.3946  1.4061
   51CHL1   C13 3726   1.716   2.198   6.483  0.2938 -0.3804  0.3138
   51CHL1   C18 3727   1.837   2.106   6.487 -0.8138 -0.0825  0.3769
   51CHL1  H18A 3728   1.927   2.158   6.528 -1.6791  0.0343  2.1979
   51CHL1  H18B 3729   1.823   2.017   6.551  0.8730 -0.0583  0.8369
   51CHL1  H18C 3730   1.852   2.073   6.382 -0.0174  4.9555 -1.3721
   51CHL1   C12 3731   1.586   2.130   6.419 -0.0646 -0.2665  0.9427
   51CHL1  H12A 3732   1.565   2.032   6.466  0.9104 -1.6713 -1.3646
   51CHL1  H12B 3733   1.495   2.192   6.436 -0.9609 -1.6348  1.2942
   51CHL1   C11 3734   1.607   2.099   6.269  0.2427  0.2634 -0.2917
   51CHL1  H11A 3735   1.674   2.012   6.255 -0.5000 -0.2795 -0.5759
   51CHL1  H11B 3736   1.504   2.069   6.239 -0.2388  1.1632  0.4204
   51CHL1    C9 3737   1.659   2.221   6.186  0.4245  0.6965 -0.0405
   51CHL1    H9 3738   1.580   2.299   6.182 -0.3048 -0.0947 -2.3186
   51CHL1   C10 3739   1.678   2.193   6.032 -1.5088 -0.2843 -0.6015
   51CHL1   C19 3740   1.773   2.072   6.020 -0.4451 -0.1776 -0.1270
   51CHL1  H19A 3741   1.872   2.084   6.069  0.3791 -1.1902 -1.4519
   51CHL1  H19B 3742   1.731   1.976   6.055  0.8199 -0.5290  0.5004
   51CHL1  H19C 3743   1.791   2.064   5.910 -0.6660 -0.1615 -0.1644
   51CHL1    C1 3744   1.538   2.153   5.965  0.4269 -0.9594  0.0326
   51CHL1   H1A 3745   1.504   2.059   6.013  0.3400 -0.3890  1.1213
   51CHL1   H1B 3746   1.464   2.228   6.000 -1.2922 -1.7983 -1.6444
   51CHL1    C2 3747   1.540   2.166   5.814  0.3363  0.1354 -0.5441
   51CHL1   H2A 3748   1.435   2.160   5.780 -0.0726 -0.7105  0.8107
   51CHL1   H2B 3749   1.604   2.085   5.772  1.5858 -0.7756  2.7865
   51CHL1   C20 3750   1.682   2.151   6.734 -0.1222 -0.2162  0.9989
   51CHL1   H20 3751   1.741   2.057   6.723 -0.0637 -0.3922  2.5469
   51CHL1   C21 3752   1.536   2.106   6.741 -0.0449 -0.7586 -0.3939
   51CHL1  H21A 3753   1.490   2.050   6.657 -0.4405  0.3214 -0.9165
   51CHL1  H21B 3754   1.474   2.192   6.772  3.5891  1.1333  2.4851
   51CHL1  H21C 3755   1.520   2.032   6.823 -1.3685  2.0693  2.0832
   51CHL1   C22 3756   1.727   2.213   6.869 -0.4166  0.1181 -0.7050
   51CHL1  H22A 3757   1.836   2.237   6.876  0.0328 -1.7233 -0.9110
   51CHL1  H22B 3758   1.678   2.313   6.879 -0.8798 -0.3476  2.7873
   51CHL1   C23 3759   1.696   2.135   6.994 -0.3397 -0.4501  0.0644
   51CHL1  H23A 3760   1.585   2.141   7.001 -0.4821 -0.7354 -1.5243
   51CHL1  H23B 3761   1.725   2.028   6.986 -0.5513 -0.4034 -1.6551
   51CHL1   C24 3762   1.757   2.191   7.119  0.8410 -0.7836 -0.0135
   51CHL1  H24A 3763   1.866   2.201   7.103  1.4364 -1.3778  3.1339
   51CHL1  H24B 3764   1.719   2.295   7.131  0.6766 -0.8101 -0.2797
   51CHL1   C25 3765   1.735   2.116   7.249  0.8996 -0.8198 -0.6995
   51CHL1   H25 3766   1.784   2.016   7.250 -0.0813 -1.3484  1.6667
   51CHL1   C26 3767   1.803   2.177   7.371 -0.9704 -0.0362 -0.4345
   51CHL1  H26A 3768   1.912   2.159   7.361 -0.6650  1.6088 -0.2751
   51CHL1  H26B 3769   1.779   2.285   7.370  0.9182  0.5958  3.6546
   51CHL1  H26C 3770   1.777   2.140   7.472 -0.5326 -0.8758 -0.6193
   51CHL1   C27 3771   1.581   2.103   7.290  0.5629 -0.2371  0.5439
   51CHL1  H27A 3772   1.532   2.047   7.208  0.5093  1.1467 -0.4124
   51CHL1  H27B 3773   1.574   2.041   7.381  0.0280 -0.3949  0.3987
   51CHL1  H27C 3774   1.538   2.205   7.298  1.8975  0.4218 -0.2299
   52CHL1    C3 3775   0.738   2.753   5.750  0.1160  0.4972  0.3990
   52CHL1    H3 3776   0.639   2.712   5.779  0.9028 -2.2703 -0.5284
   52CHL1    O3 3777   0.736   2.754   5.605 -0.0979  0.0766 -0.2897
   52CHL1   H3' 3778   0.747   2.661   5.583 -1.4322 -0.8157  2.3727
   52CHL1    C4 3779   0.789   2.884   5.807 -0.6689 -0.3082 -0.4948
   52CHL1   H4A 3780   0.886   2.910   5.759  0.7056 -3.8265  0.0328
   52CHL1   H4B 3781   0.722   2.969   5.783 -0.1684  0.2808  0.1355
   52CHL1    C5 3782   0.800   2.873   5.962  0.5519  0.3692 -0.1412
   52CHL1    C6 3783   0.729   2.964   6.034 -0.1671  0.0356  0.5815
   52CHL1    H6 3784   0.676   3.049   5.990 -1.0285  0.0009  1.5187
   52CHL1    C7 3785   0.713   2.955   6.183 -0.0242  0.3599 -0.6962
   52CHL1   H7A 3786   0.705   3.059   6.222 -2.4535  0.7116 -1.9091
   52CHL1   H7B 3787   0.613   2.910   6.205 -0.4549  0.7296 -1.8180
   52CHL1    C8 3788   0.823   2.876   6.243  0.1719  0.0683 -0.4470
   52CHL1    H8 3789   0.918   2.933   6.231 -0.8368  2.2473  1.3019
   52CHL1   C14 3790   0.801   2.851   6.394 -0.2713 -0.5838 -0.3144
   52CHL1   H14 3791   0.710   2.789   6.408 -0.6707  0.4024  1.8847
   52CHL1   C15 3792   0.768   2.975   6.482  0.2158  0.3209  0.2371
   52CHL1  H15A 3793   0.842   3.057   6.468  1.3207 -0.3298  1.9692
   52CHL1  H15B 3794   0.670   3.019   6.454  0.7329  0.5082 -1.3856
   52CHL1   C16 3795   0.802   2.933   6.622 -0.6184 -0.3590  0.7439
   52CHL1  H16A 3796   0.886   2.994   6.662 -0.0394 -1.0773  0.6547
   52CHL1  H16B 3797   0.713   2.938   6.688  0.5746  0.3645  2.3885
   52CHL1   C17 3798   0.862   2.789   6.614 -0.2821 -0.0329 -0.6077
   52CHL1   H17 3799   0.783   2.711   6.622 -0.1225  0.0409  3.8150
   52CHL1   C13 3800   0.914   2.775   6.464  0.3486 -0.0821  0.3570
   52CHL1   C18 3801   1.049   2.844   6.449 -0.5194  0.6504 -0.6086
   52CHL1  H18A 3802   1.045   2.945   6.494 -0.1507  0.3034  0.2102
   52CHL1  H18B 3803   1.122   2.783   6.505 -0.0497  2.2297  0.5393
   52CHL1  H18C 3804   1.074   2.863   6.342 -0.6920 -0.2557 -0.8187
   52CHL1   C12 3805   0.913   2.636   6.408  0.8576 -0.3939  0.9849
   52CHL1  H12A 3806   0.982   2.566   6.460  0.1668  0.1863  2.7652
   52CHL1  H12B 3807   0.815   2.584   6.421  1.2704 -1.8293 -1.0137
   52CHL1   C11 3808   0.934   2.643   6.256 -0.3447  0.2098  0.6940
   52CHL1  H11A 3809   1.043   2.666   6.248  0.4591 -2.2868  2.7489
   52CHL1  H11B 3810   0.916   2.539   6.220 -0.6133  0.4948 -0.0106
   52CHL1    C9 3811   0.835   2.740   6.172 -0.4319 -0.0988 -0.9839
   52CHL1    H9 3812   0.738   2.687   6.177 -1.2882  1.5331  2.0668
   52CHL1   C10 3813   0.874   2.756   6.023 -0.3363 -0.1700 -0.2062
   52CHL1   C19 3814   1.027   2.771   6.004  0.4475 -0.6392 -0.1604
   52CHL1  H19A 3815   1.051   2.797   5.899 -0.9902  1.1938 -0.0718
   52CHL1  H19B 3816   1.057   2.859   6.064 -1.6210  0.7374 -1.0258
   52CHL1  H19C 3817   1.089   2.684   6.033  3.5918  1.0565 -1.3685
   52CHL1    C1 3818   0.832   2.623   5.945 -0.8115 -0.4910 -0.3654
   52CHL1   H1A 3819   0.900   2.542   5.979  0.0171  0.8247  1.3196
   52CHL1   H1B 3820   0.731   2.614   5.991 -0.2774  1.5554  1.3722
   52CHL1    C2 3821   0.840   2.639   5.790 -0.1205  0.2449 -0.2177
   52CHL1   H2A 3822   0.805   2.541   5.753 -0.3938  0.1937  0.1651
   52CHL1   H2B 3823   0.942   2.659   5.750 -0.1716  0.5762 -0.1926
   52CHL1   C20 3824   0.958   2.767   6.734  0.5471  0.3336  0.5811
   52CHL1   H20 3825   1.043   2.837   6.728 -1.6903  3.1176 -2.0381
   52CHL1   C21 3826   1.002   2.620   6.716 -0.6628  0.3696 -0.2659
   52CHL1  H21A 3827   1.076   2.588   6.793 -0.5916  1.1426 -0.0097
   52CHL1  H21B 3828   1.048   2.610   6.616 -2.3502  0.4683 -1.0833
   52CHL1  H21C 3829   0.910   2.558   6.720 -0.4204 -0.0791 -1.3205
   52CHL1   C22 3830   0.891   2.790   6.876  0.0593 -0.0804  0.5876
   52CHL1  H22A 3831   0.855   2.895   6.889 -1.5522 -0.5605  0.2498
   52CHL1  H22B 3832   0.812   2.713   6.885 -0.8706  0.3122 -2.9784
   52CHL1   C23 3833   1.006   2.762   6.974 -0.5044 -0.1736 -0.5647
   52CHL1  H23A 3834   1.026   2.652   6.970  0.0391 -0.1773  1.3114
   52CHL1  H23B 3835   1.088   2.824   6.932 -2.6536  1.7679 -2.1369
   52CHL1   C24 3836   0.976   2.808   7.113  0.0437 -0.4637 -0.2591
   52CHL1  H24A 3837   0.980   2.919   7.107 -1.1351 -0.2912  1.2751
   52CHL1  H24B 3838   0.872   2.790   7.148 -0.1822 -0.6196 -1.0006
   52CHL1   C25 3839   1.091   2.775   7.217 -0.1811  0.2944 -0.1083
   52CHL1   H25 3840   1.095   2.665   7.226  1.7741  0.2297 -1.0812
   52CHL1   C26 3841   1.233   2.819   7.171 -0.2324  0.3430  0.2689
   52CHL1  H26A 3842   1.252   2.928   7.170 -2.5808  0.8175 -1.9265
   52CHL1  H26B 3843   1.297   2.763   7.243 -0.3720 -2.0265 -1.3174
   52CHL1  H26C 3844   1.265   2.772   7.076  1.9411  1.5211  0.3643
   52CHL1   C27 3845   1.062   2.833   7.359 -0.2075 -0.2527  0.1958
   52CHL1  H27A 3846   0.974   2.783   7.403  0.9603 -3.3740 -0.7271
   52CHL1  H27B 3847   1.148   2.821   7.429  0.2590 -0.2362 -0.3585
   52CHL1  H27C 3848   1.044   2.942   7.342 -2.3786 -0.7908 -1.3663
   53CHL1    C3 3849   4.616   6.098   5.534 -0.9325 -0.1489 -0.2537
   53CHL1    H3 3850   4.699   6.025   5.539 -1.2601 -0.4918  0.4174
   53CHL1    O3 3851   4.572   6.099   5.401 -0.1874  0.0585  0.0157
   53CHL1   H3' 3852   4.501   6.163   5.404 -1.4192 -1.2926  2.1661
   53CHL1    C4 3853   4.493   6.043   5.611  0.2108  0.6802 -0.0098
   53CHL1   H4A 3854   4.405   6.109   5.599 -0.0865  0.6993  2.0699
   53CHL1   H4B 3855   4.459   5.941   5.582 -1.5831  1.4529 -0.7710
   53CHL1    C5 3856   4.510   6.045   5.757 -0.4582  0.1862 -0.5351
   53CHL1    C6 3857   4.496   5.932   5.829  0.7217  0.0419 -0.5758
   53CHL1    H6 3858   4.472   5.837   5.780 -2.0307  0.7565 -0.8076
   53CHL1    C7 3859   4.497   5.934   5.977 -0.4377 -0.0635 -0.3078
   53CHL1   H7A 3860   4.412   5.873   6.013  0.6754 -0.8319  1.1519
   53CHL1   H7B 3861   4.587   5.891   6.025  0.0730  2.0734  0.8108
   53CHL1    C8 3862   4.495   6.080   6.047  0.2079 -0.0736  0.2538
   53CHL1    H8 3863   4.389   6.114   6.043 -0.1225 -1.1910 -1.2383
   53CHL1   C14 3864   4.541   6.069   6.191  0.5391  0.6505 -0.4393
   53CHL1   H14 3865   4.647   6.041   6.173  0.4661  0.0207  0.0716
   53CHL1   C15 3866   4.483   5.954   6.273  0.3754 -0.5785  0.2140
   53CHL1  H15A 3867   4.374   5.970   6.261  0.7386  1.5396 -0.8735
   53CHL1  H15B 3868   4.517   5.854   6.239  0.5736 -1.0997  1.8212
   53CHL1   C16 3869   4.522   6.000   6.415  0.0452  0.0450  0.6571
   53CHL1  H16A 3870   4.441   5.983   6.490  0.2153 -1.3858  0.5454
   53CHL1  H16B 3871   4.597   5.939   6.469  0.0511 -0.1858  0.3889
   53CHL1   C17 3872   4.573   6.148   6.409  0.3147  0.3153 -0.5346
   53CHL1   H17 3873   4.683   6.133   6.412 -0.1070 -3.6369 -0.0157
   53CHL1   C13 3874   4.541   6.206   6.269  0.6917 -0.3025  0.4309
   53CHL1   C18 3875   4.396   6.273   6.286 -0.2320 -0.3137 -0.2442
   53CHL1  H18A 3876   4.377   6.343   6.202  2.0123 -1.3625 -1.7242
   53CHL1  H18B 3877   4.322   6.190   6.289 -2.0292  1.2332 -0.0081
   53CHL1  H18C 3878   4.377   6.327   6.381  0.1801 -3.6594  1.8975
   53CHL1   C12 3879   4.641   6.305   6.199  0.0474  0.8702  0.2422
   53CHL1  H12A 3880   4.649   6.403   6.250  0.5348 -0.2754  2.5310
   53CHL1  H12B 3881   4.742   6.259   6.197 -0.4277 -0.1998 -0.5203
   53CHL1   C11 3882   4.610   6.311   6.046  0.2041 -0.1244 -0.5784
   53CHL1  H11A 3883   4.514   6.366   6.037 -0.0704 -0.6990 -1.2145
   53CHL1  H11B 3884   4.688   6.370   5.992 -1.1134  1.0607 -1.2451
   53CHL1    C9 3885   4.584   6.172   5.970 -0.2250 -0.4675  0.2301
   53CHL1    H9 3886   4.684   6.123   5.969 -0.0969 -0.5625  4.0573
   53CHL1   C10 3887   4.547   6.180   5.818 -0.4879  0.0205 -0.0486
   53CHL1   C19 3888   4.443   6.286   5.799  0.0690  0.4683  0.1062
   53CHL1  H19A 3889   4.489   6.381   5.834  1.9194 -0.1380 -0.5531
   53CHL1  H19B 3890   4.410   6.295   5.693 -0.4519  1.5523  0.3503
   53CHL1  H19C 3891   4.351   6.270   5.858  0.2169  3.2717  1.2715
   53CHL1    C1 3892   4.674   6.229   5.729 -0.5568  0.4385  0.2416
   53CHL1   H1A 3893   4.702   6.327   5.773 -3.2695  1.1733  0.4906
   53CHL1   H1B 3894   4.758   6.158   5.745 -3.1308 -2.8058  0.5806
   53CHL1    C2 3895   4.647   6.241   5.584  0.5121  0.2589  0.0794
   53CHL1   H2A 3896   4.736   6.287   5.535  1.0105 -1.8629 -1.1480
   53CHL1   H2B 3897   4.563   6.310   5.562  0.0962  0.0580  0.9620
   53CHL1   C20 3898   4.533   6.218   6.536  0.3375 -0.6035 -0.3807
   53CHL1   H20 3899   4.423   6.232   6.544  0.5600  3.0566 -1.6900
   53CHL1   C21 3900   4.590   6.365   6.539  0.5286  0.3159  0.3763
   53CHL1  H21A 3901   4.575   6.415   6.441  0.6473 -2.1282 -0.9520
   53CHL1  H21B 3902   4.699   6.359   6.560  0.2221 -2.1700  1.6781
   53CHL1  H21C 3903   4.548   6.425   6.623  1.4339  2.6339 -0.7220
   53CHL1   C22 3904   4.593   6.147   6.661  0.8994  0.6019 -0.2546
   53CHL1  H22A 3905   4.561   6.041   6.662  2.0926  0.1231 -2.8429
   53CHL1  H22B 3906   4.701   6.153   6.639  1.0196  0.3422  0.2543
   53CHL1   C23 3907   4.556   6.216   6.795  0.0474  0.1737 -0.0040
   53CHL1  H23A 3908   4.608   6.164   6.878 -1.0731 -0.4731  0.3245
   53CHL1  H23B 3909   4.593   6.320   6.799  1.7162 -0.3698 -0.6865
   53CHL1   C24 3910   4.407   6.203   6.825 -0.2616 -0.4024  0.3131
   53CHL1  H24A 3911   4.348   6.259   6.750  1.3038 -0.4991 -1.0636
   53CHL1  H24B 3912   4.378   6.099   6.800  2.8826 -1.4334  0.4925
   53CHL1   C25 3913   4.369   6.223   6.976  0.1022 -0.8691 -0.4045
   53CHL1   H25 3914   4.444   6.169   7.037 -1.1069 -1.5094  0.5701
   53CHL1   C26 3915   4.377   6.373   7.021  1.0059 -0.1372 -0.3027
   53CHL1  H26A 3916   4.287   6.416   6.974  1.6345 -0.3434 -1.7378
   53CHL1  H26B 3917   4.383   6.389   7.131 -1.5762  1.9634 -0.3763
   53CHL1  H26C 3918   4.467   6.423   6.979  0.4543  2.5633  1.5143
   53CHL1   C27 3919   4.227   6.156   6.992 -0.6080  0.4750  0.2724
   53CHL1  H27A 3920   4.145   6.199   6.931  0.4642  3.2697  0.6806
   53CHL1  H27B 3921   4.230   6.046   6.977 -1.3644  0.5154 -0.2726
   53CHL1  H27C 3922   4.193   6.183   7.094 -2.9252  0.0201 -0.3099
   54CHL1    C3 3923   2.041   0.163   8.959 -0.4372 -0.0181  0.0370
   54CHL1    H3 3924   1.976   0.083   8.916  0.0678  0.2639 -1.3111
   54CHL1    O3 3925   2.004   0.185   9.091 -0.3414 -0.1901 -0.3339
   54CHL1   H3' 3926   2.072   0.142   9.143 -0.0253  0.4567 -0.1950
   54CHL1    C4 3927   2.191   0.117   8.965  0.1452  0.0796 -0.0281
   54CHL1   H4A 3928   2.258   0.187   9.020 -0.6303 -0.5424  1.7704
   54CHL1   H4B 3929   2.187   0.030   9.034 -0.4248 -0.3361 -0.5696
   54CHL1    C5 3930   2.238   0.082   8.831 -0.2819 -0.1325 -0.4098
   54CHL1    C6 3931   2.290  -0.036   8.809  0.5198  0.4602 -0.3138
   54CHL1    H6 3932   2.296  -0.105   8.895 -0.6889 -0.4703 -0.9388
   54CHL1    C7 3933   2.329  -0.100   8.683 -0.4290 -0.4394 -0.3076
   54CHL1   H7A 3934   2.428  -0.147   8.700 -0.1057  0.5299  0.5980
   54CHL1   H7B 3935   2.263  -0.185   8.658 -1.7693  0.6842 -0.7536
   54CHL1    C8 3936   2.342   0.008   8.571 -0.4281  0.3198  0.4632
   54CHL1    H8 3937   2.437   0.064   8.580  0.2285 -0.6169 -0.4046
   54CHL1   C14 3938   2.341  -0.055   8.431 -0.6584 -0.2197 -0.2839
   54CHL1   H14 3939   2.242  -0.104   8.427 -1.4906  1.2060  1.2670
   54CHL1   C15 3940   2.451  -0.158   8.406 -0.4398  0.2329 -0.0059
   54CHL1  H15A 3941   2.548  -0.138   8.457  0.4765  0.2623 -1.6885
   54CHL1  H15B 3942   2.418  -0.257   8.444  0.1884  0.0468  0.0632
   54CHL1   C16 3943   2.462  -0.159   8.249 -0.3183  0.4935 -0.3840
   54CHL1  H16A 3944   2.565  -0.125   8.224 -0.6608  3.0906  1.3524
   54CHL1  H16B 3945   2.448  -0.266   8.221  1.0991  0.3275 -0.5460
   54CHL1   C17 3946   2.365  -0.049   8.198  0.0965 -0.7127  0.6460
   54CHL1   H17 3947   2.264  -0.093   8.187 -1.4316  2.1130  2.1540
   54CHL1   C13 3948   2.355   0.049   8.319 -0.3101 -0.5627 -0.2536
   54CHL1   C18 3949   2.487   0.136   8.327 -0.6158 -0.4072  0.4829
   54CHL1  H18A 3950   2.501   0.199   8.418  3.9946 -0.5343  0.0879
   54CHL1  H18B 3951   2.569   0.062   8.332 -1.4403 -1.4564 -0.8506
   54CHL1  H18C 3952   2.508   0.196   8.235  1.5899 -0.7230  0.7297
   54CHL1   C12 3953   2.234   0.146   8.324  0.3227  0.0454  0.5900
   54CHL1  H12A 3954   2.225   0.219   8.240  0.9751  0.7670  1.1313
   54CHL1  H12B 3955   2.136   0.097   8.306 -0.1365  1.1674 -0.0831
   54CHL1   C11 3956   2.232   0.216   8.461  0.3020 -0.2725 -0.0353
   54CHL1  H11A 3957   2.313   0.291   8.477 -1.2636  1.6199 -0.5421
   54CHL1  H11B 3958   2.130   0.260   8.457 -0.1096 -1.2619 -3.3116
   54CHL1    C9 3959   2.229   0.118   8.582 -0.5605  0.7093  0.0012
   54CHL1    H9 3960   2.137   0.058   8.563 -0.3689 -0.9008  3.3283
   54CHL1   C10 3961   2.221   0.188   8.725  0.2108  0.2286  0.4646
   54CHL1   C19 3962   2.341   0.292   8.735 -0.3419  0.4668 -0.1346
   54CHL1  H19A 3963   2.444   0.250   8.730 -0.3574  0.4853 -0.5725
   54CHL1  H19B 3964   2.324   0.368   8.656  0.8676 -1.0601 -1.9226
   54CHL1  H19C 3965   2.332   0.346   8.833 -0.7493 -0.5837  0.4222
   54CHL1    C1 3966   2.083   0.263   8.737  0.4033  0.2497 -0.4993
   54CHL1   H1A 3967   2.082   0.356   8.675  1.0981  1.2262  0.8984
   54CHL1   H1B 3968   2.001   0.203   8.692 -1.1703  1.9189  0.0274
   54CHL1    C2 3969   2.042   0.291   8.885  0.1005 -0.6513  0.6886
   54CHL1   H2A 3970   1.939   0.332   8.895  0.1798 -0.3077  0.1629
   54CHL1   H2B 3971   2.113   0.364   8.930  2.8097 -0.9071 -2.7344
   54CHL1   C20 3972   2.415  -0.001   8.058 -0.2282 -0.7238 -0.2428
   54CHL1   H20 3973   2.516   0.042   8.073 -0.7047  0.2047  0.3857
   54CHL1   C21 3974   2.319   0.109   7.998 -0.6607  0.6001  0.0140
   54CHL1  H21A 3975   2.347   0.149   7.899 -0.4539  0.7565  0.1340
   54CHL1  H21B 3976   2.328   0.196   8.067  0.9691 -0.6855  1.5013
   54CHL1  H21C 3977   2.216   0.073   7.978  0.1660 -1.4062 -0.8542
   54CHL1   C22 3978   2.430  -0.121   7.964 -0.9271  0.1578  1.3063
   54CHL1  H22A 3979   2.517  -0.178   8.004 -0.1029  1.0501  0.8427
   54CHL1  H22B 3980   2.337  -0.182   7.959 -0.8261  0.0312  0.8898
   54CHL1   C23 3981   2.481  -0.101   7.817  0.2673 -0.6481  0.3937
   54CHL1  H23A 3982   2.412  -0.025   7.776  1.2222 -0.2806 -0.5852
   54CHL1  H23B 3983   2.582  -0.056   7.803 -0.0750 -0.3411 -1.2429
   54CHL1   C24 3984   2.457  -0.227   7.736 -0.4174  0.0877  0.3087
   54CHL1  H24A 3985   2.358  -0.274   7.752 -1.2701  1.8169  0.3161
   54CHL1  H24B 3986   2.468  -0.204   7.628  0.4754 -2.5037 -0.2285
   54CHL1   C25 3987   2.566  -0.337   7.756 -0.5441 -0.1039 -0.0418
   54CHL1   H25 3988   2.604  -0.318   7.859 -1.0603 -1.0044  0.3243
   54CHL1   C26 3989   2.509  -0.470   7.737 -0.1889  0.1157  0.2997
   54CHL1  H26A 3990   2.430  -0.491   7.812 -0.5432  0.1638 -0.0582
   54CHL1  H26B 3991   2.459  -0.466   7.638 -1.3438  2.3861  0.9008
   54CHL1  H26C 3992   2.593  -0.543   7.742  1.6417  2.0790 -0.1690
   54CHL1   C27 3993   2.686  -0.307   7.665  0.2255  0.1067 -0.4580
   54CHL1  H27A 3994   2.726  -0.205   7.675 -3.0762  1.3651  1.7649
   54CHL1  H27B 3995   2.766  -0.382   7.683 -0.5128 -0.2691  1.4956
   54CHL1  H27C 3996   2.645  -0.309   7.562  1.6313 -0.6485 -1.0256
   55CHL1    C3 3997   5.741   6.285   5.720  0.3755 -1.1237 -0.2092
   55CHL1    H3 3998   5.652   6.218   5.729 -0.3658  0.1023  2.8622
   55CHL1    O3 3999   5.800   6.262   5.593  0.0148  0.0169  0.3996
   55CHL1   H3' 4000   5.804   6.342   5.540  2.1454 -0.4447 -0.2271
   55CHL1    C4 4001   5.695   6.431   5.736 -0.3593 -0.0618 -0.3218
   55CHL1   H4A 4002   5.777   6.496   5.698 -1.0332  0.3484 -1.1128
   55CHL1   H4B 4003   5.613   6.437   5.661  0.4550 -1.4686 -1.3796
   55CHL1    C5 4004   5.654   6.470   5.877  0.2990  0.4227  0.7855
   55CHL1    C6 4005   5.539   6.537   5.902 -0.3660  0.1638 -0.2378
   55CHL1    H6 4006   5.475   6.568   5.818 -1.4869 -0.2071  0.4566
   55CHL1    C7 4007   5.491   6.569   6.044 -0.2419  0.2842  0.2416
   55CHL1   H7A 4008   5.442   6.668   6.054 -2.8697 -0.9980  1.1126
   55CHL1   H7B 4009   5.410   6.494   6.060 -0.6799  0.7244  0.1023
   55CHL1    C8 4010   5.585   6.541   6.158 -0.1407  0.0696 -0.2398
   55CHL1    H8 4011   5.652   6.630   6.160  1.0874 -0.7920 -1.2186
   55CHL1   C14 4012   5.514   6.524   6.293 -0.1138  0.1585 -0.6048
   55CHL1   H14 4013   5.453   6.431   6.290 -2.7629  1.8136 -1.1042
   55CHL1   C15 4014   5.418   6.639   6.337 -0.1234  0.3730  0.7222
   55CHL1  H15A 4015   5.462   6.739   6.318 -1.1400  0.2807 -2.6190
   55CHL1  H15B 4016   5.328   6.638   6.272 -1.0156 -2.5245  1.8518
   55CHL1   C16 4017   5.400   6.627   6.485  0.2483 -0.2740 -0.1087
   55CHL1  H16A 4018   5.416   6.715   6.551 -0.4739  1.5851 -2.2719
   55CHL1  H16B 4019   5.299   6.594   6.519  0.4710  0.6598  1.5309
   55CHL1   C17 4020   5.497   6.511   6.531 -0.3201  0.1597  0.6214
   55CHL1   H17 4021   5.444   6.414   6.530  1.9205 -1.1270 -0.3928
   55CHL1   C13 4022   5.601   6.497   6.417 -0.1705 -0.0721  0.1032
   55CHL1   C18 4023   5.699   6.613   6.446  0.5924 -0.6211  0.1257
   55CHL1  H18A 4024   5.662   6.717   6.459  3.6729  0.5934 -0.1593
   55CHL1  H18B 4025   5.759   6.597   6.538  2.9952  1.0160 -1.0577
   55CHL1  H18C 4026   5.767   6.607   6.359 -2.4832 -0.2387 -2.5311
   55CHL1   C12 4027   5.675   6.356   6.389  0.3429  0.3258  0.1447
   55CHL1  H12A 4028   5.748   6.330   6.468 -0.8372 -3.1186  0.2590
   55CHL1  H12B 4029   5.594   6.280   6.380 -0.3028  0.8679  1.1547
   55CHL1   C11 4030   5.740   6.366   6.253 -0.1940 -0.2107 -0.1333
   55CHL1  H11A 4031   5.827   6.434   6.262 -0.0820 -0.1762 -1.3112
   55CHL1  H11B 4032   5.785   6.271   6.218  1.3960  1.4020 -2.8132
   55CHL1    C9 4033   5.660   6.413   6.132 -0.1486 -0.0888 -0.0332
   55CHL1    H9 4034   5.575   6.342   6.122 -0.4563  0.1820  0.6201
   55CHL1   C10 4035   5.735   6.407   5.992 -0.5249 -0.2716  0.5077
   55CHL1   C19 4036   5.868   6.488   6.007 -0.5409 -0.6587  0.5952
   55CHL1  H19A 4037   5.920   6.484   5.909 -0.6697 -0.3975  0.5166
   55CHL1  H19B 4038   5.861   6.592   6.044  2.3887  0.9160 -2.7588
   55CHL1  H19C 4039   5.945   6.434   6.066 -0.3075 -0.4932  0.4438
   55CHL1    C1 4040   5.762   6.261   5.956  0.0756  0.1745  0.0006
   55CHL1   H1A 4041   5.821   6.213   6.037  1.3765  1.4598 -0.1515
   55CHL1   H1B 4042   5.669   6.200   5.961  0.1185 -0.1479 -2.0225
   55CHL1    C2 4043   5.829   6.234   5.827 -0.2044 -0.4370  0.2939
   55CHL1   H2A 4044   5.856   6.127   5.814 -2.1601 -0.9075 -0.1371
   55CHL1   H2B 4045   5.928   6.285   5.827  0.7226 -2.1386 -0.5473
   55CHL1   C20 4046   5.554   6.518   6.681 -0.0903  0.4503 -0.4756
   55CHL1   H20 4047   5.609   6.613   6.699 -0.6948  0.5727  0.8857
   55CHL1   C21 4048   5.638   6.391   6.720 -0.7932 -0.2857 -0.1759
   55CHL1  H21A 4049   5.578   6.300   6.695 -2.4168  0.2053  1.6703
   55CHL1  H21B 4050   5.670   6.385   6.826 -0.3082 -2.8800 -0.4120
   55CHL1  H21C 4051   5.730   6.398   6.658 -0.7843  0.0268 -0.1278
   55CHL1   C22 4052   5.429   6.538   6.771  0.6776 -0.0381 -0.7564
   55CHL1  H22A 4053   5.370   6.630   6.748  0.4963  0.0505  0.0204
   55CHL1  H22B 4054   5.369   6.445   6.763 -1.0970  1.0097 -0.3727
   55CHL1   C23 4055   5.447   6.543   6.927  0.2851  0.6765  0.0389
   55CHL1  H23A 4056   5.478   6.444   6.965 -0.4298 -0.3136 -1.8336
   55CHL1  H23B 4057   5.527   6.618   6.948  1.2002 -0.8014  2.1980
   55CHL1   C24 4058   5.321   6.571   7.004  0.3804 -0.0930  0.3011
   55CHL1  H24A 4059   5.290   6.671   6.967  1.5049 -0.3051 -1.3219
   55CHL1  H24B 4060   5.238   6.501   6.979 -0.1367  0.0272  1.5788
   55CHL1   C25 4061   5.332   6.586   7.155 -0.2054 -0.5239 -0.0550
   55CHL1   H25 4062   5.429   6.631   7.184 -0.9292 -1.3390  4.3110
   55CHL1   C26 4063   5.212   6.682   7.209 -0.3479  0.3442  0.3386
   55CHL1  H26A 4064   5.119   6.633   7.174  0.0095  1.2009 -1.9988
   55CHL1  H26B 4065   5.227   6.666   7.318  2.5932  1.0672  0.1503
   55CHL1  H26C 4066   5.220   6.792   7.191  0.9382  0.0041 -1.4035
   55CHL1   C27 4067   5.326   6.451   7.224 -0.0588  0.8042 -0.0704
   55CHL1  H27A 4068   5.318   6.461   7.334  3.0019 -2.3133  0.6264
   55CHL1  H27B 4069   5.238   6.390   7.196  2.2299 -1.5828 -2.7292
   55CHL1  H27C 4070   5.419   6.392   7.209  0.3569  0.6734  2.5626
   56CHL1    C3 4071   5.890   3.935   6.180  0.0738  0.3971 -0.3650
   56CHL1    H3 4072   5.785   3.967   6.196  0.0700 -0.6075  2.0432
   56CHL1    O3 4073   5.902   3.855   6.057 -0.3117 -0.0275 -0.6111
   56CHL1   H3' 4074   5.823   3.862   6.002 -0.6606  0.7442 -0.0320
   56CHL1    C4 4075   5.992   4.050   6.179  0.0796  0.1440 -0.4036
   56CHL1   H4A 4076   6.086   4.010   6.134 -0.6714 -1.9195 -0.2555
   56CHL1   H4B 4077   5.961   4.123   6.101 -1.3769  0.5373  0.5160
   56CHL1    C5 4078   6.013   4.120   6.313 -0.2721 -0.8150 -0.1396
   56CHL1    C6 4079   6.015   4.254   6.324 -0.0635 -0.7966 -0.3643
   56CHL1    H6 4080   5.991   4.308   6.231  1.9415  1.3463  0.2707
   56CHL1    C7 4081   6.025   4.331   6.450  0.2268  0.1833 -0.1372
   56CHL1   H7A 4082   6.089   4.420   6.440 -0.7204  0.9247  0.2183
   56CHL1   H7B 4083   5.920   4.357   6.477 -0.5003 -0.0855 -2.4676
   56CHL1    C8 4084   6.092   4.250   6.569  0.5267  0.6967  0.4809
   56CHL1    H8 4085   6.201   4.251   6.547  0.2625 -0.9865 -1.2256
   56CHL1   C14 4086   6.067   4.302   6.702  0.1911 -0.7512 -0.9085
   56CHL1   H14 4087   5.959   4.296   6.728  0.2976  1.3164  0.2325
   56CHL1   C15 4088   6.078   4.459   6.723  0.0294 -0.0976  1.2497
   56CHL1  H15A 4089   6.175   4.507   6.697 -0.2066  0.1454  0.7916
   56CHL1  H15B 4090   5.996   4.502   6.661  0.2380 -0.8030  0.4585
   56CHL1   C16 4091   6.058   4.467   6.880 -0.3401 -0.7061 -0.0303
   56CHL1  H16A 4092   6.133   4.539   6.919  0.9369 -2.0022  0.0160
   56CHL1  H16B 4093   5.958   4.514   6.891  0.2494  1.0022 -1.4546
   56CHL1   C17 4094   6.077   4.325   6.938 -0.4182 -0.7001  0.1937
   56CHL1   H17 4095   5.974   4.292   6.965 -0.5452  0.3210  1.0281
   56CHL1   C13 4096   6.131   4.239   6.823 -0.2148 -0.2566 -0.6546
   56CHL1   C18 4097   6.289   4.248   6.812  0.3016 -0.8608 -0.0567
   56CHL1  H18A 4098   6.334   4.223   6.910 -0.7659  2.8081  1.5494
   56CHL1  H18B 4099   6.327   4.179   6.733 -0.9635 -1.3949 -0.2222
   56CHL1  H18C 4100   6.334   4.344   6.777  0.2275 -0.8410 -0.0972
   56CHL1   C12 4101   6.087   4.093   6.829 -0.1476  0.0764  0.2078
   56CHL1  H12A 4102   6.147   4.022   6.890  0.8605 -1.5269 -2.4590
   56CHL1  H12B 4103   5.981   4.103   6.858  0.2714  0.5356  1.6756
   56CHL1   C11 4104   6.095   4.027   6.693  0.2449  0.8558  0.6632
   56CHL1  H11A 4105   6.203   4.008   6.676 -0.0225 -1.0022  0.8640
   56CHL1  H11B 4106   6.050   3.926   6.697  0.4392  0.7472  0.1993
   56CHL1    C9 4107   6.039   4.106   6.572  0.4574  0.0781  0.7051
   56CHL1    H9 4108   5.931   4.129   6.587  0.6171  2.4495 -1.1722
   56CHL1   C10 4109   6.032   4.027   6.433 -0.0047 -0.6348  0.2113
   56CHL1   C19 4110   6.165   3.954   6.419  0.2431 -0.0170 -0.5527
   56CHL1  H19A 4111   6.163   3.877   6.499  0.4625  0.4318 -0.1140
   56CHL1  H19B 4112   6.173   3.905   6.319 -0.2630  0.6646 -0.9352
   56CHL1  H19C 4113   6.249   4.022   6.444 -0.0004 -0.6191  2.1780
   56CHL1    C1 4114   5.915   3.920   6.434 -0.3510 -0.3443  0.4855
   56CHL1   H1A 4115   5.948   3.843   6.507 -2.0535  0.3211  2.0357
   56CHL1   H1B 4116   5.825   3.978   6.464  0.7475  0.5395  2.2510
   56CHL1    C2 4117   5.908   3.841   6.306  0.1521  0.0881 -0.0431
   56CHL1   H2A 4118   5.827   3.765   6.305 -2.8364  2.9978 -3.0042
   56CHL1   H2B 4119   6.000   3.783   6.285 -1.0814 -1.6253 -0.9760
   56CHL1   C20 4120   6.146   4.332   7.073  0.6994  0.7068  0.4634
   56CHL1   H20 4121   6.252   4.361   7.055  1.1900 -0.8160  0.7421
   56CHL1   C21 4122   6.152   4.194   7.142 -0.5411  0.0991 -0.1884
   56CHL1  H21A 4123   6.217   4.119   7.091  0.3511 -1.4601  2.9694
   56CHL1  H21B 4124   6.050   4.150   7.151  0.4093 -2.1141  0.4702
   56CHL1  H21C 4125   6.197   4.201   7.243  0.7370 -3.5381 -0.3271
   56CHL1   C22 4126   6.099   4.429   7.180  0.3498  0.0531  1.2503
   56CHL1  H22A 4127   6.149   4.415   7.279  2.1693  0.5938  0.4421
   56CHL1  H22B 4128   6.118   4.534   7.152 -1.1339 -0.4523 -2.1049
   56CHL1   C23 4129   5.945   4.421   7.204  0.0192  0.1274 -0.2096
   56CHL1  H23A 4130   5.889   4.453   7.114 -1.9507  0.2953  1.0180
   56CHL1  H23B 4131   5.925   4.313   7.223  0.8813 -0.1105 -0.5473
   56CHL1   C24 4132   5.911   4.517   7.314 -0.1243  0.0744  0.9556
   56CHL1  H24A 4133   5.973   4.491   7.403  0.3102 -0.6825  0.4512
   56CHL1  H24B 4134   5.952   4.619   7.296  2.8268 -1.1422  0.0909
   56CHL1   C25 4135   5.762   4.509   7.353 -0.3293 -0.2784 -0.2941
   56CHL1   H25 4136   5.767   4.566   7.449  0.9751 -1.9191  0.6711
   56CHL1   C26 4137   5.673   4.598   7.264 -0.4336  0.0674 -0.3809
   56CHL1  H26A 4138   5.685   4.568   7.158  0.1666 -0.2024 -0.2408
   56CHL1  H26B 4139   5.569   4.591   7.300 -1.2482  0.6131 -2.4960
   56CHL1  H26C 4140   5.713   4.701   7.279  2.2541 -0.5395 -2.3911
   56CHL1   C27 4141   5.702   4.377   7.378 -0.4007  0.5406  0.3781
   56CHL1  H27A 4142   5.606   4.379   7.435 -0.3376 -2.8569  0.8335
   56CHL1  H27B 4143   5.691   4.323   7.282  1.5745 -1.5593  1.2509
   56CHL1  H27C 4144   5.772   4.323   7.444  1.4654  2.0907 -0.2472
   57SAPC     N 4145   4.675   3.493   1.369 -0.1579  0.0930 -0.1327
   57SAPC   C12 4146   4.731   3.403   1.263  0.1636  0.1839 -0.4136
   57SAPC  H12A 4147   4.674   3.312   1.247 -0.1394  0.0497  1.2306
   57SAPC  H12B 4148   4.821   3.364   1.309  0.9058 -0.2275 -2.1116
   57SAPC   C13 4149   4.790   3.570   1.423 -0.8297  1.1952 -0.5558
   57SAPC  H13A 4150   4.842   3.601   1.333  0.6606 -0.4093 -0.3053
   57SAPC  H13B 4151   4.773   3.661   1.478 -2.7827  1.1832 -1.0905
   57SAPC  H13C 4152   4.860   3.505   1.474 -0.3606  0.7283 -1.7559
   57SAPC   C14 4153   4.573   3.586   1.320  0.3082  0.0799  0.8931
   57SAPC  H14A 4154   4.525   3.627   1.408 -0.6071 -0.2232  0.5471
   57SAPC  H14B 4155   4.609   3.653   1.243 -0.5189 -1.0035 -0.4746
   57SAPC  H14C 4156   4.500   3.524   1.271  0.8002  0.2650 -0.1116
   57SAPC   C15 4157   4.611   3.426   1.487 -0.6944  0.4857 -0.0338
   57SAPC  H15A 4158   4.527   3.364   1.460 -0.5999 -0.0397  0.8344
   57SAPC  H15B 4159   4.683   3.367   1.542 -0.3504  1.9233  1.1379
   57SAPC  H15C 4160   4.584   3.503   1.559  2.3999  0.3412  1.4636
   57SAPC   C11 4161   4.762   3.465   1.127  0.0650 -0.1355  0.0325
   57SAPC  H11A 4162   4.671   3.489   1.068  0.3356 -0.6216 -0.5990
   57SAPC  H11B 4163   4.800   3.371   1.080  0.8060  0.3217 -0.2939
   57SAPC     P 4164   4.954   3.622   1.034 -0.2326  0.0728  0.2149
   57SAPC   O13 4165   5.018   3.742   1.089  0.2748 -0.3322 -0.2872
   57SAPC   O14 4166   5.043   3.514   0.983  0.5845  0.1750  1.1125
   57SAPC   O12 4167   4.859   3.568   1.141 -0.1966 -0.2031 -0.0476
   57SAPC   O11 4168   4.849   3.659   0.920 -0.5069 -0.4972  0.3479
   57SAPC    C1 4169   4.837   3.586   0.798 -0.2376  0.2793  0.7687
   57SAPC    HA 4170   4.872   3.480   0.800  0.2670  0.3996  4.2769
   57SAPC    HB 4171   4.734   3.585   0.758 -0.4015  0.9677  1.1774
   57SAPC    C2 4172   4.938   3.651   0.696  0.4555  1.7177  0.0260
   57SAPC    HS 4173   5.032   3.675   0.750  1.6490 -0.5479 -0.8886
   57SAPC   O21 4174   4.878   3.768   0.636  0.0831  0.8197  0.8938
   57SAPC   C21 4175   4.952   3.882   0.645  0.5681 -0.2832 -0.1164
   57SAPC   O22 4176   5.064   3.895   0.682 -0.0700 -0.1472 -0.0700
   57SAPC   C22 4177   4.864   4.001   0.603  0.4794 -0.0334  0.4938
   57SAPC   H2R 4178   4.806   3.974   0.512 -0.4048  1.2893  0.6355
   57SAPC   H2S 4179   4.796   4.015   0.690 -0.0034 -1.2924  0.3429
   57SAPC    C3 4180   4.974   3.546   0.587  0.1938  0.1519  0.3187
   57SAPC    HX 4181   4.873   3.531   0.542  0.0709  0.9114  0.3253
   57SAPC    HY 4182   4.998   3.444   0.624 -0.5287 -1.0744 -2.3173
   57SAPC   O31 4183   5.061   3.592   0.481  0.2309  0.5886  0.1249
   57SAPC   C31 4184   5.191   3.601   0.519 -0.0228  0.0835  0.1297
   57SAPC   O32 4185   5.227   3.606   0.637 -0.0999 -0.1203 -0.2748
   57SAPC   C32 4186   5.276   3.602   0.398 -0.7358 -0.8960 -0.2616
   57SAPC   H2X 4187   5.209   3.632   0.315 -0.8704 -1.5470 -0.3996
   57SAPC   H2Y 4188   5.317   3.500   0.378 -1.5322 -1.1080 -0.9217
   57SAPC   C23 4189   4.939   4.133   0.579 -0.8635  0.2505 -0.1964
   57SAPC   H3R 4190   5.000   4.160   0.668 -1.5206  1.4819 -0.0887
   57SAPC   H3S 4191   4.871   4.220   0.569 -1.6204 -0.4210 -1.0404
   57SAPC   C24 4192   5.026   4.132   0.452 -0.3226  0.8390 -0.4995
   57SAPC   H4R 4193   5.103   4.052   0.455  1.6034  2.6207  2.0188
   57SAPC   H4S 4194   5.082   4.228   0.459 -0.9364  1.0775  1.5992
   57SAPC   C25 4195   4.937   4.132   0.329 -0.8098 -0.1491 -0.3156
   57SAPC   H5R 4196   4.856   4.205   0.343 -1.4263 -0.8454 -0.2031
   57SAPC   C26 4197   4.950   4.056   0.216  0.3006 -0.3106 -0.4430
   57SAPC   H6R 4198   4.873   4.049   0.138  0.7839  0.5037 -1.0085
   57SAPC   C27 4199   5.052   3.950   0.208  0.1641  0.1464  0.4150
   57SAPC   H7R 4200   5.017   3.877   0.132 -1.1859  1.1658  0.0137
   57SAPC   H7S 4201   5.063   3.899   0.306 -2.3022  0.9860  1.2038
   57SAPC   C28 4202   5.182   4.014   0.165  0.1596  1.2017 -0.6452
   57SAPC   H8R 4203   5.233   4.077   0.239 -0.0306 -1.3556  1.8233
   57SAPC   C29 4204   5.250   3.989   0.052 -0.4296  0.2742  0.0453
   57SAPC   H9R 4205   5.335   4.056   0.037  0.8968 -1.4760 -0.6738
   57SAPC  C210 4206   5.222   3.908  -0.070  0.4696  0.6167 -0.2660
   57SAPC  H10R 4207   5.182   3.976  -0.149  2.2353 -0.9407 -2.6101
   57SAPC  H10S 4208   5.155   3.823  -0.046 -0.5420  1.4449 -0.0155
   57SAPC  C211 4209   5.346   3.851  -0.129 -0.6207 -0.7200  0.0627
   57SAPC  H11R 4210   5.438   3.884  -0.078 -0.4960  0.3970 -0.8484
   57SAPC  C212 4211   5.361   3.789  -0.247  0.8135  0.8323  0.2444
   57SAPC  H12R 4212   5.464   3.762  -0.274  0.7342 -0.3306  1.0188
   57SAPC  C213 4213   5.248   3.741  -0.336 -1.3261 -0.8454 -0.0285
   57SAPC  H13R 4214   5.160   3.706  -0.278 -1.4651  2.6708  2.1948
   57SAPC  H13S 4215   5.291   3.660  -0.399 -1.6977 -3.3559  2.7506
   57SAPC  C214 4216   5.201   3.853  -0.425  0.6794  0.3462  0.7687
   57SAPC  H14R 4217   5.214   3.954  -0.384  2.5767  0.2728  0.4361
   57SAPC  C215 4218   5.144   3.843  -0.553  0.3575  0.0842 -0.6964
   57SAPC  H15R 4219   5.094   3.932  -0.593  0.6482 -0.2238 -1.7739
   57SAPC  C216 4220   5.111   3.713  -0.616 -0.4167  0.1281  0.2298
   57SAPC  H16R 4221   5.024   3.716  -0.686 -1.3989 -0.1882  1.4001
   57SAPC  H16S 4222   5.073   3.642  -0.540 -2.9929 -0.3492 -1.3839
   57SAPC  C217 4223   5.225   3.649  -0.689  0.1864  0.2541  0.7788
   57SAPC  H17R 4224   5.208   3.544  -0.721  2.9228 -0.3840  1.1814
   57SAPC  H17S 4225   5.324   3.639  -0.639  1.2515 -1.5723 -1.5134
   57SAPC  C218 4226   5.272   3.718  -0.818 -0.5119 -0.0239 -0.5055
   57SAPC  H18R 4227   5.372   3.680  -0.846  0.4095  1.2499  0.8929
   57SAPC  H18S 4228   5.288   3.824  -0.792 -1.5398  0.1974 -0.7428
   57SAPC  C219 4229   5.175   3.706  -0.935  0.7310 -0.1044  0.3229
   57SAPC  H19R 4230   5.077   3.749  -0.908  1.1932  1.3931 -0.2847
   57SAPC  H19S 4231   5.169   3.597  -0.958  2.0192 -0.0149 -0.5681
   57SAPC  C220 4232   5.221   3.785  -1.056 -0.6555  0.2745 -0.1002
   57SAPC  H20R 4233   5.321   3.747  -1.087  0.2437  1.1380  1.6050
   57SAPC  H20S 4234   5.218   3.892  -1.028 -3.0334  0.6102 -1.3630
   57SAPC  H20T 4235   5.143   3.772  -1.134 -1.0299 -1.7884  0.5327
   57SAPC   C33 4236   5.401   3.699   0.410  0.4541  0.4544 -0.5345
   57SAPC   H3X 4237   5.474   3.643   0.473 -0.1182  1.4230  1.0479
   57SAPC   H3Y 4238   5.367   3.793   0.459  0.8354 -0.3428  1.3468
   57SAPC   C34 4239   5.472   3.738   0.280  0.5655 -0.3782  0.2635
   57SAPC   H4X 4240   5.556   3.809   0.297  0.1024  0.5861 -1.2599
   57SAPC   H4Y 4241   5.393   3.780   0.214 -1.8684 -2.1315  1.9311
   57SAPC   C35 4242   5.532   3.613   0.205  0.7367 -0.0549 -0.7061
   57SAPC   H5X 4243   5.547   3.531   0.278  1.2353  1.3557  0.8418
   57SAPC   H5Y 4244   5.635   3.638   0.173  2.5316 -1.4808  3.3084
   57SAPC   C36 4245   5.441   3.553   0.095  0.0599 -0.1484  0.2874
   57SAPC   H6X 4246   5.405   3.638   0.033  0.1862 -0.6093 -0.4259
   57SAPC   H6Y 4247   5.345   3.517   0.138 -0.7288  2.6903  1.1429
   57SAPC   C37 4248   5.516   3.448   0.012 -0.2986 -0.4363  0.4234
   57SAPC   H7X 4249   5.447   3.394  -0.056  0.1212  0.5522 -0.8363
   57SAPC   H7Y 4250   5.573   3.377   0.076  1.6342 -2.8176 -3.5596
   57SAPC   C38 4251   5.628   3.501  -0.090 -0.2500 -0.2494 -0.3658
   57SAPC   H8X 4252   5.720   3.527  -0.034  0.4643  1.3309 -2.1872
   57SAPC   H8Y 4253   5.576   3.594  -0.119 -2.9326 -1.5940 -0.1625
   57SAPC   C39 4254   5.646   3.410  -0.208 -0.1832  0.3346 -0.4876
   57SAPC   H9X 4255   5.553   3.356  -0.234 -0.2827  0.0882  0.3384
   57SAPC   H9Y 4256   5.725   3.337  -0.178  0.9070  1.3693 -0.7461
   57SAPC  C310 4257   5.699   3.490  -0.328  0.0818 -0.2289 -1.0341
   57SAPC  H10X 4258   5.797   3.534  -0.299 -1.3350  2.1019  0.6417
   57SAPC  H10Y 4259   5.633   3.577  -0.351 -0.9812 -0.8202 -0.3046
   57SAPC  C311 4260   5.703   3.406  -0.457 -0.4992  0.1144 -0.0991
   57SAPC  H11X 4261   5.756   3.309  -0.453 -1.3890 -0.4342 -1.1695
   57SAPC  H11Y 4262   5.763   3.470  -0.525 -1.0336 -1.1792 -1.8635
   57SAPC  C312 4263   5.569   3.383  -0.520  0.7504 -0.1764  0.0173
   57SAPC  H12X 4264   5.517   3.481  -0.534  2.0626  0.5623  0.1340
   57SAPC  H12Y 4265   5.501   3.338  -0.445 -1.7122  3.1150  0.0170
   57SAPC  C313 4266   5.558   3.296  -0.648 -0.2041  0.4681  0.1715
   57SAPC  H13X 4267   5.452   3.269  -0.665 -0.2507 -0.2691  1.4367
   57SAPC  H13Y 4268   5.599   3.194  -0.660 -0.0190  0.6618 -0.8682
   57SAPC  C314 4269   5.590   3.373  -0.777 -0.4951  0.5456 -0.3857
   57SAPC  H14X 4270   5.698   3.386  -0.795 -0.0562 -0.0258  1.6669
   57SAPC  H14Y 4271   5.546   3.473  -0.758  0.9368  1.0523  0.3464
   57SAPC  C315 4272   5.526   3.316  -0.908 -0.2871 -0.4434 -0.0936
   57SAPC  H15X 4273   5.416   3.316  -0.893 -0.1412 -1.3505  1.2582
   57SAPC  H15Y 4274   5.548   3.207  -0.921  0.1000 -0.1798 -1.9224
   57SAPC  C316 4275   5.576   3.378  -1.041 -0.4054  0.3895 -0.4410
   57SAPC  H16X 4276   5.686   3.364  -1.048 -0.3303  0.0871  0.9587
   57SAPC  H16Y 4277   5.558   3.487  -1.028  0.4234  0.3674  1.2234
   57SAPC  C317 4278   5.506   3.321  -1.163 -0.8600 -0.5107  0.1261
   57SAPC  H17X 4279   5.401   3.316  -1.126 -0.2944  0.2226  1.9670
   57SAPC  H17Y 4280   5.529   3.216  -1.188 -0.7233 -0.3566 -0.4162
   57SAPC  C318 4281   5.514   3.396  -1.297  0.0432 -0.2112  0.1567
   57SAPC  H18X 4282   5.441   3.357  -1.371 -0.8277 -0.4358  1.1115
   57SAPC  H18Y 4283   5.617   3.380  -1.336 -0.2401 -1.9781  0.0380
   57SAPC  H18Z 4284   5.490   3.504  -1.290  0.2424 -0.2772  3.2580
   58SAPC     N 4285   6.675   4.803   0.466  0.2666 -0.3907  0.4838
   58SAPC   C12 4286   6.648   4.662   0.519  0.0579 -0.7250  0.3315
   58SAPC  H12A 4287   6.667   4.587   0.444 -0.6165  1.0980 -1.7651
   58SAPC  H12B 4288   6.541   4.660   0.536 -0.2853  2.8321 -0.6505
   58SAPC   C13 4289   6.810   4.822   0.420  0.3033  0.3456  0.2113
   58SAPC  H13A 4290   6.879   4.838   0.501  0.5996  0.4239 -0.0499
   58SAPC  H13B 4291   6.855   4.735   0.374  1.4292 -0.3705  2.5412
   58SAPC  H13C 4292   6.824   4.910   0.359  2.1666  0.1474  0.2967
   58SAPC   C14 4293   6.579   4.836   0.346 -0.3879  0.1251 -0.5218
   58SAPC  H14A 4294   6.574   4.752   0.279 -0.0631 -0.8812  0.6907
   58SAPC  H14B 4295   6.481   4.857   0.386 -0.3998 -0.8531 -0.0002
   58SAPC  H14C 4296   6.608   4.928   0.298 -0.7616  0.0184 -0.9548
   58SAPC   C15 4297   6.643   4.904   0.565  0.1184  0.0291 -0.3383
   58SAPC  H15A 4298   6.654   5.000   0.518  0.2949  0.0276 -0.3011
   58SAPC  H15B 4299   6.542   4.896   0.604  0.3846 -0.4077  0.2866
   58SAPC  H15C 4300   6.702   4.896   0.655 -1.3490  2.3622  0.9279
   58SAPC   C11 4301   6.724   4.621   0.644  0.3424 -0.0191 -0.3075
   58SAPC  H11A 4302   6.676   4.532   0.690  0.9965  1.3915  3.4989
   58SAPC  H11B 4303   6.695   4.685   0.731 -0.5717 -0.2253 -0.4497
   58SAPC     P 4304   6.899   4.455   0.557 -0.2813  0.0120  0.1166
   58SAPC   O13 4305   7.048   4.463   0.537  0.1987  0.4518 -0.1461
   58SAPC   O14 4306   6.851   4.348   0.649  0.1416  0.0148  0.2337
   58SAPC   O12 4307   6.860   4.599   0.620  0.4480 -0.0504 -0.0315
   58SAPC   O11 4308   6.829   4.455   0.414 -0.7063  0.2800 -0.1562
   58SAPC    C1 4309   6.856   4.353   0.317 -1.0330  1.0713  0.7607
   58SAPC    HA 4310   6.956   4.368   0.272 -1.6067  3.2613  0.0897
   58SAPC    HB 4311   6.853   4.251   0.362  0.5121  0.6652 -0.0023
   58SAPC    C2 4312   6.759   4.360   0.200  0.4238  0.2379 -0.0950
   58SAPC    HS 4313   6.654   4.349   0.233  1.0049  0.0791  1.8019
   58SAPC   O21 4314   6.792   4.259   0.105 -0.2169  0.0595  0.2518
   58SAPC   C21 4315   6.729   4.141   0.123 -0.2635 -0.3652 -1.3011
   58SAPC   O22 4316   6.657   4.111   0.218 -0.1792 -0.3031 -0.0005
   58SAPC   C22 4317   6.741   4.060  -0.003  0.0512  0.4105 -0.0328
   58SAPC   H2R 4318   6.844   4.050  -0.042 -1.0448 -1.2387 -2.8446
   58SAPC   H2S 4319   6.709   3.955   0.013  2.4197 -0.4048 -0.3387
   58SAPC    C3 4320   6.757   4.505   0.134 -0.1232  0.0541  0.3296
   58SAPC    HX 4321   6.864   4.535   0.123 -0.3106  0.5082 -0.2982
   58SAPC    HY 4322   6.717   4.578   0.207 -2.9818  0.9845 -1.9839
   58SAPC   O31 4323   6.698   4.520   0.006  0.9271 -0.8226 -0.0142
   58SAPC   C31 4324   6.572   4.485  -0.007 -0.7846 -0.5414  0.0403
   58SAPC   O32 4325   6.497   4.471   0.089  0.0178  0.2404  0.3767
   58SAPC   C32 4326   6.533   4.474  -0.159 -0.8607  0.2871 -0.5074
   58SAPC   H2X 4327   6.460   4.390  -0.168 -1.4861  0.6282  1.0135
   58SAPC   H2Y 4328   6.628   4.450  -0.211 -0.1096  0.1405  0.9024
   58SAPC   C23 4329   6.664   4.138  -0.121 -0.7742  0.1547 -0.3219
   58SAPC   H3R 4330   6.704   4.241  -0.133  0.4430  0.0548  2.1980
   58SAPC   H3S 4331   6.558   4.144  -0.086 -0.4046 -1.7738  1.3005
   58SAPC   C24 4332   6.664   4.062  -0.251  0.5683 -0.1933  0.5249
   58SAPC   H4R 4333   6.633   3.958  -0.231  1.5541 -0.9999 -1.7698
   58SAPC   H4S 4334   6.768   4.059  -0.291  0.8737 -2.1305  1.3615
   58SAPC   C25 4335   6.562   4.115  -0.356 -0.7731  0.0828  0.2086
   58SAPC   H5R 4336   6.487   4.186  -0.318 -2.9020 -2.3542  0.8224
   58SAPC   C26 4337   6.582   4.076  -0.492  0.2115 -0.2022  0.2971
   58SAPC   H6R 4338   6.519   4.121  -0.570  0.5121 -0.2821  0.0077
   58SAPC   C27 4339   6.676   3.969  -0.544  0.1413 -0.3777 -1.1671
   58SAPC   H7R 4340   6.615   3.885  -0.585  0.0024 -0.7142 -0.2903
   58SAPC   H7S 4341   6.731   3.925  -0.458 -0.0723  1.5264 -0.0131
   58SAPC   C28 4342   6.775   4.021  -0.648 -0.0323 -0.1515 -0.1128
   58SAPC   H8R 4343   6.864   4.074  -0.613 -0.2847  0.1279  0.1127
   58SAPC   C29 4344   6.768   4.022  -0.779 -0.2677  0.1823 -0.5407
   58SAPC   H9R 4345   6.849   4.063  -0.841 -0.2057  1.0020  0.0696
   58SAPC  C210 4346   6.645   3.975  -0.859  0.1845  0.7123  0.2450
   58SAPC  H10R 4347   6.587   3.893  -0.812 -0.1301  0.2413 -0.9407
   58SAPC  H10S 4348   6.680   3.918  -0.947 -2.4100 -0.1835 -0.2783
   58SAPC  C211 4349   6.554   4.093  -0.889  0.6762  0.1221 -0.6607
   58SAPC  H11R 4350   6.541   4.157  -0.801  0.4871 -0.9362  0.1069
   58SAPC  C212 4351   6.496   4.107  -1.005 -0.2046  0.2686 -0.0019
   58SAPC  H12R 4352   6.414   4.181  -1.011 -0.2481  0.3562  1.2645
   58SAPC  C213 4353   6.499   4.006  -1.115 -1.0598  0.4969 -0.5650
   58SAPC  H13R 4354   6.424   3.924  -1.108  0.6144 -1.0790  0.0242
   58SAPC  H13S 4355   6.599   3.956  -1.113 -1.3371 -0.1136  1.7348
   58SAPC  C214 4356   6.488   4.075  -1.252 -0.0601  0.3967  0.0492
   58SAPC  H14R 4357   6.415   4.157  -1.260  0.8274  1.2408  0.3855
   58SAPC  C215 4358   6.566   4.046  -1.361  0.2857  0.1772  0.2136
   58SAPC  H15R 4359   6.545   4.111  -1.447  0.4846  3.3521  2.4008
   58SAPC  C216 4360   6.674   3.947  -1.372  0.4970  0.7160 -0.1475
   58SAPC  H16R 4361   6.678   3.909  -1.476 -3.3651 -0.1090 -0.1250
   58SAPC  H16S 4362   6.656   3.857  -1.310 -0.5395  1.1372  0.1823
   58SAPC  C217 4363   6.812   4.019  -1.345 -0.2692 -0.5563  0.1129
   58SAPC  H17R 4364   6.823   4.119  -1.391 -0.0225 -0.9972 -0.8342
   58SAPC  H17S 4365   6.887   3.947  -1.385 -1.3064 -0.3014 -2.5363
   58SAPC  C218 4366   6.852   4.030  -1.194  0.8910 -0.5540  0.3986
   58SAPC  H18R 4367   6.837   3.928  -1.155  1.2377 -0.5678  0.5044
   58SAPC  H18S 4368   6.781   4.103  -1.149  1.9637  1.6579 -1.2640
   58SAPC  C219 4369   6.989   4.095  -1.175  0.0498  0.9942 -0.6001
   58SAPC  H19R 4370   7.064   4.052  -1.244 -0.2324  1.7377 -1.3832
   58SAPC  H19S 4371   7.006   4.057  -1.072 -0.2050 -2.0071 -1.5772
   58SAPC  C220 4372   6.980   4.245  -1.183 -0.1434 -0.0612  0.3307
   58SAPC  H20R 4373   6.946   4.272  -1.286  1.1741 -1.7342 -0.5959
   58SAPC  H20S 4374   7.079   4.293  -1.165 -0.4166  1.3321 -1.5237
   58SAPC  H20T 4375   6.913   4.287  -1.105  0.1287 -1.4267  1.3180
   58SAPC   C33 4376   6.454   4.595  -0.216 -0.4158 -0.0793 -0.1172
   58SAPC   H3X 4377   6.512   4.689  -0.227  1.6373 -1.3474 -0.7207
   58SAPC   H3Y 4378   6.358   4.616  -0.164 -0.4987  1.0777 -0.7100
   58SAPC   C34 4379   6.399   4.556  -0.351 -0.2140 -0.0675  0.0786
   58SAPC   H4X 4380   6.342   4.641  -0.393 -0.7811 -0.5340 -0.1069
   58SAPC   H4Y 4381   6.343   4.460  -0.347  0.3900 -0.4031  2.2976
   58SAPC   C35 4382   6.510   4.542  -0.449  0.0150 -0.1584 -0.5037
   58SAPC   H5X 4383   6.589   4.466  -0.428  1.5896  1.7042  0.6673
   58SAPC   H5Y 4384   6.560   4.642  -0.446 -1.9417  0.8832  3.2563
   58SAPC   C36 4385   6.462   4.511  -0.594 -0.3120  0.1587 -0.2727
   58SAPC   H6X 4386   6.394   4.596  -0.616  0.4088  1.6308  2.6382
   58SAPC   H6Y 4387   6.402   4.418  -0.598  2.6225 -2.0178  2.1090
   58SAPC   C37 4388   6.571   4.513  -0.706  0.2355 -0.1023  0.3463
   58SAPC   H7X 4389   6.624   4.417  -0.721  0.0939  0.2961 -3.7330
   58SAPC   H7Y 4390   6.657   4.577  -0.675  0.4099 -0.4125  0.5121
   58SAPC   C38 4391   6.525   4.549  -0.845  0.0731  0.6702  0.6128
   58SAPC   H8X 4392   6.485   4.652  -0.848 -1.6413  0.0612  1.3150
   58SAPC   H8Y 4393   6.444   4.484  -0.884  1.1676  0.2076 -0.9684
   58SAPC   C39 4394   6.637   4.533  -0.954 -0.4522  0.2316 -0.6489
   58SAPC   H9X 4395   6.703   4.444  -0.938 -1.5030 -0.9178 -2.3492
   58SAPC   H9Y 4396   6.704   4.621  -0.953 -0.1298 -0.0047 -0.9266
   58SAPC  C310 4397   6.594   4.528  -1.100  0.1373 -0.3329  0.3809
   58SAPC  H10X 4398   6.557   4.630  -1.124  0.5074 -0.1787  0.4538
   58SAPC  H10Y 4399   6.506   4.461  -1.106 -0.3375  0.1959  1.2956
   58SAPC  C311 4400   6.695   4.480  -1.209 -0.1327 -0.5290  0.3471
   58SAPC  H11X 4401   6.734   4.380  -1.179  1.6027  0.2023  0.5974
   58SAPC  H11Y 4402   6.780   4.550  -1.218 -0.9761  0.3529 -1.0163
   58SAPC  C312 4403   6.625   4.447  -1.345  0.2849 -0.2541  0.2287
   58SAPC  H12X 4404   6.564   4.529  -1.390  2.0922 -0.3981 -2.6560
   58SAPC  H12Y 4405   6.549   4.368  -1.325 -0.1348  0.6273  2.4830
   58SAPC  C313 4406   6.722   4.421  -1.460 -0.4971 -0.3961  0.3039
   58SAPC  H13X 4407   6.790   4.338  -1.432 -1.2005 -1.3471 -0.7221
   58SAPC  H13Y 4408   6.786   4.508  -1.484  0.4419 -1.4408 -1.1018
   58SAPC  C314 4409   6.656   4.385  -1.598  0.0712  0.1989 -0.7761
   58SAPC  H14X 4410   6.577   4.456  -1.632 -0.6170 -1.4319 -2.8157
   58SAPC  H14Y 4411   6.605   4.287  -1.593 -1.7057  1.0899 -0.7378
   58SAPC  C315 4412   6.769   4.375  -1.701 -0.2284  0.4212  0.3948
   58SAPC  H15X 4413   6.842   4.294  -1.680 -0.7233 -0.2597 -0.4780
   58SAPC  H15Y 4414   6.811   4.477  -1.715 -3.3077  1.6269 -1.0225
   58SAPC  C316 4415   6.713   4.331  -1.839 -0.1517  0.0388 -0.2992
   58SAPC  H16X 4416   6.662   4.419  -1.885  1.0086  0.7605 -0.2486
   58SAPC  H16Y 4417   6.640   4.249  -1.821  0.2519 -0.1294  0.6110
   58SAPC  C317 4418   6.812   4.287  -1.942  0.0087 -0.7798 -0.6839
   58SAPC  H17X 4419   6.855   4.190  -1.908 -0.6593 -1.8451 -2.7032
   58SAPC  H17Y 4420   6.888   4.368  -1.949  0.0941 -0.8882 -1.0672
   58SAPC  C318 4421   6.755   4.271  -2.085 -0.5704  0.8436 -0.4424
   58SAPC  H18X 4422   6.752   4.359  -2.152 -0.8083 -0.1653 -1.7886
   58SAPC  H18Y 4423   6.652   4.228  -2.090 -1.1053  2.0585 -0.1541
   58SAPC  H18Z 4424   6.833   4.211  -2.136  0.3992  0.9976  0.8134
   59SAPC     N 4425   1.773   4.641   0.464 -0.5814  0.8469  0.3246
   59SAPC   C12 4426   1.866   4.520   0.493  0.5329  0.4018 -0.4304
   59SAPC  H12A 4427   1.851   4.492   0.596  0.2945  2.1060  0.0391
   59SAPC  H12B 4428   1.969   4.553   0.490  0.4902  0.5845  0.0164
   59SAPC   C13 4429   1.822   4.761   0.555 -0.2558  0.0038  0.2256
   59SAPC  H13A 4430   1.913   4.803   0.514 -0.5583  1.7493  1.2413
   59SAPC  H13B 4431   1.746   4.838   0.546 -0.2904 -0.1505 -1.0475
   59SAPC  H13C 4432   1.817   4.737   0.660 -0.6248 -0.7899  0.0295
   59SAPC   C14 4433   1.789   4.687   0.327  0.1381 -0.6457 -0.2399
   59SAPC  H14A 4434   1.734   4.618   0.264 -0.9425 -0.1847  0.1761
   59SAPC  H14B 4435   1.758   4.790   0.317  2.0007  0.1406  1.3810
   59SAPC  H14C 4436   1.893   4.689   0.300  0.6934 -3.1394  1.3038
   59SAPC   C15 4437   1.629   4.617   0.478 -0.3060 -0.1505 -0.3366
   59SAPC  H15A 4438   1.592   4.546   0.406 -1.1058 -0.1980  0.1046
   59SAPC  H15B 4439   1.607   4.587   0.580  0.3823  1.0226  0.1784
   59SAPC  H15C 4440   1.588   4.716   0.470 -1.1901 -0.5278 -0.5657
   59SAPC   C11 4441   1.847   4.392   0.409 -0.3707  0.3644 -0.5270
   59SAPC  H11A 4442   1.882   4.413   0.306 -1.9959  0.1563 -1.1440
   59SAPC  H11B 4443   1.740   4.365   0.403 -0.7854  1.9025 -0.4849
   59SAPC     P 4444   1.866   4.166   0.529 -0.1875  0.1369 -0.2156
   59SAPC   O13 4445   1.975   4.075   0.571 -0.0419  0.6879  0.6355
   59SAPC   O14 4446   1.775   4.223   0.632  0.1779 -1.0313 -0.1691
   59SAPC   O12 4447   1.933   4.288   0.469 -0.2342 -0.2218  0.2221
   59SAPC   O11 4448   1.783   4.102   0.405  0.1838  0.0243 -0.2044
   59SAPC    C1 4449   1.861   4.041   0.301 -0.1451 -0.0374 -0.2665
   59SAPC    HA 4450   1.967   4.022   0.328 -0.6395  0.1571  2.0198
   59SAPC    HB 4451   1.805   3.947   0.280  0.3901  0.1841 -3.0121
   59SAPC    C2 4452   1.868   4.127   0.173  0.3545  0.3317 -0.0735
   59SAPC    HS 4453   1.913   4.221   0.211 -1.7567  0.6318  1.8693
   59SAPC   O21 4454   1.731   4.154   0.134  0.5153 -0.3627 -0.2999
   59SAPC   C21 4455   1.716   4.277   0.102  0.1355 -0.0228 -0.4053
   59SAPC   O22 4456   1.801   4.358   0.078  0.0957  0.2426 -0.4976
   59SAPC   C22 4457   1.565   4.319   0.119  0.1170  0.0273 -0.2786
   59SAPC   H2R 4458   1.528   4.284   0.218 -0.3151 -1.2176 -0.8635
   59SAPC   H2S 4459   1.559   4.429   0.105  0.8122 -0.2654 -4.0422
   59SAPC    C3 4460   1.965   4.074   0.069  0.6806  0.2629  0.7177
   59SAPC    HX 4461   1.949   3.966   0.050 -0.2129  0.6637 -1.0198
   59SAPC    HY 4462   2.070   4.091   0.102  1.7245  1.3671 -2.7690
   59SAPC   O31 4463   1.952   4.154  -0.055 -0.1960 -0.2245  0.1412
   59SAPC   C31 4464   2.030   4.264  -0.063 -0.9694 -0.2797  0.5291
   59SAPC   O32 4465   2.124   4.294   0.007 -0.2055 -0.6675  0.3585
   59SAPC   C32 4466   1.984   4.346  -0.178 -0.0280  0.3291 -0.0826
   59SAPC   H2X 4467   1.874   4.355  -0.163  0.1541  1.9605  0.4907
   59SAPC   H2Y 4468   1.998   4.292  -0.274 -0.6900 -0.5210  0.2877
   59SAPC   C23 4469   1.473   4.261   0.005  0.2593 -0.1063 -0.0472
   59SAPC   H3R 4470   1.368   4.289   0.024  0.3756 -0.8604  1.8789
   59SAPC   H3S 4471   1.478   4.150   0.010  0.3912 -0.1520 -0.9494
   59SAPC   C24 4472   1.530   4.300  -0.134  0.0897 -0.5957 -0.4180
   59SAPC   H4R 4473   1.641   4.297  -0.145  0.0574  1.0827 -1.4526
   59SAPC   H4S 4474   1.515   4.410  -0.138  1.4782 -0.4127 -3.7834
   59SAPC   C25 4475   1.466   4.240  -0.255 -0.3592  0.1615  0.7282
   59SAPC   H5R 4476   1.357   4.221  -0.248  0.0346 -2.3098  0.9059
   59SAPC   C26 4477   1.529   4.203  -0.369 -0.3193  0.2178  0.5621
   59SAPC   H6R 4478   1.468   4.152  -0.446  0.4676 -0.9138  0.6623
   59SAPC   C27 4479   1.674   4.228  -0.415 -0.7516 -0.2600  0.3016
   59SAPC   H7R 4480   1.724   4.308  -0.357 -1.3292 -0.5345  1.1942
   59SAPC   H7S 4481   1.684   4.271  -0.517  2.7456  2.0611  1.4382
   59SAPC   C28 4482   1.767   4.110  -0.427  0.1153  0.5928  0.4221
   59SAPC   H8R 4483   1.812   4.082  -0.330 -0.6717 -0.6694  0.4470
   59SAPC   C29 4484   1.787   4.033  -0.541  0.0102 -0.6521  0.4251
   59SAPC   H9R 4485   1.847   3.941  -0.532  1.0895  0.1367  1.4084
   59SAPC  C210 4486   1.728   4.061  -0.676  0.2793 -0.3761  0.4339
   59SAPC  H10R 4487   1.785   4.147  -0.717 -1.1929  0.8303  0.7924
   59SAPC  H10S 4488   1.625   4.099  -0.660  0.4254  0.2149  0.0209
   59SAPC  C211 4489   1.736   3.942  -0.773  0.9566 -0.5320 -0.1211
   59SAPC  H11R 4490   1.725   3.844  -0.724  0.7933  0.4043  1.8182
   59SAPC  C212 4491   1.768   3.920  -0.906  0.0890  0.5330 -0.8351
   59SAPC  H12R 4492   1.787   3.818  -0.943 -0.3839  0.6528 -1.4123
   59SAPC  C213 4493   1.795   4.025  -1.010 -0.1241  0.5930  0.0127
   59SAPC  H13R 4494   1.902   4.017  -1.035  0.0999  0.4383  0.9739
   59SAPC  H13S 4495   1.785   4.126  -0.965 -1.9981 -0.2510  1.6787
   59SAPC  C214 4496   1.704   4.016  -1.129  0.0432 -0.3293 -0.3106
   59SAPC  H14R 4497   1.601   4.040  -1.099 -0.0932 -0.4614 -0.6655
   59SAPC  C215 4498   1.730   3.964  -1.248 -0.1551  0.0758 -0.1524
   59SAPC  H15R 4499   1.651   3.968  -1.325  0.3468 -0.8305 -0.7260
   59SAPC  C216 4500   1.856   3.886  -1.281  0.5871 -0.0724 -0.2739
   59SAPC  H16R 4501   1.841   3.784  -1.323 -1.5219  1.0533 -2.5066
   59SAPC  H16S 4502   1.922   3.868  -1.194  0.5930 -0.6974 -0.4016
   59SAPC  C217 4503   1.944   3.950  -1.389  0.9908  0.0347  0.2670
   59SAPC  H17R 4504   1.961   4.056  -1.360  2.0646 -0.6933  2.4980
   59SAPC  H17S 4505   1.881   3.962  -1.480  0.6326 -1.9838  0.2034
   59SAPC  C218 4506   2.067   3.869  -1.412 -0.2893 -0.0109 -0.3058
   59SAPC  H18R 4507   2.107   3.841  -1.312  1.1659  2.3373 -0.1720
   59SAPC  H18S 4508   2.144   3.939  -1.451 -0.8377  0.7392 -0.0727
   59SAPC  C219 4509   2.058   3.744  -1.500  0.8236 -0.0138  0.0877
   59SAPC  H19R 4510   2.004   3.661  -1.449  1.3079 -1.8202 -2.1569
   59SAPC  H19S 4511   2.163   3.711  -1.516  0.6984 -0.1355 -0.5151
   59SAPC  C220 4512   1.985   3.755  -1.638 -0.2869 -0.3219  0.2823
   59SAPC  H20R 4513   1.968   3.653  -1.679 -0.4761  0.4214 -1.5564
   59SAPC  H20S 4514   2.047   3.814  -1.708 -0.3868  1.7422  1.8395
   59SAPC  H20T 4515   1.881   3.794  -1.623 -0.6897 -0.5297 -1.7301
   59SAPC   C33 4516   2.046   4.487  -0.182 -0.4327 -0.6455  0.1208
   59SAPC   H3X 4517   2.153   4.481  -0.212 -0.4677  1.4901 -0.5561
   59SAPC   H3Y 4518   2.035   4.535  -0.083 -1.9565  0.0077 -0.3485
   59SAPC   C34 4519   1.980   4.575  -0.281  0.1167 -0.1005  0.3504
   59SAPC   H4X 4520   2.014   4.679  -0.265 -1.6967  0.3576  1.5071
   59SAPC   H4Y 4521   1.872   4.574  -0.255 -0.3545  1.6194 -1.3563
   59SAPC   C35 4522   2.008   4.549  -0.426  0.2484  0.6869  0.1982
   59SAPC   H5X 4523   2.053   4.448  -0.434  0.2921  0.7921 -0.9960
   59SAPC   H5Y 4524   2.088   4.621  -0.454 -0.4855  1.3696 -0.1905
   59SAPC   C36 4525   1.894   4.568  -0.521 -0.0406  0.2250 -0.1438
   59SAPC   H6X 4526   1.848   4.668  -0.506 -1.3053 -0.5260  1.2485
   59SAPC   H6Y 4527   1.818   4.491  -0.495 -0.2842  0.8951  1.2474
   59SAPC   C37 4528   1.937   4.554  -0.667 -0.0839 -0.2029 -0.3033
   59SAPC   H7X 4529   2.012   4.633  -0.689 -1.3090  0.7741 -1.1420
   59SAPC   H7Y 4530   1.841   4.571  -0.721  0.4677 -3.3331 -2.5235
   59SAPC   C38 4531   1.993   4.423  -0.709 -0.0722 -0.0223  0.2564
   59SAPC   H8X 4532   1.911   4.349  -0.704 -0.9326  0.7816 -1.2594
   59SAPC   H8Y 4533   2.072   4.385  -0.641 -0.4005 -1.0474  0.0870
   59SAPC   C39 4534   2.051   4.435  -0.854  0.1437  0.0709  0.6842
   59SAPC   H9X 4535   2.132   4.360  -0.865  0.0566 -0.1333  1.3550
   59SAPC   H9Y 4536   2.097   4.534  -0.872  0.8946 -0.8104 -3.0072
   59SAPC  C310 4537   1.942   4.408  -0.955 -0.3945 -0.1257 -0.3058
   59SAPC  H10X 4538   1.866   4.489  -0.950 -1.4502 -1.0643 -0.6985
   59SAPC  H10Y 4539   1.893   4.309  -0.943 -0.2680 -0.2121 -0.5084
   59SAPC  C311 4540   1.993   4.416  -1.095 -0.5603  0.3408  0.1784
   59SAPC  H11X 4541   2.058   4.326  -1.101 -1.2734 -0.1146 -0.9023
   59SAPC  H11Y 4542   2.060   4.502  -1.116  1.8124 -1.1999  1.0040
   59SAPC  C312 4543   1.874   4.412  -1.192 -0.1876 -0.2409 -0.1064
   59SAPC  H12X 4544   1.823   4.510  -1.189 -0.6846 -0.4547  3.9549
   59SAPC  H12Y 4545   1.799   4.334  -1.165 -1.2555  0.0891 -1.8876
   59SAPC  C313 4546   1.920   4.384  -1.331 -0.4683  0.5952 -0.3966
   59SAPC  H13X 4547   1.973   4.288  -1.342 -1.4102  0.1522 -1.2012
   59SAPC  H13Y 4548   1.994   4.456  -1.373  1.5234 -0.4827  1.0892
   59SAPC  C314 4549   1.804   4.362  -1.425 -0.0112  0.3354 -0.1946
   59SAPC  H14X 4550   1.746   4.456  -1.434  0.2272  0.6235  1.1026
   59SAPC  H14Y 4551   1.729   4.288  -1.389  0.8020 -0.7634 -0.7213
   59SAPC  C315 4552   1.848   4.312  -1.569 -0.4034 -0.1158 -0.2536
   59SAPC  H15X 4553   1.914   4.224  -1.555  0.9771  0.4266 -2.8272
   59SAPC  H15Y 4554   1.897   4.395  -1.625 -0.4700 -0.1096 -0.3021
   59SAPC  C316 4555   1.728   4.266  -1.653 -0.0237 -0.1470  0.8304
   59SAPC  H16X 4556   1.669   4.184  -1.607 -2.1435  1.9766  2.1292
   59SAPC  H16Y 4557   1.770   4.243  -1.753 -1.7120  0.8257 -0.1477
   59SAPC  C317 4558   1.623   4.378  -1.678  0.0812  0.5733 -0.0861
   59SAPC  H17X 4559   1.663   4.481  -1.668 -1.5062  1.0995  1.5686
   59SAPC  H17Y 4560   1.550   4.380  -1.594 -2.6346 -0.2633 -2.2596
   59SAPC  C318 4561   1.538   4.366  -1.803 -0.1868  0.8504  1.0611
   59SAPC  H18X 4562   1.486   4.268  -1.808  1.8535 -0.2556 -0.4757
   59SAPC  H18Y 4563   1.604   4.361  -1.892 -2.2854 -3.6871 -0.5583
   59SAPC  H18Z 4564   1.468   4.450  -1.820 -0.0772  1.2472  2.4252
   60SAPC     N 4565   0.011   6.348   0.755  0.5100 -0.6053 -0.1980
   60SAPC   C12 4566   0.049   6.461   0.649  0.2940 -0.2434  0.4670
   60SAPC  H12A 4567   0.113   6.528   0.705  0.5160  2.2367 -2.4785
   60SAPC  H12B 4568  -0.032   6.528   0.623  2.1606  1.4449 -1.5306
   60SAPC   C13 4569  -0.079   6.244   0.690 -0.2403  0.5259 -0.3632
   60SAPC  H13A 4570  -0.113   6.162   0.752  0.7813 -2.3369 -3.3319
   60SAPC  H13B 4571  -0.157   6.303   0.642  1.3327  0.3690 -3.3219
   60SAPC  H13C 4572  -0.032   6.197   0.605 -0.8876  0.9358 -0.9680
   60SAPC   C14 4573   0.130   6.287   0.809  0.3336 -0.4700  0.0651
   60SAPC  H14A 4574   0.099   6.219   0.887  0.5348  1.0516  1.5158
   60SAPC  H14B 4575   0.183   6.233   0.731  2.8239 -0.7492  1.8334
   60SAPC  H14C 4576   0.191   6.366   0.850  1.5959 -0.8572 -1.0012
   60SAPC   C15 4577  -0.069   6.416   0.867 -0.3800 -0.2474 -0.0384
   60SAPC  H15A 4578  -0.141   6.487   0.831 -2.5043 -1.4737  1.5930
   60SAPC  H15B 4579  -0.123   6.346   0.929 -1.9315  0.4395 -0.5799
   60SAPC  H15C 4580   0.002   6.475   0.924 -0.7880 -0.6531  0.9148
   60SAPC   C11 4581   0.134   6.421   0.524 -0.0421 -0.2207 -0.6970
   60SAPC  H11A 4582   0.149   6.514   0.464 -1.5437  0.6955  0.2954
   60SAPC  H11B 4583   0.074   6.340   0.477 -1.1365  0.8049 -1.1152
   60SAPC     P 4584   0.345   6.271   0.506 -0.2558  0.1178 -0.2219
   60SAPC   O13 4585   0.486   6.277   0.553  0.3510  0.2969  0.8427
   60SAPC   O14 4586   0.287   6.139   0.532  0.0021  0.0565  0.2824
   60SAPC   O12 4587   0.260   6.378   0.576 -0.3384 -0.2319  0.0915
   60SAPC   O11 4588   0.339   6.308   0.352  0.2416  0.0101 -0.0023
   60SAPC    C1 4589   0.306   6.208   0.256 -0.3007 -0.9044 -1.1499
   60SAPC    HA 4590   0.237   6.131   0.296 -0.0330  0.5061  2.3813
   60SAPC    HB 4591   0.256   6.259   0.172 -1.1705  0.8070  0.3655
   60SAPC    C2 4592   0.426   6.133   0.195 -0.8164 -0.3074 -0.4114
   60SAPC    HS 4593   0.485   6.094   0.280 -0.1594 -0.9080 -1.1286
   60SAPC   O21 4594   0.492   6.226   0.103  0.6694  0.3327 -0.5138
   60SAPC   C21 4595   0.624   6.207   0.090 -0.3565 -0.2912  0.2849
   60SAPC   O22 4596   0.682   6.119   0.147  0.5413  0.6285 -0.2235
   60SAPC   C22 4597   0.677   6.307  -0.012  0.2470  0.3001  0.5569
   60SAPC   H2R 4598   0.674   6.248  -0.106 -0.6660  0.0490  0.7296
   60SAPC   H2S 4599   0.600   6.386  -0.022  0.7246  0.8142  0.9469
   60SAPC    C3 4600   0.371   6.011   0.115  0.2204  0.9244  0.2603
   60SAPC    HX 4601   0.302   5.952   0.179 -0.4556  0.3958 -0.9093
   60SAPC    HY 4602   0.457   5.945   0.093 -0.4666 -1.3715  3.6581
   60SAPC   O31 4603   0.290   6.052   0.001  0.0379 -0.2944 -0.0520
   60SAPC   C31 4604   0.358   6.065  -0.116 -0.1844 -0.3248  0.8207
   60SAPC   O32 4605   0.481   6.054  -0.129  0.5088  0.2753  0.1747
   60SAPC   C32 4606   0.264   6.097  -0.230  0.0888 -0.0292 -0.1267
   60SAPC   H2X 4607   0.172   6.153  -0.200 -0.3366 -2.0097  2.5865
   60SAPC   H2Y 4608   0.225   6.002  -0.271 -1.6051  0.2583  0.7111
   60SAPC   C23 4609   0.811   6.360   0.028  0.2491  0.5892  0.2951
   60SAPC   H3R 4610   0.892   6.285   0.044  0.2650 -0.2575 -2.9395
   60SAPC   H3S 4611   0.793   6.403   0.129  1.7015  0.7445  0.5120
   60SAPC   C24 4612   0.879   6.459  -0.070 -0.5407  0.9776 -0.1309
   60SAPC   H4R 4613   0.921   6.382  -0.139 -1.3740  0.0847  0.3415
   60SAPC   H4S 4614   0.961   6.517  -0.023 -0.3149  0.2977  0.3280
   60SAPC   C25 4615   0.781   6.555  -0.131  0.2307 -0.3005 -0.4316
   60SAPC   H5R 4616   0.761   6.631  -0.055  1.1301 -0.2341 -0.2537
   60SAPC   C26 4617   0.729   6.572  -0.257 -0.1436  0.6723 -0.6370
   60SAPC   H6R 4618   0.670   6.664  -0.270 -1.4684 -0.1396 -0.4632
   60SAPC   C27 4619   0.754   6.472  -0.368  0.0042 -0.9445  0.1767
   60SAPC   H7R 4620   0.672   6.493  -0.440 -0.8114 -0.9974  1.0682
   60SAPC   H7S 4621   0.730   6.368  -0.337 -1.3040 -0.1345  2.0766
   60SAPC   C28 4622   0.887   6.491  -0.436 -0.2399  0.5242 -0.3138
   60SAPC   H8R 4623   0.970   6.465  -0.370 -0.2554 -1.5109 -1.0291
   60SAPC   C29 4624   0.914   6.545  -0.559 -0.3128  0.3628  0.4916
   60SAPC   H9R 4625   1.021   6.539  -0.586  0.4277 -1.7132  3.4050
   60SAPC  C210 4626   0.813   6.587  -0.667  0.0273 -0.3069  0.0791
   60SAPC  H10R 4627   0.859   6.661  -0.735 -2.3929 -0.7503 -2.2056
   60SAPC  H10S 4628   0.729   6.649  -0.627 -0.9190 -0.1958 -1.9661
   60SAPC  C211 4629   0.756   6.476  -0.755 -0.0374  0.2608 -0.7304
   60SAPC  H11R 4630   0.743   6.379  -0.705 -0.9680  0.1698 -1.1230
   60SAPC  C212 4631   0.730   6.476  -0.885 -0.2724 -0.2250  0.0515
   60SAPC  H12R 4632   0.702   6.382  -0.934 -0.7300  0.6694 -1.4755
   60SAPC  C213 4633   0.761   6.582  -0.982  0.0673 -0.1359 -0.4615
   60SAPC  H13R 4634   0.724   6.680  -0.945  2.9429  0.3795  1.3573
   60SAPC  H13S 4635   0.702   6.560  -1.073  2.6489 -1.1728 -1.9664
   60SAPC  C214 4636   0.902   6.604  -1.025  0.2925  0.0198  0.7244
   60SAPC  H14R 4637   0.954   6.673  -0.956 -0.7833 -0.7427  2.3578
   60SAPC  C215 4638   0.962   6.546  -1.131 -0.5398 -0.3125 -0.0883
   60SAPC  H15R 4639   1.066   6.576  -1.150  0.3281 -3.0149 -0.1311
   60SAPC  C216 4640   0.890   6.458  -1.237 -0.3468  0.2336  0.0574
   60SAPC  H16R 4641   0.801   6.506  -1.283 -0.3196 -0.3967 -0.6770
   60SAPC  H16S 4642   0.855   6.369  -1.181 -1.4361  0.7536  0.2281
   60SAPC  C217 4643   0.970   6.412  -1.362  0.2287  0.1229  0.9112
   60SAPC  H17R 4644   0.908   6.348  -1.428  0.4378  2.2784 -1.5502
   60SAPC  H17S 4645   1.062   6.354  -1.339 -0.8971 -2.0664  0.2315
   60SAPC  C218 4646   0.993   6.536  -1.447 -0.1836 -0.7287  0.3302
   60SAPC  H18R 4647   1.057   6.614  -1.401 -2.5235  1.1550  0.6171
   60SAPC  H18S 4648   0.900   6.594  -1.468  1.6702  1.0764 -4.5036
   60SAPC  C219 4649   1.052   6.497  -1.583  0.0597 -0.1561  0.0380
   60SAPC  H19R 4650   1.065   6.586  -1.648 -1.8849 -1.4680 -2.3073
   60SAPC  H19S 4651   0.979   6.432  -1.636  0.0362  0.3642 -0.5682
   60SAPC  C220 4652   1.189   6.433  -1.579  0.6121 -0.0473 -0.0249
   60SAPC  H20R 4653   1.260   6.502  -1.631 -0.2811  1.3727  0.5788
   60SAPC  H20S 4654   1.199   6.337  -1.634  0.0376  0.1580 -0.5027
   60SAPC  H20T 4655   1.228   6.420  -1.476 -0.3958  0.1858  0.3934
   60SAPC   C33 4656   0.355   6.172  -0.332  0.0442  1.2826 -0.4465
   60SAPC   H3X 4657   0.441   6.107  -0.361  0.1929  0.7986  0.9848
   60SAPC   H3Y 4658   0.407   6.258  -0.285  2.2880  0.1116 -0.6585
   60SAPC   C34 4659   0.275   6.220  -0.450  0.0464 -0.4582  0.4805
   60SAPC   H4X 4660   0.343   6.296  -0.493 -0.0185 -1.2439 -1.1067
   60SAPC   H4Y 4661   0.189   6.278  -0.411  0.1705 -0.5434  0.8846
   60SAPC   C35 4662   0.237   6.118  -0.549  0.8755  0.4435 -0.0846
   60SAPC   H5X 4663   0.131   6.125  -0.581  0.9503 -0.9292 -0.6850
   60SAPC   H5Y 4664   0.251   6.024  -0.491 -0.1468  0.0352 -0.4847
   60SAPC   C36 4665   0.330   6.119  -0.664  0.2133  0.7285  0.4286
   60SAPC   H6X 4666   0.437   6.102  -0.639  0.1895 -0.3503 -0.1641
   60SAPC   H6Y 4667   0.334   6.221  -0.708  0.9847  0.8084  0.6670
   60SAPC   C37 4668   0.289   6.026  -0.787  0.2831  0.2153 -0.0453
   60SAPC   H7X 4669   0.179   6.040  -0.797  0.1760  0.5115  1.3984
   60SAPC   H7Y 4670   0.313   5.919  -0.766  1.6590  0.7678  1.4171
   60SAPC   C38 4671   0.353   6.075  -0.921  0.3860  0.2262  0.3557
   60SAPC   H8X 4672   0.328   6.183  -0.920  1.6650  0.6072 -2.1233
   60SAPC   H8Y 4673   0.297   6.034  -1.008 -0.2468 -0.6155  1.1336
   60SAPC   C39 4674   0.504   6.069  -0.932  0.3892  0.1171 -0.2561
   60SAPC   H9X 4675   0.549   5.984  -0.875  0.8597 -0.0725 -0.9041
   60SAPC   H9Y 4676   0.550   6.161  -0.892  1.9340 -0.4425 -0.6894
   60SAPC  C310 4677   0.552   6.049  -1.075 -0.2307 -0.5345  0.0257
   60SAPC  H10X 4678   0.507   5.960  -1.125  0.7278  0.1232 -2.1341
   60SAPC  H10Y 4679   0.661   6.026  -1.072  0.3352  1.6019 -1.7884
   60SAPC  C311 4680   0.523   6.174  -1.156 -0.4009  0.8040 -0.9605
   60SAPC  H11X 4681   0.539   6.271  -1.104 -0.5793 -0.0627  0.7552
   60SAPC  H11Y 4682   0.415   6.174  -1.183  0.3358  1.6753 -4.3474
   60SAPC  C312 4683   0.593   6.168  -1.297 -0.6767 -0.0109 -0.4649
   60SAPC  H12X 4684   0.589   6.064  -1.336  1.2273 -1.1425  2.0816
   60SAPC  H12Y 4685   0.702   6.185  -1.283 -0.5098 -1.6855  0.4864
   60SAPC  C313 4686   0.524   6.274  -1.388  0.0656  0.0026  0.5555
   60SAPC  H13X 4687   0.567   6.374  -1.362  2.2010 -1.0896  1.4345
   60SAPC  H13Y 4688   0.415   6.275  -1.367 -0.1919 -0.8730 -0.6599
   60SAPC  C314 4689   0.522   6.244  -1.540 -0.6709  0.6231  0.7354
   60SAPC  H14X 4690   0.460   6.314  -1.600 -0.2491  0.0261 -0.4188
   60SAPC  H14Y 4691   0.483   6.141  -1.556  2.6602 -0.8857  1.3737
   60SAPC  C315 4692   0.671   6.253  -1.589  0.2177  0.2624 -0.2812
   60SAPC  H15X 4693   0.715   6.156  -1.556 -0.9904  0.5935  2.5670
   60SAPC  H15Y 4694   0.723   6.340  -1.545  1.9467 -1.1417  0.5474
   60SAPC  C316 4695   0.684   6.259  -1.746 -0.4305  0.1151 -0.1207
   60SAPC  H16X 4696   0.660   6.366  -1.764 -0.0237  0.6724  2.2972
   60SAPC  H16Y 4697   0.607   6.191  -1.789  0.7825 -0.5691 -1.2934
   60SAPC  C317 4698   0.827   6.217  -1.793  0.5230 -0.0712  0.1814
   60SAPC  H17X 4699   0.862   6.136  -1.724  0.6829  0.9096  1.2874
   60SAPC  H17Y 4700   0.901   6.299  -1.787  0.8202 -0.2435 -0.9792
   60SAPC  C318 4701   0.822   6.174  -1.938  0.4396  0.1610  0.4756
   60SAPC  H18X 4702   0.741   6.102  -1.959  0.2103  0.3764  0.6107
   60SAPC  H18Y 4703   0.913   6.120  -1.972  0.8669  2.7365 -2.9119
   60SAPC  H18Z 4704   0.805   6.260  -2.006 -0.7734  0.7350  1.4683
   61SAPC     N 4705   5.523   0.837   0.981  0.5093  0.3091 -0.1423
   61SAPC   C12 4706   5.386   0.890   0.994  0.9185 -0.3397  1.0000
   61SAPC  H12A 4707   5.376   0.951   0.904  0.7363 -0.4984  0.9114
   61SAPC  H12B 4708   5.379   0.962   1.074  1.6048 -0.1572  0.9008
   61SAPC   C13 4709   5.556   0.780   0.845  0.5535  0.7937 -0.3318
   61SAPC  H13A 4710   5.546   0.853   0.766 -0.2293 -0.8273 -1.7925
   61SAPC  H13B 4711   5.654   0.736   0.846  1.0998  1.8947  1.5914
   61SAPC  H13C 4712   5.486   0.703   0.816  0.1755  1.3269 -0.8791
   61SAPC   C14 4713   5.622   0.939   1.005 -0.2737 -0.8244 -0.4135
   61SAPC  H14A 4714   5.607   1.016   0.930  1.2912  1.4847  1.5129
   61SAPC  H14B 4715   5.612   0.973   1.107 -0.3492  0.7624 -0.9201
   61SAPC  H14C 4716   5.723   0.903   0.995 -0.1035 -0.6802  0.7225
   61SAPC   C15 4717   5.554   0.727   1.080  0.2267 -0.0936  0.1874
   61SAPC  H15A 4718   5.475   0.654   1.084 -3.1107  3.1368 -0.6944
   61SAPC  H15B 4719   5.645   0.679   1.049  1.6913  0.9041  2.5931
   61SAPC  H15C 4720   5.560   0.765   1.181 -1.9601  0.7860  0.0621
   61SAPC   C11 4721   5.275   0.789   0.996  0.4035 -0.1688 -0.0804
   61SAPC  H11A 4722   5.175   0.834   1.007  0.1408 -0.6808 -0.3396
   61SAPC  H11B 4723   5.299   0.730   1.088  1.0810  1.8784  1.1383
   61SAPC     P 4724   5.166   0.581   0.887  0.0043  0.3113 -0.1893
   61SAPC   O13 4725   5.208   0.470   0.984  0.0450  0.7217  0.0536
   61SAPC   O14 4726   5.034   0.635   0.915  0.0943 -0.4784  0.6335
   61SAPC   O12 4727   5.275   0.696   0.886  0.0418 -0.2997  0.5419
   61SAPC   O11 4728   5.175   0.531   0.745  0.4452 -0.4289 -0.0670
   61SAPC    C1 4729   5.297   0.522   0.668 -0.0209  0.9679  0.3360
   61SAPC    HA 4730   5.377   0.484   0.735  0.5837  1.2658 -0.2045
   61SAPC    HB 4731   5.278   0.455   0.581 -0.7069 -1.0814  1.9818
   61SAPC    C2 4732   5.338   0.658   0.599  0.2498  0.4507 -0.1585
   61SAPC    HS 4733   5.354   0.729   0.682 -0.6074 -0.6969  1.0379
   61SAPC   O21 4734   5.229   0.701   0.510 -0.2030  0.4134  1.0110
   61SAPC   C21 4735   5.216   0.828   0.480  0.0346 -0.1652 -0.2326
   61SAPC   O22 4736   5.292   0.913   0.524  0.2005 -0.3642  0.9835
   61SAPC   C22 4737   5.112   0.843   0.364 -0.1831 -0.1662  0.2640
   61SAPC   H2R 4738   5.064   0.746   0.338 -0.7776  0.3713 -0.6862
   61SAPC   H2S 4739   5.032   0.913   0.394  0.0758 -0.0975  0.8029
   61SAPC    C3 4740   5.471   0.639   0.516  0.5896  0.1119 -0.4716
   61SAPC    HX 4741   5.540   0.589   0.587 -0.8947 -0.6590  0.4663
   61SAPC    HY 4742   5.514   0.736   0.482 -1.0951  1.4985  1.1661
   61SAPC   O31 4743   5.452   0.538   0.412  0.0566  0.2153 -0.2080
   61SAPC   C31 4744   5.446   0.574   0.286  1.3013  0.4576  0.1520
   61SAPC   O32 4745   5.464   0.687   0.246  1.3696 -0.2768 -0.9666
   61SAPC   C32 4746   5.422   0.451   0.196 -0.2203 -0.3677 -0.9211
   61SAPC   H2X 4747   5.342   0.385   0.238  0.3141 -1.8731 -2.1672
   61SAPC   H2Y 4748   5.509   0.383   0.209 -0.1125  0.2243  2.4213
   61SAPC   C23 4749   5.179   0.902   0.236  0.3112  0.2951  0.3346
   61SAPC   H3R 4750   5.255   0.828   0.202  0.4788  0.7538 -0.3094
   61SAPC   H3S 4751   5.234   0.997   0.250 -1.7992  1.6534 -0.0633
   61SAPC   C24 4752   5.074   0.917   0.130  0.6414  0.4016  0.1018
   61SAPC   H4R 4753   4.984   0.965   0.172  0.9770  0.3499  0.8965
   61SAPC   H4S 4754   5.046   0.815   0.097  0.6068  0.0791  1.0917
   61SAPC   C25 4755   5.110   1.005   0.016 -0.7974  0.6958 -0.5629
   61SAPC   H5R 4756   5.097   1.112   0.039  0.9900  0.9698 -0.6895
   61SAPC   C26 4757   5.144   0.951  -0.104  0.4366 -0.4646  0.3683
   61SAPC   H6R 4758   5.166   1.019  -0.188  0.6834  1.0777  1.6352
   61SAPC   C27 4759   5.153   0.803  -0.142  0.4316 -0.0927 -0.0909
   61SAPC   H7R 4760   5.065   0.779  -0.205 -0.4885  1.1160  0.6814
   61SAPC   H7S 4761   5.150   0.731  -0.058 -1.0127  0.8898  0.7399
   61SAPC   C28 4762   5.281   0.786  -0.219 -0.7260 -0.6263  0.4962
   61SAPC   H8R 4763   5.357   0.792  -0.140 -1.1276  0.6059  0.8097
   61SAPC   C29 4764   5.303   0.781  -0.356 -0.1220  0.1206  0.1554
   61SAPC   H9R 4765   5.404   0.772  -0.400 -1.1644 -1.4699 -2.1385
   61SAPC  C210 4766   5.192   0.772  -0.459 -1.1149 -0.0086  0.4995
   61SAPC  H10R 4767   5.214   0.840  -0.544 -1.8374  0.9885  1.0876
   61SAPC  H10S 4768   5.093   0.799  -0.419 -1.3198 -2.9824  2.3068
   61SAPC  C211 4769   5.190   0.632  -0.517  0.7977 -0.6188  0.0862
   61SAPC  H11R 4770   5.116   0.569  -0.467  0.8047  0.5011  1.5831
   61SAPC  C212 4771   5.241   0.592  -0.634  0.0383  0.0240 -0.3062
   61SAPC  H12R 4772   5.240   0.484  -0.655  3.4650  0.0555 -1.2107
   61SAPC  C213 4773   5.339   0.676  -0.709 -0.6395  0.2831  0.2432
   61SAPC  H13R 4774   5.403   0.742  -0.646 -1.0299  1.3948 -0.4853
   61SAPC  H13S 4775   5.280   0.734  -0.784  0.0397  0.8166  0.1086
   61SAPC  C214 4776   5.438   0.589  -0.790  0.9897  0.3208 -0.3246
   61SAPC  H14R 4777   5.520   0.551  -0.728 -0.9619 -0.3251  2.0507
   61SAPC  C215 4778   5.427   0.527  -0.911  0.9559  0.0210  0.3854
   61SAPC  H15R 4779   5.502   0.450  -0.933  0.5492 -0.7939  1.7224
   61SAPC  C216 4780   5.311   0.537  -1.009  0.0613 -0.0924 -0.4077
   61SAPC  H16R 4781   5.350   0.606  -1.087  1.1876 -0.1019  0.1122
   61SAPC  H16S 4782   5.230   0.596  -0.962  0.5179 -0.1189  0.4376
   61SAPC  C217 4783   5.235   0.412  -1.064 -0.4011  1.0935  0.1517
   61SAPC  H17R 4784   5.142   0.453  -1.108  0.5660  2.0251 -1.0899
   61SAPC  H17S 4785   5.211   0.342  -0.980 -1.6029 -0.2358 -1.2489
   61SAPC  C218 4786   5.320   0.337  -1.168 -0.2845  0.6399 -0.4085
   61SAPC  H18R 4787   5.425   0.322  -1.133  0.4671 -1.2400 -3.1729
   61SAPC  H18S 4788   5.338   0.395  -1.261 -0.2058  0.3812 -0.5542
   61SAPC  C219 4789   5.270   0.198  -1.204 -0.1198  0.2719  0.4872
   61SAPC  H19R 4790   5.165   0.202  -1.241  0.4420 -1.2561 -1.4404
   61SAPC  H19S 4791   5.269   0.135  -1.113 -1.5818 -0.8881 -0.2830
   61SAPC  C220 4792   5.347   0.133  -1.324  0.3945 -1.0148 -0.8454
   61SAPC  H20R 4793   5.452   0.120  -1.289  0.0377  0.9226  1.1776
   61SAPC  H20S 4794   5.343   0.201  -1.411  0.9667  1.0142  0.6341
   61SAPC  H20T 4795   5.304   0.030  -1.328 -2.7164  0.1152  0.5070
   61SAPC   C33 4796   5.375   0.483   0.054  0.1100 -0.1092  0.0777
   61SAPC   H3X 4797   5.440   0.566   0.020 -0.4423  0.1023 -0.4893
   61SAPC   H3Y 4798   5.274   0.529   0.061  0.5247  1.0744 -1.2239
   61SAPC   C34 4799   5.384   0.363  -0.036 -0.1117  0.7254 -0.6500
   61SAPC   H4X 4800   5.324   0.277  -0.002  1.4883 -0.4668 -0.7364
   61SAPC   H4Y 4801   5.491   0.335  -0.037  0.2311  1.8865  0.3612
   61SAPC   C35 4802   5.354   0.396  -0.183 -0.2015 -0.2256  0.3309
   61SAPC   H5X 4803   5.409   0.481  -0.228 -4.2751  0.6003 -3.9705
   61SAPC   H5Y 4804   5.253   0.442  -0.192 -0.2793 -0.6234 -1.1082
   61SAPC   C36 4805   5.351   0.267  -0.268  0.1634 -1.6992 -0.6099
   61SAPC   H6X 4806   5.261   0.217  -0.229 -0.1233 -0.1811  0.8013
   61SAPC   H6Y 4807   5.439   0.203  -0.246 -1.3476 -4.1476 -1.3439
   61SAPC   C37 4808   5.342   0.289  -0.417  0.0321 -0.4288  0.4300
   61SAPC   H7X 4809   5.434   0.340  -0.454 -0.6530  1.1232  0.8219
   61SAPC   H7Y 4810   5.251   0.346  -0.446  0.3578  0.9030  1.9003
   61SAPC   C38 4811   5.351   0.144  -0.480  0.0169  0.2029  0.4863
   61SAPC   H8X 4812   5.280   0.072  -0.434 -0.0107 -0.8978 -1.1655
   61SAPC   H8Y 4813   5.451   0.105  -0.451  0.5628  0.9221 -0.3594
   61SAPC   C39 4814   5.355   0.134  -0.634 -0.0012 -0.2275 -0.2882
   61SAPC   H9X 4815   5.434   0.186  -0.692 -0.7807  0.8542 -0.4169
   61SAPC   H9Y 4816   5.265   0.177  -0.684  0.8356  0.1176 -1.5575
   61SAPC  C310 4817   5.359  -0.009  -0.695 -0.8661 -0.3655 -0.2029
   61SAPC  H10X 4818   5.269  -0.070  -0.671  0.4766 -2.7915 -1.0532
   61SAPC  H10Y 4819   5.444  -0.066  -0.653  0.7017  1.4315 -0.7957
   61SAPC  C311 4820   5.373  -0.000  -0.847  0.0063 -0.1902  0.5518
   61SAPC  H11X 4821   5.467   0.054  -0.868 -0.0452  0.3198  1.6048
   61SAPC  H11Y 4822   5.294   0.064  -0.892 -1.0562 -1.3671  0.6730
   61SAPC  C312 4823   5.378  -0.136  -0.917  0.0048  0.2438  0.4233
   61SAPC  H12X 4824   5.307  -0.212  -0.878 -1.0999  0.6341 -0.7625
   61SAPC  H12Y 4825   5.482  -0.172  -0.900 -0.0140  0.1772  0.4000
   61SAPC  C313 4826   5.352  -0.127  -1.066  0.0584 -0.2700  0.4331
   61SAPC  H13X 4827   5.418  -0.052  -1.113  1.3903 -0.9493  1.1277
   61SAPC  H13Y 4828   5.245  -0.099  -1.075 -0.1782 -0.8599  1.2308
   61SAPC  C314 4829   5.380  -0.257  -1.146  0.0462 -0.4793  0.9332
   61SAPC  H14X 4830   5.293  -0.326  -1.138  0.9686 -1.7352  0.4372
   61SAPC  H14Y 4831   5.466  -0.307  -1.096  0.5492 -0.3866  0.1743
   61SAPC  C315 4832   5.398  -0.243  -1.295  0.2535 -0.2760  0.1735
   61SAPC  H15X 4833   5.340  -0.155  -1.330  3.5026  1.3876 -1.5245
   61SAPC  H15Y 4834   5.375  -0.339  -1.345 -0.3479  0.6694 -1.4167
   61SAPC  C316 4835   5.544  -0.213  -1.340  0.7461 -0.0829  0.0061
   61SAPC  H16X 4836   5.628  -0.250  -1.277  0.1971 -1.3221  0.0567
   61SAPC  H16Y 4837   5.571  -0.107  -1.357  0.7076  0.1894  1.4638
   61SAPC  C317 4838   5.569  -0.283  -1.480 -0.2593  0.1177 -0.0721
   61SAPC  H17X 4839   5.481  -0.256  -1.542 -1.6385 -1.9864  0.8423
   61SAPC  H17Y 4840   5.572  -0.392  -1.464  0.7141  0.0798 -0.4651
   61SAPC  C318 4841   5.702  -0.246  -1.542  0.2635 -0.4437  1.0950
   61SAPC  H18X 4842   5.781  -0.324  -1.546 -0.1877 -0.8527 -0.5314
   61SAPC  H18Y 4843   5.743  -0.151  -1.502  0.6262  0.1200 -0.5301
   61SAPC  H18Z 4844   5.675  -0.227  -1.648 -0.7303 -0.6911  1.2954
   62SAPC     N 4845   4.620   4.493   0.917  0.6301  0.0292 -0.0192
   62SAPC   C12 4846   4.711   4.377   0.965 -0.4041  0.5096 -0.7132
   62SAPC  H12A 4847   4.669   4.333   1.054  1.7268 -0.2677 -0.0351
   62SAPC  H12B 4848   4.802   4.422   1.001  0.1918  0.0255 -1.5788
   62SAPC   C13 4849   4.629   4.604   1.017  0.0131 -0.0824  0.4647
   62SAPC  H13A 4850   4.734   4.627   1.018 -0.0624  0.2792  0.1561
   62SAPC  H13B 4851   4.575   4.691   0.983  0.2652  0.0052  0.2858
   62SAPC  H13C 4852   4.595   4.577   1.116 -1.6920  1.8407  0.4670
   62SAPC   C14 4853   4.668   4.542   0.785 -0.1481  0.4291  0.1392
   62SAPC  H14A 4854   4.610   4.625   0.750 -0.8218 -0.9667 -2.2223
   62SAPC  H14B 4855   4.769   4.579   0.798  0.5198 -1.0003 -0.8068
   62SAPC  H14C 4856   4.656   4.473   0.704  1.4532  0.3158 -0.0479
   62SAPC   C15 4857   4.475   4.458   0.904  0.5564  0.5237 -0.3790
   62SAPC  H15A 4858   4.438   4.429   1.001  1.3266  1.2554  0.1479
   62SAPC  H15B 4859   4.420   4.536   0.852  0.2025 -0.1926 -1.1060
   62SAPC  H15C 4860   4.468   4.371   0.841 -0.9766  1.0530 -0.9956
   62SAPC   C11 4861   4.747   4.264   0.860  0.4322  0.1496  0.0346
   62SAPC  H11A 4862   4.807   4.188   0.914 -1.3177  0.3017  2.3392
   62SAPC  H11B 4863   4.802   4.317   0.780 -1.2211  0.9770 -0.5973
   62SAPC     P 4864   4.556   4.094   0.866 -0.4136  0.0040 -0.4581
   62SAPC   O13 4865   4.645   3.978   0.858 -0.5444  0.5419  0.0140
   62SAPC   O14 4866   4.519   4.124   1.003 -0.4508 -0.6390 -0.8425
   62SAPC   O12 4867   4.632   4.214   0.791  0.0472  0.1030  0.1155
   62SAPC   O11 4868   4.429   4.066   0.776 -0.3223  0.4248 -0.0302
   62SAPC    C1 4869   4.419   4.116   0.646  0.1587  0.4981  0.0389
   62SAPC    HA 4870   4.311   4.101   0.622  0.1262  0.2309  0.3492
   62SAPC    HB 4871   4.455   4.221   0.637  1.8586 -0.1333 -0.8664
   62SAPC    C2 4872   4.507   4.045   0.539  0.0883 -0.0114 -0.1487
   62SAPC    HS 4873   4.615   4.066   0.554 -0.4479  2.4541  0.7182
   62SAPC   O21 4874   4.449   4.085   0.411 -0.2067 -0.2826  0.5847
   62SAPC   C21 4875   4.505   4.185   0.360 -0.5371  0.6389 -0.2724
   62SAPC   O22 4876   4.615   4.238   0.391  0.0757 -0.0872  0.1611
   62SAPC   C22 4877   4.429   4.230   0.240 -0.4620 -0.2193  0.2700
   62SAPC   H2R 4878   4.386   4.141   0.190  2.3344 -0.7531 -1.3637
   62SAPC   H2S 4879   4.340   4.289   0.272  0.1693  0.4708  0.7949
   62SAPC    C3 4880   4.509   3.891   0.552  0.2133 -0.0825  0.4455
   62SAPC    HX 4881   4.406   3.853   0.567 -0.1439  1.1758  1.3433
   62SAPC    HY 4882   4.556   3.865   0.649 -0.8769 -0.4631  0.8891
   62SAPC   O31 4883   4.563   3.834   0.428 -0.0187  0.1272 -0.2211
   62SAPC   C31 4884   4.553   3.701   0.420  0.2933 -0.3925  0.3897
   62SAPC   O32 4885   4.494   3.626   0.496 -0.2696  0.1965  0.5926
   62SAPC   C32 4886   4.634   3.653   0.299 -0.4030 -0.2023 -0.6402
   62SAPC   H2X 4887   4.608   3.547   0.280  1.0307 -0.8321  0.6036
   62SAPC   H2Y 4888   4.742   3.665   0.326 -0.5244 -0.6149  0.0520
   62SAPC   C23 4889   4.529   4.307   0.150 -0.3606 -0.5761 -0.5597
   62SAPC   H3R 4890   4.616   4.240   0.134 -0.2096 -0.0869 -2.0084
   62SAPC   H3S 4891   4.553   4.410   0.186 -1.3174 -0.1337 -1.1267
   62SAPC   C24 4892   4.461   4.323   0.010 -0.3772 -0.0600 -0.1960
   62SAPC   H4R 4893   4.412   4.227  -0.017 -0.8707 -0.1798  1.0669
   62SAPC   H4S 4894   4.539   4.365  -0.058 -1.9158 -0.1133 -2.0628
   62SAPC   C25 4895   4.364   4.439   0.012 -0.1729  0.0854 -0.2310
   62SAPC   H5R 4896   4.381   4.530   0.073 -2.3719  1.3358 -1.3471
   62SAPC   C26 4897   4.249   4.447  -0.053  0.1145 -1.0261  1.1086
   62SAPC   H6R 4898   4.187   4.537  -0.047  0.8300 -0.2736 -1.5654
   62SAPC   C27 4899   4.188   4.337  -0.131 -0.0614  0.1521 -0.1475
   62SAPC   H7R 4900   4.096   4.309  -0.075 -0.8181  1.7499 -0.5297
   62SAPC   H7S 4901   4.252   4.247  -0.130  0.4320  0.5055  1.0485
   62SAPC   C28 4902   4.147   4.387  -0.265 -0.2421  0.6875 -0.0616
   62SAPC   H8R 4903   4.039   4.409  -0.272 -0.2990 -0.1631 -4.3662
   62SAPC   C29 4904   4.219   4.407  -0.378  0.0031  0.4451 -0.0857
   62SAPC   H9R 4905   4.163   4.434  -0.469 -0.6932 -1.0469 -0.1397
   62SAPC  C210 4906   4.371   4.378  -0.382  0.2576  0.1442 -0.2415
   62SAPC  H10R 4907   4.377   4.281  -0.437 -0.9537 -1.0207  1.5720
   62SAPC  H10S 4908   4.410   4.347  -0.283  1.0095  1.8797  0.0431
   62SAPC  C211 4909   4.466   4.480  -0.435 -0.3144  0.1579  0.8585
   62SAPC  H11R 4910   4.489   4.554  -0.357  0.1246  0.5201  0.3850
   62SAPC  C212 4911   4.527   4.481  -0.558  0.1195 -0.4407  0.1020
   62SAPC  H12R 4912   4.588   4.569  -0.583 -0.5045 -0.4829 -1.7243
   62SAPC  C213 4913   4.494   4.385  -0.666  0.5201  0.3652  0.0463
   62SAPC  H13R 4914   4.385   4.391  -0.686 -0.3000 -0.8277  3.5004
   62SAPC  H13S 4915   4.501   4.278  -0.638 -1.0286  0.6484  1.6978
   62SAPC  C214 4916   4.577   4.410  -0.789 -0.0307 -0.1699  0.1610
   62SAPC  H14R 4917   4.674   4.455  -0.767  0.8190 -1.9256  0.2258
   62SAPC  C215 4918   4.547   4.393  -0.920  0.5111  0.0694 -0.1996
   62SAPC  H15R 4919   4.613   4.423  -1.003  2.1876 -2.1068  0.2388
   62SAPC  C216 4920   4.422   4.328  -0.968  0.4082  0.3614 -0.7396
   62SAPC  H16R 4921   4.366   4.405  -1.025 -1.8362 -1.3662 -0.9995
   62SAPC  H16S 4922   4.362   4.295  -0.881  0.8914 -0.5640 -0.7492
   62SAPC  C217 4923   4.467   4.213  -1.057  0.4599  0.2559  0.1959
   62SAPC  H17R 4924   4.529   4.138  -1.003  0.0334 -1.2035 -1.2752
   62SAPC  H17S 4925   4.531   4.257  -1.136  1.4388  0.2874  0.9783
   62SAPC  C218 4926   4.338   4.151  -1.115 -0.1635  0.4798 -0.0216
   62SAPC  H18R 4927   4.278   4.237  -1.152 -0.7341  0.4426  0.7931
   62SAPC  H18S 4928   4.284   4.104  -1.031 -2.5877  1.0080 -1.2092
   62SAPC  C219 4929   4.375   4.062  -1.233 -0.0330 -0.0419 -0.2292
   62SAPC  H19R 4930   4.445   3.981  -1.203  0.3185  0.2880 -0.1561
   62SAPC  H19S 4931   4.444   4.114  -1.303  2.4106 -0.7657  1.4921
   62SAPC  C220 4932   4.248   3.997  -1.298  0.4219 -0.3637  0.3174
   62SAPC  H20R 4933   4.214   3.899  -1.260  0.5588 -1.9903 -3.3338
   62SAPC  H20S 4934   4.267   3.962  -1.401  1.3201  1.3309 -0.1276
   62SAPC  H20T 4935   4.168   4.071  -1.280  1.6234  0.8478  0.9186
   62SAPC   C33 4936   4.619   3.735   0.171  0.8131 -0.2082  0.4484
   62SAPC   H3X 4937   4.666   3.836   0.177  2.3434 -0.6934 -1.8013
   62SAPC   H3Y 4938   4.511   3.757   0.157  0.9940 -0.3709 -1.4716
   62SAPC   C34 4939   4.679   3.663   0.052 -0.1739 -0.3153  0.5076
   62SAPC   H4X 4940   4.630   3.565   0.031  0.4701 -0.2829 -1.3354
   62SAPC   H4Y 4941   4.786   3.645   0.075  0.4356  3.2772  1.1068
   62SAPC   C35 4942   4.676   3.749  -0.075  0.1868  0.6764 -0.3514
   62SAPC   H5X 4943   4.572   3.783  -0.095  0.0364  0.0078 -0.7497
   62SAPC   H5Y 4944   4.702   3.679  -0.158 -0.0335  1.0275 -0.7173
   62SAPC   C36 4945   4.786   3.862  -0.076  0.2373 -0.2074 -0.1340
   62SAPC   H6X 4946   4.889   3.829  -0.053  1.5303  4.1437  1.2468
   62SAPC   H6Y 4947   4.753   3.948  -0.014  1.4149 -0.8760  1.5027
   62SAPC   C37 4948   4.803   3.930  -0.213 -0.7106  0.6037  0.0367
   62SAPC   H7X 4949   4.837   3.854  -0.286  1.7324  0.2570  1.4401
   62SAPC   H7Y 4950   4.874   4.015  -0.206  1.1064 -0.8694  0.4591
   62SAPC   C38 4951   4.670   4.001  -0.263 -0.1355  0.2494  0.6020
   62SAPC   H8X 4952   4.626   4.050  -0.174 -4.7013 -1.9412 -0.1590
   62SAPC   H8Y 4953   4.593   3.927  -0.295  1.5480  0.1987 -4.1227
   62SAPC   C39 4954   4.692   4.101  -0.380 -1.1459 -0.2724 -0.0712
   62SAPC   H9X 4955   4.745   4.193  -0.345 -0.2928 -0.5106 -0.6920
   62SAPC   H9Y 4956   4.593   4.133  -0.418 -1.2798 -1.5754 -0.8944
   62SAPC  C310 4957   4.785   4.046  -0.490 -0.1936  0.2847  0.3594
   62SAPC  H10X 4958   4.756   3.946  -0.527 -2.0834  1.5605 -1.8585
   62SAPC  H10Y 4959   4.892   4.041  -0.459 -0.3302  1.7284  1.1613
   62SAPC  C311 4960   4.777   4.119  -0.624  0.0664 -0.1233  0.7268
   62SAPC  H11X 4961   4.799   4.227  -0.617 -0.8803  0.4356 -2.9538
   62SAPC  H11Y 4962   4.669   4.129  -0.649  0.0573 -0.4287  0.6383
   62SAPC  C312 4963   4.850   4.047  -0.745 -0.7100 -0.4173  0.2275
   62SAPC  H12X 4964   4.814   3.942  -0.746  0.4951 -0.8619 -1.8203
   62SAPC  H12Y 4965   4.960   4.047  -0.730 -0.8980  1.9353  2.3686
   62SAPC  C313 4966   4.808   4.112  -0.881  0.0629 -0.5652  0.1958
   62SAPC  H13X 4967   4.854   4.212  -0.895 -0.2946 -0.8655 -5.2879
   62SAPC  H13Y 4968   4.698   4.127  -0.876  0.1644  0.7244 -0.6744
   62SAPC  C314 4969   4.845   4.037  -1.012  0.0349  0.0511  0.3752
   62SAPC  H14X 4970   4.796   3.937  -1.010 -0.6075  0.3384 -0.6514
   62SAPC  H14Y 4971   4.954   4.015  -1.008  0.0709  0.2497  0.5048
   62SAPC  C315 4972   4.822   4.120  -1.141  0.0080  0.4565  0.2183
   62SAPC  H15X 4973   4.726   4.176  -1.135 -1.3623 -1.9395  2.1951
   62SAPC  H15Y 4974   4.819   4.050  -1.227 -0.3810  0.3230  0.3379
   62SAPC  C316 4975   4.929   4.231  -1.154  0.1012 -1.0395  0.4230
   62SAPC  H16X 4976   5.029   4.182  -1.157  0.9073  0.5729 -1.3546
   62SAPC  H16Y 4977   4.933   4.302  -1.069  1.4828 -0.5956  0.0078
   62SAPC  C317 4978   4.909   4.331  -1.273 -0.1481  0.1268 -0.3270
   62SAPC  H17X 4979   4.815   4.381  -1.240  0.0384 -1.1468  2.4616
   62SAPC  H17Y 4980   4.893   4.278  -1.369  0.5155  0.1959 -0.4772
   62SAPC  C318 4981   5.023   4.436  -1.294  1.0632 -0.1262  0.5225
   62SAPC  H18X 4982   5.033   4.498  -1.202  0.5304  2.8575 -1.3078
   62SAPC  H18Y 4983   5.002   4.504  -1.379  2.8581 -0.3196 -0.1169
   62SAPC  H18Z 4984   5.120   4.386  -1.312  1.8326  1.4208  0.2290
   63SAPC     N 4985   1.931   3.497   0.961 -0.3906 -0.1329 -0.8651
   63SAPC   C12 4986   1.791   3.459   0.924 -0.2879  0.0819 -0.2671
   63SAPC  H12A 4987   1.719   3.535   0.953  1.0696  2.5428 -2.8092
   63SAPC  H12B 4988   1.754   3.375   0.980 -3.7682  1.2209 -0.5990
   63SAPC   C13 4989   1.963   3.625   0.898  0.1379 -0.2141  0.6382
   63SAPC  H13A 4990   2.062   3.663   0.919  1.0708 -0.1973 -3.0898
   63SAPC  H13B 4991   1.966   3.605   0.792  3.5405 -0.5049  0.6681
   63SAPC  H13C 4992   1.888   3.701   0.911 -0.3751 -0.4328 -0.8610
   63SAPC   C14 4993   1.935   3.514   1.113 -0.1927  0.5866  0.0361
   63SAPC  H14A 4994   2.021   3.564   1.155 -0.3306  0.1830  0.8162
   63SAPC  H14B 4995   1.847   3.566   1.148 -1.2059 -1.1812  0.2402
   63SAPC  H14C 4996   1.916   3.419   1.161  1.2469 -0.0182 -0.5312
   63SAPC   C15 4997   2.031   3.394   0.912  0.2155 -0.4707  0.4318
   63SAPC  H15A 4998   1.990   3.297   0.937  1.1176 -1.3952 -1.4693
   63SAPC  H15B 4999   2.037   3.399   0.805  2.7058 -0.8646  0.4907
   63SAPC  H15C 5000   2.121   3.401   0.971 -1.0917  1.1361  2.3793
   63SAPC   C11 5001   1.750   3.419   0.773 -0.2889 -0.1691 -0.9078
   63SAPC  H11A 5002   1.648   3.374   0.783 -1.0529  1.7601  0.7224
   63SAPC  H11B 5003   1.826   3.344   0.745  1.9225  1.0529  1.4256
   63SAPC     P 5004   1.845   3.545   0.561 -0.1596  0.4306  0.1028
   63SAPC   O13 5005   1.857   3.691   0.538  0.5311 -0.7746 -0.1030
   63SAPC   O14 5006   1.968   3.478   0.609  0.3816  0.6715  0.3000
   63SAPC   O12 5007   1.745   3.531   0.681  0.1001  0.7824  0.0291
   63SAPC   O11 5008   1.777   3.468   0.434 -0.2199  0.3768 -0.3534
   63SAPC    C1 5009   1.639   3.511   0.419  0.7195 -0.3486 -0.4890
   63SAPC    HA 5010   1.578   3.421   0.445  0.8650 -0.6474 -1.1557
   63SAPC    HB 5011   1.597   3.591   0.483  0.3615 -0.2717 -0.8248
   63SAPC    C2 5012   1.605   3.548   0.274  0.1288 -0.3868  0.4242
   63SAPC    HS 5013   1.499   3.520   0.256  0.2620 -0.7530  0.1962
   63SAPC   O21 5014   1.690   3.486   0.177  0.0589  0.4145  0.1383
   63SAPC   C21 5015   1.683   3.349   0.168  0.0103  0.0099  0.2821
   63SAPC   O22 5016   1.590   3.286   0.213  0.0709  1.2559 -0.1538
   63SAPC   C22 5017   1.798   3.287   0.090 -0.3947  0.9497 -0.3257
   63SAPC   H2R 5018   1.886   3.305   0.155 -0.6282  0.8133  0.0354
   63SAPC   H2S 5019   1.781   3.178   0.080 -0.7884  0.8317  1.2589
   63SAPC    C3 5020   1.626   3.702   0.254  0.0754 -0.1158  0.5530
   63SAPC    HX 5021   1.724   3.726   0.300  0.5343  0.4873 -0.6981
   63SAPC    HY 5022   1.552   3.757   0.316  1.8734  2.4048  0.5904
   63SAPC   O31 5023   1.627   3.743   0.111 -0.2825 -0.4814  0.0942
   63SAPC   C31 5024   1.513   3.751   0.047  0.3700  0.1089  0.0614
   63SAPC   O32 5025   1.406   3.709   0.091 -0.1375 -0.2764 -0.1876
   63SAPC   C32 5026   1.527   3.846  -0.067 -0.1294 -0.0471  0.5793
   63SAPC   H2X 5027   1.595   3.927  -0.034  1.1578 -1.1222  0.6230
   63SAPC   H2Y 5028   1.425   3.889  -0.079 -0.1274 -0.3986 -0.8169
   63SAPC   C23 5029   1.821   3.357  -0.050  0.8522 -0.0378 -0.5958
   63SAPC   H3R 5030   1.847   3.462  -0.024 -0.6413  0.1521  0.2676
   63SAPC   H3S 5031   1.728   3.353  -0.110  1.1402  2.0907 -1.2615
   63SAPC   C24 5032   1.929   3.300  -0.139 -0.0177  0.2380 -0.0514
   63SAPC   H4R 5033   1.923   3.189  -0.132  0.9331  0.0847 -1.3203
   63SAPC   H4S 5034   2.023   3.334  -0.090 -1.6814  1.5436  2.4378
   63SAPC   C25 5035   1.927   3.347  -0.282 -0.4693 -0.0462 -0.6332
   63SAPC   H5R 5036   1.939   3.455  -0.293 -0.7218 -0.1373 -1.9233
   63SAPC   C26 5037   1.928   3.274  -0.393 -0.7086  0.3417 -0.3521
   63SAPC   H6R 5038   1.928   3.328  -0.488 -0.1829 -1.4210 -1.3900
   63SAPC   C27 5039   1.929   3.122  -0.413 -0.2471 -0.5545 -0.6338
   63SAPC   H7R 5040   1.855   3.100  -0.493 -0.8893  0.3846 -0.3216
   63SAPC   H7S 5041   1.892   3.061  -0.327  0.4267  1.4086  1.1226
   63SAPC   C28 5042   2.065   3.064  -0.438  0.7578 -0.0128 -0.7453
   63SAPC   H8R 5043   2.127   3.061  -0.347  0.5603 -1.4330 -0.6324
   63SAPC   C29 5044   2.123   3.024  -0.555 -0.0097 -0.5525 -0.0428
   63SAPC   H9R 5045   2.226   2.987  -0.551 -0.5523 -2.0546  0.5675
   63SAPC  C210 5046   2.067   3.038  -0.695 -0.1469 -0.1288 -0.5542
   63SAPC  H10R 5047   1.964   3.077  -0.683  0.5987  1.3548  1.7639
   63SAPC  H10S 5048   2.074   2.944  -0.753  0.3533  1.0744 -2.5337
   63SAPC  C211 5049   2.142   3.144  -0.771 -0.4083  0.0400 -0.6203
   63SAPC  H11R 5050   2.184   3.224  -0.708 -2.2465  0.6825 -0.1551
   63SAPC  C212 5051   2.172   3.155  -0.903  0.0140 -0.0078  0.1685
   63SAPC  H12R 5052   2.250   3.227  -0.933 -0.1303 -0.8196 -2.3724
   63SAPC  C213 5053   2.128   3.056  -1.013 -0.2659  0.2855  1.1166
   63SAPC  H13R 5054   2.151   2.950  -0.991 -1.3697 -0.4938 -1.1050
   63SAPC  H13S 5055   2.191   3.090  -1.098 -2.2438  2.5055  0.4339
   63SAPC  C214 5056   1.981   3.057  -1.056  0.6741  0.1121 -0.7860
   63SAPC  H14R 5057   1.921   3.103  -0.976  2.0746 -0.3082  0.5620
   63SAPC  C215 5058   1.923   2.996  -1.158  0.1195 -0.3741 -0.1195
   63SAPC  H15R 5059   1.813   2.997  -1.165  0.0015 -1.9372  0.8873
   63SAPC  C216 5060   1.994   2.909  -1.255  0.7237  0.6053 -0.2459
   63SAPC  H16R 5061   1.993   2.803  -1.221  0.7983  1.0715  1.2808
   63SAPC  H16S 5062   2.099   2.942  -1.247  0.7544  0.1874  1.5296
   63SAPC  C217 5063   1.952   2.918  -1.398  0.5537  0.0191 -0.3334
   63SAPC  H17R 5064   1.951   3.027  -1.421  0.9884  0.9030  3.2084
   63SAPC  H17S 5065   1.847   2.888  -1.418  0.9702 -1.3556 -0.5778
   63SAPC  C218 5066   2.052   2.843  -1.489  0.1715 -0.4899 -0.2850
   63SAPC  H18R 5067   2.044   2.735  -1.465 -3.5756 -0.0335  1.2577
   63SAPC  H18S 5068   2.155   2.882  -1.472 -0.5903  1.3497  0.3473
   63SAPC  C219 5069   2.029   2.861  -1.644  0.4652  0.4310  0.1339
   63SAPC  H19R 5070   2.024   2.971  -1.656  1.4744  0.4212 -0.4303
   63SAPC  H19S 5071   1.930   2.815  -1.668 -0.3605  2.7392 -1.1658
   63SAPC  C220 5072   2.134   2.806  -1.733 -0.4596 -0.1627  0.3135
   63SAPC  H20R 5073   2.225   2.864  -1.706 -1.9345  2.2325  0.4229
   63SAPC  H20S 5074   2.116   2.828  -1.841 -0.8869 -1.0206  0.2049
   63SAPC  H20T 5075   2.132   2.696  -1.721  1.6775 -0.2945 -0.1202
   63SAPC   C33 5076   1.580   3.778  -0.189 -1.0133  0.1095  0.4039
   63SAPC   H3X 5077   1.526   3.811  -0.280 -3.1840 -0.4380  1.4397
   63SAPC   H3Y 5078   1.561   3.669  -0.188 -0.5168  0.0120  0.0519
   63SAPC   C34 5079   1.734   3.792  -0.217  0.5820 -0.0597 -0.3030
   63SAPC   H4X 5080   1.801   3.741  -0.144 -0.2760  0.1639  0.6641
   63SAPC   H4Y 5081   1.753   3.901  -0.205 -1.0206  0.6899 -3.5004
   63SAPC   C35 5082   1.770   3.746  -0.355  0.3178  0.5289 -0.5102
   63SAPC   H5X 5083   1.710   3.807  -0.426  0.2353  0.6304 -0.3547
   63SAPC   H5Y 5084   1.736   3.641  -0.362  0.9605  0.2765 -0.0105
   63SAPC   C36 5085   1.928   3.754  -0.378 -0.2986 -0.1022  0.0851
   63SAPC   H6X 5086   1.962   3.695  -0.290  0.4108  0.5736  0.2766
   63SAPC   H6Y 5087   1.960   3.859  -0.365  3.3403 -1.0637 -0.0350
   63SAPC   C37 5088   1.977   3.702  -0.520  0.3634 -0.6744  0.6949
   63SAPC   H7X 5089   1.938   3.768  -0.601  5.7645  0.6024 -1.3073
   63SAPC   H7Y 5090   1.947   3.595  -0.522 -3.3178  0.2183 -0.4432
   63SAPC   C38 5091   2.132   3.711  -0.529 -0.1831 -0.3276 -0.8841
   63SAPC   H8X 5092   2.181   3.650  -0.450 -0.0348  2.3228  1.1689
   63SAPC   H8Y 5093   2.164   3.813  -0.501 -0.8193 -0.0962 -0.9860
   63SAPC   C39 5094   2.185   3.685  -0.670  0.3139  0.6427 -0.3902
   63SAPC   H9X 5095   2.289   3.722  -0.657  0.4323 -0.3231  1.7204
   63SAPC   H9Y 5096   2.121   3.744  -0.739 -0.9410  0.6757  0.7755
   63SAPC  C310 5097   2.199   3.545  -0.724 -0.1109  0.3541  0.1564
   63SAPC  H10X 5098   2.103   3.489  -0.724  1.0180 -1.7708  2.4454
   63SAPC  H10Y 5099   2.270   3.498  -0.654  1.5945 -0.2900 -1.9127
   63SAPC  C311 5100   2.255   3.551  -0.866 -0.0397 -0.2068 -0.4846
   63SAPC  H11X 5101   2.317   3.459  -0.873 -1.3093 -1.1029 -0.2549
   63SAPC  H11Y 5102   2.328   3.634  -0.873  1.3714 -1.3253  0.1991
   63SAPC  C312 5103   2.157   3.554  -0.989  0.4040  0.3614 -0.2797
   63SAPC  H12X 5104   2.087   3.640  -0.975 -0.2941  0.3427 -3.0162
   63SAPC  H12Y 5105   2.100   3.459  -0.996  1.3322 -0.2401  0.1609
   63SAPC  C313 5106   2.232   3.567  -1.121  0.2203  0.3302  0.2129
   63SAPC  H13X 5107   2.323   3.630  -1.107  0.0602  0.4787  0.5831
   63SAPC  H13Y 5108   2.171   3.629  -1.190 -2.4273  0.3962  2.4420
   63SAPC  C314 5109   2.271   3.434  -1.191 -0.7046 -0.1057  0.2901
   63SAPC  H14X 5110   2.186   3.362  -1.187 -0.5128 -0.3770 -0.5301
   63SAPC  H14Y 5111   2.341   3.398  -1.113 -0.3680 -0.4270 -0.1562
   63SAPC  C315 5112   2.330   3.450  -1.330  0.5829  0.5429 -0.2278
   63SAPC  H15X 5113   2.400   3.536  -1.320 -0.9013  1.7458  0.1434
   63SAPC  H15Y 5114   2.254   3.477  -1.406  0.2670  4.3503  1.1879
   63SAPC  C316 5115   2.404   3.317  -1.373  0.9780  0.3789  0.6387
   63SAPC  H16X 5116   2.470   3.304  -1.285 -1.6480  0.7753  2.8101
   63SAPC  H16Y 5117   2.461   3.325  -1.468 -0.2869 -0.6730 -0.2625
   63SAPC  C317 5118   2.306   3.195  -1.379 -1.1587 -0.0381 -0.3506
   63SAPC  H17X 5119   2.255   3.195  -1.280  0.7000  2.0674  0.6917
   63SAPC  H17Y 5120   2.360   3.098  -1.391 -1.9725 -0.3459 -1.7021
   63SAPC  C318 5121   2.211   3.208  -1.495 -0.2284 -0.4924 -0.3082
   63SAPC  H18X 5122   2.135   3.287  -1.475  0.3962 -0.2596  1.2770
   63SAPC  H18Y 5123   2.170   3.104  -1.502 -1.8199  0.0247  0.8200
   63SAPC  H18Z 5124   2.251   3.222  -1.598 -0.2223 -1.2806 -0.4227
   64SAPC     N 5125   5.831   3.628   1.005 -0.1219 -0.0906  0.4923
   64SAPC   C12 5126   5.951   3.706   0.956 -0.1207 -0.2736 -0.4561
   64SAPC  H12A 5127   5.978   3.782   1.027 -0.7931 -0.0507 -0.4412
   64SAPC  H12B 5128   5.918   3.755   0.865 -1.5650  0.8191  0.6185
   64SAPC   C13 5129   5.863   3.555   1.129 -0.4259  0.7306 -0.1273
   64SAPC  H13A 5130   5.931   3.475   1.104 -1.4916  0.6804 -3.3184
   64SAPC  H13B 5131   5.904   3.614   1.210 -0.2830  0.4848 -0.0187
   64SAPC  H13C 5132   5.777   3.518   1.183  1.3128  1.0046  3.1067
   64SAPC   C14 5133   5.715   3.720   1.026  0.4121  0.0743 -0.3829
   64SAPC  H14A 5134   5.633   3.676   1.081  0.9219 -1.2372 -0.6309
   64SAPC  H14B 5135   5.751   3.801   1.088  1.7207 -1.4823  1.0030
   64SAPC  H14C 5136   5.675   3.768   0.938 -1.3416  0.0196  0.3468
   64SAPC   C15 5137   5.801   3.522   0.904  0.0254 -0.0444 -0.2993
   64SAPC  H15A 5138   5.773   3.559   0.806 -1.3595 -2.5271 -0.9274
   64SAPC  H15B 5139   5.891   3.467   0.881  0.8627  0.5889  1.2982
   64SAPC  H15C 5140   5.723   3.458   0.944  1.8380 -1.2634  1.4873
   64SAPC   C11 5141   6.084   3.624   0.932 -0.4407 -0.1527  0.5386
   64SAPC  H11A 5142   6.118   3.597   1.034  1.4517  0.1220  0.0176
   64SAPC  H11B 5143   6.162   3.696   0.899  0.7346 -0.4077  2.5842
   64SAPC     P 5144   6.169   3.398   0.825  0.6646 -0.1050  0.1029
   64SAPC   O13 5145   6.308   3.448   0.818  0.0295  0.6860  0.9568
   64SAPC   O14 5146   6.133   3.296   0.925  0.2425 -0.0693  0.4217
   64SAPC   O12 5147   6.070   3.522   0.836 -0.2667  0.6198  0.2668
   64SAPC   O11 5148   6.129   3.352   0.682 -0.0950  0.6719  0.2843
   64SAPC    C1 5149   6.076   3.430   0.574 -0.2749 -0.0387 -0.3282
   64SAPC    HA 5150   6.061   3.537   0.600  1.6548  0.7521 -2.2283
   64SAPC    HB 5151   6.142   3.426   0.485 -1.3174 -1.1699 -1.0735
   64SAPC    C2 5152   5.936   3.373   0.537  0.1057 -0.1969  0.6103
   64SAPC    HS 5153   5.886   3.336   0.630  1.0178 -2.0321  0.4193
   64SAPC   O21 5154   5.945   3.261   0.447 -0.0967 -0.0813 -0.5398
   64SAPC   C21 5155   5.840   3.183   0.428 -0.1383  0.3648 -0.1141
   64SAPC   O22 5156   5.736   3.185   0.493 -0.0926 -0.2062  0.5914
   64SAPC   C22 5157   5.861   3.089   0.305  0.0343  0.3928  0.4480
   64SAPC   H2R 5158   5.773   3.109   0.240 -1.9265 -3.5074  1.5709
   64SAPC   H2S 5159   5.963   3.113   0.268  0.5934 -2.3340  0.0106
   64SAPC    C3 5160   5.857   3.483   0.462  0.7588 -0.7198 -0.3702
   64SAPC    HX 5161   5.813   3.552   0.538 -0.3202 -0.6134 -1.0667
   64SAPC    HY 5162   5.763   3.436   0.426  0.1251 -1.0789  1.5874
   64SAPC   O31 5163   5.933   3.546   0.357 -0.2853  0.2466 -0.3316
   64SAPC   C31 5164   5.928   3.482   0.244 -0.4013 -0.0471  0.8381
   64SAPC   O32 5165   5.863   3.382   0.215  0.4897 -0.2597 -0.6969
   64SAPC   C32 5166   6.003   3.564   0.138 -0.1908 -0.6622  0.2154
   64SAPC   H2X 5167   6.106   3.591   0.169 -0.6769  0.1969  1.1678
   64SAPC   H2Y 5168   5.947   3.660   0.125 -1.0066 -0.9620  1.3446
   64SAPC   C23 5169   5.865   2.943   0.350  0.1569 -0.4709  0.2003
   64SAPC   H3R 5170   5.766   2.920   0.395 -2.0260  0.6172 -3.5912
   64SAPC   H3S 5171   5.947   2.941   0.426 -1.6061  1.6069  2.3113
   64SAPC   C24 5172   5.891   2.843   0.236 -0.4760  0.0008 -0.2597
   64SAPC   H4R 5173   5.980   2.866   0.174 -0.4808  2.1459  0.4562
   64SAPC   H4S 5174   5.803   2.843   0.168  0.5551 -1.7957 -1.6631
   64SAPC   C25 5175   5.892   2.709   0.295 -0.4138  0.2487 -0.2108
   64SAPC   H5R 5176   5.806   2.696   0.363 -0.9264  0.7169 -0.7624
   64SAPC   C26 5177   5.992   2.622   0.286  0.0645 -0.5037  0.7329
   64SAPC   H6R 5178   5.981   2.537   0.355 -0.5529  1.5105  3.2438
   64SAPC   C27 5179   6.111   2.626   0.192  0.6923  0.7634  0.5075
   64SAPC   H7R 5180   6.165   2.718   0.223  2.3740  0.6323 -1.7246
   64SAPC   H7S 5181   6.074   2.644   0.088 -3.1110 -2.0162  1.1475
   64SAPC   C28 5182   6.223   2.523   0.214  0.3788  0.7454  0.2251
   64SAPC   H8R 5183   6.227   2.506   0.323 -1.1505  0.5437  0.2689
   64SAPC   C29 5184   6.288   2.445   0.125 -0.1679 -0.2601  0.4737
   64SAPC   H9R 5185   6.369   2.378   0.158  1.7497  1.0330 -1.3708
   64SAPC  C210 5186   6.251   2.456  -0.020  0.4512 -0.8691 -0.4116
   64SAPC  H10R 5187   6.233   2.563  -0.039 -0.2095 -1.4115 -3.2504
   64SAPC  H10S 5188   6.152   2.411  -0.039  0.2800 -1.1920  1.1060
   64SAPC  C211 5189   6.357   2.405  -0.115 -0.1947  0.1800 -0.4323
   64SAPC  H11R 5190   6.457   2.394  -0.070 -1.1775 -0.4378  1.7077
   64SAPC  C212 5191   6.347   2.384  -0.246  0.3745  0.0245 -0.1133
   64SAPC  H12R 5192   6.437   2.359  -0.304  1.1193  0.5779  0.7701
   64SAPC  C213 5193   6.221   2.413  -0.336 -0.1948 -0.5166  0.0926
   64SAPC  H13R 5194   6.127   2.415  -0.277  0.5571  0.2379  1.3439
   64SAPC  H13S 5195   6.199   2.324  -0.398  1.1430 -1.3938  0.8251
   64SAPC  C214 5196   6.222   2.536  -0.424 -0.5899 -0.0292 -0.4666
   64SAPC  H14R 5197   6.147   2.612  -0.398 -0.2577  1.2358 -2.8921
   64SAPC  C215 5198   6.292   2.568  -0.534  0.0332  0.7479 -0.2795
   64SAPC  H15R 5199   6.269   2.656  -0.596  0.6920 -1.3079 -3.6998
   64SAPC  C216 5200   6.390   2.466  -0.586 -0.0021  0.2675 -0.2805
   64SAPC  H16R 5201   6.418   2.395  -0.505  0.6998 -0.5414 -1.2010
   64SAPC  H16S 5202   6.486   2.510  -0.621 -0.2564 -0.8743 -2.6515
   64SAPC  C217 5203   6.331   2.379  -0.695 -0.4995  0.6729 -0.6236
   64SAPC  H17R 5204   6.276   2.429  -0.777 -0.1200  1.5264 -0.3647
   64SAPC  H17S 5205   6.246   2.326  -0.647 -0.9649 -0.0699 -2.1950
   64SAPC  C218 5206   6.434   2.278  -0.748 -0.4023 -0.4053 -0.1328
   64SAPC  H18R 5207   6.374   2.197  -0.796 -0.6019 -0.0403 -0.5048
   64SAPC  H18S 5208   6.478   2.212  -0.670  0.7148 -1.5337 -1.6774
   64SAPC  C219 5209   6.551   2.338  -0.835 -0.7498  0.5647 -0.6760
   64SAPC  H19R 5210   6.609   2.412  -0.775  1.7696 -1.1117 -0.9010
   64SAPC  H19S 5211   6.491   2.395  -0.909  0.7676 -0.4551 -2.7907
   64SAPC  C220 5212   6.639   2.243  -0.906 -0.4095  0.1877  0.5990
   64SAPC  H20R 5213   6.707   2.301  -0.972 -2.0388  1.9224  0.3806
   64SAPC  H20S 5214   6.590   2.159  -0.961  1.4554  0.0115 -0.8884
   64SAPC  H20T 5215   6.701   2.186  -0.833 -1.1066  0.1227  1.1516
   64SAPC   C33 5216   6.014   3.496  -0.000  0.7254 -0.6190 -0.8015
   64SAPC   H3X 5217   6.024   3.583  -0.069 -0.5311 -0.8664 -1.3245
   64SAPC   H3Y 5218   5.915   3.453  -0.025 -1.6899  3.6535  0.4107
   64SAPC   C34 5219   6.127   3.387  -0.025  0.2362  0.3056  0.1421
   64SAPC   H4X 5220   6.121   3.309   0.054 -1.1835  1.4413  1.2074
   64SAPC   H4Y 5221   6.227   3.434  -0.020  1.1342 -1.6311  1.4430
   64SAPC   C35 5222   6.108   3.317  -0.163 -0.0080 -0.1953 -0.3947
   64SAPC   H5X 5223   6.001   3.292  -0.181 -0.3935  1.2881 -0.3019
   64SAPC   H5Y 5224   6.167   3.223  -0.168  0.9254  0.4360 -1.9496
   64SAPC   C36 5225   6.145   3.402  -0.287  0.5701 -0.3747  0.3166
   64SAPC   H6X 5226   6.254   3.421  -0.278  0.7924 -2.0310  1.6569
   64SAPC   H6Y 5227   6.097   3.502  -0.289  0.9772 -0.1771  0.4214
   64SAPC   C37 5228   6.116   3.324  -0.416  0.0358 -0.0203 -0.4113
   64SAPC   H7X 5229   6.006   3.309  -0.418 -0.1715  0.6256  2.2926
   64SAPC   H7Y 5230   6.168   3.226  -0.412 -1.2208 -0.6737  0.5403
   64SAPC   C38 5231   6.147   3.407  -0.542  0.1126  0.6592 -0.5186
   64SAPC   H8X 5232   6.241   3.464  -0.530  0.5911 -0.3106  0.5178
   64SAPC   H8Y 5233   6.064   3.480  -0.551 -2.1610 -1.4967  1.2260
   64SAPC   C39 5234   6.170   3.316  -0.665 -0.2500  0.0703 -0.7715
   64SAPC   H9X 5235   6.232   3.230  -0.630 -0.0872  0.8765  1.0382
   64SAPC   H9Y 5236   6.220   3.370  -0.748  0.6803  2.1529  1.0672
   64SAPC  C310 5237   6.040   3.256  -0.714 -0.5954  0.3215 -0.1517
   64SAPC  H10X 5238   5.959   3.332  -0.710 -0.7214  0.4100 -2.8114
   64SAPC  H10Y 5239   6.010   3.167  -0.654 -0.0308  0.1786 -0.0771
   64SAPC  C311 5240   6.061   3.210  -0.857 -0.0333  0.1824 -0.0046
   64SAPC  H11X 5241   6.138   3.131  -0.857 -0.3546 -0.2288 -2.5425
   64SAPC  H11Y 5242   6.095   3.293  -0.923  1.0377  1.0676  1.5978
   64SAPC  C312 5243   5.932   3.153  -0.934  0.2722 -0.2018  0.1954
   64SAPC  H12X 5244   5.866   3.243  -0.932  0.2762 -0.1937  2.4669
   64SAPC  H12Y 5245   5.894   3.075  -0.864  0.5527  0.2450  0.8601
   64SAPC  C313 5246   5.958   3.107  -1.074  0.4709 -0.2924  0.1354
   64SAPC  H13X 5247   5.871   3.054  -1.118  2.2514 -2.1535 -1.3284
   64SAPC  H13Y 5248   6.041   3.035  -1.065  0.6257  0.0908  2.2041
   64SAPC  C314 5249   5.986   3.225  -1.170  0.5553  0.6502  0.4627
   64SAPC  H14X 5250   6.080   3.277  -1.143  0.8865  0.5184 -0.3786
   64SAPC  H14Y 5251   5.904   3.300  -1.168  0.7160  0.8141  0.8570
   64SAPC  C315 5252   5.983   3.175  -1.320 -0.1622  0.3371  0.3954
   64SAPC  H15X 5253   6.018   3.258  -1.386 -1.9783 -0.2441 -1.4169
   64SAPC  H15Y 5254   5.878   3.152  -1.348  0.5200 -0.3787 -1.7921
   64SAPC  C316 5255   6.065   3.050  -1.345 -0.1379 -0.1325 -0.0692
   64SAPC  H16X 5256   6.016   2.962  -1.297  1.1416 -0.2502  1.0988
   64SAPC  H16Y 5257   6.169   3.069  -1.313 -0.9046  0.1485  2.5558
   64SAPC  C317 5258   6.087   3.026  -1.495 -0.1928  0.2558  0.3469
   64SAPC  H17X 5259   5.986   3.004  -1.536  0.6797 -1.2997 -1.1206
   64SAPC  H17Y 5260   6.144   2.931  -1.507 -1.8892 -0.7457 -0.2663
   64SAPC  C318 5261   6.169   3.128  -1.581 -0.5209  0.3884  0.8024
   64SAPC  H18X 5262   6.111   3.221  -1.564 -1.9314 -0.3335  0.1053
   64SAPC  H18Y 5263   6.177   3.103  -1.689  3.4571 -1.9786  1.4478
   64SAPC  H18Z 5264   6.268   3.149  -1.536  1.4573 -0.3485 -2.8512
   65SAPC     N 5265   1.298   4.880   4.781 -0.5102 -0.2905  0.3449
   65SAPC   C12 5266   1.256   4.839   4.917  0.0284 -0.8534  0.3242
   65SAPC  H12A 5267   1.236   4.733   4.925  1.5947 -1.3655 -1.6305
   65SAPC  H12B 5268   1.164   4.892   4.934  1.5055  1.7947  0.7039
   65SAPC   C13 5269   1.294   5.031   4.771  0.1109  0.4938  0.1475
   65SAPC  H13A 5270   1.333   5.071   4.678 -2.0623  0.8212 -0.6972
   65SAPC  H13B 5271   1.190   5.063   4.770 -0.9444 -2.6616 -0.5427
   65SAPC  H13C 5272   1.340   5.084   4.853  1.1169  1.2731 -0.8881
   65SAPC   C14 5273   1.435   4.827   4.738 -0.5102 -0.8082  0.0082
   65SAPC  H14A 5274   1.516   4.854   4.804  0.5147  0.8556 -1.8012
   65SAPC  H14B 5275   1.435   4.720   4.746  1.9402 -0.8008  0.9775
   65SAPC  H14C 5276   1.466   4.847   4.636 -0.4147 -0.2412  0.1455
   65SAPC   C15 5277   1.192   4.846   4.674  0.0045  0.0546  0.3049
   65SAPC  H15A 5278   1.093   4.850   4.716 -0.0639  0.5319  0.1068
   65SAPC  H15B 5279   1.189   4.911   4.588 -1.3640  1.5869  1.4355
   65SAPC  H15C 5280   1.203   4.749   4.628 -1.8869  1.1904 -2.8405
   65SAPC   C11 5281   1.342   4.876   5.040 -0.4550  0.6189  0.0320
   65SAPC  H11A 5282   1.280   4.876   5.132  0.6068  2.3320  0.7832
   65SAPC  H11B 5283   1.372   4.983   5.038  0.0552  0.4986  0.9222
   65SAPC     P 5284   1.446   4.645   5.128  0.2123 -0.1933  0.3294
   65SAPC   O13 5285   1.333   4.572   5.070 -0.3670  0.4879  0.8508
   65SAPC   O14 5286   1.575   4.578   5.124 -0.1117  0.6027  0.6080
   65SAPC   O12 5287   1.457   4.791   5.056  0.0936  1.0872 -0.0298
   65SAPC   O11 5288   1.420   4.678   5.272 -0.3089 -0.1471  0.2297
   65SAPC    C1 5289   1.466   4.793   5.344  0.0653  0.9266 -0.6188
   65SAPC    HA 5290   1.465   4.885   5.281  1.5084  1.4284  0.0332
   65SAPC    HB 5291   1.397   4.811   5.429 -0.6859  0.0935 -1.0404
   65SAPC    C2 5292   1.611   4.778   5.397 -0.2845  0.6754 -0.0867
   65SAPC    HS 5293   1.666   4.707   5.332  1.2726  1.0606  0.7450
   65SAPC   O21 5294   1.607   4.735   5.530 -0.0843 -1.1264 -0.2413
   65SAPC   C21 5295   1.629   4.603   5.548  0.2139 -0.7872 -0.2740
   65SAPC   O22 5296   1.678   4.528   5.466  0.3524 -0.1048  0.0333
   65SAPC   C22 5297   1.582   4.570   5.698 -0.0572 -0.1603 -0.2768
   65SAPC   H2R 5298   1.471   4.581   5.690 -0.2201 -0.7703  0.9223
   65SAPC   H2S 5299   1.611   4.469   5.733  0.5874  0.0251 -0.2748
   65SAPC    C3 5300   1.679   4.916   5.391 -0.2405  0.0798 -0.0933
   65SAPC    HX 5301   1.624   4.985   5.458 -0.9609 -1.8294  1.3946
   65SAPC    HY 5302   1.667   4.945   5.284 -0.2880  0.6059  0.0524
   65SAPC   O31 5303   1.818   4.911   5.425 -0.7365 -0.0136 -0.2420
   65SAPC   C31 5304   1.909   4.973   5.341 -0.0980 -0.8482 -0.2766
   65SAPC   O32 5305   1.878   5.025   5.237 -0.0110 -0.1508  0.4517
   65SAPC   C32 5306   2.051   4.972   5.403  0.1125 -0.0885 -0.1459
   65SAPC   H2X 5307   2.082   5.078   5.414 -2.0389  0.7016 -1.0188
   65SAPC   H2Y 5308   2.117   4.920   5.330  0.1507  0.9063 -0.8459
   65SAPC   C23 5309   1.633   4.671   5.798 -0.3610 -0.0991 -0.5734
   65SAPC   H3R 5310   1.566   4.655   5.886  1.9147 -0.2007  1.2509
   65SAPC   H3S 5311   1.618   4.776   5.766  0.0277  0.3423  0.6267
   65SAPC   C24 5312   1.776   4.644   5.835 -0.6093  0.3385  0.5234
   65SAPC   H4R 5313   1.841   4.665   5.748 -0.0420  1.3376  1.1764
   65SAPC   H4S 5314   1.791   4.534   5.844 -0.3424  0.3991  0.8663
   65SAPC   C25 5315   1.840   4.705   5.954 -0.1675 -0.2892 -0.1330
   65SAPC   H5R 5316   1.916   4.782   5.934  0.7873 -1.7257 -2.4297
   65SAPC   C26 5317   1.813   4.682   6.083  0.2125  0.0253  0.1592
   65SAPC   H6R 5318   1.874   4.735   6.158  0.9354 -0.6375  0.0575
   65SAPC   C27 5319   1.721   4.580   6.139  0.0589  0.3746  0.6394
   65SAPC   H7R 5320   1.686   4.513   6.058 -1.5828  1.1680  0.6510
   65SAPC   H7S 5321   1.623   4.621   6.171 -1.6836 -2.0969 -1.1818
   65SAPC   C28 5322   1.763   4.489   6.250  0.1722  0.8017 -0.2582
   65SAPC   H8R 5323   1.789   4.386   6.220 -0.0529  0.9088 -0.8422
   65SAPC   C29 5324   1.754   4.519   6.383 -0.6726  0.4998 -0.3573
   65SAPC   H9R 5325   1.784   4.433   6.445 -1.3417  0.0908 -0.5894
   65SAPC  C210 5326   1.709   4.649   6.451 -0.4405 -0.0751  0.0130
   65SAPC  H10R 5327   1.600   4.636   6.472 -0.1243 -0.6230  1.3591
   65SAPC  H10S 5328   1.716   4.739   6.386  0.4416 -1.0951 -1.3480
   65SAPC  C211 5329   1.770   4.679   6.588 -0.2871  0.0330  0.1704
   65SAPC  H11R 5330   1.872   4.638   6.603  1.3949  3.5295 -0.6350
   65SAPC  C212 5331   1.715   4.743   6.689 -0.3001  0.5120 -0.9336
   65SAPC  H12R 5332   1.777   4.746   6.780 -1.9156 -1.6967  0.3105
   65SAPC  C213 5333   1.580   4.811   6.701  0.0763 -0.5017  0.4158
   65SAPC  H13R 5334   1.533   4.826   6.602 -1.2420  0.8246  1.2055
   65SAPC  H13S 5335   1.603   4.905   6.756  1.6402  0.4019 -1.6470
   65SAPC  C214 5336   1.483   4.728   6.786  0.1820  0.6633  0.7391
   65SAPC  H14R 5337   1.440   4.646   6.726 -0.6828  0.0281  2.1652
   65SAPC  C215 5338   1.448   4.737   6.917 -0.1600  0.1845  0.2096
   65SAPC  H15R 5339   1.375   4.670   6.964  1.7811 -3.4131 -1.4474
   65SAPC  C216 5340   1.500   4.844   7.011 -0.2522  0.2131  0.1539
   65SAPC  H16R 5341   1.415   4.866   7.080 -2.5073 -2.7221 -1.4647
   65SAPC  H16S 5342   1.514   4.946   6.969 -1.3272  0.4627  0.3670
   65SAPC  C217 5343   1.625   4.814   7.093 -1.0799  0.1087 -0.4685
   65SAPC  H17R 5344   1.712   4.803   7.026 -0.1957 -0.5607  0.7394
   65SAPC  H17S 5345   1.618   4.712   7.136 -2.1384  0.2259 -0.3163
   65SAPC  C218 5346   1.662   4.925   7.198  0.4244  0.6133  1.0963
   65SAPC  H18R 5347   1.626   5.015   7.143  0.6700 -0.2811 -0.6129
   65SAPC  H18S 5348   1.771   4.932   7.219  0.8419 -2.7088  0.6130
   65SAPC  C219 5349   1.580   4.916   7.332 -0.1662  0.3214  0.4964
   65SAPC  H19R 5350   1.545   4.813   7.356  1.1744 -0.1747  0.3901
   65SAPC  H19S 5351   1.488   4.977   7.319  1.8664  3.2847 -1.1066
   65SAPC  C220 5352   1.652   4.974   7.455  0.6923  0.2223 -0.3423
   65SAPC  H20R 5353   1.642   5.084   7.469 -2.0171 -0.2230  1.9669
   65SAPC  H20S 5354   1.761   4.953   7.464  0.5821  0.1578  1.0548
   65SAPC  H20T 5355   1.608   4.939   7.551 -0.0154  2.0096  0.0336
   65SAPC   C33 5356   2.074   4.903   5.538 -0.1460  0.0228 -0.0409
   65SAPC   H3X 5357   2.075   4.794   5.513  3.0908  0.2161 -1.1361
   65SAPC   H3Y 5358   1.993   4.929   5.610 -0.2054  0.4142 -0.2467
   65SAPC   C34 5359   2.205   4.946   5.599  0.3040 -0.2726  0.3788
   65SAPC   H4X 5360   2.204   5.055   5.621  0.2093 -0.8301  3.6124
   65SAPC   H4Y 5361   2.284   4.926   5.523 -0.1959 -0.4537 -0.0975
   65SAPC   C35 5362   2.241   4.881   5.735 -0.0524  0.0913 -0.3063
   65SAPC   H5X 5363   2.351   4.891   5.734  0.0150 -0.6139 -0.7615
   65SAPC   H5Y 5364   2.231   4.770   5.746  0.8479  0.0912  0.6816
   65SAPC   C36 5365   2.169   4.941   5.854  0.7050 -0.6821 -0.1066
   65SAPC   H6X 5366   2.059   4.950   5.837  0.5518  0.7034  1.3700
   65SAPC   H6Y 5367   2.202   5.047   5.863 -0.3686 -0.1093 -2.2882
   65SAPC   C37 5368   2.187   4.856   5.981  0.4094 -0.3734 -1.3066
   65SAPC   H7X 5369   2.297   4.844   5.997  0.3818  0.1637 -0.6943
   65SAPC   H7Y 5370   2.151   4.751   5.972 -1.2516 -0.0858  1.0241
   65SAPC   C38 5371   2.127   4.912   6.113  0.5313 -0.6675  0.5380
   65SAPC   H8X 5372   2.019   4.933   6.094  1.0553 -1.2142 -4.4102
   65SAPC   H8Y 5373   2.164   5.013   6.139 -0.3391  0.0799 -0.9440
   65SAPC   C39 5374   2.137   4.813   6.233  0.1419 -0.5837  0.3799
   65SAPC   H9X 5375   2.230   4.753   6.223  0.0719 -0.5730 -0.3936
   65SAPC   H9Y 5376   2.055   4.739   6.227 -0.1820 -0.2254  0.3816
   65SAPC  C310 5377   2.130   4.872   6.371 -0.6155  0.3850 -0.0606
   65SAPC  H10X 5378   2.024   4.899   6.392 -0.2632  0.0569  2.3789
   65SAPC  H10Y 5379   2.188   4.966   6.376 -1.7606  1.0401  1.6558
   65SAPC  C311 5380   2.179   4.768   6.473  0.6318  0.1733  0.5338
   65SAPC  H11X 5381   2.288   4.765   6.452  0.6665  1.4798  0.4930
   65SAPC  H11Y 5382   2.135   4.667   6.455  0.6051  0.0393  1.3364
   65SAPC  C312 5383   2.150   4.793   6.616 -0.2452  0.1167 -0.0468
   65SAPC  H12X 5384   2.176   4.706   6.679  1.4171  1.0664  0.6158
   65SAPC  H12Y 5385   2.039   4.805   6.624 -0.3629 -1.1589  0.5133
   65SAPC  C313 5386   2.227   4.912   6.664 -1.0258  0.0545  0.3228
   65SAPC  H13X 5387   2.191   5.002   6.610 -4.3764 -1.1512  0.3498
   65SAPC  H13Y 5388   2.334   4.898   6.639 -0.5663 -0.4519  2.3549
   65SAPC  C314 5389   2.240   4.943   6.816 -0.0405  0.2562  0.3300
   65SAPC  H14X 5390   2.141   4.920   6.860  0.1606 -1.4275 -0.0379
   65SAPC  H14Y 5391   2.268   5.050   6.830 -0.4978  0.2649  1.2104
   65SAPC  C315 5392   2.341   4.856   6.903  0.2425  0.2565 -0.1563
   65SAPC  H15X 5393   2.315   4.749   6.891 -0.2329  0.0592  2.1562
   65SAPC  H15Y 5394   2.316   4.879   7.009 -1.5295 -2.4231  0.0993
   65SAPC  C316 5395   2.485   4.878   6.871  0.0909 -0.0590  0.1395
   65SAPC  H16X 5396   2.517   4.836   6.773  1.9220 -0.9194  1.0436
   65SAPC  H16Y 5397   2.545   4.820   6.945 -1.4398 -0.7523  0.8697
   65SAPC  C317 5398   2.540   5.022   6.877  0.2433 -0.0896  0.4789
   65SAPC  H17X 5399   2.491   5.082   6.798 -2.0628  1.1224  2.6759
   65SAPC  H17Y 5400   2.650   5.012   6.860  0.2479  0.6760  0.0740
   65SAPC  C318 5401   2.516   5.093   7.010 -0.3071 -0.0765  0.2831
   65SAPC  H18X 5402   2.569   5.188   7.038  1.6174 -0.6884 -1.0635
   65SAPC  H18Y 5403   2.532   5.021   7.093  0.2666 -1.1376 -0.7222
   65SAPC  H18Z 5404   2.409   5.120   7.015  0.2339  2.1389  2.0218
   66SAPC     N 5405   5.751   6.590   4.741 -0.0026 -0.6467 -0.0311
   66SAPC   C12 5406   5.733   6.531   4.879  0.6921 -0.8736  0.6348
   66SAPC  H12A 5407   5.674   6.441   4.872  1.3137 -1.4643  2.3261
   66SAPC  H12B 5408   5.687   6.610   4.936 -0.7029 -0.6900 -0.7057
   66SAPC   C13 5409   5.830   6.719   4.756  0.0866  0.1342  0.3458
   66SAPC  H13A 5410   5.930   6.708   4.793 -0.1390  0.7208  1.1637
   66SAPC  H13B 5411   5.831   6.775   4.663 -1.7783  0.8534  0.7053
   66SAPC  H13C 5412   5.776   6.775   4.832 -1.5057  1.5450 -1.6995
   66SAPC   C14 5413   5.828   6.493   4.662  0.2142 -0.4702 -0.0964
   66SAPC  H14A 5414   5.927   6.483   4.705 -0.1109  1.5592  1.2775
   66SAPC  H14B 5415   5.784   6.395   4.660  0.2969 -0.5127  0.1147
   66SAPC  H14C 5416   5.844   6.511   4.557 -0.4660 -1.8840 -0.4682
   66SAPC   C15 5417   5.622   6.626   4.678 -0.0222 -0.0525 -0.0270
   66SAPC  H15A 5418   5.634   6.697   4.597 -2.9293  0.5658 -0.0169
   66SAPC  H15B 5419   5.572   6.541   4.635 -2.8248  1.5153 -0.1202
   66SAPC  H15C 5420   5.554   6.670   4.749 -0.0114  0.9755 -0.6288
   66SAPC   C11 5421   5.854   6.493   4.968  0.9681 -0.0853  0.1528
   66SAPC  H11A 5422   5.908   6.403   4.930  0.5543  0.0059 -0.6824
   66SAPC  H11B 5423   5.817   6.462   5.068 -0.9788 -2.5093 -1.2183
   66SAPC     P 5424   5.923   6.708   5.104 -0.4168 -0.0611 -0.4796
   66SAPC   O13 5425   5.980   6.842   5.070  0.1309  0.5771 -0.9737
   66SAPC   O14 5426   5.776   6.703   5.128 -0.2916  0.0367 -0.3650
   66SAPC   O12 5427   5.948   6.598   4.984 -0.5702 -0.1791  0.1852
   66SAPC   O11 5428   6.003   6.637   5.224  0.4340 -0.5845 -0.4518
   66SAPC    C1 5429   6.134   6.590   5.200  0.9487 -0.3371 -0.0274
   66SAPC    HA 5430   6.135   6.483   5.230 -0.7000  0.1846  2.0966
   66SAPC    HB 5431   6.164   6.594   5.093  0.4887 -1.5514 -0.2193
   66SAPC    C2 5432   6.225   6.663   5.307  0.6008  0.4293 -0.1393
   66SAPC    HS 5433   6.325   6.615   5.314  0.6584  0.7667  1.7228
   66SAPC   O21 5434   6.166   6.670   5.439  0.5253 -0.0979  0.0414
   66SAPC   C21 5435   6.243   6.620   5.537 -0.2170 -0.0735  0.0404
   66SAPC   O22 5436   6.342   6.557   5.522  0.0320 -0.0348  0.1609
   66SAPC   C22 5437   6.181   6.658   5.673 -0.6316 -0.3595 -0.2104
   66SAPC   H2R 5438   6.095   6.724   5.647 -0.3276  0.6022  1.1264
   66SAPC   H2S 5439   6.151   6.563   5.723 -1.2319 -0.2281 -0.3151
   66SAPC    C3 5440   6.250   6.810   5.253  0.9000  0.4160 -0.8272
   66SAPC    HX 5441   6.152   6.862   5.263  1.2456  1.3829 -2.2379
   66SAPC    HY 5442   6.279   6.800   5.147  4.0556 -2.3040  0.1322
   66SAPC   O31 5443   6.350   6.869   5.339  0.1161 -0.5564 -0.5906
   66SAPC   C31 5444   6.371   6.997   5.328  0.1192  0.1571  0.0804
   66SAPC   O32 5445   6.306   7.079   5.266 -0.7364  0.2247 -0.3233
   66SAPC   C32 5446   6.505   7.029   5.410  0.1348  0.4406 -0.1520
   66SAPC   H2X 5447   6.562   7.094   5.341 -1.3996  0.6246 -1.2915
   66SAPC   H2Y 5448   6.556   6.931   5.426  1.3336  1.1276  0.4214
   66SAPC   C23 5449   6.272   6.750   5.754 -0.2462  0.0325 -0.9631
   66SAPC   H3R 5450   6.285   6.848   5.702  1.9329  1.4161  1.8790
   66SAPC   H3S 5451   6.368   6.695   5.757 -1.0518 -1.4053  2.0219
   66SAPC   C24 5452   6.223   6.783   5.902  0.5212  0.4593  0.3385
   66SAPC   H4R 5453   6.211   6.684   5.952  3.1381  0.4925  1.2340
   66SAPC   H4S 5454   6.122   6.827   5.892  0.4829  0.3203  0.0848
   66SAPC   C25 5455   6.312   6.883   5.976  0.4270  0.7628 -0.5979
   66SAPC   H5R 5456   6.357   6.961   5.912  0.7445  0.0764 -1.2229
   66SAPC   C26 5457   6.343   6.881   6.107 -0.1418 -0.2051 -0.2918
   66SAPC   H6R 5458   6.393   6.969   6.151  0.0805 -0.5423  0.1504
   66SAPC   C27 5459   6.273   6.796   6.205 -0.3546  0.2793 -0.4312
   66SAPC   H7R 5460   6.176   6.756   6.168 -1.0601 -0.9877  2.4558
   66SAPC   H7S 5461   6.234   6.850   6.294  3.6862 -2.1055  3.1394
   66SAPC   C28 5462   6.355   6.679   6.248  0.9695  0.2525 -0.6223
   66SAPC   H8R 5463   6.444   6.653   6.188  1.4164  0.5204 -0.0869
   66SAPC   C29 5464   6.343   6.626   6.372 -0.5711 -0.6861 -0.0593
   66SAPC   H9R 5465   6.400   6.538   6.407 -2.0462 -2.6806 -2.3053
   66SAPC  C210 5466   6.254   6.691   6.483 -0.0963 -0.0800  0.1730
   66SAPC  H10R 5467   6.149   6.693   6.448  0.5060 -0.8762 -1.8077
   66SAPC  H10S 5468   6.286   6.795   6.505  2.3365 -0.8708  0.7743
   66SAPC  C211 5469   6.267   6.619   6.614  0.1788  0.6118  0.3581
   66SAPC  H11R 5470   6.328   6.528   6.608 -0.9311 -0.1902  0.7961
   66SAPC  C212 5471   6.208   6.650   6.732 -0.4764 -1.0240  0.2824
   66SAPC  H12R 5472   6.228   6.590   6.822  0.8465  0.3388  0.9367
   66SAPC  C213 5473   6.121   6.768   6.763  0.2431  0.4457 -0.4451
   66SAPC  H13R 5474   6.118   6.827   6.669  2.3962  0.5207 -0.5237
   66SAPC  H13S 5475   6.158   6.843   6.836 -1.3899  0.1617  0.7263
   66SAPC  C214 5476   5.977   6.722   6.796 -1.0313  0.4529 -0.3003
   66SAPC  H14R 5477   5.928   6.662   6.717 -0.0394 -0.5752 -0.1512
   66SAPC  C215 5478   5.924   6.728   6.921 -0.2110 -0.1662  0.8008
   66SAPC  H15R 5479   5.826   6.682   6.941 -0.2166 -0.5504 -0.0715
   66SAPC  C216 5480   5.980   6.784   7.048 -0.3604 -0.1061  0.0238
   66SAPC  H16R 5481   5.920   6.874   7.073 -0.0235  0.0905  0.1469
   66SAPC  H16S 5482   6.085   6.821   7.042 -0.0816 -0.6236  1.2576
   66SAPC  C217 5483   5.986   6.689   7.168 -0.1309  0.3339 -0.4920
   66SAPC  H17R 5484   6.027   6.592   7.134  0.8577  0.6731 -0.3037
   66SAPC  H17S 5485   5.890   6.667   7.218 -0.4797  1.1563 -0.7688
   66SAPC  C218 5486   6.075   6.739   7.285 -0.0634  1.0667  0.4446
   66SAPC  H18R 5487   6.183   6.732   7.261  0.0794  2.8612  0.4518
   66SAPC  H18S 5488   6.061   6.666   7.367  0.9326  1.6111  1.1044
   66SAPC  C219 5489   6.042   6.882   7.350 -0.4303 -0.0621 -0.5385
   66SAPC  H19R 5490   5.933   6.877   7.370 -0.5658 -3.4990 -1.4266
   66SAPC  H19S 5491   6.067   6.959   7.273  2.3174 -1.1421 -0.8151
   66SAPC  C220 5492   6.125   6.916   7.465 -0.3635  0.3636 -0.7889
   66SAPC  H20R 5493   6.124   6.830   7.535 -1.1284  1.0469  0.0656
   66SAPC  H20S 5494   6.076   6.997   7.524 -0.7725 -1.1581  1.0383
   66SAPC  H20T 5495   6.227   6.953   7.441 -1.1681  3.1863 -0.2120
   66SAPC   C33 5496   6.483   7.091   5.546  0.4226  0.4534 -0.1243
   66SAPC   H3X 5497   6.430   7.024   5.617 -2.1354  2.9283  0.4968
   66SAPC   H3Y 5498   6.413   7.173   5.519  0.2645  1.1457  2.1901
   66SAPC   C34 5499   6.609   7.157   5.607  0.6191  0.1602  0.1579
   66SAPC   H4X 5500   6.652   7.241   5.547 -2.3503  1.4796 -0.2937
   66SAPC   H4Y 5501   6.681   7.074   5.624  0.4635  0.1140  0.5962
   66SAPC   C35 5502   6.605   7.211   5.751 -0.3450  0.2814  0.0849
   66SAPC   H5X 5503   6.530   7.293   5.757 -0.8837 -0.1364 -0.8045
   66SAPC   H5Y 5504   6.708   7.250   5.767  0.3935 -0.7944 -1.7605
   66SAPC   C36 5505   6.588   7.114   5.868  0.4264 -0.2149 -0.2399
   66SAPC   H6X 5506   6.618   7.010   5.842  3.0130  0.0567  1.2122
   66SAPC   H6Y 5507   6.479   7.112   5.888  0.0974  1.2797 -1.6888
   66SAPC   C37 5508   6.661   7.166   5.989  0.0119  0.2419  0.0564
   66SAPC   H7X 5509   6.633   7.269   6.017  0.2322  0.5943 -0.9833
   66SAPC   H7Y 5510   6.768   7.176   5.959 -0.5737  0.4921 -2.1357
   66SAPC   C38 5511   6.645   7.075   6.113  0.1390  0.5337  0.1964
   66SAPC   H8X 5512   6.625   6.973   6.076 -0.9004  0.9862 -0.5514
   66SAPC   H8Y 5513   6.548   7.108   6.156  0.1930 -1.5843  2.1009
   66SAPC   C39 5514   6.758   7.098   6.207  0.5095 -0.9412  0.4500
   66SAPC   H9X 5515   6.764   7.204   6.240  4.2353 -0.1912 -1.9697
   66SAPC   H9Y 5516   6.848   7.089   6.143 -0.2123  1.5319 -1.0726
   66SAPC  C310 5517   6.752   7.002   6.327 -0.0163 -0.1471  0.2734
   66SAPC  H10X 5518   6.838   7.042   6.385  1.0254  0.7444 -1.7967
   66SAPC  H10Y 5519   6.771   6.899   6.290 -2.2443 -0.1597 -0.9923
   66SAPC  C311 5520   6.631   7.002   6.416  0.0235 -0.0743 -0.1250
   66SAPC  H11X 5521   6.549   6.951   6.362  0.8767 -0.9222 -0.6460
   66SAPC  H11Y 5522   6.614   7.112   6.424 -1.9397 -0.3779  0.4865
   66SAPC  C312 5523   6.653   6.949   6.561  0.4954 -0.0217  0.6637
   66SAPC  H12X 5524   6.730   7.006   6.618  0.8417 -0.6223  0.8087
   66SAPC  H12Y 5525   6.702   6.851   6.542 -0.8345 -0.5272 -0.3083
   66SAPC  C313 5526   6.528   6.927   6.650 -0.6181 -0.0248  0.1313
   66SAPC  H13X 5527   6.475   6.835   6.619 -0.5063 -0.7917  2.0747
   66SAPC  H13Y 5528   6.469   7.021   6.654  0.0269  0.3483  2.6995
   66SAPC  C314 5529   6.574   6.891   6.796  0.1388 -0.3804 -0.6323
   66SAPC  H14X 5530   6.622   6.979   6.845  0.6058 -1.8572  1.6936
   66SAPC  H14Y 5531   6.650   6.812   6.780  1.8967  1.4846 -2.0127
   66SAPC  C315 5532   6.468   6.838   6.887  0.1197  0.5083  0.1595
   66SAPC  H15X 5533   6.433   6.746   6.836 -1.8504  0.6427  1.1969
   66SAPC  H15Y 5534   6.380   6.905   6.887  0.0175  0.3754 -0.5314
   66SAPC  C316 5535   6.519   6.820   7.034 -0.1433 -0.4311 -0.3019
   66SAPC  H16X 5536   6.574   6.911   7.066  0.1534 -0.6369 -0.2155
   66SAPC  H16Y 5537   6.597   6.741   7.024  0.5054  0.3396 -1.6297
   66SAPC  C317 5538   6.404   6.780   7.130 -0.2087 -0.5783 -0.4713
   66SAPC  H17X 5539   6.356   6.686   7.095 -1.1239  0.1151 -1.1388
   66SAPC  H17Y 5540   6.329   6.862   7.122 -0.0600 -0.5584 -1.7416
   66SAPC  C318 5541   6.438   6.776   7.277 -0.3155  0.6155  0.8515
   66SAPC  H18X 5542   6.504   6.688   7.288 -0.1682  0.5893 -0.1746
   66SAPC  H18Y 5543   6.348   6.757   7.340 -2.6770  0.1263 -2.4234
   66SAPC  H18Z 5544   6.479   6.874   7.311  0.3285  0.3129  0.9557
   67SAPC     N 5545   2.238   4.864   4.468  0.2910 -1.0507 -0.0290
   67SAPC   C12 5546   2.240   4.734   4.554  0.7537 -0.0901 -0.1195
   67SAPC  H12A 5547   2.315   4.748   4.630  2.2241 -2.8249 -0.9249
   67SAPC  H12B 5548   2.282   4.650   4.501  1.9588  0.4521 -0.0554
   67SAPC   C13 5549   2.141   4.845   4.351  0.3006  0.8001  0.2956
   67SAPC  H13A 5550   2.043   4.850   4.396  1.1664  0.8756  2.3018
   67SAPC  H13B 5551   2.158   4.919   4.274  1.1562 -0.5650 -0.8747
   67SAPC  H13C 5552   2.145   4.742   4.319  0.3193  1.2893 -1.3740
   67SAPC   C14 5553   2.195   4.989   4.543  0.1703  0.2785  0.3383
   67SAPC  H14A 5554   2.210   5.080   4.487  1.3907 -2.0922 -3.5375
   67SAPC  H14B 5555   2.090   4.977   4.565 -0.1393 -2.6168 -2.1074
   67SAPC  H14C 5556   2.247   5.004   4.637  1.8576 -0.3275 -0.4508
   67SAPC   C15 5557   2.374   4.883   4.410  0.1477  0.1979 -0.2807
   67SAPC  H15A 5558   2.380   4.981   4.365 -1.4316  1.0337  1.1912
   67SAPC  H15B 5559   2.446   4.900   4.488 -1.5360  2.9450  0.8424
   67SAPC  H15C 5560   2.394   4.796   4.350  1.0443 -1.2317  1.9589
   67SAPC   C11 5561   2.117   4.687   4.633  0.1431 -0.3841 -0.5910
   67SAPC  H11A 5562   2.121   4.586   4.679  1.7135 -0.9439 -1.8694
   67SAPC  H11B 5563   2.030   4.668   4.566 -0.4127 -3.3844  0.8259
   67SAPC     P 5564   2.144   4.810   4.856  0.0913 -0.0812  0.5321
   67SAPC   O13 5565   2.270   4.883   4.835 -0.0564 -0.3096  0.3240
   67SAPC   O14 5566   2.044   4.870   4.950  0.4682 -0.2399  0.2409
   67SAPC   O12 5567   2.066   4.790   4.719 -0.0496  0.0701  0.3518
   67SAPC   O11 5568   2.170   4.669   4.908 -0.3712  0.6270  0.2882
   67SAPC    C1 5569   2.297   4.615   4.936 -0.4283 -0.0374  0.6136
   67SAPC    HA 5570   2.313   4.506   4.928 -1.5098 -0.1552 -0.1798
   67SAPC    HB 5571   2.366   4.664   4.864 -2.7960  0.0337 -1.7349
   67SAPC    C2 5572   2.347   4.637   5.081  0.3774 -0.8606 -0.1143
   67SAPC    HS 5573   2.428   4.562   5.094  0.7462 -0.6008 -0.8525
   67SAPC   O21 5574   2.241   4.612   5.168 -0.2392  0.0468 -0.4317
   67SAPC   C21 5575   2.217   4.476   5.189 -0.4292 -0.1957 -0.2654
   67SAPC   O22 5576   2.286   4.389   5.143 -0.2907  0.4175 -0.4230
   67SAPC   C22 5577   2.107   4.442   5.283 -0.2658 -0.3299 -0.0549
   67SAPC   H2R 5578   2.024   4.511   5.258  0.5392 -0.0751 -2.2475
   67SAPC   H2S 5579   2.069   4.341   5.260 -0.1639 -0.3922  0.0439
   67SAPC    C3 5580   2.402   4.779   5.107  0.5039  0.1825 -0.3982
   67SAPC    HX 5581   2.314   4.836   5.141  0.9760 -0.5196  2.2205
   67SAPC    HY 5582   2.452   4.824   5.018  0.2029  1.5548  0.1003
   67SAPC   O31 5583   2.499   4.778   5.214  0.8486 -0.2069 -0.1313
   67SAPC   C31 5584   2.490   4.870   5.305  0.3398 -0.3314 -0.0758
   67SAPC   O32 5585   2.414   4.963   5.312  0.1164  0.3174  0.6527
   67SAPC   C32 5586   2.590   4.837   5.422 -0.8205  0.2211 -0.3930
   67SAPC   H2X 5587   2.667   4.767   5.382 -0.8864  0.2639 -0.6004
   67SAPC   H2Y 5588   2.542   4.785   5.507  1.5078 -1.4789 -0.0297
   67SAPC   C23 5589   2.136   4.486   5.428  0.3856 -0.4256 -0.2897
   67SAPC   H3R 5590   2.186   4.585   5.434 -1.3037  0.3704  1.3411
   67SAPC   H3S 5591   2.199   4.417   5.488  0.1539 -0.7357 -0.4037
   67SAPC   C24 5592   2.017   4.506   5.528  0.5755 -0.9927  0.3829
   67SAPC   H4R 5593   1.948   4.578   5.479  0.1201 -1.4138  0.4013
   67SAPC   H4S 5594   2.052   4.561   5.619 -2.6124 -0.1611  1.2133
   67SAPC   C25 5595   1.934   4.381   5.549 -0.2654  0.8560  0.4347
   67SAPC   H5R 5596   1.856   4.380   5.473 -0.9825  0.0772  1.1657
   67SAPC   C26 5597   1.935   4.289   5.650  0.5396 -0.3032  0.5542
   67SAPC   H6R 5598   1.862   4.207   5.640 -0.2803  0.5468 -0.7705
   67SAPC   C27 5599   2.027   4.287   5.770 -0.0590 -1.2271  0.5298
   67SAPC   H7R 5600   1.979   4.343   5.853  1.8773  1.9019 -0.2807
   67SAPC   H7S 5601   2.118   4.349   5.751 -2.1654  1.7683 -0.5926
   67SAPC   C28 5602   2.043   4.143   5.818  0.0664  0.0287  1.1125
   67SAPC   H8R 5603   2.012   4.073   5.739  0.3587  2.0340 -0.8700
   67SAPC   C29 5604   2.093   4.095   5.933  0.1473 -0.2141  0.1971
   67SAPC   H9R 5605   2.099   3.986   5.947  0.3614 -0.2749 -0.3415
   67SAPC  C210 5606   2.135   4.172   6.059  0.3763  0.1160 -0.2595
   67SAPC  H10R 5607   2.213   4.109   6.106  0.3115 -0.0804 -0.4125
   67SAPC  H10S 5608   2.048   4.170   6.128 -0.1397 -0.1355 -0.9091
   67SAPC  C211 5609   2.195   4.312   6.044 -0.4705  0.7219  0.2453
   67SAPC  H11R 5610   2.243   4.329   5.947 -0.2415 -0.6540  0.0958
   67SAPC  C212 5611   2.181   4.414   6.132  0.3382  0.6301  0.3669
   67SAPC  H12R 5612   2.221   4.513   6.105  1.0095  0.5230  0.9287
   67SAPC  C213 5613   2.113   4.399   6.272 -0.1036 -0.2009  0.3572
   67SAPC  H13R 5614   2.014   4.355   6.247 -1.3949  1.9494  1.3749
   67SAPC  H13S 5615   2.083   4.498   6.312  0.5558  0.6447 -1.1350
   67SAPC  C214 5616   2.187   4.312   6.369  0.2813 -0.8524  0.1814
   67SAPC  H14R 5617   2.252   4.237   6.321 -0.8727 -0.2424 -2.5451
   67SAPC  C215 5618   2.168   4.308   6.503  0.2837 -0.0335  0.0995
   67SAPC  H15R 5619   2.235   4.244   6.562 -0.6857 -1.6176 -0.4499
   67SAPC  C216 5620   2.085   4.395   6.591  0.2674 -0.4685 -0.0817
   67SAPC  H16R 5621   2.012   4.454   6.532 -0.6372  1.1242  2.4610
   67SAPC  H16S 5622   2.151   4.477   6.626 -1.0157  1.5676 -2.1384
   67SAPC  C217 5623   2.014   4.331   6.719  0.3086 -0.0563  0.4320
   67SAPC  H17R 5624   2.103   4.298   6.777  1.0370  0.1917 -0.5140
   67SAPC  H17S 5625   1.939   4.253   6.696 -0.0032  0.1795  0.6386
   67SAPC  C218 5626   1.938   4.441   6.808 -0.5843  0.1228 -0.1916
   67SAPC  H18R 5627   1.846   4.486   6.764 -0.0123  2.8381  1.1327
   67SAPC  H18S 5628   2.002   4.530   6.827 -0.6676 -0.3985  3.2656
   67SAPC  C219 5629   1.925   4.386   6.952  0.1054  0.5579  0.0979
   67SAPC  H19R 5630   2.019   4.340   6.989 -0.5293 -0.0574  0.9928
   67SAPC  H19S 5631   1.853   4.301   6.958  0.2453  0.5551  2.5090
   67SAPC  C220 5632   1.880   4.485   7.055  0.4048  0.1885 -0.4008
   67SAPC  H20R 5633   1.960   4.542   7.107 -0.2452  0.0099  0.8347
   67SAPC  H20S 5634   1.814   4.438   7.130  3.4447 -0.2229  2.2558
   67SAPC  H20T 5635   1.814   4.561   7.008 -0.0449  0.8038  1.1591
   67SAPC   C33 5636   2.667   4.965   5.466 -0.5868  0.5263 -0.5886
   67SAPC   H3X 5637   2.659   5.043   5.387 -2.2415  1.1496  0.1439
   67SAPC   H3Y 5638   2.774   4.937   5.473 -0.2157  1.8647 -0.6858
   67SAPC   C34 5639   2.609   5.020   5.596  1.0280 -0.8668 -0.3693
   67SAPC   H4X 5640   2.561   4.942   5.658  1.0661 -0.7579 -0.2024
   67SAPC   H4Y 5641   2.524   5.087   5.569  2.1691  0.2897 -1.2473
   67SAPC   C35 5642   2.712   5.099   5.676  0.2785 -0.2723  0.3647
   67SAPC   H5X 5643   2.750   5.184   5.615 -3.7705  1.8878  0.5347
   67SAPC   H5Y 5644   2.789   5.022   5.701 -0.8212 -1.8211 -0.8330
   67SAPC   C36 5645   2.654   5.167   5.803  0.5345 -0.3447 -0.0876
   67SAPC   H6X 5646   2.557   5.219   5.787  1.3622  1.5676  0.7558
   67SAPC   H6Y 5647   2.722   5.242   5.848 -0.2668  0.4947 -0.2362
   67SAPC   C37 5648   2.632   5.066   5.921 -1.0696  0.3683 -0.4378
   67SAPC   H7X 5649   2.729   5.016   5.943 -1.6159  0.2407  1.9057
   67SAPC   H7Y 5650   2.558   4.987   5.895 -1.2938  0.3553  0.2408
   67SAPC   C38 5651   2.576   5.135   6.043  0.6253  0.3942  0.4120
   67SAPC   H8X 5652   2.488   5.191   6.004  1.8138  0.9336 -1.6287
   67SAPC   H8Y 5653   2.647   5.214   6.075  0.0168  1.2718 -0.3204
   67SAPC   C39 5654   2.542   5.032   6.151  0.0172 -0.2188  0.0972
   67SAPC   H9X 5655   2.635   4.972   6.159  0.8167  0.8231 -1.0040
   67SAPC   H9Y 5656   2.462   4.966   6.111 -1.6690  2.6901 -1.7514
   67SAPC  C310 5657   2.485   5.081   6.280 -0.9805 -0.7449 -0.4424
   67SAPC  H10X 5658   2.461   5.003   6.355 -1.4770 -0.7850 -0.6350
   67SAPC  H10Y 5659   2.390   5.134   6.258 -0.5368  0.0941 -0.3782
   67SAPC  C311 5660   2.564   5.198   6.348  0.1927  0.5868 -1.0373
   67SAPC  H11X 5661   2.577   5.288   6.286 -0.3697  1.2061 -0.2821
   67SAPC  H11Y 5662   2.668   5.161   6.358 -0.1991 -0.5617 -1.0466
   67SAPC  C312 5663   2.497   5.242   6.481 -0.0164 -0.4793  0.3063
   67SAPC  H12X 5664   2.505   5.162   6.558  3.1501 -0.0092  0.6299
   67SAPC  H12Y 5665   2.392   5.262   6.451  0.2221 -0.4566 -0.5213
   67SAPC  C313 5666   2.555   5.377   6.531  0.0134  0.7053  0.2372
   67SAPC  H13X 5667   2.523   5.452   6.455 -1.9728  0.6367  0.9599
   67SAPC  H13Y 5668   2.666   5.375   6.541 -0.0347  0.9133  0.8695
   67SAPC  C314 5669   2.502   5.430   6.674 -1.1371  0.0905  0.7219
   67SAPC  H14X 5670   2.530   5.536   6.689  1.3667 -0.2496 -1.0101
   67SAPC  H14Y 5671   2.559   5.371   6.749  3.3927  0.6979 -1.9152
   67SAPC  C315 5672   2.354   5.403   6.699 -0.1787 -0.5791 -0.0321
   67SAPC  H15X 5673   2.351   5.294   6.723 -0.8747 -0.8711 -1.3660
   67SAPC  H15Y 5674   2.298   5.415   6.604 -0.4880 -1.8518 -0.0391
   67SAPC  C316 5675   2.284   5.478   6.819 -0.4890 -0.1136  0.8722
   67SAPC  H16X 5676   2.176   5.456   6.803 -0.0880 -0.9274 -0.9649
   67SAPC  H16Y 5677   2.288   5.586   6.792 -2.3344  0.7901  3.6965
   67SAPC  C317 5678   2.339   5.447   6.950 -0.5207  0.0786  0.5466
   67SAPC  H17X 5679   2.449   5.448   6.941 -0.5237 -2.2931 -0.4187
   67SAPC  H17Y 5680   2.313   5.340   6.968 -1.2543 -0.1160 -1.4510
   67SAPC  C318 5681   2.290   5.531   7.072  0.0791  0.4446  0.5535
   67SAPC  H18X 5682   2.190   5.501   7.109  0.0502 -2.4746 -1.5395
   67SAPC  H18Y 5683   2.282   5.630   7.024 -0.6125 -0.7252 -1.8988
   67SAPC  H18Z 5684   2.367   5.532   7.153  2.6622 -1.9104 -1.6484
   68SAPC     N 5685   4.025   4.511   4.884 -0.3613  0.1287  0.3353
   68SAPC   C12 5686   4.090   4.531   5.020 -0.7119  0.0660  0.3595
   68SAPC  H12A 5687   4.022   4.575   5.092  1.1863  0.4518  1.9982
   68SAPC  H12B 5688   4.179   4.591   5.008 -0.1339 -0.9843 -0.9168
   68SAPC   C13 5689   3.906   4.422   4.889  0.9391  0.9344 -1.2392
   68SAPC  H13A 5690   3.850   4.459   4.974 -0.3890  2.1154 -2.5747
   68SAPC  H13B 5691   3.841   4.431   4.803 -0.1934 -2.1674 -0.8077
   68SAPC  H13C 5692   3.943   4.322   4.902  0.6074  0.9261 -0.2641
   68SAPC   C14 5693   3.979   4.635   4.824  0.0201  0.0367  0.3393
   68SAPC  H14A 5694   3.951   4.614   4.722 -0.3566  1.6247  0.0817
   68SAPC  H14B 5695   3.890   4.678   4.869  1.4898  3.0386  0.6395
   68SAPC  H14C 5696   4.050   4.716   4.822 -0.4725  0.4697 -1.3385
   68SAPC   C15 5697   4.114   4.454   4.787  0.0188 -0.2390  0.6658
   68SAPC  H15A 5698   4.160   4.366   4.830  2.5892  0.6607 -0.0834
   68SAPC  H15B 5699   4.072   4.434   4.690 -0.8129  1.1378  0.7160
   68SAPC  H15C 5700   4.192   4.526   4.771 -0.1996  0.0713  0.9734
   68SAPC   C11 5701   4.131   4.400   5.081  0.5811  0.5336 -0.4613
   68SAPC  H11A 5702   4.218   4.420   5.148  1.3622 -0.1978 -1.2393
   68SAPC  H11B 5703   4.175   4.324   5.014  3.2425 -1.4370  3.1880
   68SAPC     P 5704   4.002   4.372   5.307  0.1799 -0.0957 -0.3586
   68SAPC   O13 5705   3.865   4.326   5.340 -0.2415  1.0693  0.3465
   68SAPC   O14 5706   4.110   4.311   5.386 -0.1880 -0.7690  0.7750
   68SAPC   O12 5707   4.028   4.335   5.159 -0.1338 -0.2655  0.1688
   68SAPC   O11 5708   4.018   4.532   5.314 -0.2625 -0.1507  0.0706
   68SAPC    C1 5709   3.913   4.631   5.301  0.0248 -0.4049  0.0068
   68SAPC    HA 5710   3.948   4.696   5.219 -0.1744 -0.0275  0.2192
   68SAPC    HB 5711   3.814   4.591   5.268 -0.2948 -0.3415  0.8506
   68SAPC    C2 5712   3.890   4.708   5.428 -0.1432 -0.5658 -0.4279
   68SAPC    HS 5713   3.988   4.697   5.478 -0.2482 -2.1750 -0.5149
   68SAPC   O21 5714   3.780   4.650   5.501  0.2629 -0.0428  0.4531
   68SAPC   C21 5715   3.815   4.560   5.587 -0.1845 -0.0756 -0.5133
   68SAPC   O22 5716   3.931   4.540   5.624  0.4045 -0.1414  0.1876
   68SAPC   C22 5717   3.702   4.478   5.641  0.1164  0.2990  0.7122
   68SAPC   H2R 5718   3.671   4.531   5.733 -0.6165 -0.2717  0.7993
   68SAPC   H2S 5719   3.614   4.484   5.574  1.9618 -0.1120 -1.9377
   68SAPC    C3 5720   3.859   4.859   5.404  0.1338 -0.0255  0.0904
   68SAPC    HX 5721   3.753   4.870   5.373 -0.7305  0.3258  2.8540
   68SAPC    HY 5722   3.929   4.894   5.326  0.0027 -0.3403 -0.1716
   68SAPC   O31 5723   3.885   4.924   5.533  0.1918  0.1726 -0.1714
   68SAPC   C31 5724   3.857   5.048   5.536  0.1514 -0.1624 -0.1514
   68SAPC   O32 5725   3.799   5.110   5.446 -0.1950 -0.3492  0.4859
   68SAPC   C32 5726   3.896   5.108   5.668 -0.2201  0.2903  0.7862
   68SAPC   H2X 5727   4.005   5.130   5.673 -0.5019  1.4138  2.8355
   68SAPC   H2Y 5728   3.865   5.032   5.743  2.5627 -0.6332  1.1143
   68SAPC   C23 5729   3.750   4.346   5.697 -0.3736 -0.7576  0.4273
   68SAPC   H3R 5730   3.830   4.299   5.635  0.0441  1.4157 -0.7635
   68SAPC   H3S 5731   3.665   4.275   5.691 -0.8111 -0.1079 -3.4644
   68SAPC   C24 5732   3.806   4.356   5.838  0.3715 -0.6592  0.0661
   68SAPC   H4R 5733   3.750   4.431   5.898 -0.8801  0.3699 -2.2835
   68SAPC   H4S 5734   3.910   4.395   5.830 -0.7883  2.7023 -0.1738
   68SAPC   C25 5735   3.807   4.226   5.911  0.9663  0.1789 -0.0087
   68SAPC   H5R 5736   3.895   4.163   5.891  0.3854 -1.4628  2.2192
   68SAPC   C26 5737   3.713   4.180   5.993  0.3191  0.3651 -0.5533
   68SAPC   H6R 5738   3.733   4.084   6.044 -1.9597  0.9715  1.7080
   68SAPC   C27 5739   3.579   4.241   6.029 -0.2783  0.0010  0.4618
   68SAPC   H7R 5740   3.535   4.266   5.930 -0.3652  0.4135  0.6040
   68SAPC   H7S 5741   3.607   4.337   6.076  0.0136  0.5812 -0.8593
   68SAPC   C28 5742   3.471   4.180   6.122 -0.1257 -0.3208  0.0003
   68SAPC   H8R 5743   3.387   4.149   6.058 -0.4817  1.7273 -0.6127
   68SAPC   C29 5744   3.480   4.138   6.241  0.9289 -0.8239 -0.3400
   68SAPC   H9R 5745   3.393   4.094   6.293 -0.9200  0.5504 -2.1307
   68SAPC  C210 5746   3.593   4.166   6.337 -0.1368  0.1426  0.5170
   68SAPC  H10R 5747   3.676   4.186   6.266 -1.2708 -0.2002 -0.9716
   68SAPC  H10S 5748   3.606   4.081   6.407 -1.7900 -0.1785  0.4714
   68SAPC  C211 5749   3.570   4.293   6.417 -0.1695 -0.3037  0.4827
   68SAPC  H11R 5750   3.594   4.385   6.361 -1.6831  1.4092  2.5066
   68SAPC  C212 5751   3.520   4.317   6.536  0.3137  0.1781  0.2354
   68SAPC  H12R 5752   3.480   4.419   6.546 -1.6832 -0.3922 -1.1121
   68SAPC  C213 5753   3.450   4.221   6.621  0.4810  0.6116 -0.8213
   68SAPC  H13R 5754   3.417   4.136   6.557 -1.0164 -1.0387  1.9340
   68SAPC  H13S 5755   3.356   4.265   6.661  1.0367 -0.4239  1.8500
   68SAPC  C214 5756   3.526   4.161   6.740 -0.6385  0.1593  0.9587
   68SAPC  H14R 5757   3.636   4.172   6.748 -0.7240  1.7828  0.2783
   68SAPC  C215 5758   3.472   4.107   6.849 -0.1905  0.3758 -0.2544
   68SAPC  H15R 5759   3.529   4.076   6.939 -0.9573  1.5201  0.6587
   68SAPC  C216 5760   3.325   4.091   6.878 -0.2697  0.3600 -0.5422
   68SAPC  H16R 5761   3.300   3.984   6.859  2.1926 -0.1128 -1.5639
   68SAPC  H16S 5762   3.256   4.146   6.810 -1.3936 -2.2549 -1.6522
   68SAPC  C217 5763   3.291   4.130   7.021  0.1826  0.3862  0.0096
   68SAPC  H17R 5764   3.180   4.130   7.026  0.0817  3.5990 -0.4450
   68SAPC  H17S 5765   3.308   4.237   7.041 -0.0265  0.1729  1.4499
   68SAPC  C218 5766   3.357   4.051   7.136  0.0546  1.1186 -0.1943
   68SAPC  H18R 5767   3.468   4.060   7.130  0.1430 -0.3076 -1.3289
   68SAPC  H18S 5768   3.334   3.946   7.108 -0.7558  1.5774 -1.3027
   68SAPC  C219 5769   3.296   4.084   7.275 -0.6500  0.4770  0.1197
   68SAPC  H19R 5770   3.186   4.065   7.270 -0.9021  1.8319  0.1319
   68SAPC  H19S 5771   3.316   4.193   7.290 -0.7276  0.5463 -0.2658
   68SAPC  C220 5772   3.350   3.996   7.387  0.0378  0.2268  0.0550
   68SAPC  H20R 5773   3.461   4.000   7.389  0.0185  0.4612  0.8569
   68SAPC  H20S 5774   3.326   3.888   7.379  1.8404 -0.2504  0.5063
   68SAPC  H20T 5775   3.312   4.024   7.487  1.6606  1.3824  0.3985
   68SAPC   C33 5776   3.814   5.237   5.687  1.2616  0.0977  0.3403
   68SAPC   H3X 5777   3.706   5.209   5.686  0.9306  1.3211 -0.9532
   68SAPC   H3Y 5778   3.824   5.309   5.604  0.9642 -1.1555 -0.8220
   68SAPC   C34 5779   3.851   5.318   5.811  0.0136 -0.0037 -0.0278
   68SAPC   H4X 5780   3.801   5.418   5.805  2.0229  1.0040 -0.7665
   68SAPC   H4Y 5781   3.955   5.355   5.804 -1.0112  3.4392  0.7562
   68SAPC   C35 5782   3.816   5.246   5.942  0.1425 -0.4191 -0.3183
   68SAPC   H5X 5783   3.888   5.161   5.945  1.9032  1.0321  0.4920
   68SAPC   H5Y 5784   3.711   5.210   5.943 -0.4485  1.2090 -0.3864
   68SAPC   C36 5785   3.848   5.341   6.061 -0.5599 -0.3367 -0.4618
   68SAPC   H6X 5786   3.768   5.414   6.088  0.9717  0.6714  1.6381
   68SAPC   H6Y 5787   3.938   5.397   6.028 -1.3558  1.1755 -0.1778
   68SAPC   C37 5788   3.876   5.272   6.193 -0.1637 -0.2809 -0.1337
   68SAPC   H7X 5789   3.970   5.216   6.178  1.7331  2.4360  0.7504
   68SAPC   H7Y 5790   3.788   5.212   6.225  0.3029 -1.2473 -0.6383
   68SAPC   C38 5791   3.900   5.386   6.296  0.7034 -0.9884  0.0453
   68SAPC   H8X 5792   3.808   5.447   6.290  1.0171 -0.5132 -0.0232
   68SAPC   H8Y 5793   3.982   5.453   6.263  0.5676 -0.3553  0.9597
   68SAPC   C39 5794   3.923   5.346   6.433 -0.2278 -0.7343  0.1848
   68SAPC   H9X 5795   4.022   5.295   6.433 -0.2477 -0.7733  0.1870
   68SAPC   H9Y 5796   3.846   5.273   6.467 -2.6597  0.4512 -2.3696
   68SAPC  C310 5797   3.925   5.460   6.535 -0.0647  0.6826 -0.0603
   68SAPC  H10X 5798   3.861   5.543   6.500 -2.6578 -0.0584  2.5145
   68SAPC  H10Y 5799   4.030   5.494   6.549  0.2705 -0.8499  1.4497
   68SAPC  C311 5800   3.878   5.427   6.683  0.3546 -0.0003  0.5668
   68SAPC  H11X 5801   3.777   5.382   6.675  0.3350 -0.4270  2.7766
   68SAPC  H11Y 5802   3.860   5.527   6.729 -0.4235  1.3627 -2.4071
   68SAPC  C312 5803   3.982   5.343   6.762  0.7655  0.8841  0.2876
   68SAPC  H12X 5804   4.086   5.381   6.764  1.1380 -0.1557  1.6003
   68SAPC  H12Y 5805   3.984   5.240   6.719  1.3677  0.6289  0.9091
   68SAPC  C313 5806   3.928   5.321   6.908  0.0370 -0.5245  0.1620
   68SAPC  H13X 5807   3.834   5.262   6.907 -0.1097 -0.2889 -0.1892
   68SAPC  H13Y 5808   3.908   5.421   6.951 -0.0036 -1.5270  2.6259
   68SAPC  C314 5809   4.028   5.250   6.998  0.0178  0.8865  0.5370
   68SAPC  H14X 5810   4.128   5.286   6.966  1.0356 -1.4383  0.8875
   68SAPC  H14Y 5811   4.023   5.141   6.974  2.0879  1.0787 -1.0605
   68SAPC  C315 5812   4.002   5.260   7.150  0.1642  0.4431 -0.1381
   68SAPC  H15X 5813   4.028   5.362   7.186  3.8815 -0.0466 -1.0311
   68SAPC  H15Y 5814   4.076   5.190   7.195  0.1646  0.6386  0.1720
   68SAPC  C316 5815   3.869   5.207   7.192  0.6422  0.2315 -0.3223
   68SAPC  H16X 5816   3.857   5.098   7.176  0.7805  0.3429 -1.2392
   68SAPC  H16Y 5817   3.797   5.269   7.134  0.6303  1.1716  0.6609
   68SAPC  C317 5818   3.836   5.236   7.336  0.3231  0.3398  0.7199
   68SAPC  H17X 5819   3.856   5.340   7.367  0.0510  0.4777  0.4397
   68SAPC  H17Y 5820   3.891   5.165   7.402  1.1288 -0.4696 -0.7735
   68SAPC  C318 5821   3.690   5.194   7.360  0.7384 -0.0677 -0.2788
   68SAPC  H18X 5822   3.616   5.268   7.323 -2.5428 -1.3373  3.0744
   68SAPC  H18Y 5823   3.670   5.177   7.468  2.1667  0.6351  0.1296
   68SAPC  H18Z 5824   3.665   5.099   7.307 -1.4761  0.6427 -0.5881
   69SAPC     N 5825   3.920   1.832   5.138  0.2837  0.7949  0.0321
   69SAPC   C12 5826   4.004   1.855   5.263  0.2992  0.4330  0.2093
   69SAPC  H12A 5827   4.083   1.781   5.259  0.9235  1.0273  1.2806
   69SAPC  H12B 5828   3.947   1.820   5.347  1.8640  1.1957  1.6525
   69SAPC   C13 5829   3.793   1.902   5.150 -0.1107  0.1501  0.1435
   69SAPC  H13A 5830   3.724   1.840   5.205 -1.5977  0.7707 -0.9643
   69SAPC  H13B 5831   3.799   1.992   5.210  2.1447 -1.6611  2.8826
   69SAPC  H13C 5832   3.758   1.931   5.052  1.1449 -2.0729 -1.0503
   69SAPC   C14 5833   3.981   1.878   5.016  0.2748  0.1958 -0.4907
   69SAPC  H14A 5834   3.907   1.880   4.937  0.1244 -1.2768 -0.4123
   69SAPC  H14B 5835   4.031   1.973   5.030  1.1022 -0.3647  0.4293
   69SAPC  H14C 5836   4.057   1.809   4.981  0.1104 -0.7179  0.8982
   69SAPC   C15 5837   3.897   1.683   5.131  0.5064  0.2145  0.7911
   69SAPC  H15A 5838   3.990   1.629   5.120  0.3657  0.0925  0.2035
   69SAPC  H15B 5839   3.843   1.656   5.220 -1.0728 -0.1019 -0.2308
   69SAPC  H15C 5840   3.835   1.650   5.050 -0.0179  0.8799  0.9134
   69SAPC   C11 5841   4.050   2.007   5.288  0.4255 -0.0852  0.8027
   69SAPC  H11A 5842   4.116   2.039   5.205  1.2234  3.1624  2.5036
   69SAPC  H11B 5843   4.119   1.999   5.374  0.9564 -1.3323  0.2848
   69SAPC     P 5844   3.879   2.151   5.429 -0.2780 -0.6085 -0.5450
   69SAPC   O13 5845   3.974   2.253   5.488  0.3469 -0.3903  0.1040
   69SAPC   O14 5846   3.742   2.195   5.412 -0.4865  0.1020 -0.2196
   69SAPC   O12 5847   3.935   2.096   5.291  0.5749 -0.9949 -0.2487
   69SAPC   O11 5848   3.887   2.018   5.515 -0.4345  0.0698 -0.3292
   69SAPC    C1 5849   3.830   2.016   5.651 -0.3203  0.2523  0.1660
   69SAPC    HA 5850   3.906   2.071   5.712 -1.1251  0.3891  1.0816
   69SAPC    HB 5851   3.735   2.074   5.653 -0.1758  0.4883  0.2708
   69SAPC    C2 5852   3.806   1.867   5.684 -0.3078 -0.6799  0.5507
   69SAPC    HS 5853   3.710   1.828   5.646 -0.2053 -1.6777  1.2868
   69SAPC   O21 5854   3.804   1.862   5.824 -0.4014  0.7782 -0.2836
   69SAPC   C21 5855   3.703   1.908   5.893  0.9376 -0.4715 -0.0241
   69SAPC   O22 5856   3.600   1.948   5.840  0.4119  0.4454 -0.0318
   69SAPC   C22 5857   3.717   1.901   6.043 -0.3419 -0.6088 -0.1231
   69SAPC   H2R 5858   3.822   1.878   6.072 -0.2457  1.8953  1.8401
   69SAPC   H2S 5859   3.690   2.003   6.077 -0.5313 -0.1711 -1.5281
   69SAPC    C3 5860   3.915   1.777   5.623 -0.1210 -0.1851 -0.9752
   69SAPC    HX 5861   4.015   1.804   5.662 -0.4355 -0.7892  0.3261
   69SAPC    HY 5862   3.916   1.786   5.512 -1.0688 -0.7361 -1.0427
   69SAPC   O31 5863   3.892   1.634   5.659 -0.2304  0.1724  0.7946
   69SAPC   C31 5864   3.804   1.570   5.580  0.7781  1.2453 -0.4885
   69SAPC   O32 5865   3.749   1.618   5.485  0.1742 -0.2716 -0.2723
   69SAPC   C32 5866   3.782   1.425   5.628 -0.6774 -0.0589  0.0996
   69SAPC   H2X 5867   3.856   1.360   5.577 -2.3153 -0.6313 -1.6444
   69SAPC   H2Y 5868   3.681   1.393   5.597  0.5049 -0.5088 -3.8208
   69SAPC   C23 5869   3.634   1.805   6.132 -0.4381 -0.0552  0.2267
   69SAPC   H3R 5870   3.639   1.701   6.094  0.1129  0.2657 -0.6050
   69SAPC   H3S 5871   3.535   1.852   6.114  1.2937  3.8079 -0.3759
   69SAPC   C24 5872   3.675   1.811   6.276 -0.0107 -0.4198 -0.1379
   69SAPC   H4R 5873   3.776   1.767   6.291 -0.4444 -1.2191  0.5203
   69SAPC   H4S 5874   3.602   1.748   6.332 -0.6104  0.1935 -0.2247
   69SAPC   C25 5875   3.671   1.949   6.338  0.6335  0.6222 -0.1404
   69SAPC   H5R 5876   3.595   2.017   6.295 -1.1736 -1.5101 -0.5082
   69SAPC   C26 5877   3.747   1.998   6.439 -0.0163 -0.2147  0.7977
   69SAPC   H6R 5878   3.715   2.099   6.469 -1.5814 -0.4250 -0.0519
   69SAPC   C27 5879   3.862   1.936   6.513  0.0769  0.2885  0.4330
   69SAPC   H7R 5880   3.965   1.956   6.478  0.5590 -0.9178  1.1295
   69SAPC   H7S 5881   3.856   1.826   6.503  0.3757  0.3477 -0.5352
   69SAPC   C28 5882   3.868   1.975   6.658 -0.0613 -0.3835  0.0235
   69SAPC   H8R 5883   3.904   2.077   6.674 -0.5861 -0.3702  1.2289
   69SAPC   C29 5884   3.833   1.906   6.770  0.7036  0.3604 -0.4801
   69SAPC   H9R 5885   3.832   1.953   6.869 -3.7406 -1.2067  0.4381
   69SAPC  C210 5886   3.775   1.760   6.770  0.8695 -0.4624  0.3479
   69SAPC  H10R 5887   3.708   1.757   6.681  0.3110  1.8752  0.6159
   69SAPC  H10S 5888   3.710   1.738   6.857 -0.3514 -0.7597 -0.5983
   69SAPC  C211 5889   3.876   1.647   6.747 -0.2631 -0.3112 -0.1372
   69SAPC  H11R 5890   3.930   1.656   6.651 -0.4578  1.8648 -0.0834
   69SAPC  C212 5891   3.904   1.535   6.824 -0.1138 -0.1232  0.5293
   69SAPC  H12R 5892   3.985   1.472   6.786 -0.2620  0.3591 -0.6425
   69SAPC  C213 5893   3.857   1.502   6.965  0.4614  0.2200  0.4769
   69SAPC  H13R 5894   3.906   1.408   6.997 -1.0267 -0.3381  1.2271
   69SAPC  H13S 5895   3.749   1.480   6.952  0.5944  0.6191 -1.7962
   69SAPC  C214 5896   3.877   1.607   7.074 -0.4011  0.2578 -0.0574
   69SAPC  H14R 5897   3.884   1.712   7.043  0.4807  0.0951 -0.4438
   69SAPC  C215 5898   3.916   1.573   7.205 -0.2411 -0.8529  0.1932
   69SAPC  H15R 5899   3.944   1.655   7.272 -2.7668 -0.3195  0.7197
   69SAPC  C216 5900   3.916   1.437   7.263  0.7155 -0.9171 -0.4301
   69SAPC  H16R 5901   3.863   1.359   7.205 -0.0269  0.1863 -1.2979
   69SAPC  H16S 5902   3.865   1.451   7.360  0.7355 -0.6897 -0.4514
   69SAPC  C217 5903   4.058   1.381   7.294  0.0155 -0.3326  0.3598
   69SAPC  H17R 5904   4.091   1.462   7.364 -2.2360  2.2407 -1.3624
   69SAPC  H17S 5905   4.130   1.386   7.209 -0.1982  2.1405  0.2521
   69SAPC  C218 5906   4.049   1.254   7.360 -0.2134  0.9909  0.1350
   69SAPC  H18R 5907   3.999   1.178   7.295  1.0263 -1.2263  1.6409
   69SAPC  H18S 5908   3.981   1.265   7.447  1.8343  0.4538  1.8787
   69SAPC  C219 5909   4.183   1.196   7.412 -0.0254  0.3242  0.2991
   69SAPC  H19R 5910   4.209   1.262   7.497 -2.0112  0.2088  1.0641
   69SAPC  H19S 5911   4.264   1.210   7.337  0.9109  2.6795  1.6468
   69SAPC  C220 5912   4.170   1.062   7.478  0.0696  0.5453  0.2301
   69SAPC  H20R 5913   4.262   1.025   7.529  0.0761 -0.8394 -0.7107
   69SAPC  H20S 5914   4.154   0.984   7.400 -3.2735  1.8910 -0.5756
   69SAPC  H20T 5915   4.093   1.055   7.557 -1.2301  1.2905 -0.9329
   69SAPC   C33 5916   3.789   1.409   5.785 -0.4663  0.8268  0.2041
   69SAPC   H3X 5917   3.717   1.476   5.837 -1.5227 -1.1134  1.3467
   69SAPC   H3Y 5918   3.896   1.432   5.806  0.7472 -2.1216 -2.0576
   69SAPC   C34 5919   3.766   1.270   5.829  0.0788 -0.6106 -0.2799
   69SAPC   H4X 5920   3.834   1.200   5.776  0.2433 -1.6549  1.2370
   69SAPC   H4Y 5921   3.664   1.246   5.793 -0.1402  1.7335 -1.4203
   69SAPC   C35 5922   3.784   1.254   5.980 -0.0779  0.4507 -0.7321
   69SAPC   H5X 5923   3.869   1.314   6.018  0.5511 -1.8098  1.7610
   69SAPC   H5Y 5924   3.801   1.144   5.991 -0.7243  0.1334 -2.5130
   69SAPC   C36 5925   3.662   1.304   6.059 -0.3185  0.0148  0.0733
   69SAPC   H6X 5926   3.567   1.251   6.036 -0.9415  0.8724  0.6354
   69SAPC   H6Y 5927   3.646   1.412   6.043  0.7989  0.0112 -1.2639
   69SAPC   C37 5928   3.692   1.285   6.213 -0.1735 -0.1663  0.2069
   69SAPC   H7X 5929   3.782   1.346   6.239  0.6004 -0.9212 -0.6048
   69SAPC   H7Y 5930   3.722   1.181   6.236  2.2316  0.3757 -0.1373
   69SAPC   C38 5931   3.571   1.321   6.305 -0.0693 -0.1502 -0.1198
   69SAPC   H8X 5932   3.485   1.257   6.278 -0.2548 -0.4693  1.1676
   69SAPC   H8Y 5933   3.530   1.423   6.286  0.5558 -0.1656 -1.7206
   69SAPC   C39 5934   3.610   1.280   6.447 -0.5079  0.8528 -0.6916
   69SAPC   H9X 5935   3.699   1.339   6.475  2.0247 -2.5400 -0.9796
   69SAPC   H9Y 5936   3.654   1.178   6.449 -3.6926 -0.6694 -0.8716
   69SAPC  C310 5937   3.506   1.305   6.564 -0.4031 -0.3409  0.8249
   69SAPC  H10X 5938   3.419   1.236   6.553  0.5875 -1.3013 -1.8161
   69SAPC  H10Y 5939   3.469   1.404   6.531 -0.6511 -0.8084 -0.3558
   69SAPC  C311 5940   3.560   1.307   6.708 -0.1113 -1.1469 -0.1467
   69SAPC  H11X 5941   3.594   1.412   6.722  1.0222 -1.1144 -2.6211
   69SAPC  H11Y 5942   3.638   1.227   6.703 -1.1862 -2.1801 -0.8936
   69SAPC  C312 5943   3.442   1.266   6.801 -0.1593 -0.8013  0.0191
   69SAPC  H12X 5944   3.398   1.169   6.769 -1.5835 -0.4491  0.8081
   69SAPC  H12Y 5945   3.354   1.331   6.778  0.5410  1.0920  2.2267
   69SAPC  C313 5946   3.486   1.281   6.947 -0.0533 -0.7136 -0.8922
   69SAPC  H13X 5947   3.524   1.381   6.976  1.1637 -0.4757 -3.0940
   69SAPC  H13Y 5948   3.574   1.215   6.959  0.4207 -0.1386 -1.1760
   69SAPC  C314 5949   3.362   1.241   7.041 -0.3751 -0.1746  0.6894
   69SAPC  H14X 5950   3.321   1.146   7.000  0.4482 -0.1247 -0.2914
   69SAPC  H14Y 5951   3.279   1.313   7.030  1.1621  1.9829  2.2618
   69SAPC  C315 5952   3.392   1.230   7.195  0.7501  0.8929  0.2007
   69SAPC  H15X 5953   3.470   1.151   7.204 -0.3799 -0.6281 -2.4455
   69SAPC  H15Y 5954   3.295   1.201   7.241 -0.8946  4.5671 -0.5218
   69SAPC  C316 5955   3.439   1.364   7.256 -0.3971 -0.2901 -0.0498
   69SAPC  H16X 5956   3.526   1.407   7.202 -1.8434  1.0839 -1.4137
   69SAPC  H16Y 5957   3.478   1.321   7.351 -1.3984  0.2211  0.6023
   69SAPC  C317 5958   3.346   1.475   7.275 -0.0930  0.5263 -0.1587
   69SAPC  H17X 5959   3.262   1.455   7.345  0.3752 -0.3374  0.1840
   69SAPC  H17Y 5960   3.314   1.502   7.172 -1.2704  0.7489  0.2464
   69SAPC  C318 5961   3.407   1.598   7.340  0.4076 -0.4367  0.1054
   69SAPC  H18X 5962   3.418   1.590   7.451 -0.7918 -0.5750  0.2204
   69SAPC  H18Y 5963   3.367   1.696   7.306  0.6755 -0.0635  0.8230
   69SAPC  H18Z 5964   3.505   1.603   7.288 -0.7063  1.4249 -1.9707
   70SAPC     N 5965   1.341   0.566   4.754  0.2158 -0.7586 -0.2293
   70SAPC   C12 5966   1.305   0.568   4.903 -0.3119 -0.3906  0.2986
   70SAPC  H12A 5967   1.197   0.577   4.898 -0.2922 -0.6585 -1.3875
   70SAPC  H12B 5968   1.351   0.655   4.947  2.6292 -2.4898  1.6569
   70SAPC   C13 5969   1.273   0.690   4.693 -0.1618 -0.4507 -0.0532
   70SAPC  H13A 5970   1.166   0.685   4.681 -0.0634 -0.5455 -0.9189
   70SAPC  H13B 5971   1.310   0.775   4.749  0.7211 -0.9997  0.2131
   70SAPC  H13C 5972   1.311   0.702   4.593 -2.7340 -1.9605 -1.3211
   70SAPC   C14 5973   1.491   0.587   4.738 -0.1313  0.0482  0.3603
   70SAPC  H14A 5974   1.546   0.526   4.809  0.1828 -0.0776  0.0149
   70SAPC  H14B 5975   1.527   0.557   4.641 -2.4859  0.4442 -0.7046
   70SAPC  H14C 5976   1.529   0.686   4.761 -0.1798  0.4145 -1.0738
   70SAPC   C15 5977   1.293   0.449   4.684  0.1646  0.7986  0.4702
   70SAPC  H15A 5978   1.187   0.438   4.701 -0.1051  0.4542 -1.2136
   70SAPC  H15B 5979   1.311   0.454   4.577  0.4526  1.4614  0.5424
   70SAPC  H15C 5980   1.340   0.359   4.720 -0.6922  0.4555  0.7614
   70SAPC   C11 5981   1.350   0.449   4.991 -0.1034  0.7640  0.1751
   70SAPC  H11A 5982   1.325   0.354   4.939  2.3071  1.0576 -1.6490
   70SAPC  H11B 5983   1.287   0.461   5.082 -2.1034 -0.7184 -0.9332
   70SAPC     P 5984   1.541   0.563   5.123  0.2719 -0.3576  0.3465
   70SAPC   O13 5985   1.687   0.546   5.138 -0.2603  0.6870 -0.1320
   70SAPC   O14 5986   1.481   0.694   5.087  0.2410  0.4486 -0.9447
   70SAPC   O12 5987   1.492   0.459   5.013  0.4439  0.3621  0.0403
   70SAPC   O11 5988   1.465   0.509   5.254  0.4474  0.2250  0.5021
   70SAPC    C1 5989   1.500   0.385   5.316 -0.6667 -0.0787  0.2958
   70SAPC    HA 5990   1.403   0.331   5.323 -0.4239 -0.3599  2.3019
   70SAPC    HB 5991   1.573   0.326   5.256 -0.1602 -1.4746  2.1725
   70SAPC    C2 5992   1.566   0.418   5.456 -0.0966 -0.2770  0.0152
   70SAPC    HS 5993   1.655   0.352   5.466  0.6548  0.8604  1.0652
   70SAPC   O21 5994   1.468   0.396   5.556  0.4455  0.1676 -0.2762
   70SAPC   C21 5995   1.439   0.266   5.567 -0.3740 -0.0705  0.4006
   70SAPC   O22 5996   1.507   0.175   5.522  0.4197 -0.8518  0.1588
   70SAPC   C22 5997   1.311   0.247   5.651  0.0773  0.4747 -1.0601
   70SAPC   H2R 5998   1.307   0.322   5.733  2.1092 -1.3319  0.8264
   70SAPC   H2S 5999   1.223   0.259   5.585 -0.1187  1.2834 -0.6701
   70SAPC    C3 6000   1.625   0.560   5.472 -0.7518 -0.6301 -0.3732
   70SAPC    HX 6001   1.535   0.623   5.456 -0.4121  0.4084  1.5421
   70SAPC    HY 6002   1.701   0.579   5.394 -0.0530  0.6798  0.5860
   70SAPC   O31 6003   1.682   0.572   5.610 -0.4693 -0.3573 -0.1141
   70SAPC   C31 6004   1.690   0.689   5.660  0.1022 -0.4818 -0.6801
   70SAPC   O32 6005   1.664   0.798   5.598 -0.0418 -0.0055  0.6391
   70SAPC   C32 6006   1.729   0.691   5.814  0.0908  0.2842  0.9603
   70SAPC   H2X 6007   1.812   0.765   5.811  0.9696 -0.6607 -1.9661
   70SAPC   H2Y 6008   1.767   0.590   5.840  1.6358  0.7488  0.5926
   70SAPC   C23 6009   1.301   0.100   5.693 -0.3198  0.0398 -0.5996
   70SAPC   H3R 6010   1.316   0.027   5.611 -0.3580 -0.9625  0.2648
   70SAPC   H3S 6011   1.196   0.082   5.726 -0.0625 -1.1019 -0.3816
   70SAPC   C24 6012   1.397   0.069   5.812 -0.3634  0.4120 -0.1368
   70SAPC   H4R 6013   1.497   0.111   5.784 -0.8087  0.5667 -1.5544
   70SAPC   H4S 6014   1.409  -0.041   5.812  1.8373  0.5962 -0.2939
   70SAPC   C25 6015   1.365   0.122   5.951  0.2524 -0.4197 -0.0091
   70SAPC   H5R 6016   1.301   0.212   5.951 -0.3438 -0.8041  1.9574
   70SAPC   C26 6017   1.410   0.093   6.071  0.1601  0.1188  0.3905
   70SAPC   H6R 6018   1.370   0.153   6.154 -0.0654  1.4511 -0.6406
   70SAPC   C27 6019   1.505  -0.022   6.101 -0.2858 -0.3666  0.5642
   70SAPC   H7R 6020   1.590   0.024   6.157 -1.5336  1.8971  0.7259
   70SAPC   H7S 6021   1.535  -0.071   6.006  0.4041  1.2563 -0.0949
   70SAPC   C28 6022   1.434  -0.133   6.177  0.0374  0.8880  0.7140
   70SAPC   H8R 6023   1.404  -0.212   6.106  3.7547 -1.8108  1.8035
   70SAPC   C29 6024   1.415  -0.159   6.309 -0.1487 -0.4977 -0.3688
   70SAPC   H9R 6025   1.357  -0.246   6.343 -1.2598  0.3397 -0.0585
   70SAPC  C210 6026   1.459  -0.057   6.419 -0.5399  0.3712 -0.2252
   70SAPC  H10R 6027   1.369  -0.022   6.473 -1.4449 -0.9399 -0.8046
   70SAPC  H10S 6028   1.513   0.029   6.375  0.1799  0.2136  0.3219
   70SAPC  C211 6029   1.555  -0.122   6.515 -0.3649 -0.6402  0.2897
   70SAPC  H11R 6030   1.658  -0.118   6.477 -0.9394  1.6106 -1.1806
   70SAPC  C212 6031   1.541  -0.172   6.642  0.1004  0.6434 -0.5560
   70SAPC  H12R 6032   1.634  -0.205   6.691 -0.9007 -0.7680  0.4621
   70SAPC  C213 6033   1.414  -0.188   6.721 -0.4882  0.7145  0.0315
   70SAPC  H13R 6034   1.328  -0.171   6.652 -0.5209  0.8514  0.1052
   70SAPC  H13S 6035   1.396  -0.097   6.783 -2.2758  0.1563  0.3767
   70SAPC  C214 6036   1.396  -0.319   6.798  0.1377 -0.0690 -0.4164
   70SAPC  H14R 6037   1.460  -0.401   6.763 -0.6328 -0.8661 -0.0144
   70SAPC  C215 6038   1.335  -0.327   6.913 -0.1230 -0.0357 -0.5114
   70SAPC  H15R 6039   1.334  -0.427   6.960  0.0255  0.1697 -0.0754
   70SAPC  C216 6040   1.253  -0.221   6.992 -0.1654 -0.2056  0.2728
   70SAPC  H16R 6041   1.258  -0.116   6.954  1.7885  0.2759  1.7128
   70SAPC  H16S 6042   1.289  -0.209   7.096 -0.0071 -1.3066  0.3503
   70SAPC  C217 6043   1.107  -0.271   7.021  0.2908 -0.9869 -0.2414
   70SAPC  H17R 6044   1.076  -0.203   7.103  0.7271 -1.2301  0.1322
   70SAPC  H17S 6045   1.111  -0.374   7.062 -0.9227 -1.3836 -1.0704
   70SAPC  C218 6046   1.005  -0.243   6.907 -0.7888 -0.5852 -0.8065
   70SAPC  H18R 6047   1.006  -0.134   6.883 -1.0353 -0.4593 -0.2676
   70SAPC  H18S 6048   0.909  -0.252   6.961 -0.1683  2.3127  1.0075
   70SAPC  C219 6049   1.017  -0.334   6.788 -0.3476  0.0942  0.1672
   70SAPC  H19R 6050   1.027  -0.444   6.798  3.4118  0.3302  0.2560
   70SAPC  H19S 6051   1.118  -0.314   6.747  1.1801 -2.0007  2.6123
   70SAPC  C220 6052   0.915  -0.314   6.677 -0.6021  0.1096 -0.4677
   70SAPC  H20R 6053   0.917  -0.208   6.642  0.2669  0.6996  1.2498
   70SAPC  H20S 6054   0.818  -0.339   6.723  0.6343 -2.8442  0.7852
   70SAPC  H20T 6055   0.919  -0.388   6.594 -0.6422 -0.3078 -0.0991
   70SAPC   C33 6056   1.616   0.749   5.909  0.0483  0.5013 -0.3848
   70SAPC   H3X 6057   1.525   0.688   5.891 -1.3413  1.7505  1.8984
   70SAPC   H3Y 6058   1.599   0.858   5.898  0.0267  0.7090  1.4149
   70SAPC   C34 6059   1.626   0.709   6.054 -0.2058  0.9107 -0.4918
   70SAPC   H4X 6060   1.703   0.779   6.094  1.2554 -0.3677 -0.9395
   70SAPC   H4Y 6061   1.656   0.604   6.075  1.5681  1.6297  0.8542
   70SAPC   C35 6062   1.494   0.734   6.132 -0.0501 -0.2764  0.2282
   70SAPC   H5X 6063   1.528   0.704   6.233  1.5250  0.8021  0.0541
   70SAPC   H5Y 6064   1.415   0.664   6.099 -0.5784  1.2475 -1.9532
   70SAPC   C36 6065   1.458   0.883   6.149 -0.4964  0.5622 -0.1134
   70SAPC   H6X 6066   1.419   0.920   6.052 -0.9864 -1.7557 -0.8695
   70SAPC   H6Y 6067   1.543   0.950   6.173  1.8367 -0.9771 -3.3546
   70SAPC   C37 6068   1.358   0.907   6.262 -0.6208  0.7375  0.8244
   70SAPC   H7X 6069   1.336   1.016   6.261 -1.3373  0.6132 -0.5677
   70SAPC   H7Y 6070   1.259   0.860   6.241  0.7505 -0.9039 -2.9169
   70SAPC   C38 6071   1.417   0.886   6.402 -0.4110 -0.1008  0.0380
   70SAPC   H8X 6072   1.498   0.959   6.422 -1.0788  0.2972  1.4249
   70SAPC   H8Y 6073   1.458   0.784   6.418  0.0888 -0.0446 -0.8116
   70SAPC   C39 6074   1.323   0.920   6.519  0.4699  0.8518  0.5419
   70SAPC   H9X 6075   1.231   0.858   6.506 -0.1560  2.3595 -4.2705
   70SAPC   H9Y 6076   1.287   1.024   6.503  0.5205  0.7540 -0.2625
   70SAPC  C310 6077   1.390   0.910   6.658  0.9992 -0.2329  0.4894
   70SAPC  H10X 6078   1.472   0.984   6.646 -0.2155  1.3055  1.2655
   70SAPC  H10Y 6079   1.438   0.810   6.666 -0.8395 -1.2392 -0.4854
   70SAPC  C311 6080   1.317   0.955   6.781  0.2523  0.1264 -0.4347
   70SAPC  H11X 6081   1.276   1.057   6.765  1.3953  0.7910  0.6712
   70SAPC  H11Y 6082   1.385   0.965   6.868  0.3417  0.7853 -0.5747
   70SAPC  C312 6083   1.206   0.865   6.830 -0.9083  0.5745 -0.2222
   70SAPC  H12X 6084   1.250   0.763   6.826  1.0378  1.4041 -2.2716
   70SAPC  H12Y 6085   1.130   0.863   6.748 -0.6240 -0.7620 -0.4770
   70SAPC  C313 6086   1.144   0.915   6.955  0.0842  0.3670 -0.4875
   70SAPC  H13X 6087   1.102   1.017   6.939  0.2919  0.4138 -0.7387
   70SAPC  H13Y 6088   1.221   0.916   7.035  0.9725 -0.6938 -1.3050
   70SAPC  C314 6089   1.018   0.834   7.009 -0.8300  0.1123  0.1780
   70SAPC  H14X 6090   0.983   0.782   6.917 -0.1216  0.4761 -0.3114
   70SAPC  H14Y 6091   0.946   0.908   7.051  1.7171  1.5739  2.2836
   70SAPC  C315 6092   1.046   0.735   7.120 -0.9917 -0.2886  0.3446
   70SAPC  H15X 6093   1.143   0.686   7.099 -0.6843  1.2946 -2.3997
   70SAPC  H15Y 6094   0.973   0.651   7.119  0.4385 -1.6999  2.9162
   70SAPC  C316 6095   1.054   0.790   7.259 -0.3702 -0.8246 -0.2005
   70SAPC  H16X 6096   1.139   0.862   7.253 -1.5958  0.6728 -0.2733
   70SAPC  H16Y 6097   1.079   0.708   7.330 -1.8149 -1.1532 -0.0430
   70SAPC  C317 6098   0.917   0.859   7.312  0.4410 -0.6255  1.0907
   70SAPC  H17X 6099   0.835   0.792   7.279  1.0869 -0.1185 -1.7687
   70SAPC  H17Y 6100   0.899   0.951   7.254 -1.5251 -1.7319 -0.1717
   70SAPC  C318 6101   0.920   0.883   7.461  0.0736  0.0638 -0.3327
   70SAPC  H18X 6102   0.926   0.788   7.516  2.6726 -0.8249 -1.9842
   70SAPC  H18Y 6103   0.832   0.944   7.491 -1.5709 -1.1821 -2.2801
   70SAPC  H18Z 6104   1.010   0.942   7.488  1.0500 -1.1571 -0.8590
   71SAPC     N 6105   6.722   6.020   4.578  0.3327 -0.4827 -0.2545
   71SAPC   C12 6106   6.746   6.103   4.702 -0.3544  0.0621 -0.3988
   71SAPC  H12A 6107   6.659   6.097   4.766 -0.8656 -0.0838 -1.0970
   71SAPC  H12B 6108   6.742   6.207   4.673  2.4524  0.1368 -0.7826
   71SAPC   C13 6109   6.596   6.070   4.525 -0.7162 -0.4715 -0.2241
   71SAPC  H13A 6110   6.596   6.176   4.507  1.9291 -0.2944  0.3784
   71SAPC  H13B 6111   6.585   6.014   4.434 -3.7596  0.9339 -0.8501
   71SAPC  H13C 6112   6.512   6.041   4.587 -0.6910 -2.6502 -1.1098
   71SAPC   C14 6113   6.818   6.058   4.471  0.1719 -0.1042  0.4850
   71SAPC  H14A 6114   6.798   6.021   4.371  0.8499 -0.0409  0.3232
   71SAPC  H14B 6115   6.835   6.164   4.464  0.9967 -0.3048 -0.9310
   71SAPC  H14C 6116   6.916   6.020   4.495  0.4862  0.3807 -0.0017
   71SAPC   C15 6117   6.726   5.872   4.599  0.4525 -0.2537  0.5937
   71SAPC  H15A 6118   6.710   5.828   4.501 -1.9506  1.3926  0.1633
   71SAPC  H15B 6119   6.825   5.848   4.634  0.2874  0.9525  1.9456
   71SAPC  H15C 6120   6.653   5.844   4.673 -1.2357 -1.1768 -1.3127
   71SAPC   C11 6121   6.874   6.080   4.797 -0.1457  0.0413 -0.6676
   71SAPC  H11A 6122   6.885   6.171   4.860  2.7068 -0.1925 -0.6727
   71SAPC  H11B 6123   6.966   6.076   4.734 -0.8840  0.8045 -1.8237
   71SAPC     P 6124   6.776   5.950   4.992  0.1597  0.4477 -0.2871
   71SAPC   O13 6125   6.662   6.042   4.981  0.3259 -1.0472 -0.1338
   71SAPC   O14 6126   6.739   5.815   5.022 -0.6505  0.1150  0.1932
   71SAPC   O12 6127   6.868   5.958   4.874  0.2204 -0.3364  0.0700
   71SAPC   O11 6128   6.863   5.987   5.112  0.1458 -1.1511 -0.1718
   71SAPC    C1 6129   7.007   6.020   5.102  0.3943  0.5277  0.2777
   71SAPC    HA 6130   7.055   5.940   5.043 -0.3019 -1.3690  2.1696
   71SAPC    HB 6131   7.010   6.121   5.054  1.3327  0.9676  1.2282
   71SAPC    C2 6132   7.071   6.031   5.241 -0.2787  0.4941 -0.7660
   71SAPC    HS 6133   7.176   6.057   5.215  0.4763 -0.8667  0.7182
   71SAPC   O21 6134   7.068   5.912   5.324 -0.1902  0.0660 -0.0205
   71SAPC   C21 6135   7.137   5.817   5.290  0.7050 -0.2732  0.2648
   71SAPC   O22 6136   7.204   5.797   5.188 -0.6796 -0.1455  0.1814
   71SAPC   C22 6137   7.122   5.700   5.389  0.3583 -0.2326  0.3764
   71SAPC   H2R 6138   7.035   5.704   5.457  2.1541 -0.8144  2.8331
   71SAPC   H2S 6139   7.109   5.607   5.328 -0.2710 -0.1020  0.3076
   71SAPC    C3 6140   7.007   6.153   5.310  0.6308  0.3604 -0.3450
   71SAPC    HX 6141   6.897   6.149   5.326  0.9664  0.7012  2.4874
   71SAPC    HY 6142   7.023   6.238   5.241  1.6072  1.6636  1.4026
   71SAPC   O31 6143   7.075   6.201   5.433 -0.2966 -0.2993  0.8175
   71SAPC   C31 6144   7.017   6.161   5.541  0.4665  0.0481 -0.0806
   71SAPC   O32 6145   6.912   6.100   5.556  0.1224 -0.0274 -0.2966
   71SAPC   C32 6146   7.108   6.191   5.660  0.8801  0.1953 -0.4145
   71SAPC   H2X 6147   7.118   6.301   5.672  2.3001  0.2267 -1.5714
   71SAPC   H2Y 6148   7.214   6.157   5.649  1.1610  0.7242  0.5968
   71SAPC   C23 6149   7.252   5.673   5.465  0.3249 -0.1384 -0.6554
   71SAPC   H3R 6150   7.336   5.633   5.404  0.6926 -0.7762  0.2580
   71SAPC   H3S 6151   7.226   5.589   5.532  1.3739 -0.6502 -0.8720
   71SAPC   C24 6152   7.284   5.790   5.561 -0.2238  0.3738  0.0364
   71SAPC   H4R 6153   7.206   5.806   5.639  0.9647  0.7347  1.1912
   71SAPC   H4S 6154   7.275   5.887   5.508 -0.4449  0.1375 -0.3630
   71SAPC   C25 6155   7.418   5.767   5.633 -0.0178 -1.0958 -0.2074
   71SAPC   H5R 6156   7.506   5.780   5.567  0.4793  0.4258  0.7015
   71SAPC   C26 6157   7.447   5.768   5.765 -0.5792 -0.1147 -0.0396
   71SAPC   H6R 6158   7.544   5.736   5.806 -0.5008 -1.2724 -1.0541
   71SAPC   C27 6159   7.345   5.782   5.884  0.2375  0.0152 -0.0225
   71SAPC   H7R 6160   7.360   5.701   5.959  0.1186  2.3217  2.6636
   71SAPC   H7S 6161   7.243   5.770   5.844  0.6694 -0.7167 -0.9347
   71SAPC   C28 6162   7.352   5.916   5.956  0.3029 -0.5728  0.5247
   71SAPC   H8R 6163   7.354   6.005   5.891  1.6920 -0.6551  0.4415
   71SAPC   C29 6164   7.367   5.932   6.088  0.1068 -0.0110 -0.2205
   71SAPC   H9R 6165   7.381   6.034   6.126 -0.1557 -0.3031  0.6801
   71SAPC  C210 6166   7.374   5.833   6.202  0.2461  0.1910 -0.1874
   71SAPC  H10R 6167   7.484   5.819   6.212  0.6156  1.7762 -1.5925
   71SAPC  H10S 6168   7.337   5.732   6.176  1.4622 -0.3884  0.2557
   71SAPC  C211 6169   7.293   5.887   6.323 -0.5350 -0.2462  0.0377
   71SAPC  H11R 6170   7.185   5.865   6.326 -1.0375  1.9215 -0.5261
   71SAPC  C212 6171   7.350   5.951   6.425  0.0116  0.0014 -0.2668
   71SAPC  H12R 6172   7.289   5.984   6.511 -0.2400 -2.3586  0.5236
   71SAPC  C213 6173   7.492   5.985   6.440 -0.2043  0.2793 -0.0139
   71SAPC  H13R 6174   7.536   6.002   6.339 -0.5822  0.8574 -0.0845
   71SAPC  H13S 6175   7.534   5.891   6.481 -1.5728  0.0994  1.0542
   71SAPC  C214 6176   7.513   6.096   6.540 -0.8558  0.2042 -0.5090
   71SAPC  H14R 6177   7.501   6.196   6.497  2.5524 -0.1199 -2.5913
   71SAPC  C215 6178   7.571   6.083   6.665 -0.5964 -0.2358  0.8693
   71SAPC  H15R 6179   7.582   6.171   6.730  0.4384 -0.1552  0.5976
   71SAPC  C216 6180   7.622   5.952   6.723 -1.3430 -0.0674 -0.2690
   71SAPC  H16R 6181   7.590   5.856   6.678 -1.1355 -0.2246 -0.0818
   71SAPC  H16S 6182   7.584   5.950   6.827 -2.6527  0.1703 -0.7221
   71SAPC  C217 6183   7.776   5.939   6.712 -0.0316  0.2496  0.0658
   71SAPC  H17R 6184   7.807   5.953   6.606  0.7161 -0.7421  0.1399
   71SAPC  H17S 6185   7.797   5.835   6.746  0.2515  0.3143  0.0883
   71SAPC  C218 6186   7.858   6.042   6.795  0.3983 -0.6771 -0.5475
   71SAPC  H18R 6187   7.808   6.063   6.892  1.0243 -1.5853 -0.0103
   71SAPC  H18S 6188   7.861   6.135   6.734 -1.5031 -0.1175  0.1444
   71SAPC  C219 6189   7.997   5.987   6.832  0.4210  0.3231 -0.2433
   71SAPC  H19R 6190   7.983   5.883   6.869  1.0460  0.8158  1.4384
   71SAPC  H19S 6191   8.026   6.049   6.919 -2.3905  1.4524  0.0156
   71SAPC  C220 6192   8.106   6.005   6.728  1.0783  0.0464 -0.1738
   71SAPC  H20R 6193   8.205   5.968   6.764  0.3670 -1.1709  0.6005
   71SAPC  H20S 6194   8.116   6.114   6.711  2.7256 -0.1304 -0.5574
   71SAPC  H20T 6195   8.079   5.949   6.636 -0.9835  2.2445 -0.9982
   71SAPC   C33 6196   7.046   6.132   5.790  0.1952  0.2428  1.0647
   71SAPC   H3X 6197   7.087   6.029   5.802 -1.0045 -0.2244  1.2230
   71SAPC   H3Y 6198   6.936   6.134   5.806  0.2560  0.4421  1.4575
   71SAPC   C34 6199   7.081   6.206   5.922 -0.3092  0.4748 -0.1557
   71SAPC   H4X 6200   7.061   6.315   5.911  0.6610  0.8514  1.5249
   71SAPC   H4Y 6201   7.188   6.196   5.949 -0.2200  2.7610  0.5549
   71SAPC   C35 6202   6.986   6.166   6.038 -0.5797  0.3562 -0.5883
   71SAPC   H5X 6203   6.964   6.057   6.041 -0.0778  0.1839 -2.1985
   71SAPC   H5Y 6204   6.883   6.207   6.028 -1.0685 -0.7327 -0.2102
   71SAPC   C36 6205   7.047   6.217   6.173 -0.1477 -0.7042 -1.0643
   71SAPC   H6X 6206   7.078   6.322   6.152  2.4150 -1.5697 -2.0835
   71SAPC   H6Y 6207   7.136   6.158   6.201 -0.4586 -0.7536 -0.1630
   71SAPC   C37 6208   6.939   6.220   6.286  0.4568 -0.4345 -0.2876
   71SAPC   H7X 6209   6.851   6.268   6.239 -0.6358 -1.7649  0.3231
   71SAPC   H7Y 6210   6.957   6.294   6.367 -0.0818  2.1433 -2.3843
   71SAPC   C38 6211   6.897   6.082   6.337  1.0443  0.2287  0.4736
   71SAPC   H8X 6212   6.988   6.022   6.358  1.5962  1.2051  0.9795
   71SAPC   H8Y 6213   6.849   6.027   6.254  1.4133 -2.6640  2.0166
   71SAPC   C39 6214   6.797   6.090   6.455  0.3880  0.2515  0.2237
   71SAPC   H9X 6215   6.698   6.134   6.434  0.6483  2.1438  2.4242
   71SAPC   H9Y 6216   6.837   6.167   6.526 -0.0508 -1.1328  2.0605
   71SAPC  C310 6217   6.758   5.957   6.532 -0.6854  0.6178  0.5107
   71SAPC  H10X 6218   6.839   5.940   6.607 -2.4837 -0.3455  2.3303
   71SAPC  H10Y 6219   6.736   5.868   6.469 -2.5821  0.8423  0.8017
   71SAPC  C311 6220   6.631   5.977   6.620 -0.0649 -0.2564  0.5632
   71SAPC  H11X 6221   6.540   5.987   6.557 -0.8229  0.9748  1.8135
   71SAPC  H11Y 6222   6.631   6.076   6.671  0.1035 -0.2487  0.5503
   71SAPC  C312 6223   6.626   5.872   6.731  1.1330 -0.1649 -0.2446
   71SAPC  H12X 6224   6.699   5.901   6.810  0.5990 -0.1630  0.2527
   71SAPC  H12Y 6225   6.651   5.776   6.682 -0.5387  0.1087 -1.7411
   71SAPC  C313 6226   6.485   5.872   6.795 -0.3372  0.2693 -0.2013
   71SAPC  H13X 6227   6.412   5.830   6.722  0.6715  0.6751 -1.4793
   71SAPC  H13Y 6228   6.466   5.981   6.802  2.5888  0.8695 -0.4208
   71SAPC  C314 6229   6.473   5.807   6.933 -0.4545  0.0738  0.3110
   71SAPC  H14X 6230   6.554   5.849   6.996  0.1786 -0.1864 -0.3114
   71SAPC  H14Y 6231   6.487   5.697   6.933  2.4754  0.3513 -1.2296
   71SAPC  C315 6232   6.338   5.844   7.003 -0.8286  0.8657 -0.0378
   71SAPC  H15X 6233   6.260   5.779   6.958 -0.0490 -0.2810  0.2188
   71SAPC  H15Y 6234   6.324   5.952   6.980 -2.5149  0.7900  0.5137
   71SAPC  C316 6235   6.343   5.813   7.151  0.5700  0.2037 -0.3907
   71SAPC  H16X 6236   6.419   5.882   7.194 -2.3098  1.9516  2.3349
   71SAPC  H16Y 6237   6.385   5.712   7.166  1.3352  0.2614 -1.9354
   71SAPC  C317 6238   6.202   5.812   7.215  0.4262  0.3434  0.2199
   71SAPC  H17X 6239   6.197   5.742   7.301 -1.9380  0.8121  0.5426
   71SAPC  H17Y 6240   6.127   5.776   7.142 -0.3021 -0.6316  1.4192
   71SAPC  C318 6241   6.151   5.948   7.264  0.1133 -0.6425 -0.4190
   71SAPC  H18X 6242   6.040   5.954   7.269  0.2129  0.4479  1.1579
   71SAPC  H18Y 6243   6.186   6.023   7.190  0.6337 -0.1651  0.2937
   71SAPC  H18Z 6244   6.192   5.979   7.363  0.0113 -0.4004 -0.4539
   72SAPC     N 6245   4.615   5.052   5.418  0.3907  0.4915  0.2553
   72SAPC   C12 6246   4.531   5.163   5.488 -0.3080  0.1176 -0.0937
   72SAPC  H12A 6247   4.583   5.211   5.569  0.6257  0.8370 -1.0796
   72SAPC  H12B 6248   4.454   5.118   5.549 -2.0095  1.3207 -1.2374
   72SAPC   C13 6249   4.508   4.965   5.347  0.8903  0.6971  0.2143
   72SAPC  H13A 6250   4.546   4.900   5.270  0.6484  2.0474 -1.1040
   72SAPC  H13B 6251   4.466   4.897   5.419  1.7674 -1.4240 -1.1775
   72SAPC  H13C 6252   4.428   5.030   5.313 -1.0704 -1.6267  0.0683
   72SAPC   C14 6253   4.717   5.106   5.322  0.0048 -0.3155  0.6378
   72SAPC  H14A 6254   4.767   5.026   5.269  0.1065 -0.3282  0.7523
   72SAPC  H14B 6255   4.670   5.177   5.254 -0.9439 -0.9147  0.6526
   72SAPC  H14C 6256   4.803   5.146   5.373  0.3021  0.5808 -0.5005
   72SAPC   C15 6257   4.686   4.972   5.525  0.1318  0.2487 -0.6412
   72SAPC  H15A 6258   4.747   5.031   5.592 -1.2936 -1.0408  1.9858
   72SAPC  H15B 6259   4.621   4.918   5.593 -0.4202  0.2643 -1.1484
   72SAPC  H15C 6260   4.744   4.897   5.475 -1.2942 -1.5676  0.2914
   72SAPC   C11 6261   4.452   5.268   5.407  0.2743  0.0639  0.4100
   72SAPC  H11A 6262   4.530   5.334   5.363  0.0287  1.4031  1.8781
   72SAPC  H11B 6263   4.410   5.342   5.479  1.0640  0.0376  0.9056
   72SAPC     P 6264   4.203   5.196   5.340 -0.0250  0.1104 -0.0975
   72SAPC   O13 6265   4.135   5.297   5.262  0.3973 -0.7716  0.4418
   72SAPC   O14 6266   4.172   5.049   5.327  0.6260 -0.1421 -0.1301
   72SAPC   O12 6267   4.362   5.212   5.311  0.0545 -0.0243 -0.4929
   72SAPC   O11 6268   4.193   5.234   5.487  0.4023  0.4080 -0.0643
   72SAPC    C1 6269   4.161   5.360   5.538 -0.3690 -0.3518 -0.6274
   72SAPC    HA 6270   4.206   5.441   5.476  0.0978  0.5132  0.8053
   72SAPC    HB 6271   4.050   5.366   5.541 -0.2957  0.8937  1.5796
   72SAPC    C2 6272   4.213   5.374   5.680  0.5320 -0.3461 -0.1378
   72SAPC    HS 6273   4.323   5.389   5.676  0.2944  1.2434 -2.4787
   72SAPC   O21 6274   4.176   5.258   5.759  0.0788 -0.5224  0.0290
   72SAPC   C21 6275   4.270   5.175   5.787 -0.1094  0.7642  0.6045
   72SAPC   O22 6276   4.384   5.169   5.741 -0.2579  0.9827 -0.6104
   72SAPC   C22 6277   4.208   5.072   5.883 -0.1179  0.0172 -0.2438
   72SAPC   H2R 6278   4.123   5.116   5.940 -0.4980 -0.3165 -0.5495
   72SAPC   H2S 6279   4.163   5.001   5.811 -0.1004 -0.8157  0.5372
   72SAPC    C3 6280   4.153   5.503   5.751  0.2822  0.5056  0.3873
   72SAPC    HX 6281   4.054   5.521   5.703  0.9169 -0.8370 -1.5768
   72SAPC    HY 6282   4.208   5.594   5.718 -0.1761  1.2908  1.6949
   72SAPC   O31 6283   4.142   5.504   5.899  0.4087  0.3549  0.3410
   72SAPC   C31 6284   4.269   5.511   5.954 -0.2813  0.9670  0.1772
   72SAPC   O32 6285   4.369   5.533   5.891 -0.1487 -0.0077  0.1005
   72SAPC   C32 6286   4.259   5.514   6.103  0.7724 -0.0102  0.3821
   72SAPC   H2X 6287   4.231   5.412   6.139  0.2329 -0.3361 -0.9007
   72SAPC   H2Y 6288   4.168   5.574   6.124  1.6190  1.2772  0.4492
   72SAPC   C23 6289   4.319   5.013   5.970  0.2990 -0.1565 -0.8454
   72SAPC   H3R 6290   4.413   4.996   5.913  1.2910  1.6363  0.1461
   72SAPC   H3S 6291   4.283   4.915   6.005  2.2117 -0.4626  0.4436
   72SAPC   C24 6292   4.361   5.107   6.084  0.3867  0.1857  0.4433
   72SAPC   H4R 6293   4.268   5.146   6.130 -0.3199  2.8268 -2.7741
   72SAPC   H4S 6294   4.404   5.201   6.044 -0.5270  0.3614 -0.1539
   72SAPC   C25 6295   4.466   5.057   6.183 -0.0023 -0.5775 -0.6584
   72SAPC   H5R 6296   4.567   5.061   6.140 -0.2815  1.6759 -1.2370
   72SAPC   C26 6297   4.443   5.038   6.313 -0.2605 -0.2133  0.4047
   72SAPC   H6R 6298   4.526   5.007   6.378  3.1394  0.1461 -3.3577
   72SAPC   C27 6299   4.307   5.031   6.376 -0.4161 -0.4392  0.0064
   72SAPC   H7R 6300   4.305   4.964   6.465  0.6148 -0.0952  0.3052
   72SAPC   H7S 6301   4.225   4.994   6.311  0.8310 -2.2551 -0.6070
   72SAPC   C28 6302   4.271   5.172   6.421 -1.1092  0.0055  1.1249
   72SAPC   H8R 6303   4.203   5.227   6.354  1.0014 -0.7844 -1.8782
   72SAPC   C29 6304   4.336   5.243   6.519  0.2085  0.4864 -0.4967
   72SAPC   H9R 6305   4.303   5.345   6.542  0.1871  0.4719 -0.4630
   72SAPC  C210 6306   4.422   5.189   6.630  0.9618  0.2784  0.0636
   72SAPC  H10R 6307   4.524   5.228   6.608  1.9164 -1.2333  1.5924
   72SAPC  H10S 6308   4.425   5.080   6.611 -0.8662  0.1996  0.0736
   72SAPC  C211 6309   4.365   5.216   6.772  0.2076 -0.5262  0.3504
   72SAPC  H11R 6310   4.257   5.199   6.786  0.2251 -1.0501 -0.1121
   72SAPC  C212 6311   4.431   5.261   6.881 -0.7365 -0.3143  0.6863
   72SAPC  H12R 6312   4.372   5.266   6.974  0.2830  2.9033  1.3084
   72SAPC  C213 6313   4.576   5.316   6.881  0.6333 -0.2218 -0.1475
   72SAPC  H13R 6314   4.587   5.425   6.865  0.5686  0.1826  2.2247
   72SAPC  H13S 6315   4.625   5.270   6.793 -1.0864 -2.8481  0.1422
   72SAPC  C214 6316   4.646   5.270   7.002 -0.5933 -0.3913 -0.1894
   72SAPC  H14R 6317   4.731   5.206   6.973  1.1408  1.2161  1.0865
   72SAPC  C215 6318   4.636   5.309   7.132  0.0231 -0.0762  0.8633
   72SAPC  H15R 6319   4.718   5.273   7.196  0.4605 -0.3949  0.1412
   72SAPC  C216 6320   4.551   5.423   7.191  0.2286  0.1232 -0.3190
   72SAPC  H16R 6321   4.490   5.471   7.111 -0.6952 -2.0104 -0.9411
   72SAPC  H16S 6322   4.618   5.491   7.248 -1.0444  0.3471  0.9563
   72SAPC  C217 6323   4.456   5.371   7.299 -0.2550 -0.4596  0.6339
   72SAPC  H17R 6324   4.513   5.320   7.380  1.1689  0.8106  0.4678
   72SAPC  H17S 6325   4.387   5.297   7.253  0.4537 -1.3422  0.9620
   72SAPC  C218 6326   4.378   5.487   7.368 -0.1570  0.3414  0.6603
   72SAPC  H18R 6327   4.346   5.568   7.299  1.5696 -0.5411 -1.2932
   72SAPC  H18S 6328   4.447   5.536   7.440  0.0697 -0.4788  1.0135
   72SAPC  C219 6329   4.250   5.421   7.433 -0.5241  0.1225  0.7600
   72SAPC  H19R 6330   4.272   5.323   7.480 -0.1235 -0.0945  0.1451
   72SAPC  H19S 6331   4.192   5.381   7.347 -0.7817  3.3977 -0.7231
   72SAPC  C220 6332   4.160   5.511   7.515  0.6390  0.1533 -0.0375
   72SAPC  H20R 6333   4.129   5.603   7.461  0.5874 -0.7915 -1.6677
   72SAPC  H20S 6334   4.186   5.525   7.622  2.3576 -0.9096 -0.2837
   72SAPC  H20T 6335   4.059   5.466   7.516  1.0254 -0.7489 -0.9020
   72SAPC   C33 6336   4.371   5.577   6.184 -0.2891  0.2477  0.3952
   72SAPC   H3X 6337   4.419   5.661   6.130 -1.0267 -0.4648 -1.4290
   72SAPC   H3Y 6338   4.449   5.502   6.207 -0.6868 -0.5889 -0.8831
   72SAPC   C34 6339   4.326   5.632   6.317  0.4468  0.3636 -0.4799
   72SAPC   H4X 6340   4.239   5.574   6.354  0.4442  1.4792  1.3666
   72SAPC   H4Y 6341   4.276   5.732   6.315  0.8146  0.5416 -0.8206
   72SAPC   C35 6342   4.431   5.631   6.431 -0.0462 -0.0880  0.1302
   72SAPC   H5X 6343   4.526   5.680   6.401 -0.3483  0.3121 -0.1731
   72SAPC   H5Y 6344   4.434   5.520   6.443 -1.5344 -0.1286  0.3125
   72SAPC   C36 6345   4.381   5.700   6.559 -0.2168  0.8477  0.3392
   72SAPC   H6X 6346   4.270   5.695   6.562 -0.2910  2.1236  0.6497
   72SAPC   H6Y 6347   4.409   5.807   6.543 -2.8553  1.2473 -2.4458
   72SAPC   C37 6348   4.436   5.639   6.691 -1.4794 -0.4758 -0.9290
   72SAPC   H7X 6349   4.538   5.601   6.666 -1.6459 -1.0478 -0.7472
   72SAPC   H7Y 6350   4.366   5.554   6.704  1.2006 -2.4031  2.9185
   72SAPC   C38 6351   4.422   5.720   6.819 -0.3357  0.1503 -0.2080
   72SAPC   H8X 6352   4.478   5.812   6.789  0.0729 -0.3415 -1.0014
   72SAPC   H8Y 6353   4.473   5.674   6.905 -0.9439 -0.2810 -0.0708
   72SAPC   C39 6354   4.279   5.752   6.852 -0.0223  0.0498 -0.1622
   72SAPC   H9X 6355   4.219   5.767   6.759  0.6727  0.1761 -0.6062
   72SAPC   H9Y 6356   4.279   5.850   6.904 -0.4612 -0.1555  0.2209
   72SAPC  C310 6357   4.215   5.652   6.946  0.0033  0.1270  0.0923
   72SAPC  H10X 6358   4.288   5.635   7.028  1.5669  0.0278 -1.2694
   72SAPC  H10Y 6359   4.206   5.553   6.894 -0.2562 -0.1916  0.7322
   72SAPC  C311 6360   4.071   5.697   6.986 -0.3440  0.0422 -0.5819
   72SAPC  H11X 6361   3.991   5.631   6.946  0.0461 -0.5479 -0.4156
   72SAPC  H11Y 6362   4.045   5.789   6.930 -1.3890 -0.6591 -1.2952
   72SAPC  C312 6363   4.054   5.714   7.139 -0.3759  0.0366  0.3078
   72SAPC  H12X 6364   4.123   5.791   7.180 -3.1104  0.7506  4.0843
   72SAPC  H12Y 6365   4.074   5.616   7.186  0.3796 -0.7686 -1.5976
   72SAPC  C313 6366   3.915   5.755   7.180 -0.3236 -0.6905 -0.4125
   72SAPC  H13X 6367   3.887   5.832   7.105  0.2159 -0.7191 -0.6498
   72SAPC  H13Y 6368   3.905   5.799   7.282  1.5795  3.0932 -1.6297
   72SAPC  C314 6369   3.813   5.643   7.167  0.6717  0.2986 -0.6409
   72SAPC  H14X 6370   3.819   5.583   7.260 -2.9539  1.2259  0.3274
   72SAPC  H14Y 6371   3.821   5.568   7.085  0.7609  0.5079 -0.8257
   72SAPC  C315 6372   3.672   5.708   7.168 -0.0297 -0.0260  0.3123
   72SAPC  H15X 6373   3.642   5.744   7.067  1.4916 -0.6731 -0.4109
   72SAPC  H15Y 6374   3.653   5.792   7.238  0.0580  0.0261  0.2747
   72SAPC  C316 6375   3.573   5.595   7.194 -0.0401  0.2946  0.8132
   72SAPC  H16X 6376   3.596   5.540   7.288  0.3143 -2.3466 -0.7121
   72SAPC  H16Y 6377   3.584   5.516   7.117 -1.7456 -1.2332  2.0502
   72SAPC  C317 6378   3.433   5.660   7.215 -0.2412 -0.2142 -0.8981
   72SAPC  H17X 6379   3.419   5.731   7.130 -0.1030  1.2827  0.2875
   72SAPC  H17Y 6380   3.426   5.723   7.306 -1.3277 -0.5954 -0.6956
   72SAPC  C318 6381   3.310   5.562   7.226  0.2369 -0.8668  0.7156
   72SAPC  H18X 6382   3.305   5.501   7.134  0.5171  0.4671 -0.2104
   72SAPC  H18Y 6383   3.213   5.613   7.243  0.4771 -1.1054  3.3007
   72SAPC  H18Z 6384   3.329   5.495   7.313  1.5033 -0.5449  0.7082
   73SLPC     N 6385   5.093   0.150   1.380  0.8231 -0.6332  0.1129
   73SLPC   C13 6386   5.009   0.270   1.423 -0.1236  0.8869 -0.6378
   73SLPC  H13A 6387   4.959   0.247   1.516 -0.5339  1.5605 -0.6866
   73SLPC  H13B 6388   5.074   0.354   1.442  2.6770 -1.6983  2.3538
   73SLPC  H13C 6389   4.944   0.294   1.340 -0.6930  0.3558 -0.3554
   73SLPC   C14 6390   5.001   0.034   1.383  0.4322 -0.4060  0.1971
   73SLPC  H14A 6391   4.930   0.049   1.303 -1.2719  0.6785  1.8434
   73SLPC  H14B 6392   5.052  -0.056   1.351  0.2663 -0.9842  1.4923
   73SLPC  H14C 6393   4.953   0.028   1.479  1.0743  0.5707  0.5915
   73SLPC   C15 6394   5.204   0.136   1.482  0.5897  0.5330  0.1126
   73SLPC  H15A 6395   5.168   0.151   1.583 -1.1587  1.2029 -0.5692
   73SLPC  H15B 6396   5.254   0.041   1.471  1.4055  0.7506  1.7314
   73SLPC  H15C 6397   5.276   0.216   1.481 -0.0238  1.0858 -0.7030
   73SLPC   C12 6398   5.146   0.165   1.237 -0.1933  0.1356 -0.3762
   73SLPC  H12A 6399   5.210   0.080   1.216 -0.4930 -0.2239  0.1492
   73SLPC  H12B 6400   5.210   0.252   1.235  1.0158 -0.7322 -1.7945
   73SLPC   C11 6401   5.046   0.195   1.120 -0.0027  0.3403  0.1680
   73SLPC  H11A 6402   5.101   0.186   1.024 -0.7229 -0.3380 -0.1915
   73SLPC  H11B 6403   5.021   0.303   1.127 -0.6719  0.2293 -0.4636
   73SLPC     P 6404   4.946  -0.031   1.047 -0.1008  0.4475  0.0465
   73SLPC   O13 6405   5.078  -0.096   1.079  0.2893  0.0307 -0.1347
   73SLPC   O14 6406   4.824  -0.115   1.070 -0.4845  0.2967 -0.1895
   73SLPC   O12 6407   4.930   0.111   1.116  0.5977 -0.2631 -0.0833
   73SLPC   O11 6408   4.943   0.009   0.896 -0.1547  0.3899  0.4221
   73SLPC    C1 6409   4.862   0.111   0.845 -0.3455  0.1314  0.2774
   73SLPC    HA 6410   4.758   0.075   0.830 -0.6943  0.5324  1.6230
   73SLPC    HB 6411   4.869   0.203   0.906  2.6569  2.7751 -3.5703
   73SLPC    C2 6412   4.923   0.145   0.697 -0.3382  0.1892  0.1016
   73SLPC    HS 6413   4.858   0.213   0.638 -0.7872  0.1393  0.5379
   73SLPC   O21 6414   4.942   0.016   0.633  0.1275 -0.4235 -0.1873
   73SLPC   C21 6415   4.832  -0.038   0.580  0.7261 -0.4713  0.5659
   73SLPC   O22 6416   4.720   0.010   0.591  0.2873  0.1406 -0.7910
   73SLPC   C22 6417   4.866  -0.174   0.518 -0.6390 -0.0183  0.5082
   73SLPC   H2R 6418   4.969  -0.169   0.478  0.6350 -0.5452  3.4309
   73SLPC   H2S 6419   4.871  -0.242   0.606 -3.8365 -1.5076 -0.3050
   73SLPC    C3 6420   5.062   0.213   0.712 -0.4400 -0.1231 -0.4759
   73SLPC    HX 6421   5.118   0.152   0.785 -0.0267 -0.9796 -1.4799
   73SLPC    HY 6422   5.037   0.315   0.748  0.0214  0.0329 -0.5928
   73SLPC   O31 6423   5.122   0.233   0.586 -0.3818 -0.6119 -0.0762
   73SLPC   C31 6424   5.209   0.136   0.554  0.2616 -0.2969 -0.6037
   73SLPC   O32 6425   5.242   0.042   0.624 -0.1014  0.0001  0.0212
   73SLPC   C32 6426   5.277   0.174   0.424 -0.0256  0.0501 -0.8272
   73SLPC   H2X 6427   5.376   0.221   0.444 -0.7240  1.8146 -1.3496
   73SLPC   H2Y 6428   5.215   0.256   0.381 -0.5531 -0.4627 -1.0597
   73SLPC   C23 6429   4.755  -0.213   0.409  0.3763 -0.5339 -0.6865
   73SLPC   H3R 6430   4.655  -0.211   0.457  0.8583  0.9053  0.3569
   73SLPC   H3S 6431   4.780  -0.319   0.388 -0.4243 -1.5226  2.6978
   73SLPC   C24 6432   4.771  -0.128   0.279  0.7243  0.3595  0.0021
   73SLPC   H4R 6433   4.877  -0.145   0.248  0.2410  0.1005 -1.5483
   73SLPC   H4S 6434   4.765  -0.021   0.308 -3.2835 -0.3080  2.3400
   73SLPC   C25 6435   4.672  -0.173   0.174 -0.2550 -0.3347 -0.3497
   73SLPC   H5R 6436   4.570  -0.152   0.213 -0.6244  0.3827 -1.6400
   73SLPC   H5S 6437   4.653  -0.282   0.170 -3.4173  0.0116  1.6874
   73SLPC   C26 6438   4.677  -0.117   0.035  0.3422 -0.0500 -0.3743
   73SLPC   H6R 6439   4.598  -0.173  -0.019 -0.8598 -0.1071  1.3717
   73SLPC   H6S 6440   4.777  -0.146  -0.005  0.7650 -1.4890  1.5574
   73SLPC   C27 6441   4.631   0.029   0.025 -0.4182  0.0740 -0.4008
   73SLPC   H7R 6442   4.691   0.097   0.090  0.3971  0.4770 -1.5430
   73SLPC   H7S 6443   4.531   0.029   0.073 -0.2405 -1.8682  0.0257
   73SLPC   C28 6444   4.626   0.082  -0.119 -0.0259 -0.8033  0.1283
   73SLPC   H8R 6445   4.730   0.106  -0.149 -0.7992  2.3788 -0.3072
   73SLPC   H8S 6446   4.580   0.183  -0.120  2.0860  0.2478 -2.3249
   73SLPC   C29 6447   4.565  -0.015  -0.210  1.3009  0.4027  0.6772
   73SLPC   H9R 6448   4.622  -0.105  -0.236  0.5040  0.4404 -1.4308
   73SLPC  C210 6449   4.455   0.008  -0.292 -0.7902  0.9642 -0.2840
   73SLPC  H10R 6450   4.424  -0.067  -0.367  0.0162  2.2617 -1.9845
   73SLPC  C211 6451   4.371   0.137  -0.290 -0.0759 -0.3670 -0.3301
   73SLPC  H11R 6452   4.437   0.226  -0.282  0.7922 -0.9270 -1.1628
   73SLPC  H11S 6453   4.298   0.131  -0.205  0.5631 -1.1886  0.1792
   73SLPC  C212 6454   4.297   0.154  -0.426  0.6754  0.2508 -0.1743
   73SLPC  H12R 6455   4.201   0.103  -0.443  0.5564 -0.7444  2.8640
   73SLPC  C213 6456   4.349   0.207  -0.537  0.2558  0.0040 -0.1232
   73SLPC  H13R 6457   4.281   0.225  -0.622 -1.3676  1.5306  1.4120
   73SLPC  C214 6458   4.487   0.255  -0.549 -0.0278  0.2622 -0.3295
   73SLPC  H14R 6459   4.547   0.250  -0.455 -1.7848  1.7370  0.9574
   73SLPC  H14S 6460   4.470   0.364  -0.561 -0.3580 -0.0128 -2.6431
   73SLPC  C215 6461   4.570   0.207  -0.672  0.1327  0.8606  0.7191
   73SLPC  H15R 6462   4.606   0.105  -0.649  1.1446  0.8702 -0.6493
   73SLPC  H15S 6463   4.662   0.268  -0.683  0.2707  0.3574 -1.4698
   73SLPC  C216 6464   4.485   0.203  -0.806  0.3619  0.6502  0.0914
   73SLPC  H16R 6465   4.384   0.160  -0.786  0.7611  0.2816  1.4241
   73SLPC  H16S 6466   4.539   0.132  -0.872 -0.8796 -1.1678  0.9502
   73SLPC  C217 6467   4.469   0.340  -0.873  0.4007  0.2091 -0.0648
   73SLPC  H17R 6468   4.555   0.410  -0.866 -1.5255  2.5562  1.6995
   73SLPC  H17S 6469   4.395   0.390  -0.808  2.1976  0.2413  2.0953
   73SLPC  C218 6470   4.416   0.325  -1.015 -0.1132  0.4574  0.0918
   73SLPC  H18R 6471   4.329   0.256  -1.015  0.3874 -0.1830 -0.6315
   73SLPC  H18S 6472   4.502   0.282  -1.070 -0.2142 -0.6546  0.7668
   73SLPC  H18T 6473   4.396   0.429  -1.049  0.8406  0.5537 -0.2189
   73SLPC   C33 6474   5.310   0.062   0.319  0.6892  0.2563  0.3644
   73SLPC   H3X 6475   5.340  -0.036   0.362  0.1728 -0.1658 -0.2133
   73SLPC   H3Y 6476   5.400   0.086   0.259 -0.4430 -0.9989 -1.9595
   73SLPC   C34 6477   5.188   0.045   0.221  0.4803 -1.0709 -0.3921
   73SLPC   H4X 6478   5.160   0.139   0.169 -1.6503 -1.7149 -0.5257
   73SLPC   H4Y 6479   5.100   0.015   0.282  2.5455 -0.8835  2.9233
   73SLPC   C35 6480   5.212  -0.066   0.120 -0.1760  0.3851 -0.0978
   73SLPC   H5X 6481   5.112  -0.087   0.077 -0.5310  0.1766  0.8105
   73SLPC   H5Y 6482   5.247  -0.156   0.175 -0.2421  0.5804  0.2654
   73SLPC   C36 6483   5.303  -0.051  -0.003 -0.2238 -0.3841  0.5912
   73SLPC   H6X 6484   5.407  -0.071   0.031 -0.2655 -2.2015 -0.2403
   73SLPC   H6Y 6485   5.309   0.054  -0.039  2.8537 -1.4429 -2.5678
   73SLPC   C37 6486   5.265  -0.131  -0.129  0.0213  0.2445  0.0356
   73SLPC   H7X 6487   5.266  -0.238  -0.099  2.4326  0.4597  0.9769
   73SLPC   H7Y 6488   5.341  -0.113  -0.208 -0.4757  2.5347  0.0005
   73SLPC   C38 6489   5.122  -0.105  -0.187 -0.2981  0.4881 -0.1111
   73SLPC   H8X 6490   5.119   0.006  -0.189  1.7152  0.6991  2.3345
   73SLPC   H8Y 6491   5.039  -0.131  -0.118  0.7945  1.6025  1.7374
   73SLPC   C39 6492   5.099  -0.175  -0.322 -0.3184 -0.1826 -0.8965
   73SLPC   H9X 6493   5.103  -0.286  -0.315  2.4177 -0.1893 -1.4142
   73SLPC   H9Y 6494   5.178  -0.154  -0.397 -2.1869 -0.0456 -2.9663
   73SLPC  C310 6495   4.963  -0.144  -0.385 -0.0559 -0.6440  0.2044
   73SLPC  H10X 6496   4.948  -0.034  -0.391 -3.6179 -1.0533 -0.8907
   73SLPC  H10Y 6497   4.884  -0.182  -0.317 -0.2682 -1.8070 -0.6647
   73SLPC  C311 6498   4.926  -0.200  -0.524 -0.1955  0.2935  0.4823
   73SLPC  H11X 6499   4.939  -0.310  -0.520 -0.2850  0.2792  4.1187
   73SLPC  H11Y 6500   5.003  -0.161  -0.594  0.6267 -0.0521  1.1791
   73SLPC  C312 6501   4.787  -0.173  -0.578  0.2965  0.1188 -0.6349
   73SLPC  H12X 6502   4.764  -0.065  -0.594 -0.1923 -0.1226 -1.6392
   73SLPC  H12Y 6503   4.722  -0.198  -0.491 -0.8359  0.0704 -1.4580
   73SLPC  C313 6504   4.744  -0.262  -0.696 -0.3851 -0.1085  0.0051
   73SLPC  H13X 6505   4.636  -0.245  -0.713 -0.1457  1.7865  0.0842
   73SLPC  H13Y 6506   4.772  -0.367  -0.673 -1.7209 -0.6372 -0.7080
   73SLPC  C314 6507   4.835  -0.223  -0.816 -0.0187 -0.1211 -0.9454
   73SLPC  H14X 6508   4.942  -0.241  -0.790 -0.4514 -1.9172 -0.1702
   73SLPC  H14Y 6509   4.825  -0.114  -0.829 -0.3005  0.2311  1.6459
   73SLPC  C315 6510   4.800  -0.309  -0.936  0.2802  0.1006  0.1077
   73SLPC  H15X 6511   4.690  -0.297  -0.945  0.2749  0.4224  0.5234
   73SLPC  H15Y 6512   4.814  -0.415  -0.907 -1.6304 -0.5079 -1.0788
   73SLPC  C316 6513   4.881  -0.270  -1.063  0.4735  0.1859  0.2643
   73SLPC  H16X 6514   4.989  -0.263  -1.035  0.2010  0.3253  1.3300
   73SLPC  H16Y 6515   4.847  -0.169  -1.097 -1.7072 -0.4222  0.4828
   73SLPC  C317 6516   4.867  -0.383  -1.173  0.1023  0.2140 -0.2672
   73SLPC  H17X 6517   4.759  -0.389  -1.199  0.3844 -0.9921 -1.2596
   73SLPC  H17Y 6518   4.891  -0.481  -1.125 -0.2983  0.2472  0.0111
   73SLPC  C318 6519   4.958  -0.352  -1.282 -0.7710  0.1012 -0.1095
   73SLPC  H18X 6520   5.064  -0.378  -1.258 -1.1261  0.8638  2.6826
   73SLPC  H18Y 6521   4.962  -0.244  -1.306  0.0929  0.5572  1.8895
   73SLPC  H18Z 6522   4.923  -0.404  -1.373 -0.6027  1.2737 -0.8614
   74SLPC     N 6523   0.512   5.266   0.699 -0.5019 -0.2156  0.0082
   74SLPC   C13 6524   0.368   5.286   0.713 -0.2868 -0.1956  0.5563
   74SLPC  H13A 6525   0.348   5.291   0.819 -3.0452 -0.4189  0.1089
   74SLPC  H13B 6526   0.331   5.381   0.677 -0.0448  0.2210  1.3844
   74SLPC  H13C 6527   0.314   5.201   0.675  1.4054 -1.2395  0.3826
   74SLPC   C14 6528   0.545   5.136   0.761  0.7758 -0.4159  0.3550
   74SLPC  H14A 6529   0.499   5.063   0.695 -0.6638  0.5348  0.2564
   74SLPC  H14B 6530   0.648   5.118   0.786  0.2339 -1.7675  1.7682
   74SLPC  H14C 6531   0.493   5.142   0.855 -1.5332 -1.9511 -0.7252
   74SLPC   C15 6532   0.578   5.370   0.788 -0.8336 -0.5104 -0.1096
   74SLPC  H15A 6533   0.535   5.469   0.789  0.7112  0.3821 -3.8009
   74SLPC  H15B 6534   0.578   5.335   0.890  0.7063 -1.6575 -0.4705
   74SLPC  H15C 6535   0.676   5.405   0.758 -0.5525 -0.9914  0.2344
   74SLPC   C12 6536   0.563   5.286   0.561  0.5175 -0.3372  0.5579
   74SLPC  H12A 6537   0.669   5.263   0.558  1.0007  1.7759 -0.7836
   74SLPC  H12B 6538   0.562   5.389   0.529  1.0504 -0.6816 -0.6325
   74SLPC   C11 6539   0.489   5.196   0.460  0.3774  0.3290  0.1056
   74SLPC  H11A 6540   0.532   5.222   0.361 -0.0449  0.9414  0.0824
   74SLPC  H11B 6541   0.383   5.227   0.456  0.2661  0.0037  0.4854
   74SLPC     P 6542   0.406   4.944   0.476 -0.1430  0.2103  0.0438
   74SLPC   O13 6543   0.492   4.825   0.483  0.4123 -0.4899  0.8943
   74SLPC   O14 6544   0.303   4.954   0.579 -0.4578  0.2504 -0.3861
   74SLPC   O12 6545   0.512   5.060   0.477 -0.2261 -0.0193 -0.4491
   74SLPC   O11 6546   0.347   4.935   0.328  0.6951  0.5114 -0.2692
   74SLPC    C1 6547   0.438   4.900   0.232 -0.1282 -0.9873  0.6890
   74SLPC    HA 6548   0.530   4.962   0.230  0.6460 -1.9907  2.2099
   74SLPC    HB 6549   0.473   4.795   0.244  3.5583  0.0768  0.2841
   74SLPC    C2 6550   0.371   4.906   0.092 -0.1192 -0.5027 -0.9579
   74SLPC    HS 6551   0.452   4.897   0.017  1.7985  0.0411  0.9744
   74SLPC   O21 6552   0.288   5.020   0.085  0.0760 -0.2563  0.7436
   74SLPC   C21 6553   0.362   5.138   0.087  0.3701  0.4156  0.4084
   74SLPC   O22 6554   0.480   5.151   0.060  0.5423  0.3383  0.2870
   74SLPC   C22 6555   0.276   5.259   0.122  0.5583  0.3588  0.1390
   74SLPC   H2R 6556   0.182   5.210   0.157  0.2188  0.7974 -0.1431
   74SLPC   H2S 6557   0.325   5.306   0.210  0.6338  0.7999 -0.1362
   74SLPC    C3 6558   0.274   4.783   0.086  0.2616 -0.3036  0.2547
   74SLPC    HX 6559   0.199   4.797   0.167  0.1372  1.3939 -0.1190
   74SLPC    HY 6560   0.331   4.690   0.106 -1.5221 -1.2592  1.1792
   74SLPC   O31 6561   0.214   4.770  -0.051  0.7833 -0.1723  0.2594
   74SLPC   C31 6562   0.086   4.795  -0.057  0.0058  0.0732  0.1567
   74SLPC   O32 6563   0.014   4.840   0.032  0.3610 -0.2249 -0.6506
   74SLPC   C32 6564   0.038   4.758  -0.200  0.8400 -0.0909 -0.1845
   74SLPC   H2X 6565  -0.056   4.817  -0.197  0.8529 -0.1051  1.1480
   74SLPC   H2Y 6566   0.020   4.648  -0.199 -0.9991  0.1843 -0.6853
   74SLPC   C23 6567   0.251   5.364   0.017 -0.1347 -0.8334  0.3815
   74SLPC   H3R 6568   0.186   5.443   0.060  0.4683  0.0803 -0.3442
   74SLPC   H3S 6569   0.185   5.327  -0.065 -1.1833  1.4258  0.1128
   74SLPC   C24 6570   0.383   5.433  -0.029  0.3169  0.0082 -0.6133
   74SLPC   H4R 6571   0.430   5.352  -0.090 -1.2771 -0.5827 -1.0974
   74SLPC   H4S 6572   0.436   5.430   0.069  0.8554 -0.2424 -0.9023
   74SLPC   C25 6573   0.386   5.572  -0.082 -0.0287 -0.0987 -0.7012
   74SLPC   H5R 6574   0.468   5.625  -0.028 -0.5434 -0.2615  0.2655
   74SLPC   H5S 6575   0.293   5.625  -0.050 -0.3066 -1.7588  1.5339
   74SLPC   C26 6576   0.394   5.593  -0.233  0.3715  0.7908  0.1757
   74SLPC   H6R 6577   0.293   5.571  -0.276  0.5732 -0.4554  0.3080
   74SLPC   H6S 6578   0.465   5.520  -0.277 -1.4768 -0.9617 -0.0830
   74SLPC   C27 6579   0.441   5.738  -0.282  0.6919  0.5530 -0.0462
   74SLPC   H7R 6580   0.525   5.755  -0.211  0.5602 -0.8648  0.4788
   74SLPC   H7S 6581   0.352   5.800  -0.260 -0.8643 -1.8674  0.8551
   74SLPC   C28 6582   0.493   5.753  -0.425 -0.2507  0.0210 -0.5653
   74SLPC   H8R 6583   0.584   5.690  -0.424 -0.2974 -0.0614  0.7862
   74SLPC   H8S 6584   0.522   5.859  -0.440  0.8358  0.0424  1.3017
   74SLPC   C29 6585   0.388   5.713  -0.527  0.4732  0.2901 -0.7196
   74SLPC   H9R 6586   0.285   5.734  -0.497  0.1186  1.1679 -2.4134
   74SLPC  C210 6587   0.409   5.663  -0.653  0.5568 -0.0258 -0.5799
   74SLPC  H10R 6588   0.324   5.659  -0.721 -0.2136 -1.0724  0.4042
   74SLPC  C211 6589   0.536   5.619  -0.720 -0.2749  0.2114  0.0898
   74SLPC  H11R 6590   0.540   5.508  -0.726  1.6149  0.3046 -2.5070
   74SLPC  H11S 6591   0.619   5.640  -0.649 -2.2122 -0.5183  2.7183
   74SLPC  C212 6592   0.570   5.678  -0.852 -0.0052 -0.7050  0.5358
   74SLPC  H12R 6593   0.487   5.739  -0.891 -1.3085 -1.9072  1.3438
   74SLPC  C213 6594   0.669   5.642  -0.936 -0.6283 -0.8075 -0.2711
   74SLPC  H13R 6595   0.694   5.688  -1.032  1.4375  0.9976  1.0279
   74SLPC  C214 6596   0.774   5.537  -0.900 -0.1564  0.3569  1.0892
   74SLPC  H14R 6597   0.736   5.465  -0.824  0.2572 -0.5746  0.4263
   74SLPC  H14S 6598   0.860   5.583  -0.846 -1.1530 -0.3821  3.4468
   74SLPC  C215 6599   0.835   5.450  -1.021  0.5590 -0.8722 -0.2763
   74SLPC  H15R 6600   0.753   5.412  -1.086 -0.8208  1.4287 -0.0134
   74SLPC  H15S 6601   0.892   5.376  -0.962  0.8030  0.3233  1.0466
   74SLPC  C216 6602   0.939   5.535  -1.103 -0.3335  0.0622 -0.1718
   74SLPC  H16R 6603   1.013   5.576  -1.031 -1.1617  0.3700  0.5218
   74SLPC  H16S 6604   0.901   5.637  -1.124 -1.6626  0.8971  4.9028
   74SLPC  C217 6605   1.000   5.470  -1.226 -0.4112 -0.2177 -0.4450
   74SLPC  H17R 6606   1.076   5.395  -1.196 -0.6807  0.3286  1.7720
   74SLPC  H17S 6607   1.051   5.555  -1.276  0.2561 -0.3388  0.0135
   74SLPC  C218 6608   0.901   5.396  -1.319  0.7155 -0.1480  0.2331
   74SLPC  H18R 6609   0.858   5.306  -1.271 -2.2283  1.0045 -0.0666
   74SLPC  H18S 6610   0.953   5.379  -1.415 -0.0513  0.7874 -0.3621
   74SLPC  H18T 6611   0.816   5.461  -1.346  0.4082 -1.1794 -1.4198
   74SLPC   C33 6612   0.141   4.788  -0.314  0.2468 -0.4979 -0.4824
   74SLPC   H3X 6613   0.227   4.719  -0.305 -0.1916 -0.9788  0.1021
   74SLPC   H3Y 6614   0.173   4.894  -0.304  1.8199 -1.0118  0.1825
   74SLPC   C34 6615   0.068   4.776  -0.452 -1.5356 -0.2196 -0.3115
   74SLPC   H4X 6616  -0.031   4.825  -0.453 -1.4863 -0.1026 -1.8914
   74SLPC   H4Y 6617   0.053   4.670  -0.484  0.1230 -0.2559 -1.0922
   74SLPC   C35 6618   0.142   4.852  -0.558 -0.5358 -0.1390 -0.1021
   74SLPC   H5X 6619   0.237   4.798  -0.572  0.0136  1.1400 -1.6529
   74SLPC   H5Y 6620   0.172   4.958  -0.538  2.0550 -0.5178 -1.5323
   74SLPC   C36 6621   0.056   4.861  -0.689 -0.5179  0.6198  0.2913
   74SLPC   H6X 6622  -0.033   4.923  -0.662 -0.9595  0.3572 -0.5166
   74SLPC   H6Y 6623   0.019   4.760  -0.716  0.1508  0.5529 -0.3840
   74SLPC   C37 6624   0.142   4.923  -0.804  0.5313 -0.3406 -0.2148
   74SLPC   H7X 6625   0.208   4.847  -0.850 -2.0111 -0.5914 -3.9536
   74SLPC   H7Y 6626   0.191   5.011  -0.758 -0.0159  1.6636 -3.1431
   74SLPC   C38 6627   0.059   4.980  -0.924  0.0714  0.6701 -0.2504
   74SLPC   H8X 6628  -0.003   5.057  -0.873 -2.4001 -1.0581 -0.4987
   74SLPC   H8Y 6629  -0.010   4.897  -0.951  1.0302  0.1509 -1.1874
   74SLPC   C39 6630   0.139   5.027  -1.039  0.7705  0.3068  0.1150
   74SLPC   H9X 6631   0.205   4.944  -1.074  4.2443  3.2088 -0.8849
   74SLPC   H9Y 6632   0.202   5.106  -0.993 -0.4790  0.6877  1.2062
   74SLPC  C310 6633   0.055   5.076  -1.155 -0.2280 -0.2081 -0.4711
   74SLPC  H10X 6634  -0.020   5.155  -1.132 -3.2792 -3.0859  0.2011
   74SLPC  H10Y 6635  -0.010   4.988  -1.176 -1.5793  0.0754  2.0235
   74SLPC  C311 6636   0.147   5.113  -1.268  0.3646  0.0707  0.6823
   74SLPC  H11X 6637   0.214   5.027  -1.291 -1.7486 -1.3916 -0.3347
   74SLPC  H11Y 6638   0.208   5.203  -1.244  3.0431 -0.9003 -1.8776
   74SLPC  C312 6639   0.078   5.129  -1.411  0.2076 -0.0150  0.9928
   74SLPC  H12X 6640  -0.009   5.197  -1.400 -0.2716 -0.6267  1.0540
   74SLPC  H12Y 6641   0.045   5.028  -1.443 -0.5901  0.6714 -0.4541
   74SLPC  C313 6642   0.172   5.177  -1.515  0.5829 -0.5047  0.1993
   74SLPC  H13X 6643   0.129   5.157  -1.616  0.1795  3.0283 -0.4402
   74SLPC  H13Y 6644   0.272   5.129  -1.523  0.6988 -0.1890 -0.3203
   74SLPC  C314 6645   0.189   5.331  -1.499  0.2386 -0.0718  0.4735
   74SLPC  H14X 6646   0.240   5.346  -1.402  1.2842  1.4725 -0.2874
   74SLPC  H14Y 6647   0.091   5.383  -1.498  0.8093  1.0272  0.4765
   74SLPC  C315 6648   0.279   5.387  -1.608 -0.1550  0.3875 -0.4175
   74SLPC  H15X 6649   0.365   5.319  -1.622 -0.7844 -0.2672 -1.1846
   74SLPC  H15Y 6650   0.318   5.483  -1.568 -1.4701  0.9246 -0.3684
   74SLPC  C316 6651   0.201   5.408  -1.742 -0.4218 -0.3169 -0.1812
   74SLPC  H16X 6652   0.113   5.476  -1.738 -0.9711 -0.8471 -2.2029
   74SLPC  H16Y 6653   0.157   5.310  -1.770 -0.5649 -0.2493 -0.1947
   74SLPC  C317 6654   0.287   5.460  -1.854 -0.4851  0.7429 -0.0789
   74SLPC  H17X 6655   0.375   5.392  -1.859 -0.4661  0.8202 -0.8173
   74SLPC  H17Y 6656   0.326   5.564  -1.849  1.7087 -0.0802  1.5950
   74SLPC  C318 6657   0.216   5.459  -1.987 -0.0931 -0.2664  0.3656
   74SLPC  H18X 6658   0.147   5.546  -1.987 -0.1346 -0.2462 -1.5218
   74SLPC  H18Y 6659   0.156   5.366  -2.001  1.2879 -0.9446 -1.5210
   74SLPC  H18Z 6660   0.281   5.487  -2.073 -2.1235  0.6943 -0.9334
   75SLPC     N 6661   3.240   5.873   0.735 -0.1612  0.1424 -0.0998
   75SLPC   C13 6662   3.258   5.865   0.587  0.3457  0.4563  0.0477
   75SLPC  H13A 6663   3.339   5.799   0.562  0.2525  0.2286  0.3362
   75SLPC  H13B 6664   3.167   5.838   0.536  0.3730 -0.1976  0.3312
   75SLPC  H13C 6665   3.279   5.961   0.543  1.3981  0.1773 -0.0776
   75SLPC   C14 6666   3.136   5.975   0.764  0.2075 -0.0373 -0.6994
   75SLPC  H14A 6667   3.158   6.078   0.741 -0.9283  0.0696 -1.3997
   75SLPC  H14B 6668   3.038   5.953   0.725 -1.3662  0.9908  2.3801
   75SLPC  H14C 6669   3.116   5.968   0.870 -1.8860 -2.4248 -1.1680
   75SLPC   C15 6670   3.373   5.930   0.797 -0.0780 -0.5474  0.0435
   75SLPC  H15A 6671   3.369   5.892   0.898  1.1798 -2.0468 -0.4391
   75SLPC  H15B 6672   3.458   5.881   0.751  0.5128  0.6333 -0.1878
   75SLPC  H15C 6673   3.381   6.038   0.790 -2.0568 -0.4726 -1.7713
   75SLPC   C12 6674   3.209   5.736   0.789 -0.4823 -0.0553  0.3849
   75SLPC  H12A 6675   3.296   5.676   0.767 -1.0808 -0.5921 -0.5773
   75SLPC  H12B 6676   3.134   5.686   0.730  1.1684 -3.5346  0.9350
   75SLPC   C11 6677   3.154   5.740   0.935 -0.4575  0.0780  0.0376
   75SLPC  H11A 6678   3.205   5.815   0.998  2.1621 -1.0053 -0.6451
   75SLPC  H11B 6679   3.178   5.640   0.977  0.8406 -0.3709 -1.6227
   75SLPC     P 6680   2.919   5.656   0.869 -0.4241 -0.3594  0.0693
   75SLPC   O13 6681   2.971   5.519   0.883 -0.2326  0.1934 -0.4280
   75SLPC   O14 6682   2.787   5.683   0.919 -0.2658  0.3891  0.1788
   75SLPC   O12 6683   3.015   5.769   0.934 -0.6893  0.5679 -0.6794
   75SLPC   O11 6684   2.923   5.701   0.713  0.2043  0.4720  0.0402
   75SLPC    C1 6685   2.829   5.804   0.677 -0.5537  0.1239  0.4579
   75SLPC    HA 6686   2.811   5.882   0.754  1.0181  1.5642 -0.5563
   75SLPC    HB 6687   2.860   5.854   0.582 -1.2139  0.2831  0.3182
   75SLPC    C2 6688   2.692   5.733   0.628 -0.7070  0.1998 -0.3848
   75SLPC    HS 6689   2.645   5.687   0.717  0.3292 -0.1061  0.0294
   75SLPC   O21 6690   2.738   5.640   0.532 -0.1461 -0.0653 -0.6506
   75SLPC   C21 6691   2.663   5.562   0.457  0.3894 -0.2038 -0.4621
   75SLPC   O22 6692   2.541   5.556   0.470 -0.0690 -0.5629 -0.0488
   75SLPC   C22 6693   2.757   5.494   0.351 -0.2980  0.0234  0.5126
   75SLPC   H2R 6694   2.793   5.574   0.282  0.8094 -1.3530 -0.5631
   75SLPC   H2S 6695   2.848   5.453   0.398  0.0992  0.1320 -0.1484
   75SLPC    C3 6696   2.599   5.833   0.547 -0.6505 -1.0736 -0.6551
   75SLPC    HX 6697   2.580   5.914   0.620  2.4765 -0.6134 -0.2088
   75SLPC    HY 6698   2.498   5.796   0.521 -1.0778  0.0460 -0.6243
   75SLPC   O31 6699   2.665   5.895   0.437  0.4100  0.1392  0.1471
   75SLPC   C31 6700   2.591   5.971   0.358  0.4875  0.5709 -0.8613
   75SLPC   O32 6701   2.473   6.002   0.372  0.7339  0.4392  0.8302
   75SLPC   C32 6702   2.683   6.018   0.247 -0.1305  0.3152  0.1227
   75SLPC   H2X 6703   2.789   6.010   0.280 -0.3518  1.4674  1.1692
   75SLPC   H2Y 6704   2.664   6.124   0.223 -1.5605  0.0440 -0.0415
   75SLPC   C23 6705   2.694   5.370   0.284 -0.2429  0.2916  0.5271
   75SLPC   H3R 6706   2.600   5.388   0.229 -0.9231  0.9718  1.8542
   75SLPC   H3S 6707   2.675   5.300   0.368  1.1797 -0.7668  0.0130
   75SLPC   C24 6708   2.789   5.288   0.199 -0.7235 -1.2734 -1.0485
   75SLPC   H4R 6709   2.749   5.186   0.179 -0.0692 -2.2858  2.2829
   75SLPC   H4S 6710   2.883   5.275   0.256 -0.3939  1.1783 -0.9309
   75SLPC   C25 6711   2.826   5.363   0.063  0.2361 -0.9996  0.0569
   75SLPC   H5R 6712   2.884   5.457   0.077  0.2297 -0.5899 -2.2952
   75SLPC   H5S 6713   2.733   5.399   0.014  1.3466  1.6332 -0.2749
   75SLPC   C26 6714   2.900   5.270  -0.033  0.2015 -1.0023 -0.0575
   75SLPC   H6R 6715   2.841   5.177  -0.052  1.0561 -1.6278  0.2627
   75SLPC   H6S 6716   2.993   5.230   0.012  1.8065 -0.4100 -2.6511
   75SLPC   C27 6717   2.937   5.350  -0.154 -0.6016 -0.0109 -0.1788
   75SLPC   H7R 6718   3.010   5.428  -0.123  0.3704 -2.3716  4.3105
   75SLPC   H7S 6719   2.846   5.395  -0.199 -1.3519 -1.7036 -0.4081
   75SLPC   C28 6720   3.020   5.257  -0.249 -0.0097 -0.1431 -0.0828
   75SLPC   H8R 6721   3.010   5.325  -0.336  2.4325  0.0393 -0.2956
   75SLPC   H8S 6722   2.958   5.173  -0.285 -0.2414  0.4553 -1.1239
   75SLPC   C29 6723   3.164   5.233  -0.219  0.3397 -0.1383  0.1973
   75SLPC   H9R 6724   3.186   5.201  -0.116 -1.2507 -1.0510  0.2938
   75SLPC  C210 6725   3.263   5.269  -0.305 -0.3348  0.3751  0.2826
   75SLPC  H10R 6726   3.369   5.250  -0.285 -0.0157  0.2558 -1.3870
   75SLPC  C211 6727   3.252   5.320  -0.447 -1.2296 -0.3525 -0.3150
   75SLPC  H11R 6728   3.310   5.414  -0.437  0.0789 -1.2135  0.4248
   75SLPC  H11S 6729   3.156   5.352  -0.492 -0.7879  0.0429 -0.9938
   75SLPC  C212 6730   3.318   5.224  -0.547 -0.5710  0.0512 -0.2314
   75SLPC  H12R 6731   3.345   5.128  -0.500  1.9349  0.0286 -1.5598
   75SLPC  C213 6732   3.338   5.242  -0.682 -0.2520 -0.5146  0.0813
   75SLPC  H13R 6733   3.377   5.166  -0.750  0.2722 -0.8918  0.7953
   75SLPC  C214 6734   3.321   5.379  -0.747  0.7799 -0.4455 -0.3851
   75SLPC  H14R 6735   3.315   5.458  -0.669 -2.2440 -1.1758  0.2221
   75SLPC  H14S 6736   3.218   5.362  -0.784  0.8517 -1.5307 -0.1290
   75SLPC  C215 6737   3.422   5.415  -0.855 -0.4002  0.4168 -0.6143
   75SLPC  H15R 6738   3.519   5.403  -0.802 -1.0417 -0.6200  0.3742
   75SLPC  H15S 6739   3.404   5.523  -0.872  0.2264  0.3820 -1.5970
   75SLPC  C216 6740   3.432   5.321  -0.978 -0.1649  0.1235  0.6013
   75SLPC  H16R 6741   3.328   5.306  -1.016 -0.4955  2.8800  0.2192
   75SLPC  H16S 6742   3.466   5.217  -0.964 -1.4206 -0.1727  1.6733
   75SLPC  C217 6743   3.511   5.385  -1.097  0.2669  0.9477  0.1920
   75SLPC  H17R 6744   3.593   5.438  -1.045 -1.2714  2.4664  1.1795
   75SLPC  H17S 6745   3.435   5.458  -1.133 -1.3289 -1.2665 -1.1949
   75SLPC  C218 6746   3.553   5.288  -1.212 -0.3307  0.1640  0.2893
   75SLPC  H18R 6747   3.629   5.344  -1.270 -2.3037  2.7281 -0.0117
   75SLPC  H18S 6748   3.462   5.276  -1.275 -0.7092  0.6665  0.7270
   75SLPC  H18T 6749   3.584   5.194  -1.163 -1.8559 -2.1372 -2.7814
   75SLPC   C33 6750   2.678   5.940   0.116 -0.3245  0.2262 -0.1046
   75SLPC   H3X 6751   2.753   5.986   0.049 -0.0133  0.1468  0.1856
   75SLPC   H3Y 6752   2.580   5.960   0.067  0.1827  2.1401 -0.3889
   75SLPC   C34 6753   2.722   5.795   0.133  0.1752 -0.2989 -0.3241
   75SLPC   H4X 6754   2.673   5.737   0.214  2.2525 -1.2516  0.3304
   75SLPC   H4Y 6755   2.829   5.800   0.162  0.0919  2.0710 -0.2417
   75SLPC   C35 6756   2.692   5.714   0.011 -0.6695  0.4316  0.5193
   75SLPC   H5X 6757   2.583   5.702  -0.005 -0.4303 -1.0071 -0.2049
   75SLPC   H5Y 6758   2.730   5.613   0.038 -0.6906 -0.5883 -2.8478
   75SLPC   C36 6759   2.747   5.777  -0.114 -0.3699 -0.0291  0.1248
   75SLPC   H6X 6760   2.836   5.838  -0.089 -1.2407  0.9708  0.8426
   75SLPC   H6Y 6761   2.674   5.847  -0.160 -1.3237 -2.8085 -2.9970
   75SLPC   C37 6762   2.798   5.685  -0.225  0.1508 -0.3255 -0.1579
   75SLPC   H7X 6763   2.726   5.607  -0.257 -0.0196  0.1640 -0.9844
   75SLPC   H7Y 6764   2.886   5.630  -0.185 -0.5115 -1.0280  0.3538
   75SLPC   C38 6765   2.847   5.748  -0.352 -0.1195  0.0611 -0.0103
   75SLPC   H8X 6766   2.929   5.815  -0.319 -2.8313  3.0865  1.1508
   75SLPC   H8Y 6767   2.767   5.819  -0.383 -0.7323 -0.1867  0.9772
   75SLPC   C39 6768   2.893   5.650  -0.459 -0.2231 -0.1407 -0.5586
   75SLPC   H9X 6769   2.810   5.583  -0.492 -0.8476  0.3141  0.0693
   75SLPC   H9Y 6770   2.973   5.583  -0.422  0.6327 -0.2243 -2.4432
   75SLPC  C310 6771   2.932   5.734  -0.582  0.0237  0.5702 -1.2548
   75SLPC  H10X 6772   3.022   5.793  -0.556  0.1130  0.1446 -0.5414
   75SLPC  H10Y 6773   2.853   5.800  -0.623  0.8698  1.3925 -1.6027
   75SLPC  C311 6774   2.978   5.645  -0.699 -0.5593  0.2129 -0.0585
   75SLPC  H11X 6775   2.915   5.554  -0.709  1.7998 -1.6239  0.7589
   75SLPC  H11Y 6776   3.083   5.610  -0.692 -0.8157 -0.4176  0.7435
   75SLPC  C312 6777   2.995   5.732  -0.827  0.6471 -0.4840  0.2967
   75SLPC  H12X 6778   3.056   5.822  -0.806 -0.1411 -0.1052  1.0393
   75SLPC  H12Y 6779   2.899   5.774  -0.862  0.7056  0.8027  1.5791
   75SLPC  C313 6780   3.049   5.653  -0.948 -0.6283  0.3246 -0.3113
   75SLPC  H13X 6781   2.990   5.559  -0.960 -0.4145  0.3720 -1.9178
   75SLPC  H13Y 6782   3.153   5.626  -0.920 -1.1908 -0.9870  0.6146
   75SLPC  C314 6783   3.048   5.724  -1.082 -0.8981 -0.0237  0.4592
   75SLPC  H14X 6784   3.122   5.806  -1.072 -0.4587 -0.5046  1.2259
   75SLPC  H14Y 6785   2.947   5.762  -1.107 -0.7586 -0.3248 -0.6087
   75SLPC  C315 6786   3.099   5.624  -1.189  0.3592  0.5214 -0.7263
   75SLPC  H15X 6787   3.013   5.553  -1.193  0.8163 -0.0978  0.0480
   75SLPC  H15Y 6788   3.190   5.574  -1.148 -0.9400 -1.5534 -0.2093
   75SLPC  C316 6789   3.127   5.676  -1.333  0.4663  0.0978  0.2221
   75SLPC  H16X 6790   3.201   5.758  -1.319  1.1546 -0.4089 -0.4134
   75SLPC  H16Y 6791   3.034   5.725  -1.371  0.6509  0.8562  0.7186
   75SLPC  C317 6792   3.189   5.567  -1.417 -1.0138 -0.0301  0.3648
   75SLPC  H17X 6793   3.150   5.567  -1.521 -1.5319  0.7344  0.5534
   75SLPC  H17Y 6794   3.149   5.476  -1.367 -2.3776 -1.1150 -2.4758
   75SLPC  C318 6795   3.345   5.576  -1.440 -0.2447  0.4582  0.8271
   75SLPC  H18X 6796   3.392   5.564  -1.340 -0.2280 -1.4847  0.6211
   75SLPC  H18Y 6797   3.376   5.673  -1.484 -1.2658  1.0898  1.4385
   75SLPC  H18Z 6798   3.379   5.490  -1.502 -0.2496  0.4265  0.8687
   76SLPC     N 6799   6.397   5.941   0.996  0.1590  0.7139 -0.1379
   76SLPC   C13 6800   6.376   5.803   0.933 -0.3947 -0.1329 -0.8704
   76SLPC  H13A 6801   6.270   5.785   0.942  0.0377 -1.6447  3.0797
   76SLPC  H13B 6802   6.426   5.792   0.838  6.3019 -1.5954  2.2350
   76SLPC  H13C 6803   6.409   5.725   1.000 -1.1459 -0.3826 -0.7825
   76SLPC   C14 6804   6.325   6.041   0.910 -0.1917  0.0169  0.2701
   76SLPC  H14A 6805   6.226   6.007   0.886  0.1840 -1.1286  0.2667
   76SLPC  H14B 6806   6.320   6.142   0.946 -0.4078 -0.1668  0.7595
   76SLPC  H14C 6807   6.363   6.041   0.809 -1.1404 -0.0751 -0.0954
   76SLPC   C15 6808   6.539   5.978   1.007 -0.2575  0.7582 -0.5505
   76SLPC  H15A 6809   6.583   6.000   0.911  0.6178  0.8888 -0.1273
   76SLPC  H15B 6810   6.558   6.067   1.065  0.6276  0.7852 -0.8750
   76SLPC  H15C 6811   6.585   5.891   1.052 -0.3783  1.1946  0.4228
   76SLPC   C12 6812   6.333   5.948   1.132  0.6212  0.8021 -0.2523
   76SLPC  H12A 6813   6.357   6.044   1.175  0.2805  1.3728 -1.2962
   76SLPC  H12B 6814   6.369   5.873   1.202 -0.3576  1.4408  0.9761
   76SLPC   C11 6815   6.185   5.927   1.152 -0.1581  0.0625  0.2466
   76SLPC  H11A 6816   6.139   6.015   1.101 -1.7244 -1.9269 -1.9963
   76SLPC  H11B 6817   6.160   5.929   1.260  0.3062 -1.8976  0.4142
   76SLPC     P 6818   6.004   5.791   1.039  0.1385  0.4205  0.1717
   76SLPC   O13 6819   5.993   5.656   0.991  0.1268  0.3563  0.0951
   76SLPC   O14 6820   5.914   5.836   1.147  0.1350 -0.2848  0.2366
   76SLPC   O12 6821   6.150   5.806   1.095  0.2704 -0.4462  0.0295
   76SLPC   O11 6822   5.996   5.896   0.923 -0.4922  0.5680 -0.1850
   76SLPC    C1 6823   5.886   5.877   0.830  0.2749  0.2070 -0.0634
   76SLPC    HA 6824   5.914   5.794   0.761 -0.8091  0.2897 -0.6308
   76SLPC    HB 6825   5.792   5.843   0.880  0.3997  0.3953  0.2973
   76SLPC    C2 6826   5.854   6.000   0.740 -0.5011  0.2485  0.1729
   76SLPC    HS 6827   5.808   6.077   0.805  2.1636  1.7954  0.4004
   76SLPC   O21 6828   5.778   5.963   0.630 -0.0186 -0.7565 -0.0257
   76SLPC   C21 6829   5.697   6.053   0.589  0.6999  0.0498 -0.1734
   76SLPC   O22 6830   5.672   6.160   0.649 -0.2444 -0.0521  0.2566
   76SLPC   C22 6831   5.633   6.026   0.450 -0.4429 -0.2864  0.1040
   76SLPC   H2R 6832   5.595   5.922   0.456 -0.7867 -0.1060  1.2081
   76SLPC   H2S 6833   5.550   6.100   0.447 -0.4486 -0.2690  0.6223
   76SLPC    C3 6834   5.984   6.056   0.679 -0.2619 -0.2920  0.3365
   76SLPC    HX 6835   6.038   5.976   0.624  0.9734  0.3094  0.6275
   76SLPC    HY 6836   6.057   6.086   0.757 -0.4262 -0.4041  0.5320
   76SLPC   O31 6837   5.961   6.167   0.590  0.5711 -0.0267  0.2933
   76SLPC   C31 6838   5.984   6.292   0.634 -0.6838  0.2195  0.0970
   76SLPC   O32 6839   6.049   6.323   0.731 -0.4178  0.3307  0.0806
   76SLPC   C32 6840   5.912   6.397   0.545 -0.2598  0.8917  0.0634
   76SLPC   H2X 6841   5.900   6.489   0.607 -2.5735 -0.0022  1.0659
   76SLPC   H2Y 6842   5.806   6.366   0.529 -0.3219  0.7657  0.6733
   76SLPC   C23 6843   5.749   6.042   0.351 -0.5538 -0.7493 -0.5247
   76SLPC   H3R 6844   5.794   5.940   0.345  0.4627 -0.2845 -0.9518
   76SLPC   H3S 6845   5.815   6.124   0.387 -3.3683  1.4027  0.1042
   76SLPC   C24 6846   5.701   6.104   0.217  0.3457 -0.4777 -0.1285
   76SLPC   H4R 6847   5.786   6.140   0.154  0.4130  0.0976  0.2818
   76SLPC   H4S 6848   5.623   6.182   0.232  0.4162  0.1470 -2.5928
   76SLPC   C25 6849   5.611   6.011   0.130 -0.5354  0.0973 -0.3248
   76SLPC   H5R 6850   5.513   6.002   0.182 -0.7467  3.3600  0.0493
   76SLPC   H5S 6851   5.662   5.912   0.124  1.7402  1.1658  0.4126
   76SLPC   C26 6852   5.591   6.058  -0.016  0.4734  0.1365  0.6435
   76SLPC   H6R 6853   5.519   5.988  -0.063  1.0305 -1.6447  2.2827
   76SLPC   H6S 6854   5.692   6.047  -0.060  0.8025 -0.4392  1.5114
   76SLPC   C27 6855   5.551   6.203  -0.019 -0.2776 -0.8848  0.2739
   76SLPC   H7R 6856   5.643   6.266  -0.016  0.5025 -1.7765 -2.0729
   76SLPC   H7S 6857   5.489   6.225   0.070 -1.4082  0.4503 -0.7984
   76SLPC   C28 6858   5.467   6.240  -0.150  0.3109  0.4019  0.2450
   76SLPC   H8R 6859   5.442   6.348  -0.139  3.5032  1.1575  1.2298
   76SLPC   H8S 6860   5.379   6.174  -0.134  0.4617  0.5136  1.6826
   76SLPC   C29 6861   5.531   6.222  -0.287 -0.0548 -0.0623 -0.3406
   76SLPC   H9R 6862   5.640   6.235  -0.280  0.0479 -0.5893 -0.8749
   76SLPC  C210 6863   5.475   6.210  -0.408 -0.5321  0.5214 -0.2723
   76SLPC  H10R 6864   5.532   6.175  -0.495  1.3943  0.5783  0.9029
   76SLPC  C211 6865   5.323   6.211  -0.434 -0.2054  1.0810 -0.2164
   76SLPC  H11R 6866   5.267   6.215  -0.338 -1.8348  0.5980 -1.1020
   76SLPC  H11S 6867   5.294   6.111  -0.473 -0.1760  1.7532 -2.1143
   76SLPC  C212 6868   5.275   6.323  -0.524  0.0459 -0.5045  0.1312
   76SLPC  H12R 6869   5.299   6.423  -0.485  0.9599 -0.4752 -0.4985
   76SLPC  C213 6870   5.222   6.306  -0.643  0.3480 -0.3086 -0.0349
   76SLPC  H13R 6871   5.190   6.401  -0.689  1.1025  0.9183  1.8332
   76SLPC  C214 6872   5.192   6.175  -0.712  0.1317 -0.0154 -0.6411
   76SLPC  H14R 6873   5.116   6.119  -0.653 -0.8956  0.6125 -1.3342
   76SLPC  H14S 6874   5.287   6.118  -0.717  1.0565  1.4433 -0.0967
   76SLPC  C215 6875   5.131   6.179  -0.856  0.8056  0.6587 -0.4290
   76SLPC  H15R 6876   5.186   6.254  -0.916  2.2274  0.9778  1.2062
   76SLPC  H15S 6877   5.028   6.219  -0.847  0.7339  0.6198 -0.9967
   76SLPC  C216 6878   5.137   6.043  -0.932 -0.3268  0.2937 -0.4210
   76SLPC  H16R 6879   5.069   5.969  -0.884 -3.4197  0.2229 -4.4402
   76SLPC  H16S 6880   5.239   5.999  -0.931 -0.7554 -0.7425  0.6122
   76SLPC  C217 6881   5.095   6.055  -1.083  0.4242 -0.0436  0.4331
   76SLPC  H17R 6882   5.000   6.112  -1.091  0.0833 -0.7990 -1.2187
   76SLPC  H17S 6883   5.071   5.954  -1.122 -0.5427  0.4258 -0.2224
   76SLPC  C218 6884   5.200   6.112  -1.172  0.0983 -0.2393  0.4862
   76SLPC  H18R 6885   5.291   6.049  -1.179  1.4098  1.6822 -0.6426
   76SLPC  H18S 6886   5.233   6.200  -1.112 -0.9765  1.9529 -1.9713
   76SLPC  H18T 6887   5.154   6.148  -1.266 -0.7496 -2.5170 -0.0363
   76SLPC   C33 6888   5.987   6.423   0.406  0.2355 -0.2509  0.1814
   76SLPC   H3X 6889   6.089   6.464   0.419  0.6934 -1.0729 -0.7289
   76SLPC   H3Y 6890   5.943   6.519   0.371  0.2959 -0.3155 -0.0687
   76SLPC   C34 6891   5.968   6.319   0.297 -0.4187 -0.4587 -0.4060
   76SLPC   H4X 6892   5.858   6.307   0.282 -0.7771 -0.6107  1.9940
   76SLPC   H4Y 6893   6.016   6.227   0.336  1.2441  0.7038  0.3950
   76SLPC   C35 6894   6.030   6.383   0.169 -0.3942 -0.0851  0.1159
   76SLPC   H5X 6895   6.134   6.419   0.183 -1.0792  0.9256  3.4492
   76SLPC   H5Y 6896   5.977   6.475   0.137  2.4526  1.4816 -0.4633
   76SLPC   C36 6897   6.027   6.286   0.049  0.4498  0.3084  0.1846
   76SLPC   H6X 6898   5.927   6.237   0.046  0.9643 -0.7941 -2.6816
   76SLPC   H6Y 6899   6.094   6.203   0.081  0.8212  0.0877 -1.1008
   76SLPC   C37 6900   6.057   6.326  -0.097  0.3860 -0.3384 -0.2177
   76SLPC   H7X 6901   6.168   6.327  -0.102  0.5314 -2.8875  0.9753
   76SLPC   H7Y 6902   6.005   6.424  -0.107 -1.0936 -0.8628  1.6608
   76SLPC   C38 6903   5.991   6.227  -0.191 -0.0153 -0.7753 -0.4936
   76SLPC   H8X 6904   5.880   6.233  -0.182  0.1890  3.8312  1.7340
   76SLPC   H8Y 6905   6.032   6.126  -0.167  0.4912 -0.4525  0.0259
   76SLPC   C39 6906   6.004   6.273  -0.334 -0.1845  1.3428 -0.2843
   76SLPC   H9X 6907   6.114   6.279  -0.348 -0.1167  2.6396  0.6046
   76SLPC   H9Y 6908   5.967   6.378  -0.342  0.0669  1.4375 -0.2069
   76SLPC  C310 6909   5.944   6.189  -0.443  0.2828 -0.4531  0.8061
   76SLPC  H10X 6910   5.834   6.206  -0.449  0.5185  0.8530 -4.8120
   76SLPC  H10Y 6911   5.952   6.080  -0.424 -0.6154 -0.3859  1.6751
   76SLPC  C311 6912   6.001   6.220  -0.583 -0.2290 -0.0350 -0.1735
   76SLPC  H11X 6913   6.107   6.247  -0.566 -0.1533  0.9198 -1.9531
   76SLPC  H11Y 6914   5.950   6.303  -0.636  1.4223 -0.0799 -1.9472
   76SLPC  C312 6915   6.016   6.097  -0.673  0.1261 -0.4706  0.1724
   76SLPC  H12X 6916   5.920   6.041  -0.680  0.3131 -0.6663 -1.2344
   76SLPC  H12Y 6917   6.091   6.024  -0.635 -0.8804 -0.8731  1.4305
   76SLPC  C313 6918   6.070   6.150  -0.804  0.0842  0.6222 -0.5871
   76SLPC  H13X 6919   6.152   6.224  -0.796  2.2646 -1.6459 -0.7165
   76SLPC  H13Y 6920   5.983   6.194  -0.859 -1.8884 -2.3570 -0.0819
   76SLPC  C314 6921   6.107   6.037  -0.899  0.1775  0.7530 -0.1830
   76SLPC  H14X 6922   6.021   5.968  -0.909 -1.3244  2.5804 -0.3124
   76SLPC  H14Y 6923   6.198   5.987  -0.859 -0.0380  1.9043  1.9146
   76SLPC  C315 6924   6.147   6.089  -1.037  0.2633 -0.7678  0.9765
   76SLPC  H15X 6925   6.221   6.020  -1.082 -0.6079 -1.0084 -0.1271
   76SLPC  H15Y 6926   6.197   6.187  -1.024 -0.6033  0.0506 -1.4161
   76SLPC  C316 6927   6.033   6.116  -1.135 -0.2869  0.7006 -0.0169
   76SLPC  H16X 6928   5.946   6.164  -1.087 -0.9669  0.8202 -1.3218
   76SLPC  H16Y 6929   5.991   6.020  -1.170  1.1506  0.3240 -0.8256
   76SLPC  C317 6930   6.071   6.190  -1.259  0.4370  0.0564 -0.5798
   76SLPC  H17X 6931   6.110   6.284  -1.214 -2.3104  1.0380  0.0031
   76SLPC  H17Y 6932   5.981   6.225  -1.314 -0.0813 -0.5789 -0.1514
   76SLPC  C318 6933   6.159   6.115  -1.353 -0.2487  0.2454  0.4713
   76SLPC  H18X 6934   6.259   6.097  -1.309 -1.5244 -3.2551  2.3291
   76SLPC  H18Y 6935   6.173   6.168  -1.450  2.2434 -0.0394  0.6194
   76SLPC  H18Z 6936   6.117   6.013  -1.356 -2.7166  1.1945 -0.7149
   77SLPC     N 6937   4.012   2.217   0.950  0.2108  0.5630  0.0088
   77SLPC   C13 6938   3.868   2.199   0.980  0.3304 -0.2882 -0.7534
   77SLPC  H13A 6939   3.853   2.165   1.081  2.2852 -0.6856 -0.5531
   77SLPC  H13B 6940   3.821   2.290   0.948 -0.9797 -0.8080 -0.3751
   77SLPC  H13C 6941   3.821   2.129   0.913  0.7604 -0.9592 -0.3646
   77SLPC   C14 6942   4.026   2.240   0.801 -0.3052 -0.0325 -0.0463
   77SLPC  H14A 6943   4.004   2.146   0.751  1.0418 -1.0046  1.1025
   77SLPC  H14B 6944   3.953   2.315   0.778  0.8811  1.1159 -0.1763
   77SLPC  H14C 6945   4.125   2.275   0.776 -0.6189  1.0538  0.1923
   77SLPC   C15 6946   4.088   2.093   1.001 -0.2145  0.2220  0.4181
   77SLPC  H15A 6947   4.046   2.007   0.950 -0.9455  0.8031  0.0086
   77SLPC  H15B 6948   4.194   2.097   0.982 -0.2807  2.2847  0.2569
   77SLPC  H15C 6949   4.070   2.083   1.107  0.2832  3.0541  0.8370
   77SLPC   C12 6950   4.076   2.336   1.020  0.3860  0.3427 -0.1404
   77SLPC  H12A 6951   4.183   2.331   1.002  0.6423  1.1446  1.0730
   77SLPC  H12B 6952   4.070   2.315   1.125  1.1755  1.0638  0.0557
   77SLPC   C11 6953   4.025   2.477   0.997 -0.3561 -0.7155  0.1546
   77SLPC  H11A 6954   4.033   2.502   0.889 -0.9678  0.5841  0.3866
   77SLPC  H11B 6955   4.093   2.543   1.054  0.0929 -0.4499 -0.6812
   77SLPC     P 6956   3.803   2.622   1.017 -0.0931  0.0815  0.2378
   77SLPC   O13 6957   3.664   2.584   1.036  0.1112 -0.3785 -0.3041
   77SLPC   O14 6958   3.846   2.733   1.096 -0.0779 -0.4421 -0.3248
   77SLPC   O12 6959   3.890   2.492   1.043 -0.4652  0.0519 -0.2135
   77SLPC   O11 6960   3.834   2.644   0.859  0.1342  0.0101  0.5544
   77SLPC    C1 6961   3.772   2.579   0.755  0.2928  0.4942 -0.6271
   77SLPC    HA 6962   3.807   2.474   0.749  0.6330  0.6325 -1.1974
   77SLPC    HB 6963   3.661   2.582   0.757  0.2501  3.0102 -1.9903
   77SLPC    C2 6964   3.793   2.662   0.626 -0.2694 -0.0925  0.9703
   77SLPC    HS 6965   3.730   2.622   0.544  0.8338 -0.0725  0.0760
   77SLPC   O21 6966   3.930   2.656   0.590 -0.4711  0.2983 -0.0876
   77SLPC   C21 6967   3.986   2.551   0.546 -0.1376  0.2457 -0.2744
   77SLPC   O22 6968   3.928   2.439   0.544 -0.4704  0.1024 -0.1272
   77SLPC   C22 6969   4.119   2.578   0.494  0.2688  0.0533 -0.0467
   77SLPC   H2R 6970   4.185   2.605   0.578  0.8776 -0.6735 -0.2839
   77SLPC   H2S 6971   4.155   2.478   0.463 -0.4301  0.0436 -0.8917
   77SLPC    C3 6972   3.748   2.808   0.642  0.2169  0.5158 -0.1566
   77SLPC    HX 6973   3.801   2.856   0.727 -0.5944 -0.4044  0.8998
   77SLPC    HY 6974   3.643   2.798   0.676  0.9148 -0.7039  1.8118
   77SLPC   O31 6975   3.761   2.873   0.516  0.3610 -0.3056 -0.2752
   77SLPC   C31 6976   3.868   2.964   0.506 -0.0428 -0.8010  0.2182
   77SLPC   O32 6977   3.949   2.978   0.592  0.5206 -0.1352  0.0083
   77SLPC   C32 6978   3.863   3.041   0.373 -0.3549 -0.4916  0.1789
   77SLPC   H2X 6979   3.942   3.001   0.306  0.0996 -2.0018  1.5620
   77SLPC   H2Y 6980   3.900   3.146   0.381 -1.8828  0.3394 -2.4917
   77SLPC   C23 6981   4.131   2.686   0.388 -0.2698 -0.7907  0.7544
   77SLPC   H3R 6982   4.233   2.682   0.346 -0.8157  0.6170 -0.7941
   77SLPC   H3S 6983   4.098   2.786   0.425 -1.2183  0.0672 -2.1584
   77SLPC   C24 6984   4.048   2.646   0.266  0.3139  0.6915 -0.5797
   77SLPC   H4R 6985   3.941   2.661   0.290  1.0591  0.7931  3.3080
   77SLPC   H4S 6986   4.081   2.543   0.239  0.9870 -0.3858  3.6261
   77SLPC   C25 6987   4.067   2.756   0.159  0.0199 -0.0177  0.3004
   77SLPC   H5R 6988   4.169   2.761   0.116 -0.0301  0.6736  0.2463
   77SLPC   H5S 6989   4.055   2.850   0.218 -0.8971  0.5089 -0.6728
   77SLPC   C26 6990   3.963   2.747   0.046 -0.2825 -0.3008 -0.1796
   77SLPC   H6R 6991   3.991   2.827  -0.025 -1.7497 -0.8545 -1.4483
   77SLPC   H6S 6992   3.863   2.788   0.072 -0.9483 -1.0496 -1.4684
   77SLPC   C27 6993   3.953   2.615  -0.020  0.0802  0.7871  0.7143
   77SLPC   H7R 6994   3.906   2.545   0.052  0.0935 -0.9373 -0.8672
   77SLPC   H7S 6995   4.060   2.591  -0.039  0.0947  1.2466  0.1659
   77SLPC   C28 6996   3.873   2.638  -0.160  0.1302 -0.1223 -0.2444
   77SLPC   H8R 6997   3.916   2.726  -0.212  1.3823  0.6140  1.9158
   77SLPC   H8S 6998   3.765   2.657  -0.145 -0.2743 -2.0142 -0.4701
   77SLPC   C29 6999   3.906   2.518  -0.249 -0.5666 -0.1403  0.1429
   77SLPC   H9R 7000   3.944   2.428  -0.199  0.3752 -0.5931 -1.3220
   77SLPC  C210 7001   3.865   2.503  -0.376  0.2168  0.7288 -0.6364
   77SLPC  H10R 7002   3.901   2.416  -0.433  0.6780  1.8713 -2.1547
   77SLPC  C211 7003   3.779   2.607  -0.447 -0.0865 -0.3542 -0.2080
   77SLPC  H11R 7004   3.829   2.613  -0.546  2.1893  1.1739  0.9450
   77SLPC  H11S 7005   3.776   2.709  -0.402 -1.6546  0.0633 -1.1643
   77SLPC  C212 7006   3.641   2.555  -0.470 -0.3002 -0.2792 -0.8266
   77SLPC  H12R 7007   3.572   2.599  -0.397  0.1452  3.2804 -2.3447
   77SLPC  C213 7008   3.587   2.486  -0.575 -0.6035  0.4843 -0.2822
   77SLPC  H13R 7009   3.481   2.458  -0.580 -0.1047 -2.4838  2.1978
   77SLPC  C214 7010   3.668   2.432  -0.688  0.3333 -0.4910 -0.3178
   77SLPC  H14R 7011   3.643   2.324  -0.698 -1.6905 -0.0869 -0.1515
   77SLPC  H14S 7012   3.778   2.427  -0.675  0.4502 -1.2568 -1.4364
   77SLPC  C215 7013   3.647   2.507  -0.827  0.4984  0.9854 -0.1432
   77SLPC  H15R 7014   3.689   2.609  -0.822  2.1697  0.5105 -2.6112
   77SLPC  H15S 7015   3.539   2.515  -0.849  0.7152  1.8417 -0.9647
   77SLPC  C216 7016   3.714   2.436  -0.949  0.1096 -0.3616 -0.2574
   77SLPC  H16R 7017   3.665   2.336  -0.950 -1.5775  0.3613  1.8576
   77SLPC  H16S 7018   3.820   2.440  -0.916 -0.5225  1.0907  1.7737
   77SLPC  C217 7019   3.695   2.504  -1.090  0.0713  0.8468 -0.1720
   77SLPC  H17R 7020   3.584   2.509  -1.102 -0.3746 -1.5491  1.9538
   77SLPC  H17S 7021   3.726   2.427  -1.163  2.1774  0.1675  1.3484
   77SLPC  C218 7022   3.766   2.636  -1.109  0.6009 -0.6446  0.4581
   77SLPC  H18R 7023   3.874   2.615  -1.124  0.2631 -1.3624 -1.2434
   77SLPC  H18S 7024   3.777   2.695  -1.016  0.2002  1.0180 -0.5140
   77SLPC  H18T 7025   3.741   2.702  -1.195  0.4028  1.7268  2.2480
   77SLPC   C33 7026   3.723   3.052   0.312 -0.8028 -0.4617  0.4346
   77SLPC   H3X 7027   3.671   3.130   0.372 -1.5837  0.4235 -1.2941
   77SLPC   H3Y 7028   3.668   2.955   0.307  0.0698 -0.9884  0.7932
   77SLPC   C34 7029   3.721   3.110   0.173 -0.4223 -0.4893  1.4072
   77SLPC   H4X 7030   3.620   3.141   0.141 -0.2150 -0.3781  0.8549
   77SLPC   H4Y 7031   3.755   3.035   0.098 -0.5481  0.1724  0.6830
   77SLPC   C35 7032   3.817   3.231   0.151  0.9922  0.2552 -0.2142
   77SLPC   H5X 7033   3.923   3.200   0.146  0.9646  0.2248 -0.6889
   77SLPC   H5Y 7034   3.801   3.298   0.238 -1.4426 -1.4483  0.7791
   77SLPC   C36 7035   3.793   3.303   0.022 -0.8214 -0.2325  0.0098
   77SLPC   H6X 7036   3.852   3.397   0.015 -1.9189  0.3397 -4.0094
   77SLPC   H6Y 7037   3.690   3.347   0.021 -1.0833 -0.7810 -1.7897
   77SLPC   C37 7038   3.828   3.225  -0.106  0.3092 -0.5563 -0.5751
   77SLPC   H7X 7039   3.773   3.129  -0.106 -0.3805 -0.1814 -2.0697
   77SLPC   H7Y 7040   3.937   3.205  -0.098 -0.2438 -3.5570  0.8811
   77SLPC   C38 7041   3.788   3.303  -0.226  0.2787  0.6089  0.3494
   77SLPC   H8X 7042   3.824   3.408  -0.212 -0.4089  0.5661  2.9790
   77SLPC   H8Y 7043   3.679   3.312  -0.245  0.8081  1.2498 -2.8384
   77SLPC   C39 7044   3.834   3.236  -0.355  0.2701 -0.1142  0.4516
   77SLPC   H9X 7045   3.783   3.137  -0.355 -1.3165  0.6581  1.1155
   77SLPC   H9Y 7046   3.939   3.202  -0.355 -0.7873 -3.9308  1.1935
   77SLPC  C310 7047   3.798   3.310  -0.489 -0.3861 -0.0282 -0.5828
   77SLPC  H10X 7048   3.847   3.409  -0.476  0.3120 -0.7653  4.2257
   77SLPC  H10Y 7049   3.689   3.312  -0.506 -0.1069  1.5100 -2.6527
   77SLPC  C311 7050   3.844   3.235  -0.618  0.4377 -0.5508 -0.1381
   77SLPC  H11X 7051   3.798   3.134  -0.617  0.4053 -0.5426 -0.6585
   77SLPC  H11Y 7052   3.953   3.213  -0.614  0.6096  0.4242  1.3957
   77SLPC  C312 7053   3.807   3.307  -0.749 -0.6300 -0.0834 -0.1552
   77SLPC  H12X 7054   3.846   3.410  -0.737  0.3695 -0.3736 -0.7413
   77SLPC  H12Y 7055   3.697   3.305  -0.765 -0.7632 -0.5264  0.7624
   77SLPC  C313 7056   3.880   3.247  -0.877  0.7388  0.3541 -0.2666
   77SLPC  H13X 7057   3.819   3.159  -0.906 -1.5387  2.0644 -0.9089
   77SLPC  H13Y 7058   3.982   3.208  -0.854  1.4157  2.2457  0.0664
   77SLPC  C314 7059   3.899   3.338  -1.000 -0.3322 -0.1238  0.2401
   77SLPC  H14X 7060   3.952   3.430  -0.966 -2.0408  0.9693  0.0659
   77SLPC  H14Y 7061   3.800   3.370  -1.041 -0.8731  0.5437  1.9654
   77SLPC  C315 7062   3.968   3.262  -1.115  0.1413 -0.1146 -0.1915
   77SLPC  H15X 7063   3.907   3.172  -1.141 -0.2897 -0.3492  1.5263
   77SLPC  H15Y 7064   4.063   3.217  -1.077  0.1528  0.5664  0.6051
   77SLPC  C316 7065   3.984   3.357  -1.235 -0.4769 -0.3625 -0.5386
   77SLPC  H16X 7066   4.071   3.422  -1.213 -0.3691 -0.4594 -0.6764
   77SLPC  H16Y 7067   3.892   3.420  -1.241 -0.4750 -0.1659  1.1003
   77SLPC  C317 7068   4.000   3.283  -1.372  0.0059 -0.3720 -0.2787
   77SLPC  H17X 7069   3.998   3.361  -1.451 -0.8063  0.4839  0.5508
   77SLPC  H17Y 7070   3.912   3.217  -1.389 -0.2948 -0.7653  2.3490
   77SLPC  C318 7071   4.121   3.199  -1.391  0.1147  0.0263  0.1660
   77SLPC  H18X 7072   4.134   3.124  -1.309  0.3643  0.0255  0.1270
   77SLPC  H18Y 7073   4.217   3.253  -1.378  0.5887 -0.0994 -2.3466
   77SLPC  H18Z 7074   4.119   3.154  -1.492 -1.4392  0.7711 -0.1539
   78SLPC     N 7075   0.759   0.150   0.838 -0.2722  0.7451 -0.5464
   78SLPC   C13 7076   0.700   0.242   0.941 -0.7501 -0.2124 -0.1389
   78SLPC  H13A 7077   0.748   0.230   1.037  1.2394  0.1714 -1.0264
   78SLPC  H13B 7078   0.719   0.348   0.930 -2.3730  0.5765  3.2537
   78SLPC  H13C 7079   0.594   0.226   0.946 -0.5992 -1.6766 -1.0054
   78SLPC   C14 7080   0.711   0.199   0.707 -0.3949  0.0044 -0.5260
   78SLPC  H14A 7081   0.760   0.292   0.685  1.8985 -1.3383 -1.4375
   78SLPC  H14B 7082   0.733   0.130   0.627  2.0680 -0.8049  0.7522
   78SLPC  H14C 7083   0.603   0.194   0.708 -0.3841 -2.2614  2.1967
   78SLPC   C15 7084   0.711   0.007   0.857  0.0990 -0.4305 -0.4906
   78SLPC  H15A 7085   0.603  -0.001   0.861  0.1386 -0.3981  0.7929
   78SLPC  H15B 7086   0.739  -0.050   0.770 -1.7397  0.4855 -1.7693
   78SLPC  H15C 7087   0.760  -0.038   0.941 -0.1442 -0.6697 -0.4742
   78SLPC   C12 7088   0.918   0.154   0.840 -0.3077 -0.4127 -0.0291
   78SLPC  H12A 7089   0.961   0.121   0.747  0.1771  1.0294 -0.3483
   78SLPC  H12B 7090   0.945   0.093   0.924 -1.3985 -0.8226  0.0384
   78SLPC   C11 7091   0.981   0.295   0.869  0.4171 -0.0643 -0.1501
   78SLPC  H11A 7092   1.086   0.274   0.901  0.1798 -1.1645 -0.0629
   78SLPC  H11B 7093   0.930   0.334   0.960  0.0992 -1.4368  0.2760
   78SLPC     P 7094   0.942   0.509   0.732  0.0817  0.0274 -0.2701
   78SLPC   O13 7095   0.819   0.525   0.653  0.1787 -0.4618 -0.3816
   78SLPC   O14 7096   0.941   0.572   0.866  0.8996  0.0095 -0.9507
   78SLPC   O12 7097   0.967   0.358   0.743  0.0706  0.4688 -0.3431
   78SLPC   O11 7098   1.079   0.550   0.664 -0.1863  0.2459  0.4662
   78SLPC    C1 7099   1.130   0.680   0.672 -0.0762  0.7275  0.3275
   78SLPC    HA 7100   1.081   0.738   0.753 -0.6172 -0.5422  0.9456
   78SLPC    HB 7101   1.237   0.673   0.699 -0.0588 -3.3038 -0.0825
   78SLPC    C2 7102   1.107   0.759   0.536 -0.0703  0.4030 -0.0400
   78SLPC    HS 7103   1.001   0.791   0.522 -0.5363  0.2573  2.5754
   78SLPC   O21 7104   1.150   0.673   0.430 -0.4000  0.0790  0.7177
   78SLPC   C21 7105   1.094   0.697   0.313  0.3851  0.6762 -0.4325
   78SLPC   O22 7106   1.002   0.775   0.291 -0.1091  0.3034  0.0095
   78SLPC   C22 7107   1.174   0.619   0.216 -0.9583  0.2106  0.7550
   78SLPC   H2R 7108   1.254   0.576   0.279  1.4854  2.6223 -0.4955
   78SLPC   H2S 7109   1.114   0.536   0.173  0.9289 -0.7393 -0.1759
   78SLPC    C3 7110   1.196   0.886   0.530 -0.8153  0.0002 -0.4151
   78SLPC    HX 7111   1.304   0.859   0.532 -0.4692  1.2411 -1.1642
   78SLPC    HY 7112   1.182   0.935   0.628 -0.8425  0.3077 -0.5717
   78SLPC   O31 7113   1.163   0.976   0.419 -0.4031 -0.2137 -0.5116
   78SLPC   C31 7114   1.082   1.071   0.457 -0.1240  0.1075 -0.8473
   78SLPC   O32 7115   1.022   1.072   0.565  0.5485 -0.9574  0.5891
   78SLPC   C32 7116   1.061   1.168   0.344  0.4883 -0.5972 -0.1182
   78SLPC   H2X 7117   1.113   1.263   0.370  0.5015 -0.9210  1.1133
   78SLPC   H2Y 7118   0.951   1.184   0.340  0.7209  0.9257 -1.2996
   78SLPC   C23 7119   1.243   0.703   0.101  0.6450  0.2148  0.1111
   78SLPC   H3R 7120   1.340   0.744   0.138  0.8967  0.0743 -0.3978
   78SLPC   H3S 7121   1.171   0.785   0.081 -0.0572  0.4706  3.1106
   78SLPC   C24 7122   1.257   0.630  -0.036 -0.0593  0.0563  1.0042
   78SLPC   H4R 7123   1.154   0.598  -0.066  0.3374  0.1900 -0.6052
   78SLPC   H4S 7124   1.314   0.536  -0.022  2.2130  0.9360 -1.5467
   78SLPC   C25 7125   1.307   0.721  -0.152  0.2347  0.8266  0.7405
   78SLPC   H5R 7126   1.412   0.750  -0.128 -0.4344  2.0447  2.3825
   78SLPC   H5S 7127   1.244   0.812  -0.153 -0.0481  0.6357 -0.2197
   78SLPC   C26 7128   1.290   0.664  -0.291 -0.6484 -0.9443  0.2704
   78SLPC   H6R 7129   1.185   0.643  -0.321 -1.6363  0.6632  2.3511
   78SLPC   H6S 7130   1.342   0.566  -0.298  1.1623  0.0320 -0.6392
   78SLPC   C27 7131   1.355   0.756  -0.398  0.8260  0.6543  0.1271
   78SLPC   H7R 7132   1.463   0.757  -0.372  0.8114 -1.4446  0.4761
   78SLPC   H7S 7133   1.317   0.859  -0.378  1.6021  0.5530  2.4102
   78SLPC   C28 7134   1.323   0.716  -0.542 -0.2474 -0.2155 -0.4084
   78SLPC   H8R 7135   1.215   0.690  -0.535 -0.6203 -0.0366 -3.6095
   78SLPC   H8S 7136   1.365   0.614  -0.562 -0.7040 -0.3904 -0.4928
   78SLPC   C29 7137   1.344   0.814  -0.649 -0.0188 -0.0389 -0.4704
   78SLPC   H9R 7138   1.339   0.913  -0.602 -0.5634 -0.5438  0.5576
   78SLPC  C210 7139   1.368   0.807  -0.779 -0.5950  0.1251  0.0729
   78SLPC  H10R 7140   1.361   0.900  -0.838 -0.3633 -0.5328 -1.0214
   78SLPC  C211 7141   1.375   0.681  -0.860  0.8296  0.0410  0.5572
   78SLPC  H11R 7142   1.333   0.692  -0.963  1.2575  1.1439  0.4830
   78SLPC  H11S 7143   1.306   0.607  -0.813 -1.5233  0.5043 -1.9063
   78SLPC  C212 7144   1.514   0.619  -0.852 -0.3663  0.0777  0.4374
   78SLPC  H12R 7145   1.549   0.578  -0.756 -0.0182 -1.2554 -0.2294
   78SLPC  C213 7146   1.610   0.611  -0.947  1.3620  0.7072  0.1321
   78SLPC  H13R 7147   1.700   0.554  -0.920  0.7723  0.0328  0.7457
   78SLPC  C214 7148   1.591   0.662  -1.085 -0.1948  0.4029 -0.2875
   78SLPC  H14R 7149   1.681   0.717  -1.121 -1.1292  1.4217 -1.1742
   78SLPC  H14S 7150   1.516   0.744  -1.083  0.7690  1.4376  4.4127
   78SLPC  C215 7151   1.516   0.564  -1.183  0.5156 -1.2951 -0.7800
   78SLPC  H15R 7152   1.424   0.526  -1.134 -1.3726  0.6138 -2.6166
   78SLPC  H15S 7153   1.592   0.486  -1.206  1.9434  0.1498 -1.1313
   78SLPC  C216 7154   1.473   0.626  -1.310  0.5522 -0.5913  0.4571
   78SLPC  H16R 7155   1.559   0.673  -1.363 -1.3620  0.9780 -1.4441
   78SLPC  H16S 7156   1.391   0.698  -1.287 -1.1421 -2.9273  2.1617
   78SLPC  C217 7157   1.418   0.516  -1.401 -0.4758 -0.2081  0.0691
   78SLPC  H17R 7158   1.308   0.509  -1.385 -0.1510  0.1458  2.9854
   78SLPC  H17S 7159   1.470   0.424  -1.365 -0.8627 -0.8503 -0.9565
   78SLPC  C218 7160   1.441   0.539  -1.550  0.0821  0.4167  0.1920
   78SLPC  H18R 7161   1.392   0.464  -1.615  0.5515 -0.0719  0.3946
   78SLPC  H18S 7162   1.546   0.532  -1.586 -0.5047 -0.8881 -1.3786
   78SLPC  H18T 7163   1.388   0.634  -1.572 -1.6583 -0.5250  0.1519
   78SLPC   C33 7164   1.111   1.125   0.197  0.8520 -0.4737 -0.0409
   78SLPC   H3X 7165   1.057   1.030   0.174 -1.5106  1.0550 -1.2707
   78SLPC   H3Y 7166   1.221   1.113   0.200  0.8029 -0.7749  0.8069
   78SLPC   C34 7167   1.075   1.225   0.084  0.1394 -0.5736  0.0020
   78SLPC   H4X 7168   1.122   1.317   0.125 -0.5246 -0.5438  0.7110
   78SLPC   H4Y 7169   0.964   1.226   0.082  0.0269  0.3325  2.7005
   78SLPC   C35 7170   1.139   1.198  -0.051 -0.4010 -0.1379  0.0292
   78SLPC   H5X 7171   1.248   1.212  -0.039 -0.4715  1.0049 -0.5434
   78SLPC   H5Y 7172   1.106   1.278  -0.121 -2.0312 -0.6429  0.1656
   78SLPC   C36 7173   1.089   1.058  -0.108 -0.2024 -0.4295 -0.2531
   78SLPC   H6X 7174   0.979   1.049  -0.096 -0.2359 -2.6388 -1.6815
   78SLPC   H6Y 7175   1.137   0.979  -0.047 -1.8248 -0.0899  1.5783
   78SLPC   C37 7176   1.113   1.032  -0.255  0.1742  0.8602  0.4635
   78SLPC   H7X 7177   1.072   0.930  -0.275  2.1361  0.3066 -1.0784
   78SLPC   H7Y 7178   1.222   1.022  -0.269  0.0673  2.4132 -1.9144
   78SLPC   C38 7179   1.056   1.122  -0.361 -0.2949 -0.0256  0.4210
   78SLPC   H8X 7180   1.073   1.229  -0.335  1.0761  0.1367 -0.9856
   78SLPC   H8Y 7181   0.945   1.109  -0.357 -0.2212 -0.7449  0.2250
   78SLPC   C39 7182   1.099   1.070  -0.500 -0.7331 -0.8935 -0.2591
   78SLPC   H9X 7183   1.070   0.963  -0.500  1.2780 -1.5159  1.6962
   78SLPC   H9Y 7184   1.210   1.070  -0.507 -0.7455 -1.8881 -0.6834
   78SLPC  C310 7185   1.021   1.129  -0.618 -0.4706  0.8682  0.6478
   78SLPC  H10X 7186   1.057   1.233  -0.637 -0.3004  0.8236  0.7249
   78SLPC  H10Y 7187   0.912   1.138  -0.603 -0.5622  2.5613 -0.7259
   78SLPC  C311 7188   1.058   1.058  -0.752  0.0834 -0.5799 -0.0144
   78SLPC  H11X 7189   1.021   0.953  -0.758 -2.5787  0.3558 -2.8140
   78SLPC  H11Y 7190   1.167   1.058  -0.772  0.4033  3.9593  0.7773
   78SLPC  C312 7191   0.987   1.112  -0.884  0.6570 -0.2264 -0.0807
   78SLPC  H12X 7192   1.000   1.222  -0.890 -1.8393  0.0951 -0.5014
   78SLPC  H12Y 7193   0.878   1.104  -0.865  0.8456  0.7109  1.5823
   78SLPC  C313 7194   1.015   1.036  -1.014 -0.5263  0.5738  0.2692
   78SLPC  H13X 7195   0.954   1.079  -1.096  1.2005 -0.1303 -1.4584
   78SLPC  H13Y 7196   0.968   0.937  -0.998  1.2510 -0.3072  0.3048
   78SLPC  C314 7197   1.160   1.033  -1.060  0.0358 -0.0158 -0.5428
   78SLPC  H14X 7198   1.204   0.942  -1.013 -0.5210  0.3238  0.6765
   78SLPC  H14Y 7199   1.211   1.126  -1.027 -0.4375  0.1460 -0.2630
   78SLPC  C315 7200   1.168   1.014  -1.215 -0.7823 -0.3672  0.5111
   78SLPC  H15X 7201   1.103   1.087  -1.267 -0.8851 -0.6411  0.2560
   78SLPC  H15Y 7202   1.128   0.915  -1.246  3.1493 -1.9953  0.0486
   78SLPC  C316 7203   1.309   1.035  -1.277 -0.2705 -0.5303  0.5176
   78SLPC  H16X 7204   1.389   0.987  -1.217 -0.3295  0.2633  1.2425
   78SLPC  H16Y 7205   1.322   1.145  -1.268 -1.4392 -0.2434 -0.8632
   78SLPC  C317 7206   1.331   0.980  -1.415  0.4582 -0.3962 -0.5414
   78SLPC  H17X 7207   1.235   0.980  -1.471  0.6105 -0.6322 -0.8010
   78SLPC  H17Y 7208   1.373   0.879  -1.396  0.9102 -0.2096 -0.5355
   78SLPC  C318 7209   1.433   1.061  -1.499 -0.0502  0.6393  0.5975
   78SLPC  H18X 7210   1.536   1.068  -1.457  0.3052  0.1569 -0.1558
   78SLPC  H18Y 7211   1.401   1.165  -1.522 -0.3713  0.1557 -1.2853
   78SLPC  H18Z 7212   1.436   1.003  -1.594 -0.6732  2.1363 -0.3653
   79SLPC     N 7213   4.348   6.247   0.908 -0.6632 -0.1223 -0.3272
   79SLPC   C13 7214   4.430   6.360   0.951 -0.4122  0.3034  0.6651
   79SLPC  H13A 7215   4.430   6.434   0.873 -0.1093 -0.3678  0.0091
   79SLPC  H13B 7216   4.394   6.404   1.043  1.5087  1.7250  0.8060
   79SLPC  H13C 7217   4.534   6.333   0.963 -0.0329  1.0790 -0.7055
   79SLPC   C14 7218   4.208   6.304   0.883 -0.3138  0.1999  0.3027
   79SLPC  H14A 7219   4.134   6.225   0.875  1.2260 -1.1569 -1.6173
   79SLPC  H14B 7220   4.169   6.369   0.960 -0.5873  0.5204 -0.1035
   79SLPC  H14C 7221   4.212   6.358   0.790 -0.5833 -2.8804 -1.6472
   79SLPC   C15 7222   4.348   6.141   1.023 -0.8936 -0.7219 -0.0055
   79SLPC  H15A 7223   4.274   6.067   0.998 -1.4408 -0.2577  0.2008
   79SLPC  H15B 7224   4.438   6.089   1.053 -0.5327  0.3153  0.7827
   79SLPC  H15C 7225   4.305   6.177   1.116 -2.8275 -1.5388 -0.5410
   79SLPC   C12 7226   4.409   6.182   0.779  0.1664 -0.2389  0.6104
   79SLPC  H12A 7227   4.367   6.085   0.757 -1.2866  0.5757 -0.4452
   79SLPC  H12B 7228   4.516   6.181   0.794  0.0535 -1.2038  1.4404
   79SLPC   C11 7229   4.386   6.247   0.643  0.4294 -0.3546 -0.3480
   79SLPC  H11A 7230   4.277   6.232   0.627 -0.0629  1.8123  0.6819
   79SLPC  H11B 7231   4.449   6.201   0.563  1.4685  0.3379  0.0609
   79SLPC     P 7232   4.310   6.500   0.593  0.0148 -0.2152  0.2252
   79SLPC   O13 7233   4.183   6.505   0.674 -0.2309  0.1957  0.0878
   79SLPC   O14 7234   4.385   6.624   0.596  0.2914 -0.4825  0.2819
   79SLPC   O12 7235   4.415   6.387   0.647 -0.2590  0.1998 -0.1623
   79SLPC   O11 7236   4.267   6.461   0.453 -0.2781 -0.2765 -0.5972
   79SLPC    C1 7237   4.357   6.445   0.348  0.2477 -0.3282  0.1218
   79SLPC    HA 7238   4.438   6.521   0.348 -0.3266  0.3167  1.3218
   79SLPC    HB 7239   4.390   6.339   0.357  1.5592  0.0347 -0.1061
   79SLPC    C2 7240   4.290   6.464   0.211  0.1385  0.4121  0.0111
   79SLPC    HS 7241   4.197   6.404   0.202 -0.3770  1.3436 -1.2157
   79SLPC   O21 7242   4.393   6.406   0.126 -0.3809  0.1172  0.1757
   79SLPC   C21 7243   4.335   6.353   0.017  0.2778  0.1365  0.2747
   79SLPC   O22 7244   4.219   6.335  -0.005 -0.1497  0.7132  0.4899
   79SLPC   C22 7245   4.442   6.312  -0.084  0.3220  0.1766  0.3752
   79SLPC   H2R 7246   4.540   6.352  -0.050  1.3077 -0.2460 -1.7733
   79SLPC   H2S 7247   4.445   6.201  -0.075 -1.0498  0.1280  0.3973
   79SLPC    C3 7248   4.264   6.617   0.183 -0.5401 -0.5369 -0.3067
   79SLPC    HX 7249   4.366   6.658   0.199 -0.8535 -0.5037  1.9972
   79SLPC    HY 7250   4.197   6.668   0.256 -1.4804 -0.9206 -0.8742
   79SLPC   O31 7251   4.220   6.636   0.054 -0.3570  0.4743  0.5774
   79SLPC   C31 7252   4.088   6.622   0.040  0.1456 -0.9044  0.5552
   79SLPC   O32 7253   4.003   6.588   0.122  0.1787  0.2397  0.2195
   79SLPC   C32 7254   4.063   6.658  -0.107 -1.2053 -0.2529 -0.0539
   79SLPC   H2X 7255   4.139   6.603  -0.167 -0.4187  0.1224  0.5736
   79SLPC   H2Y 7256   4.086   6.765  -0.121 -1.4136 -0.3561 -1.2390
   79SLPC   C23 7257   4.410   6.367  -0.230 -0.5332  0.1887  0.5220
   79SLPC   H3R 7258   4.489   6.348  -0.305 -2.3803 -2.7178 -0.8641
   79SLPC   H3S 7259   4.406   6.477  -0.238  1.5312  0.1650 -1.7141
   79SLPC   C24 7260   4.284   6.310  -0.292  0.0048 -0.0042 -0.5785
   79SLPC   H4R 7261   4.199   6.360  -0.242  1.2548  0.1959  1.4467
   79SLPC   H4S 7262   4.281   6.204  -0.259  0.6372  0.2380  0.2908
   79SLPC   C25 7263   4.273   6.347  -0.444  0.2276  0.2807 -0.2914
   79SLPC   H5R 7264   4.357   6.293  -0.492  0.6497  1.5662 -1.0454
   79SLPC   H5S 7265   4.269   6.456  -0.465 -0.8400  0.4136  0.4704
   79SLPC   C26 7266   4.142   6.287  -0.508 -0.2616  0.1192  0.1120
   79SLPC   H6R 7267   4.055   6.341  -0.465  0.1102  1.6229 -0.9313
   79SLPC   H6S 7268   4.147   6.178  -0.484 -2.0621  0.2526  1.3177
   79SLPC   C27 7269   4.144   6.298  -0.663 -0.6856  0.6720  0.1651
   79SLPC   H7R 7270   4.224   6.234  -0.705 -1.8626  0.7110 -2.3200
   79SLPC   H7S 7271   4.173   6.402  -0.692 -1.0365  0.1527 -2.2374
   79SLPC   C28 7272   4.009   6.263  -0.733  0.2830 -0.0023 -0.1641
   79SLPC   H8R 7273   4.028   6.274  -0.842  3.7824 -1.7648  0.1511
   79SLPC   H8S 7274   3.930   6.338  -0.708 -0.1458 -0.9038  1.2844
   79SLPC   C29 7275   3.958   6.124  -0.696  0.3122  0.3051 -0.9207
   79SLPC   H9R 7276   4.034   6.047  -0.676  0.6019  0.3080 -1.9381
   79SLPC  C210 7277   3.835   6.077  -0.703  0.6897  0.4551  0.6478
   79SLPC  H10R 7278   3.822   5.969  -0.689  0.1835 -0.0602 -2.9815
   79SLPC  C211 7279   3.715   6.153  -0.745 -0.1028 -0.5735 -0.9042
   79SLPC  H11R 7280   3.702   6.243  -0.681  1.2181 -0.7125 -0.4126
   79SLPC  H11S 7281   3.622   6.094  -0.730  0.6614 -1.6901 -0.3230
   79SLPC  C212 7282   3.724   6.197  -0.891 -0.3734 -0.3937 -0.6718
   79SLPC  H12R 7283   3.744   6.108  -0.953  0.3874  0.2945 -1.4428
   79SLPC  C213 7284   3.705   6.318  -0.942 -0.2018 -0.5932  0.6764
   79SLPC  H13R 7285   3.728   6.331  -1.049 -1.3021 -1.9100  0.2407
   79SLPC  C214 7286   3.682   6.452  -0.869 -0.0826 -0.4895  0.2084
   79SLPC  H14R 7287   3.774   6.511  -0.884 -0.6408 -0.1644 -2.2734
   79SLPC  H14S 7288   3.671   6.437  -0.759 -1.6419  0.7582  0.2507
   79SLPC  C215 7289   3.561   6.537  -0.917  1.0706  1.0446  0.3325
   79SLPC  H15R 7290   3.474   6.509  -0.854  2.1225  1.0774  1.8509
   79SLPC  H15S 7291   3.543   6.526  -1.026  0.5719 -1.9109  0.6376
   79SLPC  C216 7292   3.583   6.689  -0.895  0.5908  0.5729  0.1699
   79SLPC  H16R 7293   3.490   6.734  -0.938 -1.5785 -2.7363  1.0150
   79SLPC  H16S 7294   3.675   6.717  -0.950  0.5471 -0.6934 -0.5929
   79SLPC  C217 7295   3.604   6.737  -0.753 -0.2678 -0.4751 -0.3738
   79SLPC  H17R 7296   3.624   6.846  -0.749 -0.6869 -0.3960 -0.3036
   79SLPC  H17S 7297   3.697   6.697  -0.709  0.2454  0.2025 -0.8301
   79SLPC  C218 7298   3.484   6.716  -0.662 -0.4681  0.3014 -0.1726
   79SLPC  H18R 7299   3.502   6.611  -0.632  0.2966 -0.8029 -4.0018
   79SLPC  H18S 7300   3.393   6.720  -0.726 -0.3750 -0.2636 -0.3365
   79SLPC  H18T 7301   3.476   6.792  -0.581 -3.7124 -0.1532  0.0568
   79SLPC   C33 7302   3.922   6.620  -0.162  0.1553  0.2008  0.2691
   79SLPC   H3X 7303   3.840   6.662  -0.100 -0.5735  1.0257 -1.2097
   79SLPC   H3Y 7304   3.920   6.509  -0.161  1.2285  0.1691 -0.1421
   79SLPC   C34 7305   3.887   6.676  -0.300  0.5229 -0.3391  0.4918
   79SLPC   H4X 7306   3.874   6.785  -0.281  0.7631 -0.2713  0.2770
   79SLPC   H4Y 7307   3.786   6.655  -0.339 -0.7322 -0.4250  3.5373
   79SLPC   C35 7308   3.986   6.651  -0.413 -0.0121  0.1928 -0.0833
   79SLPC   H5X 7309   4.005   6.542  -0.404  1.5753  0.1990 -2.4499
   79SLPC   H5Y 7310   4.080   6.704  -0.386 -1.1556  1.7017  1.0632
   79SLPC   C36 7311   3.925   6.687  -0.545  0.6207 -0.4808 -0.0167
   79SLPC   H6X 7312   3.855   6.773  -0.539  1.9502  0.6054  0.4802
   79SLPC   H6Y 7313   3.855   6.607  -0.577  0.9421 -0.8726  0.2685
   79SLPC   C37 7314   4.036   6.711  -0.650  0.4735  0.9178 -0.1659
   79SLPC   H7X 7315   4.113   6.631  -0.647  0.2424  0.6954 -0.1692
   79SLPC   H7Y 7316   4.092   6.802  -0.620  1.3754 -0.0916  1.3696
   79SLPC   C38 7317   3.980   6.732  -0.786 -0.1871  0.0604  0.1877
   79SLPC   H8X 7318   3.915   6.821  -0.777  0.4260  0.5971 -0.6169
   79SLPC   H8Y 7319   3.923   6.651  -0.836 -1.3502  0.9870 -0.0254
   79SLPC   C39 7320   4.087   6.779  -0.888  0.1201 -0.3501  0.2510
   79SLPC   H9X 7321   4.129   6.881  -0.873 -1.8383  0.2828  1.8944
   79SLPC   H9Y 7322   4.050   6.757  -0.991  0.9775 -0.9060  0.0500
   79SLPC  C310 7323   4.213   6.690  -0.881  0.3214  0.5081 -0.4023
   79SLPC  H10X 7324   4.183   6.583  -0.887  0.4183  0.4822 -0.4307
   79SLPC  H10Y 7325   4.271   6.709  -0.788  0.7279  0.6371 -0.6774
   79SLPC  C311 7326   4.299   6.705  -1.003 -0.3790  0.2139  0.6815
   79SLPC  H11X 7327   4.316   6.812  -1.024  1.8204 -0.2807 -0.3388
   79SLPC  H11Y 7328   4.236   6.671  -1.089  0.3306  0.1975  0.1608
   79SLPC  C312 7329   4.426   6.624  -0.990  0.3033 -0.1811 -0.3856
   79SLPC  H12X 7330   4.396   6.518  -0.973 -1.6479  0.5945  1.3910
   79SLPC  H12Y 7331   4.477   6.655  -0.896 -2.1221 -0.4048  1.0843
   79SLPC  C313 7332   4.512   6.624  -1.120  0.2840  0.3157 -0.2969
   79SLPC  H13X 7333   4.616   6.599  -1.088  0.3102 -1.3864 -1.5720
   79SLPC  H13Y 7334   4.515   6.728  -1.159  3.9922 -0.3427 -2.2704
   79SLPC  C314 7335   4.458   6.509  -1.216 -0.1770 -0.4192  0.2048
   79SLPC  H14X 7336   4.348   6.528  -1.226 -0.1410 -0.3427 -0.0772
   79SLPC  H14Y 7337   4.456   6.412  -1.163  1.6135 -0.0050  1.0771
   79SLPC  C315 7338   4.522   6.499  -1.351  0.2393  0.0690  0.3575
   79SLPC  H15X 7339   4.619   6.449  -1.333  0.1287 -0.2407  0.1031
   79SLPC  H15Y 7340   4.557   6.595  -1.395 -2.8076  0.8404 -0.6778
   79SLPC  C316 7341   4.448   6.407  -1.445 -0.3774  0.1074  0.5443
   79SLPC  H16X 7342   4.351   6.446  -1.485 -0.4093  0.6180  1.0994
   79SLPC  H16Y 7343   4.423   6.325  -1.376 -1.8474 -0.8190 -1.0054
   79SLPC  C317 7344   4.521   6.360  -1.573 -0.1401 -0.6477  0.0151
   79SLPC  H17X 7345   4.628   6.340  -1.548  0.4218  0.7914 -1.0796
   79SLPC  H17Y 7346   4.528   6.446  -1.643  1.6107 -1.9131 -1.4619
   79SLPC  C318 7347   4.448   6.255  -1.657  0.0910 -0.4809 -0.5885
   79SLPC  H18X 7348   4.519   6.221  -1.736  0.4759 -3.4370  0.8889
   79SLPC  H18Y 7349   4.356   6.299  -1.701  0.6939  0.4831 -0.9225
   79SLPC  H18Z 7350   4.427   6.164  -1.598  0.7433 -0.2604  0.0102
   80SLPC     N 7351   6.456   1.926   1.007 -0.1043  0.0571 -0.0390
   80SLPC   C13 7352   6.580   1.990   1.075  0.2811 -0.1242 -0.5669
   80SLPC  H13A 7353   6.614   1.934   1.160 -2.2920  1.1004  1.4037
   80SLPC  H13B 7354   6.660   1.989   1.002  1.5152  2.3170  0.6325
   80SLPC  H13C 7355   6.558   2.088   1.114  1.1711  0.0828 -0.5545
   80SLPC   C14 7356   6.349   1.924   1.113 -0.4161  0.2012 -0.0057
   80SLPC  H14A 7357   6.253   1.891   1.076  0.8354 -2.7035 -0.9911
   80SLPC  H14B 7358   6.377   1.860   1.196  4.1182 -1.1366 -2.2415
   80SLPC  H14C 7359   6.328   2.023   1.150 -1.9934  0.1144 -0.6053
   80SLPC   C15 7360   6.491   1.789   0.954  0.3573  0.7607 -0.0923
   80SLPC  H15A 7361   6.573   1.799   0.884  1.4192 -1.7605  0.6559
   80SLPC  H15B 7362   6.510   1.714   1.029 -3.2080  0.2572  0.4509
   80SLPC  H15C 7363   6.406   1.754   0.897  1.7819 -0.6191 -1.4996
   80SLPC   C12 7364   6.413   2.003   0.883  0.3449 -0.0447 -0.3097
   80SLPC  H12A 7365   6.316   1.967   0.851 -0.2523  0.4497  0.8544
   80SLPC  H12B 7366   6.490   1.994   0.808 -0.7594  2.0320 -1.8116
   80SLPC   C11 7367   6.391   2.155   0.896 -0.2262  0.0249  0.6811
   80SLPC  H11A 7368   6.388   2.202   0.795 -1.2208 -1.2242  0.1095
   80SLPC  H11B 7369   6.483   2.193   0.946  0.1526  0.0338  0.0012
   80SLPC     P 7370   6.132   2.180   0.913 -0.4170 -0.0119  0.0516
   80SLPC   O13 7371   6.034   2.165   1.024 -0.6518 -0.1301  0.2174
   80SLPC   O14 7372   6.130   2.292   0.823  0.3247 -0.0232  0.5343
   80SLPC   O12 7373   6.278   2.173   0.982 -0.1449 -0.4183  0.4125
   80SLPC   O11 7374   6.115   2.042   0.835  0.0763 -0.0352 -0.1343
   80SLPC    C1 7375   6.130   2.036   0.692  0.2693  0.3237 -0.6728
   80SLPC    HA 7376   6.028   2.076   0.670 -1.1652 -0.2523  3.7746
   80SLPC    HB 7377   6.210   2.099   0.649  0.0861  0.3609 -0.9613
   80SLPC    C2 7378   6.135   1.890   0.643  0.0732 -0.6903 -0.7067
   80SLPC    HS 7379   6.244   1.867   0.651  0.1615 -0.1065 -0.1099
   80SLPC   O21 7380   6.089   1.881   0.509 -0.3217 -0.1952 -0.1022
   80SLPC   C21 7381   6.159   1.937   0.420  0.3678  0.1174 -0.0378
   80SLPC   O22 7382   6.253   2.011   0.435  0.0288 -0.5066 -0.2205
   80SLPC   C22 7383   6.110   1.877   0.280 -0.5558 -0.3756 -0.1344
   80SLPC   H2R 7384   6.178   1.792   0.257  0.9934  0.2797  1.7323
   80SLPC   H2S 7385   6.004   1.843   0.285 -0.8841  0.1510 -2.5878
   80SLPC    C3 7386   6.037   1.806   0.728 -0.0470  0.1298  1.0790
   80SLPC    HX 7387   5.943   1.846   0.684  0.9449 -2.5246 -4.2637
   80SLPC    HY 7388   6.046   1.806   0.839 -0.0819 -1.5705  1.1092
   80SLPC   O31 7389   6.057   1.672   0.694 -0.5288 -0.1835 -0.4300
   80SLPC   C31 7390   6.167   1.612   0.743  0.2936  0.1572  0.3218
   80SLPC   O32 7391   6.237   1.662   0.826 -0.0433  0.4525  0.8870
   80SLPC   C32 7392   6.190   1.474   0.675  0.1758 -0.1447 -0.2318
   80SLPC   H2X 7393   6.086   1.436   0.666 -0.8417  2.1947  0.9123
   80SLPC   H2Y 7394   6.245   1.416   0.752  0.7177 -0.1600 -0.6284
   80SLPC   C23 7395   6.103   1.974   0.157 -0.1176  0.4768  0.3825
   80SLPC   H3R 7396   6.190   2.041   0.170  0.0924  0.0434  1.2821
   80SLPC   H3S 7397   6.022   2.049   0.172  0.6603  0.9009  2.9934
   80SLPC   C24 7398   6.118   1.910   0.024 -0.9401 -0.0572  0.5863
   80SLPC   H4R 7399   6.034   1.847  -0.013  0.7075 -0.9237 -1.9106
   80SLPC   H4S 7400   6.215   1.858   0.009  1.0274  3.7197 -1.5933
   80SLPC   C25 7401   6.117   2.014  -0.090  0.1862 -0.1963 -0.5399
   80SLPC   H5R 7402   6.220   2.055  -0.080  0.2506 -0.5389  0.2811
   80SLPC   H5S 7403   6.039   2.092  -0.080 -0.5825 -1.1256  1.1492
   80SLPC   C26 7404   6.104   1.943  -0.217 -0.0860  0.2056 -0.1669
   80SLPC   H6R 7405   6.001   1.907  -0.237  0.3894 -0.6524 -1.1504
   80SLPC   H6S 7406   6.168   1.853  -0.225 -1.6678 -0.8940 -0.9878
   80SLPC   C27 7407   6.139   2.040  -0.335  0.5577  0.2699  0.5153
   80SLPC   H7R 7408   6.240   2.078  -0.310  1.4737 -1.0124 -0.9931
   80SLPC   H7S 7409   6.068   2.124  -0.323 -0.1662  0.1633 -2.2846
   80SLPC   C28 7410   6.113   1.976  -0.470  0.2669  0.2449 -0.3579
   80SLPC   H8R 7411   6.011   1.933  -0.478 -0.0231  1.0312 -1.1409
   80SLPC   H8S 7412   6.187   1.895  -0.489  0.3097 -0.0902  1.1030
   80SLPC   C29 7413   6.112   2.086  -0.578 -0.0488  0.0171 -0.7231
   80SLPC   H9R 7414   6.080   2.188  -0.551  1.6734  0.1132  1.1737
   80SLPC  C210 7415   6.144   2.064  -0.705 -0.2276  0.1497  0.3140
   80SLPC  H10R 7416   6.136   2.150  -0.773  0.7002  0.6289  0.7997
   80SLPC  C211 7417   6.186   1.937  -0.780  0.1898 -0.1321 -0.4637
   80SLPC  H11R 7418   6.152   1.939  -0.886  2.2961 -1.3477 -1.2325
   80SLPC  H11S 7419   6.155   1.841  -0.734 -2.0149  0.5145 -0.5084
   80SLPC  C212 7420   6.337   1.927  -0.790 -0.2238 -0.4162  0.0356
   80SLPC  H12R 7421   6.377   1.954  -0.691 -2.4288  2.2972  0.3141
   80SLPC  C213 7422   6.415   1.889  -0.890 -0.3810 -0.6843 -0.5774
   80SLPC  H13R 7423   6.523   1.903  -0.880 -0.6168  1.6544 -0.9245
   80SLPC  C214 7424   6.363   1.858  -1.028  1.0121  0.4634  0.6115
   80SLPC  H14R 7425   6.253   1.845  -1.030  0.8972  1.2397  1.1950
   80SLPC  H14S 7426   6.391   1.759  -1.068  2.6884  1.0156  0.3459
   80SLPC  C215 7427   6.408   1.962  -1.130 -0.0623  0.1005 -0.8848
   80SLPC  H15R 7428   6.381   2.062  -1.091  2.3437 -1.0085  4.6039
   80SLPC  H15S 7429   6.350   1.934  -1.221 -3.2612 -1.3077  1.3988
   80SLPC  C216 7430   6.550   1.943  -1.183  0.5440  0.1090 -0.0706
   80SLPC  H16R 7431   6.563   1.835  -1.206 -0.3383 -0.4812  2.0271
   80SLPC  H16S 7432   6.619   1.965  -1.099  1.0298 -1.7379  0.0644
   80SLPC  C217 7433   6.579   2.033  -1.300  0.5345 -0.1265 -0.4151
   80SLPC  H17R 7434   6.496   2.009  -1.369  1.4490 -0.6977 -1.3483
   80SLPC  H17S 7435   6.669   2.000  -1.356  0.8140  3.2494 -2.1933
   80SLPC  C218 7436   6.585   2.185  -1.269 -0.5690  0.0728 -0.0118
   80SLPC  H18R 7437   6.627   2.240  -1.355 -2.1063 -0.1312 -0.9254
   80SLPC  H18S 7438   6.649   2.216  -1.184  2.3811  1.0499 -2.4261
   80SLPC  H18T 7439   6.483   2.227  -1.254 -0.6502 -0.6329  1.6965
   80SLPC   C33 7440   6.267   1.488   0.547  0.1352 -0.0688  0.2739
   80SLPC   H3X 7441   6.321   1.394   0.524 -0.6636 -1.1557  2.5183
   80SLPC   H3Y 7442   6.340   1.572   0.557  0.2847 -0.3103  1.3562
   80SLPC   C34 7443   6.171   1.512   0.427  0.6487  0.3043  0.5138
   80SLPC   H4X 7444   6.105   1.601   0.426 -0.4646 -0.5050  0.6509
   80SLPC   H4Y 7445   6.107   1.423   0.407  1.0846 -0.3392  1.8692
   80SLPC   C35 7446   6.266   1.521   0.298 -0.2088  0.0893  0.2047
   80SLPC   H5X 7447   6.347   1.446   0.294  1.8562  2.2492 -1.5714
   80SLPC   H5Y 7448   6.325   1.615   0.302  0.9268 -0.4733 -1.6716
   80SLPC   C36 7449   6.179   1.514   0.175  0.3656 -0.1898 -0.1756
   80SLPC   H6X 7450   6.125   1.610   0.162 -2.2554 -1.7770 -1.9682
   80SLPC   H6Y 7451   6.097   1.439   0.182 -0.2767  0.4341 -0.8749
   80SLPC   C37 7452   6.263   1.494   0.039 -0.3761 -0.6976 -0.2894
   80SLPC   H7X 7453   6.277   1.385   0.027 -0.9585 -0.8337  0.2428
   80SLPC   H7Y 7454   6.361   1.547   0.042 -0.7338  0.1701 -2.2759
   80SLPC   C38 7455   6.194   1.545  -0.088  0.3312  0.7353  0.4417
   80SLPC   H8X 7456   6.250   1.631  -0.129  0.7094 -0.2815 -1.2714
   80SLPC   H8Y 7457   6.090   1.581  -0.069 -0.0776 -0.0771 -0.2280
   80SLPC   C39 7458   6.175   1.441  -0.198 -1.1378  0.3372  0.3454
   80SLPC   H9X 7459   6.081   1.382  -0.203 -1.8338  1.4742 -0.4111
   80SLPC   H9Y 7460   6.259   1.370  -0.180 -0.2039  1.1871 -0.5668
   80SLPC  C310 7461   6.197   1.511  -0.332 -0.1857 -0.7678  0.8842
   80SLPC  H10X 7462   6.297   1.558  -0.342 -1.2170  1.2359 -0.7555
   80SLPC  H10Y 7463   6.120   1.590  -0.346 -0.4993 -1.3384 -1.0110
   80SLPC  C311 7464   6.183   1.419  -0.449  0.3267 -0.4101  0.5939
   80SLPC  H11X 7465   6.089   1.361  -0.453  0.9829 -1.6770  2.4983
   80SLPC  H11Y 7466   6.264   1.343  -0.453  1.3008  0.6131  0.4905
   80SLPC  C312 7467   6.194   1.512  -0.572  0.4487  0.4892  0.1391
   80SLPC  H12X 7468   6.296   1.553  -0.588  0.5864 -0.4654 -1.6551
   80SLPC  H12Y 7469   6.128   1.599  -0.555 -0.5228 -0.2002 -0.0429
   80SLPC  C313 7470   6.169   1.438  -0.701  0.3262  0.6187 -0.2701
   80SLPC  H13X 7471   6.068   1.394  -0.690  1.1649 -1.2261  0.4772
   80SLPC  H13Y 7472   6.227   1.345  -0.715 -3.0677 -2.0520  1.7557
   80SLPC  C314 7473   6.155   1.527  -0.818 -0.3120 -0.2046  0.4215
   80SLPC  H14X 7474   6.257   1.562  -0.843  0.2637 -2.7407 -1.0710
   80SLPC  H14Y 7475   6.106   1.624  -0.794  0.3017  0.1823  0.1487
   80SLPC  C315 7476   6.098   1.463  -0.946 -0.3957  0.0918  0.0470
   80SLPC  H15X 7477   5.988   1.447  -0.943 -0.4356 -0.6392 -2.5437
   80SLPC  H15Y 7478   6.148   1.364  -0.957 -0.0645  0.3137 -0.5386
   80SLPC  C316 7479   6.116   1.543  -1.076 -0.5560  0.4154  0.3102
   80SLPC  H16X 7480   6.222   1.535  -1.109 -1.0353 -0.8084 -1.0485
   80SLPC  H16Y 7481   6.091   1.651  -1.067  1.2947  0.9012  0.0347
   80SLPC  C317 7482   6.033   1.490  -1.189  0.6634 -0.0907 -0.3844
   80SLPC  H17X 7483   5.929   1.501  -1.153  0.0331 -0.3157 -2.0279
   80SLPC  H17Y 7484   6.044   1.380  -1.208  0.1198 -0.4157  1.1147
   80SLPC  C318 7485   6.040   1.575  -1.322  0.6589  0.1199 -0.2064
   80SLPC  H18X 7486   5.970   1.547  -1.403  0.3142 -0.2021  0.1982
   80SLPC  H18Y 7487   6.142   1.571  -1.368  1.5295  1.2436  1.5320
   80SLPC  H18Z 7488   6.033   1.681  -1.290 -0.9203  0.2359 -0.8470
   81SLPC     N 7489   0.527   3.992   5.297 -0.5733 -1.1957 -0.1081
   81SLPC   C13 7490   0.443   3.868   5.311  0.2905 -0.0209 -0.6416
   81SLPC  H13A 7491   0.489   3.778   5.273 -3.6920 -3.2570  1.3378
   81SLPC  H13B 7492   0.430   3.841   5.415  0.2610  2.0200 -0.0754
   81SLPC  H13C 7493   0.344   3.892   5.274 -0.2599 -0.0753  0.7201
   81SLPC   C14 7494   0.541   4.025   5.152 -0.2519  0.0571  0.4645
   81SLPC  H14A 7495   0.609   3.954   5.107 -0.4261 -0.0315  0.3420
   81SLPC  H14B 7496   0.442   4.039   5.110 -0.6432 -0.3595  1.2441
   81SLPC  H14C 7497   0.595   4.118   5.146 -0.5591  0.2853  1.2518
   81SLPC   C15 7498   0.662   3.966   5.353 -0.4489  0.6630 -0.5064
   81SLPC  H15A 7499   0.645   3.955   5.459  0.0798  1.4784 -0.3255
   81SLPC  H15B 7500   0.712   3.875   5.325  2.6317  2.1910 -0.4652
   81SLPC  H15C 7501   0.731   4.048   5.338  0.2707 -0.1852 -2.0760
   81SLPC   C12 7502   0.464   4.114   5.363 -0.0378  0.1079 -0.3142
   81SLPC  H12A 7503   0.513   4.204   5.330 -1.8653  0.4395 -2.3839
   81SLPC  H12B 7504   0.470   4.094   5.469 -0.4226 -1.8670 -0.6238
   81SLPC   C11 7505   0.315   4.142   5.329 -0.2282 -0.6811  0.3615
   81SLPC  H11A 7506   0.324   4.165   5.220  0.1505  1.3859  0.7812
   81SLPC  H11B 7507   0.292   4.244   5.368  1.6197  1.7107 -3.9824
   81SLPC     P 7508   0.160   4.049   5.513 -0.1837 -0.3673 -0.3334
   81SLPC   O13 7509   0.102   4.182   5.537  0.2079  0.4760  0.0411
   81SLPC   O14 7510   0.066   3.942   5.535 -0.0120 -0.1597  0.2932
   81SLPC   O12 7511   0.210   4.046   5.358  0.1271  0.0236  0.3221
   81SLPC   O11 7512   0.283   4.030   5.605  0.0518 -0.0759 -0.6028
   81SLPC    C1 7513   0.326   3.903   5.660 -0.6334  0.2088  0.0338
   81SLPC    HA 7514   0.309   3.818   5.590  1.3514  0.1956 -0.4773
   81SLPC    HB 7515   0.436   3.908   5.667 -0.3835 -2.3930 -1.0989
   81SLPC    C2 7516   0.282   3.861   5.801 -0.4156  0.5949  0.6006
   81SLPC    HS 7517   0.171   3.870   5.802 -0.5377 -0.4544  2.4313
   81SLPC   O21 7518   0.347   3.948   5.899 -0.5663 -0.1009  0.2245
   81SLPC   C21 7519   0.272   3.985   6.005 -0.4828  0.3435  0.5857
   81SLPC   O22 7520   0.149   3.967   6.012 -0.6902 -0.1660  0.1845
   81SLPC   C22 7521   0.359   4.067   6.105  1.0559 -0.1167 -0.6018
   81SLPC   H2R 7522   0.459   4.020   6.116  2.5370  2.6259 -1.3897
   81SLPC   H2S 7523   0.378   4.164   6.055 -0.3706 -0.3534 -1.6731
   81SLPC    C3 7524   0.324   3.712   5.823  0.7868 -0.4793  0.0146
   81SLPC    HX 7525   0.429   3.716   5.789  0.4654  2.1795 -0.8701
   81SLPC    HY 7526   0.261   3.642   5.764 -0.2987  0.0920  0.4603
   81SLPC   O31 7527   0.324   3.678   5.966  0.3012 -0.2035  0.3377
   81SLPC   C31 7528   0.208   3.619   6.004  0.3294 -0.1420  0.4753
   81SLPC   O32 7529   0.118   3.582   5.931 -0.2646 -0.1989 -0.7118
   81SLPC   C32 7530   0.214   3.584   6.154  0.1891  0.2569 -0.5330
   81SLPC   H2X 7531   0.294   3.508   6.172 -1.5182 -0.8607  3.3708
   81SLPC   H2Y 7532   0.127   3.517   6.170  1.8931 -1.5630  2.1223
   81SLPC   C23 7533   0.285   4.084   6.242 -0.0046 -0.3614 -0.1003
   81SLPC   H3R 7534   0.261   3.990   6.296 -3.1678  0.1600 -0.4173
   81SLPC   H3S 7535   0.188   4.130   6.214 -0.4322 -0.9071  0.4743
   81SLPC   C24 7536   0.350   4.188   6.336  0.1275 -0.2552 -0.5271
   81SLPC   H4R 7537   0.333   4.290   6.298 -1.5715 -0.8074 -1.3668
   81SLPC   H4S 7538   0.460   4.175   6.332 -0.0197 -1.7375 -0.3693
   81SLPC   C25 7539   0.311   4.166   6.486  1.0381 -0.2685  0.3356
   81SLPC   H5R 7540   0.340   4.061   6.505  0.0937 -0.6665 -0.3236
   81SLPC   H5S 7541   0.201   4.179   6.495  0.7503 -1.4669 -1.0674
   81SLPC   C26 7542   0.373   4.262   6.578 -0.0684  0.5930 -0.3699
   81SLPC   H6R 7543   0.337   4.365   6.554  2.2736  1.7678  0.9096
   81SLPC   H6S 7544   0.483   4.265   6.565 -0.1348 -0.2883 -1.2794
   81SLPC   C27 7545   0.347   4.215   6.720 -0.2717  0.1571  0.0193
   81SLPC   H7R 7546   0.263   4.142   6.728 -1.9959  1.9922 -0.4679
   81SLPC   H7S 7547   0.309   4.304   6.774 -0.2972 -1.2473  2.4752
   81SLPC   C28 7548   0.478   4.155   6.780 -0.3905 -0.1131 -0.7218
   81SLPC   H8R 7549   0.565   4.222   6.762  0.4856 -1.3030 -1.0991
   81SLPC   H8S 7550   0.502   4.057   6.734 -1.0740 -0.9610  0.6755
   81SLPC   C29 7551   0.467   4.143   6.932  0.3598 -0.2474 -0.2698
   81SLPC   H9R 7552   0.435   4.237   6.980 -0.5418 -0.1283 -1.0749
   81SLPC  C210 7553   0.495   4.032   7.010 -0.0366 -0.3225 -0.3145
   81SLPC  H10R 7554   0.483   4.047   7.118  0.4232  1.2536 -0.4604
   81SLPC  C211 7555   0.543   3.895   6.964  0.3963  0.6593 -0.8230
   81SLPC  H11R 7556   0.654   3.892   6.971  0.4173 -0.4080 -1.3307
   81SLPC  H11S 7557   0.527   3.876   6.856  0.7625 -1.1845 -0.5976
   81SLPC  C212 7558   0.480   3.784   7.047 -0.1639  0.7626 -0.3901
   81SLPC  H12R 7559   0.382   3.751   7.008  0.0863 -1.6722  0.8554
   81SLPC  C213 7560   0.520   3.734   7.167  0.4827 -0.1462 -0.7994
   81SLPC  H13R 7561   0.468   3.644   7.202  1.2747  0.0056  0.8529
   81SLPC  C214 7562   0.655   3.770   7.224  0.1172 -0.4584  0.1406
   81SLPC  H14R 7563   0.657   3.812   7.326 -0.2080 -0.7538  0.2713
   81SLPC  H14S 7564   0.710   3.839   7.156 -0.2357 -0.4400 -0.1260
   81SLPC  C215 7565   0.754   3.654   7.240 -0.2206  0.9253  0.1014
   81SLPC  H15R 7566   0.701   3.591   7.315  0.1388 -2.6728 -2.4078
   81SLPC  H15S 7567   0.850   3.696   7.276 -0.0880  4.0234 -3.2724
   81SLPC  C216 7568   0.784   3.564   7.116 -0.3111  0.1404 -0.2588
   81SLPC  H16R 7569   0.841   3.623   7.040 -0.4459 -1.0491 -1.3063
   81SLPC  H16S 7570   0.685   3.538   7.073 -0.9872  1.1457  0.6365
   81SLPC  C217 7571   0.854   3.438   7.165  0.4396  0.0775  0.1267
   81SLPC  H17R 7572   0.824   3.416   7.269  1.8178 -1.0421  0.3217
   81SLPC  H17S 7573   0.963   3.447   7.185  0.0164  0.9841  2.1644
   81SLPC  C218 7574   0.824   3.323   7.077 -0.8788 -0.2668  0.5055
   81SLPC  H18R 7575   0.819   3.233   7.141  0.5664  0.8460  2.2984
   81SLPC  H18S 7576   0.900   3.311   6.997  0.9165  0.9767  1.9520
   81SLPC  H18T 7577   0.724   3.333   7.029 -1.6661 -2.5073  1.5349
   81SLPC   C33 7578   0.214   3.711   6.248 -0.1198  0.1564  0.2573
   81SLPC   H3X 7579   0.122   3.770   6.229 -1.6244 -1.1370  2.9067
   81SLPC   H3Y 7580   0.307   3.770   6.233  0.2373 -1.0832 -3.3630
   81SLPC   C34 7581   0.215   3.675   6.397  0.3079 -0.3349  0.3120
   81SLPC   H4X 7582   0.301   3.609   6.420 -0.0857 -0.1273  2.6907
   81SLPC   H4Y 7583   0.130   3.604   6.404 -1.3590  1.5583  0.1431
   81SLPC   C35 7584   0.198   3.781   6.503  0.1750 -0.7327 -0.8427
   81SLPC   H5X 7585   0.111   3.849   6.483  2.2048  1.0455 -4.5620
   81SLPC   H5Y 7586   0.297   3.829   6.511  0.7705 -1.6166 -2.6476
   81SLPC   C36 7587   0.165   3.728   6.642  0.3837  0.0754  0.4288
   81SLPC   H6X 7588   0.257   3.685   6.686 -0.3204 -1.7875  0.1813
   81SLPC   H6Y 7589   0.088   3.649   6.644  1.4866 -1.1131 -1.3548
   81SLPC   C37 7590   0.120   3.845   6.720 -0.2433  0.0383 -0.7865
   81SLPC   H7X 7591   0.022   3.885   6.686 -0.5418  0.6084  0.6725
   81SLPC   H7Y 7592   0.194   3.927   6.711 -2.0264  1.8085 -0.1799
   81SLPC   C38 7593   0.091   3.807   6.866 -1.2560  0.4408  0.8570
   81SLPC   H8X 7594   0.164   3.737   6.911 -1.4996 -0.2112  0.2400
   81SLPC   H8Y 7595  -0.003   3.748   6.866 -0.4900 -0.8282  1.4833
   81SLPC   C39 7596   0.064   3.909   6.971 -0.4896  0.5779  1.0640
   81SLPC   H9X 7597  -0.017   3.973   6.930  0.0683  0.3851 -0.4014
   81SLPC   H9Y 7598   0.159   3.962   6.994 -0.8095  1.7858 -0.2413
   81SLPC  C310 7599   0.010   3.844   7.100 -0.3051  0.3124 -0.9205
   81SLPC  H10X 7600   0.058   3.745   7.117  0.6916  1.2982  2.7506
   81SLPC  H10Y 7601  -0.099   3.827   7.100 -0.1278 -1.1850  1.5148
   81SLPC  C311 7602   0.049   3.931   7.231  0.4327  0.1746 -0.3242
   81SLPC  H11X 7603  -0.001   3.882   7.317 -0.3115  1.4684  0.0144
   81SLPC  H11Y 7604   0.011   4.036   7.232  0.9502  0.3912 -1.4308
   81SLPC  C312 7605   0.199   3.925   7.260 -0.2199 -0.5419 -0.4112
   81SLPC  H12X 7606   0.268   3.949   7.177  2.2339  1.0575  1.9536
   81SLPC  H12Y 7607   0.216   3.822   7.296 -0.9206 -1.2638 -2.0211
   81SLPC  C313 7608   0.241   4.028   7.372 -0.2866  0.1916 -0.1526
   81SLPC  H13X 7609   0.178   4.011   7.461 -1.1362 -0.7985 -0.9206
   81SLPC  H13Y 7610   0.222   4.131   7.335  0.3845 -0.1316 -1.4762
   81SLPC  C314 7611   0.394   4.008   7.409 -1.1931 -0.1437  0.1024
   81SLPC  H14X 7612   0.453   4.002   7.316  1.1203  0.4556  1.4573
   81SLPC  H14Y 7613   0.418   3.905   7.444  1.1137  0.8647  1.6901
   81SLPC  C315 7614   0.455   4.115   7.499  0.0448  0.0860  0.0718
   81SLPC  H15X 7615   0.564   4.094   7.507  0.2180  1.0242  0.2470
   81SLPC  H15Y 7616   0.417   4.107   7.603  1.8607 -0.2083  0.7481
   81SLPC  C316 7617   0.439   4.260   7.452 -0.4479 -0.3233  0.0845
   81SLPC  H16X 7618   0.337   4.300   7.471 -0.0016  0.7093  0.3948
   81SLPC  H16Y 7619   0.461   4.264   7.344  1.0426 -1.6611  0.2983
   81SLPC  C317 7620   0.540   4.351   7.532  0.0722  0.0143  0.4312
   81SLPC  H17X 7621   0.558   4.452   7.490  2.3447 -0.2570  0.6501
   81SLPC  H17Y 7622   0.636   4.297   7.529 -0.8899 -1.8071  0.7381
   81SLPC  C318 7623   0.517   4.360   7.684  0.0766  0.0736  0.1010
   81SLPC  H18X 7624   0.602   4.422   7.722  3.1081 -1.5595 -3.3346
   81SLPC  H18Y 7625   0.521   4.260   7.732 -0.3869 -0.8141 -1.6070
   81SLPC  H18Z 7626   0.417   4.405   7.700  0.5693  0.6322  1.8166
   82SLPC     N 7627   2.208   5.686   4.714  0.0613  1.1149  0.1910
   82SLPC   C13 7628   2.331   5.619   4.648 -0.6730  0.3000 -0.6943
   82SLPC  H13A 7629   2.415   5.686   4.637  0.0468 -0.5332 -0.4052
   82SLPC  H13B 7630   2.363   5.542   4.716  0.7238  2.8568  1.7744
   82SLPC  H13C 7631   2.307   5.581   4.550 -2.5280  0.0104 -0.1657
   82SLPC   C14 7632   2.092   5.596   4.686  0.8071  1.0535  0.0139
   82SLPC  H14A 7633   2.076   5.579   4.581 -1.1989 -0.5492  0.5144
   82SLPC  H14B 7634   2.108   5.502   4.738 -0.6931  1.0457  0.5062
   82SLPC  H14C 7635   2.001   5.637   4.727  0.5235 -0.2176  0.7127
   82SLPC   C15 7636   2.188   5.805   4.637  0.5005 -0.0697  0.6198
   82SLPC  H15A 7637   2.108   5.868   4.674  2.2238  1.2993  2.2070
   82SLPC  H15B 7638   2.275   5.868   4.635  1.1398 -0.9432  0.2091
   82SLPC  H15C 7639   2.174   5.771   4.535  2.5273  0.0690  0.2638
   82SLPC   C12 7640   2.228   5.709   4.865 -0.3535  0.5083 -0.4554
   82SLPC  H12A 7641   2.155   5.776   4.907 -0.0171 -0.1226  1.2158
   82SLPC  H12B 7642   2.316   5.771   4.871  0.1379 -0.2717  0.7664
   82SLPC   C11 7643   2.256   5.587   4.956 -0.0570  0.7684 -0.6870
   82SLPC  H11A 7644   2.177   5.509   4.942  0.4182 -0.1358  1.3339
   82SLPC  H11B 7645   2.244   5.608   5.064 -2.4297  0.0707 -0.7370
   82SLPC     P 7646   2.518   5.599   4.966  0.5917 -0.1287 -0.0354
   82SLPC   O13 7647   2.625   5.531   4.888  0.0065 -0.0914  0.8708
   82SLPC   O14 7648   2.501   5.745   4.941  0.0871 -0.1407 -0.4787
   82SLPC   O12 7649   2.385   5.530   4.931 -0.1667 -0.0881  0.7529
   82SLPC   O11 7650   2.553   5.566   5.118 -0.0841  0.1063 -0.6287
   82SLPC    C1 7651   2.511   5.434   5.164  0.2130  0.7225  0.6767
   82SLPC    HA 7652   2.422   5.381   5.124  1.9888 -2.5788  0.7531
   82SLPC    HB 7653   2.585   5.353   5.146 -1.0401 -0.4747  0.7388
   82SLPC    C2 7654   2.465   5.440   5.318 -0.4351 -0.1742  0.0358
   82SLPC    HS 7655   2.363   5.481   5.303  0.6992  3.3511  0.9211
   82SLPC   O21 7656   2.551   5.523   5.396 -0.3605  0.0155  0.6258
   82SLPC   C21 7657   2.489   5.611   5.470  0.4803  0.1638  0.2502
   82SLPC   O22 7658   2.366   5.625   5.478  0.1615  0.2224  0.2028
   82SLPC   C22 7659   2.597   5.689   5.538  0.3436 -0.3430 -0.6924
   82SLPC   H2R 7660   2.633   5.622   5.618  0.3777 -1.2299 -1.4420
   82SLPC   H2S 7661   2.678   5.722   5.469  1.1243 -1.4153 -0.3055
   82SLPC    C3 7662   2.448   5.306   5.388 -0.6924 -0.4843 -0.0141
   82SLPC    HX 7663   2.551   5.270   5.409 -0.5217 -0.3614 -0.6282
   82SLPC    HY 7664   2.410   5.230   5.316 -1.8689 -0.6584  0.7655
   82SLPC   O31 7665   2.378   5.314   5.516 -0.5199 -0.4584  0.4259
   82SLPC   C31 7666   2.248   5.337   5.493  0.6679  0.3558  0.3427
   82SLPC   O32 7667   2.188   5.323   5.389 -0.1839  0.1918 -0.2656
   82SLPC   C32 7668   2.182   5.391   5.617 -0.6959 -0.2089  0.1400
   82SLPC   H2X 7669   2.074   5.368   5.604 -1.0199  0.7268  1.0107
   82SLPC   H2Y 7670   2.208   5.499   5.620  1.2562 -0.6289 -0.3416
   82SLPC   C23 7671   2.549   5.814   5.615 -0.1004  0.2294 -0.0035
   82SLPC   H3R 7672   2.455   5.792   5.669 -1.1935 -0.9927 -2.2663
   82SLPC   H3S 7673   2.531   5.899   5.546 -0.5413 -2.0270 -2.8165
   82SLPC   C24 7674   2.646   5.858   5.731 -0.2726 -0.0299  0.3213
   82SLPC   H4R 7675   2.732   5.906   5.679 -0.4875 -1.5264 -1.4707
   82SLPC   H4S 7676   2.703   5.777   5.782  1.7799  2.1088  1.6575
   82SLPC   C25 7677   2.587   5.965   5.824 -1.1364 -0.6082  0.2710
   82SLPC   H5R 7678   2.511   5.919   5.891 -0.4103 -0.3832  1.2669
   82SLPC   H5S 7679   2.533   6.044   5.768 -0.6700  0.6577  1.5255
   82SLPC   C26 7680   2.694   6.028   5.920 -0.8800 -0.5905  0.0714
   82SLPC   H6R 7681   2.793   6.059   5.881 -0.5744 -1.9645 -0.3175
   82SLPC   H6S 7682   2.722   5.952   5.997  1.2116 -0.6772 -0.7024
   82SLPC   C27 7683   2.619   6.147   5.991 -0.1423 -0.0689  0.4023
   82SLPC   H7R 7684   2.523   6.102   6.023 -1.0629 -1.1860 -3.4189
   82SLPC   H7S 7685   2.610   6.227   5.914  0.4618 -1.0647 -0.7434
   82SLPC   C28 7686   2.683   6.210   6.116 -0.1238 -0.4487  1.5058
   82SLPC   H8R 7687   2.788   6.239   6.092 -0.0014 -1.3272  0.9175
   82SLPC   H8S 7688   2.685   6.134   6.197 -3.8293 -1.1070  1.1330
   82SLPC   C29 7689   2.593   6.330   6.155  0.0989  0.1886  0.0899
   82SLPC   H9R 7690   2.604   6.425   6.100 -0.9433  1.8141  2.5316
   82SLPC  C210 7691   2.494   6.335   6.244 -0.1458  0.1234  0.0990
   82SLPC  H10R 7692   2.456   6.432   6.278  0.8647  0.1199  1.3256
   82SLPC  C211 7693   2.445   6.218   6.327  0.1134  0.8476 -0.0820
   82SLPC  H11R 7694   2.501   6.125   6.302 -0.6698 -0.1554  1.6609
   82SLPC  H11S 7695   2.341   6.188   6.299  1.0707  0.0653 -3.2695
   82SLPC  C212 7696   2.460   6.243   6.472  0.5027  0.4109 -0.5057
   82SLPC  H12R 7697   2.556   6.224   6.522  0.1942  1.9441  0.7690
   82SLPC  C213 7698   2.360   6.284   6.554 -0.0897  0.8838 -0.0367
   82SLPC  H13R 7699   2.388   6.294   6.659  2.3925  2.9408 -0.7848
   82SLPC  C214 7700   2.220   6.319   6.514  0.1341 -0.0875  0.0320
   82SLPC  H14R 7701   2.165   6.224   6.498  1.6165 -0.9744 -0.0047
   82SLPC  H14S 7702   2.226   6.376   6.419  0.3184 -1.3526 -0.7423
   82SLPC  C215 7703   2.141   6.394   6.623 -0.0701 -0.4387  0.3519
   82SLPC  H15R 7704   2.042   6.432   6.589  0.7829  0.0179 -1.7886
   82SLPC  H15S 7705   2.200   6.488   6.637 -0.2926 -0.4876  1.7730
   82SLPC  C216 7706   2.132   6.327   6.760  0.1279  0.2697  0.2685
   82SLPC  H16R 7707   2.232   6.312   6.805  0.7022  0.7778 -0.7949
   82SLPC  H16S 7708   2.076   6.232   6.751 -1.7390  1.4651 -1.9573
   82SLPC  C217 7709   2.060   6.417   6.865  0.8009  0.0542 -0.1432
   82SLPC  H17R 7710   1.959   6.444   6.826 -0.4995 -0.4731  2.6330
   82SLPC  H17S 7711   2.111   6.514   6.882  1.2418 -0.1925 -0.0493
   82SLPC  C218 7712   2.015   6.347   6.989 -0.2909  0.2861 -1.0264
   82SLPC  H18R 7713   1.949   6.413   7.049  0.6582 -0.5166  0.9918
   82SLPC  H18S 7714   2.106   6.317   7.046 -0.3679 -0.0588 -1.0792
   82SLPC  H18T 7715   1.963   6.255   6.955  0.5667  0.0595 -1.7894
   82SLPC   C33 7716   2.227   5.319   5.742  0.8692  0.1370 -0.6995
   82SLPC   H3X 7717   2.331   5.340   5.775 -0.0774  0.5320  2.3209
   82SLPC   H3Y 7718   2.215   5.209   5.731 -1.3743  0.5305 -3.1409
   82SLPC   C34 7719   2.141   5.356   5.870 -0.4879  0.8942 -0.2463
   82SLPC   H4X 7720   2.170   5.280   5.946 -1.0271 -0.4702 -1.3636
   82SLPC   H4Y 7721   2.034   5.342   5.841 -0.7367  2.2717 -0.0730
   82SLPC   C35 7722   2.156   5.500   5.923  0.1594  0.1527 -0.6196
   82SLPC   H5X 7723   2.096   5.519   6.015 -0.1753  0.4254 -0.8908
   82SLPC   H5Y 7724   2.119   5.564   5.840  0.6542  0.8604 -0.2983
   82SLPC   C36 7725   2.303   5.547   5.957  0.3464  0.0320  0.2091
   82SLPC   H6X 7726   2.294   5.657   5.970 -1.4739 -0.0482 -0.0028
   82SLPC   H6Y 7727   2.376   5.521   5.878  0.7204 -0.8175  0.8221
   82SLPC   C37 7728   2.358   5.493   6.089 -0.5962  0.0644 -0.1126
   82SLPC   H7X 7729   2.376   5.384   6.083  0.3317 -0.0491  2.9234
   82SLPC   H7Y 7730   2.291   5.527   6.172 -1.9731  3.0642 -2.2497
   82SLPC   C38 7731   2.505   5.538   6.114 -0.0088 -0.6139  0.2566
   82SLPC   H8X 7732   2.565   5.513   6.024 -0.5377 -0.5738 -0.1074
   82SLPC   H8Y 7733   2.535   5.472   6.198 -1.6113 -1.3018  0.3222
   82SLPC   C39 7734   2.538   5.686   6.143 -0.0351  0.1752  0.3641
   82SLPC   H9X 7735   2.459   5.731   6.207 -1.4367 -0.1067 -1.1310
   82SLPC   H9Y 7736   2.544   5.749   6.052 -0.8269  0.9154  0.8057
   82SLPC  C310 7737   2.664   5.712   6.220 -0.3795  0.4563  0.9485
   82SLPC  H10X 7738   2.729   5.788   6.173 -1.2663  1.1766  0.8533
   82SLPC  H10Y 7739   2.723   5.619   6.236 -0.6275  0.1336  0.0443
   82SLPC  C311 7740   2.629   5.766   6.355 -0.7264 -0.4355  0.6872
   82SLPC  H11X 7741   2.556   5.694   6.399 -0.8603 -0.2504  0.7656
   82SLPC  H11Y 7742   2.574   5.862   6.351 -1.2353 -0.6626  1.6510
   82SLPC  C312 7743   2.745   5.789   6.461 -0.0739  0.1394  0.2591
   82SLPC  H12X 7744   2.810   5.869   6.418  0.3575 -0.0797  0.4975
   82SLPC  H12Y 7745   2.807   5.697   6.462 -1.7909 -1.1941 -2.3750
   82SLPC  C313 7746   2.693   5.824   6.594  0.1692  0.1026 -0.4742
   82SLPC  H13X 7747   2.585   5.799   6.600 -0.3695  1.9571 -1.4366
   82SLPC  H13Y 7748   2.689   5.933   6.617 -1.1052  0.4106 -1.9870
   82SLPC  C314 7749   2.760   5.749   6.713 -0.3243 -0.1771 -0.0446
   82SLPC  H14X 7750   2.866   5.782   6.721 -0.5690  1.1565 -1.6540
   82SLPC  H14Y 7751   2.757   5.640   6.695 -0.5003 -0.0985 -0.5170
   82SLPC  C315 7752   2.707   5.790   6.846 -0.5814 -0.7411 -0.4640
   82SLPC  H15X 7753   2.597   5.779   6.860 -0.0190 -3.1706  3.4512
   82SLPC  H15Y 7754   2.737   5.896   6.862  0.2676 -1.1553  0.7858
   82SLPC  C316 7755   2.765   5.714   6.954  0.0964 -0.1937  0.3906
   82SLPC  H16X 7756   2.875   5.724   6.963  0.3773 -1.0533 -1.4984
   82SLPC  H16Y 7757   2.743   5.608   6.927 -0.2454 -0.6369  2.2679
   82SLPC  C317 7758   2.676   5.724   7.085  0.3096  0.1712 -0.6963
   82SLPC  H17X 7759   2.719   5.652   7.157 -0.9945 -0.0943 -0.1575
   82SLPC  H17Y 7760   2.572   5.686   7.075  0.8669 -1.7770  0.5083
   82SLPC  C318 7761   2.657   5.862   7.144  0.3970 -0.8893  0.9644
   82SLPC  H18X 7762   2.595   5.870   7.235  0.5582  2.3328  0.9041
   82SLPC  H18Y 7763   2.605   5.925   7.069  1.2309  0.6464  1.6176
   82SLPC  H18Z 7764   2.755   5.912   7.159  1.7065 -2.8528 -0.5160
   83SLPC     N 7765   0.173   1.706   5.098  0.5391 -0.1728  0.6669
   83SLPC   C13 7766   0.102   1.576   5.122 -0.2431  0.7503 -0.7159
   83SLPC  H13A 7767   0.173   1.496   5.134  1.8892  2.6356  0.0445
   83SLPC  H13B 7768   0.040   1.584   5.210 -0.6803  2.0668 -1.1110
   83SLPC  H13C 7769   0.036   1.560   5.038 -1.2894 -0.3541  0.2799
   83SLPC   C14 7770   0.075   1.812   5.060  1.0339 -0.6214  0.1128
   83SLPC  H14A 7771   0.124   1.904   5.031 -2.3089  1.2528 -0.0467
   83SLPC  H14B 7772   0.019   1.776   4.975  0.3493  0.7432 -0.0493
   83SLPC  H14C 7773   0.005   1.823   5.141 -0.3112 -2.5537 -0.7154
   83SLPC   C15 7774   0.271   1.687   4.980 -0.3491 -0.8422  0.1462
   83SLPC  H15A 7775   0.223   1.650   4.890  2.9844 -2.0097 -1.3006
   83SLPC  H15B 7776   0.341   1.769   4.970  2.0828 -2.6621  1.1870
   83SLPC  H15C 7777   0.332   1.602   5.007 -1.5986 -1.4480  1.2172
   83SLPC   C12 7778   0.247   1.750   5.219  0.3089  0.7811  0.3326
   83SLPC  H12A 7779   0.172   1.780   5.291  1.1890  2.6048  0.5550
   83SLPC  H12B 7780   0.285   1.847   5.191  0.4531  0.8760  0.8530
   83SLPC   C11 7781   0.349   1.649   5.282 -0.1163  0.4560 -0.3936
   83SLPC  H11A 7782   0.297   1.551   5.290  0.5413  0.2396  1.5112
   83SLPC  H11B 7783   0.361   1.683   5.387 -3.2723 -0.8123  0.4932
   83SLPC     P 7784   0.529   1.488   5.161  0.1663  0.2990  0.0391
   83SLPC   O13 7785   0.451   1.436   5.051  0.3442 -0.3144 -0.0675
   83SLPC   O14 7786   0.671   1.490   5.141  0.4097  0.6485 -0.2319
   83SLPC   O12 7787   0.477   1.630   5.206  0.1352 -0.2369 -0.1333
   83SLPC   O11 7788   0.497   1.403   5.288 -0.0685  0.3444  0.1893
   83SLPC    C1 7789   0.586   1.407   5.400  1.0866 -0.4235  0.0675
   83SLPC    HA 7790   0.681   1.357   5.373 -0.4156 -2.0338 -2.6841
   83SLPC    HB 7791   0.599   1.513   5.432 -1.1186 -0.8573  2.8578
   83SLPC    C2 7792   0.522   1.355   5.532 -0.5702 -0.3932 -0.2469
   83SLPC    HS 7793   0.564   1.411   5.618 -1.1887  1.0037 -0.8239
   83SLPC   O21 7794   0.528   1.215   5.546  0.2662 -0.1260  0.3769
   83SLPC   C21 7795   0.634   1.177   5.628  0.4990  0.7629  0.5598
   83SLPC   O22 7796   0.717   1.250   5.671  0.4920 -0.2947  0.3499
   83SLPC   C22 7797   0.636   1.028   5.644  0.0275  0.0632 -0.7645
   83SLPC   H2R 7798   0.531   0.991   5.647  0.0531  0.0099 -0.5185
   83SLPC   H2S 7799   0.682   0.976   5.557  2.0813  0.6896 -0.1088
   83SLPC    C3 7800   0.370   1.392   5.533 -0.7573 -0.1000 -0.4205
   83SLPC    HX 7801   0.318   1.344   5.447  0.8973 -0.3132 -1.3431
   83SLPC    HY 7802   0.361   1.501   5.512 -1.7709 -0.9460 -6.0173
   83SLPC   O31 7803   0.301   1.353   5.660 -0.5800  0.3254  0.2602
   83SLPC   C31 7804   0.187   1.424   5.698  0.4786 -0.0565  0.2348
   83SLPC   O32 7805   0.131   1.511   5.635 -0.4161 -0.1784  0.8219
   83SLPC   C32 7806   0.132   1.353   5.817  0.2944 -0.9313  0.1269
   83SLPC   H2X 7807   0.221   1.308   5.865  1.3057 -0.5066 -1.3047
   83SLPC   H2Y 7808   0.057   1.280   5.778 -1.7459  1.8635 -1.5257
   83SLPC   C23 7809   0.724   0.983   5.772  0.4175  0.2044  0.1971
   83SLPC   H3R 7810   0.805   1.057   5.791 -1.3895  2.0965  0.9394
   83SLPC   H3S 7811   0.783   0.891   5.752  2.0085  0.5811  2.6056
   83SLPC   C24 7812   0.642   0.964   5.898  0.6816  0.7999  0.0378
   83SLPC   H4R 7813   0.595   0.864   5.883  0.3154  1.1703 -1.4222
   83SLPC   H4S 7814   0.565   1.043   5.900  0.8372  0.9460  0.3427
   83SLPC   C25 7815   0.716   0.974   6.036  0.0762 -0.6727 -0.4121
   83SLPC   H5R 7816   0.751   1.078   6.052  0.5959 -0.9563  0.3739
   83SLPC   H5S 7817   0.805   0.909   6.035  1.3759  1.0477 -0.8455
   83SLPC   C26 7818   0.620   0.917   6.160 -0.3960  0.6083  0.3087
   83SLPC   H6R 7819   0.585   0.818   6.122 -0.6610 -0.3110  2.7581
   83SLPC   H6S 7820   0.531   0.983   6.158 -1.0933 -0.3231  0.2164
   83SLPC   C27 7821   0.699   0.930   6.291  0.5637 -0.1463  0.2445
   83SLPC   H7R 7822   0.624   0.918   6.372  1.6298  0.6195  1.3751
   83SLPC   H7S 7823   0.720   1.038   6.303 -1.1946  0.1646  0.8131
   83SLPC   C28 7824   0.823   0.849   6.292  0.5368 -0.0955 -0.9460
   83SLPC   H8R 7825   0.870   0.870   6.391  1.5715 -0.3339 -1.3761
   83SLPC   H8S 7826   0.901   0.879   6.219  0.8609 -1.4273 -1.1722
   83SLPC   C29 7827   0.803   0.703   6.271 -0.4165  0.3594 -0.7075
   83SLPC   H9R 7828   0.793   0.680   6.163 -1.5597  0.7426 -0.6927
   83SLPC  C210 7829   0.803   0.607   6.367 -0.9224 -0.0203 -0.3745
   83SLPC  H10R 7830   0.797   0.502   6.334 -1.5925 -0.0694 -0.1348
   83SLPC  C211 7831   0.816   0.620   6.522  0.0657 -0.3242 -0.0650
   83SLPC  H11R 7832   0.885   0.702   6.550  1.3324 -1.8958  1.6291
   83SLPC  H11S 7833   0.859   0.528   6.565 -0.9792 -0.2427  1.2174
   83SLPC  C212 7834   0.682   0.657   6.579  0.0628 -0.7564 -0.5197
   83SLPC  H12R 7835   0.611   0.715   6.518 -1.1960 -0.1038  1.5073
   83SLPC  C213 7836   0.631   0.633   6.699 -0.2139  0.4164 -0.3441
   83SLPC  H13R 7837   0.528   0.668   6.718 -0.0618  0.5970  0.1778
   83SLPC  C214 7838   0.711   0.568   6.808 -0.0687 -0.1613  0.6037
   83SLPC  H14R 7839   0.770   0.642   6.866 -0.6952  1.3938 -0.6380
   83SLPC  H14S 7840   0.782   0.496   6.763 -1.4504 -0.4406 -1.2705
   83SLPC  C215 7841   0.626   0.495   6.910 -0.1769 -0.2422 -0.1582
   83SLPC  H15R 7842   0.710   0.447   6.965  0.7070 -0.4086 -1.6033
   83SLPC  H15S 7843   0.573   0.411   6.861 -0.3694  1.0887 -2.3816
   83SLPC  C216 7844   0.542   0.577   7.007  0.2901 -0.2706 -0.7025
   83SLPC  H16R 7845   0.479   0.639   6.940  1.4122  0.1132 -1.4223
   83SLPC  H16S 7846   0.603   0.652   7.061 -1.2826 -0.5432  1.6046
   83SLPC  C217 7847   0.472   0.487   7.113  0.3233 -0.2570 -0.1958
   83SLPC  H17R 7848   0.422   0.546   7.192 -1.5890 -2.7248  0.5286
   83SLPC  H17S 7849   0.560   0.430   7.150  2.1913  2.0375 -0.7926
   83SLPC  C218 7850   0.362   0.391   7.077  0.5195 -0.0216 -0.1070
   83SLPC  H18R 7851   0.316   0.349   7.169  0.4039  1.2838  0.4531
   83SLPC  H18S 7852   0.402   0.300   7.027 -0.2144  1.2392 -3.2324
   83SLPC  H18T 7853   0.291   0.432   7.002  1.8008 -0.0646 -1.3817
   83SLPC   C33 7854   0.047   1.435   5.910 -0.1841  0.3057  0.0815
   83SLPC   H3X 7855  -0.020   1.501   5.849  2.2357  0.2709 -2.9003
   83SLPC   H3Y 7856   0.110   1.507   5.966  1.8674 -0.4525 -1.1335
   83SLPC   C34 7857  -0.034   1.355   6.014  0.3011 -0.7450  0.4468
   83SLPC   H4X 7858   0.026   1.269   6.052 -1.7686 -0.6418  4.4213
   83SLPC   H4Y 7859  -0.133   1.322   5.976 -0.0899  0.1542  0.6669
   83SLPC   C35 7860  -0.061   1.451   6.137 -0.4492  0.1451 -0.4449
   83SLPC   H5X 7861  -0.139   1.526   6.111  0.0974  1.5997  1.8505
   83SLPC   H5Y 7862   0.027   1.510   6.169  0.2096 -1.4758  0.8469
   83SLPC   C36 7863  -0.091   1.383   6.273  0.1081  0.4752  0.3620
   83SLPC   H6X 7864  -0.012   1.310   6.299 -1.9555 -0.8378  3.4323
   83SLPC   H6Y 7865  -0.185   1.325   6.263  0.0477  0.5049  0.7658
   83SLPC   C37 7866  -0.102   1.487   6.387  0.1737 -0.4782 -0.3032
   83SLPC   H7X 7867  -0.183   1.561   6.371  2.1275  1.9050  0.1846
   83SLPC   H7Y 7868  -0.007   1.544   6.392  1.2698 -2.2471  0.0521
   83SLPC   C38 7869  -0.144   1.413   6.518 -0.4194 -0.6116  0.1190
   83SLPC   H8X 7870  -0.061   1.345   6.548  1.0783  0.9988 -0.1934
   83SLPC   H8Y 7871  -0.234   1.351   6.499  0.2869 -1.4302 -0.6187
   83SLPC   C39 7872  -0.157   1.496   6.644  0.3301  0.1248  0.2649
   83SLPC   H9X 7873  -0.256   1.545   6.643 -0.1418 -0.8123 -0.5758
   83SLPC   H9Y 7874  -0.085   1.581   6.641 -0.9058  1.1651 -0.7912
   83SLPC  C310 7875  -0.160   1.415   6.780 -0.8360  0.4562 -0.7059
   83SLPC  H10X 7876  -0.058   1.392   6.819 -2.7092 -2.5836  3.1051
   83SLPC  H10Y 7877  -0.213   1.319   6.771 -0.2119 -0.2275  1.9960
   83SLPC  C311 7878  -0.232   1.505   6.889 -0.1246  0.4134  0.2671
   83SLPC  H11X 7879  -0.338   1.518   6.859 -0.0984  1.1216  0.4589
   83SLPC  H11Y 7880  -0.191   1.608   6.879 -2.0975  1.0909 -1.8399
   83SLPC  C312 7881  -0.217   1.454   7.035  0.4128  0.3279  0.1295
   83SLPC  H12X 7882  -0.232   1.541   7.103  0.5158  1.3908 -1.1658
   83SLPC  H12Y 7883  -0.113   1.416   7.043  0.7593  0.4434 -2.8414
   83SLPC  C313 7884  -0.327   1.347   7.053 -0.3565  0.2941  0.4771
   83SLPC  H13X 7885  -0.312   1.252   6.997 -2.1437  0.0525  0.3437
   83SLPC  H13Y 7886  -0.430   1.384   7.035 -0.3123  0.7505  1.1389
   83SLPC  C314 7887  -0.323   1.318   7.204 -0.3548  0.1346 -0.1093
   83SLPC  H14X 7888  -0.325   1.407   7.270  0.0765  0.4611 -0.5225
   83SLPC  H14Y 7889  -0.228   1.267   7.232 -0.8664 -0.2330  1.0006
   83SLPC  C315 7890  -0.428   1.220   7.248  0.2275 -0.1198 -0.4330
   83SLPC  H15X 7891  -0.418   1.130   7.183 -1.4664 -1.3331  0.9006
   83SLPC  H15Y 7892  -0.529   1.262   7.227  0.1734 -0.7479 -1.5152
   83SLPC  C316 7893  -0.407   1.170   7.386  0.3921 -0.3890  0.6791
   83SLPC  H16X 7894  -0.301   1.142   7.402  1.1884  0.4583 -2.3819
   83SLPC  H16Y 7895  -0.457   1.071   7.383 -1.5312  0.5236 -2.5169
   83SLPC  C317 7896  -0.466   1.251   7.500  0.7678 -0.1174  1.1267
   83SLPC  H17X 7897  -0.576   1.258   7.486  0.9281 -0.6034 -0.6337
   83SLPC  H17Y 7898  -0.421   1.350   7.481 -1.9056  0.6113 -2.5232
   83SLPC  C318 7899  -0.443   1.201   7.643 -0.6123  0.3645 -0.7167
   83SLPC  H18X 7900  -0.334   1.211   7.661 -0.6755  2.8456 -1.2865
   83SLPC  H18Y 7901  -0.472   1.095   7.657 -0.8977 -0.0464 -3.7191
   83SLPC  H18Z 7902  -0.489   1.272   7.715 -0.9525 -2.5499  2.1909
   84SLPC     N 7903   0.225   0.365   4.851 -0.2960 -0.9004 -0.2604
   84SLPC   C13 7904   0.262   0.328   4.717 -0.3417  0.4071 -0.9547
   84SLPC  H13A 7905   0.248   0.413   4.653  0.1520 -0.3883 -2.1651
   84SLPC  H13B 7906   0.367   0.299   4.718 -0.3956  0.2174 -0.6010
   84SLPC  H13C 7907   0.208   0.239   4.687  0.3169 -1.0297  1.7766
   84SLPC   C14 7908   0.285   0.497   4.893  0.6390 -0.3337 -0.1500
   84SLPC  H14A 7909   0.241   0.583   4.844 -0.9458 -1.4215 -0.7249
   84SLPC  H14B 7910   0.272   0.515   4.999 -1.2053 -0.9350 -0.2291
   84SLPC  H14C 7911   0.388   0.507   4.863  0.6566  1.7026  0.4394
   84SLPC   C15 7912   0.286   0.265   4.951  0.1268 -0.0291  0.2890
   84SLPC  H15A 7913   0.234   0.171   4.944  0.2891 -0.6071  4.2659
   84SLPC  H15B 7914   0.391   0.249   4.928  0.0102 -3.1625  1.4681
   84SLPC  H15C 7915   0.261   0.290   5.053  0.1470 -1.9637  0.8038
   84SLPC   C12 7916   0.072   0.374   4.863 -0.7982  0.3711  0.1729
   84SLPC  H12A 7917   0.032   0.450   4.798 -2.0565 -0.1308  0.3187
   84SLPC  H12B 7918   0.054   0.415   4.961  2.2780  2.0048  0.1696
   84SLPC   C11 7919  -0.006   0.243   4.827  0.4598 -0.6064 -0.4899
   84SLPC  H11A 7920  -0.024   0.223   4.720 -1.4079 -1.5275 -0.0473
   84SLPC  H11B 7921  -0.109   0.269   4.859  0.4967  1.1475 -1.6510
   84SLPC     P 7922   0.064  -0.024   4.865  0.2095 -0.3016 -0.4922
   84SLPC   O13 7923  -0.061  -0.071   4.805  0.1783  0.2653 -0.1893
   84SLPC   O14 7924   0.189  -0.036   4.787  0.6880  0.1184  0.3229
   84SLPC   O12 7925   0.042   0.128   4.900  0.6824  0.4142  0.2513
   84SLPC   O11 7926   0.071  -0.087   5.011  0.0271 -0.2767 -0.3234
   84SLPC    C1 7927   0.145  -0.035   5.124  0.4200  0.0670  1.0632
   84SLPC    HA 7928   0.205  -0.115   5.173 -1.8381 -1.5573  1.3356
   84SLPC    HB 7929   0.209   0.052   5.097 -0.0445  0.8166  2.2586
   84SLPC    C2 7930   0.052   0.013   5.232  0.0462 -0.1425 -0.3113
   84SLPC    HS 7931  -0.007   0.098   5.191 -1.1614 -0.6933  0.2114
   84SLPC   O21 7932   0.125   0.045   5.350 -0.5387 -0.5864 -0.1854
   84SLPC   C21 7933   0.152   0.173   5.359 -0.3837 -0.1379  0.2900
   84SLPC   O22 7934   0.132   0.256   5.266 -0.2162  0.7260 -0.8410
   84SLPC   C22 7935   0.233   0.203   5.479 -0.4016 -0.0051 -0.3828
   84SLPC   H2R 7936   0.187   0.146   5.563 -1.5407  1.2534 -0.1141
   84SLPC   H2S 7937   0.337   0.167   5.466  0.0806  1.2204 -0.1250
   84SLPC    C3 7938  -0.051  -0.099   5.272  0.6247  0.6699  0.3717
   84SLPC    HX 7939   0.006  -0.194   5.275 -0.1976  0.1800  1.2318
   84SLPC    HY 7940  -0.128  -0.103   5.191  1.8194 -1.2148 -0.7297
   84SLPC   O31 7941  -0.110  -0.078   5.405 -0.0935 -0.0990 -0.3951
   84SLPC   C31 7942  -0.054  -0.144   5.504  0.1868 -0.6496 -0.6742
   84SLPC   O32 7943   0.032  -0.228   5.497  0.2691 -0.0324 -0.4073
   84SLPC   C32 7944  -0.108  -0.084   5.631 -1.0437 -0.7141 -0.9084
   84SLPC   H2X 7945  -0.178  -0.163   5.666 -0.1454 -0.8268  0.7290
   84SLPC   H2Y 7946  -0.145   0.021   5.628 -1.3646 -0.8235 -0.8308
   84SLPC   C23 7947   0.247   0.353   5.513 -0.0886  0.5177  0.5088
   84SLPC   H3R 7948   0.146   0.396   5.495  0.6896  1.6695 -1.4298
   84SLPC   H3S 7949   0.314   0.395   5.434 -0.2235  1.5040  0.9013
   84SLPC   C24 7950   0.307   0.384   5.650  0.3054 -0.1608  0.4327
   84SLPC   H4R 7951   0.408   0.339   5.665  0.5976  0.1857 -0.3824
   84SLPC   H4S 7952   0.234   0.344   5.723  0.0539  0.2117  0.3882
   84SLPC   C25 7953   0.326   0.533   5.679  0.1863  0.1105  0.1808
   84SLPC   H5R 7954   0.235   0.584   5.641  0.9464 -0.2540 -2.2533
   84SLPC   H5S 7955   0.400   0.574   5.608  0.1794 -1.2010 -0.6190
   84SLPC   C26 7956   0.371   0.561   5.828  0.0098  0.4885 -0.2562
   84SLPC   H6R 7957   0.411   0.665   5.830  1.0272  0.1295  2.1989
   84SLPC   H6S 7958   0.448   0.486   5.855 -1.0557 -0.8045 -0.7187
   84SLPC   C27 7959   0.267   0.541   5.934  0.0476  0.1632  0.2504
   84SLPC   H7R 7960   0.234   0.435   5.932 -0.1265  0.1825 -2.6946
   84SLPC   H7S 7961   0.178   0.603   5.912  1.3749  1.6681 -1.1340
   84SLPC   C28 7962   0.327   0.585   6.068  0.4796  0.7424 -0.5603
   84SLPC   H8R 7963   0.374   0.684   6.051 -1.0585  1.4409 -0.9141
   84SLPC   H8S 7964   0.407   0.514   6.098  0.5496  0.5947 -1.0890
   84SLPC   C29 7965   0.218   0.598   6.173 -0.0045  0.0636 -0.0521
   84SLPC   H9R 7966   0.115   0.595   6.133  0.1986  1.8529 -0.8193
   84SLPC  C210 7967   0.238   0.606   6.307  0.5487  0.0066  0.0659
   84SLPC  H10R 7968   0.143   0.623   6.360  0.3277  0.4078 -0.4572
   84SLPC  C211 7969   0.367   0.607   6.391  0.1079 -0.6040 -0.1134
   84SLPC  H11R 7970   0.358   0.711   6.430  0.0546 -0.5294 -0.3245
   84SLPC  H11S 7971   0.457   0.595   6.328  1.0540  0.2595  1.0289
   84SLPC  C212 7972   0.363   0.512   6.511  0.0187  0.1052 -0.8454
   84SLPC  H12R 7973   0.403   0.411   6.496  0.0005 -0.0216 -0.1210
   84SLPC  C213 7974   0.316   0.534   6.636  0.3060 -0.6596  0.0620
   84SLPC  H13R 7975   0.320   0.457   6.714 -0.1501 -2.5041 -1.6661
   84SLPC  C214 7976   0.255   0.665   6.679 -0.5961 -0.1273  0.2361
   84SLPC  H14R 7977   0.252   0.741   6.599  0.1460  0.9110  1.1495
   84SLPC  H14S 7978   0.326   0.698   6.759 -0.8585  0.4768  0.2208
   84SLPC  C215 7979   0.123   0.657   6.747 -0.0389 -0.2040 -0.7625
   84SLPC  H15R 7980   0.100   0.746   6.809 -1.7900 -0.6978 -0.6548
   84SLPC  H15S 7981   0.115   0.572   6.819  1.4667  1.4231  1.4593
   84SLPC  C216 7982   0.009   0.636   6.642 -1.2109 -0.7544 -0.0714
   84SLPC  H16R 7983   0.025   0.548   6.576  0.5001 -0.2379 -0.3777
   84SLPC  H16S 7984   0.021   0.724   6.575  2.7177 -1.6448 -0.8054
   84SLPC  C217 7985  -0.130   0.608   6.708 -0.2928 -0.2178 -0.3502
   84SLPC  H17R 7986  -0.200   0.592   6.623  0.3918  0.7773 -1.1354
   84SLPC  H17S 7987  -0.173   0.702   6.750  1.1039  0.6064 -0.6898
   84SLPC  C218 7988  -0.140   0.494   6.807  0.6476  0.0605  0.7660
   84SLPC  H18R 7989  -0.231   0.509   6.870  1.2485 -2.9426  2.5673
   84SLPC  H18S 7990  -0.062   0.491   6.886  0.1580  0.4761  1.2841
   84SLPC  H18T 7991  -0.144   0.400   6.747  0.4717  1.5038 -1.6109
   84SLPC   C33 7992   0.006  -0.086   5.739  0.2068 -0.2454 -0.6043
   84SLPC   H3X 7993   0.071   0.002   5.722 -0.7179  0.6311  0.3159
   84SLPC   H3Y 7994   0.067  -0.178   5.728  2.9323  1.4210 -0.1725
   84SLPC   C34 7995  -0.047  -0.101   5.889 -0.4599  0.1911 -0.1382
   84SLPC   H4X 7996  -0.107  -0.194   5.886 -0.0171 -0.0912 -0.3158
   84SLPC   H4Y 7997  -0.103  -0.011   5.924  0.2280 -0.1178  1.8354
   84SLPC   C35 7998   0.071  -0.112   5.993  0.0109 -1.0572 -0.0687
   84SLPC   H5X 7999   0.148  -0.038   5.962  0.4316 -2.3129 -2.3118
   84SLPC   H5Y 8000   0.117  -0.213   5.980 -2.1178 -1.9522 -1.2563
   84SLPC   C36 8001   0.041  -0.091   6.138  0.2058 -0.6100  0.8469
   84SLPC   H6X 8002  -0.042  -0.016   6.140  1.5056  1.0256 -1.9265
   84SLPC   H6Y 8003   0.133  -0.059   6.190  1.0768  0.4222 -1.2285
   84SLPC   C37 8004  -0.022  -0.221   6.211 -0.1302  0.0284  0.2025
   84SLPC   H7X 8005   0.060  -0.296   6.208  0.3286  0.5049  0.4733
   84SLPC   H7Y 8006  -0.119  -0.253   6.168  0.4432 -2.3685  0.5585
   84SLPC   C38 8007  -0.040  -0.194   6.365  0.1394  0.4497 -0.3189
   84SLPC   H8X 8008  -0.108  -0.107   6.356  0.7826  1.1313  1.1352
   84SLPC   H8Y 8009   0.060  -0.164   6.405 -0.4617  0.4525  1.2296
   84SLPC   C39 8010  -0.084  -0.315   6.450  0.1379  0.8029 -0.2974
   84SLPC   H9X 8011  -0.008  -0.395   6.438 -0.2605  0.5402 -1.1437
   84SLPC   H9Y 8012  -0.185  -0.350   6.419 -0.0713  1.1358  0.0077
   84SLPC  C310 8013  -0.104  -0.270   6.599  0.0037  0.9483  0.4308
   84SLPC  H10X 8014  -0.175  -0.185   6.597 -0.2220  0.7494 -1.3306
   84SLPC  H10Y 8015  -0.005  -0.225   6.626  0.3564  1.2311 -1.2505
   84SLPC  C311 8016  -0.169  -0.376   6.693  0.0492  0.4465  0.5944
   84SLPC  H11X 8017  -0.103  -0.465   6.682 -0.3669  0.0395  1.3561
   84SLPC  H11Y 8018  -0.268  -0.407   6.655  1.6076 -1.0650 -2.5990
   84SLPC  C312 8019  -0.175  -0.337   6.841 -0.4797  0.5458  0.2746
   84SLPC  H12X 8020  -0.247  -0.253   6.855 -1.1263 -0.0688  0.7140
   84SLPC  H12Y 8021  -0.079  -0.307   6.888  0.4056 -2.3351  0.4718
   84SLPC  C313 8022  -0.213  -0.459   6.929  0.8601  0.6439 -0.2268
   84SLPC  H13X 8023  -0.152  -0.543   6.892  1.1517  1.1051 -0.8137
   84SLPC  H13Y 8024  -0.323  -0.477   6.931  1.4593 -3.9644  0.8972
   84SLPC  C314 8025  -0.169  -0.438   7.076 -0.0066 -0.4909  0.7669
   84SLPC  H14X 8026  -0.244  -0.372   7.124 -1.2985 -2.0723  1.0491
   84SLPC  H14Y 8027  -0.072  -0.385   7.083 -1.0302  1.3540  1.5744
   84SLPC  C315 8028  -0.162  -0.573   7.153 -0.7032 -0.1289  0.1560
   84SLPC  H15X 8029  -0.096  -0.643   7.097 -2.2290 -1.1191 -0.5022
   84SLPC  H15Y 8030  -0.263  -0.615   7.134 -1.2065  0.8111  0.6901
   84SLPC  C316 8031  -0.109  -0.559   7.297  0.1231  0.0349  0.0129
   84SLPC  H16X 8032  -0.097  -0.663   7.333 -0.6949  0.3693  1.3004
   84SLPC  H16Y 8033  -0.177  -0.507   7.367 -1.5592 -1.7780 -0.1943
   84SLPC  C317 8034   0.028  -0.494   7.305 -0.4424 -0.4521 -0.7068
   84SLPC  H17X 8035   0.031  -0.384   7.294  0.0537  0.3245  4.5830
   84SLPC  H17Y 8036   0.088  -0.537   7.223  0.8619  2.0846 -1.1555
   84SLPC  C318 8037   0.081  -0.525   7.445  0.6199  0.6033 -0.7215
   84SLPC  H18X 8038   0.020  -0.476   7.524  1.1121  0.8061 -0.4620
   84SLPC  H18Y 8039   0.186  -0.489   7.443  0.5918  0.8081  0.5730
   84SLPC  H18Z 8040   0.088  -0.633   7.469  0.2430  0.7197 -0.0382
   85SLPC     N 8041   5.206   1.082   5.168 -0.5599 -0.5470  0.5086
   85SLPC   C13 8042   5.331   1.004   5.198 -0.0767  0.2864  0.4531
   85SLPC  H13A 8043   5.354   0.925   5.129 -1.0707  0.2480  0.1560
   85SLPC  H13B 8044   5.415   1.072   5.207  0.3150 -0.1194 -0.0452
   85SLPC  H13C 8045   5.325   0.945   5.288  3.7409 -2.3062 -0.7344
   85SLPC   C14 8046   5.093   0.994   5.118  0.4383 -0.6582  0.4988
   85SLPC  H14A 8047   5.004   1.050   5.096  0.8627 -0.8317 -2.0898
   85SLPC  H14B 8048   5.121   0.946   5.025 -0.6298  0.3052 -0.3540
   85SLPC  H14C 8049   5.077   0.918   5.192  2.6382 -2.1068 -0.4122
   85SLPC   C15 8050   5.228   1.185   5.062  0.1589 -0.2358 -0.0261
   85SLPC  H15A 8051   5.263   1.132   4.974 -0.5672 -2.1218  0.7579
   85SLPC  H15B 8052   5.137   1.239   5.043 -0.7540 -2.0046 -0.9531
   85SLPC  H15C 8053   5.302   1.259   5.088  0.7860 -1.1153  0.7532
   85SLPC   C12 8054   5.164   1.160   5.292 -0.6070 -0.0682  0.0462
   85SLPC  H12A 8055   5.068   1.206   5.274  0.5477  2.2672 -0.5711
   85SLPC  H12B 8056   5.234   1.241   5.308 -0.9455  0.6573 -1.8828
   85SLPC   C11 8057   5.143   1.078   5.423 -0.2722  0.2431 -0.3315
   85SLPC  H11A 8058   5.071   0.996   5.402 -1.3179  0.5411  1.8521
   85SLPC  H11B 8059   5.103   1.156   5.491  1.8908  0.8580  0.3324
   85SLPC     P 8060   5.356   1.128   5.555  0.4134  0.1786 -0.2577
   85SLPC   O13 8061   5.494   1.087   5.517 -0.2764  0.1550 -0.0455
   85SLPC   O14 8062   5.319   1.271   5.531  0.2298  0.3845 -0.2670
   85SLPC   O12 8063   5.260   1.032   5.493 -0.3500  0.0368  0.5074
   85SLPC   O11 8064   5.333   1.101   5.707  0.4749 -0.1389 -0.0423
   85SLPC    C1 8065   5.209   1.082   5.768 -0.8216  0.6913  0.3545
   85SLPC    HA 8066   5.129   1.137   5.715 -0.1442  1.5898  0.2506
   85SLPC    HB 8067   5.182   0.976   5.746  0.6185  0.5284 -0.7744
   85SLPC    C2 8068   5.202   1.111   5.923  0.6827  0.1017  0.0424
   85SLPC    HS 8069   5.106   1.067   5.956  0.3330 -0.7959 -1.9925
   85SLPC   O21 8070   5.205   1.245   5.958  0.6357  0.0533  0.5882
   85SLPC   C21 8071   5.097   1.312   5.939 -0.5869 -0.3359  0.1981
   85SLPC   O22 8072   4.991   1.275   5.898  0.3811  0.2202  0.4734
   85SLPC   C22 8073   5.112   1.449   5.997 -0.4613 -0.1516 -0.2572
   85SLPC   H2R 8074   5.178   1.515   5.937  1.2965  0.8333  2.5501
   85SLPC   H2S 8075   5.011   1.495   6.010 -0.5657 -0.8219  1.5903
   85SLPC    C3 8076   5.307   1.030   6.009 -0.1611  0.1871  0.0374
   85SLPC    HX 8077   5.405   1.066   5.970 -1.2513  2.5848 -0.6329
   85SLPC    HY 8078   5.308   0.923   5.982  3.1539 -0.1241  0.8714
   85SLPC   O31 8079   5.293   1.052   6.152  0.2124 -0.6016 -0.1929
   85SLPC   C31 8080   5.233   0.959   6.214  0.3629  0.2906 -0.3081
   85SLPC   O32 8081   5.181   0.857   6.166  0.2094 -0.3531 -0.2713
   85SLPC   C32 8082   5.247   0.994   6.361  0.6664 -0.0135 -0.8521
   85SLPC   H2X 8083   5.215   1.100   6.371 -1.1650 -0.6326  0.4052
   85SLPC   H2Y 8084   5.353   0.988   6.393  0.1478 -0.5894  0.8754
   85SLPC   C23 8085   5.171   1.438   6.142 -0.8695  0.1316 -0.7054
   85SLPC   H3R 8086   5.201   1.538   6.181  0.7577 -0.5650 -0.0820
   85SLPC   H3S 8087   5.258   1.369   6.137 -0.8843  0.2154 -2.6266
   85SLPC   C24 8088   5.070   1.373   6.242 -0.2916  0.9740  0.2899
   85SLPC   H4R 8089   5.064   1.268   6.207 -2.0444 -0.0059  3.1446
   85SLPC   H4S 8090   4.967   1.416   6.243 -1.3903 -1.3779  2.6113
   85SLPC   C25 8091   5.112   1.383   6.390 -0.2731 -0.0028  0.4470
   85SLPC   H5R 8092   5.215   1.342   6.397  0.1379  0.2940 -2.5465
   85SLPC   H5S 8093   5.122   1.486   6.429 -1.3904 -0.0114  0.7776
   85SLPC   C26 8094   5.016   1.311   6.478  0.2945 -0.1459  0.3917
   85SLPC   H6R 8095   5.011   1.203   6.454  3.1694 -0.0776 -0.8668
   85SLPC   H6S 8096   4.916   1.356   6.460 -0.0717 -1.8507 -2.3199
   85SLPC   C27 8097   5.045   1.330   6.627 -0.2017 -0.2603  0.6947
   85SLPC   H7R 8098   5.097   1.428   6.634 -0.8547  0.3131 -1.6301
   85SLPC   H7S 8099   5.121   1.255   6.660  0.6118  0.3061  0.1658
   85SLPC   C28 8100   4.927   1.320   6.723  0.0240  0.6229 -1.0589
   85SLPC   H8R 8101   4.959   1.339   6.828 -0.9916  0.1327 -0.6418
   85SLPC   H8S 8102   4.881   1.219   6.718 -0.1836  0.7196 -1.1565
   85SLPC   C29 8103   4.814   1.418   6.691  0.0143  0.4160 -0.7744
   85SLPC   H9R 8104   4.764   1.398   6.595  0.8017 -1.1337 -0.9027
   85SLPC  C210 8105   4.789   1.533   6.762 -0.3321  0.1340 -0.0779
   85SLPC  H10R 8106   4.698   1.589   6.735 -0.6309 -1.0311 -1.6125
   85SLPC  C211 8107   4.855   1.580   6.891  0.1455  0.6778 -0.1008
   85SLPC  H11R 8108   4.871   1.492   6.957  1.8296  2.1544  1.5573
   85SLPC  H11S 8109   4.775   1.634   6.945 -1.2393  0.5865 -1.9676
   85SLPC  C212 8110   4.978   1.664   6.889 -0.2715  0.0788  0.0463
   85SLPC  H12R 8111   4.996   1.731   6.804  0.8589  1.2389  1.1609
   85SLPC  C213 8112   5.053   1.698   6.992 -0.3151  0.5825  0.0915
   85SLPC  H13R 8113   5.144   1.758   6.977 -0.0204  0.7085  2.0634
   85SLPC  C214 8114   5.039   1.629   7.126 -0.4429  0.0130  0.4320
   85SLPC  H14R 8115   5.095   1.533   7.128 -0.9448 -0.3665 -1.5663
   85SLPC  H14S 8116   4.938   1.595   7.158 -0.4412  0.0702  0.4958
   85SLPC  C215 8117   5.076   1.726   7.244 -0.3220  0.2839  0.4627
   85SLPC  H15R 8118   5.027   1.824   7.226 -0.9233  0.1704  1.3953
   85SLPC  H15S 8119   5.186   1.742   7.240  0.1779 -2.8053 -0.8686
   85SLPC  C216 8120   5.033   1.663   7.370 -0.8000 -0.2232  0.0791
   85SLPC  H16R 8121   5.049   1.553   7.361 -0.9900 -0.0750 -3.6307
   85SLPC  H16S 8122   4.924   1.679   7.378 -0.7269 -0.1071  0.9546
   85SLPC  C217 8123   5.094   1.724   7.502 -0.0472  0.2053 -0.5337
   85SLPC  H17R 8124   5.184   1.670   7.537  1.4347  1.7032 -1.8138
   85SLPC  H17S 8125   5.019   1.711   7.583  0.7570  0.1099  0.1968
   85SLPC  C218 8126   5.140   1.869   7.497 -0.6518  0.4868  0.0112
   85SLPC  H18R 8127   5.224   1.891   7.428  0.0411  3.1148  1.5470
   85SLPC  H18S 8128   5.189   1.884   7.595 -0.2858 -0.0057 -0.0944
   85SLPC  H18T 8129   5.052   1.932   7.471  0.3976  0.1670 -5.5414
   85SLPC   C33 8130   5.163   0.903   6.447  0.0668 -0.8005  0.3044
   85SLPC   H3X 8131   5.191   0.796   6.435 -0.1258 -0.6908 -1.5203
   85SLPC   H3Y 8132   5.055   0.923   6.426  0.2384 -0.1643  0.0043
   85SLPC   C34 8133   5.179   0.939   6.594  0.3370  0.4325 -0.2560
   85SLPC   H4X 8134   5.161   1.044   6.624 -0.2255  0.3229 -0.2092
   85SLPC   H4Y 8135   5.288   0.928   6.613  0.4806  0.2127 -1.1630
   85SLPC   C35 8136   5.115   0.834   6.684  0.1223  0.5126  0.2800
   85SLPC   H5X 8137   5.168   0.737   6.675 -0.0769  0.3774  0.5355
   85SLPC   H5Y 8138   5.009   0.811   6.664  0.3897  0.6244 -1.3962
   85SLPC   C36 8139   5.117   0.862   6.833  0.1365 -0.0590 -0.2717
   85SLPC   H6X 8140   5.221   0.885   6.862  0.6735 -0.8083 -1.5123
   85SLPC   H6Y 8141   5.091   0.767   6.883  0.4676  1.2130  2.4707
   85SLPC   C37 8142   5.023   0.971   6.866 -0.1596 -0.7849 -0.0794
   85SLPC   H7X 8143   4.921   0.961   6.824  0.0745 -1.8467 -0.4308
   85SLPC   H7Y 8144   5.064   1.060   6.814 -0.4347 -0.7421 -0.2231
   85SLPC   C38 8145   5.015   0.997   7.018  0.4499 -0.0874  0.3575
   85SLPC   H8X 8146   5.119   0.999   7.057  0.5382 -2.5550  0.4179
   85SLPC   H8Y 8147   4.964   0.915   7.072 -2.4255  1.2345 -0.1396
   85SLPC   C39 8148   4.951   1.140   7.035 -0.0859 -0.1892 -0.0904
   85SLPC   H9X 8149   4.853   1.139   6.983 -0.4784  1.7043  0.5368
   85SLPC   H9Y 8150   5.023   1.215   6.996 -1.2726  0.8607 -0.3419
   85SLPC  C310 8151   4.932   1.177   7.183 -0.3650 -0.3563 -0.3505
   85SLPC  H10X 8152   4.844   1.121   7.221 -0.7370 -0.5709 -1.4859
   85SLPC  H10Y 8153   4.906   1.283   7.205 -1.6104 -0.8634  0.7587
   85SLPC  C311 8154   5.059   1.163   7.266 -0.4025  0.1921  0.0875
   85SLPC  H11X 8155   5.132   1.222   7.207  1.5986 -2.5707 -0.3956
   85SLPC  H11Y 8156   5.090   1.057   7.278  1.6282  0.9728  2.5112
   85SLPC  C312 8157   5.043   1.227   7.411 -1.1557 -0.1649  0.0087
   85SLPC  H12X 8158   4.954   1.178   7.457  0.1254 -2.9086 -0.2216
   85SLPC  H12Y 8159   5.034   1.338   7.408  0.1572 -0.0620 -1.4918
   85SLPC  C313 8160   5.158   1.177   7.506 -0.1396 -0.7260  0.0241
   85SLPC  H13X 8161   5.254   1.222   7.473 -0.6162  1.2586  1.1877
   85SLPC  H13Y 8162   5.171   1.066   7.507 -1.8836 -0.9668 -0.9398
   85SLPC  C314 8163   5.129   1.222   7.653 -0.5203 -0.0715 -0.5317
   85SLPC  H14X 8164   5.203   1.172   7.718 -0.1456  2.1244  0.8326
   85SLPC  H14Y 8165   5.032   1.172   7.672  0.4357 -1.0041  2.3926
   85SLPC  C315 8166   5.131   1.373   7.687 -0.3009 -0.1955 -0.1123
   85SLPC  H15X 8167   5.083   1.382   7.787  1.1724  0.3528  0.5658
   85SLPC  H15Y 8168   5.066   1.437   7.623 -2.1072 -0.7070  1.1195
   85SLPC  C316 8169   5.274   1.431   7.679  0.3067  0.4362  0.5308
   85SLPC  H16X 8170   5.267   1.541   7.696 -0.3523  1.0704 -2.9938
   85SLPC  H16Y 8171   5.307   1.414   7.574  0.9920 -0.2805  0.8493
   85SLPC  C317 8172   5.396   1.370   7.755 -0.0150  0.5045  0.1196
   85SLPC  H17X 8173   5.486   1.421   7.714 -0.2304  0.6496 -0.1737
   85SLPC  H17Y 8174   5.403   1.263   7.727 -0.0094  0.5238  0.0478
   85SLPC  C318 8175   5.386   1.389   7.905 -0.7493  0.3062 -0.7114
   85SLPC  H18X 8176   5.379   1.496   7.936  3.4016  0.3045  0.8814
   85SLPC  H18Y 8177   5.479   1.355   7.955  0.4664  3.3140 -0.7004
   85SLPC  H18Z 8178   5.296   1.338   7.945 -0.2660 -1.7661 -2.1004
   86SLPC     N 8179   1.517   3.933   4.363  0.3318  0.3817  0.5822
   86SLPC   C13 8180   1.638   3.894   4.285 -0.0445  0.6742 -0.2128
   86SLPC  H13A 8181   1.611   3.873   4.182  1.3027 -0.8338 -0.2976
   86SLPC  H13B 8182   1.724   3.959   4.285  0.7076 -0.2892  0.7118
   86SLPC  H13C 8183   1.671   3.796   4.316 -1.7094  0.0615 -0.2596
   86SLPC   C14 8184   1.423   3.815   4.349 -0.7609  0.2540  0.5224
   86SLPC  H14A 8185   1.472   3.719   4.354 -1.4853 -0.4140 -2.8867
   86SLPC  H14B 8186   1.341   3.820   4.420 -1.0758 -0.3908  0.2206
   86SLPC  H14C 8187   1.381   3.809   4.250  0.0204 -0.6516  0.2313
   86SLPC   C15 8188   1.458   4.050   4.299  0.1500  0.4622 -0.2133
   86SLPC  H15A 8189   1.447   4.031   4.194  0.0477 -0.1392 -0.0988
   86SLPC  H15B 8190   1.364   4.081   4.344  1.3471  0.4630  2.4430
   86SLPC  H15C 8191   1.517   4.141   4.298 -1.4276  1.5447 -1.9500
   86SLPC   C12 8192   1.542   3.968   4.503 -0.0894 -0.5602 -0.5403
   86SLPC  H12A 8193   1.455   4.002   4.558  0.1867  0.2414 -0.5930
   86SLPC  H12B 8194   1.605   4.055   4.498 -1.5851  0.5480 -0.6366
   86SLPC   C11 8195   1.614   3.865   4.595 -0.5072  0.5058 -0.2999
   86SLPC  H11A 8196   1.572   3.762   4.603  1.5989 -0.3060  1.4407
   86SLPC  H11B 8197   1.613   3.902   4.699  0.5799 -3.0350  1.1160
   86SLPC     P 8198   1.866   3.935   4.588 -0.0446  0.9101  0.3389
   86SLPC   O13 8199   1.988   3.895   4.521  0.2223  0.3319 -0.3215
   86SLPC   O14 8200   1.825   4.077   4.576 -0.1300  0.5107  0.0637
   86SLPC   O12 8201   1.745   3.844   4.541 -0.3267 -0.3368  0.8810
   86SLPC   O11 8202   1.879   3.894   4.739  0.2894  0.2620  0.1358
   86SLPC    C1 8203   1.841   3.767   4.798  0.4619 -0.3563 -0.5140
   86SLPC    HA 8204   1.762   3.712   4.743 -1.6116  2.2234 -0.3178
   86SLPC    HB 8205   1.936   3.710   4.808  1.1600  0.7238 -0.8175
   86SLPC    C2 8206   1.805   3.789   4.953 -0.5679 -0.3879  0.8045
   86SLPC    HS 8207   1.709   3.845   4.955 -1.3343 -1.4662 -1.7652
   86SLPC   O21 8208   1.916   3.855   5.009 -0.4177  0.8372 -0.3251
   86SLPC   C21 8209   1.880   3.953   5.097 -0.6839  0.4360 -0.3272
   86SLPC   O22 8210   1.774   4.001   5.116 -0.0784  0.3496 -0.2880
   86SLPC   C22 8211   2.007   3.992   5.173 -0.1958  0.0211  0.3454
   86SLPC   H2R 8212   2.090   4.017   5.103  0.8904 -1.2806  1.1354
   86SLPC   H2S 8213   1.984   4.084   5.231 -0.6292  0.8193 -1.0286
   86SLPC    C3 8214   1.783   3.663   5.037  0.3398  0.5002 -0.0855
   86SLPC    HX 8215   1.876   3.603   5.036 -1.2281 -2.0525 -0.9266
   86SLPC    HY 8216   1.712   3.591   4.992  1.3361 -0.2937 -0.4363
   86SLPC   O31 8217   1.749   3.682   5.179 -0.4785 -0.4967 -0.6759
   86SLPC   C31 8218   1.625   3.715   5.204  0.1412  0.1037  0.0936
   86SLPC   O32 8219   1.540   3.727   5.118 -0.1134  0.0302  0.2809
   86SLPC   C32 8220   1.610   3.735   5.356  0.5031 -0.7342  0.1497
   86SLPC   H2X 8221   1.662   3.828   5.387  1.6189 -0.8668 -1.2266
   86SLPC   H2Y 8222   1.665   3.651   5.404  1.4201  0.3586  1.0643
   86SLPC   C23 8223   2.063   3.889   5.275  0.4819  0.5982 -0.0968
   86SLPC   H3R 8224   2.072   3.795   5.218  3.7936 -0.8226  2.4711
   86SLPC   H3S 8225   1.982   3.879   5.351  0.7509  0.8934  0.2356
   86SLPC   C24 8226   2.200   3.909   5.336 -0.3770 -0.1973  0.2346
   86SLPC   H4R 8227   2.285   3.910   5.265 -2.8343  4.3566 -3.2243
   86SLPC   H4S 8228   2.219   3.815   5.393  0.4031 -0.3379 -0.2487
   86SLPC   C25 8229   2.200   4.030   5.428 -0.6022  1.0960  0.2035
   86SLPC   H5R 8230   2.112   4.018   5.495 -1.2386 -3.3614 -1.1125
   86SLPC   H5S 8231   2.184   4.120   5.365  0.5121  0.4345 -1.0567
   86SLPC   C26 8232   2.340   4.033   5.504  0.0593 -0.3999  0.6553
   86SLPC   H6R 8233   2.361   4.142   5.511 -1.4214  0.0378 -1.0191
   86SLPC   H6S 8234   2.411   3.986   5.433 -2.6716 -2.3498 -0.9511
   86SLPC   C27 8235   2.342   3.953   5.636  0.2673 -0.1023  0.1649
   86SLPC   H7R 8236   2.320   3.849   5.602 -0.1199  0.5543 -1.7147
   86SLPC   H7S 8237   2.256   3.980   5.701  0.6197 -4.0732  2.6055
   86SLPC   C28 8238   2.471   3.961   5.714 -0.2215  0.0320  0.2963
   86SLPC   H8R 8239   2.558   3.914   5.664 -1.1159 -1.9630  0.5448
   86SLPC   H8S 8240   2.468   3.901   5.807  1.2987 -1.1637 -0.3830
   86SLPC   C29 8241   2.509   4.102   5.745 -0.7377  0.5184  0.4138
   86SLPC   H9R 8242   2.529   4.164   5.657 -4.3091 -0.3323 -1.1620
   86SLPC  C210 8243   2.518   4.161   5.864  0.3196  0.0569  0.0185
   86SLPC  H10R 8244   2.534   4.270   5.859  2.2745 -0.0830 -6.6400
   86SLPC  C211 8245   2.493   4.102   5.998  0.2494  0.1564 -0.9623
   86SLPC  H11R 8246   2.400   4.041   5.986  0.5451 -0.0204 -2.5833
   86SLPC  H11S 8247   2.450   4.181   6.063 -1.8307 -1.2398 -0.5274
   86SLPC  C212 8248   2.590   4.000   6.065  0.2476 -0.1371 -0.3002
   86SLPC  H12R 8249   2.687   4.000   6.013  0.1551  1.5355 -0.5489
   86SLPC  C213 8250   2.571   3.924   6.179  0.6537 -0.4542 -0.1702
   86SLPC  H13R 8251   2.659   3.862   6.204  1.7116 -0.3198 -3.1492
   86SLPC  C214 8252   2.445   3.932   6.257  0.4983 -0.0559 -0.4025
   86SLPC  H14R 8253   2.404   3.831   6.280 -1.5355  0.5060 -1.3050
   86SLPC  H14S 8254   2.363   3.996   6.217  0.0479 -0.1990  0.2644
   86SLPC  C215 8255   2.476   4.018   6.385 -0.5736  0.1173  0.5533
   86SLPC  H15R 8256   2.383   4.052   6.435  0.6422  1.8022  1.7848
   86SLPC  H15S 8257   2.532   4.111   6.360 -1.6390  0.7180  0.3510
   86SLPC  C216 8258   2.555   3.954   6.502  0.2550  0.0982  0.5745
   86SLPC  H16R 8259   2.650   3.921   6.456 -0.5167 -0.5151 -0.6260
   86SLPC  H16S 8260   2.500   3.865   6.539  0.8833 -0.7888 -0.5850
   86SLPC  C217 8261   2.596   4.055   6.609  0.1529  0.6151  0.0708
   86SLPC  H17R 8262   2.622   3.996   6.700 -0.0731  1.8240  0.9479
   86SLPC  H17S 8263   2.517   4.119   6.654 -0.1286  1.3255 -1.3994
   86SLPC  C218 8264   2.723   4.131   6.575  0.2085 -0.2738  0.1291
   86SLPC  H18R 8265   2.703   4.183   6.479 -0.3202 -1.6941 -0.5608
   86SLPC  H18S 8266   2.804   4.057   6.559 -0.7980 -1.2133 -0.7380
   86SLPC  H18T 8267   2.746   4.211   6.649  1.1049 -0.3985 -0.0041
   86SLPC   C33 8268   1.464   3.727   5.404  0.0510 -0.1509  0.0524
   86SLPC   H3X 8269   1.394   3.657   5.353 -0.3684 -0.2576  0.7621
   86SLPC   H3Y 8270   1.418   3.825   5.378 -2.8203 -1.7068 -1.2076
   86SLPC   C34 8271   1.444   3.700   5.560  0.3027 -0.0930  0.0743
   86SLPC   H4X 8272   1.334   3.692   5.566  0.2806 -0.3271 -0.5457
   86SLPC   H4Y 8273   1.491   3.791   5.605  3.4827 -1.3014 -0.5459
   86SLPC   C35 8274   1.502   3.560   5.598  0.3850 -0.4167  0.3977
   86SLPC   H5X 8275   1.611   3.553   5.575  1.1812  0.0930  3.6148
   86SLPC   H5Y 8276   1.441   3.493   5.534 -0.7305  1.1186 -0.2223
   86SLPC   C36 8277   1.490   3.525   5.739  0.0711 -0.3165 -0.3037
   86SLPC   H6X 8278   1.463   3.417   5.743 -1.3242  0.0119  0.0541
   86SLPC   H6Y 8279   1.400   3.578   5.778 -0.7968 -0.8613 -1.4991
   86SLPC   C37 8280   1.611   3.570   5.826 -0.1240 -0.5208  0.3467
   86SLPC   H7X 8281   1.665   3.657   5.782  1.4057 -1.8926 -0.6139
   86SLPC   H7Y 8282   1.672   3.478   5.815 -0.8532 -0.9282 -0.4049
   86SLPC   C38 8283   1.568   3.607   5.966 -0.2427  0.3302 -0.2634
   86SLPC   H8X 8284   1.527   3.520   6.022  1.8842 -1.1612 -0.8869
   86SLPC   H8Y 8285   1.488   3.683   5.970  0.0385  0.5982  2.6019
   86SLPC   C39 8286   1.694   3.646   6.045  0.3468  0.1454 -0.6397
   86SLPC   H9X 8287   1.757   3.715   5.985  2.3658  1.6455  2.8870
   86SLPC   H9Y 8288   1.739   3.547   6.065 -0.8548 -0.1821  0.6315
   86SLPC  C310 8289   1.660   3.718   6.176  0.4731 -0.4619 -0.0866
   86SLPC  H10X 8290   1.580   3.794   6.164  0.9909  0.1259  0.1043
   86SLPC  H10Y 8291   1.747   3.772   6.219  0.8597 -1.9901  1.1415
   86SLPC  C311 8292   1.608   3.621   6.288  0.8071 -0.0609  0.2047
   86SLPC  H11X 8293   1.684   3.540   6.296 -0.8008 -1.9405 -2.2847
   86SLPC  H11Y 8294   1.508   3.588   6.254  0.6938  1.5174 -1.1347
   86SLPC  C312 8295   1.590   3.680   6.432 -0.1490  0.4563 -0.2896
   86SLPC  H12X 8296   1.529   3.772   6.423 -0.9923 -0.0562  0.0863
   86SLPC  H12Y 8297   1.692   3.702   6.469  0.0524  0.1708 -0.6608
   86SLPC  C313 8298   1.530   3.579   6.534  0.6037 -0.0023  0.7179
   86SLPC  H13X 8299   1.582   3.481   6.536 -0.5990 -0.6840 -0.0478
   86SLPC  H13Y 8300   1.431   3.550   6.492  0.8330 -3.2634  2.1742
   86SLPC  C314 8301   1.503   3.634   6.682 -0.4693  0.1076 -0.2388
   86SLPC  H14X 8302   1.420   3.583   6.736  0.3549  0.0446  1.0078
   86SLPC  H14Y 8303   1.474   3.741   6.675 -1.3680 -0.0772  0.5019
   86SLPC  C315 8304   1.635   3.630   6.753  0.0460 -0.0308  0.4854
   86SLPC  H15X 8305   1.728   3.650   6.696  0.3877 -1.7858  0.3747
   86SLPC  H15Y 8306   1.643   3.529   6.799  0.0383 -0.5087 -0.5336
   86SLPC  C316 8307   1.640   3.722   6.882 -0.0881  0.3749 -0.2911
   86SLPC  H16X 8308   1.536   3.733   6.921  0.2387  0.0815  0.6881
   86SLPC  H16Y 8309   1.676   3.822   6.848 -0.4978  0.6999  0.2133
   86SLPC  C317 8310   1.725   3.653   6.994 -0.1055  0.0690  0.6044
   86SLPC  H17X 8311   1.830   3.647   6.961 -0.4125 -2.1278 -0.1078
   86SLPC  H17Y 8312   1.691   3.547   6.991 -1.4263  0.4227 -4.0964
   86SLPC  C318 8313   1.709   3.702   7.134 -0.1029  0.8981 -0.6958
   86SLPC  H18X 8314   1.615   3.655   7.172 -0.1142  2.0960  0.8527
   86SLPC  H18Y 8315   1.707   3.813   7.144  0.4093  0.8962 -0.5944
   86SLPC  H18Z 8316   1.794   3.662   7.193 -1.1285  1.1047  0.9976
   87SLPC     N 8317   6.483   5.947   5.285  0.7301 -0.9098 -0.2010
   87SLPC   C13 8318   6.457   5.859   5.174 -0.0366 -0.1663 -0.3674
   87SLPC  H13A 8319   6.453   5.759   5.212 -4.1153 -0.2667 -0.6376
   87SLPC  H13B 8320   6.357   5.871   5.135  0.3153  2.4987 -0.6473
   87SLPC  H13C 8321   6.536   5.866   5.099  0.7884  0.3926  0.5298
   87SLPC   C14 8322   6.465   6.090   5.250 -0.1912  0.3170 -0.0279
   87SLPC  H14A 8323   6.530   6.125   5.172  0.4794  2.2383  1.3178
   87SLPC  H14B 8324   6.370   6.117   5.206 -0.1195 -0.3005 -0.5863
   87SLPC  H14C 8325   6.479   6.153   5.337 -0.4991  0.2031  0.1075
   87SLPC   C15 8326   6.626   5.932   5.318 -0.2455  0.4884  0.1531
   87SLPC  H15A 8327   6.657   6.002   5.394 -1.3907  0.0099  1.0999
   87SLPC  H15B 8328   6.643   5.832   5.355  1.0970  0.9134  0.7576
   87SLPC  H15C 8329   6.689   5.960   5.235  0.6099  2.9374  1.5120
   87SLPC   C12 8330   6.411   5.915   5.421  0.1713  0.7399  0.1630
   87SLPC  H12A 8331   6.440   5.999   5.482  2.1603 -0.9582  1.7240
   87SLPC  H12B 8332   6.451   5.825   5.466  0.9174  1.0512  0.1490
   87SLPC   C11 8333   6.259   5.911   5.413  0.2486 -0.2750  0.3105
   87SLPC  H11A 8334   6.221   6.005   5.368  0.1004  0.8242  2.6010
   87SLPC  H11B 8335   6.225   5.895   5.518  0.7092 -0.6342  0.4101
   87SLPC     P 8336   6.215   5.650   5.372  0.1177  0.0260 -0.7415
   87SLPC   O13 8337   6.094   5.630   5.452  0.0252  0.6871 -0.2528
   87SLPC   O14 8338   6.229   5.572   5.250  0.0853  0.1615 -0.2093
   87SLPC   O12 8339   6.221   5.802   5.329 -0.3437 -0.2116  0.1878
   87SLPC   O11 8340   6.348   5.629   5.458 -0.0623  0.3126 -0.3685
   87SLPC    C1 8341   6.360   5.507   5.529 -0.1422  0.0024 -0.2932
   87SLPC    HA 8342   6.278   5.437   5.505 -0.2374  0.1527 -0.4081
   87SLPC    HB 8343   6.458   5.459   5.505  0.7426  0.9205  1.3055
   87SLPC    C2 8344   6.348   5.525   5.683  0.2995 -0.4525  0.2822
   87SLPC    HS 8345   6.370   5.431   5.739  1.1740  0.2812  1.2035
   87SLPC   O21 8346   6.216   5.570   5.717 -0.1958 -0.2151 -0.3901
   87SLPC   C21 8347   6.120   5.486   5.719  0.7625  0.2717  0.0164
   87SLPC   O22 8348   6.128   5.363   5.697 -0.2826  0.3695 -0.4313
   87SLPC   C22 8349   5.989   5.556   5.769 -0.3616 -0.1021 -0.0026
   87SLPC   H2R 8350   5.968   5.645   5.705  2.2497  1.0577  0.6266
   87SLPC   H2S 8351   5.909   5.480   5.753 -0.2921  0.4016 -3.5808
   87SLPC    C3 8352   6.442   5.633   5.739  0.0296  0.4134 -0.2229
   87SLPC    HX 8353   6.422   5.636   5.848  0.8748 -1.3751 -0.0003
   87SLPC    HY 8354   6.404   5.731   5.701 -4.6555 -1.3789 -0.8515
   87SLPC   O31 8355   6.583   5.605   5.714 -0.1857  0.2762 -0.5612
   87SLPC   C31 8356   6.645   5.710   5.656 -0.4090 -0.7594  0.0510
   87SLPC   O32 8357   6.602   5.815   5.611 -1.0834  0.5290  0.0630
   87SLPC   C32 8358   6.793   5.674   5.670  0.2152 -0.1720  0.2107
   87SLPC   H2X 8359   6.828   5.676   5.565 -1.6975  2.5043 -0.4673
   87SLPC   H2Y 8360   6.804   5.574   5.717  0.9082 -0.4934 -0.6067
   87SLPC   C23 8361   6.002   5.595   5.916 -0.1327  0.0779 -0.7084
   87SLPC   H3R 8362   6.101   5.642   5.938 -0.7569  0.0681  2.7082
   87SLPC   H3S 8363   6.009   5.496   5.968  1.1170 -0.3160 -1.5828
   87SLPC   C24 8364   5.886   5.668   5.978 -0.0260  0.6692  0.2291
   87SLPC   H4R 8365   5.787   5.618   5.970  0.6850 -0.7405 -0.1345
   87SLPC   H4S 8366   5.876   5.760   5.917  0.2353  0.5522  0.0053
   87SLPC   C25 8367   5.904   5.700   6.124 -0.5643  0.1306 -0.7307
   87SLPC   H5R 8368   6.001   5.749   6.146  0.9118 -2.1115 -1.8286
   87SLPC   H5S 8369   5.924   5.605   6.179  0.3432  0.3236 -0.7208
   87SLPC   C26 8370   5.790   5.781   6.190  0.4262 -0.4110  0.5076
   87SLPC   H6R 8371   5.695   5.736   6.155  1.2448 -0.7175 -1.4206
   87SLPC   H6S 8372   5.785   5.882   6.145  0.3638 -1.1193 -1.1281
   87SLPC   C27 8373   5.796   5.762   6.348 -0.5500 -0.2544  1.0888
   87SLPC   H7R 8374   5.886   5.808   6.392 -0.0533 -0.2780  0.1210
   87SLPC   H7S 8375   5.793   5.656   6.380  0.1083  0.3488  3.3046
   87SLPC   C28 8376   5.679   5.838   6.406  0.3797  1.2735 -0.1973
   87SLPC   H8R 8377   5.583   5.790   6.374 -0.0829  0.7202  1.8898
   87SLPC   H8S 8378   5.678   5.936   6.353 -1.2032  1.7613  0.6525
   87SLPC   C29 8379   5.685   5.855   6.558 -0.1545 -0.6433 -0.1880
   87SLPC   H9R 8380   5.720   5.956   6.584 -0.1276 -0.7767  0.3035
   87SLPC  C210 8381   5.650   5.765   6.647 -0.0244 -0.3753  0.2837
   87SLPC  H10R 8382   5.662   5.778   6.756 -0.9035 -1.7306  0.5688
   87SLPC  C211 8383   5.613   5.621   6.615  0.1585  0.5151  0.0261
   87SLPC  H11R 8384   5.606   5.600   6.506 -2.5825 -1.2525  0.4177
   87SLPC  H11S 8385   5.508   5.592   6.639  0.4576 -1.9939 -1.3112
   87SLPC  C212 8386   5.696   5.506   6.671 -0.1115 -0.1144 -0.2810
   87SLPC  H12R 8387   5.795   5.508   6.622  0.8747  1.2797  1.6342
   87SLPC  C213 8388   5.656   5.407   6.754 -0.1671 -0.0190  0.5655
   87SLPC  H13R 8389   5.740   5.352   6.800  1.0767  2.0570  0.9309
   87SLPC  C214 8390   5.523   5.392   6.823  0.3036 -0.1215 -0.5972
   87SLPC  H14R 8391   5.480   5.297   6.787 -0.3166  0.8440 -2.6152
   87SLPC  H14S 8392   5.447   5.468   6.792  1.2903  0.4142 -1.8331
   87SLPC  C215 8393   5.557   5.392   6.969 -0.3771  0.1901 -0.2229
   87SLPC  H15R 8394   5.600   5.488   7.007  0.7712 -0.5339  0.3596
   87SLPC  H15S 8395   5.634   5.314   6.990 -0.9313  0.2891  2.5539
   87SLPC  C216 8396   5.435   5.368   7.062  0.7512  0.3366  0.0815
   87SLPC  H16R 8397   5.388   5.269   7.040 -1.7316  0.7218  2.9938
   87SLPC  H16S 8398   5.363   5.449   7.039  1.7954  0.8190 -1.7375
   87SLPC  C217 8399   5.478   5.367   7.213  0.0972  0.2326  0.1374
   87SLPC  H17R 8400   5.385   5.364   7.274 -0.6290 -0.1109 -0.9457
   87SLPC  H17S 8401   5.522   5.461   7.252 -0.6191  0.1231  1.2406
   87SLPC  C218 8402   5.560   5.241   7.251  0.2709 -0.0922 -0.0041
   87SLPC  H18R 8403   5.662   5.247   7.209  0.9147  0.5721  1.5751
   87SLPC  H18S 8404   5.504   5.152   7.215  0.4689  0.3449 -1.4695
   87SLPC  H18T 8405   5.581   5.228   7.359 -0.2556 -1.9116 -0.0949
   87SLPC   C33 8406   6.873   5.783   5.745  1.0336  0.2283 -0.6165
   87SLPC   H3X 8407   6.831   5.885   5.728  1.4496  0.4627 -0.2423
   87SLPC   H3Y 8408   6.974   5.789   5.700  0.1754  2.1414 -2.4709
   87SLPC   C34 8409   6.867   5.756   5.896  0.5455 -0.0872 -0.1100
   87SLPC   H4X 8410   6.921   5.839   5.948  0.3767 -0.8972  1.4285
   87SLPC   H4Y 8411   6.922   5.667   5.933  2.5682  0.5862 -1.3382
   87SLPC   C35 8412   6.725   5.759   5.957  0.2003  0.7966  0.1644
   87SLPC   H5X 8413   6.657   5.689   5.904  1.0705 -0.3134  0.4510
   87SLPC   H5Y 8414   6.683   5.860   5.940  1.5345  1.1905 -1.1022
   87SLPC   C36 8415   6.717   5.727   6.104 -0.5685 -0.5547  0.1220
   87SLPC   H6X 8416   6.767   5.812   6.154 -3.5164  1.3830  0.0398
   87SLPC   H6Y 8417   6.762   5.627   6.119  0.2819 -0.5675 -2.2365
   87SLPC   C37 8418   6.576   5.724   6.158  0.0775  0.3639 -0.0725
   87SLPC   H7X 8419   6.510   5.668   6.089 -0.7135 -0.6365  1.4428
   87SLPC   H7Y 8420   6.548   5.831   6.167  0.0321  0.2165  2.2274
   87SLPC   C38 8421   6.564   5.641   6.291 -0.2445  0.1624  0.1595
   87SLPC   H8X 8422   6.661   5.624   6.344 -0.1594  1.7550  0.5599
   87SLPC   H8Y 8423   6.535   5.537   6.265 -0.8609  0.6234 -1.0492
   87SLPC   C39 8424   6.467   5.688   6.396  0.3057  0.4956 -0.1842
   87SLPC   H9X 8425   6.509   5.781   6.440  0.3008  0.0917  0.6972
   87SLPC   H9Y 8426   6.462   5.629   6.490  0.4899  1.5078  0.4769
   87SLPC  C310 8427   6.325   5.729   6.343 -0.0584 -0.4710 -0.0592
   87SLPC  H10X 8428   6.251   5.650   6.316 -1.7983  1.8617 -2.7665
   87SLPC  H10Y 8429   6.340   5.792   6.253  2.2529 -0.7858  0.0434
   87SLPC  C311 8430   6.235   5.797   6.459  0.0986 -0.5811  0.1159
   87SLPC  H11X 8431   6.139   5.834   6.416 -1.1196 -1.8250  1.6228
   87SLPC  H11Y 8432   6.299   5.877   6.503 -0.8685  0.6899 -0.7240
   87SLPC  C312 8433   6.176   5.707   6.564  0.0229 -0.0683 -0.5893
   87SLPC  H12X 8434   6.245   5.651   6.631  4.2924  1.7938 -2.9838
   87SLPC  H12Y 8435   6.118   5.626   6.516 -1.0465  0.4337 -0.1680
   87SLPC  C313 8436   6.067   5.772   6.641  0.5734  0.0781  0.0089
   87SLPC  H13X 8437   5.984   5.790   6.568  0.1933 -2.5799 -0.3497
   87SLPC  H13Y 8438   6.110   5.871   6.667  3.1496 -0.8996 -0.2205
   87SLPC  C314 8439   6.012   5.711   6.768 -0.1092  0.6163 -0.6981
   87SLPC  H14X 8440   6.096   5.676   6.831 -1.4315 -3.5553 -0.9570
   87SLPC  H14Y 8441   5.936   5.632   6.748 -1.6764  1.8467  0.1688
   87SLPC  C315 8442   5.943   5.821   6.856  0.0184  0.1992 -0.4140
   87SLPC  H15X 8443   5.873   5.881   6.794 -1.7801 -2.1107 -0.7253
   87SLPC  H15Y 8444   6.012   5.894   6.905 -1.2265  0.5539  0.8996
   87SLPC  C316 8445   5.846   5.768   6.967  0.2202 -0.4397  0.7030
   87SLPC  H16X 8446   5.899   5.679   7.006  2.4788  0.8854  0.8275
   87SLPC  H16Y 8447   5.748   5.738   6.923  1.1872  0.9454 -2.7501
   87SLPC  C317 8448   5.837   5.859   7.082 -0.6204 -0.1915  0.2852
   87SLPC  H17X 8449   5.801   5.959   7.049 -1.3735 -0.7864 -0.7808
   87SLPC  H17Y 8450   5.933   5.865   7.137 -1.3427  1.1074  1.4640
   87SLPC  C318 8451   5.729   5.794   7.173  0.5195  0.6776  0.2133
   87SLPC  H18X 8452   5.631   5.793   7.122  1.1114 -0.0398 -0.9455
   87SLPC  H18Y 8453   5.720   5.863   7.260 -1.6986 -0.6920  1.1462
   87SLPC  H18Z 8454   5.753   5.691   7.205 -1.9653  0.2893  0.9985
   88SLPC     N 8455   2.486   3.651   4.603 -0.3073  0.0821  0.5376
   88SLPC   C13 8456   2.349   3.617   4.559 -0.3147  0.2712  0.4055
   88SLPC  H13A 8457   2.313   3.523   4.600  2.8093 -2.3108 -2.1325
   88SLPC  H13B 8458   2.279   3.697   4.578 -2.7676 -1.3824 -0.9501
   88SLPC  H13C 8459   2.348   3.619   4.451  0.9571  2.4784  0.3870
   88SLPC   C14 8460   2.543   3.762   4.519 -0.1984 -0.5069 -0.2999
   88SLPC  H14A 8461   2.649   3.775   4.534 -0.1435 -0.8421 -0.3843
   88SLPC  H14B 8462   2.534   3.749   4.412 -1.8968 -0.9951 -0.1201
   88SLPC  H14C 8463   2.501   3.860   4.537  2.0439  0.3954  0.4224
   88SLPC   C15 8464   2.572   3.529   4.581  0.1784 -0.3373  0.3121
   88SLPC  H15A 8465   2.580   3.507   4.475  0.3010 -0.6986  0.3940
   88SLPC  H15B 8466   2.671   3.532   4.623 -0.4704  0.8765  1.8451
   88SLPC  H15C 8467   2.521   3.443   4.622  0.3050  0.7387  2.8634
   88SLPC   C12 8468   2.484   3.696   4.746  0.2628  1.0025 -0.6244
   88SLPC  H12A 8469   2.454   3.607   4.800  0.5406  0.8827 -0.6634
   88SLPC  H12B 8470   2.403   3.764   4.766 -0.3521  0.6969 -1.9652
   88SLPC   C11 8471   2.620   3.750   4.813 -0.3139  0.1717  0.6615
   88SLPC  H11A 8472   2.595   3.767   4.920 -0.5477 -0.0727  0.6472
   88SLPC  H11B 8473   2.632   3.853   4.774 -2.7990  0.9638  1.7642
   88SLPC     P 8474   2.879   3.713   4.796 -0.1810 -0.0556  0.4081
   88SLPC   O13 8475   2.978   3.607   4.819 -0.0366  0.0295  0.3889
   88SLPC   O14 8476   2.896   3.777   4.667  0.5443 -0.6453  0.4400
   88SLPC   O12 8477   2.734   3.661   4.818 -0.0875  0.2445 -0.3349
   88SLPC   O11 8478   2.878   3.829   4.900  0.1486  0.1478  0.0726
   88SLPC    C1 8479   2.876   3.794   5.038 -0.2400 -0.0741 -0.5127
   88SLPC    HA 8480   2.793   3.728   5.069  1.4557 -0.6225  3.5302
   88SLPC    HB 8481   2.973   3.746   5.063  0.7964  3.0174  2.1260
   88SLPC    C2 8482   2.871   3.924   5.125  0.2015 -0.3460  0.3988
   88SLPC    HS 8483   2.955   3.982   5.081  1.2921 -3.0770 -1.4064
   88SLPC   O21 8484   2.891   3.889   5.263  0.0460  0.1658  0.3044
   88SLPC   C21 8485   2.923   3.998   5.329  0.5261  0.1517  0.1269
   88SLPC   O22 8486   2.948   4.106   5.283  0.0192 -0.2217 -0.0323
   88SLPC   C22 8487   2.934   3.962   5.477  0.2512  0.3025  0.1882
   88SLPC   H2R 8488   2.876   3.868   5.486  0.9069 -0.1697 -0.3816
   88SLPC   H2S 8489   3.037   3.932   5.506 -0.4926 -2.6422  0.0926
   88SLPC    C3 8490   2.735   3.990   5.106  0.5926 -1.4755  0.5368
   88SLPC    HX 8491   2.660   3.911   5.124 -0.1295 -0.2190  3.7590
   88SLPC    HY 8492   2.724   4.016   4.999 -1.7300 -0.1653  1.0297
   88SLPC   O31 8493   2.711   4.105   5.191 -0.0413 -0.2028  0.0670
   88SLPC   C31 8494   2.726   4.225   5.132  0.7173  0.9104 -0.6756
   88SLPC   O32 8495   2.785   4.250   5.032  0.2342  0.4687  0.5113
   88SLPC   C32 8496   2.635   4.326   5.214 -0.4315  0.0096 -0.2674
   88SLPC   H2X 8497   2.529   4.306   5.191 -0.7380  0.5259  0.6449
   88SLPC   H2Y 8498   2.662   4.428   5.178 -1.7518  0.8331  0.9700
   88SLPC   C23 8499   2.898   4.073   5.578  0.0598  0.7188  0.4885
   88SLPC   H3R 8500   2.792   4.100   5.558  0.3410  0.5076 -1.4127
   88SLPC   H3S 8501   2.963   4.160   5.559 -0.7283  1.6367  1.8166
   88SLPC   C24 8502   2.928   4.032   5.733 -0.3884  0.4377  0.1864
   88SLPC   H4R 8503   3.032   3.994   5.736 -0.5375  0.0436  0.5117
   88SLPC   H4S 8504   2.858   3.946   5.744 -0.1219  0.0554 -0.9653
   88SLPC   C25 8505   2.915   4.139   5.834  0.0825  0.0868  0.0920
   88SLPC   H5R 8506   2.811   4.175   5.823  0.3500  0.0662 -3.7030
   88SLPC   H5S 8507   2.971   4.230   5.806 -2.1613  1.8317  0.9747
   88SLPC   C26 8508   2.961   4.096   5.975  0.0031 -0.3686  0.5970
   88SLPC   H6R 8509   3.065   4.059   5.985 -0.1519 -1.6971 -1.9774
   88SLPC   H6S 8510   2.904   4.002   5.987  1.5537 -1.5091 -0.5437
   88SLPC   C27 8511   2.916   4.197   6.084 -0.8725 -0.1622  0.2664
   88SLPC   H7R 8512   2.805   4.192   6.090 -1.2689  3.4427 -1.2837
   88SLPC   H7S 8513   2.934   4.296   6.037  2.4767 -1.4177 -1.3599
   88SLPC   C28 8514   2.975   4.166   6.219 -0.0725 -0.3255 -0.4297
   88SLPC   H8R 8515   2.966   4.060   6.252 -2.6747  0.6568  2.4713
   88SLPC   H8S 8516   2.902   4.213   6.288 -1.3410 -3.7445  0.7748
   88SLPC   C29 8517   3.115   4.214   6.242 -0.0450 -0.2064 -0.1556
   88SLPC   H9R 8518   3.181   4.195   6.156 -0.1080 -1.9645  0.1369
   88SLPC  C210 8519   3.158   4.269   6.364  0.0086  0.0021 -0.1051
   88SLPC  H10R 8520   3.261   4.300   6.388 -1.2107  2.1532  2.8406
   88SLPC  C211 8521   3.070   4.275   6.490  0.5556  0.4689 -0.4074
   88SLPC  H11R 8522   3.133   4.244   6.577 -1.5085 -1.8601  0.3959
   88SLPC  H11S 8523   3.010   4.181   6.491  0.1217  0.7166 -1.6238
   88SLPC  C212 8524   2.972   4.395   6.505  0.1416 -0.1179 -0.5110
   88SLPC  H12R 8525   2.914   4.413   6.414 -1.7971 -3.2507 -0.0616
   88SLPC  C213 8526   2.977   4.493   6.595 -1.0502  0.8929  0.3258
   88SLPC  H13R 8527   2.894   4.564   6.607 -1.9225  0.1880 -1.2894
   88SLPC  C214 8528   3.072   4.504   6.713  0.6634  0.6855 -0.2768
   88SLPC  H14R 8529   3.119   4.605   6.714 -0.2777  1.1312  0.2384
   88SLPC  H14S 8530   3.150   4.425   6.716  0.8046  0.8242  2.2370
   88SLPC  C215 8531   2.982   4.488   6.837  0.2627  1.0917  0.1395
   88SLPC  H15R 8532   3.047   4.430   6.906 -2.5809  0.5880  2.6048
   88SLPC  H15S 8533   2.901   4.412   6.823  0.3638  1.2036 -1.2019
   88SLPC  C216 8534   2.943   4.615   6.910 -0.2928 -0.2549 -0.3109
   88SLPC  H16R 8535   2.845   4.651   6.873  0.1613  1.0472 -0.3138
   88SLPC  H16S 8536   3.027   4.688   6.911  1.4625 -1.9709 -3.6897
   88SLPC  C217 8537   2.900   4.581   7.050  0.4670 -0.3602 -0.4713
   88SLPC  H17R 8538   2.994   4.551   7.101  2.0360  0.9336 -2.4536
   88SLPC  H17S 8539   2.822   4.501   7.053 -1.5597  1.5477  1.8962
   88SLPC  C218 8540   2.837   4.700   7.119  0.2308  0.2114 -0.1939
   88SLPC  H18R 8541   2.838   4.691   7.230 -0.7565  0.6731 -0.1356
   88SLPC  H18S 8542   2.733   4.717   7.083  0.3598 -1.6642 -1.5454
   88SLPC  H18T 8543   2.885   4.796   7.090 -1.0123  1.4012  1.4350
   88SLPC   C33 8544   2.644   4.320   5.367  0.3222 -0.0743 -0.3533
   88SLPC   H3X 8545   2.748   4.339   5.402  0.2441 -0.5216  0.1161
   88SLPC   H3Y 8546   2.620   4.215   5.393  1.0134 -0.5995 -1.7331
   88SLPC   C34 8547   2.550   4.413   5.449  0.0164  0.4304  0.1246
   88SLPC   H4X 8548   2.453   4.365   5.472  0.1952  0.0572  0.0992
   88SLPC   H4Y 8549   2.532   4.501   5.383 -3.4632 -2.3601 -3.0802
   88SLPC   C35 8550   2.612   4.453   5.586 -0.6944 -0.1102  0.2063
   88SLPC   H5X 8551   2.704   4.506   5.553 -0.9826 -0.5683 -1.4139
   88SLPC   H5Y 8552   2.654   4.365   5.640 -0.4377 -0.0591  0.0954
   88SLPC   C36 8553   2.515   4.520   5.688 -0.0199 -0.4405 -0.6881
   88SLPC   H6X 8554   2.434   4.450   5.719  0.7591 -0.0661  2.5307
   88SLPC   H6Y 8555   2.460   4.608   5.649 -2.5482 -1.1181  1.0855
   88SLPC   C37 8556   2.586   4.550   5.821  0.1090 -0.1539 -0.0640
   88SLPC   H7X 8557   2.656   4.635   5.803  0.3280 -0.3975 -0.3838
   88SLPC   H7Y 8558   2.635   4.463   5.868  1.7051  1.8620  2.2866
   88SLPC   C38 8559   2.490   4.618   5.923  0.0837  0.1881 -0.5514
   88SLPC   H8X 8560   2.400   4.553   5.928 -1.7202  2.6373  1.4126
   88SLPC   H8Y 8561   2.453   4.711   5.874  0.8736 -0.3226 -2.1958
   88SLPC   C39 8562   2.557   4.631   6.065 -0.1929 -0.4956 -0.4127
   88SLPC   H9X 8563   2.480   4.682   6.127 -0.6419 -1.4122 -0.2104
   88SLPC   H9Y 8564   2.643   4.702   6.063 -0.1213 -0.2297  3.5015
   88SLPC  C310 8565   2.585   4.493   6.134  0.3487 -0.7790  0.0683
   88SLPC  H10X 8566   2.667   4.442   6.080  1.2479  0.2809  0.4024
   88SLPC  H10Y 8567   2.499   4.423   6.126  0.9684 -1.3551 -1.9761
   88SLPC  C311 8568   2.628   4.503   6.282 -0.4675 -0.3205  0.4823
   88SLPC  H11X 8569   2.721   4.563   6.292 -0.9069  0.5961 -0.6716
   88SLPC  H11Y 8570   2.652   4.404   6.325  1.2936  0.2054  0.8057
   88SLPC  C312 8571   2.522   4.562   6.372 -0.2096  0.4080 -0.8205
   88SLPC  H12X 8572   2.423   4.518   6.346  0.2084  0.4408 -2.5305
   88SLPC  H12Y 8573   2.504   4.672   6.362  1.1062  0.8663  1.1961
   88SLPC  C313 8574   2.550   4.532   6.524  0.2160  0.1651 -0.5524
   88SLPC  H13X 8575   2.645   4.584   6.551 -0.6172  1.0435  0.8430
   88SLPC  H13Y 8576   2.542   4.422   6.529 -1.8937  0.3127  0.1124
   88SLPC  C314 8577   2.434   4.566   6.630  1.1009 -0.0304 -0.0403
   88SLPC  H14X 8578   2.355   4.492   6.605  0.0720  0.8566  0.4849
   88SLPC  H14Y 8579   2.399   4.670   6.612  0.2103 -0.4714 -0.9830
   88SLPC  C315 8580   2.461   4.538   6.777 -0.6545 -0.5125  0.3046
   88SLPC  H15X 8581   2.373   4.553   6.843  0.6949 -2.4766  2.7150
   88SLPC  H15Y 8582   2.544   4.607   6.805  0.1833 -1.3046 -0.1856
   88SLPC  C316 8583   2.510   4.391   6.801  0.3658 -0.3978 -0.0677
   88SLPC  H16X 8584   2.602   4.379   6.740  1.0964 -0.6395  1.0528
   88SLPC  H16Y 8585   2.424   4.328   6.772  1.7515 -2.2570 -0.3300
   88SLPC  C317 8586   2.543   4.352   6.945  0.4901 -0.3646 -0.0107
   88SLPC  H17X 8587   2.619   4.425   6.982  0.8226 -0.1133 -1.1476
   88SLPC  H17Y 8588   2.590   4.252   6.958  1.9323  0.3177  0.2463
   88SLPC  C318 8589   2.428   4.358   7.047  0.0838  0.2369  0.1760
   88SLPC  H18X 8590   2.463   4.346   7.152  0.9209 -0.6932 -0.2057
   88SLPC  H18Y 8591   2.355   4.281   7.013  0.6690 -0.0978 -0.3257
   88SLPC  H18Z 8592   2.373   4.455   7.050 -0.1934  0.0636  0.8454
   89SAPE     N 8593   2.816   4.377   0.475  0.2027 -0.1188 -0.1351
   89SAPE   HN1 8594   2.723   4.414   0.502 -0.3133  0.8953 -3.0128
   89SAPE   HN2 8595   2.848   4.418   0.385 -0.6187  0.4950 -0.1521
   89SAPE   HN3 8596   2.815   4.275   0.458 -0.2072 -0.0773 -0.3522
   89SAPE   C12 8597   2.900   4.422   0.590 -0.2266 -0.5139 -0.1997
   89SAPE  H12A 8598   2.826   4.447   0.669 -0.2647  1.6887 -0.8802
   89SAPE  H12B 8599   2.963   4.510   0.567  1.4674 -1.8934 -1.0670
   89SAPE   C11 8600   2.981   4.305   0.641  0.2756 -0.1530  0.0522
   89SAPE  H11A 8601   2.918   4.216   0.664 -0.1088 -0.2375 -1.2675
   89SAPE  H11B 8602   3.015   4.349   0.738 -0.3339  0.8757 -0.1868
   89SAPE     P 8603   3.179   4.144   0.587  0.3857 -0.1507  0.0692
   89SAPE   O13 8604   3.294   4.181   0.669 -0.3253  0.3385 -0.8181
   89SAPE   O14 8605   3.079   4.044   0.625  0.0244 -0.3733  0.4554
   89SAPE   O12 8606   3.099   4.279   0.566 -0.3371  0.0060  0.4360
   89SAPE   O11 8607   3.233   4.104   0.442  0.2399 -0.0259 -0.2884
   89SAPE    C1 8608   3.352   4.161   0.385  0.4926  0.0434 -0.3504
   89SAPE    HA 8609   3.348   4.270   0.401 -1.5355 -0.2092  1.3646
   89SAPE    HB 8610   3.444   4.127   0.437  0.3599  0.9206  0.4700
   89SAPE    C2 8611   3.367   4.132   0.234 -0.0216 -0.9227 -0.3353
   89SAPE    HS 8612   3.383   4.023   0.222  0.3833 -0.7555 -1.4298
   89SAPE   O21 8613   3.477   4.213   0.179  0.3450  0.1290 -0.5075
   89SAPE   C21 8614   3.547   4.154   0.092 -1.2070  0.2286 -0.0393
   89SAPE   O22 8615   3.537   4.043   0.049  0.1002  0.3305  0.1421
   89SAPE   C22 8616   3.658   4.256   0.046  0.4432 -0.6716  0.0744
   89SAPE   H2R 8617   3.608   4.355   0.045 -1.7435 -1.7187  0.0402
   89SAPE   H2S 8618   3.732   4.252   0.129 -0.9994  1.9530  1.6271
   89SAPE    C3 8619   3.227   4.173   0.178  0.5789 -0.0970  0.5213
   89SAPE    HX 8620   3.215   4.281   0.201 -1.2311  0.1053 -1.0818
   89SAPE    HY 8621   3.145   4.110   0.218 -0.8413 -1.3903 -3.8148
   89SAPE   O31 8622   3.225   4.164   0.034  0.5379 -0.1855  0.2543
   89SAPE   C31 8623   3.209   4.040  -0.014 -0.5820 -0.4479 -0.1555
   89SAPE   O32 8624   3.200   3.936   0.049 -0.6197 -0.1607 -0.3021
   89SAPE   C32 8625   3.211   4.039  -0.166 -0.4063  0.2833  0.9790
   89SAPE   H2X 8626   3.315   4.015  -0.194 -0.0598  2.0930  0.5828
   89SAPE   H2Y 8627   3.192   4.142  -0.205  1.7900  0.3125 -0.1652
   89SAPE   C23 8628   3.720   4.227  -0.088  0.3138  0.6811 -0.1050
   89SAPE   H3R 8629   3.639   4.221  -0.164  0.6214  0.7393 -0.4404
   89SAPE   H3S 8630   3.769   4.128  -0.096 -1.0642  0.0351 -1.0365
   89SAPE   C24 8631   3.814   4.337  -0.139 -0.0036 -0.4113 -0.0901
   89SAPE   H4R 8632   3.870   4.280  -0.217  2.3486 -1.2328  2.0319
   89SAPE   H4S 8633   3.870   4.374  -0.050 -1.4296 -1.0887  1.1282
   89SAPE   C25 8634   3.736   4.454  -0.197 -0.6307  0.9003  0.3230
   89SAPE   H5R 8635   3.670   4.503  -0.124  1.6901 -0.0359  3.2684
   89SAPE   C26 8636   3.726   4.489  -0.326 -0.0129 -0.6869 -0.2652
   89SAPE   H6R 8637   3.656   4.568  -0.355  1.1303  0.3040 -0.3666
   89SAPE   C27 8638   3.796   4.431  -0.438  0.4134  0.5323 -1.3206
   89SAPE   H7R 8639   3.747   4.344  -0.486 -1.4566  1.9623 -2.0813
   89SAPE   H7S 8640   3.886   4.381  -0.396 -0.3997  1.1341  1.3234
   89SAPE   C28 8641   3.834   4.540  -0.533 -0.3281  0.5845  0.4184
   89SAPE   H8R 8642   3.839   4.643  -0.493  0.3613  1.1548 -1.0508
   89SAPE   C29 8643   3.870   4.520  -0.661  0.0396 -0.3679  1.1675
   89SAPE   H9R 8644   3.885   4.605  -0.730  0.2559 -0.4001  1.1768
   89SAPE  C210 8645   3.886   4.390  -0.747 -0.7724  0.4483 -0.4162
   89SAPE  H10R 8646   3.793   4.374  -0.805 -1.6907  2.9139  0.2098
   89SAPE  H10S 8647   3.888   4.305  -0.675  3.2217  1.5025  0.9987
   89SAPE  C211 8648   4.015   4.377  -0.824 -0.5975 -0.6724  0.1484
   89SAPE  H11R 8649   4.100   4.353  -0.758 -2.0033 -2.7884  1.3104
   89SAPE  C212 8650   4.038   4.382  -0.954 -0.2434 -0.6684 -0.0004
   89SAPE  H12R 8651   4.142   4.365  -0.987 -0.5818 -0.3732 -1.2672
   89SAPE  C213 8652   3.934   4.399  -1.060 -0.3604  0.5365 -0.7612
   89SAPE  H13R 8653   3.930   4.506  -1.090 -3.2328  0.1990 -1.8947
   89SAPE  H13S 8654   3.829   4.378  -1.029  0.1045  0.3801  0.7817
   89SAPE  C214 8655   3.959   4.329  -1.190 -0.4795  0.1023  0.0312
   89SAPE  H14R 8656   4.068   4.313  -1.199 -0.2388  0.4715  1.8881
   89SAPE  C215 8657   3.889   4.309  -1.302 -0.2923 -0.4074  0.1331
   89SAPE  H15R 8658   3.938   4.246  -1.378 -0.0335  1.7043 -1.5251
   89SAPE  C216 8659   3.744   4.350  -1.313 -0.3245 -0.5608 -0.6353
   89SAPE  H16R 8660   3.716   4.416  -1.228 -1.9475 -0.3107 -1.3375
   89SAPE  H16S 8661   3.676   4.263  -1.307 -2.0101  0.7865  1.0577
   89SAPE  C217 8662   3.710   4.432  -1.439 -0.0288  0.2868  0.2587
   89SAPE  H17R 8663   3.795   4.499  -1.463  0.8663 -1.6244 -2.3956
   89SAPE  H17S 8664   3.605   4.467  -1.429 -0.0248  0.2988  0.2532
   89SAPE  C218 8665   3.715   4.346  -1.572 -0.0322  0.1585  0.7586
   89SAPE  H18R 8666   3.663   4.248  -1.563  1.6092 -0.8016  0.2477
   89SAPE  H18S 8667   3.821   4.316  -1.587 -0.9445 -2.6762 -0.7883
   89SAPE  C219 8668   3.644   4.411  -1.694 -0.0346 -0.7078 -0.7902
   89SAPE  H19R 8669   3.681   4.514  -1.712  2.5548 -0.5373  3.9054
   89SAPE  H19S 8670   3.536   4.425  -1.669  0.4125 -0.2355  1.0588
   89SAPE  C220 8671   3.651   4.330  -1.825  0.1025 -0.0521 -0.6017
   89SAPE  H20R 8672   3.580   4.246  -1.809 -0.2854  0.4527  0.4250
   89SAPE  H20S 8673   3.757   4.301  -1.834  0.4663  0.9150  0.3622
   89SAPE  H20T 8674   3.618   4.397  -1.908  0.2833 -2.5609 -2.8207
   89SAPE   C33 8675   3.112   3.938  -0.232 -1.2786  0.0672  0.0240
   89SAPE   H3X 8676   3.016   3.994  -0.245 -1.0854  0.5573  0.6422
   89SAPE   H3Y 8677   3.099   3.854  -0.161 -0.9206 -1.3355 -1.5190
   89SAPE   C34 8678   3.166   3.862  -0.362 -0.0661 -1.2762 -0.3639
   89SAPE   H4X 8679   3.106   3.774  -0.393 -0.1971 -2.0908  2.0432
   89SAPE   H4Y 8680   3.265   3.822  -0.330  0.8610  1.5857  0.7001
   89SAPE   C35 8681   3.184   3.953  -0.485 -0.2059  0.1249  0.4670
   89SAPE   H5X 8682   3.252   4.036  -0.454  0.1910  0.4019 -1.0447
   89SAPE   H5Y 8683   3.086   4.004  -0.490 -0.3920 -0.3216 -0.6851
   89SAPE   C36 8684   3.223   3.874  -0.618 -0.1041 -0.0736  0.1842
   89SAPE   H6X 8685   3.133   3.817  -0.648 -0.1161  0.9279 -1.8214
   89SAPE   H6Y 8686   3.307   3.804  -0.599 -0.7971 -1.3133 -1.1574
   89SAPE   C37 8687   3.256   3.968  -0.741 -0.1256  0.5849  0.2303
   89SAPE   H7X 8688   3.363   3.998  -0.732  0.2878 -0.4749 -0.8451
   89SAPE   H7Y 8689   3.189   4.056  -0.739 -1.7775 -0.5332 -1.8887
   89SAPE   C38 8690   3.238   3.906  -0.885 -0.0613 -0.4403 -0.2938
   89SAPE   H8X 8691   3.139   3.860  -0.905 -0.1711  0.4824 -2.0511
   89SAPE   H8Y 8692   3.303   3.818  -0.905  0.6618 -0.1499  0.7457
   89SAPE   C39 8693   3.254   4.003  -1.003 -0.1032  0.9803 -0.5852
   89SAPE   H9X 8694   3.335   4.072  -0.971  0.4489 -0.6209  1.7724
   89SAPE   H9Y 8695   3.165   4.069  -1.011 -0.5474  0.2850 -1.5677
   89SAPE  C310 8696   3.283   3.931  -1.131  0.6152  0.4980 -0.1275
   89SAPE  H10X 8697   3.377   3.873  -1.123  0.0144 -0.3496  1.0816
   89SAPE  H10Y 8698   3.312   4.004  -1.209  0.0827  1.4031  0.5015
   89SAPE  C311 8699   3.162   3.847  -1.181 -0.1112 -0.5773 -0.1086
   89SAPE  H11X 8700   3.076   3.915  -1.201  1.0449  0.4636 -1.8636
   89SAPE  H11Y 8701   3.130   3.774  -1.104 -0.8567 -1.6578 -1.4081
   89SAPE  C312 8702   3.200   3.772  -1.306  0.2243  0.4159 -0.0093
   89SAPE  H12X 8703   3.298   3.722  -1.293 -0.8209 -1.6942  0.1215
   89SAPE  H12Y 8704   3.203   3.835  -1.398 -1.7819 -0.8898 -1.0408
   89SAPE  C313 8705   3.098   3.662  -1.340  0.4894 -0.0137 -0.0347
   89SAPE  H13X 8706   3.009   3.717  -1.375  0.1579  1.6628  3.0453
   89SAPE  H13Y 8707   3.079   3.622  -1.238  1.0725  3.3824  1.5293
   89SAPE  C314 8708   3.150   3.568  -1.447 -0.0242 -0.5700 -0.3967
   89SAPE  H14X 8709   3.100   3.469  -1.441 -1.6352  0.2044 -0.6232
   89SAPE  H14Y 8710   3.251   3.532  -1.419 -1.8359 -5.2649  1.1635
   89SAPE  C315 8711   3.128   3.616  -1.590  0.2539 -0.2551  0.4238
   89SAPE  H15X 8712   3.194   3.703  -1.610 -0.7466  0.3185 -0.4759
   89SAPE  H15Y 8713   3.026   3.646  -1.622  0.3741 -0.4644 -0.1773
   89SAPE  C316 8714   3.162   3.496  -1.689  0.1000  0.3698  0.1695
   89SAPE  H16X 8715   3.115   3.400  -1.658  2.5032 -1.7418 -2.1710
   89SAPE  H16Y 8716   3.267   3.465  -1.669  1.0254  1.8744 -1.9707
   89SAPE  C317 8717   3.127   3.522  -1.840  0.1521  0.4154  0.4797
   89SAPE  H17X 8718   3.032   3.579  -1.843  1.0674  1.9872  0.0076
   89SAPE  H17Y 8719   3.115   3.424  -1.891  2.7906 -0.2130  0.8989
   89SAPE  C318 8720   3.227   3.604  -1.916  0.2976 -1.2484  0.1734
   89SAPE  H18X 8721   3.201   3.624  -2.022  0.4605 -0.9564  0.1876
   89SAPE  H18Y 8722   3.324   3.549  -1.911 -0.2170 -2.0832  1.5496
   89SAPE  H18Z 8723   3.241   3.707  -1.876  0.2281  0.1031 -3.0336
   90SAPE     N 8724   3.642   1.576   0.635  0.3633  0.5070 -0.5676
   90SAPE   HN1 8725   3.625   1.627   0.547  1.3765 -1.1123 -1.7603
   90SAPE   HN2 8726   3.576   1.497   0.652  0.2292  0.5365 -0.9528
   90SAPE   HN3 8727   3.636   1.634   0.721 -1.1999 -0.4539  0.0175
   90SAPE   C12 8728   3.780   1.515   0.620  0.6882 -0.2120  0.9891
   90SAPE  H12A 8729   3.770   1.449   0.532 -0.4249  1.5752 -0.2851
   90SAPE  H12B 8730   3.789   1.460   0.716  0.1042  1.4278  2.0382
   90SAPE   C11 8731   3.890   1.619   0.603  0.0108  1.1546 -0.4429
   90SAPE  H11A 8732   3.864   1.673   0.509  1.1058  1.6143 -0.4897
   90SAPE  H11B 8733   3.980   1.555   0.592  0.3033  1.3032  0.8276
   90SAPE     P 8734   3.880   1.852   0.732 -0.2341 -0.0022  0.0368
   90SAPE   O13 8735   3.749   1.881   0.674  0.2415  0.1869 -0.0812
   90SAPE   O14 8736   3.892   1.896   0.872 -0.1212  0.2959  0.0444
   90SAPE   O12 8737   3.907   1.695   0.723 -0.0882  0.1114 -0.3448
   90SAPE   O11 8738   3.990   1.903   0.646  0.1813 -0.1022  0.6779
   90SAPE    C1 8739   4.126   1.889   0.682 -0.5264 -0.3219  0.2479
   90SAPE    HA 8740   4.162   1.976   0.741 -0.5054 -0.7818  0.9253
   90SAPE    HB 8741   4.145   1.803   0.750  1.9169  0.2115  0.3202
   90SAPE    C2 8742   4.225   1.871   0.557  0.2739  0.3503 -0.2287
   90SAPE    HS 8743   4.330   1.893   0.584  1.2628 -0.2393 -3.2298
   90SAPE   O21 8744   4.186   1.936   0.434 -0.2768 -0.1424 -0.1556
   90SAPE   C21 8745   4.159   2.063   0.447  0.1183 -0.2518  0.4863
   90SAPE   O22 8746   4.187   2.134   0.546  0.7583  0.2677 -0.1998
   90SAPE   C22 8747   4.092   2.122   0.314 -0.6870 -0.7111 -0.1098
   90SAPE   H2R 8748   3.982   2.114   0.318 -1.0330  1.5159 -2.6069
   90SAPE   H2S 8749   4.104   2.230   0.334  0.4825 -1.1728  2.1216
   90SAPE    C3 8750   4.213   1.717   0.524  0.4515 -0.2950  0.2937
   90SAPE    HX 8751   4.112   1.687   0.489  0.0731  0.0383  1.0709
   90SAPE    HY 8752   4.215   1.667   0.623  1.2674 -0.8929 -0.0104
   90SAPE   O31 8753   4.316   1.664   0.441 -0.3830 -0.2591  0.2175
   90SAPE   C31 8754   4.282   1.645   0.312 -0.6448 -0.2270 -0.4990
   90SAPE   O32 8755   4.173   1.674   0.263  0.0159  0.1205  0.4752
   90SAPE   C32 8756   4.403   1.585   0.245 -0.4661  0.0240  0.1303
   90SAPE   H2X 8757   4.408   1.476   0.269 -0.0886  0.3861  1.8436
   90SAPE   H2Y 8758   4.499   1.624   0.285  0.3582 -0.1944 -1.5544
   90SAPE   C23 8759   4.162   2.068   0.197  0.1081  0.2453  0.2257
   90SAPE   H3R 8760   4.115   2.094   0.100 -1.0153 -2.3318  0.0006
   90SAPE   H3S 8761   4.152   1.957   0.193 -1.0894  0.3150  0.8685
   90SAPE   C24 8762   4.314   2.098   0.177 -0.0044  0.5387 -0.2425
   90SAPE   H4R 8763   4.339   2.044   0.084  1.1888 -2.3068  1.6189
   90SAPE   H4S 8764   4.370   2.048   0.258 -0.6333  2.6910  1.6336
   90SAPE   C25 8765   4.349   2.247   0.195 -0.6222  0.2605 -0.0200
   90SAPE   H5R 8766   4.355   2.281   0.299  0.6385  1.4250 -0.4573
   90SAPE   C26 8767   4.376   2.342   0.109  0.0925 -0.3627  0.0394
   90SAPE   H6R 8768   4.409   2.443   0.139  0.4198  1.2815 -4.9072
   90SAPE   C27 8769   4.376   2.337  -0.043 -0.5118  0.2543  0.2986
   90SAPE   H7R 8770   4.380   2.230  -0.073  2.3515  0.7381 -1.3868
   90SAPE   H7S 8771   4.470   2.386  -0.077 -0.7677  0.5170 -0.0437
   90SAPE   C28 8772   4.261   2.404  -0.111  0.3754  0.7449 -0.8389
   90SAPE   H8R 8773   4.168   2.412  -0.052  0.9964 -2.1052  0.6752
   90SAPE   C29 8774   4.261   2.431  -0.235  0.5345 -0.0393  0.0875
   90SAPE   H9R 8775   4.167   2.470  -0.277  0.2686 -3.3593 -2.9476
   90SAPE  C210 8776   4.364   2.425  -0.343 -0.0510  0.3707 -0.0593
   90SAPE  H10R 8777   4.362   2.328  -0.396 -0.0847 -0.3400  1.2237
   90SAPE  H10S 8778   4.467   2.446  -0.306  0.6410  1.4245 -2.3872
   90SAPE  C211 8779   4.344   2.542  -0.437 -0.8262 -0.9811 -0.2844
   90SAPE  H11R 8780   4.380   2.642  -0.409  0.9136 -0.5476 -3.6319
   90SAPE  C212 8781   4.264   2.533  -0.544  0.0024  0.1644  0.5631
   90SAPE  H12R 8782   4.232   2.618  -0.607  1.6089 -1.3304 -2.4876
   90SAPE  C213 8783   4.200   2.402  -0.584 -0.2299 -0.2220  0.5533
   90SAPE  H13R 8784   4.145   2.368  -0.494 -0.1923  0.8152  0.9739
   90SAPE  H13S 8785   4.278   2.326  -0.608  0.3364 -0.0124  1.6797
   90SAPE  C214 8786   4.101   2.423  -0.702  0.2157 -0.1264  0.0284
   90SAPE  H14R 8787   3.999   2.444  -0.668 -0.2320 -0.1395 -1.2419
   90SAPE  C215 8788   4.127   2.433  -0.832  0.4292  0.2374 -0.7128
   90SAPE  H15R 8789   4.047   2.455  -0.904  1.4926  1.3603 -1.5739
   90SAPE  C216 8790   4.267   2.428  -0.889 -0.2068  0.1908  0.1943
   90SAPE  H16R 8791   4.342   2.453  -0.811 -0.1279 -1.2768  0.6138
   90SAPE  H16S 8792   4.281   2.514  -0.958 -2.4099  0.3318 -0.1726
   90SAPE  C217 8793   4.304   2.293  -0.962  0.0594 -0.2536  0.2631
   90SAPE  H17R 8794   4.285   2.209  -0.892 -0.5512 -0.9783 -0.7466
   90SAPE  H17S 8795   4.413   2.291  -0.984  0.6629 -0.8821  2.9242
   90SAPE  C218 8796   4.218   2.291  -1.089 -0.0929 -0.2058 -0.1362
   90SAPE  H18R 8797   4.239   2.383  -1.148 -2.2878  0.4297  0.0015
   90SAPE  H18S 8798   4.109   2.288  -1.067 -0.2061 -2.6386 -0.6865
   90SAPE  C219 8799   4.267   2.180  -1.197 -0.1420  0.0716 -0.4248
   90SAPE  H19R 8800   4.253   2.081  -1.149 -1.2023  1.8129  3.1745
   90SAPE  H19S 8801   4.374   2.205  -1.215 -0.2099  2.3485  1.8650
   90SAPE  C220 8802   4.204   2.194  -1.338  0.2876 -0.0165 -0.4568
   90SAPE  H20R 8803   4.238   2.288  -1.384 -0.5785 -0.5836 -2.3426
   90SAPE  H20S 8804   4.094   2.209  -1.334  0.4571  1.0100  0.8072
   90SAPE  H20T 8805   4.243   2.115  -1.406  4.0822  1.9125 -0.8221
   90SAPE   C33 8806   4.403   1.599   0.092  0.3623  0.3604  0.3645
   90SAPE   H3X 8807   4.317   1.538   0.058  0.5526  0.3303 -0.0736
   90SAPE   H3Y 8808   4.499   1.561   0.050 -0.5923 -1.0979 -0.5767
   90SAPE   C34 8809   4.383   1.742   0.047 -0.2055 -0.1203 -0.0265
   90SAPE   H4X 8810   4.462   1.813   0.078  0.9585 -1.8693  1.2279
   90SAPE   H4Y 8811   4.292   1.784   0.093  2.1976  3.6704  1.7441
   90SAPE   C35 8812   4.373   1.747  -0.109  0.2349  0.1863  0.1757
   90SAPE   H5X 8813   4.305   1.674  -0.158 -0.7690  0.2564  1.4169
   90SAPE   H5Y 8814   4.474   1.719  -0.146  0.9376 -2.8300  3.7758
   90SAPE   C36 8815   4.320   1.883  -0.152 -0.0075  0.3532 -0.1447
   90SAPE   H6X 8816   4.395   1.953  -0.111 -0.6672  0.1851  1.4180
   90SAPE   H6Y 8817   4.219   1.904  -0.110 -0.0254  2.2712 -1.0432
   90SAPE   C37 8818   4.336   1.893  -0.309  0.1033  0.1388 -0.5016
   90SAPE   H7X 8819   4.251   1.857  -0.370  0.4885  0.9216 -1.5264
   90SAPE   H7Y 8820   4.422   1.835  -0.347 -1.8985 -2.0888 -1.9143
   90SAPE   C38 8821   4.338   2.042  -0.357 -0.5231 -0.1228  0.1926
   90SAPE   H8X 8822   4.422   2.089  -0.304 -0.2099 -0.6744  0.1966
   90SAPE   H8Y 8823   4.244   2.097  -0.332 -0.1201  1.1910 -1.0591
   90SAPE   C39 8824   4.380   2.048  -0.509  0.4956 -0.5601  0.5873
   90SAPE   H9X 8825   4.296   2.097  -0.563  0.2223 -0.6334  0.9413
   90SAPE   H9Y 8826   4.374   1.938  -0.529 -2.2969 -0.7377  1.8345
   90SAPE  C310 8827   4.518   2.114  -0.547  0.6068 -0.3185  0.1238
   90SAPE  H10X 8828   4.604   2.053  -0.510  0.6926  0.5429  1.4049
   90SAPE  H10Y 8829   4.517   2.211  -0.493 -0.4543 -0.3759  0.2427
   90SAPE  C311 8830   4.539   2.134  -0.697 -0.1502  0.1600  0.1903
   90SAPE  H11X 8831   4.464   2.207  -0.736  1.1540  1.5338  0.1519
   90SAPE  H11Y 8832   4.508   2.035  -0.736  0.3499  0.5565 -1.2736
   90SAPE  C312 8833   4.673   2.177  -0.754 -0.1989 -0.2414 -0.0436
   90SAPE  H12X 8834   4.744   2.097  -0.726  1.5897  0.9188 -1.0467
   90SAPE  H12Y 8835   4.703   2.260  -0.686 -0.6085  0.0093 -0.1651
   90SAPE  C313 8836   4.684   2.208  -0.905  0.1356  0.1938 -0.0066
   90SAPE  H13X 8837   4.620   2.299  -0.915  0.5637  0.3242 -1.8819
   90SAPE  H13Y 8838   4.638   2.123  -0.960  2.4221 -1.2335  0.1564
   90SAPE  C314 8839   4.829   2.231  -0.947  0.0153  0.0959 -0.8949
   90SAPE  H14X 8840   4.839   2.246  -1.057 -0.1632  1.1982 -0.7655
   90SAPE  H14Y 8841   4.877   2.134  -0.921 -1.4769 -0.3833  0.2283
   90SAPE  C315 8842   4.888   2.354  -0.883 -0.5105  0.1549  0.4007
   90SAPE  H15X 8843   4.895   2.352  -0.772 -0.6113 -1.0910  0.3978
   90SAPE  H15Y 8844   4.807   2.427  -0.899 -2.1821 -1.4039  1.3967
   90SAPE  C316 8845   5.029   2.387  -0.939  0.5097  0.5973 -0.4442
   90SAPE  H16X 8846   5.107   2.308  -0.940  1.2606  1.1281  2.7178
   90SAPE  H16Y 8847   5.063   2.466  -0.869  0.0900 -0.6018  1.1859
   90SAPE  C317 8848   5.022   2.451  -1.083 -0.0920 -0.0996 -1.3370
   90SAPE  H17X 8849   4.989   2.379  -1.161 -1.6829 -0.1721 -0.6481
   90SAPE  H17Y 8850   5.127   2.480  -1.103  0.9516 -2.6043  0.0566
   90SAPE  C318 8851   4.928   2.575  -1.090 -1.0357 -0.2702 -0.1541
   90SAPE  H18X 8852   4.965   2.625  -1.181 -0.0656  1.7038  1.2483
   90SAPE  H18Y 8853   4.951   2.643  -1.005 -0.3180  1.9220 -2.0005
   90SAPE  H18Z 8854   4.823   2.539  -1.099 -1.2732  0.3401  0.1565
   91SAPE     N 8855   0.955   5.449   0.512  0.1306  0.4015  0.4896
   91SAPE   HN1 8856   0.871   5.469   0.454 -0.2364  2.4770  1.6435
   91SAPE   HN2 8857   1.017   5.387   0.456  1.8002  2.0846  0.3809
   91SAPE   HN3 8858   0.911   5.392   0.587 -0.2673 -0.1652 -0.1608
   91SAPE   C12 8859   1.033   5.569   0.561 -0.0977 -0.5000 -0.2956
   91SAPE  H12A 8860   1.077   5.615   0.470  0.0038 -0.1577 -0.0744
   91SAPE  H12B 8861   1.118   5.539   0.627 -0.4173 -0.1186  0.3034
   91SAPE   C11 8862   0.933   5.672   0.619  0.7327 -0.3910  0.0441
   91SAPE  H11A 8863   0.987   5.769   0.624 -1.3773  0.7869  1.6036
   91SAPE  H11B 8864   0.903   5.632   0.718 -0.9700  2.5356  0.8402
   91SAPE     P 8865   0.756   5.817   0.497 -0.5433  0.1701  0.1798
   91SAPE   O13 8866   0.614   5.805   0.456  0.0576  0.7606  0.0038
   91SAPE   O14 8867   0.774   5.917   0.604 -0.3220  0.2432  0.6731
   91SAPE   O12 8868   0.808   5.672   0.536  0.7325  0.0854 -0.7358
   91SAPE   O11 8869   0.843   5.855   0.372 -0.3504  0.1486 -0.1950
   91SAPE    C1 8870   0.781   5.829   0.241  0.2598 -0.1854 -0.0815
   91SAPE    HA 8871   0.759   5.721   0.232  0.8664 -0.3847  0.7477
   91SAPE    HB 8872   0.692   5.896   0.232  1.3569  1.2391 -0.7059
   91SAPE    C2 8873   0.885   5.870   0.133 -0.4446  0.1282 -0.1823
   91SAPE    HS 8874   0.911   5.977   0.148  1.5459 -0.5034  1.4408
   91SAPE   O21 8875   0.835   5.843   0.001 -0.0332 -0.0931 -0.7079
   91SAPE   C21 8876   0.873   5.931  -0.090  0.8931 -1.0867  0.2334
   91SAPE   O22 8877   0.938   6.033  -0.066  0.2251  0.0508 -0.3257
   91SAPE   C22 8878   0.816   5.905  -0.226  0.3344 -0.4965  0.3780
   91SAPE   H2R 8879   0.844   5.801  -0.256 -0.1378 -1.1960  2.2299
   91SAPE   H2S 8880   0.705   5.909  -0.223  0.0370  0.0447 -4.2403
   91SAPE    C3 8881   1.020   5.797   0.160 -0.4081  0.3924  0.1646
   91SAPE    HX 8882   1.059   5.813   0.263 -1.9066  0.3142  0.7763
   91SAPE    HY 8883   1.101   5.834   0.094 -0.1051 -3.6835 -2.0959
   91SAPE   O31 8884   1.002   5.656   0.140  0.5407 -0.3807  0.2435
   91SAPE   C31 8885   1.024   5.601   0.025  0.9099 -0.9337  0.2166
   91SAPE   O32 8886   1.091   5.657  -0.065  0.1238  0.5221 -0.3056
   91SAPE   C32 8887   0.942   5.474   0.007 -0.4686 -1.3113  0.5070
   91SAPE   H2X 8888   0.944   5.415   0.101 -0.8434 -1.9239  0.1360
   91SAPE   H2Y 8889   0.989   5.420  -0.079  2.8283  1.6980  0.1728
   91SAPE   C23 8890   0.854   6.011  -0.326  0.7916 -0.1889 -0.3544
   91SAPE   H3R 8891   0.962   6.007  -0.351  0.8790  0.5586 -0.1176
   91SAPE   H3S 8892   0.822   6.111  -0.290 -0.2929 -0.2255 -1.1488
   91SAPE   C24 8893   0.783   5.995  -0.460 -0.3694  0.0558  0.2628
   91SAPE   H4R 8894   0.809   6.087  -0.517 -0.1521 -0.1900 -0.0399
   91SAPE   H4S 8895   0.672   5.990  -0.457 -0.3505 -1.7588 -0.4208
   91SAPE   C25 8896   0.843   5.884  -0.546 -0.2383  0.3074 -0.3650
   91SAPE   H5R 8897   0.852   5.788  -0.494 -0.9842  0.4810  0.0934
   91SAPE   C26 8898   0.861   5.890  -0.682 -0.0560 -0.3122  0.3232
   91SAPE   H6R 8899   0.896   5.803  -0.739 -3.4597 -0.6433 -1.5229
   91SAPE   C27 8900   0.810   6.003  -0.775  0.4366  0.2577 -0.5249
   91SAPE   H7R 8901   0.728   6.060  -0.729  1.8175  2.3100 -0.4764
   91SAPE   H7S 8902   0.763   5.944  -0.857  0.6993 -0.6510 -0.0430
   91SAPE   C28 8903   0.916   6.096  -0.825 -0.5963 -0.3749 -0.5541
   91SAPE   H8R 8904   0.946   6.169  -0.749  1.7209 -0.3656 -1.3980
   91SAPE   C29 8905   0.979   6.108  -0.943 -0.4803  0.3647 -0.1144
   91SAPE   H9R 8906   1.057   6.185  -0.939  0.1911 -0.3059  3.6823
   91SAPE  C210 8907   0.967   5.999  -1.045 -0.3028  0.2357 -0.1224
   91SAPE  H10R 8908   0.869   5.947  -1.046 -0.1418 -0.0818 -2.1177
   91SAPE  H10S 8909   1.037   5.918  -1.017 -0.2382  0.7747  1.3893
   91SAPE  C211 8910   0.989   6.053  -1.182 -0.2847 -0.2596  0.4742
   91SAPE  H11R 8911   1.018   6.158  -1.192 -0.6787 -0.1595  0.3953
   91SAPE  C212 8912   1.000   5.978  -1.294  0.2774  0.4554 -0.3857
   91SAPE  H12R 8913   1.031   6.030  -1.385 -0.7316 -0.2132 -1.1285
   91SAPE  C213 8914   0.969   5.829  -1.304  0.2809 -0.1529  0.0545
   91SAPE  H13R 8915   0.863   5.819  -1.273 -0.4414  1.3624 -1.7505
   91SAPE  H13S 8916   1.033   5.772  -1.233 -0.6423 -4.5072 -2.3095
   91SAPE  C214 8917   0.991   5.773  -1.447  0.6301 -0.0574  0.5430
   91SAPE  H14R 8918   1.086   5.720  -1.461 -0.0766 -0.7565 -2.1987
   91SAPE  C215 8919   0.917   5.781  -1.556  0.4211 -0.3176  0.2695
   91SAPE  H15R 8920   0.945   5.735  -1.652 -1.6591  1.3581 -1.2422
   91SAPE  C216 8921   0.791   5.866  -1.566  0.2219 -0.0249  0.4866
   91SAPE  H16R 8922   0.804   5.925  -1.660 -2.5233  0.3503  0.2597
   91SAPE  H16S 8923   0.781   5.926  -1.473  0.7998 -0.1320  0.6200
   91SAPE  C217 8924   0.673   5.772  -1.577 -0.3423 -0.5447  0.1518
   91SAPE  H17R 8925   0.681   5.704  -1.490 -0.3462 -1.5160 -0.5882
   91SAPE  H17S 8926   0.679   5.707  -1.667  0.7422 -1.2824  0.7377
   91SAPE  C218 8927   0.538   5.842  -1.567  1.0116 -0.7649 -0.3505
   91SAPE  H18R 8928   0.465   5.816  -1.647 -0.8037  2.3006  0.1595
   91SAPE  H18S 8929   0.556   5.950  -1.587 -0.5620 -0.7113 -1.7111
   91SAPE  C219 8930   0.476   5.813  -1.429 -0.4500 -0.2313  0.1663
   91SAPE  H19R 8931   0.557   5.842  -1.359 -0.1843  0.4395 -0.4006
   91SAPE  H19S 8932   0.459   5.703  -1.422  2.4464 -0.8577 -1.0100
   91SAPE  C220 8933   0.348   5.892  -1.405 -0.3909  0.4073 -0.0901
   91SAPE  H20R 8934   0.325   5.901  -1.297 -0.6543  1.8242 -0.2432
   91SAPE  H20S 8935   0.259   5.850  -1.456  0.0861 -0.7971  0.0246
   91SAPE  H20T 8936   0.364   5.998  -1.435  2.8853  0.5827  1.7552
   91SAPE   C33 8937   0.798   5.497  -0.051 -0.5707  0.0741 -0.8893
   91SAPE   H3X 8938   0.755   5.584   0.002 -0.1151 -1.7539  2.7829
   91SAPE   H3Y 8939   0.732   5.416  -0.014  0.2707  0.5558  1.8652
   91SAPE   C34 8940   0.799   5.524  -0.203  0.4515  0.6160 -0.4936
   91SAPE   H4X 8941   0.890   5.582  -0.230 -0.0690  2.2545  1.0542
   91SAPE   H4Y 8942   0.701   5.573  -0.222 -0.0767 -1.1992 -2.9218
   91SAPE   C35 8943   0.795   5.393  -0.284 -0.4752  1.0785  0.0911
   91SAPE   H5X 8944   0.707   5.331  -0.258 -1.3982  0.6867 -3.4189
   91SAPE   H5Y 8945   0.885   5.332  -0.262 -1.1857 -0.9450 -2.1737
   91SAPE   C36 8946   0.797   5.416  -0.435  0.2995  0.2779  0.0937
   91SAPE   H6X 8947   0.705   5.478  -0.445  0.5058  0.4942 -0.5098
   91SAPE   H6Y 8948   0.791   5.321  -0.492  5.1845 -0.8934  1.0834
   91SAPE   C37 8949   0.910   5.484  -0.497 -0.2961  0.6855 -0.0070
   91SAPE   H7X 8950   0.935   5.578  -0.443 -2.0820  1.7578 -0.9522
   91SAPE   H7Y 8951   0.881   5.515  -0.599  0.7042  0.7109 -0.2852
   91SAPE   C38 8952   1.032   5.390  -0.517  0.0114  0.0025  0.1109
   91SAPE   H8X 8953   0.997   5.328  -0.603  0.5248  1.5625 -1.2665
   91SAPE   H8Y 8954   1.050   5.328  -0.426  1.4329  0.3834  0.1089
   91SAPE   C39 8955   1.148   5.476  -0.568  0.0775  0.5615 -0.5903
   91SAPE   H9X 8956   1.211   5.507  -0.481  2.9296 -0.9033 -1.9772
   91SAPE   H9Y 8957   1.110   5.570  -0.613  2.6359  1.4380 -1.0879
   91SAPE  C310 8958   1.253   5.417  -0.666  0.7507  0.1205 -0.7537
   91SAPE  H10X 8959   1.288   5.321  -0.621 -1.1191  0.2304  1.1262
   91SAPE  H10Y 8960   1.336   5.489  -0.683  1.0732  0.7865  2.7735
   91SAPE  C311 8961   1.192   5.384  -0.802 -0.1168 -0.3348 -0.3339
   91SAPE  H11X 8962   1.128   5.463  -0.846 -0.8989 -1.4516 -1.2564
   91SAPE  H11Y 8963   1.125   5.297  -0.782  1.9416 -1.4484  2.2820
   91SAPE  C312 8964   1.298   5.360  -0.905 -0.0288 -0.5029  0.2460
   91SAPE  H12X 8965   1.376   5.440  -0.905 -3.8270  3.5738 -0.6508
   91SAPE  H12Y 8966   1.265   5.377  -1.009  2.9821 -0.6441 -0.8409
   91SAPE  C313 8967   1.356   5.221  -0.897 -0.4983 -0.1879  0.4084
   91SAPE  H13X 8968   1.265   5.157  -0.894 -0.5566 -0.1031  0.4648
   91SAPE  H13Y 8969   1.410   5.213  -0.800  3.5574  2.1251 -1.3750
   91SAPE  C314 8970   1.435   5.185  -1.025 -0.5207 -0.5898  0.3774
   91SAPE  H14X 8971   1.520   5.256  -1.039  1.1620 -2.6605 -0.6224
   91SAPE  H14Y 8972   1.370   5.191  -1.114  1.2514 -1.5987 -1.0568
   91SAPE  C315 8973   1.498   5.051  -1.019 -0.0566 -0.5847 -0.2329
   91SAPE  H15X 8974   1.532   5.025  -0.916 -2.1993 -1.9079  0.2083
   91SAPE  H15Y 8975   1.588   5.044  -1.082  0.4892 -0.5059  0.5234
   91SAPE  C316 8976   1.390   4.942  -1.054 -0.6115  0.3674 -0.2097
   91SAPE  H16X 8977   1.338   4.964  -1.150 -0.1496  0.1667 -0.5089
   91SAPE  H16Y 8978   1.317   4.930  -0.971  3.0383 -1.4110  3.0105
   91SAPE  C317 8979   1.437   4.804  -1.048  0.7039  0.1931  0.6347
   91SAPE  H17X 8980   1.486   4.787  -0.950  2.0327  0.3084  0.0239
   91SAPE  H17Y 8981   1.506   4.769  -1.128  2.2063  1.1539  1.4616
   91SAPE  C318 8982   1.308   4.719  -1.059  0.1819  0.1042  0.3641
   91SAPE  H18X 8983   1.230   4.725  -0.980 -0.7950 -0.9644 -0.4843
   91SAPE  H18Y 8984   1.344   4.615  -1.075  1.6435  0.8866 -1.8496
   91SAPE  H18Z 8985   1.252   4.741  -1.152  2.0945  2.0522 -0.3876
   92SAPE     N 8986   3.210   1.717   0.378  0.2902  0.3259 -0.1386
   92SAPE   HN1 8987   3.171   1.805   0.417 -2.4525 -0.4792 -0.7991
   92SAPE   HN2 8988   3.303   1.734   0.335  0.3835  1.2302  0.4137
   92SAPE   HN3 8989   3.139   1.693   0.305 -0.6542  1.3380  0.4209
   92SAPE   C12 8990   3.225   1.630   0.495 -0.0903 -0.5102 -0.5691
   92SAPE  H12A 8991   3.140   1.653   0.562 -0.1074  1.9764 -1.3564
   92SAPE  H12B 8992   3.313   1.673   0.548  0.6721  0.1605 -2.2918
   92SAPE   C11 8993   3.248   1.484   0.473 -0.1318 -0.2849 -0.3475
   92SAPE  H11A 8994   3.274   1.430   0.567  0.8020 -1.0401 -1.0154
   92SAPE  H11B 8995   3.340   1.477   0.411  1.3702 -1.8433  1.8687
   92SAPE     P 8996   3.009   1.372   0.450  0.3292  0.2385  0.3346
   92SAPE   O13 8997   3.038   1.308   0.580  0.5147 -0.1220 -0.5027
   92SAPE   O14 8998   2.893   1.469   0.446 -0.0898 -0.4232  0.4650
   92SAPE   O12 8999   3.142   1.432   0.394  0.0761 -0.0925 -0.1482
   92SAPE   O11 9000   2.967   1.259   0.347  0.1828 -0.2658 -0.4269
   92SAPE    C1 9001   2.930   1.299   0.214 -0.5394  0.9326 -0.5194
   92SAPE    HA 9002   2.848   1.226   0.193 -2.6016  2.2465  2.2888
   92SAPE    HB 9003   2.898   1.405   0.204 -0.5544  0.9385 -0.4143
   92SAPE    C2 9004   3.055   1.279   0.120 -0.5220  0.7386  0.8463
   92SAPE    HS 9005   3.117   1.202   0.170 -0.4151  1.2839  1.5719
   92SAPE   O21 9006   3.134   1.403   0.102  0.7085 -0.1548 -0.3790
   92SAPE   C21 9007   3.264   1.386   0.095 -0.3561  0.6226 -1.0561
   92SAPE   O22 9008   3.327   1.285   0.116 -0.0177 -0.3403  0.0066
   92SAPE   C22 9009   3.326   1.521   0.052  0.5770 -0.4709 -0.6602
   92SAPE   H2R 9010   3.253   1.601   0.075  0.3785 -1.0039  0.6475
   92SAPE   H2S 9011   3.405   1.537   0.129 -0.5166 -0.3290  0.4627
   92SAPE    C3 9012   3.004   1.225  -0.021 -0.0047  0.2012  0.4284
   92SAPE    HX 9013   2.927   1.293  -0.065  2.1501  1.5192 -1.5476
   92SAPE    HY 9014   2.945   1.134   0.003  0.2277  0.5221  2.3199
   92SAPE   O31 9015   3.114   1.211  -0.116  0.4477 -0.1627  0.0196
   92SAPE   C31 9016   3.178   1.094  -0.093 -0.3572 -0.2790  0.0737
   92SAPE   O32 9017   3.140   1.005  -0.019  0.5371  0.1323  0.0757
   92SAPE   C32 9018   3.304   1.071  -0.182 -0.3435  0.5974 -1.1963
   92SAPE   H2X 9019   3.389   1.040  -0.116  0.5370 -0.4462 -2.7584
   92SAPE   H2Y 9020   3.335   1.171  -0.218  0.0043  2.0435  2.6277
   92SAPE   C23 9021   3.371   1.531  -0.095 -0.0368  0.1911  0.3811
   92SAPE   H3R 9022   3.279   1.573  -0.142 -2.2091 -1.1991  3.0765
   92SAPE   H3S 9023   3.381   1.429  -0.136 -3.0076  0.0721 -0.2667
   92SAPE   C24 9024   3.490   1.639  -0.120  0.0328 -0.6296 -0.0493
   92SAPE   H4R 9025   3.577   1.604  -0.060  0.6444  1.3611  0.3057
   92SAPE   H4S 9026   3.447   1.732  -0.076  0.2809 -0.7246  0.4063
   92SAPE   C25 9027   3.523   1.665  -0.269  0.8866  0.5337 -0.6179
   92SAPE   H5R 9028   3.517   1.771  -0.298  2.6106  0.9395  0.3988
   92SAPE   C26 9029   3.567   1.581  -0.368  0.4092 -0.0807 -0.4753
   92SAPE   H6R 9030   3.584   1.623  -0.468 -0.0101  1.5915  0.1138
   92SAPE   C27 9031   3.582   1.427  -0.353 -0.6479  0.2907 -0.4348
   92SAPE   H7R 9032   3.563   1.393  -0.248 -3.3101  0.2334 -0.8626
   92SAPE   H7S 9033   3.680   1.387  -0.387 -0.9221 -1.0624  0.2700
   92SAPE   C28 9034   3.464   1.363  -0.427  0.3488  0.2132  0.1717
   92SAPE   H8R 9035   3.365   1.349  -0.380 -1.2770  0.2172 -2.9782
   92SAPE   C29 9036   3.459   1.324  -0.557 -0.0827 -0.2454  0.7108
   92SAPE   H9R 9037   3.363   1.291  -0.598  0.7005 -0.5311 -0.9703
   92SAPE  C210 9038   3.570   1.332  -0.658  0.5761 -0.1078 -0.5746
   92SAPE  H10R 9039   3.667   1.346  -0.605 -0.2277  1.0163  0.6538
   92SAPE  H10S 9040   3.543   1.426  -0.711 -1.0008  0.4636  1.1697
   92SAPE  C211 9041   3.563   1.210  -0.749  0.0040  0.3412 -0.2730
   92SAPE  H11R 9042   3.625   1.129  -0.708 -0.9751 -0.0938  0.3690
   92SAPE  C212 9043   3.502   1.215  -0.871 -0.5190  0.1356 -0.4400
   92SAPE  H12R 9044   3.531   1.140  -0.946  0.4527 -0.3993  0.4489
   92SAPE  C213 9045   3.412   1.318  -0.925 -0.3488 -0.0586 -0.2525
   92SAPE  H13R 9046   3.452   1.365  -1.018 -1.4637 -0.8266 -1.1522
   92SAPE  H13S 9047   3.396   1.399  -0.851  0.2327  0.2648 -0.4689
   92SAPE  C214 9048   3.281   1.259  -0.965 -0.1999  0.4941  0.4309
   92SAPE  H14R 9049   3.220   1.221  -0.883  1.2056 -0.8850  0.8812
   92SAPE  C215 9050   3.231   1.254  -1.091  0.2707 -0.2633  0.2658
   92SAPE  H15R 9051   3.135   1.202  -1.104  0.7085 -1.0031 -0.0887
   92SAPE  C216 9052   3.313   1.296  -1.210 -0.2252 -0.3247 -0.8866
   92SAPE  H16R 9053   3.415   1.253  -1.199 -0.2690 -0.2223  0.0767
   92SAPE  H16S 9054   3.325   1.406  -1.213  0.8588 -0.3833  0.3352
   92SAPE  C217 9055   3.268   1.260  -1.355 -0.8774  0.3853 -0.1875
   92SAPE  H17R 9056   3.333   1.308  -1.432  0.7931  3.1036  2.6761
   92SAPE  H17S 9057   3.179   1.324  -1.375  0.0566  1.8400  0.0952
   92SAPE  C218 9058   3.267   1.107  -1.370 -0.2532 -0.8015 -0.3199
   92SAPE  H18R 9059   3.197   1.092  -1.455  0.2791  1.2676 -1.1995
   92SAPE  H18S 9060   3.226   1.066  -1.275  0.6470  2.3985  1.6114
   92SAPE  C219 9061   3.401   1.046  -1.409  0.1670  0.2787  0.1482
   92SAPE  H19R 9062   3.488   1.092  -1.356 -1.0974  1.7048  1.0674
   92SAPE  H19S 9063   3.422   1.065  -1.516  0.9160 -2.0883 -0.1679
   92SAPE  C220 9064   3.406   0.898  -1.375 -0.3930  0.1461 -0.4197
   92SAPE  H20R 9065   3.508   0.863  -1.403 -0.9153 -0.7551 -1.2281
   92SAPE  H20S 9066   3.335   0.843  -1.440  1.2189  1.0559 -3.1076
   92SAPE  H20T 9067   3.397   0.893  -1.265 -0.9624  1.5105 -0.3794
   92SAPE   C33 9068   3.279   0.973  -0.304 -0.3149  0.1896 -0.1850
   92SAPE   H3X 9069   3.183   0.921  -0.288  0.6760 -1.8494 -0.5298
   92SAPE   H3Y 9070   3.353   0.890  -0.308 -0.3947  0.1356 -0.6212
   92SAPE   C34 9071   3.264   1.041  -0.442 -0.3103 -0.0733  0.3359
   92SAPE   H4X 9072   3.349   1.105  -0.474 -0.0170 -0.9333 -0.6755
   92SAPE   H4Y 9073   3.168   1.096  -0.436  0.4406  1.2233  0.6563
   92SAPE   C35 9074   3.251   0.939  -0.556 -0.3142 -0.0489 -0.8776
   92SAPE   H5X 9075   3.161   0.873  -0.551 -1.0145  1.0000  2.0402
   92SAPE   H5Y 9076   3.334   0.865  -0.553  0.2218  0.5708 -0.2848
   92SAPE   C36 9077   3.272   1.006  -0.698  0.5076 -0.0031 -0.1586
   92SAPE   H6X 9078   3.380   0.998  -0.723  0.0256 -1.2516 -2.0462
   92SAPE   H6Y 9079   3.238   1.112  -0.693 -1.1476 -0.5180 -0.2420
   92SAPE   C37 9080   3.201   0.939  -0.818  0.1058  0.0122  0.1234
   92SAPE   H7X 9081   3.230   0.984  -0.916 -0.9059 -1.8527 -1.0831
   92SAPE   H7Y 9082   3.095   0.954  -0.791  1.0723  2.9459  2.9037
   92SAPE   C38 9083   3.241   0.785  -0.833  0.0434  0.4776  0.5815
   92SAPE   H8X 9084   3.236   0.730  -0.737 -4.2543  1.8090  1.3370
   92SAPE   H8Y 9085   3.343   0.777  -0.877 -1.0692 -0.9690 -1.9330
   92SAPE   C39 9086   3.149   0.713  -0.928  0.5390  0.6297 -0.6960
   92SAPE   H9X 9087   3.046   0.725  -0.886  1.3686 -0.4267  1.8650
   92SAPE   H9Y 9088   3.177   0.606  -0.919  1.7852  0.9085 -1.1344
   92SAPE  C310 9089   3.153   0.767  -1.072 -0.4019  0.2554 -0.1183
   92SAPE  H10X 9090   3.249   0.728  -1.111  0.3844  1.0199  0.9870
   92SAPE  H10Y 9091   3.151   0.878  -1.071 -2.0131  0.2693  1.8055
   92SAPE  C311 9092   3.030   0.706  -1.146  0.7847 -0.0093  0.3783
   92SAPE  H11X 9093   2.950   0.760  -1.091  0.4319 -0.9979  0.8762
   92SAPE  H11Y 9094   3.005   0.601  -1.120 -1.7710  0.4342  0.0061
   92SAPE  C312 9095   3.019   0.734  -1.296  0.5073 -0.2376 -0.0341
   92SAPE  H12X 9096   3.081   0.825  -1.312  0.1102  0.1462  0.6288
   92SAPE  H12Y 9097   2.911   0.753  -1.310  0.8454  1.6632 -0.2894
   92SAPE  C313 9098   3.076   0.633  -1.390  0.2024  0.9440  0.3949
   92SAPE  H13X 9099   3.178   0.630  -1.346  0.4642 -0.2379 -0.2255
   92SAPE  H13Y 9100   3.086   0.675  -1.493 -2.8219  0.8742  0.0056
   92SAPE  C314 9101   3.024   0.488  -1.394 -0.1079  0.3329 -0.1685
   92SAPE  H14X 9102   2.918   0.490  -1.428 -0.1756 -0.0891  0.0150
   92SAPE  H14Y 9103   3.016   0.450  -1.290 -0.8643  1.5256  0.2380
   92SAPE  C315 9104   3.124   0.397  -1.469  0.2660 -0.2953 -0.6610
   92SAPE  H15X 9105   3.207   0.387  -1.395  1.0275 -1.8816 -1.6913
   92SAPE  H15Y 9106   3.173   0.451  -1.553  0.3664  0.5676 -0.0660
   92SAPE  C316 9107   3.077   0.259  -1.513  0.3865  0.3655 -0.0892
   92SAPE  H16X 9108   3.153   0.190  -1.555 -0.3944 -0.2763 -0.4713
   92SAPE  H16Y 9109   2.996   0.264  -1.589  1.2706 -1.4495 -1.2076
   92SAPE  C317 9110   3.019   0.190  -1.387  0.1024  0.6306  0.2922
   92SAPE  H17X 9111   2.941   0.250  -1.337 -0.9465  0.3614 -0.9653
   92SAPE  H17Y 9112   3.090   0.170  -1.303  0.2259 -0.6518 -0.0906
   92SAPE  C318 9113   2.968   0.054  -1.428  0.5213 -0.3476 -0.3184
   92SAPE  H18X 9114   3.046  -0.011  -1.472  0.2682  0.4605 -2.0287
   92SAPE  H18Y 9115   2.884   0.053  -1.502 -0.5406 -0.1936  0.8466
   92SAPE  H18Z 9116   2.917   0.011  -1.340  1.6651 -3.3573 -1.0145
   93SAPE     N 9117   5.116   2.991   0.728 -0.1196  0.4682 -0.1012
   93SAPE   HN1 9118   5.122   3.082   0.778  1.2059 -0.6053  1.8106
   93SAPE   HN2 9119   5.046   2.930   0.774 -1.8262  2.8928  0.7453
   93SAPE   HN3 9120   5.203   2.934   0.730  0.4628  1.2616 -1.4030
   93SAPE   C12 9121   5.083   2.998   0.582 -0.1317 -0.4616  0.3636
   93SAPE  H12A 9122   5.067   2.893   0.548  1.4325 -0.9488  1.0272
   93SAPE  H12B 9123   5.179   3.020   0.531 -0.2554 -2.0701 -0.6360
   93SAPE   C11 9124   4.970   3.096   0.557  0.8104  0.6003 -0.1029
   93SAPE  H11A 9125   4.953   3.102   0.448  2.3165  0.0721 -0.4010
   93SAPE  H11B 9126   5.012   3.199   0.567  3.2135 -0.0639 -2.2155
   93SAPE     P 9127   4.761   3.146   0.719  0.3371 -0.1181 -0.0890
   93SAPE   O13 9128   4.623   3.091   0.727  0.1408 -0.0169  0.5050
   93SAPE   O14 9129   4.839   3.168   0.844 -0.2507  0.5136 -0.0049
   93SAPE   O12 9130   4.853   3.060   0.625 -0.0100  0.1712 -0.1823
   93SAPE   O11 9131   4.753   3.286   0.645  0.0419  0.3001 -0.0001
   93SAPE    C1 9132   4.631   3.328   0.594  0.2584 -0.3291 -0.2868
   93SAPE    HA 9133   4.550   3.334   0.669  0.6304 -1.2863  0.2015
   93SAPE    HB 9134   4.649   3.433   0.561 -3.5469  0.7942  0.8021
   93SAPE    C2 9135   4.593   3.258   0.462  0.4677  0.0839  0.0115
   93SAPE    HS 9136   4.621   3.151   0.465  0.8551  0.1951  1.9736
   93SAPE   O21 9137   4.659   3.319   0.352  0.5204  0.5494 -0.0741
   93SAPE   C21 9138   4.722   3.246   0.270  0.1462  0.1824  0.0803
   93SAPE   O22 9139   4.702   3.127   0.254 -0.1117 -0.0402  0.4219
   93SAPE   C22 9140   4.826   3.332   0.189  0.3205  0.0283  0.2055
   93SAPE   H2R 9141   4.819   3.314   0.080  1.0670 -0.0567  0.1645
   93SAPE   H2S 9142   4.815   3.440   0.213  1.0586  0.4894 -1.3939
   93SAPE    C3 9143   4.446   3.281   0.438  0.7870 -0.1343  0.2954
   93SAPE    HX 9144   4.431   3.386   0.407  1.4391  0.4717  1.9132
   93SAPE    HY 9145   4.396   3.268   0.537  2.5320 -0.4445  1.1734
   93SAPE   O31 9146   4.386   3.206   0.335 -0.2620 -0.2218  0.2888
   93SAPE   C31 9147   4.363   3.075   0.360  0.1547 -0.3257  0.0596
   93SAPE   O32 9148   4.359   3.028   0.471 -0.4195  0.3638 -0.1935
   93SAPE   C32 9149   4.337   2.993   0.233  0.3633  0.3374  0.0781
   93SAPE   H2X 9150   4.247   3.037   0.186  1.1867  1.1671 -0.7810
   93SAPE   H2Y 9151   4.313   2.888   0.258 -1.0868  0.4155 -0.8493
   93SAPE   C23 9152   4.976   3.308   0.233  0.2349 -0.5864 -0.7686
   93SAPE   H3R 9153   4.990   3.198   0.243 -1.1040 -0.6541  0.7488
   93SAPE   H3S 9154   4.985   3.350   0.335 -2.7164 -0.7554 -0.3551
   93SAPE   C24 9155   5.081   3.365   0.134 -0.6777  0.4522  0.2673
   93SAPE   H4R 9156   5.097   3.286   0.058 -2.0839  0.4912 -0.0878
   93SAPE   H4S 9157   5.182   3.366   0.180  0.7395  1.8442 -2.6345
   93SAPE   C25 9158   5.063   3.493   0.057  0.2264  0.2817  0.0056
   93SAPE   H5R 9159   5.065   3.580   0.124 -0.4339  1.0372 -0.9202
   93SAPE   C26 9160   5.059   3.500  -0.077 -0.4632 -0.4361  0.2498
   93SAPE   H6R 9161   5.048   3.603  -0.115 -1.8023  0.3568  2.6204
   93SAPE   C27 9162   5.078   3.389  -0.169 -1.0203  0.0309 -0.1039
   93SAPE   H7R 9163   5.024   3.303  -0.123  2.3150 -2.3437 -0.2631
   93SAPE   H7S 9164   5.187   3.371  -0.156 -1.0739 -0.7628 -0.6559
   93SAPE   C28 9165   5.035   3.414  -0.310  0.2423 -0.8390 -0.0099
   93SAPE   H8R 9166   4.995   3.510  -0.344  1.2339  0.0635  1.2981
   93SAPE   C29 9167   5.053   3.323  -0.409  0.1842 -0.5556  0.0917
   93SAPE   H9R 9168   5.011   3.347  -0.507  2.5693  0.9541 -0.6342
   93SAPE  C210 9169   5.116   3.189  -0.399  0.1758  0.0032 -0.6951
   93SAPE  H10R 9170   5.140   3.166  -0.293 -1.2431  0.7641 -0.1849
   93SAPE  H10S 9171   5.208   3.192  -0.461  0.5438 -0.5591 -0.1834
   93SAPE  C211 9172   5.028   3.078  -0.436 -0.6021  0.7625 -0.1306
   93SAPE  H11R 9173   4.980   3.025  -0.353  1.5528 -1.0080  0.0799
   93SAPE  C212 9174   5.026   3.020  -0.558  0.1922 -0.2257 -0.7388
   93SAPE  H12R 9175   4.978   2.922  -0.571 -0.3809  0.1680 -1.6883
   93SAPE  C213 9176   5.107   3.058  -0.672 -1.0211  0.3543 -0.3143
   93SAPE  H13R 9177   5.203   3.005  -0.654 -0.0632  2.1632  0.1077
   93SAPE  H13S 9178   5.138   3.164  -0.663 -2.0241  0.4623  3.1562
   93SAPE  C214 9179   5.048   3.027  -0.807 -0.2116 -0.0707 -0.2251
   93SAPE  H14R 9180   5.026   2.923  -0.836 -2.0132  0.1420  0.3140
   93SAPE  C215 9181   4.997   3.115  -0.894  0.1997 -0.8927 -0.5265
   93SAPE  H15R 9182   4.953   3.082  -0.989 -1.7622 -0.8408  0.3154
   93SAPE  C216 9183   4.994   3.264  -0.870  0.3811  0.4984 -0.2801
   93SAPE  H16R 9184   5.019   3.328  -0.957  1.1248  1.3794  0.5669
   93SAPE  H16S 9185   5.070   3.293  -0.794 -0.9034  0.8618  0.9051
   93SAPE  C217 9186   4.854   3.292  -0.817  0.2208 -0.8556 -0.0552
   93SAPE  H17R 9187   4.826   3.225  -0.733 -0.2106 -2.2987 -1.2911
   93SAPE  H17S 9188   4.778   3.275  -0.896 -0.5856  0.0189  0.5192
   93SAPE  C218 9189   4.834   3.440  -0.767  0.3277  0.6000 -0.2031
   93SAPE  H18R 9190   4.783   3.493  -0.850  1.9798  0.0566 -1.6257
   93SAPE  H18S 9191   4.933   3.487  -0.752  1.1391 -0.8970 -0.7197
   93SAPE  C219 9192   4.750   3.442  -0.633  0.2234  0.0385  0.0373
   93SAPE  H19R 9193   4.817   3.397  -0.556  0.5937  0.2073 -0.1848
   93SAPE  H19S 9194   4.655   3.386  -0.650 -0.1249  0.6627 -0.0790
   93SAPE  C220 9195   4.728   3.582  -0.578  0.7351  0.5278  0.2971
   93SAPE  H20R 9196   4.661   3.572  -0.490 -0.3744  1.7589 -0.3888
   93SAPE  H20S 9197   4.689   3.649  -0.657 -0.5004 -1.2417 -0.6649
   93SAPE  H20T 9198   4.828   3.617  -0.543  0.8055 -2.1105  3.1997
   93SAPE   C33 9199   4.441   2.995   0.119 -0.6511  0.3673  0.0633
   93SAPE   H3X 9200   4.540   2.971   0.164  0.2944  3.9021  0.1408
   93SAPE   H3Y 9201   4.448   3.103   0.093 -0.8176  0.7466  1.5611
   93SAPE   C34 9202   4.411   2.907  -0.004  0.2416  0.2533 -0.4251
   93SAPE   H4X 9203   4.405   2.802   0.033  0.2384  0.2750 -0.3635
   93SAPE   H4Y 9204   4.492   2.924  -0.077  0.9185  0.2118  0.2997
   93SAPE   C35 9205   4.286   2.952  -0.080 -0.1204 -0.9148 -0.0635
   93SAPE   H5X 9206   4.297   3.060  -0.107 -1.1705 -1.2342 -1.8783
   93SAPE   H5Y 9207   4.199   2.951  -0.012  0.4610 -0.1028  0.7216
   93SAPE   C36 9208   4.265   2.878  -0.213  0.4015 -0.3890  1.3654
   93SAPE   H6X 9209   4.260   2.768  -0.207  4.0337 -0.7093  1.0965
   93SAPE   H6Y 9210   4.359   2.892  -0.272 -0.3767 -0.2364  0.1282
   93SAPE   C37 9211   4.142   2.931  -0.291 -0.3878  0.1829  0.2704
   93SAPE   H7X 9212   4.163   3.040  -0.299  1.6963 -0.0641  1.5618
   93SAPE   H7Y 9213   4.045   2.921  -0.238 -0.7543 -0.7035 -0.5362
   93SAPE   C38 9214   4.105   2.876  -0.433 -0.4725  0.4755  0.5741
   93SAPE   H8X 9215   4.078   2.769  -0.423  0.7988  0.0603 -0.1823
   93SAPE   H8Y 9216   4.199   2.873  -0.493 -1.5692 -2.5701 -1.2046
   93SAPE   C39 9217   3.982   2.939  -0.509  0.4609 -0.0630 -0.0898
   93SAPE   H9X 9218   3.995   3.049  -0.501 -1.2754  0.1640  0.1202
   93SAPE   H9Y 9219   3.885   2.923  -0.457 -0.2120  1.7414 -0.7071
   93SAPE  C310 9220   3.960   2.876  -0.649  0.0398  0.3428 -0.1397
   93SAPE  H10X 9221   3.862   2.916  -0.679  0.0048  0.4424  0.1053
   93SAPE  H10Y 9222   3.962   2.767  -0.626  2.8906  0.5370  0.9556
   93SAPE  C311 9223   4.067   2.915  -0.754  0.4505 -0.2992 -0.4446
   93SAPE  H11X 9224   4.165   2.873  -0.723  0.4031 -0.4401 -0.4846
   93SAPE  H11Y 9225   4.076   3.026  -0.756  0.2845 -0.2906 -0.7595
   93SAPE  C312 9226   4.027   2.849  -0.884 -0.6008  0.8945 -0.5717
   93SAPE  H12X 9227   3.924   2.887  -0.903 -0.8651 -0.5395 -2.3427
   93SAPE  H12Y 9228   4.018   2.740  -0.864 -0.5056  1.1406  0.8627
   93SAPE  C313 9229   4.122   2.889  -0.994 -0.5381 -0.1619  0.6831
   93SAPE  H13X 9230   4.214   2.839  -0.958 -1.0982 -0.7842  1.2867
   93SAPE  H13Y 9231   4.138   2.998  -1.005 -2.0203  0.3869  3.2720
   93SAPE  C314 9232   4.078   2.832  -1.128 -0.2178  0.2470  0.3297
   93SAPE  H14X 9233   4.003   2.905  -1.166  0.5165  0.2442 -1.2210
   93SAPE  H14Y 9234   4.036   2.730  -1.124 -1.6841  0.5843 -2.9787
   93SAPE  C315 9235   4.190   2.819  -1.229 -0.2420  0.1042  0.3498
   93SAPE  H15X 9236   4.260   2.735  -1.209 -0.1733  0.2783  0.8370
   93SAPE  H15Y 9237   4.252   2.910  -1.222  1.1236 -0.7430 -0.3125
   93SAPE  C316 9238   4.133   2.813  -1.377 -0.2839  0.0396  0.1616
   93SAPE  H16X 9239   4.219   2.809  -1.447 -1.6329 -1.3003 -1.5169
   93SAPE  H16Y 9240   4.072   2.901  -1.408 -0.1988  0.4490  1.1131
   93SAPE  C317 9241   4.046   2.699  -1.406  0.6778 -0.1010 -0.0912
   93SAPE  H17X 9242   4.025   2.699  -1.515  2.2015 -0.7761 -0.4201
   93SAPE  H17Y 9243   3.944   2.708  -1.364  0.1430  0.9965 -1.5307
   93SAPE  C318 9244   4.089   2.566  -1.361  0.3982  0.9221  0.9108
   93SAPE  H18X 9245   4.197   2.550  -1.378  0.0708 -0.7253  0.2087
   93SAPE  H18Y 9246   4.021   2.493  -1.411  0.8174  0.2905  1.2488
   93SAPE  H18Z 9247   4.072   2.553  -1.252  0.3844 -0.6714  0.7420
   94SAPE     N 9248   4.517   0.657   0.877 -0.2634  0.0717 -0.2513
   94SAPE   HN1 9249   4.579   0.609   0.946 -2.1911  0.0582  1.5854
   94SAPE   HN2 9250   4.463   0.733   0.923  1.2204  1.3771 -0.5766
   94SAPE   HN3 9251   4.447   0.592   0.836  1.2232 -2.0055  0.3272
   94SAPE   C12 9252   4.588   0.732   0.770  0.3988  0.2849  0.0110
   94SAPE  H12A 9253   4.643   0.663   0.702 -2.0119 -2.1364  0.3319
   94SAPE  H12B 9254   4.663   0.795   0.821  0.9338 -0.2732 -0.0690
   94SAPE   C11 9255   4.488   0.816   0.685  0.1104  0.5745 -0.5890
   94SAPE  H11A 9256   4.429   0.743   0.625  1.1865 -0.6805 -0.1652
   94SAPE  H11B 9257   4.556   0.870   0.616  0.9306 -0.3588 -0.5168
   94SAPE     P 9258   4.439   1.048   0.799 -0.4260  0.3411  0.6520
   94SAPE   O13 9259   4.360   1.095   0.908 -0.1841  0.1802 -0.1311
   94SAPE   O14 9260   4.585   1.039   0.816 -0.1746 -0.0145  0.6082
   94SAPE   O12 9261   4.400   0.899   0.768 -0.7003  0.2930 -0.5715
   94SAPE   O11 9262   4.396   1.129   0.673  0.2980  0.2486 -0.2744
   94SAPE    C1 9263   4.471   1.129   0.554  0.0965 -0.0220 -0.7813
   94SAPE    HA 9264   4.527   1.223   0.535  1.4666 -0.9844 -1.7140
   94SAPE    HB 9265   4.559   1.060   0.551  0.5412  0.5434 -3.7433
   94SAPE    C2 9266   4.383   1.088   0.430  0.4049  0.2465  0.3012
   94SAPE    HS 9267   4.284   1.132   0.453 -0.8857 -1.9770 -0.7290
   94SAPE   O21 9268   4.364   0.946   0.424  0.1598  0.0002  0.0981
   94SAPE   C21 9269   4.242   0.902   0.410  0.2950  0.7294  0.2502
   94SAPE   O22 9270   4.142   0.965   0.387  0.4778 -0.4410  0.4225
   94SAPE   C22 9271   4.242   0.744   0.405  0.1915  0.5741 -0.1967
   94SAPE   H2R 9272   4.314   0.711   0.327  1.4757  1.1514  0.7181
   94SAPE   H2S 9273   4.274   0.708   0.505  0.2310 -0.0482 -0.4287
   94SAPE    C3 9274   4.445   1.141   0.296  0.4269  0.3481 -0.6668
   94SAPE    HX 9275   4.540   1.083   0.297  0.2311 -0.0126  1.3422
   94SAPE    HY 9276   4.468   1.249   0.290 -0.4526  0.4817 -2.3223
   94SAPE   O31 9277   4.364   1.097   0.190 -0.3338 -0.0484 -0.0555
   94SAPE   C31 9278   4.266   1.177   0.138 -0.2592  0.2342 -0.4615
   94SAPE   O32 9279   4.258   1.296   0.167 -0.1605 -0.5402  0.7542
   94SAPE   C32 9280   4.190   1.104   0.029  0.1496 -0.4665  0.4564
   94SAPE   H2X 9281   4.080   1.112   0.044 -0.0087 -0.1595 -0.7319
   94SAPE   H2Y 9282   4.209   0.995   0.037  0.2713 -0.3686  1.7675
   94SAPE   C23 9283   4.103   0.689   0.369 -0.2158 -0.2772  0.4608
   94SAPE   H3R 9284   4.028   0.750   0.423  0.4624  0.0464  1.0354
   94SAPE   H3S 9285   4.099   0.584   0.406  1.3729 -0.3920  0.3526
   94SAPE   C24 9286   4.074   0.689   0.216 -0.3761 -0.3518 -0.2605
   94SAPE   H4R 9287   4.147   0.615   0.177  1.3123  0.6069  0.9528
   94SAPE   H4S 9288   4.092   0.789   0.172 -1.9536  0.5749  1.0675
   94SAPE   C25 9289   3.937   0.625   0.183 -0.9867  0.1550 -0.0891
   94SAPE   H5R 9290   3.928   0.524   0.226 -1.9031  0.5044  0.5776
   94SAPE   C26 9291   3.829   0.685   0.120 -0.2197  0.4074  0.9542
   94SAPE   H6R 9292   3.732   0.633   0.114 -0.5098  1.1093 -1.7232
   94SAPE   C27 9293   3.832   0.831   0.071 -0.7114  0.4786 -0.1533
   94SAPE   H7R 9294   3.881   0.891   0.150  1.2205 -0.2789 -0.7123
   94SAPE   H7S 9295   3.732   0.877   0.060 -0.6364  0.4419 -1.0778
   94SAPE   C28 9296   3.912   0.856  -0.055  0.4962 -0.3449  0.5439
   94SAPE   H8R 9297   4.021   0.870  -0.048  0.4304  0.5384 -0.0906
   94SAPE   C29 9298   3.868   0.860  -0.183 -0.3042 -0.1698 -0.5199
   94SAPE   H9R 9299   3.946   0.883  -0.257 -0.6890 -0.1350 -0.9196
   94SAPE  C210 9300   3.725   0.838  -0.230  0.6633  0.0436  0.4886
   94SAPE  H10R 9301   3.653   0.801  -0.154 -2.1973 -1.8926 -2.8659
   94SAPE  H10S 9302   3.726   0.748  -0.296  0.3770  0.5121 -0.1655
   94SAPE  C211 9303   3.670   0.968  -0.295 -0.3988  0.7687 -0.0587
   94SAPE  H11R 9304   3.667   1.054  -0.227 -0.5630  2.1687 -1.7516
   94SAPE  C212 9305   3.641   0.987  -0.420  0.3271  0.2118  0.6290
   94SAPE  H12R 9306   3.603   1.085  -0.451 -0.5464  0.0253  1.0712
   94SAPE  C213 9307   3.646   0.886  -0.536  0.3587 -0.5090 -0.2702
   94SAPE  H13R 9308   3.585   0.937  -0.614  2.2360  1.3993 -0.5841
   94SAPE  H13S 9309   3.583   0.795  -0.524  1.9306 -1.7230 -0.8065
   94SAPE  C214 9310   3.780   0.849  -0.595  0.0435 -0.1579  0.8901
   94SAPE  H14R 9311   3.875   0.858  -0.540  1.9696  1.1535 -2.3161
   94SAPE  C215 9312   3.794   0.815  -0.725 -0.4323 -0.8163  0.0595
   94SAPE  H15R 9313   3.895   0.788  -0.759 -0.1458 -1.5354  1.3804
   94SAPE  C216 9314   3.680   0.812  -0.829 -0.3863 -0.4694  1.3033
   94SAPE  H16R 9315   3.610   0.897  -0.816  2.3785  2.1630  0.0518
   94SAPE  H16S 9316   3.639   0.709  -0.822  1.6278 -1.3832  0.3629
   94SAPE  C217 9317   3.736   0.824  -0.980 -0.1173  0.3869  0.2138
   94SAPE  H17R 9318   3.643   0.816  -1.039  0.3462  0.1604 -0.5044
   94SAPE  H17S 9319   3.791   0.730  -1.004 -1.5401  0.0669 -2.1824
   94SAPE  C218 9320   3.806   0.948  -1.029  0.0618 -0.4246  0.4805
   94SAPE  H18R 9321   3.856   1.001  -0.945  0.5367  0.2786 -0.2351
   94SAPE  H18S 9322   3.740   1.025  -1.074 -0.5318  0.6890  3.0645
   94SAPE  C219 9323   3.920   0.913  -1.124  0.3067  0.1812  0.9565
   94SAPE  H19R 9324   3.999   0.849  -1.078  2.9116  2.7872  0.3724
   94SAPE  H19S 9325   3.969   1.010  -1.147 -2.1207  1.4168  0.6421
   94SAPE  C220 9326   3.875   0.865  -1.260 -0.5815  0.0989 -0.0325
   94SAPE  H20R 9327   3.835   0.946  -1.325 -0.1034  1.8577  1.7846
   94SAPE  H20S 9328   3.808   0.777  -1.248  1.2707 -1.0969  2.2720
   94SAPE  H20T 9329   3.968   0.820  -1.300 -1.2530 -0.3813 -1.1233
   94SAPE   C33 9330   4.238   1.163  -0.105 -0.1450 -0.7767 -0.5508
   94SAPE   H3X 9331   4.342   1.130  -0.124  1.0434  1.6667  1.2300
   94SAPE   H3Y 9332   4.256   1.272  -0.100 -1.1787 -0.6283  0.4352
   94SAPE   C34 9333   4.152   1.127  -0.220  0.5055 -0.3814 -0.0248
   94SAPE   H4X 9334   4.043   1.131  -0.199  0.5954  1.4212  0.2075
   94SAPE   H4Y 9335   4.185   1.022  -0.233  1.9183 -0.0922  0.8938
   94SAPE   C35 9336   4.187   1.208  -0.345  0.3052 -0.8085 -0.1407
   94SAPE   H5X 9337   4.295   1.186  -0.360  0.8726  1.8774 -0.4862
   94SAPE   H5Y 9338   4.174   1.317  -0.326 -1.9376 -0.8228 -1.2991
   94SAPE   C36 9339   4.111   1.173  -0.469 -0.0458 -0.0097  0.1262
   94SAPE   H6X 9340   4.010   1.218  -0.467  0.0685  0.3476 -1.3221
   94SAPE   H6Y 9341   4.093   1.063  -0.468 -0.2371  0.0142  1.7106
   94SAPE   C37 9342   4.189   1.226  -0.593  0.3881  0.0198  0.1616
   94SAPE   H7X 9343   4.288   1.176  -0.607  0.3508  0.5383 -2.7540
   94SAPE   H7Y 9344   4.209   1.335  -0.583 -1.2891  0.2582  1.2492
   94SAPE   C38 9345   4.110   1.221  -0.722 -0.4169 -0.1161  0.3290
   94SAPE   H8X 9346   4.035   1.302  -0.722  0.9518  1.1943  0.1452
   94SAPE   H8Y 9347   4.061   1.122  -0.732 -0.7061 -0.0408  0.9278
   94SAPE   C39 9348   4.189   1.227  -0.854 -0.0637  0.4471  0.0641
   94SAPE   H9X 9349   4.276   1.159  -0.840  1.2580  2.0121 -0.3412
   94SAPE   H9Y 9350   4.223   1.331  -0.871  0.8636  0.1205 -0.1216
   94SAPE  C310 9351   4.119   1.181  -0.981  0.8161 -0.3981 -0.5371
   94SAPE  H10X 9352   4.055   1.263  -1.021  0.4251  0.3498  1.5264
   94SAPE  H10Y 9353   4.050   1.099  -0.951 -1.6424  1.5868 -0.4692
   94SAPE  C311 9354   4.216   1.146  -1.095 -0.0426 -0.2467 -0.2201
   94SAPE  H11X 9355   4.154   1.107  -1.179  1.7475  2.0735 -2.7917
   94SAPE  H11Y 9356   4.287   1.071  -1.055 -1.4640 -0.9033  1.1541
   94SAPE  C312 9357   4.293   1.269  -1.162 -0.5185 -0.4320  0.1700
   94SAPE  H12X 9358   4.346   1.235  -1.254  0.4849  1.4402  0.0186
   94SAPE  H12Y 9359   4.361   1.323  -1.094  0.4710 -0.5443 -0.6981
   94SAPE  C313 9360   4.191   1.364  -1.236  0.7601 -0.1390  0.0054
   94SAPE  H13X 9361   4.124   1.416  -1.164  2.8212  1.4936  0.8740
   94SAPE  H13Y 9362   4.125   1.311  -1.307  2.1254 -0.2132 -1.2562
   94SAPE  C314 9363   4.257   1.477  -1.330  0.0123  0.1915  0.4399
   94SAPE  H14X 9364   4.316   1.421  -1.406  3.0484  3.6737 -0.0726
   94SAPE  H14Y 9365   4.322   1.537  -1.263 -0.8726 -0.9597  2.3968
   94SAPE  C315 9366   4.153   1.561  -1.398  0.1971 -0.0788  0.2359
   94SAPE  H15X 9367   4.100   1.619  -1.319  0.0783 -0.9896  0.8375
   94SAPE  H15Y 9368   4.082   1.490  -1.445 -0.5514  0.8031 -0.0032
   94SAPE  C316 9369   4.194   1.656  -1.511 -0.0574 -0.1649 -0.4730
   94SAPE  H16X 9370   4.100   1.697  -1.554 -1.3534 -1.3093  1.1695
   94SAPE  H16Y 9371   4.255   1.593  -1.580  0.8560 -1.6630  1.5947
   94SAPE  C317 9372   4.283   1.772  -1.461  0.1635  0.3686 -0.0276
   94SAPE  H17X 9373   4.367   1.726  -1.404  1.0845  0.2150 -1.4785
   94SAPE  H17Y 9374   4.225   1.820  -1.378  1.0997 -1.2133  1.5912
   94SAPE  C318 9375   4.316   1.886  -1.557  0.8630  0.2895 -0.8997
   94SAPE  H18X 9376   4.354   1.841  -1.651 -0.6881 -1.9810 -0.5350
   94SAPE  H18Y 9377   4.389   1.955  -1.511  3.5866 -3.5278  1.1015
   94SAPE  H18Z 9378   4.226   1.938  -1.594  0.3141 -0.0029 -0.0193
   95SAPE     N 9379   2.678   2.888   0.479  0.2382  0.2211 -0.0784
   95SAPE   HN1 9380   2.626   2.934   0.556 -0.9399  0.1916 -0.8267
   95SAPE   HN2 9381   2.633   2.796   0.458 -0.4448  0.3534  0.7786
   95SAPE   HN3 9382   2.781   2.881   0.496  0.2507  2.0309  0.8052
   95SAPE   C12 9383   2.657   2.985   0.359  0.6304 -0.1662  0.4659
   95SAPE  H12A 9384   2.738   2.961   0.287 -0.7606  0.6915 -1.4746
   95SAPE  H12B 9385   2.681   3.089   0.391  3.3264 -0.5639 -0.0069
   95SAPE   C11 9386   2.516   2.978   0.313  0.1656 -0.0979  0.2015
   95SAPE  H11A 9387   2.496   2.869   0.305  0.8929 -0.2676  0.5879
   95SAPE  H11B 9388   2.499   3.026   0.214 -3.4485 -0.9498  0.2823
   95SAPE     P 9389   2.364   3.183   0.382  0.2078 -0.1491 -0.4158
   95SAPE   O13 9390   2.310   3.248   0.502 -0.2899  0.4155 -0.2674
   95SAPE   O14 9391   2.458   3.260   0.303 -0.0987 -0.2459  0.1891
   95SAPE   O12 9392   2.437   3.042   0.414  0.6288  0.3106 -0.4755
   95SAPE   O11 9393   2.240   3.134   0.296  0.3864 -0.2745 -0.0056
   95SAPE    C1 9394   2.134   3.229   0.262  0.2466  0.5620 -0.2448
   95SAPE    HA 9395   2.049   3.173   0.218  0.2356  1.3394 -1.2435
   95SAPE    HB 9396   2.107   3.284   0.354  0.1175 -1.0484  0.7061
   95SAPE    C2 9397   2.191   3.325   0.162  0.0831 -0.3588  0.4968
   95SAPE    HS 9398   2.281   3.373   0.205 -0.3863  2.1359 -1.1213
   95SAPE   O21 9399   2.091   3.427   0.129  0.6000  0.4052  0.1191
   95SAPE   C21 9400   2.094   3.525   0.213 -0.3537  0.4029  0.0823
   95SAPE   O22 9401   2.150   3.529   0.325  0.0831 -0.0362  0.3638
   95SAPE   C22 9402   2.029   3.649   0.151  0.2272  0.1432  0.3472
   95SAPE   H2R 9403   1.920   3.644   0.168  0.4052 -1.2624  1.2495
   95SAPE   H2S 9404   2.064   3.738   0.208  0.0620  1.0397 -0.8980
   95SAPE    C3 9405   2.236   3.250   0.035 -0.5233 -0.1113 -0.0197
   95SAPE    HX 9406   2.150   3.182   0.018  0.0021 -1.0568  0.9468
   95SAPE    HY 9407   2.323   3.183   0.049 -0.4247  0.0614  0.2175
   95SAPE   O31 9408   2.262   3.345  -0.072  0.9802 -0.0317 -0.4671
   95SAPE   C31 9409   2.296   3.288  -0.185  0.0004 -0.3562  0.4493
   95SAPE   O32 9410   2.298   3.167  -0.199  0.2476 -0.1063 -0.2963
   95SAPE   C32 9411   2.308   3.392  -0.292  0.0282 -0.7378  0.7866
   95SAPE   H2X 9412   2.292   3.496  -0.255 -1.9177 -1.0866  1.0489
   95SAPE   H2Y 9413   2.230   3.371  -0.368 -0.9407  0.5497  1.3870
   95SAPE   C23 9414   2.061   3.674   0.004  0.9125  0.6150 -0.4587
   95SAPE   H3R 9415   1.996   3.758  -0.029 -1.1481 -0.0554  1.6343
   95SAPE   H3S 9416   2.018   3.583  -0.044 -0.0709  0.3908  0.8167
   95SAPE   C24 9417   2.203   3.710  -0.038 -0.1421  0.2260  0.0244
   95SAPE   H4R 9418   2.201   3.745  -0.143  0.8532  0.7885  0.1874
   95SAPE   H4S 9419   2.272   3.624  -0.023 -0.7212  0.0947  2.3296
   95SAPE   C25 9420   2.265   3.827   0.038  0.9281  0.1065  0.3087
   95SAPE   H5R 9421   2.296   3.801   0.140  0.5683  0.7031  0.5732
   95SAPE   C26 9422   2.303   3.951  -0.006 -0.0367  0.1745 -0.1169
   95SAPE   H6R 9423   2.358   4.011   0.068  0.3501 -1.0166  0.6049
   95SAPE   C27 9424   2.279   3.988  -0.148  0.0652 -0.1584 -0.0209
   95SAPE   H7R 9425   2.172   4.015  -0.155  0.4602  1.7693  0.8607
   95SAPE   H7S 9426   2.310   3.914  -0.225 -1.0477  0.3319 -0.9623
   95SAPE   C28 9427   2.342   4.124  -0.169 -0.4289  0.3964  0.8562
   95SAPE   H8R 9428   2.392   4.174  -0.085 -1.0052  0.2301  1.3086
   95SAPE   C29 9429   2.340   4.192  -0.284 -0.1156 -0.4307  0.3279
   95SAPE   H9R 9430   2.396   4.287  -0.288 -1.9148  0.6270 -1.4948
   95SAPE  C210 9431   2.266   4.148  -0.408 -0.4479 -0.3471  0.2180
   95SAPE  H10R 9432   2.229   4.245  -0.447  3.0090  0.8806 -0.3798
   95SAPE  H10S 9433   2.174   4.088  -0.395 -1.0509  0.6303  0.6145
   95SAPE  C211 9434   2.357   4.077  -0.501 -0.3600  0.1648  1.3285
   95SAPE  H11R 9435   2.435   4.013  -0.457  1.0327 -0.9484 -2.3563
   95SAPE  C212 9436   2.325   4.058  -0.637 -0.1512  0.1321  0.0966
   95SAPE  H12R 9437   2.385   3.982  -0.688 -0.9933 -0.2462 -0.3561
   95SAPE  C213 9438   2.211   4.119  -0.709  0.2836  0.1514  1.0341
   95SAPE  H13R 9439   2.245   4.203  -0.774 -0.6585 -1.0161 -1.1017
   95SAPE  H13S 9440   2.133   4.153  -0.638 -2.4282  0.2296 -1.7326
   95SAPE  C214 9441   2.138   4.021  -0.804 -0.4699  0.0729 -0.1685
   95SAPE  H14R 9442   2.035   4.007  -0.768 -0.7977 -0.3179 -1.2117
   95SAPE  C215 9443   2.178   3.952  -0.911 -0.0828  0.5512  0.2346
   95SAPE  H15R 9444   2.100   3.893  -0.961  1.5826 -0.9526 -0.6758
   95SAPE  C216 9445   2.315   3.951  -0.972 -0.1959 -0.4369  0.4170
   95SAPE  H16R 9446   2.352   3.847  -0.961  1.4746 -0.0007 -0.7189
   95SAPE  H16S 9447   2.390   4.017  -0.923 -0.2458  0.3089 -0.4874
   95SAPE  C217 9448   2.310   3.984  -1.116  0.0687 -0.6728  0.2671
   95SAPE  H17R 9449   2.230   3.936  -1.176 -1.8174  1.0888  1.2676
   95SAPE  H17S 9450   2.399   3.947  -1.172  2.3745  0.2551  3.0932
   95SAPE  C218 9451   2.314   4.137  -1.146  0.1056  0.1347 -0.1911
   95SAPE  H18R 9452   2.417   4.171  -1.121  1.1209 -1.1987 -2.3376
   95SAPE  H18S 9453   2.240   4.173  -1.072  2.9945  2.8396  1.7010
   95SAPE  C219 9454   2.283   4.172  -1.288 -0.4790  0.0746 -0.1029
   95SAPE  H19R 9455   2.173   4.163  -1.305 -0.8626  2.2202  0.8266
   95SAPE  H19S 9456   2.336   4.109  -1.362  0.2921 -0.0442  0.5377
   95SAPE  C220 9457   2.315   4.320  -1.316 -0.7195 -0.1270  0.1666
   95SAPE  H20R 9458   2.272   4.358  -1.411  0.5100 -1.0225 -0.7794
   95SAPE  H20S 9459   2.425   4.331  -1.313 -0.6364 -1.0570  1.6504
   95SAPE  H20T 9460   2.278   4.380  -1.230 -0.7798 -0.2785  0.2470
   95SAPE   C33 9461   2.452   3.398  -0.357 -0.5421  0.7538  0.6019
   95SAPE   H3X 9462   2.470   3.308  -0.419 -1.6856  0.3983  0.7665
   95SAPE   H3Y 9463   2.521   3.377  -0.271  0.8809  1.4668 -0.3235
   95SAPE   C34 9464   2.501   3.523  -0.432  0.4682  0.0827 -0.1463
   95SAPE   H4X 9465   2.519   3.616  -0.374  0.5819  0.6637 -1.1036
   95SAPE   H4Y 9466   2.413   3.557  -0.490 -0.4847 -0.1907  1.0779
   95SAPE   C35 9467   2.612   3.484  -0.519 -0.2520 -0.8841  0.2105
   95SAPE   H5X 9468   2.678   3.401  -0.486 -0.2507 -0.9872 -0.0487
   95SAPE   H5Y 9469   2.671   3.579  -0.519 -1.5623 -0.0477  0.4578
   95SAPE   C36 9470   2.567   3.473  -0.666  0.3524 -0.5624  0.2079
   95SAPE   H6X 9471   2.528   3.564  -0.715 -1.2036 -0.1567  2.0578
   95SAPE   H6Y 9472   2.477   3.407  -0.664 -1.7859  2.1303 -1.2771
   95SAPE   C37 9473   2.680   3.416  -0.753 -0.3084  0.1696 -0.1628
   95SAPE   H7X 9474   2.710   3.320  -0.707  1.0021  0.8946  0.5604
   95SAPE   H7Y 9475   2.764   3.488  -0.746 -0.1514 -0.0806  0.5532
   95SAPE   C38 9476   2.640   3.383  -0.897  0.3738 -0.3283  0.2585
   95SAPE   H8X 9477   2.572   3.463  -0.934 -0.5239 -1.2949 -0.2203
   95SAPE   H8Y 9478   2.594   3.282  -0.898 -1.0160  0.2753  0.6627
   95SAPE   C39 9479   2.768   3.370  -0.978 -1.0422  0.9129  0.1046
   95SAPE   H9X 9480   2.820   3.279  -0.942 -1.4577  1.0072  0.9701
   95SAPE   H9Y 9481   2.832   3.461  -0.971  3.0189 -1.0897 -4.6917
   95SAPE  C310 9482   2.735   3.350  -1.126  0.5895  0.2986 -0.7170
   95SAPE  H10X 9483   2.699   3.438  -1.183 -0.2774  0.6148  0.3009
   95SAPE  H10Y 9484   2.656   3.272  -1.133 -0.9609  1.8154 -0.6986
   95SAPE  C311 9485   2.858   3.300  -1.204  0.2378  0.3301 -0.0489
   95SAPE  H11X 9486   2.896   3.207  -1.156 -0.5508 -0.6967 -1.3575
   95SAPE  H11Y 9487   2.940   3.374  -1.195  0.0332  0.3900  1.5516
   95SAPE  C312 9488   2.836   3.257  -1.358  0.1368 -0.1802  0.4741
   95SAPE  H12X 9489   2.762   3.175  -1.351  0.7024 -0.6252  1.4803
   95SAPE  H12Y 9490   2.935   3.218  -1.389 -0.1396  0.0109 -0.6942
   95SAPE  C313 9491   2.800   3.370  -1.448 -0.2642  0.1974  0.3638
   95SAPE  H13X 9492   2.875   3.453  -1.446 -0.4920  0.3926  0.7235
   95SAPE  H13Y 9493   2.709   3.407  -1.398 -1.6033 -0.6937 -1.3187
   95SAPE  C314 9494   2.764   3.325  -1.592 -0.2755  0.3505 -0.0477
   95SAPE  H14X 9495   2.683   3.250  -1.587  1.2547 -1.4259 -0.6741
   95SAPE  H14Y 9496   2.852   3.291  -1.650  0.0841  0.5268  0.3878
   95SAPE  C315 9497   2.719   3.438  -1.679 -0.1778 -0.6365  0.2732
   95SAPE  H15X 9498   2.796   3.517  -1.672  1.2603 -1.9982  0.3944
   95SAPE  H15Y 9499   2.622   3.483  -1.647  0.2590  1.6730 -1.3977
   95SAPE  C316 9500   2.696   3.385  -1.818  0.0700  0.8975 -0.4755
   95SAPE  H16X 9501   2.626   3.299  -1.823  1.2442 -0.1755  0.9276
   95SAPE  H16Y 9502   2.788   3.335  -1.856 -1.5002 -2.5506 -0.1188
   95SAPE  C317 9503   2.661   3.485  -1.922  0.5869 -0.1810  0.2940
   95SAPE  H17X 9504   2.675   3.441  -2.023 -2.0054  0.6979 -0.5376
   95SAPE  H17Y 9505   2.723   3.576  -1.907  0.0789 -0.2742  3.9569
   95SAPE  C318 9506   2.507   3.514  -1.916 -1.0016  0.4152 -0.7783
   95SAPE  H18X 9507   2.474   3.534  -1.811 -0.3504  1.0813 -0.6963
   95SAPE  H18Y 9508   2.445   3.427  -1.948 -1.1903 -0.2728  1.2909
   95SAPE  H18Z 9509   2.488   3.603  -1.979  0.5376 -0.4841 -2.6273
   96SAPE     N 9510   3.070   0.406   0.798 -0.2144  0.0236 -0.0913
   96SAPE   HN1 9511   3.016   0.483   0.753  0.0321  0.7628  0.8572
   96SAPE   HN2 9512   3.008   0.369   0.873 -2.8832  0.2425 -2.0408
   96SAPE   HN3 9513   3.152   0.443   0.849 -0.9770 -2.2857  3.1060
   96SAPE   C12 9514   3.106   0.299   0.696  0.9977 -0.8053  0.4074
   96SAPE  H12A 9515   3.017   0.293   0.630  0.4164  0.3012  1.0839
   96SAPE  H12B 9516   3.119   0.209   0.760 -0.1802 -0.0399  1.7474
   96SAPE   C11 9517   3.226   0.343   0.617 -0.4210 -0.1322 -0.3829
   96SAPE  H11A 9518   3.212   0.443   0.570 -1.1512  0.4585  1.0450
   96SAPE  H11B 9519   3.256   0.270   0.540  0.7213  0.7840 -0.8435
   96SAPE     P 9520   3.454   0.256   0.729 -0.1670  0.0195  0.1164
   96SAPE   O13 9521   3.546   0.307   0.836  0.1401 -0.9320  0.2334
   96SAPE   O14 9522   3.411   0.117   0.747  0.2699  0.0628  0.1256
   96SAPE   O12 9523   3.334   0.362   0.710 -0.0450  0.3969 -0.2792
   96SAPE   O11 9524   3.513   0.265   0.586  0.0204 -0.0412 -0.1745
   96SAPE    C1 9525   3.569   0.385   0.538  0.4150 -0.3541  0.1484
   96SAPE    HA 9526   3.499   0.442   0.474  1.3659  2.5031  1.4611
   96SAPE    HB 9527   3.592   0.452   0.624  0.3674 -0.2274  0.0626
   96SAPE    C2 9528   3.702   0.383   0.458 -0.2408  0.2649  0.3058
   96SAPE    HS 9529   3.748   0.484   0.449 -0.2685  0.1937 -0.7740
   96SAPE   O21 9530   3.671   0.324   0.333 -0.8787 -0.2552  0.2860
   96SAPE   C21 9531   3.611   0.403   0.241 -0.9380  0.4121 -0.3475
   96SAPE   O22 9532   3.565   0.515   0.260 -0.0594  0.6739  0.4473
   96SAPE   C22 9533   3.638   0.329   0.115 -0.0897  0.1082  0.2088
   96SAPE   H2R 9534   3.608   0.223   0.125 -2.7407  0.6832 -0.9935
   96SAPE   H2S 9535   3.563   0.378   0.050  0.1963  0.2772  0.0048
   96SAPE    C3 9536   3.806   0.292   0.518  0.0756 -0.4690  0.3378
   96SAPE    HX 9537   3.782   0.184   0.512 -0.0990 -0.3469 -2.0852
   96SAPE    HY 9538   3.833   0.318   0.623  3.5653  0.7146 -0.7378
   96SAPE   O31 9539   3.936   0.308   0.454  0.0529 -0.3089  0.1480
   96SAPE   C31 9540   4.015   0.204   0.439 -0.0033  0.3978  0.2406
   96SAPE   O32 9541   3.985   0.088   0.468 -0.5401  0.1506 -0.1896
   96SAPE   C32 9542   4.136   0.253   0.366 -0.5863 -0.0789 -0.1525
   96SAPE   H2X 9543   4.221   0.187   0.394  1.0431  1.5506 -1.0491
   96SAPE   H2Y 9544   4.160   0.358   0.393  1.9037 -0.2523 -1.4009
   96SAPE   C23 9545   3.779   0.327   0.056 -0.5007  0.0102  0.0143
   96SAPE   H3R 9546   3.848   0.279   0.129 -1.3275 -2.0141 -0.4698
   96SAPE   H3S 9547   3.821   0.429   0.043  0.0305 -0.3214 -0.9497
   96SAPE   C24 9548   3.792   0.236  -0.063  0.3579  0.2538  0.3760
   96SAPE   H4R 9549   3.701   0.255  -0.124 -0.0481 -1.9665  0.1918
   96SAPE   H4S 9550   3.783   0.127  -0.046  0.1905  0.1437 -0.3707
   96SAPE   C25 9551   3.920   0.254  -0.137  0.1537  0.6002 -0.0896
   96SAPE   H5R 9552   4.007   0.202  -0.093 -0.8385 -2.2300 -1.2552
   96SAPE   C26 9553   3.948   0.330  -0.244  0.2473  0.0224 -0.1153
   96SAPE   H6R 9554   4.045   0.328  -0.296  0.2149  2.0826 -0.3294
   96SAPE   C27 9555   3.841   0.400  -0.318 -0.1300  0.6461 -0.3348
   96SAPE   H7R 9556   3.762   0.434  -0.247 -1.9710 -3.3055 -0.2377
   96SAPE   H7S 9557   3.784   0.344  -0.394  0.3299  0.7202 -0.7387
   96SAPE   C28 9558   3.886   0.516  -0.398  0.2530 -0.0247 -0.0791
   96SAPE   H8R 9559   3.881   0.614  -0.349  0.6270 -1.3579  2.8280
   96SAPE   C29 9560   3.946   0.512  -0.516 -0.5379  0.5953 -0.3688
   96SAPE   H9R 9561   3.979   0.606  -0.561  0.8532 -0.4537 -1.6579
   96SAPE  C210 9562   3.964   0.389  -0.603 -0.9811  0.6124  0.2987
   96SAPE  H10R 9563   3.865   0.360  -0.644 -1.0439 -2.7648  2.4934
   96SAPE  H10S 9564   3.997   0.301  -0.544  0.9280 -0.6911 -2.4420
   96SAPE  C211 9565   4.066   0.398  -0.718  0.4422 -0.3208  0.0159
   96SAPE  H11R 9566   4.173   0.389  -0.693  0.5964 -3.8575 -1.3154
   96SAPE  C212 9567   4.034   0.435  -0.842 -0.0473  0.0646 -0.1618
   96SAPE  H12R 9568   4.115   0.432  -0.917  0.5547  2.7076  0.2895
   96SAPE  C213 9569   3.901   0.452  -0.906  0.0922  0.3586 -0.0819
   96SAPE  H13R 9570   3.847   0.543  -0.872 -0.3389 -0.2826  1.0065
   96SAPE  H13S 9571   3.835   0.365  -0.887 -2.3481  2.0021 -0.5049
   96SAPE  C214 9572   3.905   0.480  -1.057 -0.6733  0.7021 -0.3564
   96SAPE  H14R 9573   3.846   0.563  -1.099 -0.1893 -0.1381 -2.8391
   96SAPE  C215 9574   3.955   0.392  -1.147 -0.4120  0.0360  0.2086
   96SAPE  H15R 9575   3.962   0.420  -1.253 -0.3942  1.2325  0.5191
   96SAPE  C216 9576   4.032   0.255  -1.112  0.4014 -0.2209  0.5862
   96SAPE  H16R 9577   3.998   0.229  -1.010 -0.5606  0.4733  0.4594
   96SAPE  H16S 9578   4.141   0.263  -1.093  0.4186 -0.7737  0.7300
   96SAPE  C217 9579   3.985   0.139  -1.212 -0.4007 -0.4663  0.7268
   96SAPE  H17R 9580   4.039   0.047  -1.181  1.9965  0.6532  0.0878
   96SAPE  H17S 9581   3.999   0.164  -1.319 -1.2517 -1.1681  0.4393
   96SAPE  C218 9582   3.834   0.106  -1.194 -0.4151  0.1416  0.0229
   96SAPE  H18R 9583   3.785   0.193  -1.243 -1.1941  1.0649  2.3256
   96SAPE  H18S 9584   3.811   0.100  -1.086  0.0541  0.2241  0.1292
   96SAPE  C219 9585   3.779  -0.030  -1.248  0.4052  0.2158 -0.2670
   96SAPE  H19R 9586   3.674  -0.044  -1.212  0.5406  0.9803  0.4414
   96SAPE  H19S 9587   3.838  -0.113  -1.204 -1.6288  0.1435  2.5972
   96SAPE  C220 9588   3.782  -0.035  -1.397  0.3244  0.2372  0.3532
   96SAPE  H20R 9589   3.882  -0.018  -1.442 -0.3460  0.2098 -1.2244
   96SAPE  H20S 9590   3.721   0.038  -1.454  1.7729  1.4384  0.2737
   96SAPE  H20T 9591   3.755  -0.136  -1.435 -0.3183  0.9014 -1.0475
   96SAPE   C33 9592   4.130   0.234   0.213  0.3680  0.4874  0.5669
   96SAPE   H3X 9593   4.041   0.290   0.176 -1.6765 -1.9657  1.4160
   96SAPE   H3Y 9594   4.101   0.128   0.194 -0.5369  0.8942 -0.4773
   96SAPE   C34 9595   4.268   0.241   0.146  0.2596  0.2034 -0.0274
   96SAPE   H4X 9596   4.279   0.170   0.062  2.1008  0.4745 -0.0732
   96SAPE   H4Y 9597   4.343   0.210   0.222 -0.9152 -0.6976  0.7878
   96SAPE   C35 9598   4.308   0.378   0.083  0.5209 -1.1582 -0.3320
   96SAPE   H5X 9599   4.412   0.363   0.044 -0.2047 -1.1649 -2.4104
   96SAPE   H5Y 9600   4.322   0.459   0.158 -0.8538 -2.0543  0.9434
   96SAPE   C36 9601   4.226   0.437  -0.036 -0.5003  0.3487 -0.4729
   96SAPE   H6X 9602   4.121   0.457  -0.004 -0.9281  0.9333 -2.1765
   96SAPE   H6Y 9603   4.226   0.362  -0.118  0.0419 -0.7008  0.4557
   96SAPE   C37 9604   4.283   0.567  -0.079  0.0243  0.6804 -0.4103
   96SAPE   H7X 9605   4.393   0.557  -0.086  0.0553 -0.0422  0.7643
   96SAPE   H7Y 9606   4.246   0.630   0.005 -1.3716 -1.4790  0.6726
   96SAPE   C38 9607   4.234   0.617  -0.215 -0.2471  0.2180  0.5659
   96SAPE   H8X 9608   4.130   0.652  -0.197  0.2778  1.8531  0.5535
   96SAPE   H8Y 9609   4.245   0.532  -0.285  1.6681 -0.7919  2.0012
   96SAPE   C39 9610   4.316   0.746  -0.255 -0.0388  0.5238  0.3033
   96SAPE   H9X 9611   4.423   0.731  -0.231  0.0564  1.1015  0.2635
   96SAPE   H9Y 9612   4.285   0.821  -0.178  1.9528  1.2189  0.4827
   96SAPE  C310 9613   4.292   0.800  -0.400 -0.4444  0.2075 -0.4787
   96SAPE  H10X 9614   4.320   0.908  -0.394 -2.6784  0.7359  1.9258
   96SAPE  H10Y 9615   4.183   0.802  -0.420 -0.4026  0.0969 -0.7298
   96SAPE  C311 9616   4.376   0.720  -0.492 -0.1615 -0.1878 -0.5093
   96SAPE  H11X 9617   4.339   0.615  -0.487 -1.0791  0.0604 -1.8400
   96SAPE  H11Y 9618   4.478   0.727  -0.448 -0.0243  3.7752 -1.1265
   96SAPE  C312 9619   4.382   0.776  -0.638 -0.0391 -0.0367 -0.3702
   96SAPE  H12X 9620   4.466   0.725  -0.691 -1.2035 -1.8083 -0.5939
   96SAPE  H12Y 9621   4.408   0.883  -0.624  0.3205 -0.1927  0.1773
   96SAPE  C313 9622   4.245   0.763  -0.707 -0.0632 -0.1865 -0.4734
   96SAPE  H13X 9623   4.170   0.808  -0.639 -0.1189 -0.5558 -0.2871
   96SAPE  H13Y 9624   4.207   0.661  -0.731  1.3621 -1.0095  0.5905
   96SAPE  C314 9625   4.255   0.829  -0.843 -0.5514 -0.3260 -0.0790
   96SAPE  H14X 9626   4.258   0.937  -0.818  0.4799 -0.2477 -0.4742
   96SAPE  H14Y 9627   4.160   0.806  -0.896 -0.7314  1.1748 -0.4377
   96SAPE  C315 9628   4.361   0.759  -0.932 -0.7325  0.3193 -0.6887
   96SAPE  H15X 9629   4.368   0.650  -0.916  0.2343  0.2444 -1.6066
   96SAPE  H15Y 9630   4.457   0.806  -0.903 -1.0756  0.3113  0.5248
   96SAPE  C316 9631   4.328   0.789  -1.083  0.2303  0.1494  0.2128
   96SAPE  H16X 9632   4.401   0.858  -1.130  2.1329 -0.7303  1.7314
   96SAPE  H16Y 9633   4.228   0.834  -1.100  0.5338 -0.6170 -5.3511
   96SAPE  C317 9634   4.314   0.664  -1.169  0.2072 -0.0389  0.0074
   96SAPE  H17X 9635   4.246   0.695  -1.251  1.0288  1.0775 -0.2716
   96SAPE  H17Y 9636   4.261   0.580  -1.120  0.1121 -0.3786 -0.6780
   96SAPE  C318 9637   4.447   0.622  -1.241 -0.0574 -0.1859 -1.0050
   96SAPE  H18X 9638   4.469   0.696  -1.321  1.4499  0.2776 -0.1932
   96SAPE  H18Y 9639   4.451   0.515  -1.270 -0.9268 -0.8099  0.9825
   96SAPE  H18Z 9640   4.525   0.643  -1.165  0.3626  0.9171 -1.7206
   97SAPE     N 9641   5.550   2.766   1.176  0.6977  0.7124  0.3085
   97SAPE   HN1 9642   5.565   2.858   1.222 -0.4386 -0.0455  2.3333
   97SAPE   HN2 9643   5.462   2.787   1.125  1.1898  1.1364 -0.3853
   97SAPE   HN3 9644   5.535   2.689   1.244 -1.1708 -0.8581 -1.7289
   97SAPE   C12 9645   5.658   2.724   1.080  0.9489 -0.5779  0.1631
   97SAPE  H12A 9646   5.746   2.667   1.119  1.4748 -0.9979 -1.5469
   97SAPE  H12B 9647   5.699   2.819   1.038  1.9874 -1.8274 -1.8016
   97SAPE   C11 9648   5.611   2.642   0.956 -0.6461  0.4175 -0.4893
   97SAPE  H11A 9649   5.561   2.550   0.993 -1.3645  1.1834  0.4644
   97SAPE  H11B 9650   5.698   2.613   0.893 -0.8075  1.9122 -1.4467
   97SAPE     P 9651   5.371   2.721   0.887  0.3612 -0.0781  0.1772
   97SAPE   O13 9652   5.341   2.772   1.020  0.5930 -0.2255 -0.5752
   97SAPE   O14 9653   5.329   2.813   0.778 -0.3852  0.0387 -0.1611
   97SAPE   O12 9654   5.525   2.724   0.876  0.2618  0.0757 -0.1365
   97SAPE   O11 9655   5.335   2.578   0.855 -0.5091  0.3616 -0.0528
   97SAPE    C1 9656   5.285   2.540   0.726  0.3145  0.2590  0.4733
   97SAPE    HA 9657   5.195   2.476   0.732 -1.7829  2.4988 -3.4707
   97SAPE    HB 9658   5.245   2.618   0.659 -1.4906 -1.6124 -0.7629
   97SAPE    C2 9659   5.399   2.466   0.654 -0.4234 -0.0573 -0.2283
   97SAPE    HS 9660   5.485   2.537   0.651 -0.0830 -0.0994  3.5246
   97SAPE   O21 9661   5.343   2.420   0.530  0.2011 -0.5923  0.0769
   97SAPE   C21 9662   5.400   2.479   0.421  0.1350  0.4500  0.8242
   97SAPE   O22 9663   5.483   2.561   0.430  0.0859 -0.3004 -0.4610
   97SAPE   C22 9664   5.341   2.437   0.292  0.1672  0.3799 -0.0735
   97SAPE   H2R 9665   5.417   2.370   0.248  1.6542  2.9871 -1.7287
   97SAPE   H2S 9666   5.250   2.378   0.316 -1.1752  2.9540  1.7630
   97SAPE    C3 9667   5.441   2.349   0.753 -0.6355  0.0396 -0.0582
   97SAPE    HX 9668   5.352   2.287   0.780 -0.9102  0.2354 -0.5113
   97SAPE    HY 9669   5.487   2.408   0.835 -1.6503 -0.0378  0.5859
   97SAPE   O31 9670   5.523   2.245   0.692  0.4356  0.0669  0.3847
   97SAPE   C31 9671   5.657   2.258   0.707 -0.6272  0.1414 -0.2118
   97SAPE   O32 9672   5.713   2.359   0.752  0.2211 -0.0212  0.0166
   97SAPE   C32 9673   5.730   2.136   0.639  0.0170  0.0076 -0.4317
   97SAPE   H2X 9674   5.683   2.044   0.681 -1.0933  1.3807  1.4802
   97SAPE   H2Y 9675   5.839   2.142   0.662  0.8478 -5.1667 -1.7759
   97SAPE   C23 9676   5.291   2.547   0.190  0.4683 -0.3290 -0.1037
   97SAPE   H3R 9677   5.385   2.600   0.162  0.5667 -0.3749  0.1416
   97SAPE   H3S 9678   5.207   2.611   0.225 -0.3293 -2.1737  1.4736
   97SAPE   C24 9679   5.243   2.477   0.062  0.6912  0.2771  0.0569
   97SAPE   H4R 9680   5.153   2.418   0.088 -0.1377  0.5742 -1.9775
   97SAPE   H4S 9681   5.322   2.405   0.029 -0.9205 -1.4029 -0.2912
   97SAPE   C25 9682   5.210   2.585  -0.036  0.1677  0.4896 -0.1624
   97SAPE   H5R 9683   5.121   2.638  -0.002  0.5059  0.0072  1.5664
   97SAPE   C26 9684   5.269   2.612  -0.151 -0.4080  0.1984  0.3276
   97SAPE   H6R 9685   5.225   2.677  -0.228 -2.6565 -1.5902  0.0096
   97SAPE   C27 9686   5.369   2.522  -0.212  0.4835  0.3407  0.5123
   97SAPE   H7R 9687   5.441   2.475  -0.142 -1.0116 -1.7287  0.7431
   97SAPE   H7S 9688   5.437   2.582  -0.276 -0.6114 -0.7602 -1.7962
   97SAPE   C28 9689   5.293   2.415  -0.299  0.0390  0.6065 -0.4987
   97SAPE   H8R 9690   5.249   2.336  -0.237  0.6016  0.8038  0.1730
   97SAPE   C29 9691   5.291   2.405  -0.431  0.5285 -0.2957  0.0184
   97SAPE   H9R 9692   5.225   2.332  -0.480  1.7302  0.0382 -2.2342
   97SAPE  C210 9693   5.337   2.516  -0.527  0.1329 -0.3283 -0.2264
   97SAPE  H10R 9694   5.414   2.475  -0.597 -0.7761 -1.6136 -0.5130
   97SAPE  H10S 9695   5.376   2.605  -0.473 -0.4784 -0.7261  0.8898
   97SAPE  C211 9696   5.221   2.576  -0.606  0.2009 -0.3376 -0.1306
   97SAPE  H11R 9697   5.124   2.580  -0.555  0.9415  1.0997  1.2450
   97SAPE  C212 9698   5.229   2.628  -0.727 -0.1094 -0.2171  0.9216
   97SAPE  H12R 9699   5.137   2.678  -0.760 -0.2080 -0.3908  0.9270
   97SAPE  C213 9700   5.355   2.637  -0.810 -0.0910  0.5206 -0.4375
   97SAPE  H13R 9701   5.369   2.538  -0.860  0.6437 -0.5070  1.6922
   97SAPE  H13S 9702   5.447   2.657  -0.751  1.2472  0.6975 -2.4699
   97SAPE  C214 9703   5.328   2.734  -0.923  0.1814  0.4153 -0.3541
   97SAPE  H14R 9704   5.223   2.765  -0.925  0.2376  0.5624 -2.4890
   97SAPE  C215 9705   5.424   2.796  -0.992  0.6833 -0.1980  0.2394
   97SAPE  H15R 9706   5.393   2.882  -1.053  0.7503 -1.0775 -1.0582
   97SAPE  C216 9707   5.573   2.786  -0.972 -0.0902  0.6309  0.6196
   97SAPE  H16R 9708   5.598   2.697  -0.910 -1.1812 -0.7216 -0.7704
   97SAPE  H16S 9709   5.612   2.876  -0.922  0.2559  0.1471  1.2341
   97SAPE  C217 9710   5.654   2.759  -1.101 -0.6119 -0.1610  0.2276
   97SAPE  H17R 9711   5.761   2.763  -1.073 -0.4533 -1.3401 -0.1326
   97SAPE  H17S 9712   5.637   2.824  -1.190  2.7950  1.0924  0.3767
   97SAPE  C218 9713   5.635   2.611  -1.148  0.3716 -0.3517  0.2868
   97SAPE  H18R 9714   5.530   2.599  -1.182  0.6100 -0.5090 -0.3921
   97SAPE  H18S 9715   5.652   2.558  -1.052 -0.1179  1.3223  1.3492
   97SAPE  C219 9716   5.737   2.565  -1.257  0.2327  0.2620  0.0976
   97SAPE  H19R 9717   5.834   2.573  -1.204 -0.6577 -0.7037  1.9825
   97SAPE  H19S 9718   5.739   2.630  -1.347  0.9974 -0.3317 -0.3221
   97SAPE  C220 9719   5.719   2.423  -1.293 -1.1972  0.3803 -0.3344
   97SAPE  H20R 9720   5.664   2.414  -1.389  2.9227 -0.0451 -2.8908
   97SAPE  H20S 9721   5.665   2.369  -1.212  0.4341 -1.2452 -0.2673
   97SAPE  H20T 9722   5.818   2.379  -1.316  0.3996  3.9821 -0.9359
   97SAPE   C33 9723   5.719   2.125   0.490  0.7845  0.0469  0.6276
   97SAPE   H3X 9724   5.614   2.106   0.458  1.1074  0.0957 -0.5118
   97SAPE   H3Y 9725   5.775   2.035   0.454  0.5491  1.1135 -2.7458
   97SAPE   C34 9726   5.774   2.253   0.412 -0.0923 -0.0173 -0.3161
   97SAPE   H4X 9727   5.879   2.287   0.418 -1.0104  3.1461 -0.3957
   97SAPE   H4Y 9728   5.708   2.336   0.445  0.7307  0.8494 -0.8016
   97SAPE   C35 9729   5.738   2.234   0.259  0.2920  0.2316  0.0449
   97SAPE   H5X 9730   5.628   2.222   0.253  0.1009  0.9120  1.6912
   97SAPE   H5Y 9731   5.778   2.140   0.216 -0.7653 -0.5981  0.8249
   97SAPE   C36 9732   5.783   2.346   0.173 -0.2848 -0.2879 -0.4885
   97SAPE   H6X 9733   5.884   2.375   0.209 -1.0987  0.3010  1.4527
   97SAPE   H6Y 9734   5.707   2.428   0.181 -0.3801 -0.4222  0.0445
   97SAPE   C37 9735   5.800   2.309   0.023 -0.7177 -0.8138  0.1562
   97SAPE   H7X 9736   5.830   2.203   0.009 -0.6187 -1.1402  2.4191
   97SAPE   H7Y 9737   5.876   2.375  -0.024 -0.7903 -0.4712  0.5119
   97SAPE   C38 9738   5.678   2.324  -0.065 -0.5438  0.3276  0.1536
   97SAPE   H8X 9739   5.656   2.430  -0.088  4.0183  1.0231 -2.0082
   97SAPE   H8Y 9740   5.588   2.283  -0.014 -1.4877 -0.2249 -1.8416
   97SAPE   C39 9741   5.684   2.256  -0.209 -0.7786  0.2191 -0.2259
   97SAPE   H9X 9742   5.582   2.221  -0.234 -1.3681  0.3732  1.8373
   97SAPE   H9Y 9743   5.755   2.170  -0.198  2.1047  2.6437  1.7027
   97SAPE  C310 9744   5.740   2.349  -0.320  0.1873  0.2526  0.0850
   97SAPE  H10X 9745   5.837   2.394  -0.291 -0.2737 -0.8073  3.8018
   97SAPE  H10Y 9746   5.670   2.431  -0.348 -1.0154 -1.5538 -2.5935
   97SAPE  C311 9747   5.763   2.268  -0.451 -0.1473  0.2272 -0.1290
   97SAPE  H11X 9748   5.661   2.238  -0.484 -0.0605  0.4119 -0.5691
   97SAPE  H11Y 9749   5.823   2.176  -0.437  0.7791  0.7319 -0.7370
   97SAPE  C312 9750   5.808   2.366  -0.562 -0.1610  0.4012 -0.5314
   97SAPE  H12X 9751   5.910   2.396  -0.532 -0.2924  0.2005  0.1269
   97SAPE  H12Y 9752   5.745   2.456  -0.550 -0.0602  0.4090 -0.0429
   97SAPE  C313 9753   5.795   2.309  -0.698  0.0045 -0.5209  0.5537
   97SAPE  H13X 9754   5.693   2.266  -0.700  0.3048 -1.2942  1.2339
   97SAPE  H13Y 9755   5.870   2.229  -0.717  0.4938  0.2105 -0.7726
   97SAPE  C314 9756   5.837   2.408  -0.811 -0.2438  0.1699 -0.1196
   97SAPE  H14X 9757   5.943   2.437  -0.797  0.1733 -0.6718 -1.3841
   97SAPE  H14Y 9758   5.774   2.499  -0.805  0.9519  1.0041 -0.0460
   97SAPE  C315 9759   5.816   2.338  -0.950  0.2811 -0.3371  0.4613
   97SAPE  H15X 9760   5.810   2.416  -1.029 -0.7302 -1.5766 -0.7409
   97SAPE  H15Y 9761   5.715   2.291  -0.949  0.9588 -2.0069 -1.7794
   97SAPE  C316 9762   5.922   2.223  -0.985  0.2326 -0.3763  0.3286
   97SAPE  H16X 9763   5.879   2.130  -0.940  0.1336  0.3182  1.7057
   97SAPE  H16Y 9764   6.014   2.248  -0.929  0.1859 -0.8892  0.6456
   97SAPE  C317 9765   5.951   2.203  -1.130  0.0776  0.2433  0.6221
   97SAPE  H17X 9766   5.969   2.304  -1.174  0.7203  0.5455  1.5580
   97SAPE  H17Y 9767   5.865   2.150  -1.177  0.4882  0.4141 -0.3474
   97SAPE  C318 9768   6.086   2.137  -1.159  0.4778 -0.1563  0.3010
   97SAPE  H18X 9769   6.163   2.190  -1.098  0.1750  0.5694  0.0548
   97SAPE  H18Y 9770   6.113   2.152  -1.265  2.1319 -0.7432  0.5978
   97SAPE  H18Z 9771   6.082   2.027  -1.138 -1.2471  0.0071  0.9746
   98SAPE     N 9772   4.229   5.589   0.546 -0.1403  0.2032 -0.0224
   98SAPE   HN1 9773   4.201   5.503   0.495 -0.7521  1.0096 -1.0805
   98SAPE   HN2 9774   4.176   5.674   0.517  1.2169  1.3179  0.6286
   98SAPE   HN3 9775   4.329   5.608   0.527  0.0767 -1.3865 -0.5889
   98SAPE   C12 9776   4.214   5.554   0.692  0.3678 -0.7690  0.4270
   98SAPE  H12A 9777   4.106   5.530   0.696 -0.6752  2.2571 -3.4546
   98SAPE  H12B 9778   4.247   5.636   0.759 -0.4425 -0.5227  0.5340
   98SAPE   C11 9779   4.294   5.427   0.728  0.3564 -0.7734 -0.2367
   98SAPE  H11A 9780   4.317   5.419   0.836 -0.6456  0.5736  0.1088
   98SAPE  H11B 9781   4.396   5.437   0.686  0.9947  0.3803  1.5066
   98SAPE     P 9782   4.287   5.169   0.733 -0.3834 -0.2611  0.1023
   98SAPE   O13 9783   4.404   5.208   0.819  0.9615 -0.4322 -0.0955
   98SAPE   O14 9784   4.179   5.085   0.794  0.4519  0.3707  0.2807
   98SAPE   O12 9785   4.240   5.309   0.673  0.1954 -0.5640 -0.0659
   98SAPE   O11 9786   4.352   5.095   0.619  0.0793  0.4140  0.4618
   98SAPE    C1 9787   4.457   5.146   0.536 -0.7273 -0.1356  0.4398
   98SAPE    HA 9788   4.446   5.255   0.514  0.2076  0.0802  0.9642
   98SAPE    HB 9789   4.556   5.125   0.582  0.0854 -0.2918 -1.2840
   98SAPE    C2 9790   4.467   5.077   0.395 -0.1273  0.6507  0.1294
   98SAPE    HS 9791   4.539   5.136   0.334  1.1445 -2.0882 -1.2094
   98SAPE   O21 9792   4.329   5.088   0.336 -0.5796  0.2383 -0.3631
   98SAPE   C21 9793   4.330   5.088   0.208 -0.1721  0.5627  1.0266
   98SAPE   O22 9794   4.429   5.098   0.133 -0.3311 -0.1954  0.1496
   98SAPE   C22 9795   4.186   5.070   0.152  0.0659  0.2074 -0.0345
   98SAPE   H2R 9796   4.118   5.061   0.239  0.8846 -2.9006  0.4215
   98SAPE   H2S 9797   4.163   5.159   0.090 -0.4763  0.1429  0.0712
   98SAPE    C3 9798   4.510   4.933   0.417 -0.6651  1.1104  0.3655
   98SAPE    HX 9799   4.423   4.884   0.465  1.6706 -1.2309  2.4796
   98SAPE    HY 9800   4.595   4.919   0.486  0.2215  2.8704 -0.2924
   98SAPE   O31 9801   4.561   4.884   0.295  0.1755  0.2042  0.3344
   98SAPE   C31 9802   4.495   4.782   0.238  0.5029 -0.3890 -0.6485
   98SAPE   O32 9803   4.392   4.729   0.284  0.3921 -0.1988  0.4106
   98SAPE   C32 9804   4.565   4.735   0.118 -0.5141  0.8206  0.6668
   98SAPE   H2X 9805   4.582   4.626   0.102  0.3995  0.8701  1.2068
   98SAPE   H2Y 9806   4.667   4.779   0.118 -0.1640  0.1176 -1.1790
   98SAPE   C23 9807   4.159   4.938   0.074 -0.0803 -0.5158 -0.3302
   98SAPE   H3R 9808   4.187   4.862   0.150  2.4591  0.6582  0.0337
   98SAPE   H3S 9809   4.243   4.921   0.002  0.1916 -0.2410 -0.0838
   98SAPE   C24 9810   4.014   4.917   0.025 -0.5590 -0.0136  0.2930
   98SAPE   H4R 9811   3.994   5.007  -0.036 -1.5799  0.4521  1.2667
   98SAPE   H4S 9812   3.964   4.923   0.125  1.0908  0.9839  1.1026
   98SAPE   C25 9813   3.972   4.792  -0.047  0.3397  0.2434  0.6465
   98SAPE   H5R 9814   3.950   4.702   0.012  0.1135 -1.0166 -1.2506
   98SAPE   C26 9815   3.961   4.776  -0.182  0.9184 -0.1889  0.5254
   98SAPE   H6R 9816   3.941   4.674  -0.217  0.8781  0.1334 -0.4296
   98SAPE   C27 9817   3.985   4.878  -0.290  0.7899 -0.4515  0.2356
   98SAPE   H7R 9818   3.935   4.975  -0.269 -2.0833 -1.6333 -0.6552
   98SAPE   H7S 9819   3.926   4.848  -0.380  1.5141 -0.2559 -0.3151
   98SAPE   C28 9820   4.126   4.889  -0.323 -0.0016  0.1419 -0.2862
   98SAPE   H8R 9821   4.195   4.944  -0.258  1.9640 -1.5477 -0.8529
   98SAPE   C29 9822   4.183   4.834  -0.431 -0.1861 -0.1421 -0.6421
   98SAPE   H9R 9823   4.290   4.856  -0.443 -0.2088  2.1981  2.1045
   98SAPE  C210 9824   4.099   4.758  -0.531 -0.0460  0.7260 -0.0196
   98SAPE  H10R 9825   4.015   4.810  -0.582 -0.4732 -0.4019 -0.5192
   98SAPE  H10S 9826   4.044   4.677  -0.478  0.8613 -1.1751 -1.8233
   98SAPE  C211 9827   4.178   4.688  -0.643 -0.6868  0.4444 -0.0308
   98SAPE  H11R 9828   4.246   4.614  -0.599 -1.6251 -1.3230 -1.4069
   98SAPE  C212 9829   4.169   4.691  -0.780  0.1905  0.9529  0.3065
   98SAPE  H12R 9830   4.256   4.650  -0.833  0.2129  3.0562 -1.4733
   98SAPE  C213 9831   4.074   4.775  -0.865 -0.4608 -0.1597  0.1062
   98SAPE  H13R 9832   4.007   4.844  -0.810  0.3163  3.4308 -3.0349
   98SAPE  H13S 9833   3.991   4.719  -0.913 -0.4959  1.4164 -1.8016
   98SAPE  C214 9834   4.144   4.869  -0.956  0.1733 -0.4053 -0.2860
   98SAPE  H14R 9835   4.138   4.974  -0.923 -1.9003 -0.4930 -0.2404
   98SAPE  C215 9836   4.197   4.849  -1.080 -0.2757  0.3053 -0.8390
   98SAPE  H15R 9837   4.226   4.941  -1.135  1.3627  1.3292  1.5502
   98SAPE  C216 9838   4.213   4.715  -1.147  0.2170 -1.0641  0.1116
   98SAPE  H16R 9839   4.171   4.632  -1.086 -0.0807 -1.4555 -0.6150
   98SAPE  H16S 9840   4.322   4.697  -1.152  0.8305  1.9271  0.8780
   98SAPE  C217 9841   4.152   4.719  -1.288 -0.1450  0.1379  0.3480
   98SAPE  H17R 9842   4.180   4.816  -1.334  0.1588  0.9284  2.1013
   98SAPE  H17S 9843   4.041   4.714  -1.282 -0.2393 -1.4798 -1.7076
   98SAPE  C218 9844   4.197   4.599  -1.378 -0.0820  0.1845  0.0488
   98SAPE  H18R 9845   4.211   4.509  -1.315 -0.2352  1.1066  1.4357
   98SAPE  H18S 9846   4.298   4.624  -1.416 -0.8573  1.6907 -1.1691
   98SAPE  C219 9847   4.102   4.567  -1.497  0.6757 -0.8331 -0.2783
   98SAPE  H19R 9848   4.059   4.663  -1.531 -1.4853 -1.0399  1.5757
   98SAPE  H19S 9849   4.017   4.508  -1.456 -0.0210  1.5791  2.0289
   98SAPE  C220 9850   4.163   4.482  -1.609  0.0828  0.0179 -0.1764
   98SAPE  H20R 9851   4.237   4.541  -1.667 -1.2929  0.9202 -1.0668
   98SAPE  H20S 9852   4.094   4.452  -1.690  2.7553 -1.0877 -2.1959
   98SAPE  H20T 9853   4.215   4.391  -1.572  0.5847  0.2896 -0.2065
   98SAPE   C33 9854   4.486   4.787  -0.011 -0.0128 -0.0634  0.6708
   98SAPE   H3X 9855   4.480   4.898  -0.010 -0.6259 -0.0970  1.0488
   98SAPE   H3Y 9856   4.386   4.748  -0.037  0.6290  0.2289 -2.6962
   98SAPE   C34 9857   4.565   4.757  -0.148 -0.1284  0.5280 -0.4870
   98SAPE   H4X 9858   4.554   4.648  -0.165 -1.3169  0.6500 -0.6068
   98SAPE   H4Y 9859   4.669   4.797  -0.145  0.0968 -0.0960  0.4073
   98SAPE   C35 9860   4.517   4.833  -0.265 -0.4246 -0.6113  0.1036
   98SAPE   H5X 9861   4.493   4.937  -0.234  0.1715 -0.1370 -0.9708
   98SAPE   H5Y 9862   4.425   4.781  -0.301 -0.9466  0.8353 -0.7238
   98SAPE   C36 9863   4.617   4.826  -0.383  1.2123 -0.2504 -0.0018
   98SAPE   H6X 9864   4.640   4.718  -0.390  0.8749 -0.2715 -0.8887
   98SAPE   H6Y 9865   4.713   4.881  -0.368  1.1230  0.1514 -0.8216
   98SAPE   C37 9866   4.554   4.865  -0.523 -0.4223  0.1317 -0.7122
   98SAPE   H7X 9867   4.507   4.965  -0.513  0.8897  0.5710  2.2740
   98SAPE   H7Y 9868   4.475   4.790  -0.542 -0.4591 -0.3758  1.2276
   98SAPE   C38 9869   4.654   4.861  -0.642  0.3982 -0.2835 -0.2497
   98SAPE   H8X 9870   4.714   4.771  -0.615 -0.1282 -0.5586  0.0294
   98SAPE   H8Y 9871   4.718   4.952  -0.646 -0.4717  0.2986 -1.5184
   98SAPE   C39 9872   4.588   4.833  -0.780  0.5707  0.7046 -0.1048
   98SAPE   H9X 9873   4.502   4.903  -0.794 -1.4937 -1.6384  0.2679
   98SAPE   H9Y 9874   4.555   4.728  -0.772  0.7093  0.8255  3.5431
   98SAPE  C310 9875   4.689   4.833  -0.896  0.2840 -0.3208  0.0730
   98SAPE  H10X 9876   4.784   4.782  -0.869  1.2256  1.0013 -0.6322
   98SAPE  H10Y 9877   4.719   4.938  -0.917  2.0890 -1.0636 -1.3291
   98SAPE  C311 9878   4.644   4.770  -1.019 -0.6088 -0.2075  0.3028
   98SAPE  H11X 9879   4.538   4.781  -1.050 -1.4215 -0.1042  2.8776
   98SAPE  H11Y 9880   4.658   4.661  -1.009  0.1909 -0.1460  0.0101
   98SAPE  C312 9881   4.738   4.791  -1.144 -0.1126  0.1789  0.1216
   98SAPE  H12X 9882   4.844   4.807  -1.117 -0.0460  2.4947 -1.2386
   98SAPE  H12Y 9883   4.710   4.888  -1.190 -0.4759  0.4460  0.8940
   98SAPE  C313 9884   4.749   4.669  -1.244  0.0382 -0.4054  0.4797
   98SAPE  H13X 9885   4.778   4.582  -1.181 -0.2006 -0.9691 -0.1773
   98SAPE  H13Y 9886   4.815   4.689  -1.331 -1.3033 -0.5147 -0.5969
   98SAPE  C314 9887   4.609   4.629  -1.297  0.1167  0.1439  0.5777
   98SAPE  H14X 9888   4.577   4.715  -1.360  2.0042  0.6470  0.2379
   98SAPE  H14Y 9889   4.539   4.618  -1.211 -2.1071 -0.2181 -1.1696
   98SAPE  C315 9890   4.591   4.501  -1.381 -0.2074 -0.5838  0.0324
   98SAPE  H15X 9891   4.485   4.468  -1.384 -0.6876  0.6696  1.4776
   98SAPE  H15Y 9892   4.649   4.422  -1.329  0.4930 -1.4663 -2.0068
   98SAPE  C316 9893   4.640   4.518  -1.528 -0.4139  0.8532  0.2724
   98SAPE  H16X 9894   4.643   4.411  -1.558  0.6534  0.4999  1.5309
   98SAPE  H16Y 9895   4.747   4.546  -1.518  0.2580 -0.8246 -1.7354
   98SAPE  C317 9896   4.543   4.599  -1.617 -0.1296 -0.0277 -0.4013
   98SAPE  H17X 9897   4.537   4.707  -1.591  3.2263  0.5680 -1.5618
   98SAPE  H17Y 9898   4.440   4.558  -1.607 -1.0863  2.3843  0.2884
   98SAPE  C318 9899   4.578   4.585  -1.766  0.2829 -0.6811  0.0165
   98SAPE  H18X 9900   4.616   4.482  -1.784  0.1009 -0.7890  0.2408
   98SAPE  H18Y 9901   4.655   4.660  -1.792 -1.2354  2.1594  3.0113
   98SAPE  H18Z 9902   4.492   4.597  -1.835 -0.2786 -1.4639  0.5685
   99SAPE     N 9903   3.111   1.061   0.633 -0.3071 -0.2448 -0.1758
   99SAPE   HN1 9904   3.085   1.159   0.609 -1.2738 -0.3313  0.4832
   99SAPE   HN2 9905   3.213   1.059   0.653 -0.2254 -0.1046 -0.5730
   99SAPE   HN3 9906   3.097   0.995   0.554 -0.2050 -0.1215 -0.2989
   99SAPE   C12 9907   3.034   1.013   0.753 -0.0431 -0.5621 -0.3968
   99SAPE  H12A 9908   2.949   1.080   0.775  0.6955  0.0354  0.6791
   99SAPE  H12B 9909   3.101   1.027   0.840 -0.9610 -2.7956  0.7591
   99SAPE   C11 9910   2.991   0.862   0.751 -0.6347 -0.0210  0.5358
   99SAPE  H11A 9911   2.932   0.847   0.844 -1.4426  1.3343  0.2769
   99SAPE  H11B 9912   3.077   0.797   0.775  0.0204  0.7365  0.2753
   99SAPE     P 9913   2.874   0.667   0.619 -0.0025  0.0373  0.3053
   99SAPE   O13 9914   2.868   0.598   0.751 -0.6724  0.0993  0.1088
   99SAPE   O14 9915   2.757   0.644   0.532  1.2465  0.3338  0.3514
   99SAPE   O12 9916   2.920   0.822   0.637  0.6683  0.1771 -0.1597
   99SAPE   O11 9917   2.997   0.603   0.542  0.5386  0.4648  0.0485
   99SAPE    C1 9918   3.102   0.678   0.474  0.8063  0.2231 -0.3072
   99SAPE    HA 9919   3.128   0.775   0.522  1.8861  0.2895 -1.0020
   99SAPE    HB 9920   3.194   0.616   0.483  0.5097 -0.2469 -0.5016
   99SAPE    C2 9921   3.063   0.701   0.323  0.5929 -0.2614 -0.6207
   99SAPE    HS 9922   3.143   0.770   0.287 -0.6386  1.4987 -0.1346
   99SAPE   O21 9923   2.933   0.766   0.307 -0.3350 -0.2929  0.9917
   99SAPE   C21 9924   2.921   0.884   0.361 -0.1957 -0.4990  0.5094
   99SAPE   O22 9925   3.011   0.949   0.413  0.0898 -0.0467 -0.5514
   99SAPE   C22 9926   2.774   0.930   0.355  0.1684 -0.1320 -0.4971
   99SAPE   H2R 9927   2.714   0.874   0.430 -0.4278  3.5572  2.0828
   99SAPE   H2S 9928   2.761   1.037   0.382 -0.2568 -0.3202  0.0606
   99SAPE    C3 9929   3.055   0.579   0.241 -0.8450 -0.1816 -0.7312
   99SAPE    HX 9930   2.970   0.517   0.277 -1.1138  0.7235  0.2330
   99SAPE    HY 9931   3.148   0.521   0.263  0.3222  1.2925 -1.5903
   99SAPE   O31 9932   3.052   0.614   0.102 -0.7425  0.0140 -0.7401
   99SAPE   C31 9933   2.933   0.629   0.052 -0.4522  0.9519 -0.4387
   99SAPE   O32 9934   2.832   0.581   0.100  0.1474  0.0414 -0.4785
   99SAPE   C32 9935   2.943   0.692  -0.087  0.5594 -0.0318  0.0071
   99SAPE   H2X 9936   3.034   0.754  -0.095 -0.4124  1.3470 -0.7299
   99SAPE   H2Y 9937   2.848   0.750  -0.092  0.0926 -0.5250  1.9808
   99SAPE   C23 9938   2.715   0.930   0.212 -0.5557  0.4744  0.9855
   99SAPE   H3R 9939   2.729   0.828   0.168 -0.6739  1.2444 -0.9270
   99SAPE   H3S 9940   2.783   0.993   0.150 -0.2813  0.2717  1.0768
   99SAPE   C24 9941   2.570   0.983   0.198 -0.6157 -0.3789  0.2308
   99SAPE   H4R 9942   2.507   0.902   0.242  0.1804 -0.4869  1.2008
   99SAPE   H4S 9943   2.535   0.994   0.093  2.3130  1.9621 -0.6119
   99SAPE   C25 9944   2.538   1.121   0.265  0.2527 -0.1336 -0.3338
   99SAPE   H5R 9945   2.539   1.112   0.375  0.9072  2.2220 -0.0716
   99SAPE   C26 9946   2.536   1.241   0.205  0.0635  0.2060  0.0076
   99SAPE   H6R 9947   2.509   1.331   0.264  2.1177  0.0117  1.3871
   99SAPE   C27 9948   2.561   1.261   0.059 -0.0515 -0.0137  0.1596
   99SAPE   H7R 9949   2.549   1.171  -0.006 -0.0908 -0.8483  1.2848
   99SAPE   H7S 9950   2.661   1.308   0.044  0.2792 -0.6523  0.3010
   99SAPE   C28 9951   2.461   1.352  -0.004 -0.3796 -0.1257  0.1259
   99SAPE   H8R 9952   2.363   1.352   0.045 -0.7281  0.2222 -0.5473
   99SAPE   C29 9953   2.486   1.438  -0.103 -0.3760  0.2085  1.1501
   99SAPE   H9R 9954   2.413   1.511  -0.141 -0.5780 -0.8328 -0.5274
   99SAPE  C210 9955   2.614   1.453  -0.186 -0.4830  0.2242 -0.3752
   99SAPE  H10R 9956   2.579   1.471  -0.290  0.3925 -0.7908 -0.8736
   99SAPE  H10S 9957   2.656   1.350  -0.184  0.6969  0.6903 -0.5360
   99SAPE  C211 9958   2.716   1.549  -0.129  0.1894  0.4351 -0.0694
   99SAPE  H11R 9959   2.699   1.595  -0.030 -2.7334 -0.7355  0.0801
   99SAPE  C212 9960   2.830   1.576  -0.190 -0.6396 -0.1138 -0.0614
   99SAPE  H12R 9961   2.910   1.633  -0.141 -0.2395 -1.7097  1.2171
   99SAPE  C213 9962   2.869   1.516  -0.322  0.2230 -0.1732  0.6265
   99SAPE  H13R 9963   2.855   1.603  -0.390  3.2634  0.6802  0.9521
   99SAPE  H13S 9964   2.801   1.435  -0.356  0.0742  1.0740 -2.3210
   99SAPE  C214 9965   3.005   1.456  -0.328  0.4314  0.2344  0.9913
   99SAPE  H14R 9966   3.015   1.377  -0.252 -0.0840  2.4412  3.5101
   99SAPE  C215 9967   3.116   1.485  -0.407  1.0128 -0.1402 -0.2199
   99SAPE  H15R 9968   3.196   1.409  -0.413  1.4189  0.1784  0.7754
   99SAPE  C216 9969   3.118   1.579  -0.519 -0.1456  0.3012 -0.0080
   99SAPE  H16R 9970   3.207   1.645  -0.511 -1.0052  1.3048  1.7528
   99SAPE  H16S 9971   3.027   1.642  -0.516 -1.3006 -1.3190  0.7935
   99SAPE  C217 9972   3.104   1.518  -0.658 -0.0868  0.9585 -0.3734
   99SAPE  H17R 9973   2.997   1.489  -0.663  0.3545 -0.9505  0.4305
   99SAPE  H17S 9974   3.171   1.431  -0.676 -0.8081  0.6289 -1.6283
   99SAPE  C218 9975   3.140   1.616  -0.781  0.4176  0.6543  0.8147
   99SAPE  H18R 9976   3.249   1.624  -0.801  0.4139  0.2561  0.6203
   99SAPE  H18S 9977   3.123   1.718  -0.740  0.5305  1.2711 -0.6187
   99SAPE  C219 9978   3.056   1.590  -0.903 -0.2669 -0.3859  0.0616
   99SAPE  H19R 9979   3.046   1.482  -0.929 -2.6432  0.0220 -0.9539
   99SAPE  H19S 9980   3.106   1.644  -0.986 -2.6484 -1.1201 -1.9796
   99SAPE  C220 9981   2.918   1.659  -0.893  0.5914  0.1021  0.7567
   99SAPE  H20R 9982   2.918   1.767  -0.866 -1.7921  0.0809  0.9767
   99SAPE  H20S 9983   2.848   1.610  -0.822  0.6578 -1.3479 -0.1354
   99SAPE  H20T 9984   2.867   1.656  -0.991 -1.0007  1.4295  1.4988
   99SAPE   C33 9985   2.945   0.586  -0.201  0.1831  0.2108  0.2332
   99SAPE   H3X 9986   2.851   0.528  -0.216  0.8654 -0.3015 -2.6533
   99SAPE   H3Y 9987   3.023   0.508  -0.189 -0.0849  0.0874  1.2615
   99SAPE   C34 9988   2.976   0.651  -0.336 -0.0616  0.3158  0.6558
   99SAPE   H4X 9989   3.071   0.708  -0.335  0.2779 -0.2400  0.7626
   99SAPE   H4Y 9990   2.902   0.721  -0.380 -3.5042 -3.7086 -0.6450
   99SAPE   C35 9991   2.988   0.549  -0.448 -0.1209  0.1288  0.5999
   99SAPE   H5X 9992   2.897   0.488  -0.465  1.6207 -2.1548 -1.1788
   99SAPE   H5Y 9993   3.059   0.466  -0.426  0.7613  0.5141 -0.6811
   99SAPE   C36 9994   3.017   0.609  -0.581 -0.3611  0.2147  0.7741
   99SAPE   H6X 9995   3.115   0.663  -0.578 -0.3095  0.0834  1.6042
   99SAPE   H6Y 9996   2.949   0.690  -0.615  0.7706  2.0055  2.5237
   99SAPE   C37 9997   3.019   0.494  -0.687  0.1099  0.1447 -0.0303
   99SAPE   H7X 9998   3.043   0.397  -0.639 -0.7789  0.8004  1.8551
   99SAPE   H7Y 9999   3.105   0.509  -0.756  0.4279 -1.8578 -0.1133
   99SAPE   C3810000   2.896   0.487  -0.783 -0.2207 -0.4414  0.4519
   99SAPE   H8X10001   2.892   0.581  -0.841 -1.6456 -1.0330 -0.4712
   99SAPE   H8Y10002   2.801   0.486  -0.725 -0.3131  0.0835  0.3112
   99SAPE   C3910003   2.909   0.378  -0.883 -0.2055  0.3634  0.2530
   99SAPE   H9X10004   2.942   0.283  -0.834 -1.4447  0.1094  0.6084
   99SAPE   H9Y10005   2.983   0.395  -0.964  0.0534 -2.4904 -0.2243
   99SAPE  C31010006   2.779   0.333  -0.953  0.1648 -0.2935 -0.3444
   99SAPE  H10X10007   2.691   0.348  -0.886  0.0222  2.2376 -1.0201
   99SAPE  H10Y10008   2.782   0.227  -0.988 -0.6950 -0.3777 -0.1989
   99SAPE  C31110009   2.752   0.420  -1.073  0.3957  0.5069  0.0096
   99SAPE  H11X10010   2.848   0.429  -1.128 -0.5145  0.8496 -1.5821
   99SAPE  H11Y10011   2.718   0.520  -1.039  0.2277 -0.4360  2.8575
   99SAPE  C31210012   2.640   0.358  -1.159  0.0493 -0.2047 -0.0528
   99SAPE  H12X10013   2.553   0.330  -1.096 -2.1116  0.5501 -2.4928
   99SAPE  H12Y10014   2.684   0.267  -1.205 -1.6141  0.2594 -2.8607
   99SAPE  C31310015   2.587   0.452  -1.271 -0.1005  0.1542  0.3969
   99SAPE  H13X10016   2.666   0.487  -1.341 -1.7367  0.4431 -1.3929
   99SAPE  H13Y10017   2.541   0.539  -1.220 -1.3529  0.4169 -1.1214
   99SAPE  C31410018   2.484   0.385  -1.359  0.1861 -0.3330 -0.4541
   99SAPE  H14X10019   2.400   0.354  -1.293 -1.1127  0.3127 -1.7497
   99SAPE  H14Y10020   2.531   0.296  -1.405  2.4769  0.7284 -0.3021
   99SAPE  C31510021   2.428   0.489  -1.460 -0.1977 -0.1568 -0.2443
   99SAPE  H15X10022   2.512   0.540  -1.511 -0.8377 -0.0991 -1.2793
   99SAPE  H15Y10023   2.370   0.570  -1.411  0.8441  0.0183  0.7202
   99SAPE  C31610024   2.333   0.417  -1.557 -0.5241  0.6057 -0.5893
   99SAPE  H16X10025   2.397   0.349  -1.616  1.4799  1.2660  0.7151
   99SAPE  H16Y10026   2.299   0.496  -1.628 -0.6818  3.4326  2.3651
   99SAPE  C31710027   2.216   0.345  -1.488 -0.4866 -0.1136 -0.0790
   99SAPE  H17X10028   2.178   0.397  -1.398 -2.3621  0.0465 -0.9046
   99SAPE  H17Y10029   2.259   0.251  -1.448  1.2525  0.8400  0.3927
   99SAPE  C31810030   2.112   0.312  -1.598 -0.0055  0.3012  0.2826
   99SAPE  H18X10031   2.159   0.285  -1.695  1.0750  0.6124  0.7018
   99SAPE  H18Y10032   2.046   0.400  -1.612 -3.0343 -1.9312 -0.4168
   99SAPE  H18Z10033   2.059   0.217  -1.576  2.7548 -1.6576 -0.8788
  100SAPE     N10034   0.502   4.609   0.632  0.0980  1.2434 -0.3515
  100SAPE   HN110035   0.472   4.651   0.722  1.8597  0.7452  0.5236
  100SAPE   HN210036   0.512   4.674   0.552 -0.9458  0.9416 -0.7364
  100SAPE   HN310037   0.429   4.535   0.632  1.4878 -0.1917  0.2682
  100SAPE   C1210038   0.638   4.549   0.671  0.0854  0.1774  0.2773
  100SAPE  H12A10039   0.696   4.639   0.703 -0.6444  0.2227  1.5489
  100SAPE  H12B10040   0.680   4.492   0.586  1.0341  1.2241  0.0206
  100SAPE   C1110041   0.635   4.459   0.799 -0.2300 -0.3447  0.4701
  100SAPE  H11A10042   0.586   4.514   0.883 -0.5144 -1.2526  0.9072
  100SAPE  H11B10043   0.738   4.449   0.840  0.3338 -1.6988 -1.1612
  100SAPE     P10044   0.619   4.222   0.684  0.1026  0.1566 -0.0029
  100SAPE   O1310045   0.770   4.231   0.676 -0.1509  0.4225  0.5932
  100SAPE   O1410046   0.559   4.092   0.730  0.3692  0.0130  0.4655
  100SAPE   O1210047   0.564   4.338   0.775 -0.3760 -0.4387  0.6459
  100SAPE   O1110048   0.554   4.277   0.554 -0.2797 -0.1977  0.1865
  100SAPE    C110049   0.517   4.204   0.434 -0.4175 -0.0776 -0.1933
  100SAPE    HA10050   0.486   4.103   0.468 -0.3553  0.8518  2.9607
  100SAPE    HB10051   0.428   4.248   0.384 -0.8116 -0.7523 -0.1109
  100SAPE    C210052   0.629   4.217   0.326  0.2921  0.2377  0.2335
  100SAPE    HS10053   0.701   4.135   0.347 -2.4361 -2.1484  1.0812
  100SAPE   O2110054   0.669   4.353   0.317 -0.3834  0.3372  0.1306
  100SAPE   C2110055   0.795   4.362   0.279  0.2926 -0.3729  0.2307
  100SAPE   O2210056   0.865   4.269   0.245 -0.5679  0.1059 -1.0130
  100SAPE   C2210057   0.852   4.511   0.284 -0.6660  0.3508  0.1945
  100SAPE   H2R10058   0.786   4.572   0.349 -1.9988  0.6786 -1.3709
  100SAPE   H2S10059   0.949   4.482   0.329  0.0071  2.9296  0.5572
  100SAPE    C310060   0.558   4.172   0.191 -0.1423  0.4593  0.1713
  100SAPE    HX10061   0.518   4.071   0.213  2.0086 -1.1437 -2.4892
  100SAPE    HY10062   0.639   4.153   0.118  0.4535 -1.6264  1.2970
  100SAPE   O3110063   0.447   4.254   0.146 -0.0975  0.0318  0.0796
  100SAPE   C3110064   0.455   4.286   0.018 -0.4647 -0.4266  0.5621
  100SAPE   O3210065   0.530   4.236  -0.066  0.0357 -0.6842 -0.2656
  100SAPE   C3210066   0.356   4.404  -0.005  0.7783  1.0182 -0.2327
  100SAPE   H2X10067   0.400   4.495   0.041 -0.6188  1.2753  0.6381
  100SAPE   H2Y10068   0.258   4.376   0.040  0.0035  1.0860 -1.7840
  100SAPE   C2310069   0.880   4.583   0.152  0.1190  0.2370 -0.7296
  100SAPE   H3R10070   0.940   4.516   0.086  0.5837 -0.0653 -0.0131
  100SAPE   H3S10071   0.947   4.666   0.182 -1.8933  1.2653  1.1706
  100SAPE   C2410072   0.747   4.648   0.098 -0.1522 -0.0638 -0.1576
  100SAPE   H4R10073   0.773   4.752   0.069 -0.5454  0.0379 -0.1455
  100SAPE   H4S10074   0.663   4.651   0.171  0.6573 -0.5150  0.8359
  100SAPE   C2510075   0.696   4.577  -0.021  0.2829  0.0824  0.3062
  100SAPE   H5R10076   0.669   4.471  -0.015 -1.0897  0.3029 -1.1340
  100SAPE   C2610077   0.667   4.637  -0.136  0.2059  0.2744 -0.5118
  100SAPE   H6R10078   0.641   4.575  -0.223  1.2826 -0.8700 -0.0514
  100SAPE   C2710079   0.672   4.783  -0.183 -0.1307 -0.5831 -0.4189
  100SAPE   H7R10080   0.739   4.787  -0.271 -0.3070  0.8200 -0.5132
  100SAPE   H7S10081   0.715   4.843  -0.100  0.5057 -2.3418  0.5881
  100SAPE   C2810082   0.536   4.823  -0.211 -0.0986 -0.3617 -0.2533
  100SAPE   H8R10083   0.457   4.750  -0.193 -0.9984  0.9399  1.2933
  100SAPE   C2910084   0.477   4.941  -0.233 -0.5526 -0.1449  0.4724
  100SAPE   H9R10085   0.368   4.943  -0.244 -0.6585  1.7276  1.4755
  100SAPE  C21010086   0.544   5.079  -0.253  0.9441  0.4793  0.0503
  100SAPE  H10R10087   0.609   5.076  -0.343 -0.4102  4.8747 -1.3042
  100SAPE  H10S10088   0.621   5.109  -0.178 -0.1861  0.2566  1.3451
  100SAPE  C21110089   0.443   5.190  -0.270 -0.2751 -0.2936  0.1193
  100SAPE  H11R10090   0.367   5.195  -0.191 -1.1425  2.1722 -0.7887
  100SAPE  C21210091   0.412   5.260  -0.374  0.4465 -0.1188  0.3040
  100SAPE  H12R10092   0.337   5.340  -0.362  3.5917  3.1252 -0.0773
  100SAPE  C21310093   0.493   5.276  -0.504  0.8222 -0.0313  0.5940
  100SAPE  H13R10094   0.593   5.228  -0.497 -0.1046 -2.6784 -2.2132
  100SAPE  H13S10095   0.512   5.384  -0.522 -2.6916  0.6630  0.2255
  100SAPE  C21410096   0.422   5.230  -0.634 -0.4044 -0.4965  0.3376
  100SAPE  H14R10097   0.346   5.302  -0.668 -0.0401 -0.0747  0.3966
  100SAPE  C21510098   0.458   5.131  -0.719 -0.0828  0.2061 -0.2822
  100SAPE  H15R10099   0.402   5.119  -0.813 -1.0941  1.9053  0.0494
  100SAPE  C21610100   0.570   5.039  -0.705 -0.2485  0.7255 -0.3020
  100SAPE  H16R10101   0.631   5.052  -0.613  1.1736 -0.5696 -1.0264
  100SAPE  H16S10102   0.636   5.065  -0.790 -0.3811  0.1374 -0.5883
  100SAPE  C21710103   0.554   4.886  -0.717  0.2910  0.7128  0.0634
  100SAPE  H17R10104   0.652   4.849  -0.754 -0.5750  1.2452 -3.0182
  100SAPE  H17S10105   0.479   4.855  -0.792  0.8521  0.0519 -0.2360
  100SAPE  C21810106   0.521   4.828  -0.577 -0.9420 -0.0872  0.6199
  100SAPE  H18R10107   0.424   4.868  -0.542 -2.2498 -0.1617 -2.6096
  100SAPE  H18S10108   0.592   4.862  -0.498  0.9974 -0.3205 -0.9307
  100SAPE  C21910109   0.514   4.671  -0.568 -0.8738 -0.2456 -0.4958
  100SAPE  H19R10110   0.429   4.651  -0.637 -0.6934 -0.8204 -0.5562
  100SAPE  H19S10111   0.502   4.650  -0.459  0.1237  0.3071 -0.2607
  100SAPE  C22010112   0.641   4.602  -0.613  0.0116  0.6515 -0.2068
  100SAPE  H20R10113   0.687   4.633  -0.709  0.4707 -1.4207 -0.7014
  100SAPE  H20S10114   0.625   4.493  -0.627  3.2396 -0.1657  1.4458
  100SAPE  H20T10115   0.718   4.593  -0.533 -0.1934  1.2591  0.0651
  100SAPE   C3310116   0.330   4.437  -0.149  0.2018  0.2065  0.1570
  100SAPE   H3X10117   0.427   4.434  -0.202  0.0288 -2.3084 -0.1814
  100SAPE   H3Y10118   0.276   4.534  -0.148 -0.0926  0.0393  0.6009
  100SAPE   C3410119   0.219   4.346  -0.208  0.4544 -0.0003 -0.2326
  100SAPE   H4X10120   0.135   4.347  -0.134  1.5767  2.4873  1.1168
  100SAPE   H4Y10121   0.247   4.241  -0.231  0.5210 -0.0442  0.0460
  100SAPE   C3510122   0.178   4.414  -0.346  0.0470  0.1953 -0.6275
  100SAPE   H5X10123   0.273   4.457  -0.385  0.5564  2.4680  2.7156
  100SAPE   H5Y10124   0.099   4.490  -0.330  0.9923  0.7337  2.0353
  100SAPE   C3610125   0.134   4.312  -0.452  0.6545 -0.2322 -0.4612
  100SAPE   H6X10126   0.055   4.244  -0.414 -0.5944  1.0371 -0.7056
  100SAPE   H6Y10127   0.217   4.242  -0.474  0.0896 -0.8081 -0.7971
  100SAPE   C3710128   0.080   4.375  -0.581  0.3074 -0.1928 -0.3974
  100SAPE   H7X10129   0.005   4.451  -0.552  0.9019  0.7449 -1.2590
  100SAPE   H7Y10130   0.029   4.298  -0.643  1.7391  0.4774 -2.5023
  100SAPE   C3810131   0.189   4.451  -0.668  0.2097 -0.1864  1.4150
  100SAPE   H8X10132   0.242   4.517  -0.597  1.8565 -0.2329  0.2766
  100SAPE   H8Y10133   0.145   4.514  -0.748  1.2828 -2.1882 -0.8622
  100SAPE   C3910134   0.290   4.352  -0.727 -0.1995  0.6022 -0.1278
  100SAPE   H9X10135   0.229   4.274  -0.775 -2.0118 -0.2062  3.1472
  100SAPE   H9Y10136   0.350   4.297  -0.651  0.5242  1.1074 -0.3289
  100SAPE  C31010137   0.387   4.419  -0.830  0.5325  0.0182  0.1555
  100SAPE  H10X10138   0.436   4.342  -0.893  1.0663  0.0407  0.5338
  100SAPE  H10Y10139   0.462   4.478  -0.774 -0.4016 -0.2106  1.7101
  100SAPE  C31110140   0.321   4.513  -0.934  0.0933 -0.5539 -0.0719
  100SAPE  H11X10141   0.286   4.604  -0.880 -0.1385 -1.1062  0.7371
  100SAPE  H11Y10142   0.230   4.469  -0.982  0.8193 -0.6020 -1.4554
  100SAPE  C31210143   0.416   4.571  -1.041 -0.2210  0.3720  0.1672
  100SAPE  H12X10144   0.452   4.481  -1.096  1.0106  0.8287  0.1966
  100SAPE  H12Y10145   0.501   4.617  -0.987 -0.2178  0.7313 -0.1434
  100SAPE  C31310146   0.350   4.663  -1.142  0.4059 -0.3813  0.1432
  100SAPE  H13X10147   0.266   4.707  -1.085 -0.2936 -1.2337 -0.1912
  100SAPE  H13Y10148   0.298   4.599  -1.218  0.4489  2.5750 -2.5880
  100SAPE  C31410149   0.451   4.761  -1.200 -0.2219 -0.5394 -0.6045
  100SAPE  H14X10150   0.401   4.803  -1.290  0.3291  1.8137  0.1251
  100SAPE  H14Y10151   0.541   4.715  -1.247 -2.1063 -1.5723 -3.4629
  100SAPE  C31510152   0.478   4.880  -1.108 -0.0010  0.3323  0.5009
  100SAPE  H15X10153   0.552   4.845  -1.033  0.0388  0.0984  0.3517
  100SAPE  H15Y10154   0.386   4.897  -1.048 -0.1684 -1.6631  0.8728
  100SAPE  C31610155   0.517   5.009  -1.175  0.0593  0.8356 -1.3214
  100SAPE  H16X10156   0.444   5.053  -1.246 -1.1392  0.0958 -0.5713
  100SAPE  H16Y10157   0.617   5.004  -1.223  1.5954  0.2062  1.7174
  100SAPE  C31710158   0.533   5.116  -1.067  0.7284  0.5500  0.6075
  100SAPE  H17X10159   0.629   5.093  -1.016  0.0301 -0.4865  1.5030
  100SAPE  H17Y10160   0.450   5.117  -0.993  0.7167  1.0517  0.5916
  100SAPE  C31810161   0.534   5.257  -1.126  0.4668  0.0427 -0.0552
  100SAPE  H18X10162   0.437   5.282  -1.174 -0.7828 -0.8633  1.8692
  100SAPE  H18Y10163   0.613   5.273  -1.202  1.8585  0.9416  1.5183
  100SAPE  H18Z10164   0.548   5.330  -1.044 -1.2158  0.6256 -0.2493
  101SAPE     N10165   3.361   2.994   0.652  0.1570 -0.4358  0.1382
  101SAPE   HN110166   3.406   3.053   0.725  0.4434 -1.2605  0.6344
  101SAPE   HN210167   3.263   3.024   0.638 -0.1438  0.4231  3.3264
  101SAPE   HN310168   3.368   2.894   0.680 -1.2774 -1.2388 -2.1187
  101SAPE   C1210169   3.427   3.015   0.521  0.9250  0.1516  0.3131
  101SAPE  H12A10170   3.535   3.021   0.548  0.9333  0.0504  0.3056
  101SAPE  H12B10171   3.404   3.115   0.480 -1.4009  0.0397  1.1984
  101SAPE   C1110172   3.388   2.897   0.431 -0.1657  0.2978  0.1589
  101SAPE  H11A10173   3.424   2.923   0.329  1.8729 -2.0870  0.1771
  101SAPE  H11B10174   3.278   2.894   0.441 -0.0667 -3.2832  1.4953
  101SAPE     P10175   3.387   2.633   0.441  0.0213 -0.0750  0.1124
  101SAPE   O1310176   3.479   2.525   0.483  0.4717 -0.4512 -0.3491
  101SAPE   O1410177   3.250   2.627   0.491 -0.5570 -0.7056 -0.2483
  101SAPE   O1210178   3.447   2.775   0.480 -0.0095 -0.1436  0.8438
  101SAPE   O1110179   3.383   2.642   0.282  0.0923 -0.5288  0.1381
  101SAPE    C110180   3.491   2.692   0.209  0.2557  0.0621 -0.2482
  101SAPE    HA10181   3.446   2.758   0.131 -0.7052 -1.4564 -1.0368
  101SAPE    HB10182   3.575   2.733   0.269  1.0331 -0.0020 -1.2650
  101SAPE    C210183   3.561   2.579   0.121  1.0179  1.1127 -0.1181
  101SAPE    HS10184   3.623   2.636   0.049  0.7705  2.9332  1.0411
  101SAPE   O2110185   3.470   2.501   0.049 -0.7345 -0.2097 -0.2089
  101SAPE   C2110186   3.420   2.555  -0.062 -0.1107 -0.1345 -0.0878
  101SAPE   O2210187   3.462   2.662  -0.111  0.0480 -0.0215 -0.4240
  101SAPE   C2210188   3.322   2.461  -0.133  0.4137  0.3972 -0.1059
  101SAPE   H2R10189   3.341   2.362  -0.087  1.3566  0.4966 -0.2585
  101SAPE   H2S10190   3.214   2.489  -0.128 -0.3749 -2.1414 -1.1768
  101SAPE    C310191   3.640   2.477   0.210 -0.4477  0.2467 -0.1454
  101SAPE    HX10192   3.565   2.412   0.259 -0.6986  0.3288 -0.4155
  101SAPE    HY10193   3.693   2.538   0.287 -1.4138  1.5489 -0.4682
  101SAPE   O3110194   3.742   2.404   0.133 -0.1475 -0.4577 -0.1108
  101SAPE   C3110195   3.746   2.278   0.154  0.7784 -0.3629  0.8545
  101SAPE   O3210196   3.673   2.217   0.236  0.2910 -0.8277 -0.1300
  101SAPE   C3210197   3.839   2.210   0.066 -0.0948 -0.4618  0.6154
  101SAPE   H2X10198   3.900   2.134   0.120 -0.4562 -0.2608  1.3211
  101SAPE   H2Y10199   3.920   2.281   0.037 -0.8265  0.2149  0.2048
  101SAPE   C2310200   3.375   2.452  -0.276  0.4185 -0.1580  0.3703
  101SAPE   H3R10201   3.483   2.427  -0.273  0.3649 -0.4022  0.3603
  101SAPE   H3S10202   3.358   2.536  -0.346 -0.1072 -1.3865 -1.0351
  101SAPE   C2410203   3.305   2.329  -0.352  0.2934 -0.2188  0.2758
  101SAPE   H4R10204   3.297   2.239  -0.288 -2.1324  0.6137  1.2898
  101SAPE   H4S10205   3.356   2.317  -0.450 -1.8693  2.7947 -1.4004
  101SAPE   C2510206   3.162   2.371  -0.380 -0.3880  0.2752 -0.0624
  101SAPE   H5R10207   3.100   2.379  -0.290  0.4248 -0.8369  0.6213
  101SAPE   C2610208   3.105   2.392  -0.501 -1.4225  0.8252 -0.0707
  101SAPE   H6R10209   2.998   2.417  -0.509 -1.4573  0.7024  0.0039
  101SAPE   C2710210   3.181   2.379  -0.632 -0.3597 -0.5210  0.3244
  101SAPE   H7R10211   3.245   2.288  -0.637  0.6279  0.1041  1.2271
  101SAPE   H7S10212   3.247   2.468  -0.640 -0.6089 -0.1296  2.2476
  101SAPE   C2810213   3.079   2.384  -0.751 -0.9468  0.2528  0.1128
  101SAPE   H8R10214   2.971   2.375  -0.729 -0.6480 -0.3570  1.4301
  101SAPE   C2910215   3.114   2.399  -0.879 -0.8531 -1.1486 -0.0509
  101SAPE   H9R10216   3.032   2.392  -0.952 -0.5217 -0.2850 -0.5221
  101SAPE  C21010217   3.255   2.426  -0.932 -0.3720 -0.2253  0.1769
  101SAPE  H10R10218   3.332   2.386  -0.863  0.0824  0.2416 -0.0507
  101SAPE  H10S10219   3.278   2.535  -0.940  2.3068 -0.8347 -1.8934
  101SAPE  C21110220   3.273   2.375  -1.081 -0.3434 -0.5788 -0.7762
  101SAPE  H11R10221   3.237   2.439  -1.163  0.7402  1.4654  0.2465
  101SAPE  C21210222   3.328   2.257  -1.118  0.0526 -0.1858 -0.0605
  101SAPE  H12R10223   3.334   2.253  -1.227 -1.3396  0.3204 -0.1739
  101SAPE  C21310224   3.386   2.155  -1.033 -0.1145  0.3458  0.0595
  101SAPE  H13R10225   3.309   2.091  -0.985  0.6825  0.0823  1.0160
  101SAPE  H13S10226   3.446   2.200  -0.952  0.5199 -1.5335  0.6963
  101SAPE  C21410227   3.483   2.068  -1.103  0.6598 -0.3035  0.2261
  101SAPE  H14R10228   3.566   2.125  -1.147  0.4208 -1.4830 -1.8845
  101SAPE  C21510229   3.482   1.929  -1.100 -0.1099 -0.1319  0.2759
  101SAPE  H15R10230   3.574   1.889  -1.143  0.4965 -0.7519  2.0765
  101SAPE  C21610231   3.374   1.836  -1.049 -0.5088  0.3860  0.2449
  101SAPE  H16R10232   3.287   1.892  -1.010 -1.5141 -1.2961  0.5494
  101SAPE  H16S10233   3.408   1.785  -0.957 -3.1278  0.4647  1.3543
  101SAPE  C21710234   3.314   1.737  -1.160 -0.2256  0.5475 -0.0117
  101SAPE  H17R10235   3.280   1.645  -1.109  1.0579  0.3918  0.6008
  101SAPE  H17S10236   3.392   1.702  -1.231 -1.5163 -0.6032 -0.9179
  101SAPE  C21810237   3.203   1.800  -1.245  0.4877  0.8405 -0.4953
  101SAPE  H18R10238   3.238   1.891  -1.298  1.7638  0.7908  0.2206
  101SAPE  H18S10239   3.114   1.827  -1.183  2.5148  3.9713  1.3656
  101SAPE  C21910240   3.156   1.703  -1.354  0.5773 -0.4292 -0.1228
  101SAPE  H19R10241   3.239   1.659  -1.414  0.7968 -1.9730  1.2549
  101SAPE  H19S10242   3.088   1.760  -1.421 -0.6158  0.4751  1.7802
  101SAPE  C22010243   3.059   1.597  -1.307  0.7294  0.8317 -0.1742
  101SAPE  H20R10244   3.018   1.542  -1.394 -0.3560 -0.6173  1.1888
  101SAPE  H20S10245   2.973   1.641  -1.252 -1.2121 -1.8540 -0.8594
  101SAPE  H20T10246   3.111   1.519  -1.247  0.6888  1.7675  1.1239
  101SAPE   C3310247   3.778   2.152  -0.064  0.1382  0.5006 -0.0251
  101SAPE   H3X10248   3.718   2.239  -0.098  0.4765  0.9129  0.4046
  101SAPE   H3Y10249   3.700   2.073  -0.051  1.2901 -1.2863 -3.0214
  101SAPE   C3410250   3.876   2.117  -0.179  0.5002 -0.1673  0.1287
  101SAPE   H4X10251   3.917   2.014  -0.173  1.1294  0.1451  1.4913
  101SAPE   H4Y10252   3.950   2.199  -0.174  0.1753  0.2018 -0.7758
  101SAPE   C3510253   3.817   2.131  -0.316 -0.3679 -0.1375 -0.5311
  101SAPE   H5X10254   3.807   2.240  -0.333  2.7829  0.1598 -1.1403
  101SAPE   H5Y10255   3.714   2.089  -0.316 -0.0448 -0.9532 -0.0729
  101SAPE   C3610256   3.899   2.068  -0.427 -0.2918  0.2454  0.5812
  101SAPE   H6X10257   3.915   1.958  -0.419  0.8883  0.3473 -0.1801
  101SAPE   H6Y10258   3.996   2.121  -0.418 -0.5060  1.7384 -3.5832
  101SAPE   C3710259   3.838   2.092  -0.560  0.5875 -0.3012 -0.0308
  101SAPE   H7X10260   3.817   2.201  -0.568  2.3878  0.1873  1.2086
  101SAPE   H7Y10261   3.738   2.044  -0.558 -0.0181  0.7652 -2.2468
  101SAPE   C3810262   3.912   2.040  -0.687 -0.1230  0.6566 -0.1203
  101SAPE   H8X10263   3.922   1.929  -0.683  0.4162  0.6828 -0.6361
  101SAPE   H8Y10264   4.012   2.086  -0.693  0.5194 -0.6398  0.2929
  101SAPE   C3910265   3.832   2.079  -0.817  0.2639  0.4116 -0.5690
  101SAPE   H9X10266   3.817   2.189  -0.819  0.2687  0.4257 -0.0732
  101SAPE   H9Y10267   3.730   2.036  -0.809 -0.1984  1.5545 -0.0557
  101SAPE  C31010268   3.912   2.018  -0.929  0.2300  0.0882  0.4551
  101SAPE  H10X10269   3.942   1.918  -0.890 -0.2262  0.7720  2.7013
  101SAPE  H10Y10270   4.011   2.070  -0.928 -0.5331  1.5935  0.0608
  101SAPE  C31110271   3.828   2.009  -1.056 -0.2854  0.5595  0.4497
  101SAPE  H11X10272   3.806   2.107  -1.102  0.6755  1.5453  1.9771
  101SAPE  H11Y10273   3.733   1.966  -1.016 -0.5801  0.8385  0.0595
  101SAPE  C31210274   3.901   1.918  -1.160 -0.4190 -0.2646 -0.0665
  101SAPE  H12X10275   3.916   1.817  -1.117 -0.2164 -1.0059 -1.8154
  101SAPE  H12Y10276   3.998   1.961  -1.193  0.5483 -3.3513 -1.5745
  101SAPE  C31310277   3.825   1.901  -1.294  0.6218  0.2147 -0.0053
  101SAPE  H13X10278   3.813   1.997  -1.349 -1.5254  0.1472  0.2702
  101SAPE  H13Y10279   3.720   1.868  -1.276  0.2225  1.7329  0.5889
  101SAPE  C31410280   3.888   1.800  -1.379  0.3143  0.3694 -0.5521
  101SAPE  H14X10281   3.903   1.703  -1.326 -1.9010  0.2847 -0.0120
  101SAPE  H14Y10282   3.984   1.851  -1.403 -0.7235  2.7169  0.0739
  101SAPE  C31510283   3.809   1.764  -1.505  0.2012  0.0740  0.1024
  101SAPE  H15X10284   3.712   1.717  -1.480  0.1209  0.3749  0.3688
  101SAPE  H15Y10285   3.871   1.684  -1.550 -2.4382 -2.0561  0.0274
  101SAPE  C31610286   3.786   1.879  -1.604  0.0424  0.3954 -0.4426
  101SAPE  H16X10287   3.716   1.960  -1.573  1.3783  1.0692  0.9117
  101SAPE  H16Y10288   3.745   1.824  -1.691 -1.8680  0.7289  0.1929
  101SAPE  C31710289   3.899   1.951  -1.660  0.0698 -0.2765  0.4716
  101SAPE  H17X10290   3.994   1.894  -1.668 -0.6167 -1.6993  1.9133
  101SAPE  H17Y10291   3.921   2.033  -1.589 -0.0368 -0.1652  0.3769
  101SAPE  C31810292   3.869   2.004  -1.796  0.1751  0.3522  0.1692
  101SAPE  H18X10293   3.824   1.917  -1.850 -0.9693 -0.2531  1.9895
  101SAPE  H18Y10294   3.956   2.040  -1.853 -0.3431  0.9394 -0.2654
  101SAPE  H18Z10295   3.790   2.083  -1.796 -1.1885 -0.9153 -1.6813
  102SAPE     N10296   6.744   5.462   0.989 -0.0040 -0.0038 -0.2327
  102SAPE   HN110297   6.743   5.435   0.889 -4.1015 -0.0203 -0.3540
  102SAPE   HN210298   6.790   5.387   1.043 -1.9281  0.6895  2.6047
  102SAPE   HN310299   6.645   5.477   1.019 -0.4375  1.9745 -2.3040
  102SAPE   C1210300   6.830   5.582   1.012  0.4222 -0.0938  0.0079
  102SAPE  H12A10301   6.831   5.601   1.122 -1.5144  1.0644 -0.1300
  102SAPE  H12B10302   6.782   5.664   0.955  0.1726 -2.2425 -3.1091
  102SAPE   C1110303   6.969   5.568   0.948  0.8806 -0.9768 -0.1534
  102SAPE  H11A10304   7.017   5.474   0.984  2.0162 -0.3428  0.0446
  102SAPE  H11B10305   7.039   5.647   0.981  0.3556 -0.4493 -0.2848
  102SAPE     P10306   6.944   5.676   0.711  0.0023  0.5143 -0.3883
  102SAPE   O1310307   6.801   5.705   0.702 -0.3609 -0.2792  0.3903
  102SAPE   O1410308   7.041   5.782   0.751  0.0073  0.8471  0.1231
  102SAPE   O1210309   6.958   5.560   0.810  0.0638  0.3713 -0.3348
  102SAPE   O1110310   6.987   5.607   0.580 -0.2538  0.1404 -0.8109
  102SAPE    C110311   6.918   5.487   0.526 -0.3205 -0.0568 -0.2068
  102SAPE    HA10312   7.000   5.420   0.495  1.0014  1.7044 -0.7054
  102SAPE    HB10313   6.861   5.435   0.606  0.6364  0.8173  1.1120
  102SAPE    C210314   6.835   5.546   0.407 -0.3237  0.2778 -0.4002
  102SAPE    HS10315   6.765   5.614   0.460 -0.9715 -1.7727  1.5025
  102SAPE   O2110316   6.767   5.441   0.344  0.3819  0.2114  0.3011
  102SAPE   C2110317   6.655   5.469   0.271 -0.0896  0.2904 -0.6360
  102SAPE   O2210318   6.588   5.569   0.285 -0.0117  0.8542 -0.3998
  102SAPE   C2210319   6.621   5.345   0.184 -0.1863  0.5973 -0.4145
  102SAPE   H2R10320   6.717   5.292   0.165 -1.1771 -0.5427 -2.6006
  102SAPE   H2S10321   6.538   5.287   0.229 -2.3416  0.6248 -3.9905
  102SAPE    C310322   6.914   5.637   0.312 -0.5876  0.4917  0.7811
  102SAPE    HX10323   7.008   5.589   0.281 -1.5788 -0.4484 -0.8658
  102SAPE    HY10324   6.937   5.727   0.374  0.9891 -0.3064  1.4077
  102SAPE   O3110325   6.841   5.669   0.189  0.0627  0.1303 -0.9997
  102SAPE   C3110326   6.772   5.785   0.189  0.0645 -0.1167  1.2096
  102SAPE   O3210327   6.755   5.859   0.284 -0.0465  0.5121 -0.6264
  102SAPE   C3210328   6.708   5.812   0.046  0.2544  0.1109  0.2679
  102SAPE   H2X10329   6.688   5.919   0.027 -2.9113 -0.3474  0.4872
  102SAPE   H2Y10330   6.605   5.770   0.046  0.3296 -0.1164 -1.4390
  102SAPE   C2310331   6.576   5.381   0.040  0.0769 -0.1119 -0.7283
  102SAPE   H3R10332   6.671   5.410  -0.010  0.5261 -2.3464 -1.2841
  102SAPE   H3S10333   6.507   5.468   0.036 -0.7501 -0.6100  1.4352
  102SAPE   C2410334   6.522   5.259  -0.040 -0.5105  0.4121 -0.4180
  102SAPE   H4R10335   6.482   5.297  -0.137  2.0269 -0.7189 -2.0309
  102SAPE   H4S10336   6.447   5.213   0.027  1.5055 -0.3191  1.4424
  102SAPE   C2510337   6.640   5.167  -0.078  0.1207 -0.3385  0.4135
  102SAPE   H5R10338   6.669   5.089  -0.006  1.7586  0.2527  0.4315
  102SAPE   C2610339   6.709   5.170  -0.196  0.2450 -0.1193 -1.0831
  102SAPE   H6R10340   6.783   5.091  -0.214  1.2699  0.6308 -0.3190
  102SAPE   C2710341   6.709   5.274  -0.301 -0.3903 -0.3368  0.4622
  102SAPE   H7R10342   6.808   5.278  -0.351 -0.6066  1.4777  0.0952
  102SAPE   H7S10343   6.711   5.378  -0.262  2.2745  1.0516 -2.8128
  102SAPE   C2810344   6.607   5.258  -0.405  0.9845  0.0716  0.2767
  102SAPE   H8R10345   6.509   5.227  -0.365 -0.5214  2.0660 -1.5878
  102SAPE   C2910346   6.618   5.244  -0.541  0.2664  0.1813 -0.3971
  102SAPE   H9R10347   6.532   5.240  -0.609 -0.1872 -0.1078  0.1757
  102SAPE  C21010348   6.746   5.251  -0.622  0.5486 -0.6627 -0.0015
  102SAPE  H10R10349   6.731   5.189  -0.713  1.1546  0.7481 -1.0956
  102SAPE  H10S10350   6.829   5.199  -0.570  1.5691  0.4867 -0.4521
  102SAPE  C21110351   6.784   5.398  -0.647  0.3267  0.1663  0.4494
  102SAPE  H11R10352   6.785   5.453  -0.552  0.4756 -0.6936  0.9564
  102SAPE  C21210353   6.815   5.451  -0.768  0.0992  0.0741  0.6078
  102SAPE  H12R10354   6.839   5.558  -0.778 -0.4134  0.0166 -2.1983
  102SAPE  C21310355   6.837   5.376  -0.896  0.0953  0.1530 -0.4670
  102SAPE  H13R10356   6.755   5.403  -0.967  0.8878  1.0557 -1.0614
  102SAPE  H13S10357   6.822   5.267  -0.880  1.4912  0.1894  1.4021
  102SAPE  C21410358   6.970   5.399  -0.975 -0.1689  0.7282 -0.2911
  102SAPE  H14R10359   7.044   5.322  -0.948 -0.5097  0.4429 -0.1610
  102SAPE  C21510360   7.013   5.504  -1.042  0.6048 -0.0386 -0.2170
  102SAPE  H15R10361   7.103   5.500  -1.104  1.1543  2.2259  0.3481
  102SAPE  C21610362   6.924   5.629  -1.067 -0.1194  0.9746 -0.1935
  102SAPE  H16R10363   6.988   5.719  -1.059  0.0951  0.8264 -0.2411
  102SAPE  H16S10364   6.842   5.635  -0.993  0.4531 -0.5759  0.5957
  102SAPE  C21710365   6.859   5.620  -1.208  0.1740  0.2109 -0.5018
  102SAPE  H17R10366   6.809   5.523  -1.228 -1.0823  0.6900  0.2314
  102SAPE  H17S10367   6.940   5.636  -1.283 -1.2468 -0.0285 -2.1505
  102SAPE  C21810368   6.755   5.730  -1.241 -1.0695  0.0820 -0.0135
  102SAPE  H18R10369   6.798   5.832  -1.226  0.5991 -0.0751 -3.0527
  102SAPE  H18S10370   6.664   5.726  -1.178 -0.6667  0.2109  0.5887
  102SAPE  C21910371   6.703   5.700  -1.384  0.8083  0.0660 -0.0542
  102SAPE  H19R10372   6.644   5.606  -1.383 -0.7330  0.9650  1.8780
  102SAPE  H19S10373   6.788   5.691  -1.454  0.1785  1.8671 -1.1072
  102SAPE  C22010374   6.622   5.823  -1.439  0.6366  1.3493 -0.4670
  102SAPE  H20R10375   6.692   5.908  -1.452 -0.1908  2.0654 -0.2666
  102SAPE  H20S10376   6.534   5.849  -1.377  0.6010 -1.5189  0.8556
  102SAPE  H20T10377   6.589   5.796  -1.542  0.2310  3.6808 -0.9867
  102SAPE   C3310378   6.790   5.760  -0.068  0.5237  0.0605 -0.2940
  102SAPE   H3X10379   6.807   5.651  -0.055 -0.0645  0.2871  3.5006
  102SAPE   H3Y10380   6.891   5.807  -0.068  0.8088 -0.5111  1.3467
  102SAPE   C3410381   6.719   5.789  -0.203  0.5075 -0.3940 -0.4508
  102SAPE   H4X10382   6.733   5.898  -0.220  2.0077 -0.0647  2.2641
  102SAPE   H4Y10383   6.610   5.769  -0.202  0.9128 -3.6944 -3.1751
  102SAPE   C3510384   6.777   5.726  -0.327 -0.1223 -0.4560  0.3051
  102SAPE   H5X10385   6.792   5.616  -0.333 -0.4449 -0.4407 -1.0403
  102SAPE   H5Y10386   6.875   5.773  -0.349 -0.5276 -0.4325 -1.5936
  102SAPE   C3610387   6.690   5.763  -0.454 -0.7757  0.5644  0.1364
  102SAPE   H6X10388   6.623   5.849  -0.431 -3.2759 -0.9393 -1.0534
  102SAPE   H6Y10389   6.616   5.682  -0.473  0.1619 -0.0290 -1.1305
  102SAPE   C3710390   6.774   5.793  -0.575 -1.0095 -0.6507  0.6355
  102SAPE   H7X10391   6.835   5.705  -0.603 -1.3866 -0.6705 -0.1765
  102SAPE   H7Y10392   6.846   5.868  -0.535 -0.6410 -1.7504  2.0991
  102SAPE   C3810393   6.711   5.839  -0.705 -0.0768 -0.5206  0.9985
  102SAPE   H8X10394   6.794   5.835  -0.780  0.9177  1.8174  1.8880
  102SAPE   H8Y10395   6.679   5.945  -0.699 -2.2459 -1.0259 -0.6749
  102SAPE   C3910396   6.599   5.752  -0.752  0.4678 -0.7970  0.2784
  102SAPE   H9X10397   6.519   5.740  -0.676  1.3846 -0.1872  1.3742
  102SAPE   H9Y10398   6.632   5.649  -0.777 -0.2293 -0.9242 -0.1318
  102SAPE  C31010399   6.534   5.819  -0.879 -0.2890  0.3764 -0.4557
  102SAPE  H10X10400   6.621   5.848  -0.942 -0.0036  0.8515  0.1467
  102SAPE  H10Y10401   6.475   5.911  -0.859  0.2933  0.7880 -0.6126
  102SAPE  C31110402   6.441   5.721  -0.943  0.0873  0.3133  0.2300
  102SAPE  H11X10403   6.356   5.740  -0.873  2.1888  3.3722  2.2074
  102SAPE  H11Y10404   6.472   5.615  -0.936 -0.4975  0.0534 -0.9042
  102SAPE  C31210405   6.394   5.759  -1.082  0.8147  0.5820  0.2992
  102SAPE  H12X10406   6.463   5.722  -1.160  0.2391 -1.0508  0.5324
  102SAPE  H12Y10407   6.388   5.868  -1.101 -2.7970  0.6180  0.8525
  102SAPE  C31310408   6.258   5.689  -1.127  0.4345 -0.0474 -0.1274
  102SAPE  H13X10409   6.171   5.713  -1.063  0.2313 -1.2214  0.0466
  102SAPE  H13Y10410   6.291   5.585  -1.107  1.5719 -0.2619 -2.6712
  102SAPE  C31410411   6.237   5.696  -1.277 -0.2392 -0.2440  0.0559
  102SAPE  H14X10412   6.321   5.668  -1.344 -0.3449  0.5098 -0.4064
  102SAPE  H14Y10413   6.220   5.805  -1.295 -0.5312 -0.2093  0.5445
  102SAPE  C31510414   6.112   5.624  -1.328  0.2157  0.1176  0.3738
  102SAPE  H15X10415   6.021   5.674  -1.291 -0.6390 -0.4766 -0.8496
  102SAPE  H15Y10416   6.122   5.520  -1.289  2.8081 -0.0557 -0.5592
  102SAPE  C31610417   6.094   5.617  -1.480 -0.4063 -0.2216 -0.1173
  102SAPE  H16X10418   6.191   5.592  -1.529 -1.0961 -1.9215 -0.6782
  102SAPE  H16Y10419   6.060   5.714  -1.523 -1.7381  0.2402  1.8274
  102SAPE  C31710420   5.993   5.503  -1.525  0.0582 -0.3524 -0.2373
  102SAPE  H17X10421   6.011   5.417  -1.458 -1.1293  0.4339  1.1428
  102SAPE  H17Y10422   6.018   5.480  -1.631  0.4448 -1.2205  0.0353
  102SAPE  C31810423   5.845   5.539  -1.518  0.1098 -0.2201  0.1246
  102SAPE  H18X10424   5.805   5.512  -1.418  2.6737 -1.0906  0.9851
  102SAPE  H18Y10425   5.786   5.478  -1.590  1.7772 -1.3526 -0.3179
  102SAPE  H18Z10426   5.831   5.649  -1.528  1.6382  0.1527  1.5961
  103SAPE     N10427   2.195   3.169   4.765  0.2008  0.0524 -0.6032
  103SAPE   HN110428   2.223   3.203   4.670 -0.7727  1.7125 -0.3420
  103SAPE   HN210429   2.092   3.154   4.771  0.3882 -1.4379 -0.6284
  103SAPE   HN310430   2.223   3.244   4.830 -1.4882 -0.9142  1.3573
  103SAPE   C1210431   2.269   3.043   4.807  1.1658 -0.3834 -0.6276
  103SAPE  H12A10432   2.375   3.076   4.800  0.6709  1.3302 -0.5285
  103SAPE  H12B10433   2.239   2.969   4.729  0.7621  2.0259 -2.9063
  103SAPE   C1110434   2.244   3.026   4.955 -0.1904 -0.3577 -0.5588
  103SAPE  H11A10435   2.247   3.121   5.013 -2.6689 -1.0689  0.8710
  103SAPE  H11B10436   2.312   2.956   5.007 -0.8511 -0.8439 -0.3361
  103SAPE     P10437   2.068   2.828   4.945  0.0948 -0.5774  0.0302
  103SAPE   O1310438   1.954   2.836   4.843 -0.0337  0.5665  0.0358
  103SAPE   O1410439   2.190   2.754   4.905  0.6876  0.5387 -0.3024
  103SAPE   O1210440   2.108   2.973   4.960  0.4159  0.3080 -0.0741
  103SAPE   O1110441   2.015   2.774   5.083  0.0055  0.3783  0.7284
  103SAPE    C110442   1.960   2.854   5.190 -0.2765  0.2537  0.4221
  103SAPE    HA10443   1.918   2.952   5.160  3.1976  2.2044  1.3697
  103SAPE    HB10444   1.876   2.794   5.232  0.4253 -0.9885  0.1241
  103SAPE    C210445   2.065   2.865   5.300 -0.2716 -0.5478  0.0293
  103SAPE    HS10446   2.162   2.899   5.257  0.6214 -2.4642  0.4273
  103SAPE   O2110447   2.082   2.740   5.359  0.1183  0.3238  0.2104
  103SAPE   C2110448   2.210   2.691   5.385  0.0358 -0.1232  0.0703
  103SAPE   O2210449   2.313   2.756   5.357 -0.1129 -0.5893 -0.5460
  103SAPE   C2210450   2.206   2.555   5.451  0.2878 -0.5753 -0.2300
  103SAPE   H2R10451   2.121   2.564   5.521  0.3920 -1.5480  0.0254
  103SAPE   H2S10452   2.172   2.482   5.375 -1.0604  0.3865 -0.5834
  103SAPE    C310453   2.027   2.965   5.414 -0.0956  0.7987  0.2217
  103SAPE    HX10454   1.926   2.931   5.443  0.4011 -0.2946  0.7272
  103SAPE    HY10455   2.025   3.071   5.378  2.4686  1.2697  1.2488
  103SAPE   O3110456   2.125   2.956   5.519 -0.0362  1.1135 -0.5920
  103SAPE   C3110457   2.173   3.069   5.572  0.1653 -0.0732 -0.2004
  103SAPE   O3210458   2.151   3.179   5.526  0.2894 -0.0340  0.9732
  103SAPE   C3210459   2.261   3.038   5.691 -0.3172  0.7975 -0.8609
  103SAPE   H2X10460   2.327   2.953   5.664 -0.7554  0.2669 -0.2907
  103SAPE   H2Y10461   2.193   3.006   5.772 -0.5802 -1.0988 -1.7910
  103SAPE   C2310462   2.328   2.507   5.528  0.2511  0.4856  0.1176
  103SAPE   H3R10463   2.346   2.582   5.607 -1.2783  0.5462  0.4455
  103SAPE   H3S10464   2.419   2.489   5.467 -0.4061  0.2269 -0.8139
  103SAPE   C2410465   2.292   2.369   5.592  0.6599 -0.5526 -0.2155
  103SAPE   H4R10466   2.387   2.323   5.626  0.0707 -0.4855  1.6003
  103SAPE   H4S10467   2.260   2.303   5.509  2.8910  0.9120 -2.3979
  103SAPE   C2510468   2.176   2.365   5.694  0.1950 -0.3009  0.6428
  103SAPE   H5R10469   2.091   2.431   5.673  2.1010  1.8388 -0.8257
  103SAPE   C2610470   2.176   2.295   5.812  0.0595 -0.3915  0.6275
  103SAPE   H6R10471   2.091   2.305   5.882 -0.7141  0.0127 -0.3404
  103SAPE   C2710472   2.286   2.199   5.854  0.8167  0.1812 -0.7808
  103SAPE   H7R10473   2.347   2.168   5.767  0.2820 -1.3298 -0.6448
  103SAPE   H7S10474   2.232   2.104   5.877  1.2899 -0.2386 -1.3701
  103SAPE   C2810475   2.351   2.257   5.976  0.2043  0.4701  0.3421
  103SAPE   H8R10476   2.406   2.350   5.956 -1.8851  1.6204 -0.3647
  103SAPE   C2910477   2.355   2.199   6.095  0.9735 -0.3192  0.6670
  103SAPE   H9R10478   2.400   2.264   6.172 -0.7221  1.1654  0.4863
  103SAPE  C21010479   2.280   2.077   6.138  0.0438 -0.6301  0.6251
  103SAPE  H10R10480   2.357   2.000   6.156  1.5266  0.1000 -2.0326
  103SAPE  H10S10481   2.210   2.044   6.058 -0.2492  0.5253  0.3768
  103SAPE  C21110482   2.181   2.113   6.244 -0.2646 -0.4183 -0.5200
  103SAPE  H11R10483   2.084   2.153   6.211  0.7935  3.7220  0.8922
  103SAPE  C21210484   2.217   2.113   6.370 -0.4457 -0.2827  0.0222
  103SAPE  H12R10485   2.138   2.154   6.435 -1.4082 -0.8855 -0.7287
  103SAPE  C21310486   2.346   2.065   6.433 -0.0869  0.1802 -0.3197
  103SAPE  H13R10487   2.374   2.135   6.515  1.3954 -2.2933  1.4281
  103SAPE  H13S10488   2.429   2.071   6.360 -1.2588  0.4444 -1.6890
  103SAPE  C21410489   2.333   1.932   6.494 -0.7667  0.6577  0.4544
  103SAPE  H14R10490   2.410   1.867   6.451 -1.2221  0.8785 -0.7189
  103SAPE  C21510491   2.263   1.884   6.600  0.0126  0.8871  0.1052
  103SAPE  H15R10492   2.275   1.781   6.637 -0.7275  0.9707  0.5866
  103SAPE  C21610493   2.184   1.979   6.694 -0.3590 -0.3217  0.4222
  103SAPE  H16R10494   2.076   1.955   6.689 -0.0772 -1.4180 -1.1942
  103SAPE  H16S10495   2.194   2.084   6.661  1.5001  0.0622  2.0283
  103SAPE  C21710496   2.246   1.967   6.833 -0.3850 -0.2225  0.7589
  103SAPE  H17R10497   2.349   2.008   6.819  1.1904 -3.9392  0.0609
  103SAPE  H17S10498   2.266   1.861   6.862  2.3317  0.2029  0.7008
  103SAPE  C21810499   2.170   2.039   6.947 -0.1387  0.0167 -0.0359
  103SAPE  H18R10500   2.075   1.990   6.976 -0.8079  1.7840  0.8861
  103SAPE  H18S10501   2.146   2.143   6.915  1.3420 -0.1215 -1.6918
  103SAPE  C21910502   2.266   2.054   7.062  0.1926 -0.8084 -0.6120
  103SAPE  H19R10503   2.356   2.110   7.028 -0.2900 -0.6768 -1.7374
  103SAPE  H19S10504   2.295   1.957   7.107 -0.3648  0.3814  2.5251
  103SAPE  C22010505   2.199   2.128   7.186 -0.5333 -0.5643  0.3870
  103SAPE  H20R10506   2.104   2.083   7.223  0.7941 -3.0131  1.0087
  103SAPE  H20S10507   2.181   2.231   7.149 -0.7544 -1.3593 -1.8728
  103SAPE  H20T10508   2.271   2.131   7.270 -0.9658 -0.0084  0.7442
  103SAPE   C3310509   2.349   3.154   5.729  0.1182 -0.0251 -0.3323
  103SAPE   H3X10510   2.400   3.201   5.642 -0.8897  1.2924 -0.2454
  103SAPE   H3Y10511   2.430   3.110   5.792 -0.0388 -2.0991 -1.4847
  103SAPE   C3410512   2.278   3.268   5.806 -0.2307  0.0335  0.2418
  103SAPE   H4X10513   2.204   3.315   5.739 -1.2006 -0.4202  0.9713
  103SAPE   H4Y10514   2.354   3.347   5.826 -1.1153  1.1186 -0.5632
  103SAPE   C3510515   2.204   3.235   5.939  0.0717 -0.0628  0.1836
  103SAPE   H5X10516   2.115   3.169   5.936 -0.5146  0.6417  1.4032
  103SAPE   H5Y10517   2.164   3.331   5.978 -0.1981  0.6708 -1.7862
  103SAPE   C3610518   2.304   3.183   6.047 -0.2547  0.2133  0.2600
  103SAPE   H6X10519   2.401   3.234   6.032 -0.1462 -0.2672 -0.8335
  103SAPE   H6Y10520   2.319   3.075   6.023  0.1870 -0.3168  2.6743
  103SAPE   C3710521   2.247   3.186   6.189 -0.3585  0.5825 -0.5592
  103SAPE   H7X10522   2.149   3.133   6.183  0.0840 -0.2487 -0.5823
  103SAPE   H7Y10523   2.242   3.293   6.218  1.3481  0.7461 -0.7789
  103SAPE   C3810524   2.326   3.101   6.290  0.0986  0.2041 -0.6632
  103SAPE   H8X10525   2.434   3.125   6.284  0.7090 -2.2020 -0.3644
  103SAPE   H8Y10526   2.309   2.995   6.261 -0.2214  0.1759 -0.3759
  103SAPE   C3910527   2.278   3.122   6.440 -0.2569 -0.4528 -0.0766
  103SAPE   H9X10528   2.175   3.164   6.431 -0.6174 -1.1331  0.7981
  103SAPE   H9Y10529   2.346   3.203   6.472 -1.7604  0.5699  0.6457
  103SAPE  C31010530   2.281   2.991   6.524  0.2842 -1.4201  0.2759
  103SAPE  H10X10531   2.388   2.963   6.509  0.4332 -0.1970 -1.3157
  103SAPE  H10Y10532   2.220   2.925   6.458  1.6805 -4.3005  1.7015
  103SAPE  C31110533   2.241   3.002   6.670 -0.4989  0.0299  0.2806
  103SAPE  H11X10534   2.174   2.920   6.703  0.6336 -0.3998  1.5716
  103SAPE  H11Y10535   2.182   3.095   6.685  0.4005  0.4917  1.0770
  103SAPE  C31210536   2.368   3.007   6.757  1.0118  0.6745 -0.0469
  103SAPE  H12X10537   2.422   3.101   6.729  0.8398  0.3364 -1.6322
  103SAPE  H12Y10538   2.421   2.914   6.729  0.2064  0.7778 -2.0887
  103SAPE  C31310539   2.326   3.005   6.902  0.0909 -0.6653 -0.6293
  103SAPE  H13X10540   2.251   2.926   6.921  0.6800 -1.1455 -0.2481
  103SAPE  H13Y10541   2.281   3.105   6.919  1.3497  0.0617 -1.3597
  103SAPE  C31410542   2.438   2.988   6.997 -0.7454  0.0356  0.4352
  103SAPE  H14X10543   2.518   3.060   6.970 -1.2856  0.2272 -0.7069
  103SAPE  H14Y10544   2.482   2.886   6.993 -0.2770  0.2105  0.8972
  103SAPE  C31510545   2.406   3.026   7.141  0.3197 -0.2080 -0.3229
  103SAPE  H15X10546   2.303   2.993   7.164  0.1115  0.5965 -0.0612
  103SAPE  H15Y10547   2.407   3.137   7.150  0.4313 -0.1894 -0.5549
  103SAPE  C31610548   2.500   2.972   7.249 -1.0372  0.3177  0.2623
  103SAPE  H16X10549   2.598   3.011   7.214 -1.4857 -0.0162 -1.4658
  103SAPE  H16Y10550   2.515   2.863   7.258 -1.3313  0.1070 -1.4387
  103SAPE  C31710551   2.471   3.034   7.388  0.8033 -0.3514 -0.0772
  103SAPE  H17X10552   2.379   2.982   7.420  0.3864  1.0084  1.0358
  103SAPE  H17Y10553   2.456   3.143   7.372  2.7556  0.1187  0.8682
  103SAPE  C31810554   2.577   2.998   7.490  0.2996  0.2768  0.8991
  103SAPE  H18X10555   2.677   3.039   7.463 -0.0194  1.2220  1.0955
  103SAPE  H18Y10556   2.595   2.891   7.512  0.3665  0.2806  0.8615
  103SAPE  H18Z10557   2.541   3.048   7.583 -2.9640 -0.1516 -0.0031
  104SAPE     N10558   2.821   0.632   5.333  0.0664 -0.2219 -0.3391
  104SAPE   HN110559   2.722   0.630   5.364  0.1769 -0.7806  0.0004
  104SAPE   HN210560   2.820   0.632   5.229  1.4138 -1.3687 -0.3947
  104SAPE   HN310561   2.874   0.548   5.364  0.8471  0.5591  0.4841
  104SAPE   C1210562   2.892   0.751   5.396  0.2794  0.3800 -0.5746
  104SAPE  H12A10563   2.920   0.712   5.497  0.5108 -4.6449 -2.2698
  104SAPE  H12B10564   2.837   0.847   5.386 -0.0639  0.0368 -2.2668
  104SAPE   C1110565   3.018   0.778   5.308  0.0671 -0.1707  0.2846
  104SAPE  H11A10566   3.093   0.700   5.332 -0.2809 -0.9327 -1.0103
  104SAPE  H11B10567   3.055   0.872   5.355  0.2646 -0.8241  1.4674
  104SAPE     P10568   2.978   0.925   5.087  0.1834  0.4407  0.1779
  104SAPE   O1310569   3.114   0.978   5.095  0.2447 -0.0427 -0.6233
  104SAPE   O1410570   2.919   0.915   4.951 -0.2701 -0.1370  0.1525
  104SAPE   O1210571   2.970   0.786   5.172  0.2363 -0.0571  0.1676
  104SAPE   O1110572   2.890   1.013   5.183  0.7759  0.2090 -0.3489
  104SAPE    C110573   2.743   1.016   5.164  0.1802 -0.2759  0.2254
  104SAPE    HA10574   2.735   1.084   5.077 -2.3495 -1.7115 -0.7694
  104SAPE    HB10575   2.697   0.915   5.154 -0.7299  0.1682 -0.1677
  104SAPE    C210576   2.672   1.092   5.274 -0.1661  0.1898 -0.3174
  104SAPE    HS10577   2.689   1.200   5.253  1.1821 -0.4839 -3.2418
  104SAPE   O2110578   2.730   1.046   5.398  0.0419  0.1760 -0.1645
  104SAPE   C2110579   2.825   1.120   5.457 -0.1047  0.5639  0.0511
  104SAPE   O2210580   2.862   1.230   5.424 -0.2765  0.0467  0.0124
  104SAPE   C2210581   2.888   1.043   5.574  0.2702  0.5064  0.6832
  104SAPE   H2R10582   2.840   0.943   5.582 -1.5654  1.1788 -1.0249
  104SAPE   H2S10583   2.998   1.032   5.562  0.3324  0.7762  1.0219
  104SAPE    C310584   2.522   1.069   5.281  0.0364 -0.0603  0.2131
  104SAPE    HX10585   2.509   0.967   5.323  1.5552 -0.3860 -0.0460
  104SAPE    HY10586   2.469   1.075   5.183 -2.7274  2.6669  1.7041
  104SAPE   O3110587   2.464   1.184   5.362  0.2655  0.0594  0.3970
  104SAPE   C3110588   2.456   1.146   5.489 -1.0700 -0.0399 -0.4016
  104SAPE   O3210589   2.488   1.039   5.542  0.2664 -0.3081 -0.0833
  104SAPE   C3210590   2.393   1.262   5.573  0.0018 -0.9268 -0.2368
  104SAPE   H2X10591   2.286   1.239   5.558 -0.0844 -2.1324  1.7339
  104SAPE   H2Y10592   2.420   1.353   5.517  0.5976 -1.9655 -1.7113
  104SAPE   C2310593   2.861   1.123   5.702  0.1423 -0.1058 -0.1802
  104SAPE   H3R10594   2.759   1.164   5.710  1.2094  2.3682  2.6344
  104SAPE   H3S10595   2.911   1.222   5.694 -0.7988  0.5125  1.3431
  104SAPE   C2410596   2.912   1.057   5.832  0.3443 -0.3327  0.6643
  104SAPE   H4R10597   2.900   1.142   5.902  1.2526  0.2300  0.1568
  104SAPE   H4S10598   3.020   1.032   5.822  0.8845  2.3123 -1.6453
  104SAPE   C2510599   2.829   0.938   5.873  0.2587 -0.3169 -0.4579
  104SAPE   H5R10600   2.846   0.844   5.818  0.6528 -0.8505  0.5536
  104SAPE   C2610601   2.722   0.945   5.954 -0.5319  0.0499  0.6184
  104SAPE   H6R10602   2.674   0.852   5.986 -1.7752 -0.6167 -2.7178
  104SAPE   C2710603   2.672   1.074   6.018  0.0464 -0.0883 -0.5101
  104SAPE   H7R10604   2.674   1.164   5.952  0.0881  0.0972 -0.2554
  104SAPE   H7S10605   2.740   1.102   6.100 -1.3729 -0.5337  0.8690
  104SAPE   C2810606   2.533   1.047   6.073  0.1925  0.5822  0.4324
  104SAPE   H8R10607   2.454   1.018   6.003  0.4046  0.9410  0.0406
  104SAPE   C2910608   2.495   1.061   6.201 -0.0950  0.6773 -0.3017
  104SAPE   H9R10609   2.394   1.043   6.240 -0.4175 -0.5951 -1.6480
  104SAPE  C21010610   2.585   1.101   6.319  0.1521 -0.3996  0.5497
  104SAPE  H10R10611   2.686   1.063   6.293 -0.7710 -1.5623 -1.5964
  104SAPE  H10S10612   2.548   1.044   6.407  1.0485 -2.6039 -0.4188
  104SAPE  C21110613   2.595   1.249   6.346  0.2458  0.0095 -0.1356
  104SAPE  H11R10614   2.605   1.310   6.255  1.2398 -0.0936 -0.1070
  104SAPE  C21210615   2.616   1.302   6.467  0.6863 -0.0608  0.1235
  104SAPE  H12R10616   2.656   1.405   6.473 -2.1376  1.0514  2.1288
  104SAPE  C21310617   2.601   1.232   6.603  0.3632  0.2493 -0.0561
  104SAPE  H13R10618   2.660   1.293   6.675  1.8442 -1.6178  0.4175
  104SAPE  H13S10619   2.659   1.137   6.596  0.5629  0.3080  0.6968
  104SAPE  C21410620   2.467   1.171   6.656 -0.3523 -0.6168  0.2998
  104SAPE  H14R10621   2.395   1.131   6.583  0.2218  0.6686 -1.0264
  104SAPE  C21510622   2.444   1.156   6.786  0.2748 -0.6423  0.1508
  104SAPE  H15R10623   2.344   1.121   6.815 -1.1174  0.5057 -2.8434
  104SAPE  C21610624   2.535   1.177   6.906 -0.0342  0.6359  0.2512
  104SAPE  H16R10625   2.634   1.217   6.875 -0.5847  0.5290 -1.7866
  104SAPE  H16S10626   2.554   1.076   6.949 -0.3219  0.5378  0.1507
  104SAPE  C21710627   2.467   1.277   7.002 -0.0737  0.6528  0.0409
  104SAPE  H17R10628   2.364   1.238   7.016 -0.1645  1.5193  2.1281
  104SAPE  H17S10629   2.474   1.374   6.947 -0.2404 -0.9185 -2.9610
  104SAPE  C21810630   2.547   1.274   7.133  0.4949 -0.4312 -0.4232
  104SAPE  H18R10631   2.656   1.264   7.112  0.5164  0.7076 -0.9039
  104SAPE  H18S10632   2.516   1.184   7.190 -1.7620  1.0012  0.7620
  104SAPE  C21910633   2.518   1.404   7.219 -0.2744  0.2119 -0.4433
  104SAPE  H19R10634   2.527   1.497   7.158 -1.8887  0.4855 -0.3102
  104SAPE  H19S10635   2.587   1.409   7.305 -1.1504  0.3081  0.2649
  104SAPE  C22010636   2.373   1.401   7.280 -0.7666 -0.2140  0.4221
  104SAPE  H20R10637   2.354   1.483   7.353  1.0293  0.1633  0.4879
  104SAPE  H20S10638   2.353   1.305   7.332 -2.3772  0.4575  1.1184
  104SAPE  H20T10639   2.304   1.413   7.194 -1.2094 -2.9795  0.3135
  104SAPE   C3310640   2.443   1.267   5.721 -0.1436  0.4455 -0.3130
  104SAPE   H3X10641   2.543   1.315   5.713  0.1986 -0.3279 -0.7165
  104SAPE   H3Y10642   2.453   1.168   5.770 -0.2371  1.2810  1.4700
  104SAPE   C3410643   2.345   1.360   5.807 -0.0441 -0.1222  0.6360
  104SAPE   H4X10644   2.240   1.323   5.810 -0.0896 -0.3648 -1.8743
  104SAPE   H4Y10645   2.354   1.463   5.767  1.4331  0.4348  2.3035
  104SAPE   C3510646   2.379   1.375   5.960  0.3472  0.5450  0.3914
  104SAPE   H5X10647   2.480   1.406   5.995  0.8265 -1.9662  1.4846
  104SAPE   H5Y10648   2.384   1.268   5.992  0.8760  0.8284  1.3059
  104SAPE   C3610649   2.263   1.435   6.041 -0.3728 -0.1553 -0.1384
  104SAPE   H6X10650   2.165   1.405   5.999  0.1987 -2.8844  0.2765
  104SAPE   H6Y10651   2.273   1.544   6.059 -0.3549 -0.1791 -0.0041
  104SAPE   C3710652   2.275   1.375   6.179 -0.7420  0.2287  0.1913
  104SAPE   H7X10653   2.381   1.382   6.213 -0.5368  1.9322 -0.6866
  104SAPE   H7Y10654   2.236   1.272   6.164 -2.6436  0.6420  1.9023
  104SAPE   C3810655   2.187   1.448   6.285 -0.4839  0.5703 -0.0549
  104SAPE   H8X10656   2.087   1.401   6.278  0.6322 -1.6992 -2.4130
  104SAPE   H8Y10657   2.201   1.556   6.262  1.6380  0.3056 -0.2098
  104SAPE   C3910658   2.251   1.424   6.422  0.0627 -0.4185  0.0391
  104SAPE   H9X10659   2.358   1.452   6.412 -0.6088  2.1227 -0.9450
  104SAPE   H9Y10660   2.259   1.316   6.446  1.6987 -0.3067  0.0809
  104SAPE  C31010661   2.174   1.494   6.529 -0.3643  0.1230  0.2313
  104SAPE  H10X10662   2.066   1.482   6.504 -0.4442  0.8126  0.2376
  104SAPE  H10Y10663   2.203   1.601   6.517 -0.4913  0.3255  1.6154
  104SAPE  C31110664   2.206   1.435   6.670  0.6245  0.1730 -0.0968
  104SAPE  H11X10665   2.311   1.417   6.704  0.6892 -1.0112 -0.8582
  104SAPE  H11Y10666   2.165   1.332   6.676  2.2853 -0.4852  0.5712
  104SAPE  C31210667   2.141   1.514   6.786  0.7395 -0.5411 -0.0690
  104SAPE  H12X10668   2.034   1.492   6.767  0.2137  3.3012 -2.6103
  104SAPE  H12Y10669   2.157   1.624   6.787 -0.1180 -0.4072 -0.2221
  104SAPE  C31310670   2.178   1.457   6.923  0.0519 -0.4103  0.3163
  104SAPE  H13X10671   2.287   1.469   6.943 -0.0420  1.8271 -0.1407
  104SAPE  H13Y10672   2.162   1.349   6.905  0.7547 -0.2728 -1.4183
  104SAPE  C31410673   2.092   1.522   7.026  0.4554 -0.3226 -0.0765
  104SAPE  H14X10674   2.066   1.462   7.116 -0.6049  1.7541  1.0752
  104SAPE  H14Y10675   1.991   1.549   6.990 -1.6853 -4.7369  1.9004
  104SAPE  C31510676   2.154   1.655   7.075  0.1294 -0.0780  0.3319
  104SAPE  H15X10677   2.193   1.723   6.996  1.9180 -0.2596  1.0227
  104SAPE  H15Y10678   2.241   1.622   7.135  0.1813 -0.4761  0.0436
  104SAPE  C31610679   2.076   1.726   7.182 -0.2657  0.7265 -0.1902
  104SAPE  H16X10680   1.987   1.732   7.116  1.1067 -0.1196 -2.2179
  104SAPE  H16Y10681   2.116   1.829   7.196  0.4178  0.4822 -0.3069
  104SAPE  C31710682   2.045   1.643   7.306  0.9803 -0.4919 -0.2482
  104SAPE  H17X10683   2.146   1.606   7.335  1.1469 -0.6585 -1.0144
  104SAPE  H17Y10684   1.974   1.565   7.273  0.2189  0.9665 -2.1778
  104SAPE  C31810685   1.985   1.721   7.427 -0.7392 -0.2674  0.3881
  104SAPE  H18X10686   1.931   1.810   7.387  2.4608  1.2917 -0.7934
  104SAPE  H18Y10687   2.066   1.768   7.487  3.2732 -1.6226 -3.4379
  104SAPE  H18Z10688   1.925   1.655   7.493 -0.8308 -2.1753 -1.5106
  105SAPE     N10689   3.841   3.553   5.405 -0.6210  0.6853  0.2239
  105SAPE   HN110690   3.865   3.456   5.435 -1.2006  0.4547 -0.0410
  105SAPE   HN210691   3.818   3.558   5.304  1.9345 -0.9288 -0.5530
  105SAPE   HN310692   3.925   3.610   5.428 -1.2093  1.4130  0.5889
  105SAPE   C1210693   3.729   3.593   5.499 -0.1931 -0.2963  0.0744
  105SAPE  H12A10694   3.644   3.525   5.476 -0.6139  0.6126 -1.1724
  105SAPE  H12B10695   3.705   3.696   5.466 -0.1502 -0.3603 -0.1642
  105SAPE   C1110696   3.767   3.589   5.643  0.1548  0.1024 -0.2735
  105SAPE  H11A10697   3.803   3.488   5.671 -0.8271 -0.3573 -0.6204
  105SAPE  H11B10698   3.683   3.617   5.711  1.9781  3.2305  0.9391
  105SAPE     P10699   3.886   3.752   5.802 -0.2648 -0.1381  0.5997
  105SAPE   O1310700   4.028   3.773   5.826 -0.6228 -0.6035  0.1097
  105SAPE   O1410701   3.797   3.874   5.794 -0.5731 -0.2330  0.4799
  105SAPE   O1210702   3.872   3.676   5.664 -0.0785  0.3673 -0.2907
  105SAPE   O1110703   3.829   3.649   5.911 -0.2643  0.6788  0.1406
  105SAPE    C110704   3.895   3.632   6.041  0.0915  1.0251 -0.3018
  105SAPE    HA10705   3.856   3.541   6.090  0.7313  1.3959  0.9337
  105SAPE    HB10706   3.999   3.599   6.021 -0.2820  0.9918 -2.5099
  105SAPE    C210707   3.869   3.760   6.132  0.7501 -0.5723  0.1241
  105SAPE    HS10708   3.907   3.842   6.069  2.3038 -2.1612 -1.1109
  105SAPE   O2110709   3.951   3.761   6.254 -0.4235  0.3159  0.2591
  105SAPE   C2110710   3.972   3.879   6.308 -0.6838  0.8833  0.1760
  105SAPE   O2210711   3.941   3.984   6.259 -0.0408 -0.0729  0.0085
  105SAPE   C2210712   4.042   3.868   6.441  0.3553 -0.3748  0.0188
  105SAPE   H2R10713   3.963   3.894   6.513 -1.3642 -1.6824 -1.3079
  105SAPE   H2S10714   4.090   3.771   6.466  1.3323  0.8242  3.2260
  105SAPE    C310715   3.715   3.783   6.156 -0.6785 -0.1462 -0.0575
  105SAPE    HX10716   3.676   3.786   6.052  1.3326 -0.9939 -0.9025
  105SAPE    HY10717   3.683   3.870   6.218 -0.8239 -0.7984  0.7991
  105SAPE   O3110718   3.662   3.670   6.227  0.4584  0.3602  0.6445
  105SAPE   C3110719   3.665   3.675   6.358  0.4625  0.2258 -0.4754
  105SAPE   O3210720   3.703   3.770   6.427  0.1382  0.0286  0.1658
  105SAPE   C3210721   3.587   3.555   6.408 -0.0085  0.5080 -0.0973
  105SAPE   H2X10722   3.637   3.460   6.380  2.1143  1.5174  0.1102
  105SAPE   H2Y10723   3.484   3.551   6.367 -0.2187 -5.4791  0.2343
  105SAPE   C2310724   4.149   3.986   6.463  0.1495 -0.5620 -0.3554
  105SAPE   H3R10725   4.094   4.081   6.453 -0.9838 -1.3311 -1.9133
  105SAPE   H3S10726   4.228   3.986   6.384  0.3044 -3.8741 -0.3538
  105SAPE   C2410727   4.216   3.970   6.598 -0.2188 -0.7234 -1.1622
  105SAPE   H4R10728   4.244   4.075   6.621  0.0101 -0.8223 -0.9755
  105SAPE   H4S10729   4.315   3.920   6.601  0.3789  0.4131 -1.2553
  105SAPE   C2510730   4.136   3.917   6.716 -0.1693 -0.2762  0.5090
  105SAPE   H5R10731   4.159   3.811   6.738 -1.5039 -0.5782  0.5780
  105SAPE   C2610732   4.036   3.980   6.792 -0.5249 -0.0750  0.8357
  105SAPE   H6R10733   3.991   3.921   6.873  1.1209 -1.3623  0.8739
  105SAPE   C2710734   3.979   4.117   6.788  0.2642 -0.5332  0.0272
  105SAPE   H7R10735   3.869   4.116   6.769  0.6984 -1.8220 -2.9834
  105SAPE   H7S10736   4.031   4.178   6.711  2.8656 -0.0232  2.0425
  105SAPE   C2810737   3.988   4.192   6.920  1.0111 -0.2829 -0.2855
  105SAPE   H8R10738   3.889   4.215   6.962  2.1409  3.0413  0.9101
  105SAPE   C2910739   4.092   4.226   6.989 -0.8170  0.7602  0.2614
  105SAPE   H9R10740   4.080   4.287   7.079 -0.6528  0.5988  0.3950
  105SAPE  C21010741   4.240   4.198   6.960  0.0676 -0.3338 -0.5592
  105SAPE  H10R10742   4.294   4.290   6.992 -0.7020 -0.2406  0.5158
  105SAPE  H10S10743   4.245   4.194   6.849 -1.4195  1.1862 -0.7313
  105SAPE  C21110744   4.306   4.078   7.023 -0.7357  0.9023 -0.3169
  105SAPE  H11R10745   4.303   4.001   6.944  1.5387 -2.0007  2.1674
  105SAPE  C21210746   4.377   4.060   7.141 -0.5338 -0.3606  0.4780
  105SAPE  H12R10747   4.428   3.965   7.159 -2.2713 -1.5918 -0.7688
  105SAPE  C21310748   4.394   4.167   7.249  0.1330  0.4236 -1.1565
  105SAPE  H13R10749   4.295   4.210   7.273  0.4527  1.3413 -1.4651
  105SAPE  H13S10750   4.453   4.252   7.210  0.7010 -0.0289 -1.3038
  105SAPE  C21410751   4.449   4.123   7.389 -0.1072 -0.0872  0.2165
  105SAPE  H14R10752   4.375   4.099   7.467 -1.3680 -1.4669 -1.3338
  105SAPE  C21510753   4.576   4.101   7.427  0.1552 -0.1214  0.2350
  105SAPE  H15R10754   4.600   4.066   7.528  1.4421  2.1141  0.7635
  105SAPE  C21610755   4.691   4.109   7.326 -0.7688 -0.1173  0.0671
  105SAPE  H16R10756   4.734   4.211   7.334  1.0651 -0.6085 -2.2902
  105SAPE  H16S10757   4.665   4.112   7.218  1.0975 -1.7408 -0.4843
  105SAPE  C21710758   4.794   4.006   7.360  0.2627 -0.1158 -0.9468
  105SAPE  H17R10759   4.818   4.028   7.467  0.9983  0.8631 -1.2982
  105SAPE  H17S10760   4.893   4.032   7.318  0.7786 -0.3000  0.1071
  105SAPE  C21810761   4.764   3.862   7.321  0.2245  0.1847  0.3070
  105SAPE  H18R10762   4.658   3.838   7.344  0.0223  0.5390 -0.2401
  105SAPE  H18S10763   4.819   3.795   7.390  0.3824 -0.5213 -0.4857
  105SAPE  C21910764   4.790   3.838   7.164 -0.4402  0.5755 -0.3331
  105SAPE  H19R10765   4.900   3.839   7.147 -0.5357 -0.9940 -1.2697
  105SAPE  H19S10766   4.745   3.924   7.111 -0.4157  1.0025  0.3244
  105SAPE  C22010767   4.729   3.714   7.098  0.3471 -0.2199 -0.4827
  105SAPE  H20R10768   4.620   3.728   7.111  0.3826 -1.3908  1.5438
  105SAPE  H20S10769   4.757   3.623   7.155  0.0447  1.4170  2.4937
  105SAPE  H20T10770   4.758   3.719   6.991  2.7944  0.4957  0.1538
  105SAPE   C3310771   3.566   3.548   6.558  0.3363 -0.8177 -0.1418
  105SAPE   H3X10772   3.660   3.551   6.617 -0.2140 -1.2544  0.7907
  105SAPE   H3Y10773   3.515   3.454   6.589 -1.5615 -0.2310 -1.3279
  105SAPE   C3410774   3.460   3.655   6.618 -0.5119 -0.1722 -0.2264
  105SAPE   H4X10775   3.376   3.655   6.545 -1.6725  1.7949  1.0358
  105SAPE   H4Y10776   3.515   3.751   6.604 -0.6836 -0.0002  0.2874
  105SAPE   C3510777   3.425   3.627   6.763 -0.2662 -0.0927 -0.4005
  105SAPE   H5X10778   3.379   3.527   6.773 -0.7964  0.1899  0.0860
  105SAPE   H5Y10779   3.347   3.704   6.781 -0.9215 -1.2273  1.9933
  105SAPE   C3610780   3.529   3.648   6.866 -0.5686 -0.0126  0.2495
  105SAPE   H6X10781   3.603   3.565   6.876 -1.1145 -0.3014  2.3010
  105SAPE   H6Y10782   3.476   3.669   6.961  0.5328  0.2390  0.8347
  105SAPE   C3710783   3.609   3.778   6.847 -0.5183  0.0873 -0.3707
  105SAPE   H7X10784   3.553   3.872   6.830 -1.2343  0.0257  1.4034
  105SAPE   H7Y10785   3.667   3.756   6.754 -0.3497 -2.0349  0.1744
  105SAPE   C3810786   3.704   3.808   6.962  0.6592 -0.1042 -0.3175
  105SAPE   H8X10787   3.656   3.830   7.060 -0.1577 -0.7591 -0.5564
  105SAPE   H8Y10788   3.753   3.907   6.952  1.1350 -0.0812  1.6768
  105SAPE   C3910789   3.810   3.701   6.987  0.0971 -0.3091  0.2613
  105SAPE   H9X10790   3.853   3.694   6.885 -1.6327 -2.5052 -0.4015
  105SAPE   H9Y10791   3.767   3.600   7.006  1.0927 -0.2504  3.4269
  105SAPE  C31010792   3.908   3.719   7.107 -0.0615  0.4792 -0.7185
  105SAPE  H10X10793   3.854   3.737   7.203 -1.2087 -1.4949 -0.9279
  105SAPE  H10Y10794   3.976   3.807   7.099 -1.0118  1.3407  0.2834
  105SAPE  C31110795   4.006   3.596   7.122 -0.2353 -0.7693  0.0731
  105SAPE  H11X10796   4.007   3.555   7.018  1.5119  0.6230 -0.5052
  105SAPE  H11Y10797   3.951   3.513   7.171 -1.0651 -1.5047 -1.9524
  105SAPE  C31210798   4.133   3.617   7.199 -0.2409  0.3242  0.9362
  105SAPE  H12X10799   4.160   3.513   7.226  0.0275  0.0002 -0.4798
  105SAPE  H12Y10800   4.108   3.677   7.289 -1.3127 -0.9078  1.4817
  105SAPE  C31310801   4.235   3.681   7.112  0.1559 -0.3756 -1.0937
  105SAPE  H13X10802   4.323   3.697   7.178 -0.4186 -0.0323 -0.3904
  105SAPE  H13Y10803   4.207   3.788   7.101  0.1879  0.0445  1.9779
  105SAPE  C31410804   4.262   3.612   6.976  0.1054 -0.6399  0.1671
  105SAPE  H14X10805   4.195   3.656   6.900  1.7835  0.2412 -0.8658
  105SAPE  H14Y10806   4.250   3.502   6.989  0.4415 -0.4436  2.6009
  105SAPE  C31510807   4.410   3.643   6.924  0.3880  0.4020  0.3548
  105SAPE  H15X10808   4.485   3.572   6.965  1.1504  1.2028  0.3897
  105SAPE  H15Y10809   4.446   3.743   6.958 -0.5197  1.0545 -0.5300
  105SAPE  C31610810   4.419   3.638   6.773  0.2637 -0.2608  0.5929
  105SAPE  H16X10811   4.332   3.688   6.727  0.5574  0.4622  0.8085
  105SAPE  H16Y10812   4.424   3.533   6.737  1.7248  0.0556 -0.2043
  105SAPE  C31710813   4.555   3.687   6.732 -0.5397  0.2445 -0.8279
  105SAPE  H17X10814   4.625   3.647   6.808  0.6234  2.8678 -0.3849
  105SAPE  H17Y10815   4.565   3.797   6.747 -1.3693  0.4408 -1.6416
  105SAPE  C31810816   4.594   3.649   6.593  0.5739  0.2015  0.5013
  105SAPE  H18X10817   4.701   3.674   6.575  0.9639 -0.3487  1.9447
  105SAPE  H18Y10818   4.521   3.707   6.533 -2.3541  1.1253  4.5384
  105SAPE  H18Z10819   4.573   3.541   6.584 -0.1415  0.1798  2.0479
  106SAPE     N10820   5.640   3.338   5.586  0.0098  0.2049 -0.0898
  106SAPE   HN110821   5.575   3.363   5.663  1.6288  0.9232  1.0986
  106SAPE   HN210822   5.723   3.294   5.630 -0.0556 -0.0217 -0.1952
  106SAPE   HN310823   5.664   3.433   5.550  0.4149 -0.4756 -1.6909
  106SAPE   C1210824   5.589   3.251   5.474  0.3150 -0.9249 -0.7342
  106SAPE  H12A10825   5.496   3.295   5.432  0.4697  0.2357  0.0589
  106SAPE  H12B10826   5.566   3.154   5.522 -0.6775 -0.2930  0.1381
  106SAPE   C1110827   5.686   3.242   5.352  0.5412 -0.6600  0.4555
  106SAPE  H11A10828   5.674   3.337   5.295  0.2486 -0.1381  1.3625
  106SAPE  H11B10829   5.648   3.158   5.290  0.5601  0.8691 -1.7480
  106SAPE     P10830   5.915   3.171   5.287 -0.0846  0.7067  0.0928
  106SAPE   O1310831   5.864   3.045   5.216 -0.7002  0.8757 -0.0788
  106SAPE   O1410832   5.947   3.284   5.193 -0.3477 -0.8448  0.0904
  106SAPE   O1210833   5.813   3.222   5.395 -0.7763  0.1161 -0.0562
  106SAPE   O1110834   6.047   3.128   5.363  0.0642  0.2596  0.0108
  106SAPE    C110835   6.034   3.050   5.487 -0.3692 -0.2788 -0.3690
  106SAPE    HA10836   5.971   3.098   5.565 -0.7137  0.2226 -0.9472
  106SAPE    HB10837   5.986   2.950   5.483 -0.6428 -0.2626  1.6345
  106SAPE    C210838   6.171   3.033   5.560 -0.6908  0.7940  0.5459
  106SAPE    HS10839   6.150   3.061   5.665  0.1487  1.4659  0.5496
  106SAPE   O2110840   6.270   3.117   5.510 -0.2617 -0.8984 -0.7741
  106SAPE   C2110841   6.272   3.246   5.538  0.5065  0.6421 -0.4495
  106SAPE   O2210842   6.196   3.301   5.614 -0.7987 -0.0671  0.4919
  106SAPE   C2210843   6.398   3.320   5.493  0.5216  1.0077  1.2150
  106SAPE   H2R10844   6.378   3.375   5.399  0.5000 -2.1862 -0.7755
  106SAPE   H2S10845   6.427   3.389   5.575  1.2105  1.7039  0.4026
  106SAPE    C310846   6.232   2.887   5.550 -0.3142  0.0914 -0.3626
  106SAPE    HX10847   6.261   2.877   5.443  2.3676  2.1554  0.0885
  106SAPE    HY10848   6.147   2.819   5.574  0.7552 -1.3033 -0.4571
  106SAPE   O3110849   6.342   2.865   5.643  0.0915  0.3625 -0.9039
  106SAPE   C3110850   6.464   2.844   5.597  0.7268 -0.6492 -0.6377
  106SAPE   O3210851   6.493   2.832   5.482  0.1643 -0.0194  0.2089
  106SAPE   C3210852   6.553   2.844   5.712  0.7915  0.1007  0.4496
  106SAPE   H2X10853   6.501   2.877   5.805 -1.2612 -2.5299  0.3615
  106SAPE   H2Y10854   6.639   2.909   5.684 -1.5042  3.1837  0.0618
  106SAPE   C2310855   6.521   3.224   5.466 -0.8314  0.1378 -0.2459
  106SAPE   H3R10856   6.595   3.289   5.416  0.8963 -0.0316  1.9357
  106SAPE   H3S10857   6.481   3.141   5.405 -2.5296 -0.2884  1.3322
  106SAPE   C2410858   6.593   3.168   5.593 -0.0372 -0.3714 -0.3206
  106SAPE   H4R10859   6.665   3.092   5.556  1.1541  0.9124 -0.7399
  106SAPE   H4S10860   6.507   3.120   5.645  0.4759 -1.1547 -0.1762
  106SAPE   C2510861   6.666   3.269   5.682  0.4936  0.6571 -0.4456
  106SAPE   H5R10862   6.723   3.341   5.622  0.2582  1.3257  0.1281
  106SAPE   C2610863   6.666   3.291   5.815  0.3391 -0.1163 -0.8114
  106SAPE   H6R10864   6.736   3.361   5.863  0.7690 -0.2404 -1.2569
  106SAPE   C2710865   6.577   3.208   5.911 -0.6490 -0.1542 -0.0444
  106SAPE   H7R10866   6.638   3.157   5.988  3.3120  0.7745 -2.2997
  106SAPE   H7S10867   6.520   3.134   5.851 -0.6294  0.8028 -1.2917
  106SAPE   C2810868   6.486   3.318   5.969 -0.7868  0.4746  0.1658
  106SAPE   H8R10869   6.408   3.372   5.913 -0.5533  1.4431  0.7484
  106SAPE   C2910870   6.488   3.359   6.098  0.6841  0.2177 -0.2328
  106SAPE   H9R10871   6.405   3.428   6.119 -0.2618 -0.1843 -2.3983
  106SAPE  C21010872   6.568   3.314   6.217  0.4181 -0.5056  0.1038
  106SAPE  H10R10873   6.673   3.296   6.186  0.1462 -1.3127 -0.4080
  106SAPE  H10S10874   6.525   3.215   6.244 -0.8219  0.0306  0.1305
  106SAPE  C21110875   6.564   3.408   6.335  0.4502 -0.9079 -0.0252
  106SAPE  H11R10876   6.485   3.484   6.333  1.9449  0.7312  0.2704
  106SAPE  C21210877   6.651   3.420   6.433 -1.1119 -0.7102 -0.2823
  106SAPE  H12R10878   6.645   3.506   6.500  0.6961 -0.3546 -0.5294
  106SAPE  C21310879   6.780   3.343   6.460  1.1285  0.0832 -0.2454
  106SAPE  H13R10880   6.846   3.409   6.522  1.3577 -0.4382  0.0713
  106SAPE  H13S10881   6.829   3.339   6.360 -1.0347 -2.4613 -1.3102
  106SAPE  C21410882   6.773   3.201   6.517  0.7332  0.6879  0.0535
  106SAPE  H14R10883   6.690   3.185   6.588  0.3638  1.5236 -0.1673
  106SAPE  C21510884   6.853   3.099   6.488 -0.9354 -0.2647 -0.6284
  106SAPE  H15R10885   6.840   2.998   6.528 -2.3221  0.0413 -0.2600
  106SAPE  C21610886   6.969   3.113   6.397 -0.4414  0.2583  1.3659
  106SAPE  H16R10887   7.057   3.060   6.439 -0.5104 -1.8227 -0.8672
  106SAPE  H16S10888   7.005   3.217   6.385  1.4776 -0.4401  0.5363
  106SAPE  C21710889   6.929   3.062   6.257  0.0845  0.4182 -0.3180
  106SAPE  H17R10890   6.839   3.116   6.220 -0.1481 -0.3723 -0.9245
  106SAPE  H17S10891   6.889   2.959   6.264 -0.5453  0.7072  0.6904
  106SAPE  C21810892   7.045   3.061   6.161 -0.6620 -0.5326 -0.3190
  106SAPE  H18R10893   7.119   2.986   6.196  0.4331  0.5458 -0.2546
  106SAPE  H18S10894   7.097   3.159   6.172  0.2881 -1.1335  0.7477
  106SAPE  C21910895   7.024   3.025   6.009  0.4503  0.1251  0.6573
  106SAPE  H19R10896   6.969   3.107   5.957  0.4668 -0.8449 -0.9771
  106SAPE  H19S10897   6.960   2.935   5.998 -0.4644  0.6189  1.7126
  106SAPE  C22010898   7.152   3.008   5.939 -0.5679 -0.1524 -0.3742
  106SAPE  H20R10899   7.130   3.012   5.830 -2.8500 -1.5675 -0.0287
  106SAPE  H20S10900   7.202   2.911   5.959 -0.9504 -0.3339 -0.2852
  106SAPE  H20T10901   7.230   3.086   5.948 -0.4458  0.1919 -3.2773
  106SAPE   C3310902   6.600   2.701   5.751 -0.2889 -0.0785  0.2553
  106SAPE   H3X10903   6.654   2.661   5.662  1.1666  1.3455  0.4485
  106SAPE   H3Y10904   6.524   2.627   5.784  1.4604 -1.7629  0.7059
  106SAPE   C3410905   6.686   2.707   5.874  0.0130  0.0507 -0.1338
  106SAPE   H4X10906   6.766   2.781   5.855 -1.6921  1.6857 -1.2796
  106SAPE   H4Y10907   6.728   2.605   5.885 -0.6158 -0.3465 -1.2542
  106SAPE   C3510908   6.628   2.738   6.002  0.4910 -0.3078 -0.5145
  106SAPE   H5X10909   6.533   2.686   6.026  1.5160 -1.1413  2.2091
  106SAPE   H5Y10910   6.616   2.849   6.009  0.6366 -0.3238  0.0956
  106SAPE   C3610911   6.720   2.721   6.123 -0.3499 -0.2628 -0.3152
  106SAPE   H6X10912   6.797   2.801   6.119 -2.5581  2.0153  0.0055
  106SAPE   H6Y10913   6.773   2.624   6.126  0.3017  0.0529 -1.2314
  106SAPE   C3710914   6.629   2.746   6.247 -0.1321  0.2129 -0.0830
  106SAPE   H7X10915   6.535   2.686   6.249  1.1133 -1.7998  1.0327
  106SAPE   H7Y10916   6.600   2.853   6.256 -0.0722  0.3655 -1.4951
  106SAPE   C3810917   6.697   2.702   6.383  0.0405  0.0918 -0.1049
  106SAPE   H8X10918   6.803   2.734   6.372  0.3226 -1.3794 -2.3208
  106SAPE   H8Y10919   6.686   2.595   6.409 -2.0798  0.7835  2.1846
  106SAPE   C3910920   6.627   2.769   6.504  0.4489 -0.1993  0.3014
  106SAPE   H9X10921   6.522   2.732   6.507  0.6423 -0.9573 -1.2608
  106SAPE   H9Y10922   6.621   2.879   6.489  2.9293 -0.2306 -1.3636
  106SAPE  C31010923   6.705   2.739   6.633 -0.0702 -0.8274 -0.3154
  106SAPE  H10X10924   6.799   2.797   6.635 -0.8519  0.4538  1.2125
  106SAPE  H10Y10925   6.732   2.632   6.630 -0.7014 -0.9742 -1.8148
  106SAPE  C31110926   6.639   2.780   6.764  0.2641 -0.8035  0.3114
  106SAPE  H11X10927   6.555   2.710   6.782 -0.6624  0.2029  0.0481
  106SAPE  H11Y10928   6.595   2.882   6.754 -0.5470 -1.1943 -0.2157
  106SAPE  C31210929   6.735   2.778   6.885  1.2857  0.4475  0.4252
  106SAPE  H12X10930   6.827   2.840   6.871  1.3261  0.4319  0.6109
  106SAPE  H12Y10931   6.766   2.673   6.905  1.3027 -0.5042 -3.7054
  106SAPE  C31310932   6.659   2.827   7.014 -0.6049 -0.4977 -0.0409
  106SAPE  H13X10933   6.576   2.754   7.027 -0.5628 -0.1271  3.1991
  106SAPE  H13Y10934   6.605   2.918   6.982 -1.3985 -0.8743  0.2009
  106SAPE  C31410935   6.749   2.837   7.136  0.1042 -0.3509 -0.2464
  106SAPE  H14X10936   6.783   2.942   7.141 -0.9287  0.0404 -1.0225
  106SAPE  H14Y10937   6.839   2.771   7.140  0.0874 -0.4043 -0.6744
  106SAPE  C31510938   6.672   2.813   7.257 -0.3569  0.2980 -0.0027
  106SAPE  H15X10939   6.746   2.797   7.339 -0.8372  2.5006  0.9505
  106SAPE  H15Y10940   6.622   2.715   7.247 -1.8603  1.0575 -0.2866
  106SAPE  C31610941   6.565   2.918   7.299 -0.2767  0.1077  0.2352
  106SAPE  H16X10942   6.502   2.948   7.213 -1.9691 -2.4291  0.5058
  106SAPE  H16Y10943   6.620   2.999   7.352 -0.0360 -0.8399  1.4766
  106SAPE  C31710944   6.475   2.874   7.414  0.0269 -0.0028  0.2225
  106SAPE  H17X10945   6.444   2.973   7.454  1.1126  1.3014 -1.9888
  106SAPE  H17Y10946   6.532   2.826   7.497  0.8947 -1.1498 -0.9906
  106SAPE  C31810947   6.364   2.786   7.360  0.6169  0.6905 -0.2637
  106SAPE  H18X10948   6.296   2.746   7.439  0.6298  2.1812  0.5451
  106SAPE  H18Y10949   6.413   2.708   7.299 -0.0761  2.0081 -2.6149
  106SAPE  H18Z10950   6.293   2.833   7.288  0.0109 -1.7478 -1.3324
  107SAPE     N10951   6.121   1.192   5.314 -0.6981  0.1484  0.1492
  107SAPE   HN110952   6.164   1.133   5.239 -2.8927 -0.6489 -0.5588
  107SAPE   HN210953   6.035   1.152   5.357  0.5084 -2.1362  0.6212
  107SAPE   HN310954   6.104   1.286   5.273 -1.7502 -0.3028 -0.4830
  107SAPE   C1210955   6.248   1.212   5.398 -0.3991 -0.4357 -0.6416
  107SAPE  H12A10956   6.212   1.235   5.501  0.3410  1.1756 -0.7243
  107SAPE  H12B10957   6.301   1.299   5.354  2.4473 -2.9506 -2.5341
  107SAPE   C1110958   6.333   1.086   5.403 -0.3493 -0.3448  0.0191
  107SAPE  H11A10959   6.265   1.010   5.448  0.6371 -1.0379  0.3531
  107SAPE  H11B10960   6.423   1.099   5.467  0.9667 -0.3715 -1.7575
  107SAPE     P10961   6.499   1.085   5.189 -0.2948 -0.3105 -0.3127
  107SAPE   O1310962   6.532   0.977   5.091 -0.2955 -0.2861 -0.2413
  107SAPE   O1410963   6.485   1.223   5.141 -0.8492  0.4022 -0.1866
  107SAPE   O1210964   6.365   1.050   5.267  0.3517  0.6975 -0.1528
  107SAPE   O1110965   6.618   1.087   5.295  0.3674 -0.0970  0.4595
  107SAPE    C110966   6.708   0.976   5.302  0.5302  0.3966 -0.4312
  107SAPE    HA10967   6.738   0.933   5.204 -0.0452  0.7237 -0.7622
  107SAPE    HB10968   6.803   1.022   5.338 -0.0029  1.5236 -0.4216
  107SAPE    C210969   6.656   0.866   5.394 -0.0551  1.1289 -0.5956
  107SAPE    HS10970   6.583   0.799   5.344  0.8477 -1.3865  1.2646
  107SAPE   O2110971   6.596   0.926   5.513 -0.2720  0.1944 -0.0972
  107SAPE   C2110972   6.522   0.857   5.586 -0.4751  0.1430 -0.4268
  107SAPE   O2210973   6.478   0.743   5.566 -0.0515 -0.3116  0.7983
  107SAPE   C2210974   6.488   0.937   5.715  0.5778 -0.3681 -0.0178
  107SAPE   H2R10975   6.576   0.983   5.765  0.6122 -0.8799  0.3934
  107SAPE   H2S10976   6.422   1.015   5.670 -0.1246 -0.5168  0.7397
  107SAPE    C310977   6.763   0.761   5.439 -0.4472  0.0276 -1.2076
  107SAPE    HX10978   6.790   0.708   5.345  0.5146 -1.8799  0.0770
  107SAPE    HY10979   6.720   0.684   5.506 -1.5812  1.0297 -0.7624
  107SAPE   O3110980   6.875   0.820   5.499 -0.2474 -0.1698  0.1622
  107SAPE   C3110981   6.893   0.821   5.629  0.2842 -0.3414 -0.0759
  107SAPE   O3210982   6.823   0.767   5.711 -0.0543 -0.2548  0.3421
  107SAPE   C3210983   7.019   0.908   5.668  0.8749  1.2393 -0.2557
  107SAPE   H2X10984   7.042   0.977   5.585 -0.2454  2.0148  0.0656
  107SAPE   H2Y10985   7.104   0.836   5.679  0.6539  1.0931  0.6066
  107SAPE   C2310986   6.409   0.846   5.814 -0.5870  0.3694  0.2973
  107SAPE   H3R10987   6.487   0.787   5.867  0.3161  0.1455 -1.2221
  107SAPE   H3S10988   6.351   0.768   5.761 -0.0399  0.7272 -0.8654
  107SAPE   C2410989   6.319   0.939   5.898 -0.8724 -0.1756 -0.5191
  107SAPE   H4R10990   6.266   0.883   5.977  2.1032  0.9340  2.5332
  107SAPE   H4S10991   6.243   0.978   5.827 -2.5705  2.0332  2.2768
  107SAPE   C2510992   6.379   1.069   5.957  0.4559  0.2870 -0.4058
  107SAPE   H5R10993   6.409   1.145   5.883  1.0663  0.3993 -0.0561
  107SAPE   C2610994   6.415   1.088   6.085 -0.2992 -0.7357 -0.3150
  107SAPE   H6R10995   6.456   1.185   6.119  0.3024 -0.2763 -2.2086
  107SAPE   C2710996   6.380   1.004   6.200 -0.2756  0.0520 -0.7606
  107SAPE   H7R10997   6.290   0.949   6.166  1.5901 -2.6564 -1.5944
  107SAPE   H7S10998   6.351   1.066   6.287  1.7147 -2.5380  1.9384
  107SAPE   C2810999   6.485   0.910   6.240  0.2315  0.0028  0.1064
  107SAPE   H8R11000   6.563   0.895   6.164  0.0611 -0.7241  0.0629
  107SAPE   C2911001   6.506   0.850   6.353 -0.5321 -0.0998 -0.4571
  107SAPE   H9R11002   6.590   0.778   6.358  0.7685  1.3479 -0.8382
  107SAPE  C21011003   6.408   0.862   6.462  0.2186 -0.2739 -0.5588
  107SAPE  H10R11004   6.405   0.766   6.517  1.3984  2.0237  4.0461
  107SAPE  H10S11005   6.302   0.884   6.436 -0.0021 -0.0751  0.4575
  107SAPE  C21111006   6.456   0.963   6.565 -0.2189 -0.8854 -0.1915
  107SAPE  H11R11007   6.520   1.042   6.523  0.7236 -0.9654  1.0477
  107SAPE  C21211008   6.435   0.963   6.698  0.0393  0.2621  0.6026
  107SAPE  H12R11009   6.473   1.057   6.741  2.6025  1.2541 -3.2393
  107SAPE  C21311010   6.345   0.864   6.768 -0.0754  0.7561  0.6275
  107SAPE  H13R11011   6.371   0.763   6.732 -2.2314  0.3850 -0.0275
  107SAPE  H13S11012   6.242   0.879   6.729  0.4348 -2.9966 -2.7127
  107SAPE  C21411013   6.350   0.859   6.917  0.2286  0.1298 -0.4891
  107SAPE  H14R11014   6.424   0.787   6.955 -1.1903 -0.1605  1.8981
  107SAPE  C21511015   6.296   0.944   7.011 -0.4216  0.4002 -0.7494
  107SAPE  H15R11016   6.312   0.912   7.115 -2.1425 -0.2198 -0.6393
  107SAPE  C21611017   6.183   1.044   6.993 -0.6835 -0.2480 -0.3595
  107SAPE  H16R11018   6.156   1.058   6.886  1.3878 -0.7342 -0.9987
  107SAPE  H16S11019   6.224   1.141   7.028 -1.5782 -0.6465  1.9131
  107SAPE  C21711020   6.058   1.009   7.079 -0.0940 -0.9003  0.0196
  107SAPE  H17R11021   6.021   0.908   7.053  1.1357 -0.8562 -2.0733
  107SAPE  H17S11022   5.981   1.080   7.041  1.3407 -0.2661 -1.8028
  107SAPE  C21811023   6.055   1.020   7.234  0.3675 -0.0002 -0.0954
  107SAPE  H18R11024   5.948   1.035   7.260 -0.4888 -2.1158 -2.1408
  107SAPE  H18S11025   6.115   1.104   7.276 -0.1399  1.1199 -1.5167
  107SAPE  C21911026   6.099   0.892   7.308  0.2067  0.4024  0.5301
  107SAPE  H19R11027   6.206   0.863   7.296  0.2901  1.2747 -1.0150
  107SAPE  H19S11028   6.042   0.805   7.270 -0.8070  0.2207  2.3664
  107SAPE  C22011029   6.077   0.905   7.460 -0.0164  0.3722 -0.1280
  107SAPE  H20R11030   6.132   0.989   7.506  2.1065 -0.0605 -1.7220
  107SAPE  H20S11031   6.101   0.809   7.511 -0.1883  0.4992  0.1892
  107SAPE  H20T11032   5.969   0.927   7.477  0.0415  1.2651 -0.8753
  107SAPE   C3311033   6.996   0.999   5.787  0.1044  0.4245  0.5954
  107SAPE   H3X11034   6.904   1.059   5.766 -0.1295 -0.0400  0.2709
  107SAPE   H3Y11035   7.076   1.076   5.787 -0.4088  0.9735  0.6343
  107SAPE   C3411036   6.998   0.928   5.921  0.0958 -0.1812  0.2802
  107SAPE   H4X11037   7.088   0.864   5.934  1.0721  1.1746  0.4260
  107SAPE   H4Y11038   6.907   0.865   5.932  0.2438 -1.1541 -2.9993
  107SAPE   C3511039   6.998   1.032   6.034  0.1149 -0.1572  0.1459
  107SAPE   H5X11040   6.934   1.115   5.998  1.1464 -0.2754 -2.1477
  107SAPE   H5Y11041   7.101   1.072   6.044  0.2995 -0.3799 -0.7270
  107SAPE   C3611042   6.947   0.970   6.160 -0.0120  0.4656  0.3329
  107SAPE   H6X11043   7.004   0.879   6.190  1.1475  0.8274 -0.7184
  107SAPE   H6Y11044   6.844   0.929   6.159 -1.1688  3.1725  0.0039
  107SAPE   C3711045   6.951   1.068   6.280 -0.4635 -0.7334  0.1706
  107SAPE   H7X11046   6.888   1.158   6.258  0.0852 -0.8087 -1.8827
  107SAPE   H7Y11047   7.048   1.112   6.311 -0.6001  1.9949 -2.7677
  107SAPE   C3811048   6.905   0.999   6.411  0.5451  0.4419  0.5057
  107SAPE   H8X11049   6.979   0.917   6.422  0.0457 -0.4454 -2.0266
  107SAPE   H8Y11050   6.808   0.948   6.391  0.8247 -0.0913  0.4817
  107SAPE   C3911051   6.883   1.085   6.529 -0.5474  0.0014  0.5735
  107SAPE   H9X11052   6.820   1.171   6.500 -0.2018  0.1297  0.1986
  107SAPE   H9Y11053   6.981   1.129   6.557  0.9382 -2.7705  0.0954
  107SAPE  C31011054   6.825   1.006   6.649 -0.1746 -0.4702  0.2310
  107SAPE  H10X11055   6.901   0.926   6.655 -1.5610 -1.8479 -0.0499
  107SAPE  H10Y11056   6.732   0.953   6.620 -0.4264  1.2748 -2.5911
  107SAPE  C31111057   6.811   1.096   6.774 -0.0361  0.6034  0.2391
  107SAPE  H11X11058   6.729   1.170   6.760 -0.0310  0.7591  0.9691
  107SAPE  H11Y11059   6.910   1.140   6.794 -0.1568  1.3645 -0.7566
  107SAPE  C31211060   6.779   1.016   6.902  0.4565  0.8402  0.1193
  107SAPE  H12X11061   6.866   0.952   6.927 -0.3454 -0.8746 -1.2420
  107SAPE  H12Y11062   6.688   0.952   6.891 -0.9064  2.9426 -1.6703
  107SAPE  C31311063   6.749   1.097   7.032  0.5027 -0.3349  0.4184
  107SAPE  H13X11064   6.659   1.158   7.010 -0.6821 -1.2885  2.4198
  107SAPE  H13Y11065   6.830   1.172   7.049 -0.6527  0.7107  1.4774
  107SAPE  C31411066   6.715   1.021   7.158  0.2809 -0.2490 -0.3789
  107SAPE  H14X11067   6.633   0.945   7.151  0.4656 -0.9939  3.4209
  107SAPE  H14Y11068   6.667   1.090   7.231  0.0546 -0.7461 -0.0521
  107SAPE  C31511069   6.843   0.950   7.209  0.4591 -0.3117  1.2851
  107SAPE  H15X11070   6.930   1.019   7.215 -0.8690  1.4342  1.4806
  107SAPE  H15Y11071   6.868   0.858   7.152  0.0264 -0.3403  1.1363
  107SAPE  C31611072   6.821   0.896   7.347 -0.0644  0.2045  0.2894
  107SAPE  H16X11073   6.716   0.859   7.345  0.0814 -0.4212 -3.7433
  107SAPE  H16Y11074   6.835   0.980   7.419 -0.3134  1.3994 -0.9966
  107SAPE  C31711075   6.911   0.774   7.390  0.1091  0.7410  0.2702
  107SAPE  H17X11076   7.016   0.810   7.387  1.7032 -3.2451  0.9756
  107SAPE  H17Y11077   6.918   0.698   7.309  0.8888  2.5010 -1.3894
  107SAPE  C31811078   6.862   0.719   7.527  0.5900  0.6432 -0.7253
  107SAPE  H18X11079   6.923   0.628   7.544 -2.4441 -2.0983 -2.9904
  107SAPE  H18Y11080   6.753   0.697   7.520  0.1876  0.8508  3.0648
  107SAPE  H18Z11081   6.871   0.796   7.606 -0.6757  1.4720 -1.3562
  108SAPE     N11082   1.039   1.414   5.477  0.8895 -0.3017 -0.0317
  108SAPE   HN111083   1.012   1.394   5.576  2.0513 -2.2383 -0.0545
  108SAPE   HN211084   0.966   1.458   5.418  0.5762 -0.9899 -0.1627
  108SAPE   HN311085   1.037   1.317   5.441 -0.6509 -0.1289 -0.4783
  108SAPE   C1211086   1.175   1.466   5.453  0.6849 -0.3246 -0.3393
  108SAPE  H12A11087   1.230   1.432   5.544 -1.0669 -3.2279 -0.2520
  108SAPE  H12B11088   1.169   1.576   5.443  0.7588 -0.2433  0.4503
  108SAPE   C1111089   1.229   1.397   5.326  0.0739  0.1910 -0.6775
  108SAPE  H11A11090   1.326   1.450   5.312 -0.0889  1.1197  1.3278
  108SAPE  H11B11091   1.159   1.407   5.241 -1.2362 -0.5156  0.2889
  108SAPE     P11092   1.374   1.183   5.406  0.1409 -0.0014 -0.3291
  108SAPE   O1311093   1.359   1.047   5.348  0.2009  0.1670 -0.0118
  108SAPE   O1411094   1.487   1.259   5.360  0.1154 -0.1190 -0.4886
  108SAPE   O1211095   1.242   1.253   5.360  0.4672 -0.1767 -0.9822
  108SAPE   O1111096   1.375   1.179   5.569 -0.0244  0.2630  0.6013
  108SAPE    C111097   1.490   1.175   5.654  0.4195 -0.4164  0.6592
  108SAPE    HA11098   1.481   1.091   5.726  1.4100  0.5881  2.0146
  108SAPE    HB11099   1.582   1.150   5.595  1.4223  0.6256  1.7305
  108SAPE    C211100   1.516   1.308   5.732  0.6261 -0.6331 -0.0518
  108SAPE    HS11101   1.590   1.287   5.812 -0.1302 -0.0630  0.8174
  108SAPE   O2111102   1.396   1.368   5.792 -0.9162 -0.4121  0.3975
  108SAPE   C2111103   1.347   1.310   5.896  0.7319  0.4959 -0.3585
  108SAPE   O2211104   1.380   1.203   5.942  1.0699 -0.3384 -0.3547
  108SAPE   C2211105   1.221   1.375   5.940  0.3625 -0.4998 -0.5295
  108SAPE   H2R11106   1.252   1.451   6.015 -0.7205 -0.4572 -0.1070
  108SAPE   H2S11107   1.175   1.431   5.856 -1.5433 -1.6911 -0.3509
  108SAPE    C311108   1.585   1.400   5.626 -0.5147  0.0901 -0.3763
  108SAPE    HX11109   1.522   1.407   5.535 -0.3832  2.6117 -0.3308
  108SAPE    HY11110   1.681   1.347   5.605 -1.5576 -3.2833  2.3104
  108SAPE   O3111111   1.606   1.538   5.670 -0.1242  0.6520 -0.2232
  108SAPE   C3111112   1.515   1.630   5.654 -0.4478 -0.7043 -0.1108
  108SAPE   O3211113   1.409   1.615   5.591  0.4194  0.2572  0.3167
  108SAPE   C3211114   1.547   1.764   5.723 -0.1723  1.0463  0.5052
  108SAPE   H2X11115   1.460   1.830   5.702 -1.1463 -0.3459  0.0288
  108SAPE   H2Y11116   1.630   1.809   5.665  1.7215 -0.7901  1.6615
  108SAPE   C2311117   1.118   1.280   5.998  0.0361  0.5489 -0.8222
  108SAPE   H3R11118   1.170   1.209   6.066  0.3902 -0.9862 -2.6018
  108SAPE   H3S11119   1.085   1.205   5.923  2.6182 -2.2782  0.6332
  108SAPE   C2411120   1.008   1.346   6.072  0.7598 -0.1160 -0.9136
  108SAPE   H4R11121   0.928   1.271   6.092  2.4082 -1.8813 -0.6400
  108SAPE   H4S11122   0.956   1.425   6.013 -3.1763 -2.4231 -0.8973
  108SAPE   C2511123   1.056   1.414   6.197 -0.0703 -0.0044 -0.1707
  108SAPE   H5R11124   1.104   1.510   6.177  1.9690 -0.9294  0.0214
  108SAPE   C2611125   1.057   1.361   6.324 -0.5683  0.2654 -0.0733
  108SAPE   H6R11126   1.103   1.427   6.399 -0.4711  0.0698  0.0410
  108SAPE   C2711127   1.018   1.222   6.374  0.8894  0.4702 -0.2400
  108SAPE   H7R11128   1.080   1.145   6.322  0.5495 -0.6026  0.8968
  108SAPE   H7S11129   0.914   1.199   6.341  0.1813  2.2972  0.6035
  108SAPE   C2811130   1.040   1.217   6.526 -0.2051  0.2931  0.3144
  108SAPE   H8R11131   1.122   1.279   6.563 -0.4703  1.0551 -0.3209
  108SAPE   C2911132   0.963   1.162   6.620  1.2329  0.3110 -0.2627
  108SAPE   H9R11133   0.997   1.165   6.725 -3.7139  0.6493  1.5937
  108SAPE  C21011134   0.838   1.083   6.598  0.2414 -0.1962  0.4359
  108SAPE  H10R11135   0.825   1.012   6.682  0.3396 -0.4984  0.1971
  108SAPE  H10S11136   0.846   1.029   6.501 -2.4788  0.8415 -0.4714
  108SAPE  C21111137   0.707   1.155   6.589  0.6960 -0.3521  0.7444
  108SAPE  H11R11138   0.694   1.214   6.497 -0.2308 -0.3216  0.8831
  108SAPE  C21211139   0.591   1.133   6.662  0.3577 -1.0608  0.6770
  108SAPE  H12R11140   0.500   1.192   6.647 -0.7611 -2.8410  0.2350
  108SAPE  C21311141   0.591   1.039   6.776  0.4965  0.3660 -0.2863
  108SAPE  H13R11142   0.684   1.025   6.836  1.4251  0.3760 -1.6855
  108SAPE  H13S11143   0.582   0.939   6.728 -1.0181 -1.0570  2.6876
  108SAPE  C21411144   0.462   1.065   6.861 -0.0564  0.3060  0.5188
  108SAPE  H14R11145   0.364   1.028   6.826 -0.2636  2.2183 -1.0877
  108SAPE  C21511146   0.447   1.139   6.975 -0.7595 -0.0945  0.1805
  108SAPE  H15R11147   0.349   1.140   7.025 -0.4128  0.9149  0.8689
  108SAPE  C21611148   0.552   1.201   7.069  0.0687  0.7045  0.6614
  108SAPE  H16R11149   0.565   1.307   7.038 -0.2529  0.1047 -1.7071
  108SAPE  H16S11150   0.650   1.157   7.041 -0.5495 -0.1023 -0.2820
  108SAPE  C21711151   0.514   1.174   7.208  0.5675 -0.2789 -0.4656
  108SAPE  H17R11152   0.413   1.213   7.234  0.8332  0.1984 -0.1302
  108SAPE  H17S11153   0.586   1.227   7.275 -0.2479 -0.4039  0.5435
  108SAPE  C21811154   0.524   1.023   7.251 -0.1551  0.0182 -0.9502
  108SAPE  H18R11155   0.622   0.999   7.205  0.2637  0.9100 -0.5570
  108SAPE  H18S11156   0.439   0.971   7.202 -1.6751  0.4971  1.0203
  108SAPE  C21911157   0.524   0.992   7.400  0.6707  1.4895  0.0382
  108SAPE  H19R11158   0.432   1.034   7.445 -0.1396 -0.8805  0.7244
  108SAPE  H19S11159   0.608   1.045   7.451  2.1165 -1.5872  1.1250
  108SAPE  C22011160   0.544   0.845   7.437  0.2596 -0.5389  0.0764
  108SAPE  H20R11161   0.461   0.786   7.390  0.5569 -1.1133  0.2616
  108SAPE  H20S11162   0.534   0.823   7.545  0.2830 -1.4534 -0.0976
  108SAPE  H20T11163   0.639   0.803   7.396  0.3323  0.1231 -0.4446
  108SAPE   C3311164   1.589   1.741   5.871  0.5127  0.0945  0.5370
  108SAPE   H3X11165   1.641   1.834   5.901  0.2648  0.6103 -0.5915
  108SAPE   H3Y11166   1.658   1.655   5.872 -0.7468 -0.9651 -0.1141
  108SAPE   C3411167   1.464   1.711   5.950 -0.2651  0.0815 -0.1313
  108SAPE   H4X11168   1.430   1.607   5.927  0.2630 -0.5285  1.6954
  108SAPE   H4Y11169   1.380   1.775   5.916 -0.6154 -0.1072  0.3720
  108SAPE   C3511170   1.490   1.720   6.099 -0.0456 -0.0789 -0.1213
  108SAPE   H5X11171   1.573   1.651   6.127 -1.1014 -1.1721  0.4133
  108SAPE   H5Y11172   1.533   1.822   6.107  0.2254  0.0978 -2.9204
  108SAPE   C3611173   1.366   1.707   6.187  0.4323 -0.0907  0.3506
  108SAPE   H6X11174   1.320   1.606   6.176 -0.8528  0.6306 -1.3930
  108SAPE   H6Y11175   1.296   1.790   6.162  1.8273  1.1584  0.4592
  108SAPE   C3711176   1.398   1.700   6.334 -0.0673 -0.2625  0.1199
  108SAPE   H7X11177   1.450   1.796   6.353 -0.9778  0.0328  1.1852
  108SAPE   H7Y11178   1.467   1.617   6.360  2.5103  1.9249  0.6183
  108SAPE   C3811179   1.275   1.702   6.421 -0.3667  0.0804 -0.1000
  108SAPE   H8X11180   1.210   1.617   6.390 -1.9152  0.9723  0.6071
  108SAPE   H8Y11181   1.216   1.794   6.403 -2.5699 -0.9313  1.4539
  108SAPE   C3911182   1.325   1.684   6.566  0.0338  0.3633  0.1689
  108SAPE   H9X11183   1.368   1.779   6.603  3.1670 -1.1389  0.6691
  108SAPE   H9Y11184   1.416   1.622   6.568  0.4435  0.9549  1.9129
  108SAPE  C31011185   1.222   1.623   6.663  0.2005 -0.0472 -0.1156
  108SAPE  H10X11186   1.179   1.528   6.625 -0.6653  0.4168 -0.3462
  108SAPE  H10Y11187   1.150   1.705   6.685  1.0083  0.7611 -0.4302
  108SAPE  C31111188   1.286   1.586   6.798  0.7828  0.2555  0.0593
  108SAPE  H11X11189   1.331   1.680   6.838 -0.4213  0.9403 -0.1495
  108SAPE  H11Y11190   1.365   1.512   6.773  0.5375  0.5810 -1.8372
  108SAPE  C31211191   1.199   1.533   6.918  0.6036 -0.6379  0.6890
  108SAPE  H12X11192   1.126   1.614   6.940  1.5341  0.7928 -1.1483
  108SAPE  H12Y11193   1.262   1.509   7.005  0.1835 -2.7196  0.4688
  108SAPE  C31311194   1.131   1.404   6.896  0.0061 -0.4121  0.1274
  108SAPE  H13X11195   1.206   1.329   6.864 -1.5012 -0.3575 -4.1756
  108SAPE  H13Y11196   1.070   1.421   6.805  1.3628  1.6881 -0.4495
  108SAPE  C31411197   1.031   1.360   7.007 -0.1763  0.3688 -0.3273
  108SAPE  H14X11198   0.970   1.273   6.973 -0.5597  0.2362  0.6655
  108SAPE  H14Y11199   0.966   1.445   7.036 -1.9149 -0.6688 -1.0148
  108SAPE  C31511200   1.102   1.300   7.126 -0.0980  0.3054  0.6355
  108SAPE  H15X11201   1.208   1.286   7.095 -0.1957  0.5859  0.1843
  108SAPE  H15Y11202   1.065   1.200   7.160  1.8488 -0.4423  0.7306
  108SAPE  C31611203   1.088   1.387   7.252 -0.1039 -0.2401  0.7376
  108SAPE  H16X11204   0.983   1.382   7.288 -0.3934 -2.2054 -0.2293
  108SAPE  H16Y11205   1.133   1.485   7.225  2.8324 -1.1282  1.9840
  108SAPE  C31711206   1.177   1.346   7.376  0.0615  0.0520  0.3603
  108SAPE  H17X11207   1.280   1.319   7.342 -0.3274 -0.7892 -0.1787
  108SAPE  H17Y11208   1.138   1.255   7.426 -1.4088 -0.7281 -2.0691
  108SAPE  C31811209   1.189   1.462   7.472  0.1641  0.5775 -0.0482
  108SAPE  H18X11210   1.271   1.441   7.544  1.4263  0.0184 -1.5855
  108SAPE  H18Y11211   1.095   1.480   7.527 -0.4658 -1.0251 -0.5640
  108SAPE  H18Z11212   1.211   1.563   7.429  3.3974  0.3463  0.7437
  109SAPE     N11213   1.937   5.419   5.296 -0.2562  0.5242 -0.0541
  109SAPE   HN111214   1.893   5.350   5.360  1.9540  0.0598  1.0516
  109SAPE   HN211215   2.037   5.428   5.324  0.4173 -0.7600 -1.8206
  109SAPE   HN311216   1.888   5.511   5.301 -2.0613 -0.2580 -2.0960
  109SAPE   C1211217   1.930   5.366   5.158  0.2405  0.1054 -0.1927
  109SAPE  H12A11218   1.985   5.269   5.156 -0.6735 -0.4264 -2.1007
  109SAPE  H12B11219   1.994   5.429   5.092  0.7063 -0.8774 -0.7213
  109SAPE   C1111220   1.785   5.323   5.105 -0.0457 -0.1253 -0.3115
  109SAPE  H11A11221   1.735   5.245   5.167  1.7819 -1.8319 -0.8688
  109SAPE  H11B11222   1.806   5.267   5.011 -0.2600 -2.0200  0.7152
  109SAPE     P11223   1.627   5.523   5.160 -0.1904  0.3324 -0.4445
  109SAPE   O1311224   1.718   5.604   5.246  0.2809 -0.3920 -0.2327
  109SAPE   O1411225   1.534   5.596   5.074  0.2943  0.4203 -0.3145
  109SAPE   O1211226   1.703   5.430   5.064 -0.6127 -0.8858 -0.0739
  109SAPE   O1111227   1.551   5.417   5.247 -0.1149 -0.3070 -0.0911
  109SAPE    C111228   1.481   5.467   5.367 -0.3349  0.7623  0.2249
  109SAPE    HA11229   1.461   5.577   5.364 -0.2039  0.7686 -0.5832
  109SAPE    HB11230   1.380   5.420   5.364 -0.4719  1.0642 -0.0051
  109SAPE    C211231   1.556   5.431   5.498  0.4132  0.1205  0.1144
  109SAPE    HS11232   1.488   5.453   5.584 -0.0580 -1.9332  0.3214
  109SAPE   O2111233   1.680   5.497   5.509 -0.0026 -0.1648  0.0318
  109SAPE   C2111234   1.673   5.625   5.550  0.9045 -0.1505 -1.1031
  109SAPE   O2211235   1.570   5.690   5.566  0.0864 -0.8481  0.2467
  109SAPE   C2211236   1.814   5.675   5.570 -0.1336 -0.4661 -0.2070
  109SAPE   H2R11237   1.871   5.637   5.482  0.8862 -0.6526  0.5196
  109SAPE   H2S11238   1.816   5.786   5.562 -0.2649 -0.4072  0.5119
  109SAPE    C311239   1.589   5.281   5.494 -0.0755  0.3724  0.0829
  109SAPE    HX11240   1.650   5.253   5.406 -0.7774  2.8653 -1.3065
  109SAPE    HY11241   1.493   5.228   5.483 -0.1223 -0.1413  2.4460
  109SAPE   O3111242   1.653   5.229   5.613 -0.1101  0.4386  0.6951
  109SAPE   C3111243   1.787   5.219   5.601 -0.4631 -0.0012 -0.7010
  109SAPE   O3211244   1.856   5.253   5.506 -0.2284 -0.2623  0.1705
  109SAPE   C3211245   1.848   5.165   5.730 -0.4884 -0.3181 -0.4693
  109SAPE   H2X11246   1.954   5.197   5.730  0.0520 -2.0034 -0.2323
  109SAPE   H2Y11247   1.848   5.054   5.728  1.3192 -0.4220  1.6990
  109SAPE   C2311248   1.889   5.620   5.695  0.1000 -0.1224 -0.1359
  109SAPE   H3R11249   1.990   5.663   5.680  0.1126  0.7672  2.1937
  109SAPE   H3S11250   1.874   5.510   5.691 -0.9747 -0.1857  2.8739
  109SAPE   C2411251   1.839   5.690   5.827 -0.3288  0.8907  0.1615
  109SAPE   H4R11252   1.828   5.799   5.810 -0.6505  0.8245 -0.0507
  109SAPE   H4S11253   1.924   5.678   5.899 -1.0623  0.3867  0.9638
  109SAPE   C2511254   1.722   5.618   5.886  0.4024 -0.3833 -0.6588
  109SAPE   H5R11255   1.642   5.607   5.811 -0.6966  0.5940  0.3196
  109SAPE   C2611256   1.686   5.588   6.008  0.9597 -0.3588 -0.6956
  109SAPE   H6R11257   1.595   5.526   6.016 -0.1678  1.0914 -1.8226
  109SAPE   C2711258   1.756   5.600   6.146 -0.3688 -0.6070 -0.2695
  109SAPE   H7R11259   1.698   5.688   6.183  0.3565 -0.1967 -0.1010
  109SAPE   H7S11260   1.859   5.635   6.126 -1.1904  2.4723  0.2368
  109SAPE   C2811261   1.745   5.481   6.239  0.1072  0.1356  0.1520
  109SAPE   H8R11262   1.653   5.422   6.232  0.6697 -0.6600 -0.8181
  109SAPE   C2911263   1.841   5.438   6.320  0.0735 -0.6126 -0.1445
  109SAPE   H9R11264   1.818   5.347   6.378 -1.7863 -1.4049 -2.0048
  109SAPE  C21011265   1.983   5.486   6.348 -0.3423 -0.8145  0.3007
  109SAPE  H10R11266   1.989   5.555   6.434 -0.4006  0.3755 -0.6342
  109SAPE  H10S11267   2.014   5.549   6.262 -0.0124 -0.7528  0.4660
  109SAPE  C21111268   2.082   5.375   6.375  0.3348 -0.3508 -0.0135
  109SAPE  H11R11269   2.168   5.363   6.307  0.1744 -2.4513  0.0762
  109SAPE  C21211270   2.073   5.298   6.485  0.2909 -0.4518  0.8858
  109SAPE  H12R11271   2.144   5.216   6.500  2.1547  1.0374  0.6288
  109SAPE  C21311272   1.976   5.312   6.599  0.2268  0.6838  0.8563
  109SAPE  H13R11273   1.899   5.389   6.578 -1.9226 -1.6332 -0.2817
  109SAPE  H13S11274   2.021   5.359   6.689 -1.7235  0.3119  2.1024
  109SAPE  C21411275   1.907   5.176   6.620 -0.1825 -0.0352 -0.1154
  109SAPE  H14R11276   1.878   5.120   6.530  1.4427 -0.7609 -0.2205
  109SAPE  C21511277   1.886   5.118   6.734 -0.1842  0.4011 -0.7456
  109SAPE  H15R11278   1.819   5.031   6.740 -0.6639  0.8099 -0.0514
  109SAPE  C21611279   1.940   5.163   6.869  0.0634 -0.7945  0.2696
  109SAPE  H16R11280   2.005   5.252   6.861  0.1187 -0.9536 -1.2990
  109SAPE  H16S11281   1.993   5.077   6.915 -1.3215 -1.8913 -0.1344
  109SAPE  C21711282   1.833   5.212   6.969  0.2443  0.3769 -0.5098
  109SAPE  H17R11283   1.785   5.122   7.014  2.9195 -0.7882  0.1851
  109SAPE  H17S11284   1.754   5.268   6.913 -0.7306  0.1195  0.5615
  109SAPE  C21811285   1.883   5.295   7.087 -0.1860 -0.6145 -0.1437
  109SAPE  H18R11286   1.799   5.298   7.160  0.4674  0.4579  0.5946
  109SAPE  H18S11287   1.908   5.398   7.053  0.1177 -1.2060 -1.7652
  109SAPE  C21911288   2.018   5.256   7.152 -0.2260  0.9791 -0.6175
  109SAPE  H19R11289   2.045   5.307   7.246  0.9215 -0.3243 -0.2094
  109SAPE  H19S11290   2.097   5.283   7.079  0.8607  1.3686  0.6651
  109SAPE  C22011291   2.032   5.111   7.190  0.0438 -0.5465 -0.0761
  109SAPE  H20R11292   2.135   5.082   7.223 -0.3539 -1.4394  0.4090
  109SAPE  H20S11293   2.016   5.046   7.101 -0.9271 -0.0755 -0.2491
  109SAPE  H20T11294   1.951   5.091   7.263 -1.9309  2.2703 -1.3038
  109SAPE   C3311295   1.762   5.216   5.856 -0.3376  0.3635  0.3280
  109SAPE   H3X11296   1.659   5.181   5.835  0.1575 -0.0969 -1.5420
  109SAPE   H3Y11297   1.745   5.325   5.873 -1.7788 -0.0400  1.7334
  109SAPE   C3411298   1.821   5.148   5.979 -0.5528  0.2627 -0.5955
  109SAPE   H4X11299   1.907   5.208   6.016 -0.7501  1.0927 -1.4523
  109SAPE   H4Y11300   1.854   5.048   5.944  0.4090  0.8436 -1.4088
  109SAPE   C3511301   1.709   5.142   6.077  0.5208  0.6264  0.5059
  109SAPE   H5X11302   1.626   5.079   6.039  0.1134  0.1556  2.1080
  109SAPE   H5Y11303   1.662   5.242   6.091 -1.9064 -0.2414 -0.9577
  109SAPE   C3611304   1.750   5.078   6.211  0.6257 -0.2741  0.2336
  109SAPE   H6X11305   1.816   5.153   6.259 -1.0718  1.2301  0.3147
  109SAPE   H6Y11306   1.811   4.987   6.193  0.5188 -0.1059 -1.1030
  109SAPE   C3711307   1.637   5.041   6.304  0.2402  0.1691 -0.6264
  109SAPE   H7X11308   1.684   4.974   6.380  2.1608  2.7422  0.6057
  109SAPE   H7Y11309   1.553   4.986   6.257 -0.5512  0.7006  0.1440
  109SAPE   C3811310   1.577   5.165   6.381 -0.2614  0.1851  0.6098
  109SAPE   H8X11311   1.537   5.243   6.313  0.4234  1.1990  1.3452
  109SAPE   H8Y11312   1.673   5.200   6.424  0.3466 -1.6956  0.8841
  109SAPE   C3911313   1.474   5.140   6.485  0.3494 -0.4242  0.3556
  109SAPE   H9X11314   1.496   5.047   6.540 -0.4670  0.4176  2.1881
  109SAPE   H9Y11315   1.379   5.117   6.433  1.7989 -0.9726 -2.2112
  109SAPE  C31011316   1.451   5.248   6.589 -0.1949  0.6532  0.1146
  109SAPE  H10X11317   1.427   5.342   6.534 -2.4312 -0.7082 -1.3998
  109SAPE  H10Y11318   1.544   5.269   6.646  0.5146  3.2370 -1.8169
  109SAPE  C31111319   1.330   5.208   6.676 -0.4897  0.4736  0.1814
  109SAPE  H11X11320   1.351   5.131   6.753  0.4294  0.2435 -0.2893
  109SAPE  H11Y11321   1.250   5.165   6.613  0.4556 -1.4775  0.2446
  109SAPE  C31211322   1.277   5.327   6.758  0.2180  0.0206 -0.8030
  109SAPE  H12X11323   1.242   5.398   6.680  1.1385  1.2791 -0.1091
  109SAPE  H12Y11324   1.360   5.381   6.806  0.2438 -0.2029 -0.5924
  109SAPE  C31311325   1.176   5.284   6.870  0.0881 -0.4775  0.2459
  109SAPE  H13X11326   1.234   5.218   6.938  1.8041  0.5971 -0.1383
  109SAPE  H13Y11327   1.098   5.229   6.813 -1.6367  3.0959 -1.1570
  109SAPE  C31411328   1.127   5.396   6.963 -0.2516 -0.6869 -0.1567
  109SAPE  H14X11329   1.214   5.457   6.995 -1.4058  1.2923 -0.6373
  109SAPE  H14Y11330   1.067   5.357   7.048  0.7364  2.9007  2.4147
  109SAPE  C31511331   1.032   5.490   6.890 -0.4304 -0.3182  1.1646
  109SAPE  H15X11332   0.964   5.425   6.830 -0.5322 -0.6897  1.6760
  109SAPE  H15Y11333   1.092   5.557   6.825 -2.2506 -0.1493 -0.4391
  109SAPE  C31611334   0.948   5.582   6.983  0.8665  0.5588  0.3054
  109SAPE  H16X11335   0.900   5.518   7.060  1.1894  1.5784  1.4004
  109SAPE  H16Y11336   0.860   5.623   6.928 -2.1907 -3.9876  1.2035
  109SAPE  C31711337   1.036   5.674   7.065  0.2367 -0.0804  0.1514
  109SAPE  H17X11338   1.113   5.722   7.000 -1.0573 -1.9131 -2.9202
  109SAPE  H17Y11339   1.079   5.610   7.145 -0.9221  1.4968  2.1338
  109SAPE  C31811340   0.951   5.779   7.131  0.3589 -0.0859  0.0838
  109SAPE  H18X11341   0.921   5.861   7.063  2.1080  0.8706  0.4106
  109SAPE  H18Y11342   1.007   5.821   7.217  0.1247 -0.7680  0.5849
  109SAPE  H18Z11343   0.864   5.736   7.183  0.3217  1.9312  1.7964
  110SAPE     N11344   1.258   1.481   4.904  0.2951 -0.9662 -0.0674
  110SAPE   HN111345   1.165   1.447   4.871 -1.7520  1.8868  2.1873
  110SAPE   HN211346   1.311   1.404   4.950  0.4638 -0.9323 -0.2030
  110SAPE   HN311347   1.235   1.554   4.975 -1.7400 -0.9859 -0.6547
  110SAPE   C1211348   1.341   1.541   4.788 -0.0103  0.4597 -0.3825
  110SAPE  H12A11349   1.269   1.604   4.732  0.9529  0.3957 -1.7400
  110SAPE  H12B11350   1.369   1.456   4.723 -3.7526 -1.7340  0.5786
  110SAPE   C1111351   1.460   1.611   4.840 -0.7165 -0.1552  0.6410
  110SAPE  H11A11352   1.519   1.640   4.750 -0.2067 -0.4269  0.8857
  110SAPE  H11B11353   1.526   1.536   4.889 -0.1251 -0.2942 -0.3417
  110SAPE     P11354   1.536   1.843   4.950 -0.1898 -0.2741 -0.1579
  110SAPE   O1311355   1.577   1.902   4.817  0.2515  0.5474 -0.2230
  110SAPE   O1411356   1.469   1.939   5.039  0.0596 -0.1834 -0.0855
  110SAPE   O1211357   1.440   1.715   4.927  0.8455  0.1885 -0.6945
  110SAPE   O1111358   1.666   1.786   5.022  0.4449 -0.1887 -0.3675
  110SAPE    C111359   1.660   1.664   5.102  0.4613 -0.0486  0.5116
  110SAPE    HA11360   1.569   1.602   5.093  0.7415 -0.4553  0.4394
  110SAPE    HB11361   1.733   1.592   5.060  0.9637  0.6269  0.1948
  110SAPE    C211362   1.675   1.695   5.253  0.3307 -0.0005 -0.5289
  110SAPE    HS11363   1.643   1.601   5.304  1.0572 -0.2076 -0.4495
  110SAPE   O2111364   1.590   1.813   5.303  0.2382 -0.3261  0.2605
  110SAPE   C2111365   1.457   1.793   5.299 -0.3640 -0.2892 -0.7049
  110SAPE   O2211366   1.400   1.691   5.268 -0.0398 -0.4594 -0.7443
  110SAPE   C2211367   1.392   1.922   5.337 -0.0822  0.2369 -0.1673
  110SAPE   H2R11368   1.467   1.987   5.386  1.0449 -0.3279 -1.0969
  110SAPE   H2S11369   1.349   1.972   5.248  0.2272 -1.1876 -1.1548
  110SAPE    C311370   1.824   1.708   5.295 -0.7128  0.6893 -0.6465
  110SAPE    HX11371   1.887   1.625   5.257  0.5253  0.3979  1.8518
  110SAPE    HY11372   1.862   1.806   5.260  2.0669 -0.0259  0.0995
  110SAPE   O3111373   1.836   1.700   5.443  0.9394  0.5613  0.3924
  110SAPE   C3111374   1.956   1.735   5.488  0.1726  0.5085 -0.7910
  110SAPE   O3211375   2.054   1.761   5.412 -0.2446 -0.1846 -0.2658
  110SAPE   C3211376   1.955   1.738   5.641 -0.4198 -0.1205  0.4932
  110SAPE   H2X11377   1.907   1.646   5.678 -0.8981  0.4339  1.2682
  110SAPE   H2Y11378   1.889   1.821   5.674  0.7316  0.5139  1.2692
  110SAPE   C2311379   1.274   1.899   5.438 -0.1056 -0.3787  0.0534
  110SAPE   H3R11380   1.311   1.837   5.522  0.0139  2.3947  2.1980
  110SAPE   H3S11381   1.197   1.842   5.381  0.2170 -0.8140  0.0515
  110SAPE   C2411382   1.220   2.027   5.494  0.2430 -0.4950 -0.1734
  110SAPE   H4R11383   1.215   2.107   5.418 -3.4301 -0.7987 -0.4545
  110SAPE   H4S11384   1.295   2.056   5.570 -1.3576  0.8512  0.9765
  110SAPE   C2511385   1.084   2.002   5.562 -0.6338  0.6603 -0.2713
  110SAPE   H5R11386   0.999   2.007   5.493  0.5501 -0.9850 -1.9559
  110SAPE   C2611387   1.053   1.957   5.681 -1.1127 -0.0651  0.3824
  110SAPE   H6R11388   0.945   1.940   5.694 -1.3015  0.8860  0.1069
  110SAPE   C2711389   1.139   1.906   5.793 -0.3757  0.2372 -0.3636
  110SAPE   H7R11390   1.152   1.981   5.874 -1.6144  0.8707 -0.7324
  110SAPE   H7S11391   1.235   1.883   5.742 -1.3098 -2.8793 -0.9610
  110SAPE   C2811392   1.088   1.775   5.848 -0.4161 -0.1387 -0.0868
  110SAPE   H8R11393   1.087   1.693   5.774  0.7124  1.2703 -1.7557
  110SAPE   C2911394   1.054   1.751   5.976  0.0410  0.5713 -1.2315
  110SAPE   H9R11395   1.020   1.652   6.007  0.5522  0.5971 -0.5622
  110SAPE  C21011396   1.055   1.847   6.091 -0.3055 -0.2827 -0.1694
  110SAPE  H10R11397   1.122   1.930   6.063  0.4733 -1.2247 -1.1900
  110SAPE  H10S11398   1.086   1.802   6.188 -2.1964 -0.9112  0.1884
  110SAPE  C21111399   0.916   1.902   6.110 -0.1065 -0.0544 -0.6198
  110SAPE  H11R11400   0.889   1.971   6.029  0.0670 -0.7685 -1.2928
  110SAPE  C21211401   0.830   1.865   6.206  0.4177 -0.3347 -0.2995
  110SAPE  H12R11402   0.728   1.905   6.196  0.2091 -0.9426 -0.6985
  110SAPE  C21311403   0.846   1.759   6.315  0.4522 -0.0630 -0.2185
  110SAPE  H13R11404   0.938   1.698   6.311 -1.4004 -3.0173 -0.5223
  110SAPE  H13S11405   0.768   1.683   6.295  0.6341 -0.1415 -0.6388
  110SAPE  C21411406   0.816   1.822   6.447 -0.1621 -0.4755  0.5660
  110SAPE  H14R11407   0.855   1.923   6.468 -1.9187  0.3095  0.1458
  110SAPE  C21511408   0.759   1.768   6.547 -0.5046 -0.0806  0.5975
  110SAPE  H15R11409   0.731   1.833   6.631 -0.2955  0.9868 -0.1469
  110SAPE  C21611410   0.715   1.627   6.554 -0.5391  0.0330  0.5428
  110SAPE  H16R11411   0.707   1.580   6.453 -1.8215  1.8778 -0.2806
  110SAPE  H16S11412   0.609   1.619   6.587 -0.4852  0.3243  0.7883
  110SAPE  C21711413   0.807   1.544   6.647 -0.2376  1.0111  0.0427
  110SAPE  H17R11414   0.913   1.560   6.616  0.2273  0.2385  1.1394
  110SAPE  H17S11415   0.789   1.434   6.638 -1.2109  1.1019  0.7874
  110SAPE  C21811416   0.785   1.586   6.792  0.0844 -0.5319 -0.1294
  110SAPE  H18R11417   0.766   1.696   6.788  1.2332 -0.3284 -0.3635
  110SAPE  H18S11418   0.883   1.583   6.844  0.5179 -2.0717 -0.9694
  110SAPE  C21911419   0.672   1.509   6.869 -0.6180  0.2079  0.2138
  110SAPE  H19R11420   0.696   1.400   6.876  1.1542  0.6499  1.6314
  110SAPE  H19S11421   0.579   1.505   6.809 -0.8616 -1.5398  0.6363
  110SAPE  C22011422   0.660   1.555   7.012 -0.6019  0.4591 -0.1442
  110SAPE  H20R11423   0.662   1.666   7.008  2.2902  0.5522  1.4136
  110SAPE  H20S11424   0.749   1.539   7.076 -1.1105  1.8678  0.9969
  110SAPE  H20T11425   0.570   1.504   7.053  0.0196 -1.1838 -0.7390
  110SAPE   C3311426   2.101   1.740   5.698  0.5563 -0.3949 -0.0703
  110SAPE   H3X11427   2.140   1.843   5.680 -1.0905  0.1444 -0.7370
  110SAPE   H3Y11428   2.156   1.661   5.642  1.2278 -2.2510  2.9688
  110SAPE   C3411429   2.108   1.710   5.849  0.7771  0.5426  0.0501
  110SAPE   H4X11430   2.182   1.787   5.881 -0.1774  1.2326  0.6145
  110SAPE   H4Y11431   2.129   1.603   5.871  0.7927  0.6420  0.5089
  110SAPE   C3511432   1.975   1.735   5.924  0.2025  0.7358 -0.2190
  110SAPE   H5X11433   1.898   1.664   5.886 -1.1080  2.4127 -0.8284
  110SAPE   H5Y11434   1.952   1.842   5.906 -0.6605  0.5700 -0.1359
  110SAPE   C3611435   2.000   1.702   6.077  0.3641 -1.2161  0.1510
  110SAPE   H6X11436   2.097   1.753   6.094  1.3237 -2.9177  0.0155
  110SAPE   H6Y11437   2.028   1.595   6.081  0.4527 -1.1899  0.2177
  110SAPE   C3711438   1.884   1.734   6.169  0.2570 -0.3124  0.1371
  110SAPE   H7X11439   1.787   1.683   6.147 -1.6678  2.8882  0.6388
  110SAPE   H7Y11440   1.850   1.839   6.164  1.6641  0.1419 -0.4205
  110SAPE   C3811441   1.930   1.711   6.315 -0.0984  0.7902 -0.7510
  110SAPE   H8X11442   2.009   1.785   6.339  0.4174 -0.2670  0.9933
  110SAPE   H8Y11443   1.981   1.613   6.323  1.3296  1.3105 -2.8953
  110SAPE   C3911444   1.810   1.730   6.416 -0.4348  0.2739  0.2529
  110SAPE   H9X11445   1.743   1.646   6.388  0.3986 -0.2803 -0.1139
  110SAPE   H9Y11446   1.764   1.827   6.390  0.9282  0.9486  0.2664
  110SAPE  C31011447   1.852   1.736   6.567 -0.5634 -0.6520  0.2509
  110SAPE  H10X11448   1.921   1.818   6.593  1.0821 -1.7780 -0.4156
  110SAPE  H10Y11449   1.912   1.643   6.573  0.8572  0.2356  0.2870
  110SAPE  C31111450   1.720   1.754   6.655 -0.1153 -0.6345  0.5158
  110SAPE  H11X11451   1.650   1.673   6.629  0.3125 -1.1364  0.9157
  110SAPE  H11Y11452   1.660   1.844   6.629 -0.8739 -1.4265 -0.5613
  110SAPE  C31211453   1.749   1.740   6.803 -0.0366  0.7223  0.1995
  110SAPE  H12X11454   1.807   1.827   6.840  2.4445 -1.1720  1.0184
  110SAPE  H12Y11455   1.805   1.646   6.818 -2.3407 -0.8652 -0.6963
  110SAPE  C31311456   1.626   1.718   6.893  0.2059 -0.2974 -0.3516
  110SAPE  H13X11457   1.587   1.615   6.882 -1.1104  0.1857 -0.4074
  110SAPE  H13Y11458   1.546   1.782   6.851 -0.5410 -1.0142 -0.0407
  110SAPE  C31411459   1.659   1.736   7.047  0.2633  0.8714  0.3567
  110SAPE  H14X11460   1.709   1.832   7.073 -2.4998  2.8972 -1.2798
  110SAPE  H14Y11461   1.725   1.652   7.079 -1.3446 -0.7900 -0.4836
  110SAPE  C31511462   1.527   1.714   7.114 -0.8239  0.6838  0.4111
  110SAPE  H15X11463   1.476   1.620   7.085 -0.9155  1.1950 -1.1299
  110SAPE  H15Y11464   1.458   1.800   7.104 -0.3801  0.8184 -2.2131
  110SAPE  C31611465   1.565   1.699   7.264  1.0801 -0.7938  0.1320
  110SAPE  H16X11466   1.631   1.780   7.301  0.0753  0.1310 -0.0239
  110SAPE  H16Y11467   1.620   1.604   7.276  2.3027 -0.0029  0.9493
  110SAPE  C31711468   1.444   1.699   7.352 -0.0112 -1.0313 -0.0741
  110SAPE  H17X11469   1.388   1.607   7.326 -0.7318 -0.5451 -0.2775
  110SAPE  H17Y11470   1.385   1.792   7.337 -2.3047 -2.4306 -0.0709
  110SAPE  C31811471   1.477   1.705   7.499  0.7129  0.5812  0.8811
  110SAPE  H18X11472   1.386   1.720   7.561 -0.0097 -0.0095 -0.0223
  110SAPE  H18Y11473   1.548   1.784   7.532 -1.4639  2.7562  0.6427
  110SAPE  H18Z11474   1.523   1.608   7.528  0.0127  0.2408  0.8603
  111SAPE     N11475   4.750   3.822   5.461  0.2494 -0.8264 -0.2504
  111SAPE   HN111476   4.842   3.780   5.441  1.3987  1.2014  0.4037
  111SAPE   HN211477   4.755   3.863   5.557 -0.6505 -0.1604 -0.4665
  111SAPE   HN311478   4.665   3.764   5.445 -0.3650 -0.1263  0.3574
  111SAPE   C1211479   4.743   3.928   5.361 -0.1157  0.5601 -0.0666
  111SAPE  H12A11480   4.653   3.990   5.383 -0.5415  0.2604 -0.8985
  111SAPE  H12B11481   4.722   3.862   5.274 -1.3190 -2.6433  2.4966
  111SAPE   C1111482   4.879   4.002   5.358  0.1978 -0.5374  0.1437
  111SAPE  H11A11483   4.898   4.036   5.462 -1.0449  0.9149 -0.0698
  111SAPE  H11B11484   4.868   4.098   5.302  2.9225 -0.4396 -0.3705
  111SAPE     P11485   5.125   3.911   5.377  0.0437  0.5547 -0.1962
  111SAPE   O1311486   5.215   3.830   5.288  0.6723 -0.2080 -0.0349
  111SAPE   O1411487   5.181   4.034   5.436 -0.2620 -0.3400  0.7882
  111SAPE   O1211488   4.982   3.925   5.302 -0.0657 -0.1868  0.4518
  111SAPE   O1111489   5.071   3.817   5.493 -0.1031 -0.2850  1.0934
  111SAPE    C111490   5.145   3.757   5.602  0.0608  0.1645 -0.0049
  111SAPE    HA11491   5.175   3.654   5.574  0.1286 -0.0116  0.7127
  111SAPE    HB11492   5.235   3.820   5.622  0.6933 -1.3478  2.2604
  111SAPE    C211493   5.079   3.748   5.734 -0.5721 -0.1819 -0.1008
  111SAPE    HS11494   5.133   3.685   5.807  0.9141  0.4240 -0.6442
  111SAPE   O2111495   4.939   3.702   5.729  0.2626  0.1198 -0.6175
  111SAPE   C2111496   4.933   3.573   5.703 -0.1534  0.0747  0.0064
  111SAPE   O2211497   5.035   3.504   5.681  0.6314  0.3434  0.3018
  111SAPE   C2211498   4.794   3.504   5.722  0.5955 -1.1576 -0.2673
  111SAPE   H2R11499   4.738   3.555   5.803  0.5182 -1.0264 -0.4036
  111SAPE   H2S11500   4.738   3.510   5.627 -0.1429 -1.2270  0.1618
  111SAPE    C311501   5.083   3.889   5.808 -0.2165  0.0713  0.8335
  111SAPE    HX11502   5.008   3.939   5.744  1.1902 -0.0478 -1.0009
  111SAPE    HY11503   5.185   3.932   5.806 -0.5582  0.9057  1.0255
  111SAPE   O3111504   5.032   3.888   5.941  0.1257 -0.0519 -0.1724
  111SAPE   C3111505   5.116   3.823   6.029  0.5032  0.9264  0.1837
  111SAPE   O3211506   5.220   3.773   6.001  0.6215 -0.1994 -0.1898
  111SAPE   C3211507   5.058   3.824   6.177 -0.4147  0.4288  0.5902
  111SAPE   H2X11508   4.967   3.887   6.181 -0.8711 -0.2654  1.7228
  111SAPE   H2Y11509   5.129   3.872   6.248 -0.4661  0.3967  0.6630
  111SAPE   C2311510   4.794   3.349   5.753  0.9243  0.1055 -0.1130
  111SAPE   H3R11511   4.843   3.314   5.659 -0.8864 -1.4490 -0.5248
  111SAPE   H3S11512   4.687   3.320   5.753  0.7824  0.6173  0.7285
  111SAPE   C2411513   4.860   3.300   5.884 -0.7032  0.3836 -0.7070
  111SAPE   H4R11514   4.806   3.343   5.971 -1.9072 -2.7617  0.2567
  111SAPE   H4S11515   4.968   3.322   5.890 -1.0255  1.7698  1.9038
  111SAPE   C2511516   4.859   3.147   5.894  0.0291  0.0296  0.4580
  111SAPE   H5R11517   4.830   3.091   5.804  0.3759  1.4753 -0.5954
  111SAPE   C2611518   4.883   3.081   6.005  0.0173  1.5665  0.5159
  111SAPE   H6R11519   4.864   2.975   5.982  1.1452  2.1198 -3.9113
  111SAPE   C2711520   4.910   3.126   6.145  0.8944  0.4822 -0.1687
  111SAPE   H7R11521   4.982   3.211   6.143  3.0928 -1.2427  0.9312
  111SAPE   H7S11522   4.973   3.056   6.205  0.1419 -1.5370 -1.6310
  111SAPE   C2811523   4.784   3.176   6.216 -0.8011 -0.2447 -0.1861
  111SAPE   H8R11524   4.699   3.203   6.151 -0.4424  3.6753  0.7005
  111SAPE   C2911525   4.765   3.205   6.346  0.5876  0.2243  0.1153
  111SAPE   H9R11526   4.674   3.261   6.371 -0.8831 -1.7463 -0.5068
  111SAPE  C21011527   4.863   3.186   6.455  0.0639  0.6474  0.2943
  111SAPE  H10R11528   4.964   3.208   6.415  0.7005  3.1063  2.9133
  111SAPE  H10S11529   4.855   3.079   6.485  3.0561 -0.6484 -2.8257
  111SAPE  C21111530   4.844   3.272   6.571  0.4630  0.0129 -0.2220
  111SAPE  H11R11531   4.903   3.365   6.570  0.0530  0.2975  1.0329
  111SAPE  C21211532   4.753   3.249   6.662 -0.0889  0.1112  0.1526
  111SAPE  H12R11533   4.753   3.313   6.751 -0.6051 -0.3731  0.5130
  111SAPE  C21311534   4.657   3.133   6.664  0.2802 -0.0897  0.0764
  111SAPE  H13R11535   4.667   3.065   6.577  2.0957 -0.9275  0.8919
  111SAPE  H13S11536   4.556   3.176   6.642 -0.4215 -1.5601  0.2776
  111SAPE  C21411537   4.656   3.055   6.795  0.4236  0.4847 -0.1346
  111SAPE  H14R11538   4.741   2.989   6.816  2.6327  3.5782  1.4584
  111SAPE  C21511539   4.551   3.056   6.878  0.0369  0.6182  0.0688
  111SAPE  H15R11540   4.570   2.997   6.969  0.0630  0.1867 -0.2104
  111SAPE  C21611541   4.430   3.131   6.874  0.0686 -1.1415  0.2786
  111SAPE  H16R11542   4.344   3.087   6.819 -1.5123  2.3211 -0.3115
  111SAPE  H16S11543   4.453   3.232   6.835  1.5624 -1.0962  1.2104
  111SAPE  C21711544   4.375   3.163   7.016 -0.5366  0.2510 -0.6237
  111SAPE  H17R11545   4.289   3.232   7.008  1.0458  2.1743 -1.9409
  111SAPE  H17S11546   4.453   3.208   7.081  0.1719 -0.5374 -0.8998
  111SAPE  C21811547   4.320   3.034   7.085  0.0459 -0.1706 -0.1070
  111SAPE  H18R11548   4.394   2.951   7.081 -0.8956 -1.1090  1.2238
  111SAPE  H18S11549   4.231   2.997   7.030 -0.9786  0.3878  1.1298
  111SAPE  C21911550   4.302   3.058   7.236 -0.0838 -0.0307  0.2163
  111SAPE  H19R11551   4.228   3.139   7.252 -0.2147 -0.0027 -0.5222
  111SAPE  H19S11552   4.394   3.093   7.288 -0.0227 -0.5371  0.4600
  111SAPE  C22011553   4.246   2.931   7.306  0.7723 -0.1836  0.9004
  111SAPE  H20R11554   4.143   2.911   7.267  1.1367  0.1259 -0.2760
  111SAPE  H20S11555   4.234   2.940   7.416 -3.6197  2.8430  0.4427
  111SAPE  H20T11556   4.315   2.852   7.271  0.5846 -0.3651  0.9381
  111SAPE   C3311557   5.041   3.680   6.228 -0.0560  0.4826  0.0758
  111SAPE   H3X11558   5.011   3.695   6.334 -0.3284  1.9943 -0.1972
  111SAPE   H3Y11559   5.137   3.625   6.224 -1.6463 -2.5114 -0.0824
  111SAPE   C3411560   4.938   3.590   6.159  0.5577 -0.3772 -0.7769
  111SAPE   H4X11561   4.941   3.488   6.203 -1.3485  0.7722  2.4153
  111SAPE   H4Y11562   4.953   3.580   6.050  5.1725  2.1713 -0.6238
  111SAPE   C3511563   4.798   3.646   6.187 -0.4796  0.2508 -0.1301
  111SAPE   H5X11564   4.795   3.741   6.129 -2.4376 -0.8528 -1.9645
  111SAPE   H5Y11565   4.798   3.672   6.295  0.5592 -2.1151  0.4949
  111SAPE   C3611566   4.683   3.548   6.149  0.8420 -0.5018 -0.6095
  111SAPE   H6X11567   4.704   3.449   6.195 -3.6498 -1.0485  0.8281
  111SAPE   H6Y11568   4.665   3.553   6.040  0.3893  0.8788 -0.4870
  111SAPE   C3711569   4.544   3.593   6.205 -0.1303  0.5411  0.8390
  111SAPE   H7X11570   4.514   3.694   6.170 -1.5649 -0.2399 -0.3026
  111SAPE   H7Y11571   4.544   3.592   6.316 -0.0004  2.2728  0.8782
  111SAPE   C3811572   4.435   3.493   6.148  0.3078  0.3723 -0.2158
  111SAPE   H8X11573   4.441   3.392   6.196  0.6801  0.7635  0.5850
  111SAPE   H8Y11574   4.461   3.489   6.040 -0.3667  1.5291 -0.4343
  111SAPE   C3911575   4.289   3.536   6.178  0.1398  0.9974  0.0854
  111SAPE   H9X11576   4.216   3.474   6.122 -0.7644  0.8615  1.3807
  111SAPE   H9Y11577   4.266   3.636   6.134 -0.4186  0.7758 -0.1257
  111SAPE  C31011578   4.238   3.542   6.323 -1.2610  0.2566 -0.2442
  111SAPE  H10X11579   4.145   3.602   6.321 -1.3686  0.2166  1.5206
  111SAPE  H10Y11580   4.321   3.581   6.386  2.1530 -2.3380 -2.7207
  111SAPE  C31111581   4.197   3.401   6.382  0.3269 -0.2793 -0.5781
  111SAPE  H11X11582   4.283   3.331   6.379 -0.2342 -1.0023  0.0185
  111SAPE  H11Y11583   4.129   3.346   6.313  1.6632 -1.3884 -1.0510
  111SAPE  C31211584   4.145   3.407   6.522 -1.1947 -0.2061  0.3324
  111SAPE  H12X11585   4.043   3.450   6.511 -0.4800  1.4563 -0.0945
  111SAPE  H12Y11586   4.198   3.489   6.574 -0.8132 -0.5246  0.4531
  111SAPE  C31311587   4.133   3.279   6.594 -0.0877  0.5833  0.5422
  111SAPE  H13X11588   4.236   3.248   6.622 -0.0929  0.8274  0.8397
  111SAPE  H13Y11589   4.084   3.203   6.530 -0.3816 -0.1592  1.6133
  111SAPE  C31411590   4.055   3.294   6.726 -0.0674  0.7694 -0.1634
  111SAPE  H14X11591   3.963   3.348   6.693 -0.3610  2.2749  2.8071
  111SAPE  H14Y11592   4.120   3.359   6.788  2.8637 -1.4386 -0.7262
  111SAPE  C31511593   4.028   3.159   6.796 -0.2636  0.0324 -0.4566
  111SAPE  H15X11594   4.121   3.099   6.802  1.0159  1.7968 -1.6040
  111SAPE  H15Y11595   3.960   3.098   6.733 -1.0578  1.4009 -0.9611
  111SAPE  C31611596   3.979   3.167   6.939 -0.3922 -0.2549 -0.2438
  111SAPE  H16X11597   4.068   3.206   6.993 -0.6926  0.5526 -0.3210
  111SAPE  H16Y11598   3.955   3.064   6.975  1.4071 -0.7592 -0.3953
  111SAPE  C31711599   3.869   3.275   6.974  0.1063  0.4349  0.4917
  111SAPE  H17X11600   3.781   3.237   6.918  0.0887 -2.1851  2.1089
  111SAPE  H17Y11601   3.902   3.377   6.946  0.7577 -0.0992 -0.8061
  111SAPE  C31811602   3.830   3.273   7.125 -0.3748  0.6944 -0.2237
  111SAPE  H18X11603   3.809   3.167   7.151 -1.0508  0.0948 -2.8786
  111SAPE  H18Y11604   3.738   3.336   7.123 -0.1648  0.9947 -0.9390
  111SAPE  H18Z11605   3.910   3.317   7.188 -1.7453  2.1626  0.5987
  112SAPE     N11606   4.872   2.758   5.462  0.6967 -0.6442 -0.0488
  112SAPE   HN111607   4.947   2.690   5.487 -1.1682 -2.6633  0.4386
  112SAPE   HN211608   4.805   2.770   5.541 -0.5596 -1.6150 -0.9199
  112SAPE   HN311609   4.814   2.712   5.388  2.2557 -0.9360 -1.1373
  112SAPE   C1211610   4.929   2.891   5.426 -1.1865 -0.2601 -0.1090
  112SAPE  H12A11611   4.852   2.970   5.438 -0.5430  0.2649  0.7321
  112SAPE  H12B11612   4.972   2.899   5.324 -1.1017  0.7331 -0.0037
  112SAPE   C1111613   5.062   2.904   5.516  0.5637 -1.2471 -0.2334
  112SAPE  H11A11614   5.036   2.879   5.621  2.3721 -0.2852  0.4909
  112SAPE  H11B11615   5.095   3.009   5.504 -2.5111 -0.2574 -0.8569
  112SAPE     P11616   5.309   2.823   5.433 -0.7090  0.3574 -0.0066
  112SAPE   O1311617   5.328   2.756   5.303  0.2626 -0.5571  0.3175
  112SAPE   O1411618   5.347   2.964   5.441  0.5578 -0.5104  0.9062
  112SAPE   O1211619   5.157   2.801   5.475  0.1399  0.0714  0.4270
  112SAPE   O1111620   5.395   2.750   5.549  0.1199 -0.4951 -0.0351
  112SAPE    C111621   5.395   2.792   5.685 -0.3642  0.1842 -0.0023
  112SAPE    HA11622   5.301   2.846   5.709  0.1820  1.3697 -0.4473
  112SAPE    HB11623   5.399   2.707   5.757  2.4047  0.0833 -0.1843
  112SAPE    C211624   5.520   2.878   5.730  0.7651  0.1830  0.4023
  112SAPE    HS11625   5.533   2.937   5.636 -0.9964  1.1493  0.7159
  112SAPE   O2111626   5.644   2.798   5.745 -0.2117  0.5792 -0.3405
  112SAPE   C2111627   5.762   2.879   5.744  0.3473  0.4931 -0.5150
  112SAPE   O2211628   5.763   2.996   5.717  0.6226 -0.2070 -0.1575
  112SAPE   C2211629   5.885   2.785   5.753  0.5062  0.9555  0.2428
  112SAPE   H2R11630   5.857   2.678   5.763  1.6149  0.5443 -0.8256
  112SAPE   H2S11631   5.937   2.801   5.657 -0.3745  0.3269 -0.3554
  112SAPE    C311632   5.491   2.969   5.851  0.0386 -0.2199 -0.0550
  112SAPE    HX11633   5.391   3.016   5.849  1.2465  2.7336  2.0487
  112SAPE    HY11634   5.574   3.042   5.850  2.1942 -2.5039  0.4369
  112SAPE   O3111635   5.487   2.889   5.970  0.7912 -0.1952  0.8343
  112SAPE   C3111636   5.587   2.891   6.054  0.4947 -0.1494 -0.0789
  112SAPE   O3211637   5.696   2.937   6.034 -0.1887 -0.3035  0.5140
  112SAPE   C3211638   5.543   2.804   6.174  0.3552 -0.0527  0.0603
  112SAPE   H2X11639   5.604   2.712   6.160  1.6078  0.4269  1.9598
  112SAPE   H2Y11640   5.434   2.791   6.161  0.3283  0.5290 -0.3331
  112SAPE   C2311641   5.974   2.831   5.871  0.4253  0.2636  0.8611
  112SAPE   H3R11642   5.927   2.837   5.971  1.6261 -1.9387  1.6162
  112SAPE   H3S11643   6.015   2.931   5.844 -3.5477  2.0298  0.7124
  112SAPE   C2411644   6.083   2.721   5.887  0.1031 -0.0993 -0.2473
  112SAPE   H4R11645   6.110   2.692   5.784 -1.5091  0.3029 -0.8096
  112SAPE   H4S11646   6.030   2.638   5.937 -0.1338  1.2136  1.8099
  112SAPE   C2511647   6.213   2.759   5.951 -0.3886  0.2269 -0.0906
  112SAPE   H5R11648   6.291   2.799   5.884  1.8649  0.4272  2.4561
  112SAPE   C2611649   6.241   2.746   6.080  0.2432  0.3326  0.2089
  112SAPE   H6R11650   6.343   2.775   6.108  1.0464  1.6424 -3.4936
  112SAPE   C2711651   6.160   2.682   6.187 -0.5977  0.0246  0.3287
  112SAPE   H7R11652   6.216   2.655   6.279 -1.8540  0.8410  1.3806
  112SAPE   H7S11653   6.112   2.589   6.149 -2.7646  0.3699  1.9949
  112SAPE   C2811654   6.050   2.772   6.232 -0.5497 -0.9048 -0.3954
  112SAPE   H8R11655   5.957   2.776   6.173 -0.6102  0.0968 -0.2503
  112SAPE   C2911656   6.042   2.872   6.329 -0.5821 -0.0740 -0.5508
  112SAPE   H9R11657   5.953   2.936   6.323 -2.3051 -2.3564 -0.7545
  112SAPE  C21011658   6.150   2.906   6.426 -0.3900  0.3040  0.0752
  112SAPE  H10R11659   6.214   2.818   6.449 -0.1011  0.4446 -0.1762
  112SAPE  H10S11660   6.111   2.930   6.526 -1.4494 -0.3180 -0.1775
  112SAPE  C21111661   6.241   3.018   6.387  0.1679 -0.6205  0.8470
  112SAPE  H11R11662   6.242   3.049   6.282 -1.1681  0.4752  1.1234
  112SAPE  C21211663   6.326   3.085   6.477  0.6619  0.1410  0.7333
  112SAPE  H12R11664   6.395   3.159   6.433  0.6027 -0.2379 -0.0084
  112SAPE  C21311665   6.336   3.061   6.626  0.3139  0.8600  0.4167
  112SAPE  H13R11666   6.443   3.057   6.653 -0.0174 -0.0594  1.6884
  112SAPE  H13S11667   6.296   2.958   6.636  0.3747  0.4811 -2.5550
  112SAPE  C21411668   6.265   3.153   6.718  0.4121 -0.2812 -0.8169
  112SAPE  H14R11669   6.201   3.228   6.670  0.2597  1.6683  2.1419
  112SAPE  C21511670   6.250   3.133   6.854 -0.4927  0.5227 -0.5351
  112SAPE  H15R11671   6.184   3.202   6.909  1.3945  0.6031  1.7883
  112SAPE  C21611672   6.318   3.029   6.939  0.3269 -0.9717  0.8120
  112SAPE  H16R11673   6.372   3.072   7.026  0.9445 -2.3657  1.1538
  112SAPE  H16S11674   6.399   2.983   6.878  0.6956  2.0074 -1.1749
  112SAPE  C21711675   6.248   2.899   6.987 -0.2080 -0.6678 -0.4898
  112SAPE  H17R11676   6.306   2.853   7.070 -2.2658  0.7193  1.8465
  112SAPE  H17S11677   6.232   2.832   6.899 -1.8147  1.8593 -2.2457
  112SAPE  C21811678   6.113   2.927   7.054  0.4268 -0.6199  0.2627
  112SAPE  H18R11679   6.035   2.963   6.984  0.3189 -1.2089  0.0780
  112SAPE  H18S11680   6.124   3.011   7.127 -1.9186  0.6371 -0.7235
  112SAPE  C21911681   6.050   2.806   7.115  0.6172 -0.3665  0.3681
  112SAPE  H19R11682   6.127   2.741   7.161 -1.5530 -1.1450  3.1905
  112SAPE  H19S11683   5.985   2.745   7.047  0.3559 -0.2889  0.5455
  112SAPE  C22011684   5.959   2.847   7.233  0.5901  0.0026  0.1222
  112SAPE  H20R11685   6.016   2.906   7.308  0.8465 -0.7244  0.5083
  112SAPE  H20S11686   5.902   2.758   7.266  0.7230 -0.1019  0.0719
  112SAPE  H20T11687   5.880   2.915   7.194  0.0903 -0.0142  1.0772
  112SAPE   C3311688   5.577   2.873   6.302  0.7593  0.5370 -0.2373
  112SAPE   H3X11689   5.542   2.978   6.312  1.9216  0.8797  0.3594
  112SAPE   H3Y11690   5.688   2.872   6.299  0.7409  0.3732 -1.0351
  112SAPE   C3411691   5.522   2.797   6.419  0.2197 -0.8583 -0.5823
  112SAPE   H4X11692   5.555   2.691   6.423 -0.9776 -1.2028  1.2344
  112SAPE   H4Y11693   5.411   2.800   6.408  0.3039  1.1234 -1.3683
  112SAPE   C3511694   5.549   2.868   6.553 -0.2878 -0.1217 -0.0709
  112SAPE   H5X11695   5.474   2.823   6.622 -1.2137  1.2892 -0.1154
  112SAPE   H5Y11696   5.522   2.975   6.536 -0.3078  0.5882  3.5683
  112SAPE   C3611697   5.688   2.830   6.607 -0.0340  0.1649 -0.0998
  112SAPE   H6X11698   5.773   2.872   6.550 -0.4224 -0.6938 -1.3472
  112SAPE   H6Y11699   5.701   2.720   6.596 -0.1008  0.1381  0.0844
  112SAPE   C3711700   5.704   2.856   6.765 -0.3367  0.4356  0.5075
  112SAPE   H7X11701   5.694   2.966   6.782  3.2179  1.1101 -0.8796
  112SAPE   H7Y11702   5.808   2.824   6.790 -0.2035  1.0903  0.8165
  112SAPE   C3811703   5.595   2.797   6.854  0.7830  1.2630  0.1469
  112SAPE   H8X11704   5.582   2.691   6.825 -0.5163  1.2633  0.7101
  112SAPE   H8Y11705   5.493   2.841   6.859 -0.4683 -1.6005  2.0636
  112SAPE   C3911706   5.634   2.801   7.002  0.0552  0.1367 -0.3568
  112SAPE   H9X11707   5.638   2.908   7.033 -0.9318 -0.1199  0.7420
  112SAPE   H9Y11708   5.728   2.744   7.016 -0.7764 -1.4561 -1.0904
  112SAPE  C31011709   5.529   2.713   7.077  0.4876 -0.6043 -0.1724
  112SAPE  H10X11710   5.525   2.605   7.051 -3.0499 -0.8104  0.6986
  112SAPE  H10Y11711   5.432   2.754   7.040  2.1662  0.3915 -3.9413
  112SAPE  C31111712   5.535   2.712   7.238 -0.1207 -0.4480  0.0976
  112SAPE  H11X11713   5.635   2.672   7.264  0.2165  0.1273 -0.2768
  112SAPE  H11Y11714   5.456   2.641   7.271  0.1112 -0.1577  1.3361
  112SAPE  C31211715   5.511   2.857   7.301  0.6740  0.0530 -0.2421
  112SAPE  H12X11716   5.403   2.881   7.292  0.3240 -1.9362 -2.5373
  112SAPE  H12Y11717   5.574   2.921   7.236  0.6476 -0.5436 -0.8804
  112SAPE  C31311718   5.557   2.874   7.448 -0.4155 -0.4840 -0.8381
  112SAPE  H13X11719   5.539   2.981   7.471 -2.1559 -0.9652  0.2028
  112SAPE  H13Y11720   5.668   2.877   7.457 -0.5310  0.9746  0.4870
  112SAPE  C31411721   5.495   2.772   7.543  0.2406  0.8615 -0.9181
  112SAPE  H14X11722   5.552   2.761   7.638  0.9082 -1.3172 -1.5103
  112SAPE  H14Y11723   5.503   2.672   7.496  0.5666  0.6352 -0.3922
  112SAPE  C31511724   5.348   2.806   7.577  0.6268  0.3413 -0.4296
  112SAPE  H15X11725   5.306   2.714   7.622  1.8370 -0.1441 -0.2556
  112SAPE  H15Y11726   5.298   2.829   7.480 -0.5343 -0.1697  0.0221
  112SAPE  C31611727   5.337   2.923   7.677 -0.5542 -0.1287 -0.5994
  112SAPE  H16X11728   5.368   3.017   7.627 -0.3607  0.3649  0.4240
  112SAPE  H16Y11729   5.411   2.916   7.760  0.4686 -2.5400 -1.6059
  112SAPE  C31711730   5.197   2.949   7.726  0.5400  0.0084 -0.3040
  112SAPE  H17X11731   5.165   2.863   7.789 -2.8882  0.7128 -0.9007
  112SAPE  H17Y11732   5.139   2.951   7.632  0.3867  2.3059 -0.2325
  112SAPE  C31811733   5.190   3.071   7.813 -0.3430  0.0914  0.1205
  112SAPE  H18X11734   5.222   3.155   7.747  1.3542 -0.4642  0.1755
  112SAPE  H18Y11735   5.266   3.072   7.894  1.5392  0.0777 -1.5465
  112SAPE  H18Z11736   5.090   3.092   7.855 -0.4194 -1.4599  0.7602
  113SAPE     N11737   2.608   5.976   5.029 -0.5393  0.0557  0.0538
  113SAPE   HN111738   2.551   5.894   5.001 -0.3507 -0.2669  0.5937
  113SAPE   HN211739   2.546   6.059   5.037  1.1026  1.2245  1.4736
  113SAPE   HN311740   2.677   5.985   4.952  0.7812  1.2176  1.3007
  113SAPE   C1211741   2.682   5.940   5.161 -0.0367 -0.1762 -0.4943
  113SAPE  H12A11742   2.744   5.850   5.140 -0.9560 -1.1924  1.0017
  113SAPE  H12B11743   2.603   5.926   5.237  1.5094 -0.2336  1.1867
  113SAPE   C1111744   2.785   6.044   5.216  0.2455 -0.5709 -0.6150
  113SAPE  H11A11745   2.871   6.052   5.146 -0.4342 -0.8741 -1.5055
  113SAPE  H11B11746   2.824   6.002   5.311 -1.9550 -0.2811  0.5010
  113SAPE     P11747   2.788   6.312   5.224  0.1113  0.3063 -0.0872
  113SAPE   O1311748   2.818   6.312   5.078 -0.0352 -0.5583 -0.3633
  113SAPE   O1411749   2.694   6.409   5.284  0.8303  0.3852  0.9967
  113SAPE   O1211750   2.725   6.173   5.253 -0.3688 -0.3203  0.0532
  113SAPE   O1111751   2.926   6.317   5.294  0.0161 -0.2732  0.2280
  113SAPE    C111752   2.952   6.267   5.424  0.4059  0.1763  0.1009
  113SAPE    HA11753   2.943   6.358   5.487  2.4308 -0.2024  0.9939
  113SAPE    HB11754   2.878   6.193   5.463  2.3624 -2.1623 -0.4196
  113SAPE    C211755   3.091   6.212   5.438 -0.3623  0.2124 -0.1828
  113SAPE    HS11756   3.095   6.150   5.531  1.6478 -0.0294 -0.3877
  113SAPE   O2111757   3.168   6.333   5.443  0.5212 -0.1253 -0.7065
  113SAPE   C2111758   3.242   6.345   5.553  0.0621 -0.5459  0.4466
  113SAPE   O2211759   3.261   6.254   5.636 -0.1767 -0.0583  0.0419
  113SAPE   C2211760   3.296   6.488   5.567  0.4413  0.0968 -0.3530
  113SAPE   H2R11761   3.343   6.521   5.471 -0.3207 -0.7250 -1.0327
  113SAPE   H2S11762   3.206   6.551   5.578  2.0765  2.9009 -1.6589
  113SAPE    C311763   3.133   6.117   5.326 -0.1341  0.3703  0.5405
  113SAPE    HX11764   3.244   6.113   5.335 -0.2639 -0.7915  2.1542
  113SAPE    HY11765   3.105   6.160   5.228  1.2936 -2.5308 -1.2606
  113SAPE   O3111766   3.064   5.985   5.339  0.0515  0.2500 -0.7949
  113SAPE   C3111767   3.152   5.892   5.336 -0.0443  0.0197 -0.7148
  113SAPE   O3211768   3.263   5.902   5.279  0.3263  0.3066 -0.5586
  113SAPE   C3211769   3.110   5.775   5.421  0.4297 -0.2894  0.4322
  113SAPE   H2X11770   3.188   5.696   5.412  0.2500 -0.4323  0.0962
  113SAPE   H2Y11771   3.021   5.740   5.364  1.2165 -1.1440 -0.2927
  113SAPE   C2311772   3.376   6.507   5.696 -0.1625 -0.2372 -0.0702
  113SAPE   H3R11773   3.471   6.453   5.675 -1.5293 -1.8291 -2.6478
  113SAPE   H3S11774   3.332   6.466   5.790 -0.2058  0.7989  0.3827
  113SAPE   C2411775   3.419   6.647   5.716  0.5018 -0.3058 -0.1475
  113SAPE   H4R11776   3.467   6.685   5.623 -1.5166 -2.1769 -2.0826
  113SAPE   H4S11777   3.500   6.654   5.792  0.4315 -1.0400 -0.0049
  113SAPE   C2511778   3.302   6.738   5.755  0.3435 -0.4664  0.3648
  113SAPE   H5R11779   3.229   6.750   5.674  0.3894 -1.8968  0.0843
  113SAPE   C2611780   3.269   6.796   5.870  0.4592 -1.0491  0.2299
  113SAPE   H6R11781   3.178   6.856   5.885  2.1821  1.9176 -0.4163
  113SAPE   C2711782   3.348   6.788   5.989 -0.3812  0.1625 -0.7696
  113SAPE   H7R11783   3.368   6.680   6.011 -1.8977  0.4662  2.8140
  113SAPE   H7S11784   3.283   6.827   6.071  0.3951  0.5762 -0.3359
  113SAPE   C2811785   3.473   6.864   5.997 -0.5136 -0.8491 -0.6532
  113SAPE   H8R11786   3.499   6.914   5.902  0.2770 -0.9162 -0.4790
  113SAPE   C2911787   3.571   6.853   6.089  0.3710  0.8648 -0.9787
  113SAPE   H9R11788   3.664   6.908   6.071  1.7472 -1.5215 -1.6611
  113SAPE  C21011789   3.574   6.770   6.221 -0.1970  0.4142  0.0988
  113SAPE  H10R11790   3.676   6.762   6.264 -0.4691  1.0611  0.9004
  113SAPE  H10S11791   3.572   6.666   6.185 -0.0290 -0.0148  1.2678
  113SAPE  C21111792   3.468   6.775   6.330  1.2308  0.4130 -0.3132
  113SAPE  H11R11793   3.394   6.693   6.330 -1.7356  2.8574  1.8564
  113SAPE  C21211794   3.462   6.847   6.444  0.4810  0.0301  0.4145
  113SAPE  H12R11795   3.378   6.842   6.515  0.7049 -0.1844  0.6658
  113SAPE  C21311796   3.560   6.959   6.477  0.3011 -0.2856  0.4474
  113SAPE  H13R11797   3.520   7.046   6.533  2.2524 -0.7655  2.7781
  113SAPE  H13S11798   3.588   7.007   6.381 -0.5756 -0.3276  0.1610
  113SAPE  C21411799   3.677   6.914   6.556 -0.0729  0.0012 -0.9299
  113SAPE  H14R11800   3.773   6.907   6.503  1.4922  1.2024  1.5612
  113SAPE  C21511801   3.682   6.865   6.682  0.6045 -0.0573  0.2968
  113SAPE  H15R11802   3.783   6.851   6.725 -0.0514 -0.9739  1.6226
  113SAPE  C21611803   3.571   6.834   6.783 -0.1911 -0.0902  0.6100
  113SAPE  H16R11804   3.567   6.724   6.797 -0.1853 -0.1293  0.3061
  113SAPE  H16S11805   3.474   6.869   6.742  1.1445  1.7851 -1.1711
  113SAPE  C21711806   3.592   6.911   6.920  0.2412  0.1767 -0.0316
  113SAPE  H17R11807   3.494   6.926   6.972 -0.6802  0.2569 -1.7124
  113SAPE  H17S11808   3.627   7.015   6.900 -0.7145  0.4363 -0.4343
  113SAPE  C21811809   3.691   6.848   7.020 -0.1266 -0.1312 -0.0527
  113SAPE  H18R11810   3.796   6.836   6.985  0.9667  1.8927  2.2055
  113SAPE  H18S11811   3.644   6.759   7.068 -0.5086  0.5591  0.8834
  113SAPE  C21911812   3.705   6.945   7.139 -0.2000  0.1353  0.4659
  113SAPE  H19R11813   3.606   6.972   7.182  1.0242  0.8332  3.0279
  113SAPE  H19S11814   3.735   7.046   7.104 -3.3373  1.5065  1.3669
  113SAPE  C22011815   3.795   6.890   7.255 -0.6063  0.5404 -0.2924
  113SAPE  H20R11816   3.810   6.969   7.332  1.4426 -0.0427 -0.0202
  113SAPE  H20S11817   3.897   6.867   7.216 -0.9116  0.6005 -1.1422
  113SAPE  H20T11818   3.751   6.803   7.308 -0.1158  0.9053  0.7453
  113SAPE   C3311819   3.087   5.822   5.564  0.0277  0.7838 -0.0648
  113SAPE   H3X11820   3.035   5.742   5.621  0.5840  0.5796  0.1610
  113SAPE   H3Y11821   3.015   5.906   5.564 -1.3119 -0.1930  3.6414
  113SAPE   C3411822   3.217   5.859   5.646  0.6230  0.1483  0.2211
  113SAPE   H4X11823   3.276   5.916   5.570  1.2052 -0.2072  0.4041
  113SAPE   H4Y11824   3.272   5.770   5.682  1.0099  0.4611  0.4167
  113SAPE   C3511825   3.184   5.946   5.767 -0.0055  0.1066  0.4110
  113SAPE   H5X11826   3.107   6.022   5.743  2.6090  4.3761  3.9274
  113SAPE   H5Y11827   3.268   6.009   5.803 -0.5564  0.9590  0.2364
  113SAPE   C3611828   3.149   5.863   5.882 -0.6770  0.7086  0.0521
  113SAPE   H6X11829   3.243   5.809   5.907  1.7919  3.9277 -1.4557
  113SAPE   H6Y11830   3.072   5.789   5.851  1.1141 -1.1554 -0.1371
  113SAPE   C3711831   3.105   5.937   6.008 -0.3869 -0.0024  0.1971
  113SAPE   H7X11832   3.016   6.000   5.984 -0.7265 -1.0479 -1.4639
  113SAPE   H7Y11833   3.183   6.009   6.040  0.4221  0.6273 -2.8455
  113SAPE   C3811834   3.084   5.842   6.126  0.2620 -0.1560 -0.6306
  113SAPE   H8X11835   2.979   5.808   6.124 -0.5092  1.9260  0.9847
  113SAPE   H8Y11836   3.160   5.761   6.123  0.5092  0.0870 -0.9931
  113SAPE   C3911837   3.102   5.901   6.266  0.8232  0.1603 -0.5934
  113SAPE   H9X11838   3.204   5.916   6.306  1.1655  0.8991 -1.7142
  113SAPE   H9Y11839   3.047   5.839   6.341  1.8168 -0.4922 -0.3856
  113SAPE  C31011840   3.016   6.035   6.288 -0.4346 -0.5019  0.3850
  113SAPE  H10X11841   2.914   6.000   6.260  0.7588 -3.8565 -0.2001
  113SAPE  H10Y11842   3.063   6.119   6.232 -2.0471  0.0623 -0.1727
  113SAPE  C31111843   3.017   6.076   6.438 -0.3299  0.2572  0.7856
  113SAPE  H11X11844   3.119   6.118   6.444  0.4974 -1.6026  0.6598
  113SAPE  H11Y11845   3.008   5.994   6.512  0.7690  0.5937  1.3063
  113SAPE  C31211846   2.909   6.176   6.486  0.1980  0.4545 -0.0727
  113SAPE  H12X11847   2.805   6.139   6.474  0.7466 -1.2326  0.0034
  113SAPE  H12Y11848   2.922   6.262   6.416  0.3742  0.4971  0.0134
  113SAPE  C31311849   2.924   6.210   6.635  0.2712  0.2009  0.9671
  113SAPE  H13X11850   3.027   6.242   6.663 -0.3495  1.9471  1.3503
  113SAPE  H13Y11851   2.900   6.118   6.693  0.0463  0.2538  0.9584
  113SAPE  C31411852   2.831   6.319   6.681  0.6580 -0.2193  0.0285
  113SAPE  H14X11853   2.727   6.308   6.644  0.0062 -0.5011  1.8448
  113SAPE  H14Y11854   2.874   6.414   6.641  0.8081  0.1817  1.0968
  113SAPE  C31511855   2.829   6.338   6.838 -0.4253  0.5409  0.9030
  113SAPE  H15X11856   2.783   6.439   6.848 -1.2341  0.1695  1.0273
  113SAPE  H15Y11857   2.932   6.344   6.879  0.2425 -1.8473 -0.2203
  113SAPE  C31611858   2.749   6.225   6.916 -0.9255 -0.3627 -0.3923
  113SAPE  H16X11859   2.785   6.121   6.906  0.8203  0.0445  1.1818
  113SAPE  H16Y11860   2.646   6.236   6.876 -1.9312 -1.4999  1.7406
  113SAPE  C31711861   2.737   6.266   7.066  0.5755  0.0514 -0.8012
  113SAPE  H17X11862   2.649   6.212   7.107  1.3577 -0.9796 -0.4206
  113SAPE  H17Y11863   2.726   6.375   7.080 -1.8288 -0.1347 -0.9673
  113SAPE  C31811864   2.865   6.224   7.154  0.4740  0.1324  0.2126
  113SAPE  H18X11865   2.869   6.268   7.255 -1.4321 -0.5501  0.6323
  113SAPE  H18Y11866   2.950   6.251   7.088  2.0033  1.2870  2.5451
  113SAPE  H18Z11867   2.866   6.114   7.163 -0.4135  0.2666  2.6963
  114SAPE     N11868   3.826   2.514   5.044  0.4312  0.3370 -0.6555
  114SAPE   HN111869   3.927   2.529   5.021  1.3760 -0.4847  2.4324
  114SAPE   HN211870   3.825   2.416   5.078  0.2601  0.9383  1.1486
  114SAPE   HN311871   3.761   2.517   4.963  0.8216  1.5853 -0.9576
  114SAPE   C1211872   3.780   2.608   5.163 -0.7073 -0.0572  0.0049
  114SAPE  H12A11873   3.673   2.580   5.175  0.1809 -3.6943  0.6041
  114SAPE  H12B11874   3.793   2.714   5.132  4.5311 -0.1490  0.9825
  114SAPE   C1111875   3.871   2.585   5.286  0.1048  0.8941  0.3102
  114SAPE  H11A11876   3.853   2.480   5.319  0.3668  0.1416 -1.7489
  114SAPE  H11B11877   3.832   2.651   5.366  0.1298 -0.2662  1.3010
  114SAPE     P11878   4.084   2.734   5.227 -0.2150 -0.5358 -0.0064
  114SAPE   O1311879   4.217   2.681   5.187 -0.1037  0.1603  0.3451
  114SAPE   O1411880   3.998   2.813   5.131 -0.3204 -0.9474 -0.1834
  114SAPE   O1211881   4.011   2.600   5.268  0.1605 -0.3286 -0.1080
  114SAPE   O1111882   4.101   2.822   5.357  0.2723  0.0436  0.2544
  114SAPE    C111883   4.127   2.759   5.488  0.0261 -1.6051  0.4727
  114SAPE    HA11884   4.088   2.655   5.497 -1.4335 -1.1183  0.0201
  114SAPE    HB11885   4.236   2.748   5.509 -0.1243 -0.7363  1.8155
  114SAPE    C211886   4.068   2.850   5.601  0.8485  0.1458 -0.1534
  114SAPE    HS11887   4.138   2.933   5.621 -0.1996  1.0502 -0.1600
  114SAPE   O2111888   4.051   2.767   5.719  0.5699 -0.1478  0.1572
  114SAPE   C2111889   4.159   2.760   5.800 -0.7396  0.4074  0.3868
  114SAPE   O2211890   4.260   2.826   5.780 -0.0554 -0.3612  0.0867
  114SAPE   C2211891   4.132   2.668   5.922 -0.2030  1.0093  0.8363
  114SAPE   H2R11892   4.087   2.737   5.996  2.3084  1.8134  1.7258
  114SAPE   H2S11893   4.055   2.598   5.884 -0.0128  1.1560  0.1593
  114SAPE    C311894   3.929   2.910   5.563 -0.5130 -0.6100 -0.0867
  114SAPE    HX11895   3.876   2.818   5.529  0.6024 -1.8653  1.4025
  114SAPE    HY11896   3.933   2.987   5.484  1.0018  1.1669  1.6179
  114SAPE   O3111897   3.860   2.958   5.676  0.7556 -0.1313  0.3609
  114SAPE   C3111898   3.914   3.059   5.740 -0.2567 -0.5476 -0.4135
  114SAPE   O3211899   4.024   3.108   5.719  0.1987  0.3639  0.0002
  114SAPE   C3211900   3.811   3.127   5.824 -0.2261 -0.0142 -0.0078
  114SAPE   H2X11901   3.712   3.077   5.825  1.1709 -2.9847  0.5304
  114SAPE   H2Y11902   3.800   3.235   5.799  2.7495  0.7773  1.6023
  114SAPE   C2311903   4.250   2.586   5.972  0.0298 -1.0443  0.4067
  114SAPE   H3R11904   4.336   2.654   5.985 -0.2105 -0.3864 -1.2818
  114SAPE   H3S11905   4.281   2.522   5.887  2.6481  0.9992 -0.2914
  114SAPE   C2411906   4.226   2.521   6.109 -0.0578  0.4321  0.2657
  114SAPE   H4R11907   4.151   2.439   6.098 -1.0817  1.5836 -2.0083
  114SAPE   H4S11908   4.174   2.594   6.174 -0.6163 -0.0230  0.3430
  114SAPE   C2511909   4.358   2.479   6.169  0.3816  0.1890 -0.2468
  114SAPE   H5R11910   4.435   2.450   6.096  0.2690 -2.5639  0.6163
  114SAPE   C2611911   4.375   2.464   6.298 -0.3060 -0.1595 -0.6637
  114SAPE   H6R11912   4.471   2.423   6.329 -0.8376  0.7818  2.6059
  114SAPE   C2711913   4.277   2.500   6.411 -0.6590 -0.5637 -0.7572
  114SAPE   H7R11914   4.222   2.595   6.391 -0.6506 -0.2961  0.4193
  114SAPE   H7S11915   4.339   2.518   6.501 -0.5142 -0.6613 -0.8370
  114SAPE   C2811916   4.192   2.380   6.443 -0.0881  0.3976  0.0034
  114SAPE   H8R11917   4.127   2.347   6.361  0.0686 -0.2936  0.1556
  114SAPE   C2911918   4.178   2.325   6.564 -0.2573 -0.0945  0.3561
  114SAPE   H9R11919   4.106   2.243   6.554 -0.4586  0.2701 -1.5773
  114SAPE  C21011920   4.233   2.357   6.701 -1.1227 -0.2504  0.1294
  114SAPE  H10R11921   4.257   2.466   6.708  1.3691 -0.7828  0.9386
  114SAPE  H10S11922   4.332   2.308   6.705 -0.9645  0.0355 -0.1310
  114SAPE  C21111923   4.136   2.325   6.811 -0.4727 -0.1096 -0.0865
  114SAPE  H11R11924   4.069   2.410   6.833 -0.4136  0.3037 -1.4153
  114SAPE  C21211925   4.132   2.221   6.894 -0.5487  0.0767  0.6719
  114SAPE  H12R11926   4.055   2.223   6.972  0.2784 -2.3802  1.6579
  114SAPE  C21311927   4.221   2.103   6.891  0.3084  0.2091 -0.2950
  114SAPE  H13R11928   4.301   2.102   6.813  1.0946  0.8932  0.4743
  114SAPE  H13S11929   4.164   2.017   6.850  0.2057 -0.1743  0.6250
  114SAPE  C21411930   4.291   2.077   7.017 -0.8810 -0.1681 -0.3632
  114SAPE  H14R11931   4.360   2.156   7.050  0.2054 -2.5987  4.0457
  114SAPE  C21511932   4.288   1.978   7.099 -0.3162  0.6403 -0.6285
  114SAPE  H15R11933   4.353   1.966   7.187  0.5199 -0.7524 -1.4058
  114SAPE  C21611934   4.204   1.852   7.090 -0.1918 -0.1534  0.1795
  114SAPE  H16R11935   4.147   1.853   6.995  0.2128  1.1734 -0.0681
  114SAPE  H16S11936   4.132   1.850   7.175 -2.8773  0.7808 -1.9354
  114SAPE  C21711937   4.297   1.727   7.113  0.0657  0.0579 -0.2993
  114SAPE  H17R11938   4.222   1.657   7.154 -1.3042  1.2870 -0.6073
  114SAPE  H17S11939   4.384   1.743   7.179  2.3173 -2.1645 -2.5261
  114SAPE  C21811940   4.353   1.663   6.991 -1.4219 -0.0823  0.3106
  114SAPE  H18R11941   4.440   1.598   7.012 -0.1371  1.5812  0.2793
  114SAPE  H18S11942   4.382   1.748   6.926 -0.2323 -1.0996 -0.5243
  114SAPE  C21911943   4.238   1.593   6.913  0.0451  0.1453 -0.0662
  114SAPE  H19R11944   4.168   1.673   6.882 -0.7345 -0.7857 -0.7731
  114SAPE  H19S11945   4.192   1.526   6.989  0.3943 -0.3140 -0.2518
  114SAPE  C22011946   4.276   1.518   6.782  0.3839  0.0941 -0.4254
  114SAPE  H20R11947   4.190   1.487   6.718 -0.2229 -2.2493  1.3777
  114SAPE  H20S11948   4.323   1.424   6.819  2.5448  1.0254 -0.6281
  114SAPE  H20T11949   4.355   1.577   6.731  0.4466 -0.0661 -0.5149
  114SAPE   C3311950   3.870   3.152   5.962 -0.5559  0.0581 -0.1379
  114SAPE   H3X11951   3.934   3.241   5.976 -0.8316  0.2480 -0.0897
  114SAPE   H3Y11952   3.943   3.073   5.993  0.7593  0.3876 -2.1579
  114SAPE   C3411953   3.746   3.175   6.060  0.5263 -0.0371 -0.8839
  114SAPE   H4X11954   3.691   3.079   6.064  1.3471 -0.5452  3.0971
  114SAPE   H4Y11955   3.688   3.264   6.028  0.8070  0.5752  0.2394
  114SAPE   C3511956   3.790   3.208   6.203 -0.2328  0.0849 -0.0156
  114SAPE   H5X11957   3.704   3.264   6.245 -0.4205 -0.2116 -0.0033
  114SAPE   H5Y11958   3.877   3.277   6.208  0.4659 -0.3845 -3.1622
  114SAPE   C3611959   3.831   3.081   6.282 -0.8193 -0.0127 -0.1154
  114SAPE   H6X11960   3.934   3.044   6.260 -0.6317  0.0569  0.5989
  114SAPE   H6Y11961   3.765   2.996   6.257 -1.0939  1.2145 -4.2058
  114SAPE   C3711962   3.827   3.100   6.433  0.5591  0.3899 -0.9334
  114SAPE   H7X11963   3.876   3.193   6.470  1.6201 -1.0403  1.4594
  114SAPE   H7Y11964   3.883   3.016   6.478  0.3505  0.3275 -0.7894
  114SAPE   C3811965   3.681   3.082   6.493  0.8620  0.0758  0.2596
  114SAPE   H8X11966   3.674   2.973   6.515  2.4929 -0.5314 -1.9003
  114SAPE   H8Y11967   3.597   3.102   6.423  1.6221 -2.5259 -1.5322
  114SAPE   C3911968   3.660   3.157   6.627  0.5395  0.2215  0.5782
  114SAPE   H9X11969   3.690   3.264   6.619 -2.4169  1.0588 -0.5198
  114SAPE   H9Y11970   3.733   3.104   6.692  1.8179 -0.5186 -1.3817
  114SAPE  C31011971   3.522   3.166   6.683 -0.2578 -0.5617 -0.2600
  114SAPE  H10X11972   3.477   3.069   6.710 -1.1787  0.0369  0.4099
  114SAPE  H10Y11973   3.464   3.211   6.599  3.3058  3.7400 -0.8403
  114SAPE  C31111974   3.498   3.268   6.801  0.0084 -0.1829 -0.5060
  114SAPE  H11X11975   3.394   3.308   6.795  0.2640  0.9588  1.7697
  114SAPE  H11Y11976   3.573   3.349   6.800  0.5809 -0.6966 -0.1846
  114SAPE  C31211977   3.487   3.191   6.934  0.0836 -0.1048 -0.7694
  114SAPE  H12X11978   3.574   3.145   6.986  0.0459  1.5292  0.8599
  114SAPE  H12Y11979   3.398   3.126   6.941 -1.2678  1.7596  0.1495
  114SAPE  C31311980   3.445   3.295   7.046 -0.5378 -0.0438  0.5510
  114SAPE  H13X11981   3.345   3.339   7.026 -1.4817 -2.2057  0.2849
  114SAPE  H13Y11982   3.519   3.377   7.029 -1.4669  0.8859  0.8925
  114SAPE  C31411983   3.449   3.235   7.191 -0.0965  0.2436 -0.0840
  114SAPE  H14X11984   3.461   3.325   7.255 -1.8173  1.8472 -1.8911
  114SAPE  H14Y11985   3.534   3.165   7.209  2.1326  2.7741 -0.1050
  114SAPE  C31511986   3.315   3.171   7.223  0.3051 -0.4008  0.1674
  114SAPE  H15X11987   3.319   3.071   7.176  0.0455 -1.0026  1.3812
  114SAPE  H15Y11988   3.233   3.241   7.195 -0.9002 -1.4903  0.8715
  114SAPE  C31611989   3.295   3.144   7.373  0.9135 -0.1289 -0.2957
  114SAPE  H16X11990   3.304   3.236   7.435  0.3946  0.0592 -0.4972
  114SAPE  H16Y11991   3.385   3.086   7.403 -0.7994 -2.4114  0.6647
  114SAPE  C31711992   3.164   3.077   7.409  0.9282 -0.2425 -0.5230
  114SAPE  H17X11993   3.141   3.001   7.331 -0.3116 -0.2773 -0.1397
  114SAPE  H17Y11994   3.088   3.158   7.405  1.8210  0.7778  1.6586
  114SAPE  C31811995   3.173   3.009   7.546  0.3441 -0.1464 -0.7671
  114SAPE  H18X11996   3.186   3.092   7.618 -3.0666 -1.1017  1.2163
  114SAPE  H18Y11997   3.251   2.931   7.552  0.6571  0.2073 -0.1867
  114SAPE  H18Z11998   3.073   2.970   7.576 -0.5207  2.1376 -0.4304
  115SAPE     N11999   0.615   6.091   4.624  0.2000 -0.6067  0.2190
  115SAPE   HN112000   0.549   6.160   4.582  0.6133  0.9842  2.0506
  115SAPE   HN212001   0.699   6.147   4.649  1.9614 -1.9404 -2.2711
  115SAPE   HN312002   0.652   6.013   4.566  2.4431  0.9144 -0.5329
  115SAPE   C1212003   0.564   6.037   4.754  0.0809 -0.1425  0.2208
  115SAPE  H12A12004   0.465   5.991   4.733 -0.2475  0.5138  0.3116
  115SAPE  H12B12005   0.551   6.121   4.826  0.7776 -0.3270  0.5662
  115SAPE   C1112006   0.659   5.936   4.814 -0.0007 -0.1273  0.2669
  115SAPE  H11A12007   0.672   5.852   4.742  0.0969  0.5286 -0.4984
  115SAPE  H11B12008   0.607   5.893   4.902 -0.9343 -1.0988 -0.7123
  115SAPE     P12009   0.904   5.899   4.912 -0.0041  0.3030 -0.0450
  115SAPE   O1312010   0.855   5.778   4.977  0.1400  0.2686 -0.3598
  115SAPE   O1412011   1.013   5.888   4.810  0.8114  0.1963  0.6574
  115SAPE   O1212012   0.784   5.988   4.847 -0.1305 -0.1584 -0.3831
  115SAPE   O1112013   0.946   6.001   5.026  0.2137 -0.1406  0.1428
  115SAPE    C112014   0.992   6.132   4.982  0.3388 -0.4883 -0.2510
  115SAPE    HA12015   1.103   6.131   4.990  0.3783 -2.1478 -0.6585
  115SAPE    HB12016   0.964   6.166   4.880  0.4222  2.4365  0.6169
  115SAPE    C212017   0.919   6.246   5.065 -0.3241  0.5503 -0.3639
  115SAPE    HS12018   0.948   6.344   5.023  1.8887  0.5925  1.0621
  115SAPE   O2112019   0.972   6.227   5.203  0.4914 -0.2004 -0.5193
  115SAPE   C2112020   1.101   6.263   5.209 -0.0524 -0.1970  0.0990
  115SAPE   O2212021   1.159   6.323   5.119 -0.3058  0.1269  0.5565
  115SAPE   C2212022   1.165   6.224   5.347 -0.1348 -0.5096 -0.9082
  115SAPE   H2R12023   1.101   6.255   5.432  0.8946 -3.3812  1.0959
  115SAPE   H2S12024   1.172   6.113   5.346  2.2121 -0.4434  0.0777
  115SAPE    C312025   0.761   6.245   5.078 -0.1586 -0.3790 -0.5715
  115SAPE    HX12026   0.733   6.137   5.077  1.7588 -0.9065 -0.1956
  115SAPE    HY12027   0.722   6.301   4.991  1.1210  0.7427 -0.4485
  115SAPE   O3112028   0.703   6.307   5.196  0.2304 -0.2363 -0.9275
  115SAPE   C3112029   0.703   6.234   5.301  0.3834  0.5251  0.8147
  115SAPE   O3212030   0.698   6.109   5.301  0.0184 -0.4563 -0.5039
  115SAPE   C3212031   0.682   6.325   5.415  0.3874  0.6055  0.6221
  115SAPE   H2X12032   0.575   6.323   5.443  0.2604 -1.5612  0.1712
  115SAPE   H2Y12033   0.713   6.428   5.389  0.1957  0.3835 -0.5064
  115SAPE   C2312034   1.307   6.288   5.378  0.3108  0.3384  0.3562
  115SAPE   H3R12035   1.299   6.393   5.343 -2.0137  0.4504  1.0463
  115SAPE   H3S12036   1.383   6.236   5.316 -1.1155 -0.7814 -0.5249
  115SAPE   C2412037   1.348   6.287   5.532  1.1315  0.1884  0.2061
  115SAPE   H4R12038   1.264   6.334   5.587  0.4861 -1.2086  0.4552
  115SAPE   H4S12039   1.436   6.354   5.536  2.0457 -0.8505 -1.4144
  115SAPE   C2512040   1.358   6.144   5.590  0.1921 -0.0829 -0.2836
  115SAPE   H5R12041   1.450   6.094   5.557  0.1758  0.6995 -1.5837
  115SAPE   C2612042   1.263   6.082   5.658  0.5399 -0.0268 -0.2750
  115SAPE   H6R12043   1.277   5.977   5.688  0.7491  0.1230  0.1777
  115SAPE   C2712044   1.131   6.141   5.699  0.1906 -0.2307  0.3370
  115SAPE   H7R12045   1.102   6.231   5.640 -1.3120 -1.8019 -1.4388
  115SAPE   H7S12046   1.132   6.193   5.797 -0.7424  3.8539 -1.5805
  115SAPE   C2812047   1.022   6.037   5.703  1.0851 -0.0862  0.7596
  115SAPE   H8R12048   0.967   6.008   5.612 -1.6572  1.2299  1.8888
  115SAPE   C2912049   0.969   5.986   5.817 -0.2379 -0.0069 -0.3154
  115SAPE   H9R12050   0.892   5.908   5.812 -1.0561  0.7110  0.6701
  115SAPE  C21012051   1.007   6.017   5.965 -0.0198 -0.7612  1.0902
  115SAPE  H10R12052   0.948   6.105   5.998 -2.1614 -1.3864 -0.7869
  115SAPE  H10S12053   1.113   6.050   5.972 -0.9782  2.6656  1.5193
  115SAPE  C21112054   0.972   5.912   6.066 -0.3386  0.2101  0.0966
  115SAPE  H11R12055   0.866   5.903   6.094  0.0288 -2.1343  0.9799
  115SAPE  C21212056   1.050   5.813   6.106  0.4020  0.3219 -0.0890
  115SAPE  H12R12057   1.012   5.736   6.175  2.3213 -0.2607  0.4039
  115SAPE  C21312058   1.186   5.767   6.041  0.8160  0.1992  0.2918
  115SAPE  H13R12059   1.239   5.711   6.121 -2.0024 -2.4925  0.4964
  115SAPE  H13S12060   1.238   5.863   6.021  1.5141 -0.4329 -1.0558
  115SAPE  C21412061   1.176   5.698   5.905  0.7035 -0.2215 -0.0087
  115SAPE  H14R12062   1.134   5.767   5.831  0.2003 -1.1059 -0.5706
  115SAPE  C21512063   1.242   5.589   5.863 -0.0198  0.5170 -0.0689
  115SAPE  H15R12064   1.231   5.572   5.755  1.3540  0.3370 -0.1956
  115SAPE  C21612065   1.335   5.497   5.948  1.2903 -0.5291 -0.2594
  115SAPE  H16R12066   1.372   5.539   6.044 -1.1692 -2.9922  1.9356
  115SAPE  H16S12067   1.424   5.461   5.894  1.0072 -1.1732 -0.3003
  115SAPE  C21712068   1.267   5.364   5.976 -0.2515  0.4242  0.4869
  115SAPE  H17R12069   1.251   5.312   5.879  2.0811  1.2260 -0.3979
  115SAPE  H17S12070   1.170   5.379   6.030 -0.9751 -0.5959 -0.4875
  115SAPE  C21812071   1.356   5.268   6.066  0.5069 -0.3707 -0.2194
  115SAPE  H18R12072   1.426   5.329   6.128 -0.8231  0.9683  0.0073
  115SAPE  H18S12073   1.416   5.203   5.999  2.3929 -0.0881  1.1184
  115SAPE  C21912074   1.279   5.169   6.153  0.0856  0.2366 -0.5969
  115SAPE  H19R12075   1.344   5.091   6.199  1.0216  1.3454  0.0172
  115SAPE  H19S12076   1.211   5.114   6.085 -0.5879 -0.5152  0.6321
  115SAPE  C22012077   1.193   5.226   6.263  0.7043  0.2246  0.2571
  115SAPE  H20R12078   1.246   5.281   6.344  0.4674  1.3854 -0.3469
  115SAPE  H20S12079   1.130   5.144   6.303  2.4543 -1.5626 -0.4798
  115SAPE  H20T12080   1.133   5.310   6.221 -0.9709 -0.7236  0.6748
  115SAPE   C3312081   0.757   6.286   5.545  0.2096  0.1210  0.1654
  115SAPE   H3X12082   0.867   6.300   5.534  0.0606  0.9574 -0.3411
  115SAPE   H3Y12083   0.755   6.176   5.559  1.7659  0.0963  0.3240
  115SAPE   C3412084   0.703   6.363   5.670 -0.4556 -0.0539  0.4940
  115SAPE   H4X12085   0.595   6.366   5.643  0.0917 -0.7799 -2.0119
  115SAPE   H4Y12086   0.737   6.469   5.670 -2.0471  0.5133 -0.8478
  115SAPE   C3512087   0.732   6.300   5.806 -0.0550 -0.1814 -0.2856
  115SAPE   H5X12088   0.842   6.305   5.823 -0.2340 -1.3511  1.4941
  115SAPE   H5Y12089   0.707   6.192   5.813 -1.5698  0.2222  1.0628
  115SAPE   C3612090   0.662   6.390   5.920  0.6939 -0.5250  0.5307
  115SAPE   H6X12091   0.552   6.395   5.904  0.7602 -0.2367  0.1735
  115SAPE   H6Y12092   0.704   6.490   5.895 -0.4376 -0.7255 -2.6313
  115SAPE   C3712093   0.694   6.347   6.066 -0.2813 -0.6309 -0.4512
  115SAPE   H7X12094   0.797   6.318   6.095  0.1437  3.1681  2.5832
  115SAPE   H7Y12095   0.625   6.263   6.091  0.0089  0.1621  3.6312
  115SAPE   C3812096   0.652   6.467   6.152  0.3112 -0.2094  0.1790
  115SAPE   H8X12097   0.558   6.505   6.107  1.3747 -0.6715 -2.6346
  115SAPE   H8Y12098   0.733   6.542   6.137  0.2192 -0.2446 -0.5563
  115SAPE   C3912099   0.616   6.447   6.306  0.2003  0.5110  0.2764
  115SAPE   H9X12100   0.715   6.427   6.353  0.5649 -0.1052 -0.7350
  115SAPE   H9Y12101   0.567   6.348   6.308  1.3073 -0.1123 -1.3404
  115SAPE  C31012102   0.550   6.572   6.371  0.4006 -0.9317 -0.5117
  115SAPE  H10X12103   0.452   6.588   6.320  0.3459 -2.1538 -0.8369
  115SAPE  H10Y12104   0.612   6.661   6.346  0.1854 -0.6334  0.0024
  115SAPE  C31112105   0.529   6.569   6.526 -0.7665 -0.2393  0.5534
  115SAPE  H11X12106   0.490   6.665   6.567 -2.4226 -1.1606  1.2209
  115SAPE  H11Y12107   0.630   6.554   6.570 -0.5185 -1.5646 -0.4003
  115SAPE  C31212108   0.442   6.455   6.574  0.8690 -0.0178  0.0482
  115SAPE  H12X12109   0.488   6.374   6.513  1.6985  0.8305 -0.4833
  115SAPE  H12Y12110   0.336   6.468   6.543  0.6712  0.5754  0.9505
  115SAPE  C31312111   0.441   6.426   6.729 -0.2247 -0.7937 -0.0566
  115SAPE  H13X12112   0.433   6.521   6.786  0.7383 -0.5364 -0.3325
  115SAPE  H13Y12113   0.543   6.390   6.758 -0.0046  0.5744  1.0255
  115SAPE  C31412114   0.330   6.329   6.780 -0.3558 -0.1737 -0.1320
  115SAPE  H14X12115   0.233   6.349   6.728  0.1621  1.8296 -0.4026
  115SAPE  H14Y12116   0.328   6.345   6.890 -1.4087 -0.9245 -0.0178
  115SAPE  C31512117   0.352   6.181   6.760 -0.4920 -0.1545  0.2924
  115SAPE  H15X12118   0.443   6.133   6.803 -0.7552 -2.1718 -1.2946
  115SAPE  H15Y12119   0.366   6.165   6.651 -1.0268  0.1290  0.1775
  115SAPE  C31612120   0.235   6.099   6.802  0.2033  0.1717 -0.4328
  115SAPE  H16X12121   0.242   5.997   6.759  0.3902  0.1241 -0.2864
  115SAPE  H16Y12122   0.145   6.140   6.750  1.4081 -0.6591 -3.3667
  115SAPE  C31712123   0.198   6.095   6.953  0.5163  0.3976  0.1819
  115SAPE  H17X12124   0.099   6.046   6.952  0.7469 -0.2520 -3.5917
  115SAPE  H17Y12125   0.188   6.200   6.988  0.8936  0.2200  0.8403
  115SAPE  C31812126   0.286   5.999   7.034 -0.6334  0.5913  0.0378
  115SAPE  H18X12127   0.396   6.009   7.018 -0.5307 -1.7781 -1.3784
  115SAPE  H18Y12128   0.262   5.892   7.011 -0.7027  0.4403  0.7921
  115SAPE  H18Z12129   0.265   6.019   7.141  0.0898 -1.2957  0.5795
  116SAPE     N12130   5.965   4.724   5.241 -0.9149  0.0382 -0.5702
  116SAPE   HN112131   5.925   4.819   5.229  1.5402  1.0296 -1.7450
  116SAPE   HN212132   6.061   4.713   5.201 -0.0002  1.4029  1.1146
  116SAPE   HN312133   5.895   4.659   5.200  2.0497 -2.7848 -1.6150
  116SAPE   C1212134   5.961   4.687   5.387 -0.1300  0.3961  0.5496
  116SAPE  H12A12135   6.035   4.754   5.437 -0.9486  0.7228  1.3481
  116SAPE  H12B12136   6.003   4.584   5.388  1.9971  1.1854 -0.2527
  116SAPE   C1112137   5.818   4.693   5.444 -0.0691  0.0276  0.3300
  116SAPE  H11A12138   5.785   4.799   5.453  1.8159  0.5644  1.6032
  116SAPE  H11B12139   5.829   4.660   5.550  1.1417  0.5348  0.3744
  116SAPE     P12140   5.578   4.644   5.348 -0.0951 -0.0813 -0.2403
  116SAPE   O1312141   5.566   4.784   5.289  0.8454  0.2373  0.9361
  116SAPE   O1412142   5.514   4.538   5.263  0.5406 -0.7960 -0.4074
  116SAPE   O1212143   5.731   4.607   5.372 -0.0308  0.3708 -0.4521
  116SAPE   O1112144   5.531   4.645   5.499  0.0188 -0.1386 -1.0109
  116SAPE    C112145   5.533   4.525   5.574 -0.3613  0.0476 -0.1031
  116SAPE    HA12146   5.613   4.457   5.537  1.3476  1.5637  0.6708
  116SAPE    HB12147   5.554   4.547   5.680 -0.3887  0.0687 -0.1022
  116SAPE    C212148   5.403   4.439   5.555  0.8412  0.9254 -0.5494
  116SAPE    HS12149   5.363   4.440   5.451 -0.0520 -1.5513 -0.2789
  116SAPE   O2112150   5.306   4.497   5.656 -0.7376  0.2935  0.6819
  116SAPE   C2112151   5.237   4.593   5.607  0.0383 -0.4987  0.1025
  116SAPE   O2212152   5.230   4.623   5.482 -0.0917  0.2708  0.2812
  116SAPE   C2212153   5.159   4.661   5.714 -0.9595  0.1980  0.2149
  116SAPE   H2R12154   5.084   4.724   5.663 -0.8404 -0.5283 -0.9001
  116SAPE   H2S12155   5.101   4.583   5.769 -0.2517  0.1156  0.8632
  116SAPE    C312156   5.415   4.288   5.602  0.4858  0.0591  0.1871
  116SAPE    HX12157   5.492   4.240   5.538  2.7698  2.4550  0.9645
  116SAPE    HY12158   5.322   4.236   5.571  1.1989 -0.0582 -1.8595
  116SAPE   O3112159   5.456   4.271   5.743  0.1971  0.3333  0.4327
  116SAPE   C3112160   5.365   4.235   5.827  0.3379  0.4439 -0.3549
  116SAPE   O3212161   5.247   4.207   5.802 -0.1697  0.2197 -0.3942
  116SAPE   C3212162   5.410   4.252   5.966  0.3338  0.0865 -0.1557
  116SAPE   H2X12163   5.373   4.342   6.019 -0.3915  0.1036 -0.6794
  116SAPE   H2Y12164   5.521   4.256   5.956  0.1842 -0.3144 -2.5507
  116SAPE   C2312165   5.250   4.731   5.812  0.4700  0.3549 -0.7659
  116SAPE   H3R12166   5.191   4.808   5.867 -0.2758 -0.0428 -1.0055
  116SAPE   H3S12167   5.323   4.794   5.757  2.0398  1.7945  2.6209
  116SAPE   C2412168   5.315   4.636   5.910 -0.1147  0.5808 -0.7288
  116SAPE   H4R12169   5.387   4.572   5.854 -1.8947  0.3894 -2.9240
  116SAPE   H4S12170   5.231   4.574   5.947  1.6665 -2.6004 -1.6885
  116SAPE   C2512171   5.397   4.712   6.018  0.2974 -0.1564  0.0986
  116SAPE   H5R12172   5.471   4.784   5.980 -0.0946  0.3695  0.3258
  116SAPE   C2612173   5.390   4.682   6.146  0.2950  0.0247  0.4917
  116SAPE   H6R12174   5.459   4.736   6.212  1.0963 -1.4440  0.8895
  116SAPE   C2712175   5.316   4.570   6.218  0.0019 -0.2404 -0.3525
  116SAPE   H7R12176   5.382   4.536   6.301  0.5511  2.3284  0.3625
  116SAPE   H7S12177   5.280   4.488   6.153 -0.3113 -2.2001  2.1500
  116SAPE   C2812178   5.190   4.641   6.271  0.4071 -0.2967  0.0917
  116SAPE   H8R12179   5.153   4.723   6.208  2.1011  3.3602  3.4140
  116SAPE   C2912180   5.126   4.604   6.382 -0.4984 -0.7452  0.0718
  116SAPE   H9R12181   5.036   4.664   6.400 -1.4006 -1.4373 -1.8365
  116SAPE  C21012182   5.174   4.498   6.481  0.3185  0.2942  0.3278
  116SAPE  H10R12183   5.284   4.485   6.474  0.9648  1.2157  5.1896
  116SAPE  H10S12184   5.120   4.402   6.469  0.6064  0.1970 -0.2394
  116SAPE  C21112185   5.158   4.547   6.618  0.6504  0.3132 -0.2364
  116SAPE  H11R12186   5.085   4.492   6.680  2.2323 -2.7994 -0.9426
  116SAPE  C21212187   5.222   4.655   6.672  0.2325 -0.5132  0.5863
  116SAPE  H12R12188   5.214   4.675   6.780 -0.6593 -0.6582  0.5563
  116SAPE  C21312189   5.326   4.744   6.603 -0.5932 -0.2404  0.2682
  116SAPE  H13R12190   5.345   4.712   6.498 -0.2684  2.0001 -0.3969
  116SAPE  H13S12191   5.425   4.724   6.650 -0.8758 -0.0397  0.9673
  116SAPE  C21412192   5.284   4.882   6.607 -0.1328 -0.0910  0.1226
  116SAPE  H14R12193   5.244   4.920   6.512  2.4886 -0.4661 -1.2063
  116SAPE  C21512194   5.307   4.970   6.701  0.1829 -0.0790 -0.5871
  116SAPE  H15R12195   5.272   5.073   6.683  0.9097  0.4735  0.9249
  116SAPE  C21612196   5.372   4.934   6.844 -1.0629 -0.0399 -0.2104
  116SAPE  H16R12197   5.451   4.999   6.887  0.5147 -2.5296  0.8385
  116SAPE  H16S12198   5.423   4.836   6.840  1.8762  1.2440  2.1382
  116SAPE  C21712199   5.266   4.932   6.956  0.6769  0.1167  0.5077
  116SAPE  H17R12200   5.186   4.862   6.924 -0.0377  1.2626 -0.2612
  116SAPE  H17S12201   5.223   5.033   6.973 -0.8504 -0.3879 -0.1457
  116SAPE  C21812202   5.327   4.874   7.088  0.3563 -0.5402 -0.3014
  116SAPE  H18R12203   5.410   4.937   7.126 -1.0475  1.0881  0.2305
  116SAPE  H18S12204   5.372   4.775   7.066 -0.4392 -0.5926 -1.7757
  116SAPE  C21912205   5.225   4.865   7.202 -1.1244 -0.4265  0.5096
  116SAPE  H19R12206   5.281   4.824   7.289  0.3215  1.0392  0.3341
  116SAPE  H19S12207   5.149   4.797   7.159  0.0997 -0.6254 -1.4893
  116SAPE  C22012208   5.169   4.995   7.244 -0.2150  0.0790 -0.7180
  116SAPE  H20R12209   5.099   4.974   7.328 -0.7891 -2.7603 -1.7896
  116SAPE  H20S12210   5.114   5.047   7.162  0.6746 -0.7697 -1.8964
  116SAPE  H20T12211   5.256   5.051   7.283  1.2817 -1.4227 -1.7365
  116SAPE   C3312212   5.368   4.127   6.053  0.1702 -0.7794  0.5571
  116SAPE   H3X12213   5.436   4.041   6.033 -0.4550 -1.1792  0.0960
  116SAPE   H3Y12214   5.264   4.091   6.034 -0.1910  0.2067  0.6164
  116SAPE   C3412215   5.387   4.157   6.202 -0.1238  0.1077  0.0697
  116SAPE   H4X12216   5.364   4.070   6.268 -0.3450 -1.0332 -1.4667
  116SAPE   H4Y12217   5.310   4.232   6.230  0.7589  1.0367  0.0520
  116SAPE   C3512218   5.521   4.209   6.236 -0.0940 -0.3909 -0.2045
  116SAPE   H5X12219   5.539   4.305   6.184  1.6363 -0.0855  0.8933
  116SAPE   H5Y12220   5.599   4.140   6.197  0.3222 -0.1128  0.1212
  116SAPE   C3612221   5.543   4.232   6.386  0.3900  0.1320 -0.6636
  116SAPE   H6X12222   5.534   4.136   6.442 -0.3848  1.4208  1.5244
  116SAPE   H6Y12223   5.462   4.302   6.414  0.0588 -0.1171 -1.0005
  116SAPE   C3712224   5.678   4.282   6.445  0.2325  0.1773 -0.1009
  116SAPE   H7X12225   5.714   4.377   6.399 -1.7336  2.1140  2.0767
  116SAPE   H7Y12226   5.750   4.200   6.424 -0.5343 -0.7363  0.7007
  116SAPE   C3812227   5.664   4.290   6.600 -0.0279  0.4698 -0.2930
  116SAPE   H8X12228   5.758   4.279   6.658 -0.0417 -1.0977 -0.5439
  116SAPE   H8Y12229   5.601   4.204   6.632 -0.3629  0.4315 -1.0517
  116SAPE   C3912230   5.608   4.422   6.649  0.2835  0.0958  0.1182
  116SAPE   H9X12231   5.500   4.443   6.627  0.0314 -1.6390 -0.4426
  116SAPE   H9Y12232   5.673   4.493   6.593 -2.1128  1.0138 -1.6869
  116SAPE  C31012233   5.630   4.462   6.792 -0.0785 -0.4272 -0.2694
  116SAPE  H10X12234   5.629   4.573   6.789 -1.7375 -0.4399 -1.1757
  116SAPE  H10Y12235   5.735   4.431   6.812  0.3807  0.7552 -0.7392
  116SAPE  C31112236   5.534   4.403   6.897  0.1239  0.7831 -0.2122
  116SAPE  H11X12237   5.570   4.421   7.000 -0.3642  0.1565  0.0753
  116SAPE  H11Y12238   5.521   4.294   6.884  0.3989  0.6834  0.3524
  116SAPE  C31212239   5.384   4.455   6.889  0.3592 -0.4124  0.0012
  116SAPE  H12X12240   5.352   4.454   6.783 -1.2859  0.8882  0.4468
  116SAPE  H12Y12241   5.390   4.556   6.935 -1.5448  0.1620 -0.9010
  116SAPE  C31312242   5.289   4.364   6.963 -0.5295 -0.4855  0.0231
  116SAPE  H13X12243   5.296   4.390   7.071 -1.1349 -0.0873 -0.0265
  116SAPE  H13Y12244   5.325   4.259   6.962  1.7083  0.2025  1.4975
  116SAPE  C31412245   5.132   4.367   6.928 -0.6404  0.0154 -0.2612
  116SAPE  H14X12246   5.106   4.329   6.827 -1.3248 -0.7605  0.1923
  116SAPE  H14Y12247   5.094   4.468   6.953  2.2851  1.0042  0.6694
  116SAPE  C31512248   5.056   4.265   7.012 -0.8179 -0.2956 -0.3020
  116SAPE  H15X12249   5.097   4.165   6.986 -1.1244 -0.2445 -1.0203
  116SAPE  H15Y12250   4.950   4.261   6.979 -0.9392 -1.5033  0.1849
  116SAPE  C31612251   5.056   4.293   7.165  0.7281  0.6332 -0.1501
  116SAPE  H16X12252   5.160   4.297   7.203  0.8863 -1.8606 -0.1614
  116SAPE  H16Y12253   5.025   4.192   7.200  2.3470 -0.3612 -1.4417
  116SAPE  C31712254   4.973   4.414   7.209 -0.0445 -0.1013  0.0433
  116SAPE  H17X12255   4.867   4.388   7.188 -0.2616 -0.2288  1.2179
  116SAPE  H17Y12256   4.990   4.500   7.141 -1.7124  0.4314  0.2647
  116SAPE  C31812257   4.989   4.455   7.356 -0.5100 -0.7718 -0.7452
  116SAPE  H18X12258   4.942   4.555   7.359 -2.0202 -1.4512 -0.9558
  116SAPE  H18Y12259   5.097   4.463   7.381 -0.6200 -2.0495  0.2261
  116SAPE  H18Z12260   4.941   4.374   7.415 -1.6443  0.0044 -0.5783
  117SOPE     N12261   2.306   6.209   0.322 -0.1904  0.2985  0.3755
  117SOPE   HN112262   2.387   6.196   0.385  0.9094 -1.0564 -1.2365
  117SOPE   HN212263   2.290   6.112   0.289 -0.8755  0.8374 -0.9542
  117SOPE   HN312264   2.332   6.264   0.237  0.0390 -0.8096 -0.2921
  117SOPE   C1212265   2.188   6.260   0.396  0.3421 -0.3275 -0.4627
  117SOPE  H12A12266   2.106   6.258   0.321  1.0611 -0.5223 -1.2620
  117SOPE  H12B12267   2.207   6.367   0.419  1.6287 -0.1484 -2.2074
  117SOPE   C1112268   2.160   6.177   0.522 -0.4560 -0.0021 -0.5846
  117SOPE  H11A12269   2.065   6.219   0.560 -0.4230 -0.0228 -0.4811
  117SOPE  H11B12270   2.232   6.198   0.604 -1.1009  1.5213 -0.3727
  117SOPE     P12271   2.070   5.937   0.584 -0.3243 -0.0260  0.1742
  117SOPE   O1312272   1.927   5.983   0.581  0.2195  0.0848 -0.6566
  117SOPE   O1412273   2.130   5.921   0.723  0.1831  0.1966 -0.1663
  117SOPE   O1212274   2.151   6.037   0.495 -0.3589 -0.4039 -0.0074
  117SOPE   O1112275   2.070   5.800   0.499  0.1233  0.2172 -0.1773
  117SOPE    C112276   2.197   5.751   0.441 -0.1778  0.0850  0.4790
  117SOPE    HA12277   2.231   5.653   0.479  0.8824 -0.3532 -1.4997
  117SOPE    HB12278   2.274   5.826   0.466 -1.2281  1.8391 -1.2539
  117SOPE    C212279   2.188   5.746   0.283  0.1669  0.6477  0.7227
  117SOPE    HS12280   2.157   5.851   0.265  3.1149  1.4885 -0.0765
  117SOPE   O2112281   2.107   5.638   0.242 -0.2424  0.1515  0.6249
  117SOPE   C2112282   2.015   5.667   0.144 -0.2208 -0.6514 -0.0811
  117SOPE   O2212283   1.995   5.776   0.100  0.3963 -0.1648  0.1418
  117SOPE   C2212284   1.943   5.542   0.103 -0.5167 -0.5861  0.1917
  117SOPE   H2R12285   1.867   5.522   0.182 -2.1577  0.6934 -0.9911
  117SOPE   H2S12286   2.013   5.457   0.092 -0.1386 -0.0089 -2.5813
  117SOPE    C312287   2.320   5.726   0.219 -0.3330 -0.6513  1.0001
  117SOPE    HX12288   2.359   5.622   0.231  0.0045 -0.7354 -0.6192
  117SOPE    HY12289   2.392   5.791   0.273 -3.3253  1.4774  2.7319
  117SOPE   O3112290   2.311   5.743   0.073  0.6914 -0.5296  0.0737
  117SOPE   C3112291   2.288   5.877   0.032  0.5108  0.6594 -0.1859
  117SOPE   O3212292   2.289   5.970   0.110  0.1697  0.1465  0.7855
  117SOPE   C3212293   2.271   5.884  -0.115 -0.2567 -0.3296  0.6546
  117SOPE   H2X12294   2.287   5.989  -0.149 -0.0709 -0.6244 -0.1931
  117SOPE   H2Y12295   2.167   5.856  -0.145  0.5236  0.0268 -2.8341
  117SOPE   C2312296   1.859   5.566  -0.017  0.6786  0.4452 -0.2980
  117SOPE   H3R12297   1.795   5.656  -0.004  0.8460  0.3939  1.1351
  117SOPE   H3S12298   1.786   5.482  -0.017  1.0684  0.0899  0.6765
  117SOPE   C2412299   1.943   5.569  -0.142  1.7147  0.2335 -0.7963
  117SOPE   H4R12300   1.865   5.579  -0.221 -0.8936  2.0300  1.7890
  117SOPE   H4S12301   2.026   5.642  -0.150  0.6563  1.4742 -0.7149
  117SOPE   C2512302   2.010   5.435  -0.172 -0.8081  0.0347  0.3116
  117SOPE   H5R12303   2.077   5.414  -0.086  0.6056  1.6062 -0.3493
  117SOPE   H5S12304   1.935   5.354  -0.190 -0.7932 -0.1787  1.1503
  117SOPE   C2612305   2.118   5.433  -0.287  0.2767 -0.5654 -0.2718
  117SOPE   H6R12306   2.206   5.493  -0.255  0.2219 -0.0442 -1.0585
  117SOPE   H6S12307   2.148   5.327  -0.297  1.8817 -0.1953  0.3036
  117SOPE   C2712308   2.065   5.484  -0.422 -0.3939 -0.8530 -0.1131
  117SOPE   H7R12309   1.970   5.431  -0.446  0.4106 -3.0683  1.3777
  117SOPE   H7S12310   2.046   5.594  -0.418  3.2262  0.0431 -2.5311
  117SOPE   C2812311   2.161   5.447  -0.532 -0.1625 -0.1987  0.3199
  117SOPE   H8R12312   2.129   5.497  -0.625  0.0100 -2.2843 -0.9325
  117SOPE   H8S12313   2.262   5.482  -0.502 -0.9542  1.7295  0.8567
  117SOPE   C2912314   2.152   5.298  -0.569 -0.0583  0.1881 -0.4607
  117SOPE   H9112315   2.109   5.235  -0.489 -0.2831  0.7015 -0.1686
  117SOPE  C21012316   2.176   5.244  -0.691  0.8103  0.7834 -0.1844
  117SOPE  H10112317   2.152   5.140  -0.716 -0.3092  0.4970  1.8819
  117SOPE  C21112318   2.226   5.310  -0.817 -0.1557 -0.0798  0.4471
  117SOPE  H11R12319   2.320   5.366  -0.798  0.4123 -1.0774  0.6274
  117SOPE  H11S12320   2.159   5.391  -0.853  0.1099  0.5117  1.2528
  117SOPE  C21212321   2.240   5.205  -0.923  0.2508  0.2964 -0.5881
  117SOPE  H12R12322   2.143   5.156  -0.942  0.5276 -1.4939  2.0430
  117SOPE  H12S12323   2.309   5.124  -0.891 -0.8885  0.9420  4.2730
  117SOPE  C21312324   2.295   5.259  -1.054  0.4112  0.1911 -0.7231
  117SOPE  H13R12325   2.395   5.304  -1.033  0.0567  0.2099  1.1263
  117SOPE  H13S12326   2.227   5.341  -1.083 -1.1262 -1.2129 -1.2349
  117SOPE  C21412327   2.302   5.155  -1.168 -0.0254 -0.3435 -0.4714
  117SOPE  H14R12328   2.200   5.143  -1.209 -0.6305  2.2714  0.0652
  117SOPE  H14S12329   2.344   5.054  -1.146 -0.2574 -0.3895 -0.2410
  117SOPE  C21512330   2.393   5.212  -1.277 -0.2846 -0.9931  0.2916
  117SOPE  H15R12331   2.501   5.194  -1.257  0.0098 -2.4777 -2.2166
  117SOPE  H15S12332   2.375   5.320  -1.297 -3.6639 -1.0408  2.3666
  117SOPE  C21612333   2.354   5.153  -1.416  0.5723  0.1079  0.3061
  117SOPE  H16R12334   2.247   5.183  -1.430  0.3325 -1.8441 -3.3206
  117SOPE  H16S12335   2.352   5.043  -1.404  1.7026  0.1584  1.1011
  117SOPE  C21712336   2.446   5.178  -1.529 -0.2001  0.0692  0.5952
  117SOPE  H17R12337   2.545   5.130  -1.511 -0.1851 -0.1657 -0.1005
  117SOPE  H17S12338   2.472   5.283  -1.555 -0.5425 -0.2543 -1.1599
  117SOPE  C21812339   2.389   5.118  -1.661  0.2306 -0.7389 -0.3731
  117SOPE  H18R12340   2.469   5.124  -1.738  0.7119 -1.0490  0.0896
  117SOPE  H18S12341   2.300   5.174  -1.696  1.4602  0.4887 -1.6682
  117SOPE  H18T12342   2.372   5.008  -1.657 -1.7328 -0.5417 -1.9392
  117SOPE   C3312343   2.369   5.792  -0.191  0.1723 -0.2391  0.0838
  117SOPE   H3X12344   2.372   5.684  -0.166  1.1193 -0.4458 -0.8248
  117SOPE   H3Y12345   2.469   5.834  -0.165 -0.3324  1.4844 -0.5957
  117SOPE   C3412346   2.345   5.804  -0.338  0.4068 -0.0743  0.7307
  117SOPE   H4X12347   2.321   5.904  -0.380 -0.1668 -2.2968 -5.0053
  117SOPE   H4Y12348   2.247   5.755  -0.358  0.7422  0.2314 -1.8905
  117SOPE   C3512349   2.453   5.736  -0.421  0.7011  0.0760 -0.1705
  117SOPE   H5X12350   2.454   5.630  -0.387  0.0829  0.0619 -0.1799
  117SOPE   H5Y12351   2.551   5.783  -0.398 -0.6921  3.9493 -1.4627
  117SOPE   C3612352   2.429   5.759  -0.570  0.1573 -0.1056  0.1235
  117SOPE   H6X12353   2.433   5.868  -0.591  0.4262 -0.1510 -0.0603
  117SOPE   H6Y12354   2.330   5.713  -0.591 -0.4808  0.9779  0.6692
  117SOPE   C3712355   2.530   5.684  -0.658  0.3968  0.3969 -0.5401
  117SOPE   H7X12356   2.508   5.575  -0.658  1.3995  0.1775 -1.6603
  117SOPE   H7Y12357   2.631   5.700  -0.614 -0.5885 -1.1668  2.6047
  117SOPE   C3812358   2.519   5.719  -0.802  0.0793 -0.3992 -0.0480
  117SOPE   H8X12359   2.547   5.822  -0.832  1.6778 -0.9680 -0.6593
  117SOPE   H8Y12360   2.419   5.699  -0.844 -0.3418 -1.6958  1.4584
  117SOPE   C3912361   2.613   5.629  -0.890  0.2741 -0.2084 -0.0437
  117SOPE   H9X12362   2.593   5.521  -0.876 -0.3187 -0.1501 -0.4227
  117SOPE   H9Y12363   2.717   5.647  -0.857  0.0581  1.1869 -0.0441
  117SOPE  C31012364   2.617   5.665  -1.039  0.6188 -0.2920 -0.3216
  117SOPE  H10X12365   2.715   5.631  -1.079  0.1902  0.2513 -1.9218
  117SOPE  H10Y12366   2.600   5.773  -1.057 -0.1372 -0.3303  0.0972
  117SOPE  C31112367   2.516   5.574  -1.116  0.0545  0.1545  0.1085
  117SOPE  H11X12368   2.412   5.600  -1.088  0.0163 -0.2544  0.3517
  117SOPE  H11Y12369   2.537   5.467  -1.097  0.3776  0.3032  0.5963
  117SOPE  C31212370   2.523   5.588  -1.269 -0.6620 -0.8682  0.1431
  117SOPE  H12X12371   2.506   5.694  -1.295  0.3461 -0.7894 -0.2284
  117SOPE  H12Y12372   2.436   5.528  -1.303 -1.1360 -0.0691 -0.0820
  117SOPE  C31312373   2.651   5.524  -1.315  0.0097  0.4320  0.3766
  117SOPE  H13X12374   2.644   5.416  -1.289  1.2886 -0.3068 -1.9970
  117SOPE  H13Y12375   2.737   5.572  -1.263 -1.2592  1.3148  1.7405
  117SOPE  C31412376   2.667   5.536  -1.470  0.2943 -0.1769  0.5395
  117SOPE  H14X12377   2.661   5.644  -1.496  1.9387 -0.1205  0.2823
  117SOPE  H14Y12378   2.584   5.490  -1.528  1.2338 -2.4388  0.8987
  117SOPE  C31512379   2.808   5.491  -1.516 -0.5776 -0.9288  0.1426
  117SOPE  H15X12380   2.818   5.385  -1.485  0.4125 -0.8256  0.2040
  117SOPE  H15Y12381   2.883   5.555  -1.466 -0.5891 -2.4431  2.2431
  117SOPE  C31612382   2.835   5.492  -1.667 -0.3246 -1.1024  0.1351
  117SOPE  H16X12383   2.945   5.492  -1.681 -0.2697  0.5282  0.2729
  117SOPE  H16Y12384   2.802   5.595  -1.693  1.1649 -0.2181  1.5607
  117SOPE  C31712385   2.779   5.381  -1.748 -0.0595 -0.2460 -0.2331
  117SOPE  H17X12386   2.790   5.411  -1.854  2.5899 -2.9630 -0.8774
  117SOPE  H17Y12387   2.671   5.366  -1.725 -0.4348  1.0319 -1.0799
  117SOPE  C31812388   2.864   5.254  -1.729 -0.6208  0.5757  0.6294
  117SOPE  H18X12389   2.971   5.279  -1.746 -1.1000  2.0292 -0.4796
  117SOPE  H18Y12390   2.848   5.176  -1.806  0.2050  1.2511 -0.2496
  117SOPE  H18Z12391   2.849   5.203  -1.631 -0.8091 -0.9292 -0.1522
  118SOPE     N12392   0.622   1.536   0.788 -0.5676 -0.0188 -0.1623
  118SOPE   HN112393   0.665   1.571   0.876  0.3639  1.4742 -1.1579
  118SOPE   HN212394   0.600   1.435   0.796  3.5262 -1.2150 -1.5011
  118SOPE   HN312395   0.691   1.565   0.716 -1.5503  5.3051  0.6672
  118SOPE   C1212396   0.511   1.631   0.777 -0.4334  0.3914 -0.0741
  118SOPE  H12A12397   0.496   1.635   0.667 -1.0543 -1.8601 -0.1235
  118SOPE  H12B12398   0.535   1.733   0.813 -1.7404  1.2016 -1.3888
  118SOPE   C1112399   0.382   1.581   0.845  0.3908 -0.7027  0.5184
  118SOPE  H11A12400   0.302   1.654   0.818 -1.0710 -2.2591  0.4209
  118SOPE  H11B12401   0.390   1.592   0.956  2.2316  0.2978  0.3135
  118SOPE     P12402   0.211   1.385   0.880 -0.2067 -0.4437  0.0973
  118SOPE   O1312403   0.115   1.493   0.891  0.0701 -0.0196 -0.2486
  118SOPE   O1412404   0.251   1.331   1.012 -0.2328  0.5038  0.2430
  118SOPE   O1212405   0.333   1.450   0.810  0.2763 -0.6319  0.7029
  118SOPE   O1112406   0.163   1.276   0.780 -0.1276  0.4590  0.2281
  118SOPE    C112407   0.242   1.206   0.681 -0.2276  0.2565 -0.6523
  118SOPE    HA12408   0.177   1.119   0.656  0.1249  0.1953 -1.3720
  118SOPE    HB12409   0.343   1.183   0.723 -0.3536 -1.2042 -1.0992
  118SOPE    C212410   0.238   1.265   0.541  0.4697 -0.0223 -0.3963
  118SOPE    HS12411   0.292   1.362   0.541  0.4179  0.0066 -0.3041
  118SOPE   O2112412   0.096   1.290   0.511  0.1019  0.5566 -0.1734
  118SOPE   C2112413   0.079   1.399   0.445 -0.0620 -0.1032  0.2726
  118SOPE   O2212414   0.160   1.482   0.402  0.0348  0.2378  0.1672
  118SOPE   C2212415  -0.073   1.418   0.416 -0.9026 -0.3212  1.3514
  118SOPE   H2R12416  -0.103   1.525   0.422 -1.9321 -0.1207 -3.3014
  118SOPE   H2S12417  -0.139   1.366   0.489 -2.0372 -1.2096 -0.2236
  118SOPE    C312418   0.305   1.170   0.430 -0.0320 -0.4480 -0.2937
  118SOPE    HX12419   0.263   1.070   0.453 -0.7672 -0.2852 -0.9055
  118SOPE    HY12420   0.415   1.173   0.448  0.1543 -0.7323 -1.3097
  118SOPE   O3112421   0.278   1.213   0.298 -0.0956  0.4349  0.1062
  118SOPE   C3112422   0.362   1.309   0.244  0.5564 -0.1750 -0.1488
  118SOPE   O3212423   0.472   1.347   0.279 -0.0050  0.5828 -0.6018
  118SOPE   C3212424   0.291   1.361   0.119 -0.1682 -0.8668  0.4903
  118SOPE   H2X12425   0.191   1.399   0.150 -0.3904 -1.7547  0.8910
  118SOPE   H2Y12426   0.269   1.275   0.052  0.0990  0.8071 -1.8693
  118SOPE   C2312427  -0.119   1.376   0.275 -0.2230 -0.0057 -0.2984
  118SOPE   H3R12428  -0.048   1.407   0.195  0.1642 -0.3667 -0.1017
  118SOPE   H3S12429  -0.216   1.423   0.248 -0.5275 -0.4604 -0.0062
  118SOPE   C2412430  -0.150   1.222   0.263  0.2964  0.8558  0.5204
  118SOPE   H4R12431  -0.059   1.161   0.279  0.8145  1.9247  1.8802
  118SOPE   H4S12432  -0.213   1.195   0.351  0.4710  0.8844  0.6552
  118SOPE   C2512433  -0.203   1.187   0.123  0.1520  1.0027 -0.9974
  118SOPE   H5R12434  -0.244   1.084   0.127  2.1436  0.1576  2.4414
  118SOPE   H5S12435  -0.292   1.249   0.099 -1.6321 -1.3191 -0.7331
  118SOPE   C2612436  -0.098   1.192   0.017 -0.6238  0.6047 -0.3316
  118SOPE   H6R12437  -0.041   1.288   0.010  0.7973  0.0045  1.9906
  118SOPE   H6S12438  -0.018   1.127   0.058 -0.0305  0.8373 -1.0839
  118SOPE   C2712439  -0.143   1.151  -0.124  0.5442 -0.4353  0.3887
  118SOPE   H7R12440  -0.055   1.127  -0.187  0.8398 -2.0450  1.3690
  118SOPE   H7S12441  -0.207   1.061  -0.135 -1.0222  0.7255 -0.5232
  118SOPE   C2812442  -0.222   1.261  -0.193 -0.2136 -0.1263 -0.1269
  118SOPE   H8R12443  -0.291   1.312  -0.123 -1.3556 -1.0889 -0.5202
  118SOPE   H8S12444  -0.145   1.334  -0.227  0.3162 -0.7719 -0.3181
  118SOPE   C2912445  -0.306   1.218  -0.311 -0.6359  0.0916  0.0601
  118SOPE   H9112446  -0.397   1.167  -0.277 -0.4553 -0.9445 -0.9654
  118SOPE  C21012447  -0.261   1.206  -0.434 -1.1733 -0.4708  0.3853
  118SOPE  H10112448  -0.335   1.184  -0.512  1.7653  1.1937 -3.2075
  118SOPE  C21112449  -0.132   1.265  -0.491  0.4391 -0.3199 -0.2168
  118SOPE  H11R12450  -0.069   1.179  -0.522  0.6619  0.1403 -1.0529
  118SOPE  H11S12451  -0.075   1.322  -0.414  0.6801  1.7134 -1.8088
  118SOPE  C21212452  -0.159   1.353  -0.613 -0.1719 -0.2210  0.4798
  118SOPE  H12R12453  -0.075   1.424  -0.629  0.3548 -0.8293  0.4811
  118SOPE  H12S12454  -0.252   1.412  -0.604 -0.3321 -0.1369 -1.3280
  118SOPE  C21312455  -0.171   1.268  -0.743 -0.1507 -0.6837 -0.3810
  118SOPE  H13R12456  -0.226   1.173  -0.735 -1.2473 -0.1499 -1.3165
  118SOPE  H13S12457  -0.067   1.237  -0.766  0.6499  0.8542  0.9200
  118SOPE  C21412458  -0.238   1.345  -0.853  0.5168  0.0431 -0.4486
  118SOPE  H14R12459  -0.321   1.404  -0.810  3.2198  2.1117  2.4576
  118SOPE  H14S12460  -0.265   1.258  -0.916 -0.1420 -1.2262  1.4833
  118SOPE  C21512461  -0.145   1.442  -0.932  0.0426 -0.1193  0.4414
  118SOPE  H15R12462  -0.059   1.389  -0.978 -0.5357 -0.0628 -0.7351
  118SOPE  H15S12463  -0.117   1.523  -0.861 -1.7369  1.5232 -0.6559
  118SOPE  C21612464  -0.224   1.505  -1.050 -0.2680  0.2486 -0.1386
  118SOPE  H16R12465  -0.216   1.615  -1.044  1.4025  0.0996  1.3385
  118SOPE  H16S12466  -0.332   1.483  -1.055 -0.2819  0.4711 -1.0565
  118SOPE  C21712467  -0.173   1.468  -1.191  0.1549 -0.0569  0.3075
  118SOPE  H17R12468  -0.162   1.358  -1.193  0.1033 -0.1400  2.4111
  118SOPE  H17S12469  -0.079   1.524  -1.208 -2.5481  4.4646 -1.8536
  118SOPE  C21812470  -0.277   1.508  -1.301 -0.0198  0.3060 -0.5118
  118SOPE  H18R12471  -0.300   1.616  -1.288  1.2245  0.3162  2.2594
  118SOPE  H18S12472  -0.373   1.453  -1.292  1.3676 -1.9150  2.0006
  118SOPE  H18T12473  -0.240   1.486  -1.403 -0.2674  0.6528 -0.6775
  118SOPE   C3312474   0.377   1.466   0.039 -0.4817 -0.2575  0.8074
  118SOPE   H3X12475   0.481   1.427   0.035 -0.5420 -0.2887 -0.7019
  118SOPE   H3Y12476   0.373   1.568   0.082 -0.3291 -0.8748  2.3655
  118SOPE   C3412477   0.320   1.488  -0.103 -0.0055 -0.5076 -0.2395
  118SOPE   H4X12478   0.379   1.573  -0.140 -1.9700  1.0511  0.0387
  118SOPE   H4Y12479   0.212   1.516  -0.095  0.2657  0.5399 -0.2288
  118SOPE   C3512480   0.343   1.370  -0.202 -0.3171  0.0894  0.8280
  118SOPE   H5X12481   0.283   1.288  -0.157 -0.6481 -0.1983 -0.1103
  118SOPE   H5Y12482   0.447   1.332  -0.197  0.2789  1.3776 -0.8092
  118SOPE   C3612483   0.287   1.414  -0.332  0.0103  0.0275  0.1585
  118SOPE   H6X12484   0.292   1.524  -0.348 -3.6041  0.3417  0.3005
  118SOPE   H6Y12485   0.182   1.384  -0.351  0.5174 -0.5757 -2.0963
  118SOPE   C3712486   0.375   1.361  -0.445 -0.0793  0.4405  0.2154
  118SOPE   H7X12487   0.367   1.250  -0.455 -0.1664  0.5910 -1.9476
  118SOPE   H7Y12488   0.483   1.384  -0.432  0.8143 -2.1137 -1.7461
  118SOPE   C3812489   0.324   1.417  -0.581 -0.1890 -0.4761 -0.1437
  118SOPE   H8X12490   0.350   1.523  -0.560 -0.5391 -0.9467  3.2202
  118SOPE   H8Y12491   0.216   1.403  -0.603 -0.4452  0.1077  0.6864
  118SOPE   C3912492   0.392   1.359  -0.702  0.2909  0.1354  0.5221
  118SOPE   H9X12493   0.370   1.251  -0.717 -0.4252  0.3518 -0.0921
  118SOPE   H9Y12494   0.501   1.370  -0.683  0.6792 -2.3858  0.1571
  118SOPE  C31012495   0.358   1.446  -0.829 -0.3911 -0.3308 -0.3930
  118SOPE  H10X12496   0.391   1.552  -0.825 -0.9018 -0.0333 -2.6339
  118SOPE  H10Y12497   0.248   1.457  -0.841 -0.1467  2.2320 -0.9474
  118SOPE  C31112498   0.408   1.371  -0.948 -0.1591 -0.2425  0.1605
  118SOPE  H11X12499   0.369   1.423  -1.037  0.9197  2.9550  1.4113
  118SOPE  H11Y12500   0.369   1.267  -0.942 -2.9206  0.7623  1.2019
  118SOPE  C31212501   0.553   1.386  -0.988  0.7452  0.0202 -0.4514
  118SOPE  H12X12502   0.603   1.334  -0.903  1.5026 -1.5167 -1.7855
  118SOPE  H12Y12503   0.578   1.494  -0.980  0.4228 -0.0175  2.0379
  118SOPE  C31312504   0.607   1.329  -1.126 -0.4088 -0.0491 -0.6502
  118SOPE  H13X12505   0.598   1.218  -1.119 -0.9942  0.0480  0.2947
  118SOPE  H13Y12506   0.714   1.360  -1.127 -0.7864  1.3015 -0.0133
  118SOPE  C31412507   0.545   1.386  -1.256 -0.1334  0.5022  1.0712
  118SOPE  H14X12508   0.537   1.497  -1.254  0.3841  0.6019 -1.0026
  118SOPE  H14Y12509   0.445   1.343  -1.277 -0.1907  1.4891 -0.8866
  118SOPE  C31512510   0.634   1.345  -1.374  0.2400  0.3484  0.2846
  118SOPE  H15X12511   0.635   1.234  -1.376 -0.6465  0.2827  1.6800
  118SOPE  H15Y12512   0.734   1.369  -1.330  0.5596 -1.0242  0.3601
  118SOPE  C31612513   0.615   1.407  -1.508 -0.2860 -0.5717 -0.4359
  118SOPE  H16X12514   0.512   1.390  -1.547 -0.6052  0.5190 -0.0941
  118SOPE  H16Y12515   0.679   1.353  -1.581 -0.2688 -0.4400 -0.5200
  118SOPE  C31712516   0.645   1.556  -1.505  0.2749 -0.1550 -0.0326
  118SOPE  H17X12517   0.739   1.594  -1.461  0.5436 -1.6314  0.7240
  118SOPE  H17Y12518   0.565   1.597  -1.439 -0.2733 -0.6022 -0.4128
  118SOPE  C31812519   0.610   1.626  -1.633 -0.0528 -0.2882 -0.2192
  118SOPE  H18X12520   0.516   1.585  -1.677 -1.8560  3.0842  0.1372
  118SOPE  H18Y12521   0.695   1.612  -1.703 -1.5725 -2.2150 -1.8016
  118SOPE  H18Z12522   0.601   1.735  -1.615 -1.3034 -0.3164 -0.5341
  119SOPE     N12523   5.834   6.039   1.287  0.1016  0.2866 -0.0831
  119SOPE   HN112524   5.876   5.956   1.240  2.6516  0.7793  1.1385
  119SOPE   HN212525   5.918   6.091   1.320  1.7007 -1.0253 -1.8235
  119SOPE   HN312526   5.796   6.005   1.377  1.3936 -0.0925  0.3497
  119SOPE   C1212527   5.727   6.116   1.219 -0.7106 -0.2424  0.2747
  119SOPE  H12A12528   5.690   6.191   1.291  0.0332  0.1406  0.2662
  119SOPE  H12B12529   5.641   6.047   1.206 -2.0298  1.6153 -1.4203
  119SOPE   C1112530   5.764   6.181   1.091  0.3650  0.5135 -0.0958
  119SOPE  H11A12531   5.699   6.268   1.067  1.6019  0.7374 -3.0674
  119SOPE  H11B12532   5.752   6.109   1.008  0.2007  0.3911  0.0342
  119SOPE     P12533   5.957   6.349   1.142 -0.2362 -0.3813 -0.2717
  119SOPE   O1312534   6.102   6.367   1.118 -0.3959  0.1220 -0.1430
  119SOPE   O1412535   5.924   6.359   1.280 -0.1657  0.2100  0.0162
  119SOPE   O1212536   5.901   6.209   1.096 -0.0009 -0.5224  0.6178
  119SOPE   O1112537   5.874   6.455   1.063  0.4041  0.2393  0.7387
  119SOPE    C112538   5.860   6.476   0.926  0.5086  0.2356  0.2972
  119SOPE    HA12539   5.826   6.389   0.866 -1.2241  1.3952 -0.4894
  119SOPE    HB12540   5.957   6.507   0.881 -0.4296  2.6013 -0.2249
  119SOPE    C212541   5.754   6.585   0.897  0.3448 -0.1422 -0.4317
  119SOPE    HS12542   5.677   6.577   0.976  0.9589 -0.1088  0.1874
  119SOPE   O2112543   5.701   6.571   0.762 -0.0625 -0.1244  0.7814
  119SOPE   C2112544   5.579   6.613   0.740  0.4223  0.4991  0.4545
  119SOPE   O2212545   5.509   6.674   0.815  0.2123 -0.5193 -0.0899
  119SOPE   C2212546   5.531   6.557   0.605  0.5530 -0.4597 -0.8511
  119SOPE   H2R12547   5.420   6.556   0.601  0.5203 -0.5635 -0.1040
  119SOPE   H2S12548   5.561   6.452   0.591 -0.8911 -0.9487 -0.4557
  119SOPE    C312549   5.811   6.729   0.921  0.7395  0.2585 -0.3214
  119SOPE    HX12550   5.849   6.737   1.025 -1.6892  0.5684  0.6122
  119SOPE    HY12551   5.728   6.802   0.914  1.1197  0.6120 -1.4439
  119SOPE   O3112552   5.908   6.759   0.819 -0.5706 -0.1702 -0.3322
  119SOPE   C3112553   6.017   6.819   0.860 -0.6455  1.2124 -0.5569
  119SOPE   O3212554   6.049   6.853   0.971  0.2702 -0.1963  0.2353
  119SOPE   C3212555   6.120   6.824   0.748 -0.0943  0.2881 -0.1536
  119SOPE   H2X12556   6.221   6.821   0.793 -0.1788  1.8462  0.1877
  119SOPE   H2Y12557   6.093   6.921   0.700 -0.0062  0.8580  0.9319
  119SOPE   C2312558   5.579   6.652   0.485 -0.1743  0.5600 -0.0483
  119SOPE   H3R12559   5.685   6.678   0.500 -0.3586  1.5472 -0.4086
  119SOPE   H3S12560   5.513   6.741   0.481  0.9960  1.4040 -1.8067
  119SOPE   C2412561   5.585   6.565   0.359  0.5448 -0.3974  0.8037
  119SOPE   H4R12562   5.632   6.471   0.394  0.4178 -0.7871 -0.0351
  119SOPE   H4S12563   5.481   6.533   0.335  1.3253 -1.0671 -2.0313
  119SOPE   C2512564   5.649   6.638   0.235  0.8996 -0.1368  0.2695
  119SOPE   H5R12565   5.589   6.729   0.214  0.7318  0.1708  1.9943
  119SOPE   H5S12566   5.748   6.681   0.262  1.2327 -1.0043  0.4611
  119SOPE   C2612567   5.667   6.549   0.114  0.8587  0.1049 -0.7344
  119SOPE   H6R12568   5.732   6.462   0.140  2.4490  1.5564  0.4038
  119SOPE   H6S12569   5.568   6.513   0.079  1.4782 -0.6098 -1.7904
  119SOPE   C2712570   5.729   6.635  -0.004  0.3085  1.2033 -0.1423
  119SOPE   H7R12571   5.653   6.714  -0.023 -1.9467 -0.8037  0.1663
  119SOPE   H7S12572   5.828   6.679   0.024 -0.6453  2.8445  0.7886
  119SOPE   C2812573   5.738   6.548  -0.135 -0.1349 -0.2167 -0.0188
  119SOPE   H8R12574   5.798   6.461  -0.099 -0.1841  0.8774  3.0726
  119SOPE   H8S12575   5.633   6.527  -0.165 -1.0985  3.0757  0.6448
  119SOPE   C2912576   5.800   6.636  -0.243  0.1272  0.4306 -0.0426
  119SOPE   H9112577   5.891   6.687  -0.211  1.0965 -1.2702  0.0560
  119SOPE  C21012578   5.746   6.657  -0.363 -0.2896 -0.3714 -0.2479
  119SOPE  H10112579   5.812   6.721  -0.425  0.5775 -1.9488 -1.0204
  119SOPE  C21112580   5.627   6.583  -0.425 -0.6850  0.6012  0.7632
  119SOPE  H11R12581   5.543   6.652  -0.449 -2.0941 -0.7832  1.5879
  119SOPE  H11S12582   5.572   6.510  -0.363  0.0574 -1.1607 -0.5749
  119SOPE  C21212583   5.683   6.490  -0.546  0.0686 -0.4403  0.0523
  119SOPE  H12R12584   5.588   6.438  -0.571  0.6378 -0.8117 -1.4427
  119SOPE  H12S12585   5.761   6.420  -0.509 -1.2614 -2.0463 -0.0426
  119SOPE  C21312586   5.725   6.569  -0.671 -0.1020 -0.9608  0.3925
  119SOPE  H13R12587   5.813   6.632  -0.649  0.0821 -1.3538  0.8035
  119SOPE  H13S12588   5.643   6.637  -0.702 -0.3779 -1.2968  0.3792
  119SOPE  C21412589   5.754   6.487  -0.801  0.3645  0.2170 -0.4926
  119SOPE  H14R12590   5.669   6.418  -0.822  1.7737 -2.0477  0.8821
  119SOPE  H14S12591   5.848   6.431  -0.780  0.5389  0.7343  0.1264
  119SOPE  C21512592   5.791   6.572  -0.927 -0.1113  0.0311  0.2635
  119SOPE  H15R12593   5.860   6.652  -0.894 -0.1731 -0.4724  1.6898
  119SOPE  H15S12594   5.691   6.616  -0.948  0.8036  2.1020  0.0274
  119SOPE  C21612595   5.851   6.507  -1.058  0.0299 -0.0579 -0.3527
  119SOPE  H16R12596   5.768   6.440  -1.092  1.5315 -1.5438 -1.2376
  119SOPE  H16S12597   5.936   6.440  -1.031 -0.4650 -0.0626  1.3562
  119SOPE  C21712598   5.879   6.617  -1.157  0.6649  0.8037  0.2562
  119SOPE  H17R12599   5.941   6.696  -1.111 -1.3445  3.5570 -1.4811
  119SOPE  H17S12600   5.785   6.669  -1.185  0.6576  0.2141 -0.8843
  119SOPE  C21812601   5.954   6.569  -1.288  0.3632  0.0555  0.2464
  119SOPE  H18R12602   5.977   6.651  -1.359  1.6707  1.5715  2.3017
  119SOPE  H18S12603   5.909   6.492  -1.354  0.9626 -0.1656  0.0907
  119SOPE  H18T12604   6.055   6.539  -1.256  1.8870  2.8863 -1.4768
  119SOPE   C3312605   6.105   6.715   0.641 -0.0872  0.4358  0.4079
  119SOPE   H3X12606   6.003   6.716   0.596 -0.5701 -0.1531  1.4437
  119SOPE   H3Y12607   6.109   6.617   0.692 -0.6798 -1.2828 -2.6013
  119SOPE   C3412608   6.224   6.728   0.539  0.1052  0.5985 -0.4977
  119SOPE   H4X12609   6.217   6.636   0.476 -3.2057 -0.7161  1.5132
  119SOPE   H4Y12610   6.321   6.711   0.589 -0.9949 -0.0551  1.5091
  119SOPE   C3512611   6.229   6.855   0.453 -0.1329 -0.0199 -0.2416
  119SOPE   H5X12612   6.257   6.938   0.522  2.8783 -1.6771  0.7371
  119SOPE   H5Y12613   6.129   6.880   0.412  0.5532  0.8197 -1.4659
  119SOPE   C3612614   6.336   6.847   0.345 -0.5335  0.1248  0.8841
  119SOPE   H6X12615   6.442   6.827   0.371 -1.2697 -2.5878  2.1198
  119SOPE   H6Y12616   6.327   6.939   0.284 -0.3932 -0.6784 -0.3833
  119SOPE   C3712617   6.297   6.743   0.235 -0.1026 -0.5149  0.0521
  119SOPE   H7X12618   6.187   6.734   0.232 -0.1212 -0.1554 -2.4894
  119SOPE   H7Y12619   6.342   6.646   0.266  1.1239 -0.8077 -2.3522
  119SOPE   C3812620   6.337   6.786   0.091 -0.1106  0.7618 -0.3892
  119SOPE   H8X12621   6.448   6.776   0.084 -0.0608 -0.1844  1.2898
  119SOPE   H8Y12622   6.310   6.891   0.071 -2.3532  0.5782  1.2759
  119SOPE   C3912623   6.262   6.698  -0.011 -0.7139 -0.4516  0.5153
  119SOPE   H9X12624   6.153   6.702   0.011 -0.6793 -1.2561  0.8679
  119SOPE   H9Y12625   6.304   6.595  -0.007 -2.0044 -1.0390 -0.2078
  119SOPE  C31012626   6.281   6.738  -0.160  0.0851 -0.4456 -0.1951
  119SOPE  H10X12627   6.387   6.769  -0.166  0.1742 -0.7467 -0.2180
  119SOPE  H10Y12628   6.206   6.811  -0.196 -0.3256 -1.9856 -2.7121
  119SOPE  C31112629   6.255   6.614  -0.249  0.2743 -0.2675  0.0964
  119SOPE  H11X12630   6.151   6.575  -0.252  0.2572 -0.2531 -3.0199
  119SOPE  H11Y12631   6.319   6.527  -0.223  1.3180 -0.7395 -3.5079
  119SOPE  C31212632   6.286   6.641  -0.398 -0.3290  0.5377 -0.5558
  119SOPE  H12X12633   6.285   6.538  -0.440  0.2120  0.1606  0.3413
  119SOPE  H12Y12634   6.388   6.681  -0.412 -0.7041  0.8746 -2.7213
  119SOPE  C31312635   6.171   6.716  -0.466 -0.2011 -0.2735  0.4572
  119SOPE  H13X12636   6.142   6.803  -0.404  0.4925 -0.8325  1.5976
  119SOPE  H13Y12637   6.091   6.640  -0.479  1.1453 -1.3706 -2.3753
  119SOPE  C31412638   6.197   6.765  -0.610 -0.5754 -0.3145 -0.8521
  119SOPE  H14X12639   6.280   6.839  -0.615 -0.1927 -0.5901  0.7336
  119SOPE  H14Y12640   6.100   6.813  -0.636 -1.0209 -0.8736 -0.2640
  119SOPE  C31512641   6.245   6.645  -0.696 -0.5371 -0.1001 -0.4802
  119SOPE  H15X12642   6.191   6.552  -0.666  2.2857 -1.2891  1.2768
  119SOPE  H15Y12643   6.350   6.642  -0.662 -0.2803  3.2095 -0.7515
  119SOPE  C31612644   6.218   6.678  -0.844 -0.2094  0.9276 -0.0859
  119SOPE  H16X12645   6.305   6.746  -0.862  3.0649 -2.6579  0.6698
  119SOPE  H16Y12646   6.121   6.728  -0.859  0.6690  3.5359  2.2194
  119SOPE  C31712647   6.242   6.559  -0.938  0.1039 -0.5529  0.0083
  119SOPE  H17X12648   6.149   6.533  -0.992  0.5047  0.1637 -1.0613
  119SOPE  H17Y12649   6.281   6.477  -0.875  3.1727  1.7496  1.3775
  119SOPE  C31812650   6.359   6.577  -1.038 -0.0270 -0.0747 -0.1913
  119SOPE  H18X12651   6.447   6.612  -0.980  1.5411 -0.4014 -2.2552
  119SOPE  H18Y12652   6.344   6.660  -1.111  0.5316  1.4162  1.3282
  119SOPE  H18Z12653   6.394   6.492  -1.101 -0.0732  0.0849 -0.4317
  120SOPE     N12654   4.468   0.056   0.757 -0.7005  0.8655  0.0284
  120SOPE   HN112655   4.542   0.018   0.818 -0.7868 -1.4754 -1.2178
  120SOPE   HN212656   4.451  -0.020   0.687 -0.0703  1.0046 -0.2855
  120SOPE   HN312657   4.512   0.140   0.714 -1.3676 -0.1083 -2.7732
  120SOPE   C1212658   4.344   0.108   0.832  0.2238  0.0277  1.0445
  120SOPE  H12A12659   4.374   0.184   0.907  0.1975 -0.4623  1.5651
  120SOPE  H12B12660   4.300   0.018   0.882  2.5068 -1.5111  0.4460
  120SOPE   C1112661   4.243   0.158   0.725 -0.1893  0.1655  0.0796
  120SOPE  H11A12662   4.145   0.184   0.771  0.3411  0.6072  0.9861
  120SOPE  H11B12663   4.223   0.077   0.653  1.4213 -0.6839  0.5410
  120SOPE     P12664   4.299   0.418   0.680 -0.4202 -0.1073 -0.3979
  120SOPE   O1312665   4.386   0.433   0.798  0.1871 -0.1604  0.2231
  120SOPE   O1412666   4.163   0.461   0.688  0.9705  0.1105 -0.2614
  120SOPE   O1212667   4.300   0.266   0.648 -0.2094  0.2608 -0.1958
  120SOPE   O1112668   4.373   0.485   0.557  0.3909 -0.4327 -0.1822
  120SOPE    C112669   4.432   0.404   0.453  0.2010 -0.4339  0.3692
  120SOPE    HA12670   4.366   0.399   0.364  1.0452  2.1277 -0.4899
  120SOPE    HB12671   4.458   0.301   0.485 -1.2226 -0.8819  0.1497
  120SOPE    C212672   4.569   0.463   0.417 -0.5092 -0.5003  0.4367
  120SOPE    HS12673   4.623   0.483   0.512 -0.5946  0.5986  0.2708
  120SOPE   O2112674   4.549   0.591   0.348 -0.0773  0.5586  0.7597
  120SOPE   C2112675   4.636   0.690   0.366  0.7405 -0.0621  0.0043
  120SOPE   O2212676   4.721   0.703   0.452  0.2810  0.6253 -0.5154
  120SOPE   C2212677   4.600   0.809   0.269  0.3011  0.3275 -0.2895
  120SOPE   H2R12678   4.602   0.899   0.334 -2.9757  0.6981 -0.5422
  120SOPE   H2S12679   4.496   0.793   0.234  0.6971  1.2789 -2.0315
  120SOPE    C312680   4.646   0.362   0.321 -0.0315  0.3197  0.1790
  120SOPE    HX12681   4.586   0.361   0.228  1.0750  0.8886 -0.5680
  120SOPE    HY12682   4.643   0.260   0.364 -1.8678 -0.0617 -0.7711
  120SOPE   O3112683   4.769   0.419   0.280  0.0971 -0.7254 -0.2088
  120SOPE   C3112684   4.875   0.334   0.270  0.2620 -0.1865 -0.6184
  120SOPE   O3212685   4.886   0.223   0.318 -0.4491  0.1553 -0.2810
  120SOPE   C3212686   4.996   0.405   0.206  0.3990  0.1269 -0.0412
  120SOPE   H2X12687   5.075   0.328   0.205  0.2826 -0.0307 -2.2573
  120SOPE   H2Y12688   5.026   0.483   0.278  2.5679 -0.4796 -0.2267
  120SOPE   C2312689   4.713   0.817   0.154  0.6537  0.5341 -0.4572
  120SOPE   H3R12690   4.796   0.755   0.195 -0.6710 -0.5185  0.7409
  120SOPE   H3S12691   4.750   0.920   0.136 -2.0659  1.5168 -0.7857
  120SOPE   C2412692   4.665   0.755   0.023 -0.0766 -0.0008  0.4733
  120SOPE   H4R12693   4.669   0.644   0.023  0.3167  0.0108  1.1407
  120SOPE   H4S12694   4.564   0.786  -0.009  0.3487  1.1571  0.1901
  120SOPE   C2512695   4.762   0.788  -0.096  0.2224 -0.0469  0.1608
  120SOPE   H5R12696   4.780   0.897  -0.106  1.2092 -0.2829 -0.9261
  120SOPE   H5S12697   4.863   0.744  -0.080  0.3093  0.8292  2.3133
  120SOPE   C2612698   4.718   0.732  -0.235 -0.1008  0.2286  0.1617
  120SOPE   H6R12699   4.694   0.623  -0.229 -0.0422  0.2015 -0.0887
  120SOPE   H6S12700   4.627   0.781  -0.274  1.0106 -0.5247 -3.8423
  120SOPE   C2712701   4.816   0.755  -0.354  0.4652 -0.2398  0.1369
  120SOPE   H7R12702   4.852   0.859  -0.334 -1.5984  0.3629  0.9284
  120SOPE   H7S12703   4.897   0.682  -0.331 -0.2096 -0.5320  1.7318
  120SOPE   C2812704   4.757   0.740  -0.495  0.6320 -0.3219  0.3617
  120SOPE   H8R12705   4.728   0.633  -0.510  0.7521 -0.3423  0.2780
  120SOPE   H8S12706   4.665   0.800  -0.511 -0.9036 -2.5058  0.4642
  120SOPE   C2912707   4.863   0.786  -0.597  0.5461  0.3647 -0.3213
  120SOPE   H9112708   4.948   0.849  -0.566  0.8940 -0.2934  0.0993
  120SOPE  C21012709   4.873   0.745  -0.724 -0.4531 -0.0260  0.4343
  120SOPE  H10112710   4.948   0.788  -0.792 -0.8534 -2.3495 -1.6312
  120SOPE  C21112711   4.765   0.660  -0.779 -0.4479  0.2803  0.1929
  120SOPE  H11R12712   4.668   0.683  -0.732 -0.1175  0.0262  1.0226
  120SOPE  H11S12713   4.786   0.552  -0.766  2.0536  0.8762  1.8046
  120SOPE  C21212714   4.750   0.681  -0.926  0.7490 -0.1026  0.1490
  120SOPE  H12R12715   4.697   0.777  -0.946 -1.3780 -1.6235 -2.2180
  120SOPE  H12S12716   4.675   0.604  -0.955  1.2830  0.2029 -2.2648
  120SOPE  C21312717   4.879   0.652  -1.013 -0.3858  0.4436  0.6612
  120SOPE  H13R12718   4.912   0.557  -0.967 -2.7826 -0.6130  0.3558
  120SOPE  H13S12719   4.946   0.740  -1.002 -1.2250  1.1949 -0.0721
  120SOPE  C21412720   4.857   0.640  -1.165  0.3178  0.2430 -0.4708
  120SOPE  H14R12721   4.779   0.564  -1.187  0.4860 -0.0912  0.0706
  120SOPE  H14S12722   4.952   0.613  -1.215  0.0693 -0.5344 -0.5332
  120SOPE  C21512723   4.798   0.769  -1.220 -0.4082 -0.2623  0.7841
  120SOPE  H15R12724   4.870   0.854  -1.209 -0.0560 -0.7485  2.5670
  120SOPE  H15S12725   4.711   0.788  -1.154 -1.2649  1.4098 -0.7442
  120SOPE  C21612726   4.750   0.765  -1.364  0.2808  0.0110 -0.0841
  120SOPE  H16R12727   4.701   0.862  -1.386 -0.8712 -0.7817 -1.1801
  120SOPE  H16S12728   4.675   0.688  -1.393 -1.1729  1.4107 -0.2076
  120SOPE  C21712729   4.865   0.753  -1.460 -0.0391 -0.3142  0.4704
  120SOPE  H17R12730   4.900   0.648  -1.452  2.2676  0.5162  2.2336
  120SOPE  H17S12731   4.947   0.827  -1.447 -0.9032  1.6013 -3.5627
  120SOPE  C21812732   4.817   0.782  -1.606  0.5129 -0.2614 -0.5880
  120SOPE  H18R12733   4.779   0.886  -1.613 -1.9451 -0.9111  1.5085
  120SOPE  H18S12734   4.731   0.716  -1.630 -1.1943  0.7521  2.2462
  120SOPE  H18T12735   4.894   0.758  -1.683  0.0372 -2.3799 -0.4533
  120SOPE   C3312736   4.971   0.459   0.066  0.9452 -0.3523  0.2831
  120SOPE   H3X12737   5.057   0.526   0.045  1.4743 -0.8010  0.9753
  120SOPE   H3Y12738   4.878   0.518   0.064  0.9979 -0.2835 -0.5464
  120SOPE   C3412739   4.952   0.350  -0.037  0.2361  0.3179 -0.4916
  120SOPE   H4X12740   4.881   0.279   0.010 -1.1535  1.0537 -1.3997
  120SOPE   H4Y12741   5.041   0.285  -0.048 -0.8877 -1.6901  1.3316
  120SOPE   C3512742   4.902   0.403  -0.173 -0.0663  0.9159 -0.2815
  120SOPE   H5X12743   4.960   0.485  -0.220  0.4235  0.3992 -0.5879
  120SOPE   H5Y12744   4.805   0.457  -0.166 -0.1443  0.7414  0.0822
  120SOPE   C3612745   4.894   0.284  -0.274 -0.4988 -1.0954 -0.4522
  120SOPE   H6X12746   4.786   0.256  -0.279 -0.9116  0.5079 -1.2365
  120SOPE   H6Y12747   4.956   0.198  -0.241 -1.2676 -1.1293  0.9568
  120SOPE   C3712748   4.935   0.329  -0.416 -0.1787  0.1141  0.1755
  120SOPE   H7X12749   5.034   0.380  -0.414 -0.6703  1.1732 -0.7877
  120SOPE   H7Y12750   4.866   0.396  -0.471  0.3918 -1.1004 -2.1314
  120SOPE   C3812751   4.929   0.213  -0.529 -0.1753  0.2821  0.1411
  120SOPE   H8X12752   4.834   0.160  -0.509 -0.4617  0.7208 -0.0428
  120SOPE   H8Y12753   5.016   0.145  -0.539 -0.7522 -0.2250 -1.9662
  120SOPE   C3912754   4.948   0.283  -0.670  0.1156 -0.2043 -1.1363
  120SOPE   H9X12755   5.038   0.348  -0.677 -0.9252  1.3835 -0.4061
  120SOPE   H9Y12756   4.867   0.358  -0.680  1.1156  0.9255 -0.9018
  120SOPE  C31012757   4.935   0.185  -0.781  0.1473  0.1647 -0.3250
  120SOPE  H10X12758   4.853   0.112  -0.764 -0.5416  1.0216  0.1106
  120SOPE  H10Y12759   5.030   0.127  -0.790  1.0592  1.7812 -1.6671
  120SOPE  C31112760   4.894   0.268  -0.907 -0.3894  0.3285 -0.4329
  120SOPE  H11X12761   4.959   0.358  -0.917  0.3619  0.0016  1.2037
  120SOPE  H11Y12762   4.789   0.300  -0.889  0.2085  2.5982 -0.6063
  120SOPE  C31212763   4.879   0.177  -1.026  0.5254 -0.3265 -0.5669
  120SOPE  H12X12764   4.793   0.110  -1.004 -0.2836  1.0292  0.5740
  120SOPE  H12Y12765   4.973   0.120  -1.038  1.5466  1.0981  0.3441
  120SOPE  C31312766   4.835   0.255  -1.152 -0.2465  0.0471  0.0530
  120SOPE  H13X12767   4.925   0.310  -1.189 -1.0627  0.6936 -1.0213
  120SOPE  H13Y12768   4.767   0.337  -1.124  2.4959  1.6455  2.5590
  120SOPE  C31412769   4.764   0.173  -1.259 -0.5491  0.0039 -0.2340
  120SOPE  H14X12770   4.725   0.235  -1.343 -0.5373 -2.6807 -2.3525
  120SOPE  H14Y12771   4.673   0.127  -1.216 -0.4790  0.2864  0.2155
  120SOPE  C31512772   4.863   0.065  -1.313  0.2015 -0.3987 -0.2647
  120SOPE  H15X12773   4.898   0.005  -1.226  0.7336  0.5165  0.1700
  120SOPE  H15Y12774   4.958   0.112  -1.347 -0.1118  0.6609  0.2832
  120SOPE  C31612775   4.803  -0.017  -1.423 -0.0349 -0.7360  0.2216
  120SOPE  H16X12776   4.760  -0.109  -1.379  0.6682 -1.4530 -0.5607
  120SOPE  H16Y12777   4.893  -0.040  -1.484 -0.2659  3.1821 -1.9656
  120SOPE  C31712778   4.705   0.060  -1.517  0.3321  0.5652 -0.1698
  120SOPE  H17X12779   4.751   0.156  -1.548 -1.7932  2.2670  1.6813
  120SOPE  H17Y12780   4.610   0.084  -1.465  0.1656 -0.4243  0.0007
  120SOPE  C31812781   4.670  -0.012  -1.646 -0.5717  0.0050 -0.3956
  120SOPE  H18X12782   4.597  -0.095  -1.629 -1.6921  1.4535  2.4981
  120SOPE  H18Y12783   4.766  -0.040  -1.694 -0.5158 -0.6483  0.0864
  120SOPE  H18Z12784   4.622   0.062  -1.713 -2.7329  0.2941  1.3514
  121SOPE     N12785   6.645   0.296   0.753  0.4539  0.3572  0.3887
  121SOPE   HN112786   6.652   0.214   0.689 -2.7671  0.1676  0.1086
  121SOPE   HN212787   6.738   0.312   0.797 -0.5243  0.2362  2.6421
  121SOPE   HN312788   6.582   0.264   0.829 -2.4721 -0.3912 -2.1489
  121SOPE   C1212789   6.575   0.414   0.694  0.1536 -0.1224 -0.8587
  121SOPE  H12A12790   6.489   0.375   0.635  1.5399 -2.2028 -1.6658
  121SOPE  H12B12791   6.652   0.456   0.626  2.2316  1.5758  2.3281
  121SOPE   C1112792   6.544   0.517   0.809  1.0444  0.1245  0.3309
  121SOPE  H11A12793   6.504   0.603   0.751  1.4482 -2.3844 -4.0522
  121SOPE  H11B12794   6.633   0.559   0.862  0.8949  0.7735  0.0807
  121SOPE     P12795   6.345   0.538   0.978 -0.2794  0.3373  0.7310
  121SOPE   O1312796   6.412   0.663   1.017 -0.4778  0.4490  0.2805
  121SOPE   O1412797   6.309   0.443   1.080 -0.6943  0.0697  0.3070
  121SOPE   O1212798   6.450   0.455   0.893  0.8097  0.2168 -0.3570
  121SOPE   O1112799   6.231   0.570   0.886  0.2898 -0.5319 -0.1538
  121SOPE    C112800   6.131   0.464   0.848 -0.2598  0.2326  0.4982
  121SOPE    HA12801   6.140   0.367   0.900 -1.3352 -0.1864 -0.0561
  121SOPE    HB12802   6.152   0.442   0.741  1.5114 -0.1721  0.9024
  121SOPE    C212803   5.987   0.523   0.888 -0.4911  0.3661  0.2691
  121SOPE    HS12804   5.988   0.520   0.999  0.9571 -2.0845  0.2610
  121SOPE   O2112805   5.893   0.428   0.821 -0.2717 -0.4114  0.0499
  121SOPE   C2112806   5.777   0.439   0.870  0.3680  0.0414 -0.6461
  121SOPE   O2212807   5.738   0.523   0.950  0.6623 -0.1825 -0.0041
  121SOPE   C2212808   5.683   0.333   0.812  0.6253 -0.2286 -0.4487
  121SOPE   H2R12809   5.589   0.386   0.787 -0.0748 -0.5910  1.2527
  121SOPE   H2S12810   5.656   0.258   0.890  0.7075 -0.8644 -1.0232
  121SOPE    C312811   5.969   0.669   0.842  0.2523 -0.3476  0.5164
  121SOPE    HX12812   6.046   0.731   0.894  0.2557  0.7831 -0.7864
  121SOPE    HY12813   5.875   0.713   0.880 -0.2753  1.7945 -2.8884
  121SOPE   O3112814   5.984   0.681   0.697  0.9095 -0.8689 -0.4504
  121SOPE   C3112815   5.874   0.664   0.620  0.1510  0.2190  0.0642
  121SOPE   O3212816   5.761   0.648   0.660  0.0088  0.7154 -0.1683
  121SOPE   C3212817   5.918   0.672   0.477  0.2892  0.1060 -0.4093
  121SOPE   H2X12818   5.995   0.594   0.464  1.1978  1.2813 -2.6045
  121SOPE   H2Y12819   5.963   0.771   0.455 -2.0144  0.7811 -2.6336
  121SOPE   C2312820   5.743   0.246   0.697  0.2761 -0.1975  0.8898
  121SOPE   H3R12821   5.671   0.162   0.692  1.2223 -1.2138  3.0235
  121SOPE   H3S12822   5.841   0.204   0.729  0.4965  0.3188  0.8920
  121SOPE   C2412823   5.752   0.314   0.561 -0.3552 -0.1252 -0.1371
  121SOPE   H4R12824   5.655   0.359   0.531  1.0505  2.8324 -0.6693
  121SOPE   H4S12825   5.822   0.401   0.565 -0.1050 -0.2356 -1.6897
  121SOPE   C2512826   5.805   0.222   0.454 -0.3184 -0.3186 -0.3585
  121SOPE   H5R12827   5.896   0.171   0.493  0.0277 -0.5751 -1.4639
  121SOPE   H5S12828   5.733   0.145   0.418  0.4163 -2.0866  1.7899
  121SOPE   C2612829   5.842   0.298   0.325  0.2723  0.2379  0.1621
  121SOPE   H6R12830   5.758   0.358   0.283 -1.2761 -0.1037  2.5808
  121SOPE   H6S12831   5.925   0.371   0.337 -0.3662  0.6632  2.5632
  121SOPE   C2712832   5.883   0.195   0.221 -0.2841  0.3592 -0.8243
  121SOPE   H7R12833   5.948   0.115   0.261 -0.3224 -0.8469 -3.0146
  121SOPE   H7S12834   5.792   0.136   0.198 -0.5317  0.4489 -0.0909
  121SOPE   C2812835   5.940   0.269   0.101  0.2442 -0.7587 -0.2713
  121SOPE   H8R12836   5.891   0.367   0.081 -0.6166 -1.4805 -1.9925
  121SOPE   H8S12837   6.037   0.300   0.144  1.9818 -3.6909 -1.7641
  121SOPE   C2912838   5.958   0.180  -0.008 -0.4022  0.2341 -0.1467
  121SOPE   H9112839   6.019   0.092   0.015 -1.0019 -0.7037 -1.9485
  121SOPE  C21012840   5.942   0.213  -0.135 -0.1715  0.3426 -0.1773
  121SOPE  H10112841   5.982   0.143  -0.210 -0.8129 -2.4185  1.8654
  121SOPE  C21112842   5.854   0.325  -0.182  0.2341  0.4184 -0.2392
  121SOPE  H11R12843   5.913   0.410  -0.224  2.1987  0.1501  1.7706
  121SOPE  H11S12844   5.800   0.378  -0.101 -0.0647 -0.2367 -0.0045
  121SOPE  C21212845   5.755   0.287  -0.292  0.9811  0.1294  0.2019
  121SOPE  H12R12846   5.679   0.368  -0.293  1.5302  0.6475 -0.0272
  121SOPE  H12S12847   5.706   0.190  -0.269  3.2360 -1.1646 -0.1406
  121SOPE  C21312848   5.819   0.285  -0.436 -0.4000  0.0506  0.2640
  121SOPE  H13R12849   5.890   0.200  -0.438 -0.0899  0.2953 -2.4462
  121SOPE  H13S12850   5.867   0.383  -0.458 -1.2446  0.4138 -0.0092
  121SOPE  C21412851   5.722   0.247  -0.553 -0.3836 -0.2300 -0.4075
  121SOPE  H14R12852   5.635   0.316  -0.559 -1.4048 -1.4884 -0.4334
  121SOPE  H14S12853   5.670   0.152  -0.531 -1.2516  0.9340  3.2492
  121SOPE  C21512854   5.793   0.235  -0.692  0.3788 -0.6720  0.2622
  121SOPE  H15R12855   5.880   0.166  -0.707  0.6867  0.2623 -3.1236
  121SOPE  H15S12856   5.838   0.335  -0.709  2.0472 -1.5473 -0.8728
  121SOPE  C21612857   5.694   0.207  -0.801 -0.5159 -0.0154  0.3039
  121SOPE  H16R12858   5.598   0.260  -0.779 -1.0839 -0.8254 -0.1498
  121SOPE  H16S12859   5.674   0.097  -0.802  2.7780 -0.7223 -0.3791
  121SOPE  C21712860   5.749   0.235  -0.944  0.3266 -0.0961  0.5476
  121SOPE  H17R12861   5.854   0.201  -0.943 -0.5214 -3.0354  0.1174
  121SOPE  H17S12862   5.752   0.344  -0.964 -2.5928  0.0569  0.5291
  121SOPE  C21812863   5.680   0.157  -1.056  0.0300 -0.0490  0.2873
  121SOPE  H18R12864   5.707   0.190  -1.158 -0.0980  0.0991  0.2999
  121SOPE  H18S12865   5.570   0.172  -1.046 -0.1353  0.6266 -1.9630
  121SOPE  H18T12866   5.697   0.048  -1.045  2.3577 -0.0253 -2.1306
  121SOPE   C3312867   5.805   0.659   0.368 -0.3483 -0.3116 -0.6461
  121SOPE   H3X12868   5.717   0.726   0.379 -0.4753 -0.3933 -1.1549
  121SOPE   H3Y12869   5.770   0.553   0.374  0.8773 -0.6820  0.7982
  121SOPE   C3412870   5.868   0.679   0.228  0.3475  0.2834 -0.4203
  121SOPE   H4X12871   5.945   0.600   0.217  0.3154 -0.1705  2.0954
  121SOPE   H4Y12872   5.925   0.774   0.220  1.6489 -0.5612 -1.5506
  121SOPE   C3512873   5.770   0.669   0.109 -0.0644  0.1652 -0.4828
  121SOPE   H5X12874   5.684   0.736   0.129 -1.8171 -1.9232 -0.6010
  121SOPE   H5Y12875   5.735   0.564   0.095 -0.4765  0.2187  0.1380
  121SOPE   C3612876   5.830   0.698  -0.026  0.9101  0.0885 -0.5562
  121SOPE   H6X12877   5.919   0.632  -0.041  1.7078  0.8163  0.7780
  121SOPE   H6Y12878   5.875   0.799  -0.025  0.5727  0.2407  0.2569
  121SOPE   C3712879   5.722   0.674  -0.128 -0.7784 -0.0999  0.7253
  121SOPE   H7X12880   5.642   0.751  -0.122 -0.3487  0.3354  0.9214
  121SOPE   H7Y12881   5.665   0.581  -0.106  0.1512 -1.7221 -3.0278
  121SOPE   C3812882   5.777   0.667  -0.274 -0.8486  0.4718  0.3021
  121SOPE   H8X12883   5.862   0.597  -0.287 -0.8904  0.3429  0.7100
  121SOPE   H8Y12884   5.831   0.761  -0.301  0.7133  0.0584  1.7971
  121SOPE   C3912885   5.671   0.641  -0.385  0.1551 -0.1981  0.0870
  121SOPE   H9X12886   5.574   0.690  -0.362 -0.2583 -1.4148  1.0615
  121SOPE   H9Y12887   5.653   0.531  -0.391 -0.3197 -0.0527 -2.1024
  121SOPE  C31012888   5.714   0.696  -0.525 -0.2296  0.2164  0.5155
  121SOPE  H10X12889   5.741   0.803  -0.509 -1.0894  0.6800 -0.9156
  121SOPE  H10Y12890   5.643   0.705  -0.611 -1.8192  1.7445  1.9045
  121SOPE  C31112891   5.821   0.613  -0.598  0.1288  0.0774 -0.0573
  121SOPE  H11X12892   5.763   0.531  -0.646 -0.7638  0.3867  0.4637
  121SOPE  H11Y12893   5.892   0.573  -0.523 -1.4339  0.1254  1.5256
  121SOPE  C31212894   5.894   0.696  -0.701  0.4601 -0.5842  0.1564
  121SOPE  H12X12895   5.984   0.643  -0.739  1.3987  0.3831  0.9445
  121SOPE  H12Y12896   5.928   0.792  -0.655  1.6590 -0.8241 -0.1866
  121SOPE  C31312897   5.815   0.733  -0.837  0.5326  0.1623  0.1845
  121SOPE  H13X12898   5.762   0.827  -0.809  1.7120  0.9220 -0.0762
  121SOPE  H13Y12899   5.747   0.645  -0.845 -0.2281  0.8725 -1.9287
  121SOPE  C31412900   5.901   0.738  -0.970 -0.1738 -0.5824  0.6057
  121SOPE  H14X12901   5.983   0.664  -0.965 -0.0016 -0.6231 -1.6954
  121SOPE  H14Y12902   5.957   0.834  -0.978  1.5716 -1.6799 -1.2061
  121SOPE  C31512903   5.821   0.720  -1.107 -0.7255 -0.1548  0.0974
  121SOPE  H15X12904   5.751   0.802  -1.132 -0.9276 -1.0323 -2.5108
  121SOPE  H15Y12905   5.755   0.634  -1.081 -2.3412  1.7055  2.6724
  121SOPE  C31612906   5.899   0.670  -1.222 -0.2841  0.5313  0.6930
  121SOPE  H16X12907   5.961   0.582  -1.197  1.8582  1.4969 -0.8925
  121SOPE  H16Y12908   5.963   0.749  -1.267 -1.1841  0.2798 -1.1473
  121SOPE  C31712909   5.808   0.609  -1.337 -0.2866 -0.0650  0.2123
  121SOPE  H17X12910   5.745   0.694  -1.369 -0.1683 -0.2922 -0.6467
  121SOPE  H17Y12911   5.734   0.539  -1.293 -0.3907 -0.5862 -0.7569
  121SOPE  C31812912   5.875   0.536  -1.457 -0.4529 -0.1349 -0.1708
  121SOPE  H18X12913   5.961   0.598  -1.491 -1.5972  2.1699  0.9142
  121SOPE  H18Y12914   5.809   0.527  -1.546  1.0985  0.0128 -1.3656
  121SOPE  H18Z12915   5.924   0.440  -1.429  3.1851  1.6271 -0.0146
  122SOPE     N12916   0.315   0.396   0.672 -0.4437  0.2067 -0.2954
  122SOPE   HN112917   0.243   0.471   0.680 -0.6841 -0.1447  1.0672
  122SOPE   HN212918   0.277   0.324   0.737 -1.1845  0.0656 -0.8662
  122SOPE   HN312919   0.407   0.428   0.708 -0.1348  0.0926 -0.9643
  122SOPE   C1212920   0.332   0.322   0.540  0.5830 -0.8805 -0.6838
  122SOPE  H12A12921   0.370   0.220   0.559  0.5374 -0.7722  0.0319
  122SOPE  H12B12922   0.411   0.381   0.488  1.3278 -0.8841  0.4008
  122SOPE   C1112923   0.201   0.327   0.468  1.1405 -0.2592  0.2636
  122SOPE  H11A12924   0.219   0.302   0.362  3.2021 -0.3756  0.5981
  122SOPE  H11B12925   0.157   0.428   0.470  0.3573 -0.5917  0.0205
  122SOPE     P12926   0.111   0.076   0.482 -0.1162 -0.0590 -0.2880
  122SOPE   O1312927  -0.014   0.018   0.529  0.5809 -0.0874  0.1181
  122SOPE   O1412928   0.229   0.016   0.539 -0.2142 -0.6310 -0.3267
  122SOPE   O1212929   0.110   0.231   0.520  0.8795 -0.4002  0.6312
  122SOPE   O1112930   0.123   0.086   0.320 -0.0265 -0.2046  0.0543
  122SOPE    C112931   0.108  -0.030   0.240 -0.0980 -0.2829 -0.4791
  122SOPE    HA12932   0.067  -0.008   0.139  1.5196 -0.9375 -1.3203
  122SOPE    HB12933   0.034  -0.098   0.286  0.9775 -1.0613  0.1360
  122SOPE    C212934   0.247  -0.101   0.227 -0.2177  1.0856  0.6658
  122SOPE    HS12935   0.268  -0.142   0.329  0.7962  0.3471  0.1878
  122SOPE   O2112936   0.350  -0.006   0.192  0.3244 -0.4449  0.1059
  122SOPE   C2112937   0.475  -0.047   0.220  0.7445 -0.2550 -0.8262
  122SOPE   O2212938   0.501  -0.132   0.299  0.5698  0.9736 -0.2906
  122SOPE   C2212939   0.574   0.055   0.152  0.4639  0.7667  0.7446
  122SOPE   H2R12940   0.641  -0.019   0.102 -2.4984 -0.4757 -1.7070
  122SOPE   H2S12941   0.630   0.110   0.231 -1.9134  0.2567  2.9077
  122SOPE    C312942   0.239  -0.233   0.143  0.2016  0.4167  0.1090
  122SOPE    HX12943   0.157  -0.294   0.184 -1.8288  1.0962 -2.6454
  122SOPE    HY12944   0.327  -0.301   0.152  0.1705  0.3811  0.1421
  122SOPE   O3112945   0.205  -0.201   0.008 -0.2405 -0.9375  0.3364
  122SOPE   C3112946   0.309  -0.180  -0.069 -0.2604  0.1678  0.6990
  122SOPE   O3212947   0.425  -0.201  -0.041 -0.0689  0.2645 -0.0567
  122SOPE   C3212948   0.271  -0.113  -0.199  0.0435  0.1158  0.3139
  122SOPE   H2X12949   0.324  -0.016  -0.187  0.9795 -0.5500  1.9995
  122SOPE   H2Y12950   0.167  -0.075  -0.187  0.1486  0.1443  1.2348
  122SOPE   C2312951   0.521   0.159   0.051  0.4048 -0.1914 -0.4330
  122SOPE   H3R12952   0.530   0.264   0.086 -0.7259  0.9659 -3.3153
  122SOPE   H3S12953   0.415   0.148   0.020  0.6663  0.8996 -1.7690
  122SOPE   C2412954   0.598   0.153  -0.081 -0.8155 -0.5742  0.5968
  122SOPE   H4R12955   0.704   0.185  -0.077 -1.0827  1.3191 -2.9804
  122SOPE   H4S12956   0.606   0.051  -0.125 -2.8788 -0.6607  0.3078
  122SOPE   C2512957   0.524   0.238  -0.183 -0.0871 -0.0029  0.0472
  122SOPE   H5R12958   0.424   0.193  -0.202  1.1025 -1.6598 -3.0212
  122SOPE   H5S12959   0.506   0.342  -0.150 -2.5149 -0.1213 -0.7386
  122SOPE   C2612960   0.608   0.249  -0.316  0.4650  0.2362 -0.1944
  122SOPE   H6R12961   0.703   0.301  -0.294 -0.4153  0.5941  3.4138
  122SOPE   H6S12962   0.652   0.151  -0.345  1.4131  0.7601 -0.5759
  122SOPE   C2712963   0.537   0.309  -0.439 -0.3784 -0.3919 -0.0355
  122SOPE   H7R12964   0.439   0.258  -0.449  0.3642 -1.3782 -3.2443
  122SOPE   H7S12965   0.517   0.416  -0.413 -0.3712 -1.0857  3.2973
  122SOPE   C2812966   0.608   0.308  -0.575 -0.1044  0.0144 -0.5691
  122SOPE   H8R12967   0.563   0.388  -0.638  2.2846  1.2460 -0.8399
  122SOPE   H8S12968   0.716   0.332  -0.560  0.5403 -3.4887  1.6386
  122SOPE   C2912969   0.611   0.171  -0.644  0.6108 -0.5331 -0.1691
  122SOPE   H9112970   0.662   0.096  -0.582 -1.5555  0.2017  2.7315
  122SOPE  C21012971   0.558   0.136  -0.758  0.4086  0.9934  0.5559
  122SOPE  H10112972   0.578   0.034  -0.795  0.4197  1.0905  0.2927
  122SOPE  C21112973   0.477   0.221  -0.858  0.5290 -0.2655 -0.1467
  122SOPE  H11R12974   0.460   0.322  -0.814 -0.6478  0.0530 -1.2916
  122SOPE  H11S12975   0.371   0.190  -0.867 -0.9853  4.5325 -1.9398
  122SOPE  C21212976   0.539   0.218  -0.996 -0.3143  0.3730  0.0699
  122SOPE  H12R12977   0.649   0.220  -0.982 -0.4924  0.6142  1.5039
  122SOPE  H12S12978   0.513   0.310  -1.053  0.0699  0.6195  0.2865
  122SOPE  C21312979   0.489   0.101  -1.081  0.2848  1.2266  0.1721
  122SOPE  H13R12980   0.379   0.105  -1.092  0.4214  2.8721 -0.8755
  122SOPE  H13S12981   0.513   0.003  -1.035  1.2782  0.8815 -1.0293
  122SOPE  C21412982   0.530   0.105  -1.231 -0.0504 -0.4974  0.0616
  122SOPE  H14R12983   0.503   0.207  -1.265  2.0139 -0.4592 -1.6791
  122SOPE  H14S12984   0.455   0.038  -1.278  0.3403 -0.9311  0.0424
  122SOPE  C21512985   0.665   0.045  -1.266  0.0170 -0.0889  0.1384
  122SOPE  H15R12986   0.665  -0.059  -1.228 -1.8444  0.7325  2.7641
  122SOPE  H15S12987   0.740   0.104  -1.209  0.6450 -1.3083  0.6113
  122SOPE  C21612988   0.705   0.067  -1.422  0.5017 -0.4342 -0.4288
  122SOPE  H16R12989   0.809   0.028  -1.429  0.4199 -0.8627  0.5422
  122SOPE  H16S12990   0.715   0.175  -1.444 -0.1325 -0.6919 -2.0486
  122SOPE  C21712991   0.602   0.010  -1.527 -0.1058  0.1831 -0.2411
  122SOPE  H17R12992   0.643   0.029  -1.628 -0.4080  1.6620 -0.1083
  122SOPE  H17S12993   0.508   0.069  -1.518 -0.3033  0.2584 -2.3516
  122SOPE  C21812994   0.559  -0.139  -1.506  0.1579  0.1828 -0.2381
  122SOPE  H18R12995   0.628  -0.206  -1.561 -0.5456 -1.0240  0.2859
  122SOPE  H18S12996   0.468  -0.152  -1.570  0.3280  0.7205 -0.5955
  122SOPE  H18T12997   0.539  -0.169  -1.401 -2.5879  0.3184 -0.6402
  122SOPE   C3312998   0.304  -0.182  -0.331 -0.2366  0.0797 -0.0808
  122SOPE   H3X12999   0.230  -0.264  -0.341 -1.2810  1.2566 -3.2974
  122SOPE   H3Y13000   0.407  -0.222  -0.332  0.8397  2.5317  1.9071
  122SOPE   C3413001   0.277  -0.093  -0.457 -0.0313  0.4093 -0.2021
  122SOPE   H4X13002   0.339  -0.000  -0.455 -0.3745  0.6865 -1.5175
  122SOPE   H4Y13003   0.177  -0.046  -0.449  0.2870  0.9415  0.9363
  122SOPE   C3513004   0.283  -0.165  -0.590  0.6077 -0.7814 -0.6255
  122SOPE   H5X13005   0.212  -0.251  -0.598  0.0114 -0.2200 -1.4910
  122SOPE   H5Y13006   0.383  -0.211  -0.608  0.0293 -1.5400 -2.0926
  122SOPE   C3613007   0.261  -0.075  -0.710  0.3185 -0.5830 -0.4590
  122SOPE   H6X13008   0.315   0.019  -0.688  1.5408 -0.6096 -2.9779
  122SOPE   H6Y13009   0.156  -0.045  -0.730  0.4420 -0.0561 -0.3372
  122SOPE   C3713010   0.310  -0.135  -0.842  0.7241 -0.1147  0.8709
  122SOPE   H7X13011   0.415  -0.169  -0.832  1.2897  0.8778 -1.2539
  122SOPE   H7Y13012   0.312  -0.061  -0.924  0.9385  1.0637  1.9054
  122SOPE   C3813013   0.225  -0.258  -0.880  0.1543  0.5036 -0.5489
  122SOPE   H8X13014   0.116  -0.248  -0.861 -0.3518 -1.1127 -2.2744
  122SOPE   H8Y13015   0.244  -0.339  -0.807 -0.2929  2.3223  1.6934
  122SOPE   C3913016   0.244  -0.317  -1.021  0.0454 -0.1983  0.5342
  122SOPE   H9X13017   0.202  -0.419  -1.027 -0.2247 -0.0786  0.3662
  122SOPE   H9Y13018   0.352  -0.327  -1.046 -0.1677  0.6610 -0.8754
  122SOPE  C31013019   0.187  -0.215  -1.118 -0.5028 -0.3001 -0.5412
  122SOPE  H10X13020   0.195  -0.108  -1.087 -2.4069  0.4327 -2.3617
  122SOPE  H10Y13021   0.076  -0.218  -1.123 -0.6175  0.7364  0.8262
  122SOPE  C31113022   0.241  -0.232  -1.261 -0.6381  1.3566 -0.3492
  122SOPE  H11X13023   0.202  -0.323  -1.311  0.5528  0.2841  0.5752
  122SOPE  H11Y13024   0.347  -0.265  -1.262 -1.7285 -2.6844 -1.3452
  122SOPE  C31213025   0.205  -0.115  -1.355 -0.6005 -0.1364  0.1892
  122SOPE  H12X13026   0.245  -0.139  -1.456 -0.3572  0.3235  0.1743
  122SOPE  H12Y13027   0.250  -0.018  -1.325 -1.4342 -0.2190  1.8214
  122SOPE  C31313028   0.058  -0.085  -1.371  0.4640 -0.3334  0.5726
  122SOPE  H13X13029   0.041  -0.004  -1.445  2.7382 -1.1470 -0.9447
  122SOPE  H13Y13030   0.017  -0.050  -1.274 -0.4653  0.1487  0.0174
  122SOPE  C31413031  -0.047  -0.198  -1.417 -0.5942  0.2684  0.1104
  122SOPE  H14X13032  -0.034  -0.279  -1.342  1.2950  1.4061  1.1135
  122SOPE  H14Y13033  -0.029  -0.249  -1.514 -1.3859  0.8691 -0.3638
  122SOPE  C31513034  -0.188  -0.143  -1.422 -0.0784  0.1023 -0.3256
  122SOPE  H15X13035  -0.195  -0.051  -1.483  2.0709  0.1924 -0.5192
  122SOPE  H15Y13036  -0.199  -0.125  -1.313 -1.9998  0.5519 -0.5620
  122SOPE  C31613037  -0.284  -0.248  -1.478  0.2955 -0.6789  0.7990
  122SOPE  H16X13038  -0.272  -0.356  -1.452 -0.0850 -1.3767 -1.7109
  122SOPE  H16Y13039  -0.276  -0.246  -1.588 -0.0142  0.4663  0.7846
  122SOPE  C31713040  -0.431  -0.213  -1.446  0.1042  0.1714  0.6136
  122SOPE  H17X13041  -0.450  -0.105  -1.463 -0.1999 -0.0875 -0.8371
  122SOPE  H17Y13042  -0.454  -0.242  -1.341  0.8056 -0.8257  0.5056
  122SOPE  C31813043  -0.531  -0.300  -1.529  0.0245  0.0012 -0.5087
  122SOPE  H18X13044  -0.631  -0.273  -1.487 -0.7223 -1.0243 -1.5404
  122SOPE  H18Y13045  -0.501  -0.406  -1.515 -1.1394 -0.3692 -0.6324
  122SOPE  H18Z13046  -0.533  -0.284  -1.639  0.6691  0.0948 -0.5068
  123SOPE     N13047   3.523   4.804   4.400 -0.3745 -0.4554  1.0159
  123SOPE   HN113048   3.441   4.825   4.339  0.3809 -1.2842 -0.3480
  123SOPE   HN213049   3.558   4.884   4.456 -0.4749 -0.2540  0.7927
  123SOPE   HN313050   3.602   4.761   4.347  2.2776  3.5383  1.3284
  123SOPE   C1213051   3.461   4.709   4.501 -0.8059 -0.3475 -0.2220
  123SOPE  H12A13052   3.527   4.712   4.590 -0.3472 -3.2700 -0.3761
  123SOPE  H12B13053   3.457   4.608   4.456 -4.1669 -0.3028 -0.2138
  123SOPE   C1113054   3.333   4.763   4.548  0.4600  0.3811  0.1285
  123SOPE  H11A13055   3.307   4.690   4.628  4.5166 -0.4115  0.9191
  123SOPE  H11B13056   3.267   4.748   4.459  0.0428  0.7519  0.3701
  123SOPE     P13057   3.227   4.967   4.656  0.2281 -0.1655 -0.4555
  123SOPE   O1313058   3.100   4.960   4.580  0.0810  0.3431 -0.9068
  123SOPE   O1413059   3.271   5.101   4.695  0.6517 -0.1198  0.6891
  123SOPE   O1213060   3.345   4.896   4.578  0.1513 -0.0881  0.0065
  123SOPE   O1113061   3.221   4.877   4.786 -0.0359  0.2722 -0.5499
  123SOPE    C113062   3.125   4.928   4.889 -0.2334 -0.1553  0.2437
  123SOPE    HA13063   3.022   4.933   4.849 -0.1447  0.2730  0.0745
  123SOPE    HB13064   3.149   5.033   4.916  0.9428 -0.2737 -0.2642
  123SOPE    C213065   3.133   4.845   5.023  0.0679 -0.2398 -0.2003
  123SOPE    HS13066   3.052   4.875   5.094 -1.9655 -0.4464 -2.3074
  123SOPE   O2113067   3.261   4.853   5.092  0.2635 -0.0627  0.3444
  123SOPE   C2113068   3.281   4.969   5.145 -0.0632  0.1702 -0.6668
  123SOPE   O2213069   3.209   5.066   5.159  0.4676  0.1646  0.0621
  123SOPE   C2213070   3.421   4.980   5.196 -0.4630  0.1155 -0.3574
  123SOPE   H2R13071   3.480   5.007   5.105  3.0932 -0.2225  1.6610
  123SOPE   H2S13072   3.464   4.880   5.217  0.2037  0.4012 -0.3219
  123SOPE    C313073   3.114   4.689   4.996 -0.3291  0.0034 -0.1676
  123SOPE    HX13074   3.194   4.653   4.928 -0.4257  0.1254 -0.3460
  123SOPE    HY13075   3.025   4.680   4.931  1.0066 -2.4238 -1.8304
  123SOPE   O3113076   3.108   4.618   5.128 -0.6837 -0.0782 -0.0878
  123SOPE   C3113077   2.982   4.589   5.165 -0.8840  0.3799  0.4302
  123SOPE   O3213078   2.882   4.629   5.096  0.2391  0.5863  0.4694
  123SOPE   C3213079   2.978   4.517   5.294 -0.8937  0.6794 -0.5297
  123SOPE   H2X13080   3.029   4.418   5.289  0.9891  1.5426  0.5820
  123SOPE   H2Y13081   2.872   4.490   5.313 -0.8929 -1.3087 -2.8289
  123SOPE   C2313082   3.444   5.063   5.327  0.3239 -0.2859 -0.4520
  123SOPE   H3R13083   3.405   5.165   5.310 -3.0060 -1.5333 -1.0267
  123SOPE   H3S13084   3.554   5.072   5.341  0.5845 -0.5967 -2.0968
  123SOPE   C2413085   3.379   5.007   5.465  0.1282  0.1922  0.3403
  123SOPE   H4R13086   3.404   5.078   5.547 -1.2395 -0.5234  1.4338
  123SOPE   H4S13087   3.268   5.014   5.459  0.3045  2.9074 -1.1011
  123SOPE   C2513088   3.445   4.878   5.506 -0.2843  0.1573 -0.6673
  123SOPE   H5R13089   3.430   4.808   5.421  1.5749  0.4175 -1.2367
  123SOPE   H5S13090   3.555   4.886   5.517 -0.6269  1.9730  4.1885
  123SOPE   C2613091   3.399   4.814   5.642 -0.3483 -0.3092 -0.9084
  123SOPE   H6R13092   3.292   4.788   5.636 -0.6944 -0.0089  2.1408
  123SOPE   H6S13093   3.459   4.721   5.647  1.6090  0.8837 -0.7144
  123SOPE   C2713094   3.415   4.890   5.773  0.1056  0.9615 -0.4760
  123SOPE   H7R13095   3.354   4.982   5.789  0.8401  1.6140 -1.4102
  123SOPE   H7S13096   3.390   4.818   5.854  0.3502  0.1335 -1.1291
  123SOPE   C2813097   3.567   4.930   5.806 -0.6266 -0.1295  0.0854
  123SOPE   H8R13098   3.586   5.017   5.739 -0.8389 -0.2497 -0.1304
  123SOPE   H8S13099   3.562   4.967   5.910 -1.6385  0.0974 -0.0379
  123SOPE   C2913100   3.679   4.829   5.786 -1.1600  0.3580 -0.5962
  123SOPE   H9113101   3.737   4.831   5.693  1.4519 -0.9673  0.8791
  123SOPE  C21013102   3.741   4.767   5.887 -0.2244  0.1893 -0.4313
  123SOPE  H10113103   3.816   4.691   5.859  0.6341 -0.2795  2.7776
  123SOPE  C21113104   3.693   4.758   6.028 -0.2036 -0.0211 -0.2192
  123SOPE  H11R13105   3.716   4.659   6.072  0.3322 -0.5344 -1.6069
  123SOPE  H11S13106   3.583   4.771   6.030 -0.0556  1.3812  1.1124
  123SOPE  C21213107   3.764   4.865   6.109 -0.2356  0.0677  0.3487
  123SOPE  H12R13108   3.714   4.963   6.089 -0.3571  0.4462  2.2923
  123SOPE  H12S13109   3.872   4.872   6.086  0.2514  0.9308  2.6033
  123SOPE  C21313110   3.752   4.849   6.262 -0.4821 -0.1626 -0.2830
  123SOPE  H13R13111   3.716   4.745   6.282  0.4934 -0.3280  0.6936
  123SOPE  H13S13112   3.665   4.908   6.297 -1.0830 -1.3425  0.2668
  123SOPE  C21413113   3.868   4.906   6.343  0.2099 -0.3024 -0.0039
  123SOPE  H14R13114   3.860   5.016   6.350 -1.3814 -0.4044  0.1558
  123SOPE  H14S13115   3.962   4.871   6.296 -0.7027 -3.3099  0.1900
  123SOPE  C21513116   3.868   4.854   6.487  0.5306 -0.6004  0.5649
  123SOPE  H15R13117   3.867   4.743   6.481  0.4903 -0.4928 -2.7290
  123SOPE  H15S13118   3.778   4.886   6.544 -2.1887 -3.3448 -1.8310
  123SOPE  C21613119   3.990   4.898   6.562 -0.0906  0.2087  0.8528
  123SOPE  H16R13120   3.967   5.004   6.588 -0.9802  0.6168 -1.3706
  123SOPE  H16S13121   4.082   4.898   6.500 -1.1305  1.4133 -0.7927
  123SOPE  C21713122   4.011   4.823   6.694  0.3641 -0.0452  0.6640
  123SOPE  H17R13123   4.020   4.717   6.664 -3.6538 -0.2881 -0.1510
  123SOPE  H17S13124   3.927   4.824   6.766  0.3412 -1.3365  0.6789
  123SOPE  C21813125   4.130   4.871   6.785  0.2712  0.2920 -0.2598
  123SOPE  H18R13126   4.228   4.866   6.734  0.2671  0.3937 -0.2777
  123SOPE  H18S13127   4.133   4.799   6.869  0.1448  0.8433  0.2205
  123SOPE  H18T13128   4.111   4.977   6.813  1.1426  1.0156 -2.2321
  123SOPE   C3313129   3.023   4.602   5.413 -0.2346 -0.4999 -0.2589
  123SOPE   H3X13130   3.132   4.622   5.411 -0.5104  1.1377  0.1937
  123SOPE   H3Y13131   3.009   4.535   5.501  3.9683  0.7017  1.6035
  123SOPE   C3413132   2.947   4.735   5.428 -0.0867  0.3015 -0.7565
  123SOPE   H4X13133   2.844   4.711   5.463  1.4425 -0.4959  3.9826
  123SOPE   H4Y13134   2.951   4.792   5.333  1.8921 -0.3019 -1.0683
  123SOPE   C3513135   3.022   4.828   5.534  0.2437  0.0296  0.2074
  123SOPE   H5X13136   3.013   4.936   5.509  1.4771 -0.4371 -2.4872
  123SOPE   H5Y13137   3.131   4.810   5.524  0.2782  0.1911  0.2809
  123SOPE   C3613138   2.969   4.797   5.678 -0.2029  0.6215  0.0865
  123SOPE   H6X13139   2.999   4.692   5.695 -0.8313  0.5425  0.7104
  123SOPE   H6Y13140   2.858   4.803   5.676 -0.2483 -0.0463  0.3371
  123SOPE   C3713141   3.024   4.885   5.794 -0.1581  0.2915  0.4040
  123SOPE   H7X13142   2.979   4.985   5.777 -1.4492 -0.5951 -1.7648
  123SOPE   H7Y13143   3.135   4.884   5.794 -0.1318  0.7643 -1.4971
  123SOPE   C3813144   2.963   4.829   5.928  0.0092  0.3009  0.3645
  123SOPE   H8X13145   2.994   4.723   5.937  2.2969  0.8689 -0.1971
  123SOPE   H8Y13146   2.852   4.828   5.921  0.0521 -0.7840 -0.4307
  123SOPE   C3913147   3.018   4.901   6.060 -0.0382  0.2300  0.6863
  123SOPE   H9X13148   2.986   5.008   6.061  0.7068  0.4686 -0.0070
  123SOPE   H9Y13149   3.129   4.903   6.065 -0.0368  0.1443  0.6758
  123SOPE  C31013150   2.967   4.825   6.185  0.3397  0.0291 -0.2105
  123SOPE  H10X13151   3.028   4.734   6.199  1.3467  0.3713 -2.0789
  123SOPE  H10Y13152   2.862   4.796   6.167  0.6849 -1.1729 -0.3591
  123SOPE  C31113153   2.980   4.922   6.309  0.2609  0.5810 -0.1555
  123SOPE  H11X13154   2.913   5.011   6.310 -1.5175 -0.6686  1.9367
  123SOPE  H11Y13155   3.087   4.951   6.315  0.6546 -1.0709  2.0997
  123SOPE  C31213156   2.952   4.864   6.447  0.6133  0.1625  0.8403
  123SOPE  H12X13157   3.040   4.805   6.483 -2.1477 -3.1716  2.8576
  123SOPE  H12Y13158   2.866   4.794   6.433 -0.7499  1.5793  1.7892
  123SOPE  C31313159   2.903   4.957   6.561  0.4698  0.1266 -0.0446
  123SOPE  H13X13160   2.900   4.891   6.651  1.5961 -0.1172 -0.1625
  123SOPE  H13Y13161   2.804   5.000   6.538 -0.6462 -1.2613  1.8787
  123SOPE  C31413162   3.005   5.064   6.603  0.3063 -0.1277  0.9068
  123SOPE  H14X13163   3.034   5.132   6.520 -3.4861 -1.5130 -1.8486
  123SOPE  H14Y13164   3.105   5.021   6.623  0.0836 -1.1216 -0.0353
  123SOPE  C31513165   2.949   5.127   6.736 -0.8250  0.1701 -0.2564
  123SOPE  H15X13166   2.947   5.048   6.813  0.3040  0.2502 -0.1160
  123SOPE  H15Y13167   2.846   5.161   6.714 -0.9677  0.0989  0.2923
  123SOPE  C31613168   3.023   5.249   6.797 -0.6522 -0.3440  0.7894
  123SOPE  H16X13169   2.996   5.333   6.729  1.1820 -0.3815 -0.0337
  123SOPE  H16Y13170   3.129   5.236   6.766 -0.7400  0.7488 -0.0385
  123SOPE  C31713171   3.004   5.282   6.936  0.0794 -0.2087 -0.3810
  123SOPE  H17X13172   3.042   5.202   7.004  1.1927 -0.8880 -1.7412
  123SOPE  H17Y13173   2.894   5.276   6.946 -0.0832  1.3021 -1.1255
  123SOPE  C31813174   3.070   5.414   6.985  0.2832  0.4402 -0.0171
  123SOPE  H18X13175   3.040   5.501   6.924  1.8026  0.3902 -0.8774
  123SOPE  H18Y13176   3.177   5.406   6.958  0.0199 -0.7441 -0.7867
  123SOPE  H18Z13177   3.041   5.442   7.089 -0.0364  0.2957 -0.0653
  124SOPE     N13178   2.648   6.607   5.120 -0.3295  0.5123  0.2757
  124SOPE   HN113179   2.721   6.680   5.133  0.6565 -0.0760 -1.6613
  124SOPE   HN213180   2.661   6.527   5.185 -0.2034 -0.8830 -1.4169
  124SOPE   HN313181   2.668   6.567   5.027 -0.0283  2.5261 -0.5745
  124SOPE   C1213182   2.514   6.665   5.126 -0.7121  0.0956 -0.4362
  124SOPE  H12A13183   2.503   6.755   5.062 -1.2122  0.7127  0.4954
  124SOPE  H12B13184   2.498   6.681   5.235  0.4369  0.3415 -0.2917
  124SOPE   C1113185   2.409   6.568   5.065  0.6695  0.2513  0.0965
  124SOPE  H11A13186   2.410   6.578   4.954 -1.8496  1.0134  0.0842
  124SOPE  H11B13187   2.311   6.601   5.106  1.8053  1.7344  1.7689
  124SOPE     P13188   2.328   6.320   5.082  0.0869 -0.1505 -0.0447
  124SOPE   O1313189   2.395   6.185   5.078  0.4759  0.2784  0.3935
  124SOPE   O1413190   2.248   6.364   4.967 -0.8654  0.2383 -0.3516
  124SOPE   O1213191   2.432   6.432   5.109  0.3713 -0.0734  0.1859
  124SOPE   O1113192   2.239   6.332   5.213  0.1313 -0.1384 -0.5850
  124SOPE    C113193   2.308   6.383   5.333 -0.5797  0.1766 -0.0011
  124SOPE    HA13194   2.305   6.494   5.328 -0.8840  0.1227 -1.6694
  124SOPE    HB13195   2.412   6.347   5.346 -0.4491  0.9003  1.0704
  124SOPE    C213196   2.241   6.344   5.466 -0.9352  0.0013 -0.1765
  124SOPE    HS13197   2.313   6.345   5.551  1.8532  0.0416 -2.3734
  124SOPE   O2113198   2.181   6.210   5.463 -0.3103  0.2467 -0.0971
  124SOPE   C2113199   2.272   6.110   5.469 -0.0015  0.4676  0.1204
  124SOPE   O2213200   2.393   6.127   5.490  0.5625 -0.0346  0.0909
  124SOPE   C2213201   2.203   5.976   5.498  0.3232 -0.1962  0.1754
  124SOPE   H2R13202   2.277   5.899   5.528  1.7888  0.1360 -2.3103
  124SOPE   H2S13203   2.159   5.947   5.400  0.4879  0.4761 -0.0978
  124SOPE    C313204   2.131   6.443   5.505  0.1351 -0.5668  0.1066
  124SOPE    HX13205   2.058   6.415   5.426 -2.1251  0.0264  1.8654
  124SOPE    HY13206   2.175   6.545   5.497 -3.1457  1.0392  1.0957
  124SOPE   O3113207   2.068   6.418   5.630 -0.1006  0.0832 -0.1301
  124SOPE   C3113208   1.992   6.505   5.675  0.0294 -0.2428 -0.0174
  124SOPE   O3213209   1.972   6.618   5.635 -0.1984  0.3280  0.1465
  124SOPE   C3213210   1.914   6.430   5.797 -0.5683 -0.0489  0.7751
  124SOPE   H2X13211   1.993   6.406   5.872  0.2254  0.3192  0.0684
  124SOPE   H2Y13212   1.865   6.337   5.763  0.2675  0.0911 -0.9089
  124SOPE   C2313213   2.080   5.982   5.594  0.0832 -0.3580 -0.7259
  124SOPE   H3R13214   1.998   5.917   5.556 -2.2225  1.9276  0.0754
  124SOPE   H3S13215   2.037   6.084   5.602 -1.7527 -1.2222  1.4086
  124SOPE   C2413216   2.110   5.946   5.740 -0.8540  0.2126 -0.4098
  124SOPE   H4R13217   2.012   5.945   5.793  0.2616  2.0319  1.8563
  124SOPE   H4S13218   2.153   5.844   5.748 -0.7158  0.1633 -1.6445
  124SOPE   C2513219   2.190   6.052   5.823 -0.7255 -0.5375  0.3779
  124SOPE   H5R13220   2.286   6.070   5.771  0.0593  1.9347  2.4738
  124SOPE   H5S13221   2.127   6.142   5.839  0.3593  0.2824  0.1575
  124SOPE   C2613222   2.214   6.008   5.966  0.1624  0.2758 -0.4120
  124SOPE   H6R13223   2.277   5.916   5.971 -1.3315 -0.7326  1.4062
  124SOPE   H6S13224   2.275   6.081   6.022  0.2377  0.5312 -0.8255
  124SOPE   C2713225   2.083   5.989   6.035 -0.2148  0.3442 -0.5481
  124SOPE   H7R13226   2.019   6.080   6.030 -1.6416 -0.4554  1.7918
  124SOPE   H7S13227   2.020   5.907   5.994 -0.0443  0.4519 -1.0390
  124SOPE   C2813228   2.087   5.966   6.185  0.4418 -0.0740 -0.4764
  124SOPE   H8R13229   2.150   6.045   6.231 -0.6779 -0.7009  2.3015
  124SOPE   H8S13230   1.981   5.984   6.214 -0.9539 -3.0264 -3.0641
  124SOPE   C2913231   2.139   5.829   6.235  0.1161 -0.7412  0.5034
  124SOPE   H9113232   2.126   5.739   6.172  0.5977  0.4228 -1.3373
  124SOPE  C21013233   2.201   5.809   6.354 -0.2425 -0.2513 -0.0006
  124SOPE  H10113234   2.228   5.705   6.381  2.4774  0.6571  1.0979
  124SOPE  C21113235   2.233   5.908   6.469  0.4414  0.6260  0.0095
  124SOPE  H11R13236   2.211   6.014   6.442  0.6354  0.9898  1.2075
  124SOPE  H11S13237   2.344   5.910   6.477  0.5079 -0.0219 -0.6384
  124SOPE  C21213238   2.164   5.871   6.596  0.1325  0.6843 -0.3639
  124SOPE  H12R13239   2.186   5.767   6.632  1.4660  1.1169  0.1570
  124SOPE  H12S13240   2.058   5.874   6.564  0.2490  1.8366 -0.6692
  124SOPE  C21313241   2.174   5.966   6.711 -0.6731 -0.1975 -0.0011
  124SOPE  H13R13242   2.084   5.948   6.774 -0.1273  3.2798  2.0061
  124SOPE  H13S13243   2.180   6.067   6.667  2.3270 -0.3999 -0.2249
  124SOPE  C21413244   2.296   5.930   6.799 -0.3942  0.3391 -0.2777
  124SOPE  H14R13245   2.393   5.939   6.746 -0.1297 -0.1046  0.1230
  124SOPE  H14S13246   2.284   5.825   6.833 -1.0331 -0.3893 -2.5882
  124SOPE  C21513247   2.311   6.022   6.926 -0.3184 -0.3048 -0.3571
  124SOPE  H15R13248   2.267   6.123   6.911 -0.6930 -0.5543 -0.9398
  124SOPE  H15S13249   2.419   6.047   6.935 -0.9689  3.6468 -1.7377
  124SOPE  C21613250   2.261   5.961   7.052 -0.2729 -0.5204 -0.2556
  124SOPE  H16R13251   2.296   5.858   7.074  0.7972  0.3547  2.5628
  124SOPE  H16S13252   2.151   5.961   7.045 -0.2134  0.0094 -1.4877
  124SOPE  C21713253   2.298   6.059   7.174  0.5960  0.0895  0.5247
  124SOPE  H17R13254   2.223   6.140   7.159  0.8404  0.1978 -0.1491
  124SOPE  H17S13255   2.403   6.091   7.160  1.0621 -1.5147  0.1697
  124SOPE  C21813256   2.281   5.990   7.303  0.7593  0.5415  0.5466
  124SOPE  H18R13257   2.298   6.062   7.386 -0.9950  1.2386  0.3351
  124SOPE  H18S13258   2.356   5.908   7.314 -0.1115 -0.5388 -1.2294
  124SOPE  H18T13259   2.181   5.943   7.316 -0.1063  2.6503  2.0874
  124SOPE   C3313260   1.806   6.521   5.858  0.2890 -0.0886  0.8313
  124SOPE   H3X13261   1.767   6.588   5.778  0.3679 -0.1726  0.7223
  124SOPE   H3Y13262   1.855   6.591   5.930 -0.1399  1.2477 -0.1308
  124SOPE   C3413263   1.698   6.438   5.930  0.5352  0.6058 -0.1906
  124SOPE   H4X13264   1.652   6.366   5.859 -0.9177 -0.6219  1.8816
  124SOPE   H4Y13265   1.620   6.507   5.969  1.0724  0.9665  0.2782
  124SOPE   C3513266   1.761   6.345   6.038  0.1281  0.1171 -0.2310
  124SOPE   H5X13267   1.818   6.259   5.997  0.6387  0.8227 -1.0466
  124SOPE   H5Y13268   1.683   6.293   6.098 -0.2516  0.4833 -0.4056
  124SOPE   C3613269   1.862   6.412   6.140  0.5111 -0.0100  0.9408
  124SOPE   H6X13270   1.832   6.514   6.172 -0.1681  0.5107 -1.1733
  124SOPE   H6Y13271   1.958   6.421   6.086 -0.2589 -1.3538 -0.7482
  124SOPE   C3713272   1.888   6.308   6.254  0.2506  0.0598 -0.3232
  124SOPE   H7X13273   1.994   6.315   6.286 -0.2865  0.5122  1.4839
  124SOPE   H7Y13274   1.890   6.207   6.209  1.2525 -0.3849  0.6866
  124SOPE   C3813275   1.790   6.306   6.372 -0.5787 -0.4291  0.2934
  124SOPE   H8X13276   1.688   6.279   6.334 -0.0048 -1.9173 -0.2885
  124SOPE   H8Y13277   1.800   6.409   6.412  2.9257  0.0304 -1.3922
  124SOPE   C3913278   1.820   6.206   6.481  0.1735 -0.7135 -0.1822
  124SOPE   H9X13279   1.926   6.205   6.513  0.4215  3.1963 -0.4736
  124SOPE   H9Y13280   1.805   6.099   6.452 -0.3526 -1.0699  1.3041
  124SOPE  C31013281   1.758   6.244   6.621  0.2042  0.6101 -0.1431
  124SOPE  H10X13282   1.651   6.265   6.599 -0.2432 -1.4456 -0.1423
  124SOPE  H10Y13283   1.818   6.330   6.657  0.5908 -0.1687  1.1272
  124SOPE  C31113284   1.762   6.126   6.725 -0.4415  0.2416 -0.1640
  124SOPE  H11X13285   1.866   6.091   6.742 -0.0710  0.4745 -1.7702
  124SOPE  H11Y13286   1.711   6.039   6.680  0.0679 -0.3555  0.3988
  124SOPE  C31213287   1.694   6.170   6.849 -0.1673  0.1308 -0.5542
  124SOPE  H12X13288   1.591   6.208   6.838 -0.6622 -1.1717 -0.6568
  124SOPE  H12Y13289   1.756   6.254   6.888 -1.6227  0.9391  0.0930
  124SOPE  C31313290   1.684   6.045   6.947  0.3789  0.2764  0.2684
  124SOPE  H13X13291   1.786   6.035   6.990  0.3498 -1.3044  0.0535
  124SOPE  H13Y13292   1.636   5.956   6.900 -0.3557 -0.7159  2.7691
  124SOPE  C31413293   1.594   6.081   7.067  0.3417  0.3015  0.0964
  124SOPE  H14X13294   1.590   5.988   7.127 -0.4087  1.0537  1.2419
  124SOPE  H14Y13295   1.491   6.115   7.046 -0.1641 -0.9035  0.5298
  124SOPE  C31513296   1.650   6.189   7.167 -0.0149 -0.3198  0.2061
  124SOPE  H15X13297   1.575   6.204   7.248 -1.3095  3.6384 -1.4968
  124SOPE  H15Y13298   1.658   6.286   7.115 -1.1862 -1.5002 -2.3855
  124SOPE  C31613299   1.784   6.143   7.225 -0.0569 -0.3847 -0.2265
  124SOPE  H16X13300   1.867   6.132   7.152  0.2429  1.1116 -0.1367
  124SOPE  H16Y13301   1.768   6.048   7.281 -1.7043  2.1100  3.9908
  124SOPE  C31713302   1.823   6.245   7.349  0.0610  0.5464 -0.5066
  124SOPE  H17X13303   1.824   6.347   7.306 -1.9139  1.3458  1.1708
  124SOPE  H17Y13304   1.923   6.204   7.376 -1.4492 -3.2122  0.0438
  124SOPE  C31813305   1.721   6.238   7.465  0.4364 -0.5778  0.9460
  124SOPE  H18X13306   1.765   6.267   7.563  3.3597 -1.6493  0.0591
  124SOPE  H18Y13307   1.671   6.139   7.459  0.2615 -0.4066 -1.1876
  124SOPE  H18Z13308   1.637   6.307   7.442  1.0245 -0.8647 -2.7624
  125SOPE     N13309   1.290   5.726   5.054 -0.0287 -0.4847  0.1947
  125SOPE   HN113310   1.367   5.659   5.071  1.3392  0.6204 -1.3518
  125SOPE   HN213311   1.290   5.774   4.962 -1.8848 -2.0495 -0.7141
  125SOPE   HN313312   1.292   5.803   5.123 -2.1267  0.9849 -1.2485
  125SOPE   C1213313   1.158   5.662   5.079  0.3291  0.6686 -0.1605
  125SOPE  H12A13314   1.077   5.737   5.092 -1.7892 -1.7395  1.6407
  125SOPE  H12B13315   1.160   5.613   5.179  0.7909  2.1591  0.5831
  125SOPE   C1113316   1.106   5.564   4.971 -0.1854 -0.4707 -0.1593
  125SOPE  H11A13317   1.086   5.624   4.879 -1.8821  1.6859  1.5161
  125SOPE  H11B13318   1.004   5.532   5.000 -0.3488  0.3385  0.1808
  125SOPE     P13319   1.195   5.321   5.023  0.0558 -0.0631  0.1128
  125SOPE   O1313320   1.331   5.281   5.044  0.6438 -0.0415  0.5371
  125SOPE   O1413321   1.109   5.225   4.950  0.3926  0.2918  0.1666
  125SOPE   O1213322   1.202   5.460   4.952 -0.2830  0.0898 -0.5422
  125SOPE   O1113323   1.146   5.355   5.165 -0.0284 -0.5295  0.1366
  125SOPE    C113324   1.016   5.334   5.211  0.1010 -0.2360 -0.0368
  125SOPE    HA13325   0.957   5.247   5.176 -1.1858 -0.5632  2.6895
  125SOPE    HB13326   0.964   5.428   5.184  1.7484  0.8938  0.5412
  125SOPE    C213327   1.005   5.315   5.364 -0.1020 -1.1003 -0.3629
  125SOPE    HS13328   1.044   5.406   5.413 -1.8867 -0.4333 -0.1297
  125SOPE   O2113329   1.067   5.190   5.398  0.2765 -0.2154 -0.5116
  125SOPE   C2113330   1.163   5.194   5.483 -0.1672  0.2609  0.1748
  125SOPE   O2213331   1.202   5.289   5.554  0.4106  0.3823  0.4577
  125SOPE   C2213332   1.222   5.050   5.481  1.0134 -0.2147  0.4642
  125SOPE   H2R13333   1.267   5.031   5.381 -0.4462 -2.4890  0.1542
  125SOPE   H2S13334   1.134   4.982   5.489  1.7157 -1.0529  1.4803
  125SOPE    C313335   0.859   5.312   5.414  0.3936 -0.3373  0.4366
  125SOPE    HX13336   0.809   5.230   5.359  0.5243 -0.8890  1.1272
  125SOPE    HY13337   0.805   5.406   5.387 -0.4716 -1.0171 -0.2360
  125SOPE   O3113338   0.851   5.282   5.556 -0.3371  0.5293  0.3980
  125SOPE   C3113339   0.878   5.383   5.641  0.5091  0.2672 -0.2061
  125SOPE   O3213340   0.914   5.492   5.607  0.0819 -0.6707 -0.0613
  125SOPE   C3213341   0.872   5.336   5.785 -0.2105 -0.1983 -0.8606
  125SOPE   H2X13342   0.972   5.310   5.825 -0.2294  2.0547  0.8787
  125SOPE   H2Y13343   0.807   5.246   5.786 -1.3886  0.6004 -2.0290
  125SOPE   C2313344   1.309   5.022   5.603  0.2605  0.3795 -0.0624
  125SOPE   H3R13345   1.357   5.115   5.639 -0.0823  0.7870 -0.6465
  125SOPE   H3S13346   1.395   4.952   5.588  0.7092  1.2865 -1.9739
  125SOPE   C2413347   1.229   4.953   5.714  0.7683 -0.3814 -0.2465
  125SOPE   H4R13348   1.146   5.017   5.752 -0.2635 -0.6390 -1.9414
  125SOPE   H4S13349   1.180   4.861   5.674  1.4047 -2.0766  2.5767
  125SOPE   C2513350   1.317   4.894   5.825 -0.5251  0.2182  0.1456
  125SOPE   H5R13351   1.400   4.842   5.772  1.1726  1.6126  1.3026
  125SOPE   H5S13352   1.350   4.982   5.885 -1.6220 -0.1507  1.3585
  125SOPE   C2613353   1.239   4.799   5.918 -0.7886  0.0112  0.8865
  125SOPE   H6R13354   1.172   4.869   5.972  0.6829  2.2128 -0.0307
  125SOPE   H6S13355   1.192   4.722   5.853 -0.7462  0.3065  0.5057
  125SOPE   C2713356   1.303   4.730   6.036 -0.8307 -0.2406 -0.0890
  125SOPE   H7R13357   1.244   4.639   6.061 -1.0824 -0.0282  0.0981
  125SOPE   H7S13358   1.403   4.695   6.003 -0.5177  2.1919 -2.0256
  125SOPE   C2813359   1.335   4.831   6.145  0.0943  1.0513  0.0667
  125SOPE   H8R13360   1.426   4.890   6.119  0.3429  0.9820  0.7438
  125SOPE   H8S13361   1.252   4.904   6.159 -1.1752 -0.2775 -0.3570
  125SOPE   C2913362   1.363   4.763   6.278  0.1851  0.4200 -0.5215
  125SOPE   H9113363   1.468   4.730   6.274 -0.2695 -1.0086 -1.4737
  125SOPE  C21013364   1.295   4.765   6.398 -0.6894  0.1957  0.0285
  125SOPE  H10113365   1.328   4.701   6.480 -0.8103  2.2795  1.7837
  125SOPE  C21113366   1.164   4.826   6.431  1.0848 -0.0194 -0.1125
  125SOPE  H11R13367   1.083   4.751   6.423  0.3030  0.3636  2.9752
  125SOPE  H11S13368   1.140   4.902   6.354 -1.3255 -0.8445 -0.2655
  125SOPE  C21213369   1.142   4.895   6.567 -0.1437  0.4880 -0.8459
  125SOPE  H12R13370   1.085   4.990   6.557 -1.1464  0.0776  0.6573
  125SOPE  H12S13371   1.248   4.924   6.585  0.7662 -2.9348  0.0239
  125SOPE  C21313372   1.089   4.795   6.677  0.0517 -0.2271  0.5481
  125SOPE  H13R13373   1.143   4.698   6.669  0.8168  0.3217 -1.3639
  125SOPE  H13S13374   0.987   4.767   6.643 -0.4993  1.1766  0.9992
  125SOPE  C21413375   1.079   4.858   6.813  0.0138  0.0491  0.4800
  125SOPE  H14R13376   0.992   4.926   6.803  0.0298 -0.0439 -0.3384
  125SOPE  H14S13377   1.169   4.916   6.842  1.2917 -0.7309 -1.7387
  125SOPE  C21513378   1.060   4.750   6.919 -0.9461  0.0160  0.2164
  125SOPE  H15R13379   1.157   4.704   6.946 -1.0938 -1.0939 -1.0432
  125SOPE  H15S13380   0.992   4.671   6.879  0.8590 -1.1199 -0.7395
  125SOPE  C21613381   1.000   4.800   7.042  0.4884 -0.3459 -0.4784
  125SOPE  H16R13382   0.913   4.869   7.031  0.7045  0.3907  1.7918
  125SOPE  H16S13383   1.087   4.841   7.098 -0.2748  0.2243  0.3122
  125SOPE  C21713384   0.954   4.691   7.132  0.0000  0.0456 -0.1608
  125SOPE  H17R13385   1.040   4.622   7.145  0.2814  0.3232 -0.5341
  125SOPE  H17S13386   0.876   4.638   7.072  0.6243 -1.0250 -0.0572
  125SOPE  C21813387   0.906   4.734   7.265 -0.0666 -0.3356 -0.0234
  125SOPE  H18R13388   0.809   4.787   7.251  0.0831 -0.0404  0.0382
  125SOPE  H18S13389   0.967   4.811   7.317 -1.9398  0.1427  1.6214
  125SOPE  H18T13390   0.880   4.648   7.331  1.5805 -1.5199 -0.8665
  125SOPE   C3313391   0.814   5.431   5.893  0.1389 -0.4612 -0.6558
  125SOPE   H3X13392   0.709   5.466   5.885 -0.7839 -2.0770  2.5576
  125SOPE   H3Y13393   0.884   5.516   5.897  0.2768 -0.6048  0.2794
  125SOPE   C3413394   0.816   5.362   6.034  0.2409 -0.5562  0.4449
  125SOPE   H4X13395   0.898   5.288   6.053  1.9208  0.8472 -0.9416
  125SOPE   H4Y13396   0.725   5.300   6.047  0.0158 -0.5392 -0.9604
  125SOPE   C3513397   0.825   5.467   6.157  0.4130 -0.0206  0.3101
  125SOPE   H5X13398   0.738   5.535   6.164  0.8641  0.3646  3.3476
  125SOPE   H5Y13399   0.918   5.527   6.155  1.6293 -1.6975 -3.2407
  125SOPE   C3613400   0.821   5.405   6.299  0.7292  0.3190 -0.4251
  125SOPE   H6X13401   0.904   5.333   6.320 -1.4999 -2.1433  0.5139
  125SOPE   H6Y13402   0.731   5.340   6.296 -0.4673  1.6817  2.5856
  125SOPE   C3713403   0.801   5.507   6.419  0.7122  0.0505 -0.2430
  125SOPE   H7X13404   0.786   5.452   6.514  0.7668  0.7717  0.1843
  125SOPE   H7Y13405   0.702   5.556   6.406  0.1794 -0.2862  2.2075
  125SOPE   C3813406   0.912   5.613   6.432  0.0943  0.2055  0.2126
  125SOPE   H8X13407   0.904   5.681   6.519  0.7435  3.8750 -2.3456
  125SOPE   H8Y13408   0.896   5.670   6.338  0.3880 -0.2945 -0.1464
  125SOPE   C3913409   1.056   5.551   6.441 -0.3331  0.2127 -0.2000
  125SOPE   H9X13410   1.070   5.477   6.360 -1.3979 -0.0338 -0.1747
  125SOPE   H9Y13411   1.068   5.509   6.544 -1.3358 -0.6671 -0.4285
  125SOPE  C31013412   1.160   5.663   6.423 -0.4841  0.1970  0.6544
  125SOPE  H10X13413   1.123   5.754   6.475 -0.1890  0.4757  0.3787
  125SOPE  H10Y13414   1.169   5.686   6.315  0.7016 -0.0472  0.6915
  125SOPE  C31113415   1.293   5.626   6.472 -0.6143  0.0324  0.7796
  125SOPE  H11X13416   1.324   5.530   6.425 -1.2848  0.8182 -1.3844
  125SOPE  H11Y13417   1.297   5.621   6.583  1.0606 -0.0020  0.7389
  125SOPE  C31213418   1.392   5.729   6.416 -1.0611  0.4583  0.4884
  125SOPE  H12X13419   1.370   5.831   6.454 -0.9758  1.3151 -1.6341
  125SOPE  H12Y13420   1.381   5.743   6.306 -0.3661  0.3378  0.4007
  125SOPE  C31313421   1.536   5.685   6.450  0.6794  0.0132 -0.7557
  125SOPE  H13X13422   1.621   5.740   6.406  0.8341  1.2005  0.9258
  125SOPE  H13Y13423   1.537   5.580   6.413  1.8944 -0.6555  1.0296
  125SOPE  C31413424   1.567   5.676   6.605 -0.2658 -0.1573 -0.2296
  125SOPE  H14X13425   1.499   5.608   6.661  0.6343 -1.2307 -0.3874
  125SOPE  H14Y13426   1.556   5.778   6.647 -1.2124 -0.2942 -0.1277
  125SOPE  C31513427   1.708   5.615   6.622  0.0902  0.1657 -0.6921
  125SOPE  H15X13428   1.781   5.651   6.546  0.0287 -1.2747 -1.4736
  125SOPE  H15Y13429   1.691   5.507   6.603 -1.9195  0.2457  0.3567
  125SOPE  C31613430   1.766   5.645   6.763  0.3913 -0.1008  0.4618
  125SOPE  H16X13431   1.721   5.587   6.847  1.2905 -0.3485  0.7908
  125SOPE  H16Y13432   1.739   5.749   6.791 -0.2624 -0.3968  0.9521
  125SOPE  C31713433   1.921   5.649   6.771  0.2829  0.0185  0.7547
  125SOPE  H17X13434   1.961   5.723   6.698 -0.0915  1.8086  2.3112
  125SOPE  H17Y13435   1.964   5.553   6.734 -0.7370 -0.1359 -0.0909
  125SOPE  C31813436   1.975   5.686   6.909 -0.6331 -0.0140 -0.1535
  125SOPE  H18X13437   1.977   5.795   6.929  0.9518  0.2420 -1.5342
  125SOPE  H18Y13438   2.083   5.665   6.916 -1.0081 -1.9308  0.4630
  125SOPE  H18Z13439   1.923   5.631   6.990  0.1028 -1.3083 -0.5259
  126SOPE     N13440   4.241   5.972   5.039  0.5458 -0.7218  0.3037
  126SOPE   HN113441   4.173   6.014   4.971  2.0491 -0.2480 -0.9721
  126SOPE   HN213442   4.333   6.000   4.999 -0.0011  1.1136  0.2245
  126SOPE   HN313443   4.213   5.872   5.031 -1.4579 -0.1179 -1.0740
  126SOPE   C1213444   4.223   6.015   5.183 -0.3090 -0.2659  0.5203
  126SOPE  H12A13445   4.275   6.113   5.190  0.1393 -0.4597  0.0078
  126SOPE  H12B13446   4.272   5.939   5.249  0.0721 -2.2399 -1.9015
  126SOPE   C1113447   4.069   6.023   5.210  0.2568  0.1865 -0.4952
  126SOPE  H11A13448   4.060   6.046   5.319  1.8756  0.5123 -0.3960
  126SOPE  H11B13449   4.020   5.929   5.179  0.5635  0.1323 -0.8177
  126SOPE     P13450   3.943   6.138   4.999  0.1501 -0.3434 -0.1473
  126SOPE   O1313451   4.016   6.050   4.902 -0.4653  0.3946 -0.4158
  126SOPE   O1413452   3.906   6.278   4.968 -0.1131 -0.2573  0.2569
  126SOPE   O1213453   4.009   6.135   5.142 -0.0729  0.3012  0.0095
  126SOPE   O1113454   3.812   6.056   5.034  0.2008 -0.0976 -0.7720
  126SOPE    C113455   3.704   6.112   5.102  0.3299 -0.0903 -0.0114
  126SOPE    HA13456   3.606   6.071   5.069  0.8419 -2.2239  0.9225
  126SOPE    HB13457   3.688   6.221   5.091 -1.0152 -0.4311 -1.9261
  126SOPE    C213458   3.709   6.077   5.251 -0.3815  0.5057  0.3774
  126SOPE    HS13459   3.811   6.096   5.290 -0.4263 -0.7954  1.1501
  126SOPE   O2113460   3.669   5.941   5.257  0.3986 -0.2920  0.3338
  126SOPE   C2113461   3.726   5.862   5.332 -0.0025 -0.5048  0.4084
  126SOPE   O2213462   3.836   5.880   5.384  0.0072  0.0550 -0.5847
  126SOPE   C2213463   3.644   5.740   5.352  0.6492  0.3975 -0.0487
  126SOPE   H2R13464   3.652   5.667   5.269  0.3941 -0.9919  1.0975
  126SOPE   H2S13465   3.536   5.767   5.353  0.3143 -0.8744  0.7641
  126SOPE    C313466   3.606   6.160   5.336 -0.2534 -0.4881  0.1754
  126SOPE    HX13467   3.513   6.159   5.275 -0.0114 -2.4690 -0.2195
  126SOPE    HY13468   3.647   6.263   5.342  0.9346 -0.8867 -0.6650
  126SOPE   O3113469   3.575   6.102   5.466  0.1846  0.7463  0.0984
  126SOPE   C3113470   3.618   6.161   5.576  0.0667  0.4788 -0.4648
  126SOPE   O3213471   3.666   6.272   5.573 -0.5441 -0.4225 -0.0353
  126SOPE   C3213472   3.594   6.075   5.699 -0.2491  0.3902 -0.3378
  126SOPE   H2X13473   3.681   6.011   5.723 -0.0546  0.3886 -1.0217
  126SOPE   H2Y13474   3.508   6.013   5.666 -0.4870  1.3094 -1.5357
  126SOPE   C2313475   3.693   5.669   5.484  0.5008  0.0421  0.8356
  126SOPE   H3R13476   3.801   5.644   5.482  0.0315 -2.2156 -0.9400
  126SOPE   H3S13477   3.633   5.575   5.485 -0.1505  0.4393 -0.1254
  126SOPE   C2413478   3.658   5.736   5.617 -0.4676  0.2674 -0.2616
  126SOPE   H4R13479   3.710   5.834   5.608  2.6264 -1.2918 -1.0615
  126SOPE   H4S13480   3.550   5.755   5.629 -0.6654 -0.3243 -1.0464
  126SOPE   C2513481   3.714   5.673   5.741  0.0907 -0.4783  0.8540
  126SOPE   H5R13482   3.680   5.568   5.731 -2.2533  0.3079 -0.2762
  126SOPE   H5S13483   3.825   5.667   5.741  0.0808 -1.9148 -1.3962
  126SOPE   C2613484   3.669   5.750   5.869  0.4034  0.6866  0.2132
  126SOPE   H6R13485   3.723   5.847   5.862  2.6500 -0.5532 -0.8428
  126SOPE   H6S13486   3.559   5.764   5.864  0.5169  1.8187  0.3968
  126SOPE   C2713487   3.722   5.682   5.994  0.2770 -0.1805 -0.0088
  126SOPE   H7R13488   3.668   5.586   5.996 -1.7048  0.7659 -2.8115
  126SOPE   H7S13489   3.831   5.659   5.983  0.1740 -0.0941 -1.2867
  126SOPE   C2813490   3.708   5.759   6.126 -0.8790  0.3345 -0.4040
  126SOPE   H8R13491   3.756   5.699   6.207 -2.2354 -0.8231 -0.4032
  126SOPE   H8S13492   3.757   5.858   6.123 -1.5715  0.8307  1.9296
  126SOPE   C2913493   3.562   5.784   6.152 -0.0038 -0.0059  0.4151
  126SOPE   H9113494   3.508   5.823   6.065 -0.2509  0.0771  0.6065
  126SOPE  C21013495   3.492   5.752   6.263 -0.0832  0.1531 -0.3418
  126SOPE  H10113496   3.385   5.778   6.262  0.1354  1.0704 -0.4509
  126SOPE  C21113497   3.537   5.684   6.390  0.6789 -0.1805  0.2671
  126SOPE  H11R13498   3.645   5.660   6.391  0.6344 -0.4201 -0.3116
  126SOPE  H11S13499   3.471   5.595   6.401  0.2906  0.3822  3.5905
  126SOPE  C21213500   3.525   5.777   6.506  0.1310 -0.0631 -0.1745
  126SOPE  H12R13501   3.419   5.810   6.518  0.5302  1.3837 -0.4702
  126SOPE  H12S13502   3.577   5.871   6.480  0.7634 -1.1610 -3.3374
  126SOPE  C21313503   3.575   5.710   6.633 -0.3272 -0.9850 -0.4623
  126SOPE  H13R13504   3.683   5.688   6.617 -0.4998 -1.1224 -1.4855
  126SOPE  H13S13505   3.527   5.617   6.669 -1.2676  0.2069  1.5860
  126SOPE  C21413506   3.538   5.806   6.754  0.1190 -0.1022 -0.2019
  126SOPE  H14R13507   3.560   5.909   6.718 -0.5280  0.5527  1.2147
  126SOPE  H14S13508   3.600   5.773   6.840 -0.0754  0.5056  0.1802
  126SOPE  C21513509   3.392   5.789   6.796  0.1419  0.2259 -0.1919
  126SOPE  H15R13510   3.380   5.703   6.865 -0.4878 -1.1510 -1.9570
  126SOPE  H15S13511   3.333   5.752   6.709 -0.1254 -2.0334  0.8698
  126SOPE  C21613512   3.328   5.912   6.869 -0.1979  0.7213  0.5998
  126SOPE  H16R13513   3.311   5.997   6.799  0.4403  0.5560  0.2387
  126SOPE  H16S13514   3.401   5.943   6.946  0.5094 -2.6959  1.4732
  126SOPE  C21713515   3.190   5.894   6.941  0.3316  0.0057  0.1504
  126SOPE  H17R13516   3.196   5.822   7.025  0.5476  0.1708  0.2771
  126SOPE  H17S13517   3.124   5.841   6.868 -0.6362  2.5079 -0.8911
  126SOPE  C21813518   3.128   6.036   6.982  0.3914  0.3203  0.6228
  126SOPE  H18R13519   3.124   6.097   6.889 -1.5686 -1.4898 -0.5630
  126SOPE  H18S13520   3.189   6.074   7.067  0.6925 -1.7205  1.3735
  126SOPE  H18T13521   3.022   6.032   7.016  0.4635 -1.0089  0.7500
  126SOPE   C3313522   3.558   6.145   5.828 -0.4832  0.5839 -0.3813
  126SOPE   H3X13523   3.516   6.068   5.896 -0.3039 -1.1554 -2.1669
  126SOPE   H3Y13524   3.483   6.225   5.812  2.0748  2.8650 -1.9440
  126SOPE   C3413525   3.684   6.193   5.900  0.1024  0.6625  0.0790
  126SOPE   H4X13526   3.740   6.268   5.840  0.5015  0.3928  0.1055
  126SOPE   H4Y13527   3.765   6.119   5.921 -0.2584  0.7248  1.8177
  126SOPE   C3513528   3.661   6.258   6.035 -0.3318  0.0917  0.0516
  126SOPE   H5X13529   3.563   6.308   6.017 -1.7782 -2.4234  0.2898
  126SOPE   H5Y13530   3.742   6.330   6.057  1.8260 -2.4238  0.8102
  126SOPE   C3613531   3.648   6.167   6.149  0.5297  0.2326 -0.5906
  126SOPE   H6X13532   3.747   6.134   6.188  0.4933 -0.0301 -0.7156
  126SOPE   H6Y13533   3.602   6.070   6.120 -1.1630  1.7924 -3.5941
  126SOPE   C3713534   3.565   6.218   6.270  0.4569  0.1941  0.2284
  126SOPE   H7X13535   3.469   6.258   6.231 -0.6595 -0.8044  1.8480
  126SOPE   H7Y13536   3.631   6.295   6.315 -1.4006  1.9611  0.0539
  126SOPE   C3813537   3.524   6.117   6.375 -0.4322 -0.1669 -0.2280
  126SOPE   H8X13538   3.616   6.068   6.414 -0.9259  1.6114  3.6375
  126SOPE   H8Y13539   3.457   6.039   6.334 -2.6215  1.0809  0.8082
  126SOPE   C3913540   3.441   6.185   6.490 -0.0196  0.3868 -0.1958
  126SOPE   H9X13541   3.409   6.106   6.563  0.3111 -0.3405 -0.8250
  126SOPE   H9Y13542   3.353   6.233   6.443  0.2304 -0.2753 -1.3818
  126SOPE  C31013543   3.527   6.292   6.571 -0.7621 -0.1956  0.3507
  126SOPE  H10X13544   3.511   6.395   6.531 -0.2447 -0.0915  0.4117
  126SOPE  H10Y13545   3.633   6.269   6.551 -0.2486  1.9160  0.3895
  126SOPE  C31113546   3.508   6.308   6.721 -0.0723  0.5732  0.0837
  126SOPE  H11X13547   3.576   6.389   6.755  0.2802  0.5842 -0.6442
  126SOPE  H11Y13548   3.533   6.212   6.772 -0.0148  0.7280  0.3495
  126SOPE  C31213549   3.366   6.347   6.773 -0.9996  0.4879  0.6716
  126SOPE  H12X13550   3.288   6.287   6.722 -2.4222  1.4652  1.6160
  126SOPE  H12Y13551   3.345   6.449   6.735 -0.7176  0.1939 -0.3040
  126SOPE  C31313552   3.343   6.342   6.923 -0.3081  0.1405  0.7750
  126SOPE  H13X13553   3.361   6.239   6.959  1.2806  0.7990  2.0004
  126SOPE  H13Y13554   3.235   6.364   6.937 -0.3905  1.9670 -2.0497
  126SOPE  C31413555   3.438   6.439   7.003  1.0365  0.1937 -1.1532
  126SOPE  H14X13556   3.442   6.534   6.945  1.4775  1.1147  0.3072
  126SOPE  H14Y13557   3.544   6.407   7.007  1.1587  0.4082 -2.2358
  126SOPE  C31513558   3.389   6.455   7.147  0.0610 -0.6688 -0.3971
  126SOPE  H15X13559   3.443   6.372   7.198 -0.0569 -0.2222  0.4847
  126SOPE  H15Y13560   3.281   6.432   7.152 -0.6162  2.2613 -0.1057
  126SOPE  C31613561   3.414   6.589   7.218 -0.8587 -0.1981 -0.2597
  126SOPE  H16X13562   3.388   6.688   7.175  0.5013 -0.1570 -1.0738
  126SOPE  H16Y13563   3.525   6.603   7.215 -0.9869  1.0630  0.3988
  126SOPE  C31713564   3.369   6.603   7.359 -0.1983  0.3295 -0.1545
  126SOPE  H17X13565   3.414   6.520   7.418 -0.8418 -1.0015 -1.4530
  126SOPE  H17Y13566   3.258   6.604   7.366 -0.2185 -2.1063  1.3398
  126SOPE  C31813567   3.423   6.725   7.433  0.5996 -0.3365 -0.1471
  126SOPE  H18X13568   3.533   6.726   7.445  0.6808  1.7148 -0.7466
  126SOPE  H18Y13569   3.378   6.721   7.534  0.0094 -2.5849 -0.4317
  126SOPE  H18Z13570   3.395   6.816   7.376  0.7715 -0.0763  0.1835
  127SOPE     N13571   4.119   0.624   5.150 -0.2792  0.4095 -0.6826
  127SOPE   HN113572   4.085   0.660   5.242  1.0834  0.1871 -0.0700
  127SOPE   HN213573   4.215   0.590   5.172 -0.4410  0.2263 -0.2472
  127SOPE   HN313574   4.121   0.697   5.076 -1.4035  0.3322 -0.7989
  127SOPE   C1213575   4.055   0.503   5.097  0.2580  0.1222 -0.2207
  127SOPE  H12A13576   4.080   0.414   5.159  0.1617  0.9120  0.9711
  127SOPE  H12B13577   4.087   0.487   4.992  0.0011  0.8792 -0.4239
  127SOPE   C1113578   3.903   0.508   5.108  0.3009 -0.3161  0.3835
  127SOPE  H11A13579   3.879   0.495   5.216 -1.1695  0.5966  0.1896
  127SOPE  H11B13580   3.866   0.413   5.063 -2.5268  1.2438 -0.7721
  127SOPE     P13581   3.731   0.703   5.127 -0.5171  0.4994  0.0279
  127SOPE   O1313582   3.642   0.601   5.186  0.8296  0.1276  0.1836
  127SOPE   O1413583   3.670   0.811   5.043  0.3755 -0.2089 -0.0016
  127SOPE   O1213584   3.841   0.616   5.040  0.4462 -0.2720  0.0847
  127SOPE   O1113585   3.815   0.771   5.239  0.0602 -0.1091 -0.2515
  127SOPE    C113586   3.755   0.852   5.335  0.9460 -0.2638 -0.3570
  127SOPE    HA13587   3.675   0.796   5.388 -0.0696  2.5084  1.2410
  127SOPE    HB13588   3.703   0.935   5.283 -0.1298 -1.6378 -1.5684
  127SOPE    C213589   3.856   0.900   5.443  0.2921 -0.3290  0.2252
  127SOPE    HS13590   3.952   0.919   5.391 -0.5121  1.0191 -0.8307
  127SOPE   O2113591   3.877   0.793   5.545  0.3662 -0.7566 -0.6197
  127SOPE   C2113592   3.976   0.702   5.521  0.0435 -0.6837 -0.7459
  127SOPE   O2213593   4.033   0.689   5.416  0.3232  0.0384  0.6601
  127SOPE   C2213594   4.008   0.613   5.642  0.5894  0.8841 -0.3220
  127SOPE   H2R13595   4.034   0.510   5.607  1.0793  0.3168  1.5665
  127SOPE   H2S13596   3.919   0.611   5.709 -0.0354  1.1484 -1.1238
  127SOPE    C313597   3.812   1.036   5.507  0.4218 -0.1836 -0.8283
  127SOPE    HX13598   3.797   1.112   5.427 -0.4875  2.0827  1.3809
  127SOPE    HY13599   3.891   1.069   5.578 -1.5249 -0.5579  1.6287
  127SOPE   O3113600   3.688   1.017   5.570  0.3649  0.6492  0.3655
  127SOPE   C3113601   3.591   1.106   5.534 -0.3589  0.1664  0.6415
  127SOPE   O3213602   3.606   1.217   5.484  0.2523 -0.2645 -0.5227
  127SOPE   C3213603   3.454   1.042   5.557 -0.0074 -0.6436 -0.1574
  127SOPE   H2X13604   3.459   0.984   5.652  0.3291  0.3481  0.4451
  127SOPE   H2Y13605   3.438   0.968   5.475 -1.6388 -2.4635  1.6866
  127SOPE   C2313606   4.112   0.691   5.725 -0.2761  0.1178 -0.2795
  127SOPE   H3R13607   4.210   0.685   5.674  0.3881  0.1608  0.9512
  127SOPE   H3S13608   4.125   0.638   5.822  0.1460  1.4951  0.4445
  127SOPE   C2413609   4.066   0.835   5.761  0.9757 -0.3649 -0.3042
  127SOPE   H4R13610   4.097   0.902   5.678  0.3242  0.6044  0.2202
  127SOPE   H4S13611   3.956   0.845   5.774  0.8651  0.2478 -1.5525
  127SOPE   C2513612   4.121   0.895   5.889  0.3844  0.3074  0.2378
  127SOPE   H5R13613   4.067   0.866   5.981  2.0170  0.1351  1.1815
  127SOPE   H5S13614   4.227   0.865   5.899  0.3226 -0.7158 -1.7036
  127SOPE   C2613615   4.127   1.055   5.879  0.1803 -0.5163 -0.1717
  127SOPE   H6R13616   4.215   1.080   5.817  0.9775  0.4925  1.3014
  127SOPE   H6S13617   4.041   1.092   5.819  0.3435 -1.2032 -0.8365
  127SOPE   C2713618   4.139   1.124   6.014 -0.6940 -0.2105 -0.0593
  127SOPE   H7R13619   4.135   1.235   6.008  1.2088  0.2551  4.0805
  127SOPE   H7S13620   4.060   1.082   6.080 -0.8575 -3.2731 -2.0041
  127SOPE   C2813621   4.284   1.112   6.076  0.0367  0.4207  0.4381
  127SOPE   H8R13622   4.284   1.177   6.167 -1.7402 -0.4121  1.0742
  127SOPE   H8S13623   4.289   1.012   6.124 -0.2780 -1.0977 -2.4569
  127SOPE   C2913624   4.409   1.122   5.999  0.2599 -0.1762  0.0970
  127SOPE   H9113625   4.423   1.032   5.938 -0.0779 -0.9983  1.2112
  127SOPE  C21013626   4.498   1.223   5.996 -0.6965 -0.0594 -0.8315
  127SOPE  H10113627   4.589   1.216   5.934  0.8059 -0.6965  1.3332
  127SOPE  C21113628   4.487   1.358   6.061  0.3440 -1.0412 -0.0385
  127SOPE  H11R13629   4.381   1.375   6.089 -0.0714 -1.0846 -1.5235
  127SOPE  H11S13630   4.509   1.431   5.980 -0.9447 -0.2546  0.2862
  127SOPE  C21213631   4.591   1.388   6.171 -0.0328 -0.4610 -0.0484
  127SOPE  H12R13632   4.695   1.366   6.138  0.1931  1.1498 -0.4837
  127SOPE  H12S13633   4.579   1.323   6.260  4.1337  0.1542  1.2276
  127SOPE  C21313634   4.599   1.533   6.232  0.8465 -0.2340 -0.8505
  127SOPE  H13R13635   4.650   1.523   6.330  0.8408 -0.9633 -0.9126
  127SOPE  H13S13636   4.497   1.572   6.254 -0.3645 -3.5957  0.1683
  127SOPE  C21413637   4.686   1.627   6.153 -0.2843 -0.2119  0.4125
  127SOPE  H14R13638   4.639   1.631   6.052  1.2970 -1.9525 -0.4745
  127SOPE  H14S13639   4.783   1.573   6.149 -0.5800 -0.7155 -0.1790
  127SOPE  C21513640   4.707   1.771   6.203  0.6057  0.6372 -0.2145
  127SOPE  H15R13641   4.613   1.827   6.187  0.8211  0.7203 -1.2745
  127SOPE  H15S13642   4.788   1.811   6.139 -0.1943 -1.4428 -2.7168
  127SOPE  C21613643   4.733   1.777   6.352 -0.3326  0.3885 -0.0134
  127SOPE  H16R13644   4.671   1.699   6.403 -0.9577  2.1140  2.0173
  127SOPE  H16S13645   4.708   1.880   6.384  2.0526  1.1354 -0.3431
  127SOPE  C21713646   4.875   1.764   6.398  0.4992 -0.0316  0.2409
  127SOPE  H17R13647   4.940   1.807   6.318  0.8114  0.4027  0.7235
  127SOPE  H17S13648   4.900   1.656   6.401 -1.6982 -0.6258 -0.6715
  127SOPE  C21813649   4.913   1.833   6.529 -0.2463 -0.5902 -0.2879
  127SOPE  H18R13650   4.899   1.943   6.527 -2.2749 -0.6921  2.3376
  127SOPE  H18S13651   5.020   1.822   6.559 -0.1472  1.9411  0.5731
  127SOPE  H18T13652   4.858   1.799   6.619 -1.9164 -1.8997 -1.7499
  127SOPE   C3313653   3.350   1.154   5.569 -0.8397 -0.5804  0.1179
  127SOPE   H3X13654   3.246   1.115   5.561 -0.4295 -2.7211  3.1912
  127SOPE   H3Y13655   3.380   1.226   5.490  2.6173  0.4028  2.1049
  127SOPE   C3413656   3.351   1.228   5.709 -0.0627 -0.5589  0.5806
  127SOPE   H4X13657   3.298   1.325   5.693  1.3522  0.1521  0.0260
  127SOPE   H4Y13658   3.456   1.254   5.733 -0.5082 -1.3403  3.7896
  127SOPE   C3513659   3.300   1.138   5.823 -0.1484 -0.0762 -0.1275
  127SOPE   H5X13660   3.372   1.055   5.842 -2.3655 -2.8562 -2.7960
  127SOPE   H5Y13661   3.209   1.084   5.789 -0.5562  0.3310  0.2958
  127SOPE   C3613662   3.265   1.228   5.948  0.0221 -0.0425 -0.1424
  127SOPE   H6X13663   3.172   1.283   5.922  0.2551 -0.5469 -2.2318
  127SOPE   H6Y13664   3.345   1.299   5.980 -0.2860 -0.7497  2.4202
  127SOPE   C3713665   3.227   1.147   6.078 -0.1732  0.5376  0.0483
  127SOPE   H7X13666   3.305   1.087   6.129 -0.7311  0.3070  0.6468
  127SOPE   H7Y13667   3.150   1.075   6.044 -2.2239  1.7642  1.7800
  127SOPE   C3813668   3.168   1.229   6.191 -0.5427 -0.1570  0.4575
  127SOPE   H8X13669   3.073   1.263   6.143  0.0076 -0.9362 -1.2773
  127SOPE   H8Y13670   3.224   1.322   6.213  1.1290 -0.9140 -0.4401
  127SOPE   C3913671   3.150   1.155   6.319  0.0195 -0.1558 -0.0244
  127SOPE   H9X13672   3.250   1.131   6.361  0.0908  0.2326  0.0327
  127SOPE   H9Y13673   3.103   1.060   6.288  1.5940 -1.1490  0.5212
  127SOPE  C31013674   3.057   1.228   6.418  0.4006 -0.3617 -0.2712
  127SOPE  H10X13675   2.953   1.215   6.381  1.0700 -1.5387 -1.8463
  127SOPE  H10Y13676   3.093   1.333   6.420  2.8763 -1.1056  2.4618
  127SOPE  C31113677   3.073   1.175   6.561  0.5612 -0.0314 -0.4147
  127SOPE  H11X13678   3.181   1.176   6.587  0.4674  1.6027 -0.0345
  127SOPE  H11Y13679   3.037   1.070   6.551 -1.5188  0.7323 -1.4008
  127SOPE  C31213680   3.001   1.263   6.667 -0.1900  0.1560  0.7089
  127SOPE  H12X13681   2.895   1.268   6.635 -0.0792 -0.9646  0.1145
  127SOPE  H12Y13682   3.040   1.367   6.678  0.1772 -0.0645  1.5653
  127SOPE  C31313683   3.001   1.189   6.800  0.3537 -0.8195  0.0472
  127SOPE  H13X13684   3.104   1.149   6.813  0.9376  0.3166 -0.8669
  127SOPE  H13Y13685   2.921   1.112   6.796 -1.3409  0.7943  1.0249
  127SOPE  C31413686   2.979   1.289   6.914  0.0644 -0.3180  0.7398
  127SOPE  H14X13687   2.901   1.364   6.889  0.9151 -0.2308 -1.9310
  127SOPE  H14Y13688   3.065   1.359   6.915 -0.1691 -0.0219  0.3660
  127SOPE  C31513689   2.963   1.228   7.051  0.2448  0.2840  0.2002
  127SOPE  H15X13690   3.066   1.191   7.070 -0.2980 -1.5151 -0.1377
  127SOPE  H15Y13691   2.881   1.154   7.060  0.2596  0.2240 -0.1539
  127SOPE  C31613692   2.927   1.340   7.153 -0.0960  0.5718 -0.2851
  127SOPE  H16X13693   2.827   1.387   7.135  0.2718  1.1260 -0.9568
  127SOPE  H16Y13694   3.006   1.416   7.134  0.4561 -0.3057 -1.6052
  127SOPE  C31713695   2.918   1.284   7.295 -0.1206 -0.0878  0.6863
  127SOPE  H17X13696   3.013   1.230   7.312  1.1210  0.8470 -2.5678
  127SOPE  H17Y13697   2.833   1.212   7.306 -1.2081  1.0802  0.1929
  127SOPE  C31813698   2.905   1.383   7.412  0.5294 -0.0374  0.2400
  127SOPE  H18X13699   2.812   1.443   7.404  1.1111  0.7768 -0.7160
  127SOPE  H18Y13700   2.995   1.449   7.413  0.1806  0.4622 -0.8054
  127SOPE  H18Z13701   2.909   1.325   7.507  0.0281 -0.3223  0.0848
  128SOPE     N13702   0.824   3.084   4.567  0.0809 -0.1181  0.0690
  128SOPE   HN113703   0.746   3.040   4.620 -1.4769  1.8584 -0.4865
  128SOPE   HN213704   0.780   3.111   4.477  1.8865 -1.6786 -1.3617
  128SOPE   HN313705   0.910   3.026   4.559  0.2777 -0.6894  4.0696
  128SOPE   C1213706   0.871   3.204   4.644  1.3967  0.6838  0.0369
  128SOPE  H12A13707   0.817   3.289   4.598  1.4866 -0.3727 -2.1722
  128SOPE  H12B13708   0.981   3.200   4.630  1.4078 -1.6684  0.3897
  128SOPE   C1113709   0.849   3.184   4.795 -0.2019 -0.0775  0.2977
  128SOPE  H11A13710   0.740   3.189   4.819 -0.6156 -1.9720 -0.9635
  128SOPE  H11B13711   0.908   3.266   4.841  2.3306 -1.1461 -0.8846
  128SOPE     P13712   1.020   3.005   4.909  0.2959 -0.0056  0.3814
  128SOPE   O1313713   1.134   3.048   4.831 -0.3918 -0.6227 -0.0343
  128SOPE   O1413714   1.021   2.858   4.925 -0.0480  0.0157 -0.1208
  128SOPE   O1213715   0.890   3.049   4.832 -0.4692  0.3074 -0.1431
  128SOPE   O1113716   1.007   3.075   5.050 -0.5813 -0.7389  0.5692
  128SOPE    C113717   1.095   3.183   5.090  0.4718  0.1147 -0.0563
  128SOPE    HA13718   1.044   3.263   5.148 -0.6180 -0.5025 -0.1432
  128SOPE    HB13719   1.140   3.238   5.004  0.5341  0.3176  0.1033
  128SOPE    C213720   1.221   3.134   5.182 -0.4686 -0.4510  0.5643
  128SOPE    HS13721   1.268   3.050   5.126  0.9899  1.5014 -1.3243
  128SOPE   O2113722   1.174   3.114   5.319 -0.1992  0.2190 -0.2883
  128SOPE   C2113723   1.198   2.996   5.376 -0.8114  0.2787  0.0096
  128SOPE   O2213724   1.257   2.900   5.324  0.7319  0.3080  0.2453
  128SOPE   C2213725   1.164   3.010   5.525  0.1471 -0.9655  0.6222
  128SOPE   H2R13726   1.057   3.038   5.527  0.0287 -0.6474 -3.0838
  128SOPE   H2S13727   1.221   3.096   5.567 -1.7983 -0.1366  1.6497
  128SOPE    C313728   1.334   3.250   5.198  0.2302  0.2762  0.5699
  128SOPE    HX13729   1.293   3.336   5.255 -3.1126 -1.3272  0.8202
  128SOPE    HY13730   1.363   3.286   5.097 -1.4508  0.1618  0.0226
  128SOPE   O3113731   1.461   3.211   5.258  0.1454  0.3726 -1.3945
  128SOPE   C3113732   1.470   3.223   5.395  0.0017 -0.1417  0.2762
  128SOPE   O3213733   1.387   3.275   5.465  0.0892  0.4367 -0.1912
  128SOPE   C3213734   1.598   3.138   5.440 -0.0067  1.0250 -0.3614
  128SOPE   H2X13735   1.679   3.163   5.368 -0.0289  0.0860 -0.7245
  128SOPE   H2Y13736   1.574   3.030   5.438 -2.2616  1.2703  3.3902
  128SOPE   C2313737   1.190   2.883   5.612  0.4720  0.0687  0.5280
  128SOPE   H3R13738   1.138   2.797   5.565  0.3211 -0.0343  0.8814
  128SOPE   H3S13739   1.133   2.900   5.706  0.6557 -1.0988  0.8716
  128SOPE   C2413740   1.337   2.858   5.645  0.1375  0.7101 -0.9501
  128SOPE   H4R13741   1.409   2.853   5.561  1.1073 -1.3140 -0.0840
  128SOPE   H4S13742   1.361   2.944   5.711  0.4686 -0.1758  0.1108
  128SOPE   C2513743   1.355   2.731   5.731 -0.5189  0.1741 -0.2454
  128SOPE   H5R13744   1.251   2.703   5.757 -0.2397 -1.4992 -0.7828
  128SOPE   H5S13745   1.409   2.645   5.685 -1.1187  0.7411 -2.0681
  128SOPE   C2613746   1.434   2.766   5.853 -0.1514 -0.0013  0.2145
  128SOPE   H6R13747   1.539   2.775   5.817  0.0160 -1.9166  0.1487
  128SOPE   H6S13748   1.385   2.851   5.905  1.7049 -0.3338  2.6387
  128SOPE   C2713749   1.425   2.656   5.955 -0.0113 -0.3509  0.5633
  128SOPE   H7R13750   1.325   2.607   5.951 -0.2245  0.1468 -0.9212
  128SOPE   H7S13751   1.493   2.575   5.922 -3.4325 -2.7503 -1.3025
  128SOPE   C2813752   1.462   2.699   6.101  0.4684  0.6564  0.7033
  128SOPE   H8R13753   1.556   2.758   6.087 -0.5760  2.7220  1.8878
  128SOPE   H8S13754   1.392   2.776   6.138  0.8624  1.3986 -0.0403
  128SOPE   C2913755   1.454   2.571   6.188 -0.3095 -0.0305  0.3253
  128SOPE   H9113756   1.486   2.478   6.138  1.9034 -0.0986  1.7304
  128SOPE  C21013757   1.447   2.566   6.320 -0.2765  0.1286 -0.0121
  128SOPE  H10113758   1.432   2.475   6.379 -0.0019 -0.2661 -0.5396
  128SOPE  C21113759   1.429   2.687   6.407 -0.0238 -0.6431 -0.0394
  128SOPE  H11R13760   1.320   2.697   6.427  0.3534  1.5389  1.2538
  128SOPE  H11S13761   1.455   2.784   6.360 -0.8422 -0.5507 -0.3203
  128SOPE  C21213762   1.500   2.687   6.544 -0.4896  0.6537 -0.1508
  128SOPE  H12R13763   1.497   2.794   6.575 -1.0715  1.3316 -2.3486
  128SOPE  H12S13764   1.608   2.661   6.549 -0.8760 -1.7677 -2.3302
  128SOPE  C21313765   1.426   2.601   6.649 -0.0355 -0.4061  0.3675
  128SOPE  H13R13766   1.426   2.497   6.610 -0.5152 -0.3618  0.2462
  128SOPE  H13S13767   1.320   2.629   6.662 -0.9732 -3.9529  1.2865
  128SOPE  C21413768   1.485   2.632   6.785  0.4573 -0.0109  0.3215
  128SOPE  H14R13769   1.490   2.743   6.786  0.8615 -0.0263  0.0051
  128SOPE  H14S13770   1.591   2.598   6.782  0.3948 -0.6478  2.8777
  128SOPE  C21513771   1.401   2.587   6.911  0.1854 -0.5276  0.2368
  128SOPE  H15R13772   1.298   2.623   6.890  1.0448  0.3617 -3.0782
  128SOPE  H15S13773   1.451   2.627   7.002  0.8586 -0.4849 -0.1440
  128SOPE  C21613774   1.387   2.436   6.918  0.6621 -0.0759 -0.0856
  128SOPE  H16R13775   1.478   2.376   6.895  0.6003  0.1121 -0.8818
  128SOPE  H16S13776   1.317   2.408   6.836  0.3571  1.1032 -0.2570
  128SOPE  C21713777   1.341   2.384   7.056  0.6189  0.2929  0.5412
  128SOPE  H17R13778   1.405   2.433   7.132  0.8427  3.2596 -1.3949
  128SOPE  H17S13779   1.367   2.276   7.056 -1.2117 -0.1995 -0.6179
  128SOPE  C21813780   1.187   2.403   7.089 -0.7677 -0.8033 -0.3627
  128SOPE  H18R13781   1.123   2.348   7.018 -1.1920 -0.6426 -0.1094
  128SOPE  H18S13782   1.164   2.512   7.090  2.6550  0.0547 -1.4557
  128SOPE  H18T13783   1.172   2.364   7.192 -0.5698 -1.2033 -0.4850
  128SOPE   C3313784   1.637   3.168   5.590  0.0580 -0.2016 -0.0695
  128SOPE   H3X13785   1.567   3.141   5.671  1.6156 -3.6224  0.2968
  128SOPE   H3Y13786   1.648   3.278   5.604  0.0528  0.0113 -1.5643
  128SOPE   C3413787   1.777   3.115   5.623 -0.5029 -0.0308 -0.3634
  128SOPE   H4X13788   1.835   3.122   5.529 -0.4369 -1.8926 -0.5107
  128SOPE   H4Y13789   1.759   3.006   5.638 -0.2580 -0.1218 -0.7382
  128SOPE   C3513790   1.846   3.180   5.749  0.4566 -0.5696  0.8053
  128SOPE   H5X13791   1.860   3.283   5.710  0.0573 -1.2161 -1.1345
  128SOPE   H5Y13792   1.952   3.146   5.758  0.4628 -1.2545 -1.3853
  128SOPE   C3613793   1.761   3.179   5.874  0.3004 -0.7401 -0.1248
  128SOPE   H6X13794   1.767   3.082   5.927  1.5899 -1.7268 -1.9591
  128SOPE   H6Y13795   1.656   3.214   5.857  0.7503  0.6156 -0.2380
  128SOPE   C3713796   1.821   3.270   5.985 -0.7651  0.7646  0.4872
  128SOPE   H7X13797   1.820   3.378   5.958 -1.8991  0.5228 -0.5119
  128SOPE   H7Y13798   1.925   3.233   5.990 -0.7986  0.7678  1.4128
  128SOPE   C3813799   1.758   3.244   6.127  0.1534 -0.2366 -0.4052
  128SOPE   H8X13800   1.726   3.138   6.138  0.0814 -0.1050  0.6873
  128SOPE   H8Y13801   1.665   3.305   6.133  1.1631  1.2279  1.0369
  128SOPE   C3913802   1.848   3.281   6.256 -0.3630  0.3457 -0.1814
  128SOPE   H9X13803   1.887   3.385   6.253  2.4274 -0.5614  1.0802
  128SOPE   H9Y13804   1.935   3.217   6.231  0.3560  1.3151 -0.2270
  128SOPE  C31013805   1.783   3.246   6.391 -0.0481 -0.7535 -0.1227
  128SOPE  H10X13806   1.768   3.136   6.389  0.3234 -0.8099  0.0787
  128SOPE  H10Y13807   1.692   3.309   6.398  0.1457 -0.6102  2.0178
  128SOPE  C31113808   1.875   3.273   6.503 -0.7807 -0.1983  0.1314
  128SOPE  H11X13809   1.902   3.380   6.494  0.6575 -0.4150  1.5448
  128SOPE  H11Y13810   1.974   3.223   6.500 -0.7699 -0.1212 -0.9937
  128SOPE  C31213811   1.809   3.237   6.642  0.1853 -0.2430 -0.5504
  128SOPE  H12X13812   1.803   3.126   6.645 -1.2221 -0.3600 -3.8018
  128SOPE  H12Y13813   1.708   3.282   6.651  0.1424 -0.6368  1.4766
  128SOPE  C31313814   1.894   3.277   6.762  0.6749 -0.4354 -0.1196
  128SOPE  H13X13815   1.906   3.387   6.775  1.1486 -0.3679 -1.0592
  128SOPE  H13Y13816   1.995   3.235   6.739  1.6587  2.3298 -1.3511
  128SOPE  C31413817   1.852   3.213   6.896 -0.4829 -0.9616  0.3185
  128SOPE  H14X13818   1.830   3.105   6.880  0.9093 -0.8203 -3.7532
  128SOPE  H14Y13819   1.751   3.254   6.921 -1.2451 -2.3602 -0.3291
  128SOPE  C31513820   1.964   3.238   6.999  0.4128  0.7558  0.7445
  128SOPE  H15X13821   2.053   3.231   6.933  2.2511 -0.4628  3.1937
  128SOPE  H15Y13822   1.965   3.154   7.071  1.3255  0.8457  0.8393
  128SOPE  C31613823   1.953   3.376   7.066  0.5178  0.6195 -0.4063
  128SOPE  H16X13824   1.845   3.388   7.089  0.2051 -0.4934 -1.1921
  128SOPE  H16Y13825   1.974   3.447   6.983 -0.9704  0.1223 -1.2462
  128SOPE  C31713826   2.035   3.400   7.195 -0.2738  0.1388 -0.2424
  128SOPE  H17X13827   2.002   3.319   7.264  2.2142 -1.0736 -0.3475
  128SOPE  H17Y13828   2.007   3.491   7.252 -1.8726 -1.2997  1.3973
  128SOPE  C31813829   2.190   3.402   7.178  0.5943  0.0272  0.0981
  128SOPE  H18X13830   2.237   3.449   7.267 -0.9752  2.0081 -0.0416
  128SOPE  H18Y13831   2.212   3.456   7.084 -1.7345  0.4655 -0.2612
  128SOPE  H18Z13832   2.223   3.298   7.160 -1.0965 -0.8643  1.7727
  129OSM      N13833   2.391   0.719   0.615  0.5995 -0.0623 -0.7230
  129OSM    C1513834   2.269   0.736   0.699 -0.0125 -0.0083 -0.7253
  129OSM   H15A13835   2.291   0.716   0.803  3.0989 -1.5488 -1.5601
  129OSM   H15B13836   2.185   0.673   0.674  1.9067 -2.0998 -2.2921
  129OSM   H15C13837   2.238   0.839   0.691  1.4609  0.4145 -1.3672
  129OSM    C1413838   2.442   0.578   0.636 -0.4094  0.0708 -0.4392
  129OSM   H14A13839   2.498   0.576   0.729 -1.6077 -0.5419  0.2858
  129OSM   H14B13840   2.518   0.557   0.562  2.1055 -0.1251  2.0050
  129OSM   H14C13841   2.362   0.507   0.645 -1.3487  1.0667 -0.8029
  129OSM    C1313842   2.353   0.722   0.470  0.2907 -0.0570 -0.0512
  129OSM   H13A13843   2.299   0.815   0.456  0.3252  0.2025  1.3276
  129OSM   H13B13844   2.288   0.644   0.434  0.8133 -0.8354  0.6458
  129OSM   H13C13845   2.440   0.733   0.407 -0.5414  1.2461 -1.0163
  129OSM    C1213846   2.507   0.817   0.638  0.5445 -0.5410  0.0030
  129OSM   H12A13847   2.581   0.794   0.563  0.4721  2.8964 -1.2871
  129OSM   H12B13848   2.536   0.793   0.739  1.3434 -3.1496 -0.7721
  129OSM    C1113849   2.473   0.976   0.626  0.0032  0.4156  0.3784
  129OSM   H11A13850   2.431   0.988   0.523 -0.3259  0.0504  0.4651
  129OSM   H11B13851   2.568   1.033   0.632 -0.5756  1.3322  1.0017
  129OSM      P13852   2.328   1.167   0.706  0.2896  0.2436 -0.4618
  129OSM    O1313853   2.208   1.186   0.790 -0.1839 -0.5028 -0.4756
  129OSM    O1413854   2.426   1.274   0.712 -0.1940  0.1134 -0.3350
  129OSM    O1113855   2.287   1.154   0.563 -0.0644 -0.0921  0.6520
  129OSM    O1213856   2.392   1.023   0.731 -1.0351  0.3409 -0.0392
  129OSM    C1S13857   2.202   1.261   0.506 -0.2013 -0.4599 -0.4995
  129OSM    H1S13858   2.250   1.360   0.524  2.0393 -1.2691 -1.6727
  129OSM    H1T13859   2.101   1.257   0.551  0.2530 -1.3863  0.4681
  129OSM     NF13860   2.148   1.358   0.284  0.5026  1.0945  0.5399
  129OSM    HNF13861   2.062   1.343   0.234  0.5424 -0.9954  0.9775
  129OSM    C2S13862   2.204   1.243   0.347 -0.0319  0.3635 -0.7027
  129OSM    H2S13863   2.310   1.233   0.314  0.4410  0.1303  0.7796
  129OSM    C3S13864   2.140   1.111   0.306  0.1602  0.3293  0.5868
  129OSM    H3S13865   2.031   1.112   0.329  0.3359 -1.5579  1.6942
  129OSM     O313866   2.200   0.995   0.369 -0.2468  0.4007 -0.1310
  129OSM    HO313867   2.263   1.033   0.430 -0.6348  0.6974  0.0942
  129OSM    C4S13868   2.156   1.096   0.150  0.2738 -0.5701 -0.2229
  129OSM    H4S13869   2.257   1.114   0.111 -0.1426 -1.5549 -1.8527
  129OSM    C5S13870   2.058   1.072   0.065 -0.4621  0.0829  0.2011
  129OSM    H5S13871   1.957   1.063   0.106  0.1071 -2.1243  1.2371
  129OSM    C6S13872   2.076   1.054  -0.083  0.2629  0.5059  0.7553
  129OSM    H6S13873   2.008   1.128  -0.130  1.3736 -0.0640 -1.9184
  129OSM    H6T13874   2.043   0.953  -0.115 -1.6171  0.6274  2.1075
  129OSM    C7S13875   2.218   1.090  -0.132 -0.3804  0.4571 -0.0202
  129OSM    H7S13876   2.290   1.009  -0.109  1.2636  1.1800 -2.2833
  129OSM    H7T13877   2.262   1.178  -0.079  0.5882 -0.3054  0.4632
  129OSM    C8S13878   2.217   1.108  -0.280  0.2849 -0.1692  0.6020
  129OSM    H8S13879   2.153   1.195  -0.307  0.6323  0.3700  1.4565
  129OSM    H8T13880   2.151   1.028  -0.320 -1.5963 -0.4677  3.9116
  129OSM    C9S13881   2.348   1.122  -0.357 -0.0642  0.3998 -0.0540
  129OSM    H9S13882   2.401   1.024  -0.361 -1.4101 -0.3347 -0.3972
  129OSM    H9T13883   2.417   1.184  -0.295  0.8693  0.8350 -1.4922
  129OSM   C10S13884   2.321   1.181  -0.496 -0.6919 -0.2643 -0.3486
  129OSM   H10S13885   2.269   1.279  -0.481  1.6908  0.9976  0.1960
  129OSM   H10T13886   2.252   1.121  -0.558 -1.0948 -0.1660 -0.0096
  129OSM   C11S13887   2.453   1.221  -0.555 -0.1337 -0.0994 -0.1277
  129OSM   H11S13888   2.518   1.134  -0.578  1.2677  0.4074  1.7003
  129OSM   H11T13889   2.494   1.285  -0.474  1.2863 -1.5130  0.3306
  129OSM   C12S13890   2.442   1.316  -0.680 -0.4252  0.6061 -0.3297
  129OSM   H12S13891   2.548   1.346  -0.693  0.2339  1.0086  4.4455
  129OSM   H12T13892   2.378   1.399  -0.643 -1.6463 -1.2664  2.0006
  129OSM   C13S13893   2.383   1.229  -0.790 -0.1197 -0.1452  1.1922
  129OSM   H13S13894   2.273   1.230  -0.778 -0.5438 -0.5063 -1.8141
  129OSM   H13T13895   2.426   1.126  -0.782  0.8043  0.0172 -0.8218
  129OSM   C14S13896   2.421   1.279  -0.930  0.3244  0.0494 -0.0158
  129OSM   H14S13897   2.530   1.266  -0.946  0.2437 -1.9992  0.8883
  129OSM   H14T13898   2.390   1.386  -0.940 -2.7176 -0.7692 -0.4038
  129OSM   C15S13899   2.367   1.201  -1.050 -0.5018 -0.5890  0.2015
  129OSM   H15S13900   2.256   1.209  -1.046 -0.7229 -1.8714 -1.9123
  129OSM   H15T13901   2.411   1.099  -1.052  0.3315 -0.2334  0.3337
  129OSM   C16S13902   2.408   1.264  -1.183 -0.1995 -1.0108  0.3477
  129OSM   H16S13903   2.513   1.246  -1.216  1.2735  0.8033  3.5309
  129OSM   H16T13904   2.391   1.374  -1.190  1.0278 -0.8953 -1.4294
  129OSM   C17S13905   2.319   1.208  -1.292  0.6410 -0.0470  0.4367
  129OSM   H17S13906   2.365   1.255  -1.381  2.6864  2.3769  2.5874
  129OSM   H17T13907   2.216   1.249  -1.280  0.5867 -0.3865  1.2521
  129OSM   C18S13908   2.314   1.056  -1.317  0.2394  0.7661  0.0478
  129OSM   H18S13909   2.247   1.009  -1.242 -0.1144 -2.4277 -2.0822
  129OSM   H18T13910   2.415   1.012  -1.311 -0.0180  0.2567  0.7167
  129OSM   H18U13911   2.274   1.032  -1.418 -1.6239  0.5370  0.7895
  129OSM    C1F13912   2.208   1.478   0.297 -1.0238  0.9332  0.1704
  129OSM     OF13913   2.321   1.485   0.354  0.2536 -0.1604  0.7093
  129OSM    C2F13914   2.126   1.603   0.261  0.7941  0.1303 -0.3508
  129OSM    H2F13915   2.108   1.660   0.354  2.6496 -0.0401  0.1558
  129OSM    H2G13916   2.025   1.567   0.229 -0.6398  1.3332  2.4859
  129OSM    C3F13917   2.207   1.689   0.159  0.2524 -0.4075  0.7460
  129OSM    H3F13918   2.301   1.730   0.202 -1.3301  0.0707  4.0955
  129OSM    H3G13919   2.146   1.778   0.134 -1.7678 -1.9418 -0.0756
  129OSM    C4F13920   2.236   1.614   0.021 -0.5977  0.3373  0.1501
  129OSM    H4F13921   2.283   1.515   0.036  3.1055  1.7419 -1.1012
  129OSM    H4G13922   2.309   1.669  -0.041  0.4237 -0.6611  0.4386
  129OSM    C5F13923   2.101   1.601  -0.050 -0.4172  0.3785  0.1709
  129OSM    H5F13924   2.052   1.699  -0.064  1.7384  1.3893 -0.8304
  129OSM    H5G13925   2.051   1.532   0.021  0.9363 -1.5242 -0.6283
  129OSM    C6F13926   2.106   1.543  -0.192  0.1457 -0.0915  0.8127
  129OSM    H6F13927   2.151   1.441  -0.197 -0.1326 -0.1860  0.0440
  129OSM    H6G13928   2.177   1.608  -0.248  0.8025 -0.7922  0.8130
  129OSM    C7F13929   1.971   1.542  -0.260 -0.4432 -0.8314 -0.5700
  129OSM    H7F13930   1.931   1.645  -0.245 -0.4435 -1.0081  0.7583
  129OSM    H7G13931   1.915   1.469  -0.198 -1.4652  0.3860 -0.0196
  129OSM    C8F13932   1.976   1.506  -0.413 -0.4384 -0.2161 -0.3363
  129OSM    H8F13933   1.874   1.493  -0.454  0.6612 -1.0307 -3.0633
  129OSM    H8G13934   2.023   1.406  -0.421  1.7622  0.5929  1.5861
  129OSM    C9F13935   2.054   1.614  -0.492 -0.5575  0.4980 -0.3542
  129OSM    H9F13936   2.072   1.710  -0.443 -2.7303  0.6796  0.1989
  129OSM   C10F13937   2.079   1.609  -0.620  0.7980  0.2380 -0.2397
  129OSM   H10F13938   2.140   1.692  -0.660  0.6767  0.9347  0.9678
  129OSM   C11F13939   2.060   1.492  -0.715 -0.6154  0.0167 -0.4763
  129OSM   H11F13940   2.045   1.397  -0.660 -0.1516 -0.4131 -1.0834
  129OSM   H11G13941   2.147   1.481  -0.783 -0.9580 -0.9740 -0.7670
  129OSM   C12F13942   1.928   1.513  -0.790  0.6978  0.5504 -1.0022
  129OSM   H12F13943   1.928   1.615  -0.835  0.7241 -0.1295 -2.6295
  129OSM   H12G13944   1.846   1.504  -0.716 -0.0110 -0.7758 -1.8867
  129OSM   C13F13945   1.888   1.400  -0.890 -0.1990  0.4079  0.5489
  129OSM   H13F13946   1.786   1.420  -0.928 -0.7777 -0.2903  1.6531
  129OSM   H13G13947   1.883   1.297  -0.848 -3.5938 -1.3381 -3.4711
  129OSM   C14F13948   1.987   1.385  -1.005 -0.3164 -0.4340 -0.7587
  129OSM   H14F13949   1.947   1.302  -1.068  0.7482 -1.4445 -0.1501
  129OSM   H14G13950   2.076   1.341  -0.954  0.2248  1.6479  0.1711
  129OSM   C15F13951   2.007   1.507  -1.093  0.2201 -0.1736  0.3970
  129OSM   H15F13952   2.041   1.595  -1.034 -3.4106  1.0794  0.8781
  129OSM   H15G13953   1.903   1.533  -1.122  0.4927  2.5435  1.5295
  129OSM   C16F13954   2.093   1.483  -1.213 -0.1323 -0.3750  0.7002
  129OSM   H16F13955   2.036   1.404  -1.266  0.3150  0.7396 -1.5767
  129OSM   H16G13956   2.189   1.438  -1.180  0.3596  0.7502  0.8426
  129OSM   C17F13957   2.113   1.610  -1.296  0.2740 -0.2129 -0.2435
  129OSM   H17F13958   2.113   1.702  -1.234 -2.0693 -0.6659  0.4873
  129OSM   H17G13959   2.029   1.613  -1.369  0.3538  3.8498 -0.4137
  129OSM   C18F13960   2.242   1.609  -1.376 -0.4440 -0.3301  0.5520
  129OSM   H18F13961   2.266   1.700  -1.434 -0.3502 -0.4362  0.4223
  129OSM   H18G13962   2.252   1.525  -1.448  0.2642  0.2449 -0.0339
  129OSM   H18H13963   2.324   1.597  -1.302 -1.7879 -2.8293  1.7838
  130OSM      N13964   3.745   0.889   0.857 -0.2788  0.7349 -0.3401
  130OSM    C1513965   3.872   0.888   0.943 -0.5307  0.4536  0.1088
  130OSM   H15A13966   3.961   0.853   0.893 -0.0055 -1.7424  2.3588
  130OSM   H15B13967   3.866   0.826   1.032 -0.3149  0.2598 -0.0088
  130OSM   H15C13968   3.902   0.983   0.982 -1.6538  1.2831 -0.9662
  130OSM    C1413969   3.732   0.748   0.818 -0.0244  0.2572 -0.0063
  130OSM   H14A13970   3.692   0.682   0.894 -1.7156  1.2147  0.0079
  130OSM   H14B13971   3.825   0.703   0.787  1.7522  2.3585  1.9296
  130OSM   H14C13972   3.673   0.750   0.727 -0.6911 -0.4846  0.3920
  130OSM    C1313973   3.624   0.927   0.943 -0.4918 -0.1859 -0.2971
  130OSM   H13A13974   3.641   0.907   1.047  1.7876  1.7904 -0.1822
  130OSM   H13B13975   3.554   0.851   0.915  0.8652 -1.7142  0.2943
  130OSM   H13C13976   3.590   1.026   0.917  0.6916  0.4933  0.6078
  130OSM    C1213977   3.761   0.984   0.744  0.2404 -0.0766 -0.0035
  130OSM   H12A13978   3.691   0.956   0.667  1.7791 -3.8996 -0.2388
  130OSM   H12B13979   3.857   0.960   0.699 -0.5838 -2.6504 -0.5492
  130OSM    C1113980   3.742   1.142   0.782  1.2441 -0.2977  0.1961
  130OSM   H11A13981   3.775   1.201   0.693 -0.6686  2.1183  0.9905
  130OSM   H11B13982   3.810   1.170   0.865  1.9149 -3.3648  0.7900
  130OSM      P13983   3.494   1.211   0.696 -0.0455  0.3549 -0.2393
  130OSM    O1313984   3.372   1.143   0.748 -0.3622  0.0928 -0.7510
  130OSM    O1413985   3.488   1.358   0.669 -0.4460 -0.3404  0.0767
  130OSM    O1113986   3.553   1.122   0.568  0.7202 -0.6043  0.2866
  130OSM    O1213987   3.606   1.177   0.799 -1.2324  0.3235 -0.4446
  130OSM    C1S13988   3.577   1.178   0.438 -0.1028  0.1342 -0.3555
  130OSM    H1S13989   3.683   1.206   0.420 -0.1959  0.9381  0.2479
  130OSM    H1T13990   3.517   1.272   0.428  0.1374  0.4709  1.1242
  130OSM     NF13991   3.568   1.130   0.193  0.4691 -0.2680  0.1030
  130OSM    HNF13992   3.490   1.172   0.148  1.4817  0.7968 -0.7312
  130OSM    C2S13993   3.540   1.078   0.325  0.0575 -0.1456 -0.7920
  130OSM    H2S13994   3.610   0.992   0.333 -1.8563 -1.7151 -0.0516
  130OSM    C3S13995   3.398   1.023   0.350 -0.0792 -0.4221 -0.2377
  130OSM    H3S13996   3.329   1.109   0.358  0.7245  0.0848  1.9995
  130OSM     O313997   3.385   0.950   0.472  0.3091 -0.0917 -0.3096
  130OSM    HO313998   3.451   0.978   0.536 -0.8846 -0.6650  1.2372
  130OSM    C4S13999   3.347   0.942   0.235  0.5659 -0.8242  0.0415
  130OSM    H4S14000   3.268   0.992   0.176  0.4364 -0.2574  0.6915
  130OSM    C5S14001   3.388   0.822   0.196  0.1334 -0.0942  0.2989
  130OSM    H5S14002   3.456   0.763   0.258 -0.5890 -1.2380  0.0440
  130OSM    C6S14003   3.336   0.739   0.081  0.5280 -0.8846  0.2215
  130OSM    H6S14004   3.243   0.788   0.043  1.2021  1.0404  0.9411
  130OSM    H6T14005   3.306   0.644   0.130  0.2105 -0.4245  0.9261
  130OSM    C7S14006   3.434   0.712  -0.035 -0.3270  0.0877 -0.2829
  130OSM    H7S14007   3.508   0.644   0.011 -0.7135  1.2463  2.2254
  130OSM    H7T14008   3.469   0.814  -0.060  0.7381 -0.4059 -0.8270
  130OSM    C8S14009   3.360   0.638  -0.146 -0.3274  0.3459  0.0809
  130OSM    H8S14010   3.294   0.707  -0.202  0.6359  1.1161 -0.1427
  130OSM    H8T14011   3.304   0.550  -0.106 -1.1091  1.0140  0.4826
  130OSM    C9S14012   3.461   0.581  -0.255  0.0040  0.1892 -0.8103
  130OSM    H9S14013   3.495   0.488  -0.204 -3.1921  0.1046  1.4859
  130OSM    H9T14014   3.542   0.656  -0.273  0.3304  0.0019 -0.1752
  130OSM   C10S14015   3.388   0.546  -0.386  0.1561  0.0603 -0.6102
  130OSM   H10S14016   3.345   0.640  -0.427  0.2990 -0.8237 -2.9430
  130OSM   H10T14017   3.299   0.482  -0.366  0.1991 -0.3018 -1.5321
  130OSM   C11S14018   3.482   0.496  -0.498 -0.3048 -0.3514  0.2917
  130OSM   H11S14019   3.548   0.423  -0.446 -1.9298 -1.8504  0.3551
  130OSM   H11T14020   3.549   0.578  -0.529  0.4152 -1.2590 -0.6546
  130OSM   C12S14021   3.404   0.443  -0.621  0.2122  0.2584 -0.3224
  130OSM   H12S14022   3.342   0.531  -0.650  0.1344 -0.2362 -1.7299
  130OSM   H12T14023   3.334   0.361  -0.594  1.8997 -1.1091  0.0693
  130OSM   C13S14024   3.495   0.389  -0.734  0.0003  0.5216  0.6227
  130OSM   H13S14025   3.543   0.301  -0.687 -0.6222  0.7532  1.7173
  130OSM   H13T14026   3.570   0.469  -0.752  0.0473  0.4301  0.4088
  130OSM   C14S14027   3.411   0.344  -0.857 -0.3482 -0.0987 -0.5829
  130OSM   H14S14028   3.338   0.428  -0.858 -0.0553  0.2956  2.2881
  130OSM   H14T14029   3.347   0.259  -0.824 -2.2576  1.8396  1.0557
  130OSM   C15S14030   3.492   0.315  -0.982  0.6494  0.2702  0.2143
  130OSM   H15S14031   3.455   0.219  -1.023 -0.4714  1.0494 -0.6667
  130OSM   H15T14032   3.598   0.312  -0.951  0.4299  0.6630  1.0527
  130OSM   C16S14033   3.462   0.424  -1.083 -0.5130  0.0465  0.5334
  130OSM   H16S14034   3.458   0.522  -1.032 -0.0184  0.5106 -0.3006
  130OSM   H16T14035   3.363   0.403  -1.128  0.1085 -1.8542 -0.0488
  130OSM   C17S14036   3.565   0.427  -1.199 -0.7837 -0.1136 -0.3785
  130OSM   H17S14037   3.575   0.325  -1.241 -1.7033 -0.9979  1.4739
  130OSM   H17T14038   3.663   0.456  -1.156 -0.7768  0.4255 -0.7428
  130OSM   C18S14039   3.536   0.542  -1.294  0.0662 -0.1179  0.7898
  130OSM   H18S14040   3.457   0.617  -1.271  1.2334  0.9643  1.3751
  130OSM   H18T14041   3.518   0.505  -1.398 -3.9320 -4.0951  2.5340
  130OSM   H18U14042   3.624   0.609  -1.304 -0.1725 -0.1933 -4.2757
  130OSM    C1F14043   3.690   1.161   0.144  0.2938  0.2460  0.2465
  130OSM     OF14044   3.788   1.131   0.215  0.0542 -0.0305  0.3597
  130OSM    C2F14045   3.706   1.240   0.011  0.4303 -0.0913 -0.8287
  130OSM    H2F14046   3.611   1.297   0.004 -0.3879 -1.6201 -4.3720
  130OSM    H2G14047   3.701   1.175  -0.078 -2.5147 -1.8131  0.4528
  130OSM    C3F14048   3.827   1.336  -0.006  0.0209  0.2683 -0.3219
  130OSM    H3F14049   3.919   1.279   0.021  0.2470  1.8761  2.7557
  130OSM    H3G14050   3.822   1.414   0.072 -0.4120 -0.1873  0.1199
  130OSM    C4F14051   3.848   1.409  -0.140 -0.4216  0.3578 -0.4970
  130OSM    H4F14052   3.751   1.461  -0.157  0.4217  1.6395 -1.6368
  130OSM    H4G14053   3.870   1.331  -0.216 -2.1576 -2.8980  2.0631
  130OSM    C5F14054   3.958   1.510  -0.129 -0.0566 -0.8155  0.2442
  130OSM    H5F14055   4.059   1.465  -0.124  0.8583  1.0774 -0.1512
  130OSM    H5G14056   3.944   1.582  -0.045  0.6621  1.2123 -1.2808
  130OSM    C6F14057   3.956   1.611  -0.247  0.0493 -0.2516 -0.5044
  130OSM    H6F14058   4.035   1.689  -0.247  0.2482 -0.4470  0.0786
  130OSM    H6G14059   3.856   1.659  -0.255 -0.2270 -0.6356  0.4355
  130OSM    C7F14060   3.982   1.540  -0.380  0.2133 -0.1664 -0.0885
  130OSM    H7F14061   3.913   1.456  -0.404  2.2772 -2.3525  1.0675
  130OSM    H7G14062   4.079   1.485  -0.377 -0.9438 -2.3115  0.6585
  130OSM    C8F14063   3.988   1.646  -0.486  0.1514  0.1872 -0.7989
  130OSM    H8F14064   4.065   1.719  -0.453 -0.2696  0.0972  0.4241
  130OSM    H8G14065   3.893   1.703  -0.490  0.4285  0.8647  1.1202
  130OSM    C9F14066   4.008   1.600  -0.627 -0.5803  0.2887 -0.1744
  130OSM    H9F14067   3.932   1.529  -0.665  0.3948 -0.1022 -1.4553
  130OSM   C10F14068   4.117   1.634  -0.699  0.2690 -0.3859 -0.1744
  130OSM   H10F14069   4.130   1.600  -0.803 -0.3926 -0.3701 -0.2659
  130OSM   C11F14070   4.238   1.717  -0.650  0.4674 -0.1434  0.5907
  130OSM   H11F14071   4.257   1.701  -0.541  0.2924 -0.1965  0.6136
  130OSM   H11G14072   4.209   1.824  -0.658 -0.2311 -0.4121 -0.7406
  130OSM   C12F14073   4.362   1.688  -0.728 -0.2059  0.7695  0.3303
  130OSM   H12F14074   4.411   1.588  -0.719  0.6522  0.8967 -2.0882
  130OSM   H12G14075   4.432   1.765  -0.688 -1.2836  1.0699  1.7215
  130OSM   C13F14076   4.344   1.713  -0.881  0.8931  0.1442 -0.9207
  130OSM   H13F14077   4.280   1.803  -0.887  1.0214  0.3420  0.3116
  130OSM   H13G14078   4.301   1.622  -0.927 -1.1211 -0.4070  1.8043
  130OSM   C14F14079   4.472   1.745  -0.958  0.3282 -0.3087 -0.3791
  130OSM   H14F14080   4.536   1.654  -0.957  0.5972 -0.1187 -0.2723
  130OSM   H14G14081   4.520   1.819  -0.890 -3.7794  0.5642  1.8615
  130OSM   C15F14082   4.469   1.808  -1.101  0.5637 -0.1290 -0.7480
  130OSM   H15F14083   4.410   1.902  -1.092 -0.3605 -0.8501  1.2719
  130OSM   H15G14084   4.410   1.744  -1.171 -0.1356  0.5666 -0.8140
  130OSM   C16F14085   4.605   1.848  -1.156 -0.9259 -0.3986  0.2998
  130OSM   H16F14086   4.650   1.899  -1.069  1.0863 -0.2977 -0.7420
  130OSM   H16G14087   4.591   1.919  -1.240 -1.3642 -0.2889  0.4619
  130OSM   C17F14088   4.703   1.742  -1.199 -0.2784 -0.3587 -0.2009
  130OSM   H17F14089   4.706   1.665  -1.119 -1.1545  0.3912  0.5805
  130OSM   H17G14090   4.806   1.783  -1.204 -0.0334 -0.9452 -0.1066
  130OSM   C18F14091   4.676   1.679  -1.332  0.8369 -0.3991  0.7761
  130OSM   H18F14092   4.768   1.624  -1.361 -0.7804 -1.9802 -1.7621
  130OSM   H18G14093   4.655   1.763  -1.402 -1.7866 -0.5736  1.2432
  130OSM   H18H14094   4.591   1.607  -1.338  0.7519 -0.2018 -0.7054
  131OSM      N14095   2.313   1.592   0.832  1.3477 -0.7067  0.3089
  131OSM    C1514096   2.308   1.714   0.928 -0.1853  0.8144 -0.2125
  131OSM   H15A14097   2.379   1.786   0.892  1.9737 -0.2840  1.5689
  131OSM   H15B14098   2.323   1.700   1.034 -0.5443  2.9155  0.1477
  131OSM   H15C14099   2.213   1.766   0.925 -0.4867  0.2759 -0.2816
  131OSM    C1414100   2.454   1.559   0.822 -0.7314  0.1407 -0.0160
  131OSM   H14A14101   2.480   1.471   0.764  1.5443  1.0512 -0.4829
  131OSM   H14B14102   2.503   1.552   0.917 -2.7892 -1.5495  1.0140
  131OSM   H14C14103   2.508   1.636   0.769 -1.1915 -0.2925 -1.1697
  131OSM    C1314104   2.237   1.471   0.891  0.0446 -0.2418 -0.2732
  131OSM   H13A14105   2.259   1.386   0.828  1.0852  0.0532 -0.3334
  131OSM   H13B14106   2.136   1.497   0.919  0.6234  2.1713 -0.1630
  131OSM   H13C14107   2.289   1.446   0.981  1.9968  0.1081 -1.2510
  131OSM    C1214108   2.261   1.625   0.691  0.1479  1.0963 -0.9003
  131OSM   H12A14109   2.154   1.642   0.695  0.0424  0.3962 -0.3542
  131OSM   H12B14110   2.281   1.539   0.629  0.9813  1.8813 -1.7373
  131OSM    C1114111   2.318   1.750   0.617 -0.2311 -0.4420 -0.4065
  131OSM   H11A14112   2.296   1.743   0.509 -0.6367 -0.0246 -0.3506
  131OSM   H11B14113   2.427   1.726   0.620 -0.4395 -1.5532 -0.9695
  131OSM      P14114   2.139   1.929   0.679  0.1034 -0.1365  0.1339
  131OSM    O1314115   2.063   1.839   0.589 -0.2904 -0.2392 -0.7442
  131OSM    O1414116   2.096   1.938   0.819 -0.3915 -0.6577 -0.0376
  131OSM    O1114117   2.139   2.072   0.616  0.5915  0.2211  0.4161
  131OSM    O1214118   2.294   1.881   0.675  0.2100  0.7467 -0.7720
  131OSM    C1S14119   2.228   2.103   0.508  0.6492 -0.9851 -0.2126
  131OSM    H1S14120   2.331   2.070   0.530  0.8770  1.2883  2.7757
  131OSM    H1T14121   2.235   2.213   0.498 -2.0534 -0.8278 -1.2409
  131OSM     NF14122   2.276   2.090   0.270 -0.8348  0.0283  0.0214
  131OSM    HNF14123   2.249   2.164   0.209  0.2347  2.6365  2.4815
  131OSM    C2S14124   2.175   2.064   0.368  0.0920  0.1363  0.0747
  131OSM    H2S14125   2.164   1.954   0.358  1.8872  0.0488 -1.4245
  131OSM    C3S14126   2.033   2.119   0.326  0.5144 -0.1270 -0.0465
  131OSM    H3S14127   2.046   2.229   0.316 -0.4513  0.0723  0.7445
  131OSM     O314128   1.934   2.111   0.434 -0.0360 -0.6851  1.1754
  131OSM    HO314129   1.979   2.092   0.516  0.2554  2.3975  1.8492
  131OSM    C4S14130   1.981   2.064   0.195  0.4683  0.0152  0.0261
  131OSM    H4S14131   2.023   2.101   0.101 -1.0117 -2.8473 -1.9154
  131OSM    C5S14132   1.896   1.958   0.182  0.5165  0.3075  0.1597
  131OSM    H5S14133   1.842   1.920   0.270  0.8513  1.7260  1.0041
  131OSM    C6S14134   1.849   1.915   0.049  0.3794 -0.5234  0.1813
  131OSM    H6S14135   1.752   1.969   0.049  0.4313 -0.3884  1.4887
  131OSM    H6T14136   1.835   1.806   0.034  0.7318 -0.5506  0.0515
  131OSM    C7S14137   1.924   1.969  -0.072  0.1472  0.0775  0.4692
  131OSM    H7S14138   2.022   1.916  -0.071  0.3173  0.2069  3.9829
  131OSM    H7T14139   1.930   2.080  -0.078 -1.1404  0.1459  0.1061
  131OSM    C8S14140   1.850   1.931  -0.205 -0.5991 -0.5476  0.1990
  131OSM    H8S14141   1.748   1.975  -0.211  0.2588  1.6170  0.4560
  131OSM    H8T14142   1.832   1.822  -0.213 -1.3990 -0.4839  0.9601
  131OSM    C9S14143   1.926   1.986  -0.323 -1.0943  0.0722  0.1069
  131OSM    H9S14144   2.024   1.933  -0.329 -0.2154  1.5828  0.4950
  131OSM    H9T14145   1.953   2.092  -0.304 -1.8772  0.4646 -0.8966
  131OSM   C10S14146   1.858   1.940  -0.449 -0.3725  0.4248 -0.1359
  131OSM   H10S14147   1.759   1.988  -0.440 -0.6505 -0.0535 -0.5445
  131OSM   H10T14148   1.861   1.829  -0.452 -0.0746  0.4308 -0.1174
  131OSM   C11S14149   1.923   2.002  -0.576 -0.9730  0.2811  0.3715
  131OSM   H11S14150   2.030   1.975  -0.572 -1.1179 -0.6937 -1.1754
  131OSM   H11T14151   1.924   2.113  -0.577  3.0631  0.4093 -1.6004
  131OSM   C12S14152   1.872   1.950  -0.711 -0.3390  0.2298  0.7775
  131OSM   H12S14153   1.766   1.983  -0.715 -0.0985  0.9488  0.0172
  131OSM   H12T14154   1.877   1.839  -0.710  0.2743  0.2497  1.6872
  131OSM   C13S14155   1.950   2.008  -0.838 -0.2197 -0.1325  0.0312
  131OSM   H13S14156   2.059   2.007  -0.818 -0.3636  1.6619  1.1332
  131OSM   H13T14157   1.924   2.116  -0.844  0.8268  0.0539 -3.8871
  131OSM   C14S14158   1.912   1.936  -0.967  0.4186 -0.2307 -0.1574
  131OSM   H14S14159   1.805   1.954  -0.991  0.2116 -1.6703 -0.3582
  131OSM   H14T14160   1.920   1.826  -0.970  0.8200 -0.1927 -0.8209
  131OSM   C15S14161   1.994   1.986  -1.087  0.5986 -0.1811 -0.2650
  131OSM   H15S14162   2.079   1.918  -1.108  0.0017 -0.6319 -1.3143
  131OSM   H15T14163   2.030   2.084  -1.048  2.1647 -0.9442  0.2899
  131OSM   C16S14164   1.907   1.998  -1.210  0.3337  0.3411 -0.0536
  131OSM   H16S14165   1.968   2.035  -1.295  0.6274 -1.4848 -0.6912
  131OSM   H16T14166   1.819   2.063  -1.192  0.5692  0.1206  2.1689
  131OSM   C17S14167   1.845   1.860  -1.253 -0.0381  0.1587 -0.3530
  131OSM   H17S14168   1.797   1.811  -1.165  1.0944  1.8018  1.2714
  131OSM   H17T14169   1.939   1.805  -1.273 -1.5621 -3.2436  1.1222
  131OSM   C18S14170   1.756   1.869  -1.374 -0.1740  0.3358  0.2313
  131OSM   H18S14171   1.739   1.769  -1.420  2.7896  0.0830 -0.5090
  131OSM   H18T14172   1.812   1.935  -1.444  2.6315 -0.6715  1.3715
  131OSM   H18U14173   1.657   1.910  -1.347 -0.2640 -0.9934  2.1606
  131OSM    C1F14174   2.387   2.014   0.262 -0.5291  0.0569  0.0483
  131OSM     OF14175   2.418   1.930   0.349 -0.0477 -0.3285  0.1339
  131OSM    C2F14176   2.463   2.031   0.136 -0.3366  0.0426  0.0262
  131OSM    H2F14177   2.572   2.035   0.157 -0.3030 -0.3346 -0.0755
  131OSM    H2G14178   2.435   2.124   0.083  0.2762  0.5360  0.5532
  131OSM    C3F14179   2.442   1.921   0.031 -0.4259 -1.1381  1.0978
  131OSM    H3F14180   2.335   1.924   0.001 -0.8317  1.2836  2.5018
  131OSM    H3G14181   2.475   1.828   0.083  2.3420 -1.4365 -1.0166
  131OSM    C4F14182   2.520   1.936  -0.110  0.0368 -0.1804 -1.0602
  131OSM    H4F14183   2.628   1.928  -0.081 -0.3362 -0.0966  0.4510
  131OSM    H4G14184   2.489   2.036  -0.144  0.0827  0.0559 -0.4235
  131OSM    C5F14185   2.479   1.824  -0.200 -0.5442  0.1779 -0.0273
  131OSM    H5F14186   2.368   1.817  -0.195 -0.9183  3.3133 -1.5372
  131OSM    H5G14187   2.530   1.732  -0.164  0.1466  0.2662 -0.7560
  131OSM    C6F14188   2.523   1.842  -0.347 -0.7560  0.7596 -0.2703
  131OSM    H6F14189   2.625   1.802  -0.364 -1.1509 -0.5966  0.3923
  131OSM    H6G14190   2.520   1.952  -0.364 -0.1626  1.3925  3.1096
  131OSM    C7F14191   2.431   1.760  -0.431  0.2896 -0.5887 -0.1243
  131OSM    H7F14192   2.330   1.806  -0.428 -0.2677 -1.5920 -2.0715
  131OSM    H7G14193   2.426   1.655  -0.393  1.2449 -0.2502  1.0046
  131OSM    C8F14194   2.467   1.761  -0.579 -0.7991  0.0689 -0.1315
  131OSM    H8F14195   2.448   1.661  -0.622  0.4236  0.7562 -2.4263
  131OSM    H8G14196   2.574   1.788  -0.594 -0.2416 -2.2023 -0.5148
  131OSM    C9F14197   2.401   1.863  -0.676 -0.1375 -0.1413 -0.1431
  131OSM    H9F14198   2.404   1.965  -0.637  0.6839  1.4807 -3.9973
  131OSM   C10F14199   2.335   1.849  -0.791  0.0083 -0.1350  0.4536
  131OSM   H10F14200   2.278   1.934  -0.832 -1.2717 -0.9261  0.5104
  131OSM   C11F14201   2.299   1.724  -0.857 -0.0020 -0.7558 -0.2192
  131OSM   H11F14202   2.190   1.717  -0.874 -0.4763  0.7247  1.8536
  131OSM   H11G14203   2.335   1.635  -0.800  2.9594  0.0156 -0.7426
  131OSM   C12F14204   2.356   1.713  -0.993  0.5777 -0.2129 -0.3430
  131OSM   H12F14205   2.307   1.795  -1.049 -1.7263 -1.2577  0.0395
  131OSM   H12G14206   2.335   1.616  -1.041 -1.3750 -0.2488  0.4999
  131OSM   C13F14207   2.507   1.722  -0.992 -0.2994 -0.5027 -0.2984
  131OSM   H13F14208   2.547   1.654  -0.914  0.9149 -0.0047 -0.4616
  131OSM   H13G14209   2.545   1.824  -0.972 -1.3568 -0.2497  0.4862
  131OSM   C14F14210   2.567   1.680  -1.130 -0.1772 -0.6606 -0.0749
  131OSM   H14F14211   2.526   1.585  -1.171  0.1793 -0.8215 -0.0667
  131OSM   H14G14212   2.677   1.667  -1.122 -0.2365 -0.9407  0.3080
  131OSM   C15F14213   2.559   1.785  -1.243 -0.0717  0.4747  0.5203
  131OSM   H15F14214   2.607   1.881  -1.215  0.8217  0.4679 -0.9007
  131OSM   H15G14215   2.452   1.798  -1.268 -0.2432 -0.5748  0.6507
  131OSM   C16F14216   2.637   1.746  -1.376 -0.2729  0.4586  0.1133
  131OSM   H16F14217   2.588   1.660  -1.425  0.1375  0.5614 -0.4835
  131OSM   H16G14218   2.740   1.716  -1.350 -0.5594  1.0562  2.1348
  131OSM   C17F14219   2.635   1.877  -1.462 -0.4736  0.0863  0.5122
  131OSM   H17F14220   2.617   1.970  -1.405  0.0602 -1.6227  3.7326
  131OSM   H17G14221   2.557   1.870  -1.540 -0.0561 -0.2876  0.1198
  131OSM   C18F14222   2.778   1.899  -1.523 -0.1647 -0.5070 -0.8705
  131OSM   H18F14223   2.776   2.002  -1.566 -1.4461 -0.3629 -0.5046
  131OSM   H18G14224   2.814   1.819  -1.591  3.5164 -1.1703  1.5947
  131OSM   H18H14225   2.851   1.912  -1.440 -2.5235  2.1092  1.0299
  132OSM      N14226   2.919   6.619   0.939  0.4670  0.7942  0.3271
  132OSM    C1514227   2.894   6.729   0.848 -0.4952  0.3084  0.2337
  132OSM   H15A14228   2.920   6.825   0.889  0.5353 -0.5569  1.6912
  132OSM   H15B14229   2.790   6.734   0.817 -1.7071  0.5563  3.8011
  132OSM   H15C14230   2.947   6.705   0.757 -1.2416 -1.3976  0.2016
  132OSM    C1414231   3.066   6.590   0.954  0.4556 -0.6817 -0.0883
  132OSM   H14A14232   3.112   6.676   0.999 -3.4659  0.8249  1.4602
  132OSM   H14B14233   3.112   6.578   0.857 -1.5374 -0.2442 -1.1319
  132OSM   H14C14234   3.082   6.498   1.009 -0.5689 -2.0224 -1.9134
  132OSM    C1314235   2.869   6.658   1.072 -0.2653  0.1385 -0.0645
  132OSM   H13A14236   2.929   6.736   1.116  1.0407 -0.4362 -0.7679
  132OSM   H13B14237   2.868   6.572   1.137  0.0565  0.0222 -0.2095
  132OSM   H13C14238   2.772   6.703   1.059  0.8950  2.4962 -1.1476
  132OSM    C1214239   2.847   6.490   0.887  0.1304 -0.5028 -0.3627
  132OSM   H12A14240   2.862   6.407   0.954 -0.9721 -2.4523 -2.3602
  132OSM   H12B14241   2.895   6.456   0.796 -0.8223 -1.1153 -0.6576
  132OSM    C1114242   2.699   6.489   0.845 -0.7952 -0.2544 -0.0569
  132OSM   H11A14243   2.638   6.512   0.935  0.1035 -0.3912  0.5950
  132OSM   H11B14244   2.668   6.386   0.820  2.1438 -0.9913 -1.0053
  132OSM      P14245   2.693   6.567   0.595 -0.2053 -0.4602 -0.0103
  132OSM    O1314246   2.603   6.471   0.534 -0.3463  0.0705 -0.1441
  132OSM    O1414247   2.694   6.702   0.536  0.1432 -0.2491 -0.2278
  132OSM    O1114248   2.842   6.513   0.605 -0.6339  0.3908  0.2118
  132OSM    O1214249   2.670   6.592   0.754  0.3256 -0.3064 -0.6233
  132OSM    C1S14250   2.905   6.436   0.509 -0.1696  0.1737  0.3561
  132OSM    H1S14251   2.824   6.369   0.471 -1.8149  1.6044  1.1735
  132OSM    H1T14252   2.986   6.368   0.544 -0.4423  0.0598  0.7792
  132OSM     NF14253   3.020   6.415   0.290  0.2143 -1.0327 -0.2456
  132OSM    HNF14254   3.118   6.399   0.301  0.0440 -1.6247  0.4211
  132OSM    C2S14255   2.968   6.512   0.391 -0.1207 -0.3676 -0.9429
  132OSM    H2S14256   2.888   6.569   0.340 -1.7527 -0.2634  1.5995
  132OSM    C3S14257   3.086   6.599   0.453  0.4086 -0.4381  0.5283
  132OSM    H3S14258   3.176   6.535   0.469  0.5953 -0.4440 -0.4847
  132OSM     O314259   3.074   6.649   0.587 -0.3788 -0.2723  0.6617
  132OSM    HO314260   3.000   6.604   0.630 -0.6805 -0.4101  0.0204
  132OSM    C4S14261   3.136   6.708   0.352  0.0234 -0.5722  0.0609
  132OSM    H4S14262   3.208   6.672   0.277 -2.4009  0.6995 -3.1210
  132OSM    C5S14263   3.090   6.840   0.356 -0.2797 -0.4924 -0.4317
  132OSM    H5S14264   3.022   6.865   0.437 -0.0694 -2.1230  0.2974
  132OSM    C6S14265   3.121   6.948   0.257 -0.4942 -0.6106 -1.1779
  132OSM    H6S14266   3.157   7.027   0.326 -2.2206 -0.7722 -0.0421
  132OSM    H6T14267   3.024   6.972   0.208 -1.2597 -0.2465  0.4680
  132OSM    C7S14268   3.218   6.908   0.146 -0.1295 -0.0940 -0.1084
  132OSM    H7S14269   3.179   6.815   0.098 -0.5948 -0.2497  0.5671
  132OSM    H7T14270   3.316   6.884   0.192 -1.0715 -0.5494  1.7648
  132OSM    C8S14271   3.244   7.017   0.042  0.1863 -0.2161  0.0746
  132OSM    H8S14272   3.270   7.114   0.089 -0.6111  0.4400 -0.7895
  132OSM    H8T14273   3.151   7.021  -0.019  1.3003 -1.1694 -1.7991
  132OSM    C9S14274   3.365   6.981  -0.050 -0.3316 -0.4977  0.0073
  132OSM    H9S14275   3.450   6.938   0.007  0.3310 -0.5759 -1.0123
  132OSM    H9T14276   3.409   7.073  -0.094  1.6559 -0.1505  2.4870
  132OSM   C10S14277   3.313   6.882  -0.158 -0.3667 -0.3150  0.9018
  132OSM   H10S14278   3.251   6.942  -0.228  0.0437 -0.8210  0.0875
  132OSM   H10T14279   3.252   6.804  -0.107 -2.1906  1.1416  1.0406
  132OSM   C11S14280   3.426   6.813  -0.241  0.0252 -0.0499 -0.7505
  132OSM   H11S14281   3.503   6.891  -0.258  1.5311 -1.5216 -0.8613
  132OSM   H11T14282   3.383   6.789  -0.340 -1.1945 -1.6119  0.1034
  132OSM   C12S14283   3.490   6.692  -0.171  0.1213  0.6151 -0.2189
  132OSM   H12S14284   3.532   6.726  -0.074 -1.4348  0.4669  0.5379
  132OSM   H12T14285   3.578   6.660  -0.230  0.0109 -0.7147  0.3169
  132OSM   C13S14286   3.388   6.574  -0.157 -0.3169  0.0729  0.2611
  132OSM   H13S14287   3.320   6.569  -0.245 -0.2544  2.1842  0.0445
  132OSM   H13T14288   3.328   6.592  -0.066 -1.0670 -2.0351  0.2385
  132OSM   C14S14289   3.452   6.435  -0.142 -0.6120  0.7969  0.1305
  132OSM   H14S14290   3.367   6.366  -0.123 -1.2756  1.3449 -0.7501
  132OSM   H14T14291   3.506   6.434  -0.045  1.1298 -0.4425 -0.7907
  132OSM   C15S14292   3.553   6.396  -0.249  0.5278  0.2918 -0.6268
  132OSM   H15S14293   3.638   6.467  -0.253  1.6920 -1.0990 -2.3417
  132OSM   H15T14294   3.498   6.412  -0.345 -1.8494 -0.6527  0.4933
  132OSM   C16S14295   3.592   6.247  -0.235 -0.0483 -0.6203  0.4363
  132OSM   H16S14296   3.511   6.192  -0.288  0.7210 -0.3216 -1.0950
  132OSM   H16T14297   3.597   6.211  -0.130 -2.0948 -2.1719  0.0881
  132OSM   C17S14298   3.723   6.227  -0.314  0.1421 -0.6658 -0.0948
  132OSM   H17S14299   3.794   6.312  -0.300 -0.3277  0.0105 -1.6297
  132OSM   H17T14300   3.696   6.238  -0.421 -0.2200 -0.8713 -0.0233
  132OSM   C18S14301   3.790   6.100  -0.288  0.4842  0.7787  0.5606
  132OSM   H18S14302   3.887   6.078  -0.335 -0.2707  0.4711 -0.9011
  132OSM   H18T14303   3.713   6.022  -0.303 -0.2773  1.6045  0.0434
  132OSM   H18U14304   3.812   6.085  -0.180 -0.8456 -1.3208  0.6031
  132OSM    C1F14305   2.948   6.334   0.222  1.2286 -0.1431  0.2687
  132OSM     OF14306   2.827   6.342   0.215 -0.1244  0.3747  0.2443
  132OSM    C2F14307   3.014   6.208   0.169  0.2518  0.3689 -0.3832
  132OSM    H2F14308   2.953   6.127   0.213 -0.6385  0.7944 -0.8181
  132OSM    H2G14309   3.124   6.202   0.187  0.5345  2.4964 -1.1329
  132OSM    C3F14310   3.001   6.184   0.022 -0.1915  0.5337  0.3816
  132OSM    H3F14311   3.046   6.273  -0.027  2.3187 -0.2318  1.1627
  132OSM    H3G14312   2.893   6.169  -0.003 -0.1580 -0.6423  0.8716
  132OSM    C4F14313   3.083   6.066  -0.029  0.1836 -0.2266 -0.3555
  132OSM    H4F14314   3.054   5.980   0.035 -1.6338 -0.3343 -1.2710
  132OSM    H4G14315   3.190   6.084  -0.004 -0.1956 -0.6691  1.8148
  132OSM    C5F14316   3.066   6.024  -0.175 -0.4180 -0.5636  0.2674
  132OSM    H5F14317   2.957   6.019  -0.195 -0.1845  1.1600 -1.8069
  132OSM    H5G14318   3.112   5.924  -0.191 -2.0945 -1.1218 -1.5326
  132OSM    C6F14319   3.118   6.136  -0.268  0.6548  0.2623  0.0981
  132OSM    H6F14320   3.216   6.178  -0.238  1.2976 -0.4281 -0.9944
  132OSM    H6G14321   3.041   6.217  -0.260 -1.4711 -1.6873  0.5177
  132OSM    C7F14322   3.129   6.095  -0.411 -0.6332  0.2496  0.2174
  132OSM    H7F14323   3.047   6.031  -0.450  0.0133  1.2374 -3.0607
  132OSM    H7G14324   3.222   6.037  -0.428 -0.5623  0.4794 -0.1814
  132OSM    C8F14325   3.134   6.217  -0.513 -0.1474  0.1597 -0.2685
  132OSM    H8F14326   3.040   6.276  -0.511 -0.5030 -0.3525 -1.1553
  132OSM    H8G14327   3.147   6.169  -0.613  0.8641  0.0532 -0.0969
  132OSM    C9F14328   3.254   6.311  -0.503  0.8018  0.1796 -0.9777
  132OSM    H9F14329   3.266   6.366  -0.409 -1.9761  2.4781 -1.8019
  132OSM   C10F14330   3.347   6.337  -0.592 -1.2652 -1.0685  0.4916
  132OSM   H10F14331   3.417   6.421  -0.579 -0.2644 -1.7878 -0.1564
  132OSM   C11F14332   3.362   6.261  -0.727 -0.2765 -0.0133 -0.6832
  132OSM   H11F14333   3.349   6.152  -0.709  1.1396 -0.5773 -2.7437
  132OSM   H11G14334   3.459   6.277  -0.780 -0.4747  3.3374 -0.2758
  132OSM   C12F14335   3.249   6.291  -0.823  0.1663 -0.7121  0.1624
  132OSM   H12F14336   3.262   6.388  -0.875 -1.1684 -0.7940 -0.3575
  132OSM   H12G14337   3.150   6.301  -0.774  0.3849  0.2191  0.4384
  132OSM   C13F14338   3.252   6.205  -0.946 -0.3405  0.4507  0.1563
  132OSM   H13F14339   3.176   6.220  -1.025 -0.9156  0.1830  0.6463
  132OSM   H13G14340   3.233   6.101  -0.910  1.7465  0.4728  1.5085
  132OSM   C14F14341   3.386   6.196  -1.018 -0.3709  0.6611  0.3468
  132OSM   H14F14342   3.459   6.128  -0.969 -0.6330 -1.3264 -1.8012
  132OSM   H14G14343   3.431   6.297  -1.016  1.3959  0.0867 -2.8340
  132OSM   C15F14344   3.392   6.143  -1.161 -0.2659  0.5001  0.4137
  132OSM   H15F14345   3.294   6.164  -1.210 -0.9045 -1.0964  0.9522
  132OSM   H15G14346   3.410   6.034  -1.168  1.4900  0.8044 -0.2527
  132OSM   C16F14347   3.512   6.205  -1.235 -0.0670 -0.3580 -0.0911
  132OSM   H16F14348   3.598   6.152  -1.187 -0.7463 -0.3074  1.2144
  132OSM   H16G14349   3.506   6.310  -1.199  1.0788 -1.0912  2.4103
  132OSM   C17F14350   3.491   6.199  -1.382 -0.3501 -0.0279 -0.1652
  132OSM   H17F14351   3.396   6.248  -1.410  0.1494  0.5094 -0.9603
  132OSM   H17G14352   3.476   6.090  -1.395 -3.7991  0.1960  0.9728
  132OSM   C18F14353   3.614   6.251  -1.458  0.2027 -0.0360  0.4063
  132OSM   H18F14354   3.694   6.239  -1.383 -1.6926  0.8765  2.6877
  132OSM   H18G14355   3.605   6.361  -1.476 -1.2269 -0.2779 -0.5398
  132OSM   H18H14356   3.632   6.191  -1.550 -0.2626 -1.7416  1.3809
  133OSM      N14357   1.730   0.303   0.706  0.0926 -0.3109 -0.1707
  133OSM    C1514358   1.834   0.201   0.683  0.7601  0.7671  0.2519
  133OSM   H15A14359   1.822   0.113   0.745  0.7802  2.0383  2.1405
  133OSM   H15B14360   1.935   0.232   0.708  1.2619  0.5800 -1.4422
  133OSM   H15C14361   1.836   0.178   0.578  0.0052  0.7472  0.2395
  133OSM    C1414362   1.737   0.368   0.842 -0.9383 -0.0226  0.8520
  133OSM   H14A14363   1.738   0.290   0.917  0.0397  0.2473  1.1301
  133OSM   H14B14364   1.646   0.426   0.852  0.0956  1.3511  2.8598
  133OSM   H14C14365   1.821   0.433   0.860 -0.5501  0.0769 -1.0726
  133OSM    C1314366   1.733   0.411   0.602  0.0918 -0.3442 -0.5505
  133OSM   H13A14367   1.708   0.384   0.501 -0.6134  0.4929 -0.6159
  133OSM   H13B14368   1.820   0.474   0.602 -0.5001  0.5257 -1.9022
  133OSM   H13C14369   1.652   0.478   0.629  0.6615  0.6451 -1.2580
  133OSM    C1214370   1.591   0.240   0.698 -0.6696 -0.2663  0.6591
  133OSM   H12A14371   1.514   0.315   0.705 -0.5954 -0.0319 -0.8366
  133OSM   H12B14372   1.579   0.167   0.777  2.9073 -0.6706  1.0153
  133OSM    C1114373   1.554   0.181   0.570 -0.2657  0.5914  0.2093
  133OSM   H11A14374   1.629   0.105   0.541 -1.0783 -0.5681  1.0739
  133OSM   H11B14375   1.559   0.261   0.493  1.4795  2.5588  2.2010
  133OSM      P14376   1.371   0.026   0.461 -0.5392  0.2754 -0.1073
  133OSM    O1314377   1.342  -0.103   0.528 -0.2961 -0.2193 -0.0440
  133OSM    O1414378   1.267   0.087   0.373  1.0048  1.0761  0.1303
  133OSM    O1114379   1.499   0.004   0.368  0.0836  0.4957 -0.0323
  133OSM    O1214380   1.424   0.126   0.573 -0.1208 -0.5351 -0.1510
  133OSM    C1S14381   1.481  -0.095   0.266 -0.8894  0.0306  0.6130
  133OSM    H1S14382   1.395  -0.164   0.280 -0.7925 -0.4721 -1.0824
  133OSM    H1T14383   1.573  -0.156   0.271 -0.2252  0.9945  0.5789
  133OSM     NF14384   1.478  -0.138   0.026  0.0612  0.3725  0.4831
  133OSM    HNF14385   1.556  -0.148  -0.036  1.1220 -3.8599  2.1304
  133OSM    C2S14386   1.480  -0.029   0.123 -0.6458 -0.2677  0.1132
  133OSM    H2S14387   1.379   0.015   0.113  0.3265  2.2908  0.6465
  133OSM    C3S14388   1.590   0.076   0.098 -0.3793 -0.3126 -0.1604
  133OSM    H3S14389   1.691   0.034   0.117 -1.1324 -1.9051  0.5991
  133OSM     O314390   1.583   0.186   0.197 -0.4900  0.0446 -0.1999
  133OSM    HO314391   1.550   0.143   0.276 -0.8900 -0.0894 -0.4355
  133OSM    C4S14392   1.583   0.135  -0.041  0.3351 -0.1095  0.2592
  133OSM    H4S14393   1.649   0.093  -0.119 -0.7144  0.1070 -0.7695
  133OSM    C5S14394   1.512   0.250  -0.079 -0.0525  1.0833  0.4595
  133OSM    H5S14395   1.448   0.305  -0.008 -1.3262  2.2737 -1.5195
  133OSM    C6S14396   1.520   0.324  -0.213 -0.4584  0.3555 -0.9057
  133OSM    H6S14397   1.551   0.428  -0.187 -0.1505  0.0656 -0.0720
  133OSM    H6T14398   1.419   0.329  -0.260 -1.8818  0.7492  1.9255
  133OSM    C7S14399   1.620   0.282  -0.320 -0.2101  0.1654  0.6760
  133OSM    H7S14400   1.589   0.180  -0.352 -1.3524  0.1088  1.8715
  133OSM    H7T14401   1.723   0.275  -0.279  0.6044 -0.1892 -1.3504
  133OSM    C8S14402   1.624   0.367  -0.447 -0.2034 -0.4968 -0.6085
  133OSM    H8S14403   1.652   0.472  -0.423  2.6050 -1.3493  0.1750
  133OSM    H8T14404   1.528   0.375  -0.503 -0.8369  0.6507  0.5698
  133OSM    C9S14405   1.736   0.317  -0.533  0.5092 -0.9214 -0.6653
  133OSM    H9S14406   1.703   0.211  -0.540 -3.5644  0.1811 -0.7514
  133OSM    H9T14407   1.832   0.329  -0.479  0.9471 -2.1477 -1.1367
  133OSM   C10S14408   1.748   0.374  -0.675  0.1507 -0.2022  0.1089
  133OSM   H10S14409   1.808   0.467  -0.680  1.0612 -0.7290  0.9272
  133OSM   H10T14410   1.644   0.391  -0.708  0.4202 -0.5549 -0.9719
  133OSM   C11S14411   1.801   0.266  -0.777  0.2996  0.1414 -0.1577
  133OSM   H11S14412   1.752   0.170  -0.749 -0.8134  0.7227 -0.0470
  133OSM   H11T14413   1.910   0.255  -0.761  0.3791  1.4369  0.3091
  133OSM   C12S14414   1.768   0.296  -0.925 -0.1293 -0.3720 -0.6616
  133OSM   H12S14415   1.824   0.389  -0.950 -1.4966  0.9968  1.0999
  133OSM   H12T14416   1.662   0.329  -0.938  0.2207  0.9481 -0.3498
  133OSM   C13S14417   1.786   0.183  -1.025  0.4372 -0.8450  0.1063
  133OSM   H13S14418   1.717   0.098  -1.006  2.0375 -2.9123 -2.5874
  133OSM   H13T14419   1.892   0.152  -1.034 -0.3474 -4.1968  0.9182
  133OSM   C14S14420   1.745   0.231  -1.169 -0.5411  0.2182 -0.4042
  133OSM   H14S14421   1.657   0.299  -1.169 -0.7541 -0.0183  1.1224
  133OSM   H14T14422   1.726   0.141  -1.231  0.5493  0.3478 -0.9452
  133OSM   C15S14423   1.851   0.310  -1.251 -0.2304  0.1350  0.3220
  133OSM   H15S14424   1.949   0.258  -1.251  0.5151  1.4063  2.8896
  133OSM   H15T14425   1.878   0.404  -1.198 -0.8355 -0.6959  2.1618
  133OSM   C16S14426   1.806   0.341  -1.394 -0.5851  0.2814 -0.3702
  133OSM   H16S14427   1.888   0.369  -1.463 -2.0286  0.2206 -2.2127
  133OSM   H16T14428   1.736   0.427  -1.390 -0.2347  0.7780 -2.8539
  133OSM   C17S14429   1.725   0.230  -1.469 -0.7630 -0.3381 -0.0550
  133OSM   H17S14430   1.625   0.223  -1.423 -1.7341  2.6937 -1.4709
  133OSM   H17T14431   1.783   0.139  -1.443 -0.2610  0.7840  3.1982
  133OSM   C18S14432   1.713   0.241  -1.623  0.8761  0.7001  0.4824
  133OSM   H18S14433   1.815   0.249  -1.667 -0.7172  1.1484 -3.5545
  133OSM   H18T14434   1.650   0.328  -1.650  0.5646  0.7684  1.4198
  133OSM   H18U14435   1.656   0.154  -1.661 -0.8305  2.1993 -0.5146
  133OSM    C1F14436   1.370  -0.211   0.004 -0.9500  0.4732  0.3047
  133OSM     OF14437   1.265  -0.188   0.057 -0.5407  0.1674 -0.0101
  133OSM    C2F14438   1.393  -0.335  -0.080  0.0784 -0.6141  0.9110
  133OSM    H2F14439   1.390  -0.426  -0.016  0.2453  0.1137  1.9706
  133OSM    H2G14440   1.496  -0.332  -0.121 -0.2639 -1.0502 -0.0063
  133OSM    C3F14441   1.293  -0.350  -0.197  0.1031 -0.0890  0.3147
  133OSM    H3F14442   1.317  -0.263  -0.262  0.2046 -0.2815  0.0924
  133OSM    H3G14443   1.190  -0.326  -0.161 -0.1731  1.4954 -1.3916
  133OSM    C4F14444   1.296  -0.477  -0.278 -0.0660  0.6603 -0.0744
  133OSM    H4F14445   1.264  -0.570  -0.226 -2.2196  0.5120 -1.5286
  133OSM    H4G14446   1.401  -0.514  -0.288 -0.9571 -3.3080  2.7245
  133OSM    C5F14447   1.242  -0.455  -0.416  0.1128 -0.5759  0.4928
  133OSM    H5F14448   1.222  -0.346  -0.431 -1.7141 -1.2041 -2.5134
  133OSM    H5G14449   1.136  -0.485  -0.434  0.0663 -0.0201 -0.2372
  133OSM    C6F14450   1.342  -0.500  -0.530 -0.1458 -0.1362  0.7187
  133OSM    H6F14451   1.360  -0.610  -0.532 -0.4525 -0.3900 -5.1802
  133OSM    H6G14452   1.437  -0.448  -0.510 -0.5488  0.4677  1.0955
  133OSM    C7F14453   1.286  -0.460  -0.666 -0.1786 -0.1248  0.4331
  133OSM    H7F14454   1.281  -0.349  -0.660 -1.3626 -0.2450  3.2996
  133OSM    H7G14455   1.185  -0.503  -0.684  1.3977 -3.3885 -1.6492
  133OSM    C8F14456   1.372  -0.504  -0.787  0.4239 -0.0891  0.0025
  133OSM    H8F14457   1.372  -0.615  -0.789 -0.0289 -0.0798 -1.2015
  133OSM    H8G14458   1.480  -0.479  -0.780  0.3496  0.1916  0.1713
  133OSM    C9F14459   1.330  -0.435  -0.914  0.1854 -0.4210 -0.3043
  133OSM    H9F14460   1.241  -0.371  -0.905  0.3942  0.1289 -1.8322
  133OSM   C10F14461   1.394  -0.443  -1.033  0.2648 -0.5692 -0.5244
  133OSM   H10F14462   1.346  -0.397  -1.120  1.1115 -0.1704 -0.7962
  133OSM   C11F14463   1.526  -0.509  -1.068 -1.0048  0.1183  0.0174
  133OSM   H11F14464   1.556  -0.566  -0.977 -0.7673  2.3383  1.4114
  133OSM   H11G14465   1.606  -0.440  -1.100 -1.0345  0.9477  1.6233
  133OSM   C12F14466   1.497  -0.629  -1.168  0.1881  0.1605 -0.8012
  133OSM   H12F14467   1.417  -0.689  -1.121  0.6850  0.8303  1.0218
  133OSM   H12G14468   1.592  -0.686  -1.160  0.7986  1.3706  3.5325
  133OSM   C13F14469   1.461  -0.586  -1.311  0.2350 -0.7306 -0.7213
  133OSM   H13F14470   1.539  -0.520  -1.355  2.8968 -2.7474  0.7001
  133OSM   H13G14471   1.358  -0.542  -1.308  0.7311  0.4208  1.7641
  133OSM   C14F14472   1.467  -0.718  -1.395  0.5424  0.0998  0.0261
  133OSM   H14F14473   1.462  -0.805  -1.325  0.7246 -1.8351 -2.2450
  133OSM   H14G14474   1.566  -0.731  -1.443 -0.3097 -0.2008 -1.7146
  133OSM   C15F14475   1.364  -0.727  -1.500 -0.9715  0.0619  0.5555
  133OSM   H15F14476   1.379  -0.648  -1.576  1.4609  0.2712  1.1911
  133OSM   H15G14477   1.263  -0.723  -1.453 -0.1339 -0.9826  2.5747
  133OSM   C16F14478   1.366  -0.860  -1.574  0.5508 -0.3131  0.5319
  133OSM   H16F14479   1.344  -0.947  -1.507 -1.0985 -1.4905 -1.4463
  133OSM   H16G14480   1.464  -0.869  -1.625 -0.4339 -0.3912 -1.4008
  133OSM   C17F14481   1.251  -0.874  -1.683 -0.5203  0.3533  0.1131
  133OSM   H17F14482   1.156  -0.852  -1.630 -1.2210  1.2527 -1.4560
  133OSM   H17G14483   1.253  -0.980  -1.716 -2.0743  0.2514  0.2550
  133OSM   C18F14484   1.266  -0.782  -1.803 -1.1779 -0.4096 -0.1201
  133OSM   H18F14485   1.320  -0.690  -1.771 -2.6857  0.1909  0.7625
  133OSM   H18G14486   1.176  -0.753  -1.860 -0.0904  1.9964 -0.7383
  133OSM   H18H14487   1.319  -0.835  -1.886 -2.1238 -1.0940 -0.2994
  134OSM      N14488   1.826   5.519   0.667  0.2466  0.0911 -0.5410
  134OSM    C1514489   1.710   5.424   0.667 -0.3991 -1.0828 -0.2047
  134OSM   H15A14490   1.637   5.441   0.589  0.5320 -0.3149 -0.9316
  134OSM   H15B14491   1.667   5.416   0.766  0.5664 -2.8995  0.1080
  134OSM   H15C14492   1.748   5.325   0.647 -0.4366 -1.4219  1.2557
  134OSM    C1414493   1.768   5.661   0.699 -0.6728 -0.0129 -1.2415
  134OSM   H14A14494   1.700   5.687   0.619  0.7511  0.7048 -2.2602
  134OSM   H14B14495   1.849   5.732   0.697  0.6898 -1.4791 -0.0792
  134OSM   H14C14496   1.717   5.673   0.794  1.5937  1.3093 -0.0997
  134OSM    C1314497   1.919   5.487   0.776  0.0706 -0.7133  0.2146
  134OSM   H13A14498   1.996   5.560   0.791 -0.7930  1.4052 -4.0924
  134OSM   H13B14499   1.975   5.397   0.752  0.6013  0.2014 -2.3218
  134OSM   H13C14500   1.865   5.483   0.869  0.5457  0.3787  0.5400
  134OSM    C1214501   1.903   5.532   0.537  0.1101 -0.1101  0.5158
  134OSM   H12A14502   1.963   5.622   0.530  1.7738 -1.2201  0.0003
  134OSM   H12B14503   1.828   5.524   0.460  0.1019 -2.0194  0.6746
  134OSM    C1114504   2.009   5.412   0.502  0.4363 -0.2000 -0.5273
  134OSM   H11A14505   2.084   5.418   0.584  1.8233  1.5468 -1.8635
  134OSM   H11B14506   2.065   5.429   0.408 -0.3031  0.8716 -0.7911
  134OSM      P14507   1.962   5.158   0.583  0.0455 -0.0703  0.6540
  134OSM    O1314508   2.014   5.196   0.719  0.2738 -0.5125  0.3187
  134OSM    O1414509   1.838   5.080   0.571 -0.6053 -0.8650  0.0052
  134OSM    O1114510   2.080   5.074   0.521 -0.1274 -0.1439 -0.5259
  134OSM    O1214511   1.945   5.286   0.495  0.5227  0.4101 -0.2434
  134OSM    C1S14512   2.071   5.009   0.399  0.3055 -0.4352 -0.0658
  134OSM    H1S14513   1.966   4.984   0.374 -0.4225 -1.0633  3.1735
  134OSM    H1T14514   2.128   4.914   0.404 -1.2909 -1.4530 -0.3691
  134OSM     NF14515   2.103   5.020   0.149 -0.3761 -0.0656 -0.5893
  134OSM    HNF14516   2.165   4.948   0.120 -0.8425  0.2251 -2.4309
  134OSM    C2S14517   2.129   5.086   0.277 -0.2039 -0.2657  0.1523
  134OSM    H2S14518   2.082   5.186   0.281  1.8449  0.7295  0.8042
  134OSM    C3S14519   2.281   5.118   0.300 -0.3117 -0.6708 -0.0943
  134OSM    H3S14520   2.346   5.032   0.325 -0.1659 -0.2421  1.0542
  134OSM     O314521   2.310   5.198   0.417  0.0606 -0.4558  0.2133
  134OSM    HO314522   2.218   5.197   0.445 -0.3246 -0.5978 -0.9704
  134OSM    C4S14523   2.337   5.194   0.176  0.2758  0.2344  0.3135
  134OSM    H4S14524   2.377   5.124   0.101  0.6975  0.8213 -0.0237
  134OSM    C5S14525   2.330   5.328   0.137  0.2879 -0.0673  0.2133
  134OSM    H5S14526   2.275   5.397   0.203  0.8281 -1.6379  2.4179
  134OSM    C6S14527   2.385   5.401   0.011 -0.2534 -0.2996 -0.2380
  134OSM    H6S14528   2.475   5.461   0.038 -0.7868  0.2884  0.2376
  134OSM    H6T14529   2.300   5.459  -0.031 -1.5896 -0.7243  1.7775
  134OSM    C7S14530   2.439   5.306  -0.090  0.2215  0.5589  0.8980
  134OSM    H7S14531   2.349   5.256  -0.132  0.1191 -1.1669  2.9976
  134OSM    H7T14532   2.496   5.226  -0.039 -0.6989 -0.6348  0.1169
  134OSM    C8S14533   2.510   5.380  -0.210  0.9884 -0.2888 -0.2833
  134OSM    H8S14534   2.586   5.447  -0.165  0.4353  0.3462 -0.2767
  134OSM    H8T14535   2.436   5.447  -0.259  0.2912 -0.6626  0.2533
  134OSM    C9S14536   2.566   5.275  -0.308 -0.5602 -0.2659 -0.2374
  134OSM    H9S14537   2.478   5.211  -0.332 -1.9583  1.4223  0.1177
  134OSM    H9T14538   2.641   5.216  -0.252  1.5848  0.0469 -2.5999
  134OSM   C10S14539   2.622   5.331  -0.437 -0.3138 -1.0665  1.4833
  134OSM   H10S14540   2.707   5.399  -0.417  0.1173 -0.9886 -0.3777
  134OSM   H10T14541   2.535   5.384  -0.481  2.1098  2.0405  0.0658
  134OSM   C11S14542   2.670   5.222  -0.543  0.3100 -0.8030  0.1510
  134OSM   H11S14543   2.630   5.125  -0.505  3.1795 -1.9977  0.3313
  134OSM   H11T14544   2.780   5.228  -0.528  0.3480  1.5405 -0.7083
  134OSM   C12S14545   2.621   5.253  -0.687 -0.1623 -0.3539 -0.2182
  134OSM   H12S14546   2.637   5.361  -0.705 -0.8948  0.1233  1.7962
  134OSM   H12T14547   2.513   5.230  -0.690 -0.2951  0.0521  0.9918
  134OSM   C13S14548   2.707   5.172  -0.787  0.0529  0.2605  0.3294
  134OSM   H13S14549   2.708   5.067  -0.751 -1.0607  0.4812  1.0719
  134OSM   H13T14550   2.808   5.216  -0.773 -0.0859  0.5246  0.5235
  134OSM   C14S14551   2.635   5.176  -0.922 -0.5793  0.0803  0.3475
  134OSM   H14S14552   2.624   5.278  -0.963  4.0890  1.8891  2.8361
  134OSM   H14T14553   2.530   5.138  -0.914 -0.1467 -1.0696  0.8403
  134OSM   C15S14554   2.722   5.104  -1.031 -0.3127 -0.3668 -0.4325
  134OSM   H15S14555   2.645   5.088  -1.110 -2.4965 -1.6166  1.8080
  134OSM   H15T14556   2.748   5.003  -0.992 -0.6231 -0.1017  0.4798
  134OSM   C16S14557   2.835   5.192  -1.084  0.1000  0.3166  1.1561
  134OSM   H16S14558   2.888   5.215  -0.989 -1.9576  0.6560  2.2927
  134OSM   H16T14559   2.799   5.289  -1.126  0.2637  0.0493  0.3790
  134OSM   C17S14560   2.930   5.134  -1.190 -0.9087 -0.0929  0.8021
  134OSM   H17S14561   2.860   5.112  -1.273 -0.0442 -0.1938  0.0804
  134OSM   H17T14562   2.970   5.039  -1.148 -0.2082  0.5150  1.5412
  134OSM   C18S14563   3.053   5.221  -1.227 -0.1738  0.3686  0.5091
  134OSM   H18S14564   3.108   5.165  -1.306 -1.5796 -0.0810 -0.1725
  134OSM   H18T14565   3.113   5.228  -1.134 -1.2630 -1.3183  1.3871
  134OSM   H18U14566   3.020   5.323  -1.259  0.1691  0.4816  0.5104
  134OSM    C1F14567   1.978   5.038   0.096 -0.6864  0.0593  0.2735
  134OSM     OF14568   1.895   5.098   0.165 -0.0064  0.3900  0.1545
  134OSM    C2F14569   1.950   5.009  -0.048 -0.0184  0.6623  0.1413
  134OSM    H2F14570   1.955   4.901  -0.072 -0.5138 -0.2414  3.5845
  134OSM    H2G14571   2.028   5.059  -0.110  0.9215  0.0831  0.8341
  134OSM    C3F14572   1.809   5.060  -0.087 -0.4766 -0.1305 -0.0371
  134OSM    H3F14573   1.801   5.170  -0.073  1.8159  0.1070 -0.2103
  134OSM    H3G14574   1.732   5.026  -0.015 -1.7640  1.1460 -0.7409
  134OSM    C4F14575   1.761   5.017  -0.227  0.1264  0.3142 -0.0729
  134OSM    H4F14576   1.658   5.058  -0.233 -0.6655 -1.7388 -1.8587
  134OSM    H4G14577   1.752   4.908  -0.244 -2.0892  0.6814 -1.8352
  134OSM    C5F14578   1.841   5.078  -0.352 -0.6573  0.7479 -0.2751
  134OSM    H5F14579   1.941   5.029  -0.351 -1.0141 -0.0502 -1.7432
  134OSM    H5G14580   1.850   5.186  -0.328 -0.5548  0.8069 -0.5788
  134OSM    C6F14581   1.785   5.031  -0.485  0.5935  0.5174  1.1117
  134OSM    H6F14582   1.680   5.066  -0.490 -0.2157 -1.8699 -0.3617
  134OSM    H6G14583   1.770   4.920  -0.484  1.0208  0.4535  0.8524
  134OSM    C7F14584   1.870   5.078  -0.599  0.2260  0.2190  0.3804
  134OSM    H7F14585   1.976   5.049  -0.580  0.0521 -1.4748 -1.0608
  134OSM    H7G14586   1.872   5.189  -0.593 -1.1614  0.2380  0.6840
  134OSM    C8F14587   1.823   5.029  -0.737 -0.4947  0.7558 -0.1451
  134OSM    H8F14588   1.854   5.111  -0.805  1.8941  0.3076  0.3050
  134OSM    H8G14589   1.712   5.024  -0.730 -0.5538  2.0536 -0.0711
  134OSM    C9F14590   1.883   4.892  -0.763 -0.2724 -0.2863  0.2384
  134OSM    H9F14591   1.870   4.832  -0.673 -2.4035  0.2509  0.3501
  134OSM   C10F14592   1.929   4.842  -0.880 -1.6785  0.8361 -0.6102
  134OSM   H10F14593   1.970   4.740  -0.881 -2.8192  0.3484 -2.3054
  134OSM   C11F14594   1.927   4.918  -1.009  0.4008 -0.5706  0.1763
  134OSM   H11F14595   1.912   5.026  -0.986 -2.3094 -0.4288 -1.6833
  134OSM   H11G14596   1.829   4.892  -1.056  0.0769  0.4936  0.2286
  134OSM   C12F14597   2.033   4.911  -1.113 -0.2664 -0.6422 -0.1496
  134OSM   H12F14598   2.124   4.896  -1.051 -1.4091 -1.2976  1.4463
  134OSM   H12G14599   2.053   5.011  -1.158  0.6117  0.2324  2.0682
  134OSM   C13F14600   2.020   4.811  -1.223  0.3130  0.5554 -0.2556
  134OSM   H13F14601   1.913   4.803  -1.250  0.2098  2.2481 -0.3975
  134OSM   H13G14602   2.051   4.707  -1.195 -1.0762 -0.0543 -0.8772
  134OSM   C14F14603   2.093   4.856  -1.349  1.3918  0.2130  0.6826
  134OSM   H14F14604   2.201   4.876  -1.331  1.2587  1.5109  0.1182
  134OSM   H14G14605   2.046   4.950  -1.384  0.2518 -0.9539 -1.0288
  134OSM   C15F14606   2.077   4.754  -1.467 -0.8393 -0.0240  0.2001
  134OSM   H15F14607   1.970   4.732  -1.489 -0.1015 -2.1951 -1.5335
  134OSM   H15G14608   2.114   4.662  -1.417 -1.9388  0.2059  1.5005
  134OSM   C16F14609   2.151   4.788  -1.597  0.3615 -0.4237  0.3740
  134OSM   H16F14610   2.256   4.820  -1.581  0.1414  1.9084 -2.1538
  134OSM   H16G14611   2.095   4.872  -1.644 -0.2435 -1.6924 -1.2505
  134OSM   C17F14612   2.148   4.671  -1.704 -0.0303  0.5383 -0.2072
  134OSM   H17F14613   2.042   4.638  -1.709 -0.2691  1.3747 -1.0645
  134OSM   H17G14614   2.219   4.595  -1.667  0.2943  0.7117 -0.4711
  134OSM   C18F14615   2.197   4.714  -1.847 -0.3634  0.1287 -0.7513
  134OSM   H18F14616   2.169   4.635  -1.920  0.3480 -1.7033  0.8701
  134OSM   H18G14617   2.308   4.711  -1.847 -0.2877  0.1185 -3.7352
  134OSM   H18H14618   2.154   4.810  -1.883 -0.7436  0.7106  1.1025
  135OSM      N14619   5.221   4.114   1.069  0.1524 -0.5268 -0.0491
  135OSM    C1514620   5.256   3.966   1.087 -0.7867  0.1635 -0.2474
  135OSM   H15A14621   5.169   3.905   1.069 -1.4494  0.7899  0.7225
  135OSM   H15B14622   5.304   3.954   1.183 -2.1622  0.2910  0.4712
  135OSM   H15C14623   5.326   3.941   1.008 -0.3470  0.4397  0.0482
  135OSM    C1414624   5.349   4.185   1.061  0.3480  0.6506 -0.2862
  135OSM   H14A14625   5.430   4.160   1.129  0.1929  3.1148  0.9227
  135OSM   H14B14626   5.339   4.292   1.075 -1.6748  0.2907  1.6344
  135OSM   H14C14627   5.385   4.152   0.965 -0.0656 -0.0288 -0.2181
  135OSM    C1314628   5.135   4.119   0.944  0.3735  0.6637  0.3100
  135OSM   H13A14629   5.187   4.090   0.854  2.1811 -0.0435  1.5406
  135OSM   H13B14630   5.096   4.217   0.922 -2.0442 -0.7318 -2.2625
  135OSM   H13C14631   5.052   4.055   0.969  2.2976 -1.6532  1.2415
  135OSM    C1214632   5.131   4.148   1.189 -0.3624 -0.4572  0.3520
  135OSM   H12A14633   5.169   4.108   1.282 -2.2301  0.1970  1.4583
  135OSM   H12B14634   5.038   4.094   1.179 -1.3674  1.3321 -0.3774
  135OSM    C1114635   5.113   4.299   1.227  0.1515  0.0752  0.1927
  135OSM   H11A14636   5.212   4.347   1.234 -1.0102  3.0820 -2.1739
  135OSM   H11B14637   5.074   4.313   1.330 -0.3329 -1.9273  0.3238
  135OSM      P14638   5.067   4.495   1.059  0.2449  0.2046 -0.2569
  135OSM    O1314639   4.942   4.577   1.046  0.0712 -0.0970  0.4804
  135OSM    O1414640   5.185   4.553   1.112  0.2613 -0.8821 -0.0428
  135OSM    O1114641   5.097   4.429   0.922  0.3690 -0.2818  1.0377
  135OSM    O1214642   5.021   4.370   1.143 -0.3040  0.4871 -0.1687
  135OSM    C1S14643   5.213   4.444   0.845  0.6459 -0.4581  0.5716
  135OSM    H1S14644   5.281   4.360   0.866  0.6321 -0.3509  1.0639
  135OSM    H1T14645   5.277   4.533   0.862  3.4266 -2.1177 -0.5690
  135OSM     NF14646   5.312   4.416   0.637  0.1131  0.3875 -0.3472
  135OSM    HNF14647   5.350   4.487   0.578  0.0915 -0.1809 -1.0523
  135OSM    C2S14648   5.184   4.434   0.695  0.5902  0.1244  0.6973
  135OSM    H2S14649   5.126   4.346   0.662 -0.1353  0.5272  0.8784
  135OSM    C3S14650   5.114   4.558   0.642  0.1652  0.5065 -0.1307
  135OSM    H3S14651   5.174   4.645   0.676 -0.8383  0.8570  0.8293
  135OSM     O314652   4.989   4.588   0.711  0.1216  0.2182 -0.2002
  135OSM    HO314653   4.990   4.528   0.786  2.5164 -0.1692 -0.4830
  135OSM    C4S14654   5.099   4.574   0.484  0.7023  1.2918  0.4295
  135OSM    H4S14655   5.176   4.643   0.445  1.1141  0.6187  0.0209
  135OSM    C5S14656   5.005   4.521   0.401 -0.0309  0.0881 -0.0408
  135OSM    H5S14657   4.922   4.467   0.449  1.3221 -0.5983  1.5982
  135OSM    C6S14658   4.988   4.562   0.257  0.5379  0.1394 -0.4049
  135OSM    H6S14659   5.078   4.615   0.220  1.4820 -1.7750 -0.9236
  135OSM    H6T14660   4.898   4.627   0.241 -0.6773 -1.7668 -1.7827
  135OSM    C7S14661   4.962   4.436   0.165  0.1918 -0.5587  0.1426
  135OSM    H7S14662   4.877   4.383   0.213  0.0981 -1.4242 -0.9595
  135OSM    H7T14663   5.055   4.376   0.160  0.8207  0.1822  2.0347
  135OSM    C8S14664   4.925   4.480   0.017 -0.1586  0.1447 -0.4754
  135OSM    H8S14665   4.996   4.563  -0.004  0.5915 -0.8645 -2.1420
  135OSM    H8T14666   4.819   4.510   0.012 -0.5223 -1.0158 -0.1487
  135OSM    C9S14667   4.948   4.364  -0.080  0.2381  0.3749  0.3953
  135OSM    H9S14668   4.862   4.294  -0.068  2.0491 -1.8629  0.8506
  135OSM    H9T14669   5.034   4.305  -0.043 -0.2269  0.4460  1.6310
  135OSM   C10S14670   4.974   4.410  -0.224 -0.9981  0.6734  0.7702
  135OSM   H10S14671   4.987   4.323  -0.292  0.9310 -1.1814  3.3283
  135OSM   H10T14672   5.078   4.448  -0.220 -0.1218 -1.3501 -0.9802
  135OSM   C11S14673   4.877   4.512  -0.290 -0.4109  0.1308  0.7215
  135OSM   H11S14674   4.876   4.611  -0.240  2.4389  1.0159 -0.7478
  135OSM   H11T14675   4.773   4.478  -0.271 -0.3037  0.3647  1.7953
  135OSM   C12S14676   4.886   4.519  -0.443 -0.6604 -0.4492  0.5955
  135OSM   H12S14677   4.812   4.584  -0.495  0.8289 -0.1857 -1.3003
  135OSM   H12T14678   4.866   4.413  -0.470  0.3244 -0.9761  1.8447
  135OSM   C13S14679   5.023   4.566  -0.491 -0.1677 -0.1271  0.0360
  135OSM   H13S14680   5.095   4.492  -0.449  1.4720  0.1609 -2.1123
  135OSM   H13T14681   5.050   4.660  -0.437  2.3773  1.4251 -3.5608
  135OSM   C14S14682   5.031   4.577  -0.643  0.1608  0.5912 -0.8703
  135OSM   H14S14683   4.945   4.647  -0.653 -2.1347 -1.4081  2.5406
  135OSM   H14T14684   5.006   4.479  -0.690 -3.4371 -0.4946  2.6610
  135OSM   C15S14685   5.164   4.630  -0.687  0.4562 -0.0447 -0.5502
  135OSM   H15S14686   5.235   4.554  -0.646 -0.8086 -0.4006  1.0733
  135OSM   H15T14687   5.187   4.719  -0.624 -1.8018 -0.2434  0.6667
  135OSM   C16S14688   5.183   4.648  -0.839 -0.2005  0.8631 -0.7707
  135OSM   H16S14689   5.184   4.543  -0.875  0.0883  0.4473  0.4338
  135OSM   H16T14690   5.288   4.679  -0.854  0.9059 -2.5479 -0.8446
  135OSM   C17S14691   5.085   4.731  -0.927  0.2422 -0.5108 -0.1427
  135OSM   H17S14692   5.061   4.826  -0.873 -2.1272 -0.3360 -1.4198
  135OSM   H17T14693   4.981   4.694  -0.929 -0.1509  0.5569 -0.2301
  135OSM   C18S14694   5.150   4.760  -1.060  0.4092 -0.3127 -0.0695
  135OSM   H18S14695   5.087   4.823  -1.126 -0.1626 -0.3023  0.4803
  135OSM   H18T14696   5.162   4.662  -1.111 -2.1522  0.6370 -2.8057
  135OSM   H18U14697   5.254   4.800  -1.062  1.0055 -1.7815  0.4999
  135OSM    C1F14698   5.378   4.294   0.642 -0.2708  0.3241 -0.3648
  135OSM     OF14699   5.325   4.190   0.684 -0.6252  0.1301  0.1125
  135OSM    C2F14700   5.524   4.306   0.589 -0.3061  0.2577 -0.4846
  135OSM    H2F14701   5.578   4.368   0.664  2.5644 -2.1439 -0.4080
  135OSM    H2G14702   5.515   4.369   0.497 -0.4556  1.5581  0.3842
  135OSM    C3F14703   5.605   4.174   0.571  0.2650 -0.1331  0.3547
  135OSM    H3F14704   5.604   4.119   0.667  0.4349 -1.2015 -0.2477
  135OSM    H3G14705   5.708   4.210   0.550 -0.3909  1.0947 -0.9483
  135OSM    C4F14706   5.539   4.088   0.460  0.4170 -0.1327  0.1899
  135OSM    H4F14707   5.583   3.986   0.463 -0.5651 -0.5488  1.0902
  135OSM    H4G14708   5.437   4.075   0.501  0.7653  0.8867  1.4411
  135OSM    C5F14709   5.565   4.125   0.313  0.0126  0.3692  0.2928
  135OSM    H5F14710   5.562   4.236   0.312  0.5264  0.4192  1.7596
  135OSM    H5G14711   5.481   4.090   0.249  0.6414 -0.0102 -0.3310
  135OSM    C6F14712   5.693   4.071   0.252  0.4417 -0.5164  0.0923
  135OSM    H6F14713   5.693   3.960   0.254  1.3137 -0.5334  2.9679
  135OSM    H6G14714   5.769   4.109   0.323 -1.7356  1.9952  1.2574
  135OSM    C7F14715   5.714   4.119   0.106  0.1467 -0.1016  0.0278
  135OSM    H7F14716   5.724   4.229   0.104 -0.5922 -0.0028  1.0119
  135OSM    H7G14717   5.627   4.092   0.041  2.1938  0.4357 -3.1380
  135OSM    C8F14718   5.830   4.053   0.040  0.3262  0.0309 -0.4285
  135OSM    H8F14719   5.915   4.066   0.111 -0.9967  3.8253  0.7092
  135OSM    H8G14720   5.877   4.103  -0.047  0.3510 -0.5720 -0.7647
  135OSM    C9F14721   5.788   3.917   0.005 -0.0383  1.0736 -0.2798
  135OSM    H9F14722   5.781   3.846   0.089 -0.6658 -0.5060 -1.5857
  135OSM   C10F14723   5.794   3.860  -0.113 -0.3381  0.3232  1.0725
  135OSM   H10F14724   5.746   3.762  -0.124 -0.5085  0.6245 -1.3663
  135OSM   C11F14725   5.823   3.921  -0.251 -0.2359  0.4132 -0.1441
  135OSM   H11F14726   5.910   3.864  -0.290 -0.3652  0.7216 -0.9030
  135OSM   H11G14727   5.884   4.014  -0.240 -1.7166  1.4208 -0.1535
  135OSM   C12F14728   5.718   3.925  -0.359  0.1809  0.1581  0.0010
  135OSM   H12F14729   5.675   4.027  -0.347  2.3434  0.9563  1.6374
  135OSM   H12G14730   5.637   3.850  -0.346  2.4121 -2.4076  0.0410
  135OSM   C13F14731   5.783   3.924  -0.499 -0.5087  0.3075  0.0070
  135OSM   H13F14732   5.871   3.991  -0.503 -1.1647  1.1973  0.2514
  135OSM   H13G14733   5.706   3.965  -0.568  0.9202  0.3160 -1.6785
  135OSM   C14F14734   5.809   3.781  -0.544 -0.6653 -0.0805  0.1178
  135OSM   H14F14735   5.724   3.715  -0.517  1.1302 -2.1727  1.0010
  135OSM   H14G14736   5.904   3.746  -0.499  0.4458  1.6396 -0.7763
  135OSM   C15F14737   5.835   3.762  -0.692  0.2592 -0.1698  0.0054
  135OSM   H15F14738   5.871   3.659  -0.708 -3.3273 -1.3671 -1.4098
  135OSM   H15G14739   5.913   3.835  -0.723  0.0015 -0.1017 -0.4761
  135OSM   C16F14740   5.708   3.794  -0.780  0.1159  0.1548  0.1696
  135OSM   H16F14741   5.702   3.904  -0.792  0.2998  0.0401 -1.0650
  135OSM   H16G14742   5.622   3.756  -0.721  1.2100 -1.7666  0.6260
  135OSM   C17F14743   5.685   3.724  -0.919  0.3184  0.1826  1.0081
  135OSM   H17F14744   5.589   3.756  -0.966  1.3531  0.7149 -0.8282
  135OSM   H17G14745   5.676   3.616  -0.896  0.0385  0.1181  0.6017
  135OSM   C18F14746   5.806   3.730  -1.019 -0.1776  0.2480  0.2165
  135OSM   H18F14747   5.888   3.674  -0.970  1.3485  0.2654 -2.1400
  135OSM   H18G14748   5.845   3.832  -1.036 -0.8777  0.5751  0.5153
  135OSM   H18H14749   5.794   3.675  -1.115  2.8110 -1.4435  0.6909
  136OSM      N14750   2.493   5.035   0.703 -0.5576 -0.0959 -0.2191
  136OSM    C1514751   2.499   5.182   0.740  0.3378 -0.6348  0.2516
  136OSM   H15A14752   2.425   5.241   0.687  1.4947  1.7163  1.1012
  136OSM   H15B14753   2.590   5.234   0.715 -0.5047  1.4861  1.2549
  136OSM   H15C14754   2.468   5.200   0.842 -0.4030  1.3518 -0.2614
  136OSM    C1414755   2.355   4.988   0.692  0.7896  0.3524 -0.3650
  136OSM   H14A14756   2.306   5.048   0.616  2.2358  1.8469 -0.1925
  136OSM   H14B14757   2.298   4.998   0.783 -1.1239 -1.0525 -1.3366
  136OSM   H14C14758   2.349   4.883   0.668 -1.5974 -0.2527  2.3030
  136OSM    C1314759   2.545   5.044   0.556  0.6191  0.0806 -0.4295
  136OSM   H13A14760   2.637   5.101   0.546  0.1010  0.8603 -0.8726
  136OSM   H13B14761   2.475   5.102   0.498 -1.3048 -1.0418  0.6912
  136OSM   H13C14762   2.571   4.949   0.514  4.5249  0.1717  1.2568
  136OSM    C1214763   2.576   4.948   0.793 -1.4790 -0.2072  0.0194
  136OSM   H12A14764   2.532   4.949   0.891 -0.6421 -0.9467  0.4161
  136OSM   H12B14765   2.677   4.986   0.795 -1.1189 -0.6738 -3.1984
  136OSM    C1114766   2.572   4.794   0.764 -0.3201 -0.4624 -0.2344
  136OSM   H11A14767   2.467   4.764   0.786 -0.2767  0.8714  2.1143
  136OSM   H11B14768   2.635   4.743   0.840  0.6887  0.5501 -0.3771
  136OSM      P14769   2.537   4.670   0.549 -0.1406  0.1772 -0.2649
  136OSM    O1314770   2.602   4.539   0.573  0.0968  0.0169 -0.4883
  136OSM    O1414771   2.393   4.689   0.564 -0.1269  0.0075 -0.5201
  136OSM    O1114772   2.584   4.720   0.405 -0.7617 -0.3770  0.3354
  136OSM    O1214773   2.621   4.761   0.639 -0.7107 -0.2475  0.2213
  136OSM    C1S14774   2.719   4.759   0.375 -0.0249  0.7183  0.7290
  136OSM    H1S14775   2.794   4.692   0.422 -0.2047 -0.8405 -1.0892
  136OSM    H1T14776   2.736   4.867   0.397 -0.9342  0.5984  2.1690
  136OSM     NF14777   2.894   4.733   0.201  0.7513  0.4457 -0.1452
  136OSM    HNF14778   2.933   4.823   0.180  0.1889  0.8463  0.4601
  136OSM    C2S14779   2.751   4.725   0.219 -0.0104 -0.0550  0.1226
  136OSM    H2S14780   2.728   4.619   0.196 -0.5457  0.2677 -0.9101
  136OSM    C3S14781   2.667   4.821   0.126  0.5050 -0.5708 -0.2115
  136OSM    H3S14782   2.692   4.925   0.155 -1.0910 -0.2498  0.1507
  136OSM     O314783   2.527   4.813   0.128  0.1036 -0.6841 -0.1583
  136OSM    HO314784   2.499   4.776   0.212  0.5772 -0.5946  0.0399
  136OSM    C4S14785   2.712   4.812  -0.015  0.3200  0.7423 -0.0520
  136OSM    H4S14786   2.666   4.732  -0.075 -0.6341  0.0518  1.5162
  136OSM    C5S14787   2.802   4.888  -0.079 -0.4571 -0.1780 -0.2030
  136OSM    H5S14788   2.843   4.972  -0.021  2.4987 -1.5058 -0.1588
  136OSM    C6S14789   2.847   4.866  -0.218 -0.5309 -0.0908 -0.5481
  136OSM    H6S14790   2.816   4.954  -0.279  1.6104  2.1171  1.3439
  136OSM    H6T14791   2.813   4.772  -0.267 -0.3187  1.5082 -4.0997
  136OSM    C7S14792   2.999   4.866  -0.216  0.6042 -0.1285  0.4232
  136OSM    H7S14793   3.028   4.773  -0.164  0.1301 -0.5244 -0.0021
  136OSM    H7T14794   3.044   4.946  -0.153 -1.9154  2.0088 -0.3317
  136OSM    C8S14795   3.067   4.859  -0.355  0.0664 -0.8665 -0.8566
  136OSM    H8S14796   3.175   4.855  -0.329 -0.4198 -1.3027  1.3064
  136OSM    H8T14797   3.055   4.958  -0.403  0.4602 -0.0776  0.6103
  136OSM    C9S14798   3.023   4.735  -0.440  0.7618  0.0945 -0.7032
  136OSM    H9S14799   2.918   4.748  -0.472  0.4741  0.4932  0.3777
  136OSM    H9T14800   3.031   4.652  -0.367  1.5802  1.8101  1.2861
  136OSM   C10S14801   3.109   4.707  -0.569 -0.6562 -0.0046 -0.8170
  136OSM   H10S14802   3.082   4.612  -0.620 -1.0959  0.5248 -1.5888
  136OSM   H10T14803   3.212   4.684  -0.535 -0.3419  1.3211 -0.8479
  136OSM   C11S14804   3.114   4.820  -0.667  0.7631 -0.1170 -0.4329
  136OSM   H11S14805   3.156   4.913  -0.621  0.5076 -0.5326  0.6662
  136OSM   H11T14806   3.010   4.839  -0.701  0.6308  1.0562  0.5437
  136OSM   C12S14807   3.193   4.766  -0.786 -0.5078  0.0764  0.6825
  136OSM   H12S14808   3.142   4.679  -0.833 -2.7676  1.7110 -0.0735
  136OSM   H12T14809   3.290   4.740  -0.739 -1.3562 -0.1230  2.3828
  136OSM   C13S14810   3.209   4.882  -0.886 -0.3123  0.2000  0.4076
  136OSM   H13S14811   3.281   4.955  -0.846  1.6908  0.7615 -3.6580
  136OSM   H13T14812   3.114   4.936  -0.907 -0.8230 -0.9888 -0.4787
  136OSM   C14S14813   3.257   4.833  -1.025  0.1375  1.0565 -0.7954
  136OSM   H14S14814   3.167   4.795  -1.078 -0.8358  2.2613 -0.0472
  136OSM   H14T14815   3.331   4.749  -1.024 -2.0498 -0.9962  1.0529
  136OSM   C15S14816   3.323   4.930  -1.127  0.4904 -0.8761 -0.0041
  136OSM   H15S14817   3.419   4.971  -1.089 -0.4587  2.0687 -0.4993
  136OSM   H15T14818   3.262   5.021  -1.147  3.1987  0.5858 -2.4738
  136OSM   C16S14819   3.349   4.863  -1.264 -0.2246  0.3399 -0.6581
  136OSM   H16S14820   3.249   4.836  -1.303 -0.3144  0.9982 -0.9072
  136OSM   H16T14821   3.398   4.764  -1.256 -2.0714 -0.5346  0.2721
  136OSM   C17S14822   3.409   4.958  -1.374  0.0305  0.0656  0.1089
  136OSM   H17S14823   3.514   4.976  -1.345  0.3546 -1.4952 -0.0393
  136OSM   H17T14824   3.355   5.056  -1.379 -2.9325 -1.4403  0.0838
  136OSM   C18S14825   3.403   4.890  -1.513  0.1458 -0.3174 -0.4459
  136OSM   H18S14826   3.434   4.783  -1.513 -0.1675 -0.4345 -2.0150
  136OSM   H18T14827   3.457   4.945  -1.593  0.4915 -0.1543 -0.1029
  136OSM   H18U14828   3.299   4.897  -1.551 -0.5533  0.0296  1.4606
  136OSM    C1F14829   2.970   4.640   0.253  0.5086  0.1612 -0.3189
  136OSM     OF14830   2.922   4.533   0.297  0.0636 -0.1946 -0.7515
  136OSM    C2F14831   3.112   4.683   0.269 -0.3616 -0.5626 -0.2691
  136OSM    H2F14832   3.132   4.679   0.379 -2.2989 -0.9661  0.1199
  136OSM    H2G14833   3.120   4.793   0.259  0.2742 -0.5789  0.0130
  136OSM    C3F14834   3.216   4.586   0.206 -0.9305  0.1663 -0.4772
  136OSM    H3F14835   3.201   4.479   0.235 -1.2496  0.5263  0.7234
  136OSM    H3G14836   3.316   4.613   0.247 -1.9912  1.3270  1.4936
  136OSM    C4F14837   3.231   4.583   0.054  0.4243  0.5105  0.3520
  136OSM    H4F14838   3.248   4.684   0.013 -0.6431  0.5821  0.0532
  136OSM    H4G14839   3.137   4.543   0.009 -0.2526 -1.0287  2.8975
  136OSM    C5F14840   3.348   4.500   0.003 -0.2018 -0.7166 -0.0212
  136OSM    H5F14841   3.346   4.394   0.035 -0.2829 -1.7046 -2.9959
  136OSM    H5G14842   3.440   4.544   0.047  0.1987 -1.5869  0.0303
  136OSM    C6F14843   3.367   4.499  -0.150 -0.4306 -0.8037 -0.2306
  136OSM    H6F14844   3.453   4.428  -0.156  0.6367  0.5691 -2.5914
  136OSM    H6G14845   3.412   4.594  -0.185  0.4378  0.1952  3.2494
  136OSM    C7F14846   3.251   4.452  -0.229 -0.1809  0.3474  0.4417
  136OSM    H7F14847   3.175   4.531  -0.214 -0.9370 -0.2138 -0.3527
  136OSM    H7G14848   3.213   4.351  -0.200 -1.1797  0.3358 -0.8120
  136OSM    C8F14849   3.292   4.440  -0.382 -0.2457 -0.0407  0.0843
  136OSM    H8F14850   3.332   4.539  -0.410 -0.4330  0.3533  1.1412
  136OSM    H8G14851   3.202   4.414  -0.443 -0.6512 -2.5038  1.5806
  136OSM    C9F14852   3.392   4.328  -0.405 -0.1471 -0.0744  0.5530
  136OSM    H9F14853   3.417   4.262  -0.320  0.2354 -0.2369  0.3186
  136OSM   C10F14854   3.434   4.284  -0.521  0.1505  0.3469 -0.3948
  136OSM   H10F14855   3.524   4.220  -0.516 -0.5979 -0.6855  0.4416
  136OSM   C11F14856   3.409   4.342  -0.661 -0.6812  0.1822 -0.0137
  136OSM   H11F14857   3.432   4.451  -0.666 -3.3553  0.8814  1.0638
  136OSM   H11G14858   3.302   4.320  -0.682 -0.0278 -0.4110 -3.3640
  136OSM   C12F14859   3.501   4.282  -0.775  0.4164 -0.0550  0.4742
  136OSM   H12F14860   3.473   4.178  -0.801 -1.3616  1.0945 -2.6545
  136OSM   H12G14861   3.606   4.287  -0.739  1.0529 -1.9581 -0.9802
  136OSM   C13F14862   3.494   4.362  -0.909  0.3108  0.1002 -0.2819
  136OSM   H13F14863   3.570   4.322  -0.980 -0.6527 -1.4281 -0.5005
  136OSM   H13G14864   3.519   4.469  -0.891 -1.7817  0.3764  1.3799
  136OSM   C14F14865   3.352   4.375  -0.989 -0.1944  0.3881  1.0505
  136OSM   H14F14866   3.276   4.427  -0.927 -1.2539  0.3669 -0.1953
  136OSM   H14G14867   3.316   4.273  -1.014 -3.3022  1.3332  1.2260
  136OSM   C15F14868   3.359   4.447  -1.124 -0.3847 -0.7434 -0.8098
  136OSM   H15F14869   3.451   4.402  -1.166  2.2720  2.5920  0.9101
  136OSM   H15G14870   3.385   4.553  -1.105  2.3549 -1.8130  2.4578
  136OSM   C16F14871   3.235   4.427  -1.215 -0.7409 -0.5991 -0.4704
  136OSM   H16F14872   3.159   4.501  -1.181  0.7155 -0.2729  2.3837
  136OSM   H16G14873   3.193   4.328  -1.189  0.7488 -0.9683  0.7003
  136OSM   C17F14874   3.261   4.442  -1.360 -0.1719 -0.0793 -0.1707
  136OSM   H17F14875   3.342   4.370  -1.385  1.0244  1.3449 -0.4938
  136OSM   H17G14876   3.304   4.542  -1.381  1.5334 -0.5507  0.8138
  136OSM   C18F14877   3.132   4.406  -1.436  0.1039 -0.0799 -1.1194
  136OSM   H18F14878   3.096   4.306  -1.404  1.9769 -1.2467 -2.4042
  136OSM   H18G14879   3.149   4.390  -1.545  3.1991  1.8698 -1.0350
  136OSM   H18H14880   3.055   4.482  -1.413  0.5461  0.2376 -0.6676
  137OSM      N14881   0.450   3.236   0.678 -0.4779 -0.3845  0.3343
  137OSM    C1514882   0.438   3.244   0.534  0.4906 -0.3061  0.1934
  137OSM   H15A14883   0.394   3.341   0.515  0.3226 -0.1193  1.4385
  137OSM   H15B14884   0.383   3.160   0.495  0.1691  0.5156 -1.1915
  137OSM   H15C14885   0.539   3.234   0.495  0.1025 -2.3851 -0.4250
  137OSM    C1414886   0.526   3.108   0.713 -0.0391 -0.0923 -0.7590
  137OSM   H14A14887   0.507   3.018   0.656  0.3739 -0.5004 -0.2652
  137OSM   H14B14888   0.521   3.093   0.820  0.8023  0.5021 -0.6320
  137OSM   H14C14889   0.631   3.115   0.690  0.2053 -3.0109 -0.9464
  137OSM    C1314890   0.529   3.355   0.736 -0.2413  0.8219  0.1146
  137OSM   H13A14891   0.489   3.449   0.702  1.7355  2.3264  1.6532
  137OSM   H13B14892   0.631   3.357   0.701 -0.4780 -1.8433 -0.9463
  137OSM   H13C14893   0.525   3.355   0.844 -0.1846  1.0444  0.1173
  137OSM    C1214894   0.314   3.230   0.736  0.3889 -0.8283  0.4046
  137OSM   H12A14895   0.320   3.222   0.844  0.5348  1.2725  0.5751
  137OSM   H12B14896   0.262   3.142   0.701  0.3279 -0.3852 -0.6481
  137OSM    C1114897   0.221   3.351   0.720  0.3278 -0.1236 -0.3273
  137OSM   H11A14898   0.265   3.441   0.768 -0.1869 -0.0105 -0.0639
  137OSM   H11B14899   0.131   3.333   0.782  0.8788 -2.3476 -0.0889
  137OSM      P14900   0.151   3.526   0.528 -0.4051  0.1437  0.3781
  137OSM    O1314901   0.115   3.618   0.644 -0.0885  0.5035 -0.0311
  137OSM    O1414902   0.264   3.567   0.441 -0.5099  0.1604 -0.1064
  137OSM    O1114903   0.026   3.513   0.437  0.1525  0.0640  0.2083
  137OSM    O1214904   0.172   3.376   0.592 -0.8814 -0.0866  0.4551
  137OSM    C1S14905  -0.107   3.463   0.484 -0.4930 -0.3495 -0.1477
  137OSM    H1S14906  -0.140   3.497   0.584 -1.6129  0.1836 -0.6831
  137OSM    H1T14907  -0.107   3.352   0.471  1.5804 -0.3760 -0.3867
  137OSM     NF14908  -0.260   3.418   0.293  0.4730 -0.4056 -0.0864
  137OSM    HNF14909  -0.229   3.438   0.200 -0.1815 -0.7971 -0.3942
  137OSM    C2S14910  -0.223   3.513   0.397  0.2992 -1.0628  0.2308
  137OSM    H2S14911  -0.312   3.531   0.460  0.1292 -1.0975  0.0026
  137OSM    C3S14912  -0.192   3.657   0.352  0.2225 -0.2904  0.9612
  137OSM    H3S14913  -0.102   3.657   0.287 -1.7768 -1.8976 -1.9995
  137OSM     O314914  -0.167   3.751   0.453  0.0425 -0.2465 -0.1622
  137OSM    HO314915  -0.180   3.703   0.535 -0.5815 -1.8195 -1.1385
  137OSM    C4S14916  -0.290   3.710   0.253  0.0396  0.1350  0.0384
  137OSM    H4S14917  -0.259   3.673   0.155  0.8557  1.5535 -0.2643
  137OSM    C5S14918  -0.398   3.794   0.258 -0.0876 -0.6912 -0.3243
  137OSM    H5S14919  -0.421   3.845   0.353  1.2726 -1.9591  0.7383
  137OSM    C6S14920  -0.489   3.839   0.152  0.1521  0.1781  0.5687
  137OSM    H6S14921  -0.480   3.949   0.146 -3.4498  0.5436  0.2689
  137OSM    H6T14922  -0.595   3.841   0.183 -0.2725  0.4624 -0.8515
  137OSM    C7S14923  -0.474   3.784   0.006  0.9340 -0.3479  0.0413
  137OSM    H7S14924  -0.481   3.674   0.013  0.3219 -0.2955  0.3318
  137OSM    H7T14925  -0.370   3.813  -0.017  0.9963  0.0191  0.7274
  137OSM    C8S14926  -0.563   3.836  -0.106  0.0073  0.1472  0.1488
  137OSM    H8S14927  -0.541   3.945  -0.106 -1.5415  0.4826  0.9297
  137OSM    H8T14928  -0.665   3.801  -0.078  0.1695 -1.0418 -0.6638
  137OSM    C9S14929  -0.531   3.770  -0.246 -0.7420 -0.0625  0.1295
  137OSM    H9S14930  -0.562   3.664  -0.245  0.7349 -0.5135  1.1813
  137OSM    H9T14931  -0.420   3.768  -0.241 -0.6337  0.2217 -1.4405
  137OSM   C10S14932  -0.565   3.850  -0.371  0.0200  0.0499  0.2613
  137OSM   H10S14933  -0.512   3.947  -0.383  0.2230 -0.0967 -0.0107
  137OSM   H10T14934  -0.674   3.872  -0.379  0.3380  1.0106 -2.4115
  137OSM   C11S14935  -0.510   3.759  -0.482  0.1896  0.0885  0.1684
  137OSM   H11S14936  -0.547   3.655  -0.485  1.9023 -0.5634  0.4918
  137OSM   H11T14937  -0.400   3.749  -0.470  0.5135 -0.5019 -2.6043
  137OSM   C12S14938  -0.545   3.822  -0.624  0.1399  0.0340  0.1107
  137OSM   H12S14939  -0.493   3.920  -0.615 -0.5589  0.4419 -0.1837
  137OSM   H12T14940  -0.654   3.840  -0.638  0.0143  1.1675  2.1171
  137OSM   C13S14941  -0.487   3.743  -0.744 -0.6850  0.2344 -0.6521
  137OSM   H13S14942  -0.510   3.639  -0.713 -2.8928  0.8383 -0.0871
  137OSM   H13T14943  -0.377   3.757  -0.742 -0.8458  1.9510 -1.7598
  137OSM   C14S14944  -0.542   3.782  -0.875  0.2001 -0.1506 -0.3970
  137OSM   H14S14945  -0.494   3.876  -0.910 -0.7526  0.9576  1.1138
  137OSM   H14T14946  -0.651   3.803  -0.870  0.5887  2.3653 -0.9789
  137OSM   C15S14947  -0.529   3.674  -0.990  0.1880 -0.4471 -0.5515
  137OSM   H15S14948  -0.582   3.582  -0.957  2.8900 -2.0758 -0.4326
  137OSM   H15T14949  -0.422   3.645  -0.992  0.4663  0.5180 -2.8839
  137OSM   C16S14950  -0.581   3.710  -1.118 -0.0645  0.2777  0.4949
  137OSM   H16S14951  -0.510   3.761  -1.186  0.6111 -3.5529 -1.9681
  137OSM   H16T14952  -0.674   3.770  -1.113 -0.0773  0.3750 -0.6498
  137OSM   C17S14953  -0.615   3.589  -1.215 -0.3556  0.0742 -0.4721
  137OSM   H17S14954  -0.673   3.634  -1.299 -0.2704  1.2652  0.0865
  137OSM   H17T14955  -0.679   3.519  -1.159  1.5175 -1.5059 -0.1978
  137OSM   C18S14956  -0.487   3.515  -1.256  0.3600 -1.0294  0.2335
  137OSM   H18S14957  -0.443   3.569  -1.343  1.7255 -1.8369  0.3836
  137OSM   H18T14958  -0.516   3.412  -1.287 -0.5984 -1.2668  1.8352
  137OSM   H18U14959  -0.405   3.516  -1.181  0.9426 -1.4807 -0.3793
  137OSM    C1F14960  -0.320   3.300   0.324 -0.2262 -0.5249 -0.0696
  137OSM     OF14961  -0.361   3.280   0.434  0.0353 -0.4335 -0.7954
  137OSM    C2F14962  -0.331   3.193   0.220  0.2319  0.1300  0.0222
  137OSM    H2F14963  -0.229   3.149   0.211 -0.0027 -0.3354 -0.4868
  137OSM    H2G14964  -0.360   3.245   0.126  0.8956 -2.0982 -1.5181
  137OSM    C3F14965  -0.434   3.081   0.253  0.6172  0.2530  0.2925
  137OSM    H3F14966  -0.537   3.114   0.277  0.6809  0.8714 -0.2584
  137OSM    H3G14967  -0.395   3.021   0.338  2.3390 -0.3257 -0.8387
  137OSM    C4F14968  -0.445   2.980   0.137 -0.2949  0.3229  0.1877
  137OSM    H4F14969  -0.511   2.898   0.173 -0.0112  0.2621  0.5724
  137OSM    H4G14970  -0.347   2.930   0.122 -0.9454 -0.4349 -1.8065
  137OSM    C5F14971  -0.503   3.041   0.008 -0.0637  0.2929 -0.5394
  137OSM    H5F14972  -0.441   3.123  -0.034  1.4530 -0.3781  0.3432
  137OSM    H5G14973  -0.601   3.090   0.027  0.4325  1.3163 -0.5217
  137OSM    C6F14974  -0.508   2.939  -0.105  1.4542  0.2547  0.4389
  137OSM    H6F14975  -0.564   2.988  -0.187  0.6219 -1.4913 -0.0743
  137OSM    H6G14976  -0.571   2.853  -0.073  1.8532 -0.2473 -0.1111
  137OSM    C7F14977  -0.366   2.893  -0.146 -0.0980  0.3093 -0.5439
  137OSM    H7F14978  -0.309   2.845  -0.064 -0.1541  2.7262  1.0239
  137OSM    H7G14979  -0.310   2.980  -0.187 -1.8658  1.3727 -0.7873
  137OSM    C8F14980  -0.373   2.789  -0.265  0.6677 -0.4147 -0.1284
  137OSM    H8F14981  -0.441   2.830  -0.343  0.8595  2.1484  0.9811
  137OSM    H8G14982  -0.416   2.694  -0.227 -0.1033  0.0173  0.0909
  137OSM    C9F14983  -0.236   2.762  -0.320  0.5078 -0.7716  0.0503
  137OSM    H9F14984  -0.167   2.713  -0.249  1.1344 -0.8002 -0.5633
  137OSM   C10F14985  -0.175   2.799  -0.435  0.3434  0.7524 -0.2562
  137OSM   H10F14986  -0.074   2.757  -0.448  0.3591  0.3250  1.1724
  137OSM   C11F14987  -0.234   2.871  -0.555  0.0263 -0.8627 -0.1441
  137OSM   H11F14988  -0.220   2.981  -0.540  0.1086 -0.8631 -0.2151
  137OSM   H11G14989  -0.344   2.856  -0.566 -0.2579  1.1472 -0.5209
  137OSM   C12F14990  -0.156   2.838  -0.684  0.3582  0.2848  0.2605
  137OSM   H12F14991  -0.161   2.729  -0.705 -0.1136  0.3754 -0.1196
  137OSM   H12G14992  -0.056   2.883  -0.669 -0.4293  1.8126  1.2357
  137OSM   C13F14993  -0.216   2.917  -0.793  0.2505  0.5519 -0.3871
  137OSM   H13F14994  -0.185   3.019  -0.759 -3.4274  1.6546  0.1117
  137OSM   H13G14995  -0.326   2.923  -0.799  0.2456 -0.1314 -1.0999
  137OSM   C14F14996  -0.147   2.889  -0.925 -0.6689 -0.2504 -0.1319
  137OSM   H14F14997  -0.177   2.785  -0.950  1.5222 -1.4361  1.7756
  137OSM   H14G14998  -0.037   2.885  -0.910 -0.4520  0.1583 -1.4661
  137OSM   C15F14999  -0.188   2.986  -1.041 -0.8030 -0.0973  0.5454
  137OSM   H15F15000  -0.149   3.083  -1.003 -2.0791  0.3642  0.7222
  137OSM   H15G15001  -0.299   2.997  -1.034 -0.8807  0.4884 -1.1668
  137OSM   C16F15002  -0.132   2.964  -1.186 -0.1576  0.2314 -0.2441
  137OSM   H16F15003  -0.124   2.855  -1.202  2.3473  0.7116 -3.1535
  137OSM   H16G15004  -0.026   2.996  -1.190  0.1378 -0.8487 -1.5484
  137OSM   C17F15005  -0.212   3.031  -1.298  0.0936 -0.6430  0.1057
  137OSM   H17F15006  -0.318   3.009  -1.278 -0.6098  0.0849 -2.4077
  137OSM   H17G15007  -0.197   2.978  -1.394  0.7627 -1.0147  0.4090
  137OSM   C18F15008  -0.189   3.182  -1.310  0.1950 -0.8916  0.3766
  137OSM   H18F15009  -0.087   3.207  -1.347 -0.1051 -0.0505  0.1009
  137OSM   H18G15010  -0.190   3.232  -1.211 -0.5439  0.1235 -0.1243
  137OSM   H18H15011  -0.267   3.226  -1.375 -0.9936 -0.7181  1.8773
  138OSM      N15012   2.831   2.246   0.606 -0.1271 -0.8080  0.5651
  138OSM    C1515013   2.891   2.380   0.575  0.1232  0.5244  0.2016
  138OSM   H15A15014   2.998   2.363   0.570  0.0156 -0.6935  1.5195
  138OSM   H15B15015   2.877   2.461   0.645  2.1832  1.3152 -0.2157
  138OSM   H15C15016   2.870   2.410   0.473  3.3169 -0.6385 -0.9308
  138OSM    C1415017   2.887   2.142   0.517  0.3884 -0.2272  0.4931
  138OSM   H14A15018   2.983   2.170   0.476 -0.1743 -1.3043 -1.7344
  138OSM   H14B15019   2.827   2.135   0.427  3.3643 -1.9607 -1.5773
  138OSM   H14C15020   2.893   2.039   0.551  2.7987 -0.1229  0.5995
  138OSM    C1315021   2.880   2.224   0.757  0.5200 -0.1925  0.6826
  138OSM   H13A15022   2.847   2.295   0.832 -0.5270 -0.9882  1.0095
  138OSM   H13B15023   2.987   2.220   0.751  0.3945 -3.1383 -1.9617
  138OSM   H13C15024   2.849   2.129   0.797  0.5405  0.1999  1.6652
  138OSM    C1215025   2.676   2.256   0.602 -0.3479 -1.1152  0.6032
  138OSM   H12A15026   2.629   2.329   0.666 -2.1114 -0.9932 -0.7321
  138OSM   H12B15027   2.637   2.160   0.634 -1.0123 -1.0253  0.1030
  138OSM    C1115028   2.617   2.273   0.456 -0.1445 -0.0254  0.0376
  138OSM   H11A15029   2.508   2.251   0.462  0.2132 -1.8167  0.6056
  138OSM   H11B15030   2.662   2.198   0.388 -1.4979 -1.4623  0.6495
  138OSM      P15031   2.531   2.520   0.471 -0.3802 -0.1306 -0.1916
  138OSM    O1315032   2.535   2.507   0.617 -0.2965  0.2883  0.5837
  138OSM    O1415033   2.568   2.654   0.416  0.3361  0.1927  0.4831
  138OSM    O1115034   2.394   2.470   0.419  0.6854 -0.1013 -0.8235
  138OSM    O1215035   2.634   2.409   0.410 -0.3694  0.2996  0.4704
  138OSM    C1S15036   2.372   2.448   0.281 -0.6054  0.2554  1.1762
  138OSM    H1S15037   2.373   2.338   0.260  0.2826  0.3868  0.4639
  138OSM    H1T15038   2.450   2.489   0.214 -0.4377 -0.4506  0.9225
  138OSM     NF15039   2.228   2.499   0.078 -0.0928  0.0392  0.7032
  138OSM    HNF15040   2.244   2.584   0.028  0.2104 -0.1025  0.5593
  138OSM    C2S15041   2.239   2.514   0.222  0.2620 -0.2219  0.2925
  138OSM    H2S15042   2.156   2.454   0.263 -0.1822 -0.6880 -1.2092
  138OSM    C3S15043   2.229   2.665   0.274  0.3172  0.9468 -0.6535
  138OSM    H3S15044   2.325   2.715   0.252  0.5956  0.0652 -1.5268
  138OSM     O315045   2.201   2.662   0.419  0.6052 -0.4349 -0.0984
  138OSM    HO315046   2.243   2.577   0.435  1.5277 -0.3289 -1.7331
  138OSM    C4S15047   2.115   2.741   0.210 -0.0475  0.3654 -0.2835
  138OSM    H4S15048   2.017   2.695   0.230  0.5100  0.3788  3.0309
  138OSM    C5S15049   2.127   2.849   0.138 -0.3062  0.7430  0.3176
  138OSM    H5S15050   2.229   2.892   0.138  0.7496 -1.6229  0.3008
  138OSM    C6S15051   2.028   2.922   0.045  0.1896  0.2442 -0.5300
  138OSM    H6S15052   2.083   3.002  -0.010 -0.0903 -1.0858 -2.8541
  138OSM    H6T15053   1.949   2.970   0.107 -0.5274 -1.3768 -0.1538
  138OSM    C7S15054   1.946   2.839  -0.057  0.4749 -0.2918 -0.1128
  138OSM    H7S15055   1.870   2.905  -0.104  2.0453  2.8425  1.4717
  138OSM    H7T15056   1.894   2.763   0.005  1.1069  0.5756  1.5352
  138OSM    C8S15057   2.028   2.783  -0.176 -0.3909  0.3133 -0.2567
  138OSM    H8S15058   2.115   2.722  -0.144 -0.9073 -0.6090 -0.5886
  138OSM    H8T15059   2.062   2.869  -0.238  0.9392 -1.6256 -2.3889
  138OSM    C9S15060   1.939   2.699  -0.268  0.0203  0.6603  0.0099
  138OSM    H9S15061   1.842   2.752  -0.275 -1.2339 -1.4107  0.6778
  138OSM    H9T15062   1.903   2.606  -0.218  0.0418  2.3381  3.3950
  138OSM   C10S15063   2.001   2.663  -0.406 -0.1848 -0.0418  0.1754
  138OSM   H10S15064   2.109   2.638  -0.393  0.6445  2.2725 -1.4808
  138OSM   H10T15065   1.994   2.761  -0.458  1.3239 -1.0358 -2.0598
  138OSM   C11S15066   1.914   2.564  -0.484 -0.1351 -0.2726 -1.2561
  138OSM   H11S15067   1.805   2.587  -0.481 -0.1716 -0.1732 -2.7411
  138OSM   H11T15068   1.926   2.469  -0.428  1.9223  0.2951 -0.6594
  138OSM   C12S15069   1.946   2.562  -0.636  0.5051  0.3978 -0.2986
  138OSM   H12S15070   1.903   2.466  -0.669 -0.0884  0.1302  1.1854
  138OSM   H12T15071   2.057   2.556  -0.639  0.4977  0.6337 -1.2195
  138OSM   C13S15072   1.872   2.672  -0.715 -0.0429 -0.0052 -0.2747
  138OSM   H13S15073   1.894   2.772  -0.673  0.2642 -1.7879  4.4818
  138OSM   H13T15074   1.763   2.668  -0.697  0.1250  1.7505  1.4869
  138OSM   C14S15075   1.912   2.661  -0.856  0.4563  0.4473 -0.2662
  138OSM   H14S15076   2.023   2.663  -0.857  0.5345 -0.1957  1.9259
  138OSM   H14T15077   1.880   2.750  -0.914 -1.7337 -1.4849 -2.2208
  138OSM   C15S15078   1.880   2.533  -0.935 -0.1788 -0.0775  0.1185
  138OSM   H15S15079   1.772   2.523  -0.958  0.0444  1.7509 -2.1249
  138OSM   H15T15080   1.902   2.439  -0.880 -0.5214 -0.0234  0.3437
  138OSM   C16S15081   1.936   2.541  -1.082  0.0885 -0.6980  0.1160
  138OSM   H16S15082   2.046   2.530  -1.080  0.3641  1.5156  2.1039
  138OSM   H16T15083   1.908   2.635  -1.134  1.9847 -0.0450  0.1960
  138OSM   C17S15084   1.896   2.430  -1.181  0.2629  0.4882 -0.3996
  138OSM   H17S15085   1.788   2.448  -1.200 -0.0908 -0.9164  0.1863
  138OSM   H17T15086   1.906   2.336  -1.122 -1.8534  0.8561  0.6373
  138OSM   C18S15087   1.978   2.432  -1.302  0.6296 -0.5973  0.0789
  138OSM   H18S15088   2.088   2.438  -1.289  0.6891  3.8633 -0.8180
  138OSM   H18T15089   1.960   2.521  -1.367  1.1312 -1.3446 -1.1125
  138OSM   H18U15090   1.945   2.359  -1.380 -1.1187  1.0486 -0.8198
  138OSM    C1F15091   2.221   2.380   0.009 -0.0367  0.4784  0.1344
  138OSM     OF15092   2.224   2.274   0.070  0.4119  0.8432 -0.6892
  138OSM    C2F15093   2.196   2.396  -0.140  0.4711  0.5442 -0.2020
  138OSM    H2F15094   2.263   2.478  -0.171  0.4070  1.3859  1.7467
  138OSM    H2G15095   2.089   2.422  -0.159 -0.2021 -1.2393  0.8833
  138OSM    C3F15096   2.219   2.267  -0.224 -0.7555 -0.0846  0.0195
  138OSM    H3F15097   2.150   2.186  -0.193 -0.1684 -0.8013 -0.5137
  138OSM    H3G15098   2.318   2.224  -0.199 -1.3157 -1.4294  0.0126
  138OSM    C4F15099   2.203   2.288  -0.373  0.6954  0.6297 -0.3816
  138OSM    H4F15100   2.272   2.370  -0.404  2.3464 -0.2931  0.6811
  138OSM    H4G15101   2.105   2.327  -0.407  0.6970  0.1450 -0.9558
  138OSM    C5F15102   2.227   2.157  -0.450 -0.1056 -0.1982 -0.6645
  138OSM    H5F15103   2.146   2.085  -0.426  1.3466 -1.3850  0.8109
  138OSM    H5G15104   2.326   2.114  -0.424  0.3256 -1.2782 -3.7162
  138OSM    C6F15105   2.212   2.174  -0.606 -0.2799 -0.3115 -0.5026
  138OSM    H6F15106   2.110   2.200  -0.641  0.2419 -1.0053 -2.7613
  138OSM    H6G15107   2.226   2.074  -0.653 -0.9659  0.2338 -1.9469
  138OSM    C7F15108   2.315   2.284  -0.650  0.6883 -0.4031  0.1898
  138OSM    H7F15109   2.398   2.284  -0.576 -1.7180 -0.7655  3.0381
  138OSM    H7G15110   2.258   2.380  -0.646  0.7962 -0.3793  1.8184
  138OSM    C8F15111   2.378   2.255  -0.787  0.3274 -0.8764 -0.7103
  138OSM    H8F15112   2.429   2.156  -0.793  1.6193 -0.1649 -2.4581
  138OSM    H8G15113   2.468   2.318  -0.796  1.1692 -2.2309 -2.5843
  138OSM    C9F15114   2.274   2.266  -0.900 -0.3443 -0.0895 -0.0333
  138OSM    H9F15115   2.183   2.324  -0.882 -0.2788 -0.9151  3.8608
  138OSM   C10F15116   2.295   2.207  -1.020  0.2695  0.5197  1.2630
  138OSM   H10F15117   2.217   2.227  -1.096 -0.7210 -1.4099  1.7068
  138OSM   C11F15118   2.417   2.132  -1.074  0.3495  0.1964  0.1966
  138OSM   H11F15119   2.385   2.036  -1.120 -0.3009  0.5140 -0.0266
  138OSM   H11G15120   2.488   2.108  -0.992 -0.9748 -1.7994  0.8235
  138OSM   C12F15121   2.488   2.211  -1.186 -0.5832 -0.0522 -0.2928
  138OSM   H12F15122   2.581   2.161  -1.220 -0.3977  1.1642 -1.6581
  138OSM   H12G15123   2.511   2.316  -1.157 -1.6667  0.1778 -0.1981
  138OSM   C13F15124   2.410   2.212  -1.321  0.6603 -0.4190 -0.2530
  138OSM   H13F15125   2.324   2.283  -1.320 -0.0219 -1.1968 -1.3809
  138OSM   H13G15126   2.367   2.114  -1.349  0.1637  0.0526 -1.1797
  138OSM   C14F15127   2.512   2.259  -1.427 -0.0709  0.2634  0.8593
  138OSM   H14F15128   2.473   2.234  -1.528 -0.0275  1.3677  0.5548
  138OSM   H14G15129   2.603   2.196  -1.424 -1.1725 -1.3616  1.0767
  138OSM   C15F15130   2.546   2.410  -1.423 -0.2859 -0.0868 -0.4897
  138OSM   H15F15131   2.649   2.433  -1.457  0.3791 -0.2020  1.3618
  138OSM   H15G15132   2.530   2.457  -1.324  3.0541 -1.0161  0.6265
  138OSM   C16F15133   2.449   2.482  -1.530 -0.5967 -0.0503 -0.4102
  138OSM   H16F15134   2.351   2.432  -1.515 -0.2872 -1.1482 -1.7899
  138OSM   H16G15135   2.483   2.452  -1.632 -2.2321  2.3675 -1.7540
  138OSM   C17F15136   2.429   2.634  -1.515  1.4517  0.5907 -0.2224
  138OSM   H17F15137   2.366   2.653  -1.605 -0.4427  0.5125  1.0334
  138OSM   H17G15138   2.522   2.691  -1.536  1.9396 -0.8135 -2.1756
  138OSM   C18F15139   2.368   2.676  -1.386 -0.0974 -0.3963 -0.3330
  138OSM   H18F15140   2.272   2.621  -1.374  0.0116 -0.3336  0.9961
  138OSM   H18G15141   2.326   2.779  -1.389 -1.3433 -0.8608  0.2291
  138OSM   H18H15142   2.439   2.663  -1.301  3.1528 -0.5941 -2.8691
  139OSM      N15143   6.113   4.612   0.761  0.1656  1.3819 -0.0271
  139OSM    C1515144   6.180   4.551   0.639  0.8765 -0.4523 -0.4575
  139OSM   H15A15145   6.286   4.564   0.653  0.7952  0.5324 -0.6661
  139OSM   H15B15146   6.151   4.581   0.540  0.9739 -1.7020 -0.8756
  139OSM   H15C15147   6.181   4.444   0.629 -1.3702 -0.5123 -0.6298
  139OSM    C1415148   6.167   4.548   0.884 -0.0547  0.0510 -0.2419
  139OSM   H14A15149   6.156   4.441   0.882  1.6479 -0.1734  0.4796
  139OSM   H14B15150   6.131   4.601   0.971 -0.3504  0.3011 -0.5170
  139OSM   H14C15151   6.275   4.558   0.889  0.1972 -2.0899 -0.4288
  139OSM    C1315152   6.137   4.752   0.772  0.4738  0.4683  0.2912
  139OSM   H13A15153   6.241   4.777   0.788  0.8715 -1.7026  1.4526
  139OSM   H13B15154   6.078   4.799   0.850 -0.2278  2.1278 -1.1577
  139OSM   H13C15155   6.098   4.796   0.681 -1.1779 -0.1076  0.6842
  139OSM    C1215156   5.966   4.584   0.737 -0.0762  0.5701  0.2066
  139OSM   H12A15157   5.911   4.611   0.826 -1.0014 -2.4070  0.6549
  139OSM   H12B15158   5.946   4.479   0.722 -1.7646  1.1404 -2.1050
  139OSM    C1115159   5.898   4.660   0.620 -0.9168  0.7268  0.2889
  139OSM   H11A15160   5.809   4.605   0.583 -0.2054  1.1679 -2.3012
  139OSM   H11B15161   5.972   4.669   0.537 -0.0425 -1.9349  0.6977
  139OSM      P15162   5.719   4.821   0.707  0.0550 -0.3906 -0.3320
  139OSM    O1315163   5.698   4.744   0.834 -0.0851 -0.2768  0.2077
  139OSM    O1415164   5.687   4.964   0.719 -0.1743 -0.2299 -0.3689
  139OSM    O1115165   5.645   4.755   0.583  0.4180  0.0564 -0.3794
  139OSM    O1215166   5.872   4.789   0.665 -0.4105  0.2489  0.0083
  139OSM    C1S15167   5.678   4.815   0.455 -0.1986  0.2757  0.8081
  139OSM    H1S15168   5.785   4.809   0.428 -0.0657  0.8052  1.1956
  139OSM    H1T15169   5.637   4.918   0.446  2.9613  1.4705 -1.9113
  139OSM     NF15170   5.632   4.834   0.216 -0.1587 -0.5617  0.5890
  139OSM    HNF15171   5.559   4.900   0.204  0.4476 -0.1319 -0.9681
  139OSM    C2S15172   5.611   4.741   0.323 -0.2293  0.3570  0.0581
  139OSM    H2S15173   5.668   4.648   0.305  0.7838  1.6173 -4.4259
  139OSM    C3S15174   5.464   4.706   0.347 -0.0335 -0.0093  0.3978
  139OSM    H3S15175   5.399   4.795   0.363  2.1049  1.7622 -0.3621
  139OSM     O315176   5.449   4.635   0.473 -0.9540  0.4475 -0.0016
  139OSM    HO315177   5.521   4.671   0.525  0.5471 -1.0414 -0.9220
  139OSM    C4S15178   5.406   4.626   0.234 -0.1492  0.0715  0.3967
  139OSM    H4S15179   5.354   4.677   0.153 -3.2304 -0.5974  1.8108
  139OSM    C5S15180   5.401   4.491   0.235  0.2931 -0.4211  0.0335
  139OSM    H5S15181   5.425   4.434   0.325 -0.0536 -0.9870 -0.2234
  139OSM    C6S15182   5.339   4.416   0.121 -0.3265  0.7977  0.2488
  139OSM    H6S15183   5.258   4.476   0.075 -1.8106  0.6502  2.5316
  139OSM    H6T15184   5.294   4.319   0.150  1.9811 -1.0466 -1.8060
  139OSM    C7S15185   5.438   4.374   0.007  0.3268 -0.9822  0.5120
  139OSM    H7S15186   5.472   4.273   0.039  0.2202 -1.1140  0.2097
  139OSM    H7T15187   5.515   4.453   0.000  1.7222 -2.1901  1.6213
  139OSM    C8S15188   5.366   4.354  -0.128  0.4867  0.3705 -0.7012
  139OSM    H8S15189   5.326   4.445  -0.177  1.5549  0.3952 -1.5807
  139OSM    H8T15190   5.273   4.297  -0.108 -0.1666  1.8754  0.8326
  139OSM    C9S15191   5.440   4.286  -0.234 -0.1393  0.0151 -0.2026
  139OSM    H9S15192   5.479   4.192  -0.189 -2.4750 -0.0660  1.9002
  139OSM    H9T15193   5.528   4.346  -0.266 -1.3721  0.5138 -2.9492
  139OSM   C10S15194   5.350   4.260  -0.347  0.1595  0.4988  0.1245
  139OSM   H10S15195   5.332   4.355  -0.401  2.8250  1.0267  0.0650
  139OSM   H10T15196   5.243   4.233  -0.329 -0.7428  2.7715 -1.3947
  139OSM   C11S15197   5.413   4.171  -0.444  0.1858 -0.3051  0.1709
  139OSM   H11S15198   5.427   4.068  -0.403 -0.7958 -0.6667 -0.3534
  139OSM   H11T15199   5.510   4.218  -0.471 -0.1688  1.0448  1.1676
  139OSM   C12S15200   5.321   4.161  -0.570 -0.1362 -0.1737  0.3187
  139OSM   H12S15201   5.284   4.259  -0.606 -1.1309 -0.6938 -0.1069
  139OSM   H12T15202   5.238   4.089  -0.552 -0.7931  0.4090 -0.3020
  139OSM   C13S15203   5.410   4.116  -0.689 -0.6764  0.4999 -0.2348
  139OSM   H13S15204   5.439   4.012  -0.664 -1.3517  0.4651  0.4476
  139OSM   H13T15205   5.504   4.176  -0.688 -0.2186 -0.2114  1.1640
  139OSM   C14S15206   5.346   4.117  -0.827  0.1243  0.4711  0.3938
  139OSM   H14S15207   5.298   4.215  -0.849  0.1687  0.1471 -1.2674
  139OSM   H14T15208   5.266   4.042  -0.843  0.4979 -0.3331  2.0265
  139OSM   C15S15209   5.449   4.087  -0.940  0.5502 -0.9095 -0.4455
  139OSM   H15S15210   5.429   3.985  -0.977 -0.2443 -0.0591 -2.5634
  139OSM   H15T15211   5.554   4.083  -0.904  0.8632 -1.5054 -1.3953
  139OSM   C16S15212   5.421   4.169  -1.074 -0.6319  0.3767 -0.3064
  139OSM   H16S15213   5.445   4.273  -1.046  0.0116  1.1142 -3.2121
  139OSM   H16T15214   5.313   4.154  -1.096 -0.7907 -0.3285  0.8527
  139OSM   C17S15215   5.502   4.132  -1.201 -0.1033  0.1796  0.7034
  139OSM   H17S15216   5.473   4.206  -1.279  1.9856  0.1587 -0.1603
  139OSM   H17T15217   5.486   4.030  -1.243  1.7569  0.3626 -0.5851
  139OSM   C18S15218   5.656   4.135  -1.188  0.1913 -0.1306 -0.2417
  139OSM   H18S15219   5.684   4.045  -1.128  1.4238  0.7676  0.5631
  139OSM   H18T15220   5.690   4.232  -1.148  1.2524 -0.7037  0.2907
  139OSM   H18U15221   5.694   4.123  -1.292  0.0999  3.0315 -0.7344
  139OSM    C1F15222   5.761   4.865   0.170  0.0602  0.4786 -0.2107
  139OSM     OF15223   5.860   4.793   0.202  0.1131 -0.1405 -0.0527
  139OSM    C2F15224   5.780   4.984   0.091 -0.3824 -0.4333 -0.2841
  139OSM    H2F15225   5.874   5.035   0.119  0.0528 -1.1027 -0.5180
  139OSM    H2G15226   5.697   5.058   0.100  0.5029  0.5263  0.1877
  139OSM    C3F15227   5.779   4.933  -0.056  0.4877  0.3847  0.3264
  139OSM    H3F15228   5.692   4.866  -0.074 -0.5709  1.4182  1.4199
  139OSM    H3G15229   5.878   4.884  -0.067  0.1583  0.0627 -1.5461
  139OSM    C4F15230   5.767   5.056  -0.156 -0.2633 -0.3240 -0.0333
  139OSM    H4F15231   5.839   5.134  -0.124 -0.2749 -0.1757 -0.3685
  139OSM    H4G15232   5.668   5.102  -0.136 -0.2185 -0.2268 -0.0361
  139OSM    C5F15233   5.776   5.019  -0.303 -0.6548  0.2844  0.5892
  139OSM    H5F15234   5.696   4.947  -0.330 -2.3262  2.3374 -0.2819
  139OSM    H5G15235   5.870   4.968  -0.332 -0.0914  0.9644  1.1808
  139OSM    C6F15236   5.764   5.139  -0.398  0.1425 -0.0191 -0.4721
  139OSM    H6F15237   5.846   5.213  -0.381  1.1904 -1.2717  0.1136
  139OSM    H6G15238   5.660   5.174  -0.380 -0.3091 -1.2787 -0.5502
  139OSM    C7F15239   5.760   5.100  -0.551  0.6174 -0.1572 -0.1978
  139OSM    H7F15240   5.725   5.192  -0.601  0.8586  0.8510  1.4062
  139OSM    H7G15241   5.687   5.016  -0.562  0.2898 -0.6414  4.0108
  139OSM    C8F15242   5.891   5.048  -0.608 -0.4241 -0.6910  0.1172
  139OSM    H8F15243   5.911   4.955  -0.551 -2.7191 -1.0881  0.3710
  139OSM    H8G15244   5.970   5.124  -0.593  1.0989 -1.6250 -2.4949
  139OSM    C9F15245   5.881   5.022  -0.759  0.6628 -0.2754 -0.1937
  139OSM    H9F15246   5.802   5.088  -0.797  0.1732  1.3293  3.1839
  139OSM   C10F15247   5.951   4.940  -0.836  0.2072 -0.4696 -0.3122
  139OSM   H10F15248   5.922   4.931  -0.942  0.8648  0.1965 -0.5565
  139OSM   C11F15249   6.055   4.843  -0.780  0.0499 -0.4423 -0.4183
  139OSM   H11F15250   6.046   4.829  -0.670  1.0574  3.1079  0.2317
  139OSM   H11G15251   6.152   4.895  -0.792  0.2477 -1.1078 -1.9960
  139OSM   C12F15252   6.060   4.714  -0.864 -0.6781  0.1961 -0.7840
  139OSM   H12F15253   5.959   4.668  -0.853 -0.4857 -0.0275  0.1122
  139OSM   H12G15254   6.126   4.638  -0.817 -1.2292  0.7239  0.9113
  139OSM   C13F15255   6.114   4.725  -1.008  0.2659  0.2065 -0.1439
  139OSM   H13F15256   6.222   4.745  -0.993  0.3016  0.3792 -0.5972
  139OSM   H13G15257   6.069   4.807  -1.069  0.1756  0.0703 -0.2608
  139OSM   C14F15258   6.105   4.590  -1.084 -0.0191  0.5685 -0.0406
  139OSM   H14F15259   5.999   4.573  -1.113  0.5075  0.7958 -2.3337
  139OSM   H14G15260   6.154   4.511  -1.023  0.4918 -0.8809 -2.2033
  139OSM   C15F15261   6.195   4.590  -1.207  0.6173  0.4645 -0.7534
  139OSM   H15F15262   6.302   4.608  -1.181 -0.5173  1.5970  4.0556
  139OSM   H15G15263   6.154   4.678  -1.260 -1.3612  0.8300  1.2564
  139OSM   C16F15264   6.164   4.469  -1.297  0.3784  0.1623 -0.3302
  139OSM   H16F15265   6.054   4.459  -1.310  0.2140  1.7485 -0.3562
  139OSM   H16G15266   6.199   4.382  -1.237  2.2857  2.1423  1.6199
  139OSM   C17F15267   6.239   4.483  -1.434 -0.2583  0.0273  0.4225
  139OSM   H17F15268   6.338   4.522  -1.402 -0.4183  2.5257 -1.7701
  139OSM   H17G15269   6.200   4.569  -1.493  0.8136  1.0787  1.2020
  139OSM   C18F15270   6.251   4.354  -1.523  0.0941 -0.5432 -0.1191
  139OSM   H18F15271   6.303   4.269  -1.473  1.5165 -0.3045 -1.1410
  139OSM   H18G15272   6.305   4.378  -1.617 -1.8877  1.0914 -0.9309
  139OSM   H18H15273   6.151   4.319  -1.556 -0.3006 -1.0844  1.5185
  140OSM      N15274   3.911   4.377   0.652  0.4406 -0.4630 -0.5396
  140OSM    C1515275   3.996   4.352   0.775 -0.2511 -0.7450  0.3919
  140OSM   H15A15276   4.006   4.245   0.779 -1.5240 -0.8662  0.6093
  140OSM   H15B15277   3.941   4.383   0.863  0.1398  1.5822 -0.1027
  140OSM   H15C15278   4.092   4.401   0.781 -0.7166  0.3395 -0.5678
  140OSM    C1415279   3.776   4.316   0.676  0.3555  0.8976 -0.0457
  140OSM   H14A15280   3.731   4.354   0.767  0.9327  1.2769  0.0929
  140OSM   H14B15281   3.786   4.209   0.681 -1.7690  0.7273  2.5995
  140OSM   H14C15282   3.710   4.335   0.593 -0.0130  1.9207  0.4575
  140OSM    C1315283   3.883   4.524   0.636 -0.0380 -0.1321 -0.3470
  140OSM   H13A15284   3.978   4.575   0.637  0.6699 -1.4118 -0.6347
  140OSM   H13B15285   3.829   4.560   0.723 -0.6954 -2.6166  0.3612
  140OSM   H13C15286   3.833   4.534   0.541  1.5869  2.1858 -1.0477
  140OSM    C1215287   3.957   4.326   0.518  0.1995 -0.1383  0.0662
  140OSM   H12A15288   4.044   4.386   0.496 -0.1099  0.9464  1.5810
  140OSM   H12B15289   3.881   4.344   0.443 -1.3281  0.7756  1.7420
  140OSM    C1115290   4.000   4.179   0.510  0.5509  0.4311 -0.2275
  140OSM   H11A15291   4.065   4.155   0.597 -1.2159  0.6975  1.2234
  140OSM   H11B15292   4.060   4.160   0.419 -0.9655  0.2073 -1.2206
  140OSM      P15293   3.770   4.085   0.431 -0.5009  0.1110 -0.4248
  140OSM    O1315294   3.670   3.987   0.478 -0.4012  0.2292 -0.4657
  140OSM    O1415295   3.725   4.221   0.407  0.6009  0.1469 -0.2115
  140OSM    O1115296   3.841   4.038   0.299  0.1973  0.6022  0.0464
  140OSM    O1215297   3.886   4.091   0.528  0.4903  1.0923 -0.1291
  140OSM    C1S15298   3.920   3.919   0.285 -0.0347  0.4277  0.4704
  140OSM    H1S15299   3.862   3.828   0.311  0.2969  0.2580  0.6159
  140OSM    H1T15300   4.007   3.917   0.353 -1.1880 -0.2681  1.9810
  140OSM     NF15301   4.043   3.787   0.135  0.1323  0.2439  0.8857
  140OSM    HNF15302   4.140   3.790   0.157  0.7314 -2.4962 -0.9436
  140OSM    C2S15303   3.968   3.905   0.140 -0.7736  0.4081  0.0034
  140OSM    H2S15304   3.885   3.892   0.067 -0.2590 -1.1802 -0.3399
  140OSM    C3S15305   4.043   4.037   0.095  0.0789  0.1359 -0.0204
  140OSM    H3S15306   4.122   4.054   0.171 -1.0337 -0.0493  1.2080
  140OSM     O315307   3.962   4.159   0.111 -0.0042  0.0518  0.3570
  140OSM    HO315308   3.891   4.129   0.168 -0.0159 -0.9360 -0.1489
  140OSM    C4S15309   4.098   4.018  -0.042  0.2523 -0.8294  0.2885
  140OSM    H4S15310   4.034   4.048  -0.126  0.9371 -1.6098 -0.5375
  140OSM    C5S15311   4.223   3.989  -0.070  0.1640  0.9082 -0.1077
  140OSM    H5S15312   4.276   3.948   0.017 -1.1867 -1.0613 -0.1313
  140OSM    C6S15313   4.291   3.980  -0.202 -0.0293 -0.0053  0.9912
  140OSM    H6S15314   4.351   3.886  -0.194 -3.8353 -2.8039 -0.3763
  140OSM    H6T15315   4.370   4.055  -0.223  0.1729  0.3896  2.9001
  140OSM    C7S15316   4.213   3.964  -0.333  0.2746  0.4591  0.9261
  140OSM    H7S15317   4.158   4.058  -0.355 -2.0118 -0.6443  1.5518
  140OSM    H7T15318   4.136   3.886  -0.314 -1.9784  2.1708 -0.6844
  140OSM    C8S15319   4.307   3.928  -0.450  0.2848 -0.1635 -0.3684
  140OSM    H8S15320   4.334   3.821  -0.442 -2.8132 -0.9334  1.3384
  140OSM    H8T15321   4.404   3.981  -0.440  0.3201 -0.7098  3.3146
  140OSM    C9S15322   4.248   3.955  -0.584 -0.3624 -0.4523  0.2260
  140OSM    H9S15323   4.218   4.061  -0.590  1.6384  0.2096  1.1459
  140OSM    H9T15324   4.166   3.882  -0.603 -0.3002 -0.2394 -0.8798
  140OSM   C10S15325   4.337   3.933  -0.708 -0.2719  0.5447  0.1349
  140OSM   H10S15326   4.427   3.997  -0.700 -0.9210  1.4735  0.0709
  140OSM   H10T15327   4.282   3.973  -0.796 -1.7255 -2.3376 -0.4135
  140OSM   C11S15328   4.385   3.791  -0.744 -0.1402 -0.5891  0.6381
  140OSM   H11S15329   4.297   3.729  -0.773 -0.0252 -1.4447  1.9874
  140OSM   H11T15330   4.429   3.739  -0.656 -1.1405 -0.4043  1.2726
  140OSM   C12S15331   4.489   3.814  -0.853 -0.2638  0.2623 -0.0058
  140OSM   H12S15332   4.576   3.870  -0.812  1.4105 -1.0856 -1.5521
  140OSM   H12T15333   4.437   3.872  -0.933  0.1610  0.9341  0.1906
  140OSM   C13S15334   4.517   3.682  -0.920 -0.3235  0.1490  0.1240
  140OSM   H13S15335   4.425   3.630  -0.953 -0.4765  0.5026 -0.0045
  140OSM   H13T15336   4.573   3.611  -0.855  0.6016  0.6348 -0.1287
  140OSM   C14S15337   4.604   3.702  -1.044  0.0972  0.0512 -0.3273
  140OSM   H14S15338   4.696   3.758  -1.017  0.3066  0.9171 -2.6177
  140OSM   H14T15339   4.542   3.769  -1.108 -0.8289 -0.3033  0.1830
  140OSM   C15S15340   4.663   3.580  -1.118  0.5602 -0.4735 -1.1998
  140OSM   H15S15341   4.584   3.515  -1.162  0.4681 -1.1196 -0.1153
  140OSM   H15T15342   4.713   3.515  -1.043  0.5081  1.4797  0.6070
  140OSM   C16S15343   4.752   3.621  -1.231  0.3059  0.2743 -0.4017
  140OSM   H16S15344   4.829   3.685  -1.182 -0.8590  0.8842  0.7103
  140OSM   H16T15345   4.694   3.687  -1.299 -0.5803 -0.3720 -0.2950
  140OSM   C17S15346   4.803   3.499  -1.302  0.2247 -0.8829  0.5396
  140OSM   H17S15347   4.855   3.542  -1.390 -0.0653 -1.8666 -0.1221
  140OSM   H17T15348   4.733   3.429  -1.351 -0.9015  0.7826 -0.3329
  140OSM   C18S15349   4.907   3.428  -1.231 -0.2088 -0.3013  0.4549
  140OSM   H18S15350   4.866   3.360  -1.153 -2.5207  1.8141  1.1977
  140OSM   H18T15351   4.973   3.496  -1.175 -0.5258  0.6757 -0.3271
  140OSM   H18U15352   4.969   3.368  -1.301  1.2192  0.9897  0.5809
  140OSM    C1F15353   3.994   3.659   0.120  0.1750 -0.5555  0.1648
  140OSM     OF15354   3.889   3.648   0.067  0.4158  0.8273 -0.6406
  140OSM    C2F15355   4.066   3.540   0.173  0.3569  0.3236 -0.2346
  140OSM    H2F15356   4.029   3.449   0.121  2.3577  0.1507 -1.4601
  140OSM    H2G15357   4.051   3.535   0.283 -0.8037 -2.0384 -0.4483
  140OSM    C3F15358   4.219   3.542   0.138  0.3396 -0.0144  0.5477
  140OSM    H3F15359   4.251   3.437   0.156  0.3899 -0.0122  0.4736
  140OSM    H3G15360   4.272   3.611   0.207  1.0283  0.7785 -0.7176
  140OSM    C4F15361   4.262   3.578  -0.009 -0.2568  0.4326  0.0433
  140OSM    H4F15362   4.372   3.570  -0.021 -0.5034 -1.2993 -1.5273
  140OSM    H4G15363   4.227   3.673  -0.056  2.4649  0.4396 -2.2919
  140OSM    C5F15364   4.211   3.470  -0.108  0.1849  0.3403  0.5344
  140OSM    H5F15365   4.103   3.479  -0.132  0.3428 -0.5875 -0.5668
  140OSM    H5G15366   4.228   3.374  -0.055  0.0104 -0.6552 -1.1633
  140OSM    C6F15367   4.279   3.468  -0.241 -0.3898 -0.3646  0.6204
  140OSM    H6F15368   4.388   3.479  -0.221 -0.5089  3.6859 -0.0790
  140OSM    H6G15369   4.246   3.555  -0.303  0.9942 -0.4162 -0.2364
  140OSM    C7F15370   4.249   3.345  -0.305  0.4917  0.3311 -0.0770
  140OSM    H7F15371   4.139   3.329  -0.304  0.1743  2.2842  0.4820
  140OSM    H7G15372   4.295   3.259  -0.252  0.1707 -0.8491 -1.6435
  140OSM    C8F15373   4.288   3.321  -0.455  0.3486 -0.4054 -0.1559
  140OSM    H8F15374   4.260   3.215  -0.474 -0.3992 -0.5749  1.6641
  140OSM    H8G15375   4.398   3.332  -0.450  0.2852 -0.2516  1.0822
  140OSM    C9F15376   4.210   3.402  -0.557  0.2341  0.2120 -0.6438
  140OSM    H9F15377   4.133   3.467  -0.513  0.7219  0.3337  0.0454
  140OSM   C10F15378   4.236   3.410  -0.688  0.4558 -0.8088  0.0306
  140OSM   H10F15379   4.165   3.463  -0.754 -1.3094 -2.6288  0.3469
  140OSM   C11F15380   4.352   3.358  -0.768 -0.4716 -0.4600 -0.5960
  140OSM   H11F15381   4.435   3.345  -0.694  0.9510  1.0608 -1.8397
  140OSM   H11G15382   4.387   3.426  -0.849 -0.7765  1.1593  0.5960
  140OSM   C12F15383   4.327   3.218  -0.817 -0.2119 -0.6855 -0.5810
  140OSM   H12F15384   4.240   3.219  -0.887  1.2240 -2.4741 -2.5127
  140OSM   H12G15385   4.305   3.145  -0.737 -0.0304  0.2060  0.3097
  140OSM   C13F15386   4.446   3.173  -0.904  0.6522 -0.2096  0.3917
  140OSM   H13F15387   4.462   3.065  -0.889  0.8077 -0.0025  1.8138
  140OSM   H13G15388   4.537   3.220  -0.861  1.1794  1.1876 -2.0386
  140OSM   C14F15389   4.429   3.188  -1.053 -0.4612 -0.4696 -0.3752
  140OSM   H14F15390   4.380   3.287  -1.069 -1.2771 -0.8015  0.0054
  140OSM   H14G15391   4.363   3.112  -1.100  0.3038 -1.7243  0.5299
  140OSM   C15F15392   4.568   3.171  -1.120  0.0293  0.2394 -0.0632
  140OSM   H15F15393   4.647   3.234  -1.073  1.2885 -0.7557 -0.7623
  140OSM   H15G15394   4.545   3.208  -1.222 -0.8683  1.0010  0.4021
  140OSM   C16F15395   4.626   3.029  -1.132 -0.6100 -0.1897  0.2346
  140OSM   H16F15396   4.545   2.956  -1.149 -0.9077  0.4280 -1.1062
  140OSM   H16G15397   4.665   2.997  -1.033  0.1305 -0.0554 -0.0088
  140OSM   C17F15398   4.725   3.024  -1.246  0.3978 -0.9931  0.8242
  140OSM   H17F15399   4.794   3.111  -1.240  0.2793 -0.6438 -1.7840
  140OSM   H17G15400   4.673   3.029  -1.345  2.1629 -2.8112 -0.2764
  140OSM   C18F15401   4.794   2.893  -1.262 -0.0605 -0.7799  0.0176
  140OSM   H18F15402   4.723   2.817  -1.302  0.3152 -1.2204  0.1819
  140OSM   H18G15403   4.832   2.855  -1.164  1.0049 -0.0595 -0.1052
  140OSM   H18H15404   4.877   2.906  -1.334 -1.2683 -1.4166 -1.5509
  141OSM      N15405   4.670   2.735   1.159 -0.0364 -0.1087  0.6175
  141OSM    C1515406   4.701   2.586   1.150  0.2484 -0.7311 -0.3274
  141OSM   H15A15407   4.666   2.555   1.053 -3.2102  1.0389  0.1859
  141OSM   H15B15408   4.636   2.537   1.221 -0.0150  1.1871  0.8392
  141OSM   H15C15409   4.805   2.566   1.172 -0.2039 -2.5985  0.2977
  141OSM    C1415410   4.523   2.746   1.122 -0.5735 -0.4663  0.5408
  141OSM   H14A15411   4.459   2.700   1.196  0.8255  1.3545  3.0327
  141OSM   H14B15412   4.516   2.713   1.019 -0.0824 -1.1783  0.7265
  141OSM   H14C15413   4.500   2.851   1.121  2.2104  0.3025 -2.7707
  141OSM    C1315414   4.689   2.805   1.292 -0.6142 -0.1815  0.8931
  141OSM   H13A15415   4.644   2.752   1.375  2.2071 -0.0042  2.6611
  141OSM   H13B15416   4.644   2.903   1.285  4.3757  2.3652 -0.0607
  141OSM   H13C15417   4.793   2.825   1.311 -0.1669 -2.4550  1.1132
  141OSM    C1215418   4.746   2.800   1.048  0.0610 -0.2055 -0.9862
  141OSM   H12A15419   4.848   2.813   1.080 -0.5890 -0.2138  1.2417
  141OSM   H12B15420   4.709   2.902   1.040  2.1444  0.5023 -2.3687
  141OSM    C1115421   4.730   2.759   0.904 -0.7004 -0.2086  0.1026
  141OSM   H11A15422   4.756   2.842   0.835 -2.5991 -0.2720 -0.7673
  141OSM   H11B15423   4.621   2.744   0.887 -0.6066 -0.8260  0.0096
  141OSM      P15424   4.953   2.632   0.852 -0.0023  0.2977  0.3678
  141OSM    O1315425   4.994   2.771   0.837 -0.5011  0.1010  0.0652
  141OSM    O1415426   5.026   2.551   0.953  0.8448 -0.2737  0.5171
  141OSM    O1115427   4.963   2.560   0.710 -0.3638  0.3391  0.6191
  141OSM    O1215428   4.796   2.628   0.877  0.3858 -0.2947 -0.5256
  141OSM    C1S15429   4.891   2.616   0.600  0.4062  0.1221  0.5787
  141OSM    H1S15430   4.914   2.721   0.573  2.2843 -0.1401  1.0644
  141OSM    H1T15431   4.781   2.614   0.617  0.3189 -0.2594  0.0044
  141OSM     NF15432   4.839   2.600   0.366  0.2357  0.2207 -0.1755
  141OSM    HNF15433   4.756   2.552   0.341 -1.1264  1.2721  1.9932
  141OSM    C2S15434   4.909   2.529   0.467 -0.6075  0.1795 -0.7783
  141OSM    H2S15435   5.018   2.524   0.442 -0.8795 -1.7420 -1.7969
  141OSM    C3S15436   4.857   2.383   0.488 -0.6394 -0.4421 -0.0035
  141OSM    H3S15437   4.751   2.374   0.519 -0.2169 -0.0981  1.5989
  141OSM     O315438   4.913   2.309   0.597 -0.4749 -0.4469 -0.3749
  141OSM    HO315439   4.958   2.370   0.656 -0.8381 -2.2235  1.8876
  141OSM    C4S15440   4.875   2.311   0.362  0.5370  0.4953 -0.0490
  141OSM    H4S15441   4.799   2.329   0.285  0.7720  0.8713 -0.1933
  141OSM    C5S15442   4.978   2.230   0.329 -0.1849  0.0521  0.0299
  141OSM    H5S15443   5.073   2.226   0.385 -0.8911  2.3401  1.5020
  141OSM    C6S15444   4.997   2.169   0.197  0.4398  0.2591 -0.1776
  141OSM    H6S15445   5.005   2.059   0.206  0.2696  0.2437 -0.2172
  141OSM    H6T15446   5.093   2.204   0.155 -0.5200  2.7228 -0.5144
  141OSM    C7S15447   4.897   2.211   0.084  0.1792  0.0082  0.3029
  141OSM    H7S15448   4.889   2.322   0.078  0.5928 -0.0346 -1.5256
  141OSM    H7T15449   4.794   2.187   0.117 -0.6606 -0.8729 -2.7055
  141OSM    C8S15450   4.918   2.133  -0.043  0.6392  0.7611  1.0299
  141OSM    H8S15451   4.903   2.028  -0.010 -4.0711  1.2238  1.0622
  141OSM    H8T15452   5.018   2.152  -0.089  1.0164 -1.1297  0.9658
  141OSM    C9S15453   4.800   2.155  -0.144 -0.1188  0.4267  0.1257
  141OSM    H9S15454   4.779   2.263  -0.162 -0.1557  0.6427  1.3543
  141OSM    H9T15455   4.706   2.116  -0.098 -0.4018  1.5374  0.5247
  141OSM   C10S15456   4.819   2.083  -0.274 -0.7186  0.1497 -1.6573
  141OSM   H10S15457   4.727   2.095  -0.335 -1.2770  0.9820 -0.6818
  141OSM   H10T15458   4.838   1.978  -0.243  2.1305  1.2257  0.6888
  141OSM   C11S15459   4.940   2.129  -0.361  0.4950  1.2787 -0.4163
  141OSM   H11S15460   5.031   2.118  -0.298 -1.8328 -0.6039  2.8853
  141OSM   H11T15461   4.928   2.237  -0.382  3.7198  2.1620  1.6077
  141OSM   C12S15462   4.947   2.047  -0.493 -0.1317  0.0424 -0.3813
  141OSM   H12S15463   4.860   2.066  -0.559  0.3978  0.7409 -0.8854
  141OSM   H12T15464   4.956   1.939  -0.469  1.9383  0.2642 -0.0124
  141OSM   C13S15465   5.071   2.083  -0.567  0.5461 -0.2041 -0.3795
  141OSM   H13S15466   5.166   2.051  -0.519  0.9297  1.1950 -0.1662
  141OSM   H13T15467   5.072   2.193  -0.582  0.9079 -0.2265 -0.5299
  141OSM   C14S15468   5.077   2.012  -0.706 -0.1254  0.4104  0.2101
  141OSM   H14S15469   4.985   2.035  -0.763  0.1520  0.0597 -0.3906
  141OSM   H14T15470   5.072   1.901  -0.706  0.3690  0.3846  0.4088
  141OSM   C15S15471   5.203   2.056  -0.784 -0.5303  0.8994 -0.0466
  141OSM   H15S15472   5.291   2.044  -0.718 -1.7813  1.2695  1.7610
  141OSM   H15T15473   5.183   2.164  -0.797  0.5782  0.8643 -2.6984
  141OSM   C16S15474   5.223   1.977  -0.919  0.5594 -0.3970 -0.0972
  141OSM   H16S15475   5.128   1.953  -0.970  0.4363  0.6465 -0.3922
  141OSM   H16T15476   5.273   1.880  -0.896  2.8195  0.4530 -1.1018
  141OSM   C17S15477   5.307   2.048  -1.019 -0.1872  0.0415 -0.4034
  141OSM   H17S15478   5.255   2.144  -1.043 -2.9291 -0.4830  2.7567
  141OSM   H17T15479   5.329   1.990  -1.111 -1.0942  2.4094 -2.2345
  141OSM   C18S15480   5.450   2.101  -0.963  0.5850  0.1629  0.3592
  141OSM   H18S15481   5.483   2.034  -0.880 -0.7579  0.8759  1.5304
  141OSM   H18T15482   5.436   2.204  -0.924 -0.5095 -0.2645  1.1425
  141OSM   H18U15483   5.526   2.115  -1.042  0.2938 -2.0127 -0.3782
  141OSM    C1F15484   4.883   2.715   0.318 -0.3710  0.2512 -0.6940
  141OSM     OF15485   5.000   2.748   0.324  0.5693  0.4768 -0.3636
  141OSM    C2F15486   4.783   2.808   0.258 -0.5317 -0.9605  0.0494
  141OSM    H2F15487   4.774   2.882   0.341 -0.3015 -0.9989  0.1084
  141OSM    H2G15488   4.683   2.761   0.259 -0.9268 -0.1865 -0.7169
  141OSM    C3F15489   4.807   2.865   0.115 -0.1321 -0.3673 -0.6054
  141OSM    H3F15490   4.913   2.894   0.096 -0.5228  2.0282  0.4332
  141OSM    H3G15491   4.743   2.951   0.085  0.1290 -0.0230 -0.1996
  141OSM    C4F15492   4.787   2.758   0.003 -0.3251  0.8729  0.5162
  141OSM    H4F15493   4.702   2.694   0.037  0.3658 -0.5485 -0.3186
  141OSM    H4G15494   4.881   2.701   0.020 -0.1314  0.5190 -1.5342
  141OSM    C5F15495   4.785   2.798  -0.143  0.1742  0.0467 -0.1099
  141OSM    H5F15496   4.862   2.875  -0.166 -0.6200  0.2945 -2.2387
  141OSM    H5G15497   4.693   2.859  -0.161 -0.3953 -0.7858 -0.0672
  141OSM    C6F15498   4.789   2.689  -0.247 -0.4536  0.5292 -0.2763
  141OSM    H6F15499   4.701   2.621  -0.243 -1.0741  1.2259 -1.6038
  141OSM    H6G15500   4.869   2.616  -0.220  0.5355  0.8688 -2.1419
  141OSM    C7F15501   4.802   2.745  -0.387  0.3655 -0.3478 -0.4121
  141OSM    H7F15502   4.880   2.822  -0.373 -0.0093 -0.1331  0.5813
  141OSM    H7G15503   4.704   2.793  -0.407 -0.6693 -2.4440 -0.7319
  141OSM    C8F15504   4.831   2.643  -0.493 -0.1826 -0.5905  0.5263
  141OSM    H8F15505   4.919   2.583  -0.461  2.0123  2.0473 -0.1881
  141OSM    H8G15506   4.877   2.702  -0.576 -1.3331  0.3535  0.5284
  141OSM    C9F15507   4.720   2.555  -0.547  0.3847  0.2343 -0.1208
  141OSM    H9F15508   4.691   2.469  -0.486 -2.0685  1.7146  0.9757
  141OSM   C10F15509   4.643   2.575  -0.657  0.7265 -0.5450  0.1355
  141OSM   H10F15510   4.559   2.507  -0.673  0.5243 -0.5254  1.0970
  141OSM   C11F15511   4.659   2.686  -0.758  0.7780  0.2774 -0.9663
  141OSM   H11F15512   4.663   2.642  -0.860 -2.5242  0.9139 -1.4577
  141OSM   H11G15513   4.753   2.743  -0.738 -0.1378  1.3384  0.5582
  141OSM   C12F15514   4.542   2.788  -0.768  0.2698 -0.2165  0.1631
  141OSM   H12F15515   4.458   2.727  -0.809  0.5004 -1.0119  0.8408
  141OSM   H12G15516   4.577   2.870  -0.835  0.1310  0.4656  0.9088
  141OSM   C13F15517   4.493   2.849  -0.630  0.1910 -0.0495  0.3252
  141OSM   H13F15518   4.493   2.764  -0.558  1.8147  0.5143  1.0428
  141OSM   H13G15519   4.387   2.879  -0.644  0.0312 -1.1208 -0.9331
  141OSM   C14F15520   4.583   2.957  -0.588 -0.1490 -0.5873 -0.7630
  141OSM   H14F15521   4.581   3.031  -0.671 -0.9302 -0.9325 -1.0546
  141OSM   H14G15522   4.689   2.922  -0.583 -0.1228 -0.4493 -0.3639
  141OSM   C15F15523   4.548   3.037  -0.459  0.6415 -0.3842  0.9716
  141OSM   H15F15524   4.536   2.974  -0.369 -0.8074 -2.2780 -0.4467
  141OSM   H15G15525   4.448   3.083  -0.477 -0.1414 -2.2741  0.2525
  141OSM   C16F15526   4.658   3.143  -0.438  0.1279  0.4064  0.5876
  141OSM   H16F15527   4.657   3.206  -0.530 -0.8361  0.8796  0.9212
  141OSM   H16G15528   4.757   3.096  -0.421 -0.3169 -0.9312 -0.3628
  141OSM   C17F15529   4.628   3.242  -0.324 -0.5085  0.4398 -0.2426
  141OSM   H17F15530   4.519   3.250  -0.305 -0.6438  1.8734 -1.4184
  141OSM   H17G15531   4.669   3.340  -0.356 -1.7317 -0.1838 -4.3249
  141OSM   C18F15532   4.700   3.209  -0.194 -0.6296  0.5185 -0.1418
  141OSM   H18F15533   4.672   3.285  -0.118  2.1142  1.8465 -0.3148
  141OSM   H18G15534   4.811   3.213  -0.205 -0.7045  0.3591 -1.0656
  141OSM   H18H15535   4.673   3.106  -0.161  0.2290  0.0887 -0.7393
  142OSM      N15536   2.698   3.393   0.603 -0.2176 -0.3602 -0.2594
  142OSM    C1515537   2.567   3.466   0.617 -0.1515  0.5709 -0.2084
  142OSM   H15A15538   2.545   3.472   0.723 -0.4460  0.8988 -0.2843
  142OSM   H15B15539   2.489   3.414   0.565  0.1709 -0.2655  0.1225
  142OSM   H15C15540   2.579   3.566   0.579 -2.1847  0.8162 -0.3109
  142OSM    C1415541   2.810   3.467   0.672 -0.1346  0.2880 -0.0682
  142OSM   H14A15542   2.807   3.459   0.780 -0.8945  0.2764 -0.0783
  142OSM   H14B15543   2.801   3.572   0.648 -0.7220  0.4351  0.7389
  142OSM   H14C15544   2.905   3.428   0.640  0.2956 -1.8898  3.2814
  142OSM    C1315545   2.689   3.261   0.667  0.0695 -1.5095 -0.7479
  142OSM   H13A15546   2.606   3.216   0.615 -1.3032  0.9358 -0.8103
  142OSM   H13B15547   2.665   3.248   0.772 -0.9952 -1.1572 -0.9437
  142OSM   H13C15548   2.770   3.192   0.647 -0.7165 -2.4424 -0.7959
  142OSM    C1215549   2.723   3.376   0.458 -0.3111 -0.1846 -0.0933
  142OSM   H12A15550   2.700   3.471   0.412 -0.5253 -0.7661 -1.2308
  142OSM   H12B15551   2.641   3.311   0.432 -0.2088 -1.8885  3.3417
  142OSM    C1115552   2.869   3.326   0.421 -0.0437 -0.2947  0.0791
  142OSM   H11A15553   2.937   3.413   0.422 -1.9192  1.2399  0.1114
  142OSM   H11B15554   2.860   3.298   0.314 -1.1860  0.2795  0.0109
  142OSM      P15555   3.078   3.181   0.501 -0.4601 -0.0449  0.0589
  142OSM    O1315556   3.156   3.290   0.565  0.2776 -0.1212  0.1057
  142OSM    O1415557   3.100   3.052   0.572  0.0656  0.0312 -0.5568
  142OSM    O1115558   3.122   3.163   0.353 -0.1302  0.1724  0.2261
  142OSM    O1215559   2.922   3.212   0.498 -0.1933 -0.7470  0.1292
  142OSM    C1S15560   3.065   3.061   0.268 -0.5530 -0.0679  0.0841
  142OSM    H1S15561   2.956   3.075   0.255 -0.5650  0.5243  0.7346
  142OSM    H1T15562   3.088   2.962   0.311 -0.4408 -1.2628 -2.5492
  142OSM     NF15563   3.046   2.944   0.046 -0.2988 -0.1037  0.0996
  142OSM    HNF15564   3.074   2.848   0.044 -0.4977 -0.1580 -0.2727
  142OSM    C2S15565   3.112   3.051   0.120 -0.0502 -0.9343  0.4330
  142OSM    H2S15566   3.090   3.152   0.080 -1.0956 -1.6770 -0.9512
  142OSM    C3S15567   3.264   3.035   0.125  0.2353  0.3453 -0.2404
  142OSM    H3S15568   3.281   2.955   0.200 -1.9678 -0.9802 -1.0721
  142OSM     O315569   3.329   3.146   0.184 -0.1792 -0.1402 -0.6405
  142OSM    HO315570   3.255   3.181   0.234 -0.0498 -0.7506 -0.0003
  142OSM    C4S15571   3.335   2.993  -0.003 -0.6750 -0.3709 -0.8291
  142OSM    H4S15572   3.322   2.894  -0.050  1.2474  0.0772 -2.4852
  142OSM    C5S15573   3.417   3.061  -0.077  1.0532 -0.3847  0.3515
  142OSM    H5S15574   3.436   3.167  -0.055 -1.1728  0.4385 -1.4013
  142OSM    C6S15575   3.478   3.020  -0.200 -0.0704  0.6579 -0.1578
  142OSM    H6S15576   3.467   2.910  -0.214  0.5427  0.3772  1.4316
  142OSM    H6T15577   3.585   3.040  -0.177  0.0742  2.6656 -2.1567
  142OSM    C7S15578   3.443   3.109  -0.320 -0.0256 -0.1004  0.6446
  142OSM    H7S15579   3.466   3.217  -0.310 -0.7142  0.1005  0.1110
  142OSM    H7T15580   3.332   3.103  -0.333 -0.0346  2.3434 -1.0232
  142OSM    C8S15581   3.508   3.067  -0.449  0.3628 -0.4189  0.2959
  142OSM    H8S15582   3.612   3.058  -0.412  1.1784  0.3595 -1.6696
  142OSM    H8T15583   3.502   3.147  -0.526  0.1329 -1.2553 -0.5761
  142OSM    C9S15584   3.460   2.935  -0.510 -0.3278 -0.6871  0.2344
  142OSM    H9S15585   3.357   2.962  -0.542 -0.3407 -0.7161  0.2510
  142OSM    H9T15586   3.451   2.851  -0.438 -0.6362  1.8907  3.4264
  142OSM   C10S15587   3.541   2.896  -0.636 -0.1809  0.0157 -0.9168
  142OSM   H10S15588   3.505   2.801  -0.681 -0.5374 -0.6209  0.6489
  142OSM   H10T15589   3.648   2.881  -0.610 -0.5479  0.9389  1.2716
  142OSM   C11S15590   3.539   2.995  -0.751  1.1365 -0.8597 -0.3049
  142OSM   H11S15591   3.576   3.098  -0.735  0.7812 -0.8124  0.2062
  142OSM   H11T15592   3.434   3.007  -0.787  1.2103 -1.9683 -0.9439
  142OSM   C12S15593   3.619   2.951  -0.875 -0.2214 -0.2535 -0.0857
  142OSM   H12S15594   3.601   2.842  -0.879  1.3523 -0.5084 -2.4841
  142OSM   H12T15595   3.728   2.966  -0.861 -0.6030  2.5771  0.3868
  142OSM   C13S15596   3.587   3.028  -1.006 -0.6644  0.2884 -0.7137
  142OSM   H13S15597   3.629   3.131  -0.998 -3.4229  1.7007 -2.6446
  142OSM   H13T15598   3.477   3.045  -1.012 -1.0692 -1.3119  1.0714
  142OSM   C14S15599   3.651   2.948  -1.122 -0.3374 -0.1235 -0.0167
  142OSM   H14S15600   3.603   2.848  -1.121 -1.3180  0.3134  1.5962
  142OSM   H14T15601   3.759   2.936  -1.098 -0.7894 -1.2568  1.6236
  142OSM   C15S15602   3.647   3.031  -1.254 -0.4248  0.1310 -0.6932
  142OSM   H15S15603   3.680   3.135  -1.237 -0.2556 -0.1132  0.5914
  142OSM   H15T15604   3.542   3.038  -1.291 -1.5487 -0.4938  2.0783
  142OSM   C16S15605   3.738   2.971  -1.361 -0.1890  0.4093 -0.0906
  142OSM   H16S15606   3.717   2.862  -1.370 -3.1317  0.8307  0.6609
  142OSM   H16T15607   3.846   2.986  -1.338 -0.2681 -1.1100  1.5661
  142OSM   C17S15608   3.712   3.031  -1.498 -0.1141  0.0402 -0.3598
  142OSM   H17S15609   3.713   3.142  -1.506 -1.2303  0.0109 -1.0724
  142OSM   H17T15610   3.608   3.002  -1.523 -0.6434  1.4893  0.0945
  142OSM   C18S15611   3.789   2.972  -1.611  0.3206 -0.1182 -0.1641
  142OSM   H18S15612   3.732   2.986  -1.705 -2.4279 -0.9110  1.2931
  142OSM   H18T15613   3.808   2.865  -1.588 -1.1741 -0.4074 -0.2182
  142OSM   H18U15614   3.887   3.025  -1.618 -0.8914  2.1217 -1.3832
  142OSM    C1F15615   2.942   2.981  -0.034 -0.2521 -0.3641 -0.0735
  142OSM     OF15616   2.886   3.083  -0.011 -0.2687 -0.1956  0.1859
  142OSM    C2F15617   2.903   2.898  -0.150 -0.2743  0.2715 -0.0630
  142OSM    H2F15618   2.868   2.955  -0.239 -0.7537 -1.9316 -1.3604
  142OSM    H2G15619   2.814   2.837  -0.121  0.6383 -1.0023  0.1434
  142OSM    C3F15620   3.011   2.790  -0.183 -0.4192  0.8272  0.4407
  142OSM    H3F15621   3.016   2.716  -0.099  0.1394 -0.6871 -0.8606
  142OSM    H3G15622   3.115   2.828  -0.193  0.1177 -0.8411 -0.8639
  142OSM    C4F15623   2.983   2.729  -0.321  0.2187  1.3329  0.1288
  142OSM    H4F15624   2.891   2.666  -0.329  1.7019 -0.9125 -0.1732
  142OSM    H4G15625   3.063   2.661  -0.355  0.9407  1.9114  0.6435
  142OSM    C5F15626   3.000   2.834  -0.432  0.5728 -0.2810 -0.0649
  142OSM    H5F15627   3.081   2.909  -0.422  0.9167 -0.4979 -1.0877
  142OSM    H5G15628   2.910   2.899  -0.438  1.2687  0.5925 -2.4597
  142OSM    C6F15629   3.005   2.763  -0.575 -0.4631 -0.2130  0.4584
  142OSM    H6F15630   2.920   2.696  -0.601  0.3537 -0.7162 -1.0870
  142OSM    H6G15631   3.095   2.698  -0.586 -1.1402 -1.1259  0.1899
  142OSM    C7F15632   3.008   2.867  -0.692 -0.3340  0.2971  0.1961
  142OSM    H7F15633   3.083   2.947  -0.679  0.7203 -0.8936  1.7675
  142OSM    H7G15634   2.906   2.910  -0.681 -0.3020  0.8740 -1.4876
  142OSM    C8F15635   3.053   2.799  -0.824  0.3380 -0.1981 -0.2423
  142OSM    H8F15636   2.992   2.842  -0.907  0.3791  1.5119  0.5786
  142OSM    H8G15637   3.026   2.692  -0.811 -0.5332  0.2614  1.9442
  142OSM    C9F15638   3.203   2.815  -0.845  0.1471  0.2836  0.2585
  142OSM    H9F15639   3.259   2.809  -0.751 -0.0781  0.8286  0.4268
  142OSM   C10F15640   3.257   2.861  -0.961  0.1434  0.3323  0.1941
  142OSM   H10F15641   3.366   2.848  -0.972 -0.1616 -0.4621 -2.7609
  142OSM   C11F15642   3.187   2.901  -1.085  0.1802  0.4587  0.3572
  142OSM   H11F15643   3.252   2.983  -1.122  0.8548  0.2333  0.9992
  142OSM   H11G15644   3.086   2.943  -1.066  0.5230  1.7728 -0.6344
  142OSM   C12F15645   3.163   2.792  -1.191 -0.7514 -1.0841 -0.3568
  142OSM   H12F15646   3.101   2.842  -1.269 -0.0043  0.9523  0.2814
  142OSM   H12G15647   3.098   2.713  -1.149 -4.9890  1.7383 -0.9388
  142OSM   C13F15648   3.301   2.737  -1.233 -0.0629 -0.9431  0.3977
  142OSM   H13F15649   3.329   2.662  -1.156  2.3835  0.6492  1.1608
  142OSM   H13G15650   3.378   2.817  -1.232  0.9753 -1.9089  1.7556
  142OSM   C14F15651   3.304   2.667  -1.375 -0.1272  0.3119 -0.4003
  142OSM   H14F15652   3.305   2.737  -1.461  1.4759 -0.2579 -0.8945
  142OSM   H14G15653   3.206   2.616  -1.386  0.1259  0.0519 -1.5501
  142OSM   C15F15654   3.414   2.568  -1.394 -1.2648 -0.7159  0.1645
  142OSM   H15F15655   3.437   2.507  -1.305  2.4403 -0.1479 -0.2166
  142OSM   H15G15656   3.505   2.632  -1.404 -0.7579 -1.5892 -1.1397
  142OSM   C16F15657   3.393   2.481  -1.512 -0.7167 -0.0469  0.3445
  142OSM   H16F15658   3.345   2.524  -1.602  1.2413  0.2475 -0.6057
  142OSM   H16G15659   3.321   2.403  -1.480 -0.8601  0.2192  0.6866
  142OSM   C17F15660   3.522   2.407  -1.573  0.2343 -0.2566 -0.0419
  142OSM   H17F15661   3.603   2.477  -1.604  0.6533 -1.5012 -1.9354
  142OSM   H17G15662   3.486   2.361  -1.668  0.5892  0.8641 -0.7387
  142OSM   C18F15663   3.592   2.305  -1.475  0.3734 -0.5417  0.2506
  142OSM   H18F15664   3.634   2.375  -1.399 -1.3158 -0.7026  1.3930
  142OSM   H18G15665   3.677   2.257  -1.528  0.7144 -0.4876  0.7405
  142OSM   H18H15666   3.528   2.231  -1.422  0.2157  0.0049  0.8433
  143OSM      N15667   4.917   5.647   0.747  0.4509  0.5731 -0.0912
  143OSM    C1515668   5.031   5.740   0.712 -0.6790 -0.3903 -0.3984
  143OSM   H15A15669   5.129   5.694   0.710 -0.7339 -0.5139 -0.2424
  143OSM   H15B15670   5.046   5.824   0.778  2.5506  0.3405 -1.8440
  143OSM   H15C15671   5.013   5.786   0.616  0.0891 -0.3784 -0.5465
  143OSM    C1415672   4.962   5.580   0.879  0.0746 -0.1024  0.4618
  143OSM   H14A15673   4.975   5.652   0.959 -1.5152  1.5678 -0.6843
  143OSM   H14B15674   5.064   5.547   0.871 -0.1436 -0.4841 -1.0552
  143OSM   H14C15675   4.894   5.504   0.913  0.0084 -0.1347  0.2539
  143OSM    C1315676   4.782   5.718   0.774 -0.3205 -0.5100  0.0902
  143OSM   H13A15677   4.736   5.734   0.678 -0.3881  0.3519  0.2555
  143OSM   H13B15678   4.795   5.816   0.817 -0.9391 -0.0427 -0.7762
  143OSM   H13C15679   4.726   5.652   0.838  2.2283 -0.7407  2.2625
  143OSM    C1215680   4.902   5.537   0.640 -0.3717  0.2449  0.3409
  143OSM   H12A15681   4.818   5.482   0.680 -0.3892  1.1195  1.5598
  143OSM   H12B15682   4.991   5.477   0.633  1.1034  2.3907 -0.2507
  143OSM    C1115683   4.868   5.582   0.496  0.2573 -0.9144  0.0804
  143OSM   H11A15684   4.877   5.494   0.429 -0.0208  0.2461 -1.5502
  143OSM   H11B15685   4.945   5.658   0.470  0.6029 -0.7231  1.5460
  143OSM      P15686   4.607   5.560   0.481 -0.4461 -0.5760  0.0537
  143OSM    O1315687   4.634   5.432   0.549 -0.6338  0.0960  0.0267
  143OSM    O1415688   4.490   5.640   0.524  0.4355  0.1575 -0.1997
  143OSM    O1115689   4.608   5.536   0.326  0.1366 -0.5297  0.3033
  143OSM    O1215690   4.738   5.646   0.491  0.3727  0.2398  0.0247
  143OSM    C1S15691   4.496   5.479   0.256  0.2331  0.6230  0.2000
  143OSM    H1S15692   4.402   5.532   0.282 -0.9475  0.1832 -2.7204
  143OSM    H1T15693   4.480   5.378   0.300  0.7174 -1.0836 -3.1845
  143OSM     NF15694   4.396   5.423   0.045  0.2488  0.5476 -0.3548
  143OSM    HNF15695   4.389   5.331   0.008 -1.4396  1.4286 -2.4324
  143OSM    C2S15696   4.521   5.459   0.106 -0.0235 -0.1482 -0.6427
  143OSM    H2S15697   4.554   5.560   0.072  1.3323 -0.2688  0.2129
  143OSM    C3S15698   4.643   5.362   0.092 -0.6546  0.4333  1.3262
  143OSM    H3S15699   4.634   5.270   0.153  2.1150 -1.3795 -0.7433
  143OSM     O315700   4.763   5.423   0.138 -0.1402  0.2121 -0.0773
  143OSM    HO315701   4.741   5.496   0.197  0.6997  1.7704 -1.5945
  143OSM    C4S15702   4.667   5.337  -0.049 -0.0442 -0.3501 -0.0525
  143OSM    H4S15703   4.725   5.417  -0.096  2.8504 -2.9672 -1.3560
  143OSM    C5S15704   4.646   5.231  -0.123  0.0811  0.1870  0.6876
  143OSM    H5S15705   4.604   5.137  -0.084  1.1596 -1.9224 -2.7527
  143OSM    C6S15706   4.659   5.226  -0.269 -0.5822 -0.0931  0.6264
  143OSM    H6S15707   4.567   5.266  -0.318 -0.3200 -0.2481 -0.0065
  143OSM    H6T15708   4.662   5.118  -0.296  1.0216  0.2671 -0.8838
  143OSM    C7S15709   4.778   5.291  -0.338 -0.1578 -0.7977  0.1653
  143OSM    H7S15710   4.880   5.272  -0.297  1.8386  2.1680 -2.9236
  143OSM    H7T15711   4.765   5.401  -0.333  1.2529 -0.6622  2.4883
  143OSM    C8S15712   4.788   5.257  -0.490 -0.6142 -0.0298  0.8747
  143OSM    H8S15713   4.691   5.285  -0.535 -0.5770  1.5787  1.7318
  143OSM    H8T15714   4.797   5.147  -0.502  2.1575  0.2942 -1.0587
  143OSM    C9S15715   4.906   5.301  -0.584  0.0849 -0.7153 -0.1225
  143OSM    H9S15716   4.991   5.264  -0.522 -1.2605  0.8472  2.8753
  143OSM    H9T15717   4.910   5.410  -0.604 -0.1658 -0.6282  0.2848
  143OSM   C10S15718   4.906   5.219  -0.713  0.3187  0.4707  0.6522
  143OSM   H10S15719   4.804   5.200  -0.751  0.2423 -1.2990  1.6532
  143OSM   H10T15720   4.937   5.117  -0.682  2.5435  0.8997  0.0070
  143OSM   C11S15721   5.006   5.268  -0.820  0.0531  0.0205  0.5118
  143OSM   H11S15722   5.107   5.275  -0.773  1.2552 -1.0235 -1.7376
  143OSM   H11T15723   4.973   5.369  -0.849  0.6633  0.2487  0.5895
  143OSM   C12S15724   5.008   5.172  -0.937 -0.0846 -0.4004  0.2467
  143OSM   H12S15725   4.905   5.161  -0.975 -0.3427  1.1089  0.4160
  143OSM   H12T15726   5.040   5.068  -0.918 -1.0467 -1.0151 -1.3053
  143OSM   C13S15727   5.099   5.227  -1.055  0.0805  0.0904  0.4706
  143OSM   H13S15728   5.189   5.265  -1.002  0.8996 -2.2963  0.9172
  143OSM   H13T15729   5.062   5.319  -1.105  2.3099  0.4254 -0.6729
  143OSM   C14S15730   5.137   5.127  -1.161  0.7093  0.0992  0.1739
  143OSM   H14S15731   5.053   5.101  -1.229  2.1706 -1.2620 -1.1995
  143OSM   H14T15732   5.180   5.031  -1.126 -0.7502 -1.4946 -2.0830
  143OSM   C15S15733   5.242   5.177  -1.256  0.7188  0.4650  0.0684
  143OSM   H15S15734   5.331   5.200  -1.194  0.1152 -2.2531  2.1582
  143OSM   H15T15735   5.215   5.269  -1.312  0.8262 -0.1808 -1.0755
  143OSM   C16S15736   5.279   5.076  -1.364 -0.6847  0.5542  0.4461
  143OSM   H16S15737   5.193   5.065  -1.433 -0.1038  0.7015 -0.3211
  143OSM   H16T15738   5.304   4.985  -1.306 -0.0398 -0.1083 -0.8304
  143OSM   C17S15739   5.394   5.108  -1.457 -0.2732  1.0343  0.4037
  143OSM   H17S15740   5.481   5.154  -1.404 -0.4869  0.5981  1.1521
  143OSM   H17T15741   5.358   5.184  -1.528  0.9304  2.3523  1.1460
  143OSM   C18S15742   5.439   4.982  -1.526 -0.2260 -0.0427  0.5178
  143OSM   H18S15743   5.363   4.930  -1.588  1.7139  0.3370 -2.3723
  143OSM   H18T15744   5.473   4.909  -1.451  3.6393  0.5559 -0.4429
  143OSM   H18U15745   5.529   5.003  -1.587  0.2543 -2.4262  0.3196
  143OSM    C1F15746   4.294   5.508   0.037  0.6635 -0.0344 -0.0589
  143OSM     OF15747   4.303   5.629   0.060  0.6558  0.5076 -0.4491
  143OSM    C2F15748   4.167   5.452  -0.014  0.1169  0.2920 -0.3395
  143OSM    H2F15749   4.094   5.524  -0.057 -3.0992 -1.9733  0.9435
  143OSM    H2G15750   4.111   5.397   0.065 -1.1112  0.7609 -0.8494
  143OSM    C3F15751   4.190   5.345  -0.119  0.2081  0.0197 -0.5458
  143OSM    H3F15752   4.093   5.301  -0.147  0.1975  0.9618 -2.1237
  143OSM    H3G15753   4.246   5.257  -0.080 -0.7018 -0.7934 -1.0299
  143OSM    C4F15754   4.258   5.398  -0.249 -0.1686 -0.1078 -0.0604
  143OSM    H4F15755   4.355   5.450  -0.235  0.7688 -2.1127  1.2898
  143OSM    H4G15756   4.185   5.474  -0.283 -0.2220  0.0536  0.4017
  143OSM    C5F15757   4.270   5.291  -0.362  0.3293 -0.1063 -0.2748
  143OSM    H5F15758   4.166   5.271  -0.396  1.3513  0.6196 -4.3033
  143OSM    H5G15759   4.315   5.200  -0.317  1.2082  0.7430  0.6232
  143OSM    C6F15760   4.330   5.346  -0.494  0.0863 -0.0713 -1.5569
  143OSM    H6F15761   4.440   5.352  -0.479 -0.0649 -0.8570  0.1941
  143OSM    H6G15762   4.275   5.442  -0.490 -1.4512 -0.9467  1.1440
  143OSM    C7F15763   4.309   5.253  -0.619 -0.0002  0.5261  0.2615
  143OSM    H7F15764   4.202   5.236  -0.643  0.8520 -3.4452 -1.5159
  143OSM    H7G15765   4.345   5.153  -0.586 -0.5553  0.6698  1.3369
  143OSM    C8F15766   4.401   5.306  -0.728  0.1794  0.2992 -0.0794
  143OSM    H8F15767   4.499   5.327  -0.680 -0.0326  1.3434 -0.0764
  143OSM    H8G15768   4.364   5.404  -0.767 -1.2064 -0.7059 -1.4278
  143OSM    C9F15769   4.432   5.212  -0.843 -0.6176 -0.1363 -0.5192
  143OSM    H9F15770   4.415   5.104  -0.826  1.5046 -0.6056 -1.0586
  143OSM   C10F15771   4.479   5.252  -0.968 -0.1451 -0.2392 -0.4407
  143OSM   H10F15772   4.519   5.169  -1.028  0.4291 -0.0894 -0.2767
  143OSM   C11F15773   4.507   5.396  -1.009  0.5833  0.7443 -1.0907
  143OSM   H11F15774   4.502   5.464  -0.922 -1.2169 -2.6450  1.7031
  143OSM   H11G15775   4.433   5.429  -1.085 -1.4112 -2.7120 -0.8798
  143OSM   C12F15776   4.649   5.394  -1.069 -0.1257 -0.1873  0.5952
  143OSM   H12F15777   4.724   5.340  -1.008 -2.0670 -3.1086  0.6284
  143OSM   H12G15778   4.684   5.498  -1.082 -1.2326  0.0318 -0.9309
  143OSM   C13F15779   4.647   5.316  -1.200 -0.2671 -0.1278 -0.0573
  143OSM   H13F15780   4.558   5.349  -1.258  0.4587  1.8086 -0.1510
  143OSM   H13G15781   4.638   5.207  -1.181 -0.1041  0.2656  2.6933
  143OSM   C14F15782   4.769   5.337  -1.284 -0.5157 -1.0179  0.1136
  143OSM   H14F15783   4.859   5.320  -1.221 -1.0168 -0.9040  0.8810
  143OSM   H14G15784   4.761   5.440  -1.325 -4.0425 -0.7374  1.1579
  143OSM   C15F15785   4.789   5.242  -1.409  0.7051 -0.5756 -0.0687
  143OSM   H15F15786   4.880   5.272  -1.465  0.0589  0.9335 -0.3518
  143OSM   H15G15787   4.715   5.263  -1.489 -0.5721 -0.2391  1.1668
  143OSM   C16F15788   4.794   5.088  -1.372 -0.2215 -0.1007  0.1313
  143OSM   H16F15789   4.691   5.049  -1.354 -0.4242  1.7689  3.9891
  143OSM   H16G15790   4.853   5.071  -1.279  0.6689 -0.8539 -0.5547
  143OSM   C17F15791   4.862   5.005  -1.480  0.2572 -0.4050  0.2821
  143OSM   H17F15792   4.875   4.902  -1.439 -0.1151 -0.4961  0.1724
  143OSM   H17G15793   4.968   5.036  -1.494 -0.3290  1.1601 -0.9996
  143OSM   C18F15794   4.772   4.997  -1.608 -0.5171 -0.6109 -0.6928
  143OSM   H18F15795   4.737   5.099  -1.634  3.6896  0.5265 -2.5752
  143OSM   H18G15796   4.687   4.927  -1.592 -0.2201 -0.8705 -0.2379
  143OSM   H18H15797   4.837   4.960  -1.690  0.1323 -0.2608 -0.3449
  144OSM      N15798   3.808   6.474   0.437  0.7555 -0.5262 -0.6521
  144OSM    C1515799   3.675   6.420   0.398  0.2379 -0.9330  0.1713
  144OSM   H15A15800   3.683   6.313   0.410  3.8089 -0.6994  1.1324
  144OSM   H15B15801   3.658   6.440   0.293  1.3941 -0.9850 -0.0350
  144OSM   H15C15802   3.594   6.451   0.463  0.4274  0.3853 -0.1865
  144OSM    C1415803   3.811   6.620   0.415 -0.3554 -0.1307 -0.1058
  144OSM   H14A15804   3.742   6.674   0.479 -0.6827  1.4865 -1.7310
  144OSM   H14B15805   3.784   6.644   0.313  1.9188 -0.3259 -0.7917
  144OSM   H14C15806   3.910   6.655   0.438 -0.1745 -0.5110 -0.3104
  144OSM    C1315807   3.826   6.466   0.590 -0.2824 -0.4422  0.4021
  144OSM   H13A15808   3.755   6.526   0.644  0.9221  1.3863  0.0642
  144OSM   H13B15809   3.927   6.480   0.626 -0.9773 -1.5982  3.0119
  144OSM   H13C15810   3.817   6.361   0.615  0.6052 -0.8035 -0.6628
  144OSM    C1215811   3.927   6.416   0.361  0.2419 -0.2271 -0.1163
  144OSM   H12A15812   4.013   6.474   0.392 -1.1379  1.8377  0.0916
  144OSM   H12B15813   3.918   6.432   0.255  1.2478 -0.9644 -0.3256
  144OSM    C1115814   3.967   6.270   0.381  0.0519  0.0568  0.4471
  144OSM   H11A15815   4.012   6.248   0.480  0.1730 -1.8099  0.0034
  144OSM   H11B15816   4.045   6.252   0.304  1.2702  2.7914  0.8988
  144OSM      P15817   3.847   6.042   0.423 -0.0806  0.3145 -0.1874
  144OSM    O1315818   3.862   6.043   0.571 -0.0583 -0.0099  0.5121
  144OSM    O1415819   3.724   5.986   0.368 -0.4363 -0.4015  0.4666
  144OSM    O1115820   3.969   5.956   0.377  0.3256  0.1088  1.0726
  144OSM    O1215821   3.859   6.184   0.363  0.0404  0.0334  0.0090
  144OSM    C1S15822   4.005   5.926   0.237  0.2845 -0.1313  0.0947
  144OSM    H1S15823   3.951   6.000   0.175 -1.8425 -0.1881  1.7480
  144OSM    H1T15824   3.984   5.819   0.216 -2.9522 -0.0796  2.3602
  144OSM     NF15825   4.191   5.888   0.073 -0.5113 -0.0963 -0.3027
  144OSM    HNF15826   4.241   5.803   0.084 -3.2535 -1.6722  1.0733
  144OSM    C2S15827   4.160   5.951   0.201  0.2226  0.5838 -0.0153
  144OSM    H2S15828   4.176   6.060   0.189  0.7130  0.4471 -0.6550
  144OSM    C3S15829   4.240   5.899   0.319 -0.5625  0.3149  0.2314
  144OSM    H3S15830   4.221   5.790   0.319 -0.5437  0.3112  0.3857
  144OSM     O315831   4.205   5.957   0.450  0.5314  0.3370  0.0424
  144OSM    HO315832   4.127   6.008   0.426 -0.8514 -0.8025  1.8748
  144OSM    C4S15833   4.387   5.914   0.295  0.2137  0.2587 -0.2382
  144OSM    H4S15834   4.430   5.816   0.269 -0.5777 -0.3654  0.7088
  144OSM    C5S15835   4.465   6.026   0.280 -1.2580 -0.1541  0.7825
  144OSM    H5S15836   4.424   6.127   0.265 -2.0288 -0.4845  0.5978
  144OSM    C6S15837   4.605   6.025   0.223 -1.0580 -0.2953 -0.2047
  144OSM    H6S15838   4.676   6.056   0.302 -0.5806  0.5476 -0.9379
  144OSM    H6T15839   4.616   6.093   0.135  0.4516 -0.2248  0.0088
  144OSM    C7S15840   4.669   5.897   0.168  0.2137  0.5287 -0.1497
  144OSM    H7S15841   4.656   5.817   0.244 -0.6546  1.1526  0.3676
  144OSM    H7T15842   4.778   5.909   0.151  0.3334  0.7914  0.7505
  144OSM    C8S15843   4.599   5.836   0.045 -0.7307  0.6626 -0.1964
  144OSM    H8S15844   4.553   5.915  -0.017 -0.7962  1.7144  1.1446
  144OSM    H8T15845   4.515   5.771   0.077 -0.8350 -0.7246 -3.0225
  144OSM    C9S15846   4.698   5.755  -0.044 -0.3102 -0.4824  0.1139
  144OSM    H9S15847   4.739   5.660  -0.002  2.0928 -0.0626 -1.0683
  144OSM    H9T15848   4.790   5.814  -0.066  0.9501 -2.2006  0.5415
  144OSM   C10S15849   4.628   5.724  -0.174 -0.2931  0.3965  0.3315
  144OSM   H10S15850   4.567   5.813  -0.203 -1.0606 -0.1778  0.1446
  144OSM   H10T15851   4.560   5.637  -0.161  1.2027 -0.9952 -0.7943
  144OSM   C11S15852   4.708   5.689  -0.298 -0.5386  0.2152  0.3458
  144OSM   H11S15853   4.773   5.600  -0.279 -1.3633 -0.3167  0.7396
  144OSM   H11T15854   4.778   5.774  -0.315 -0.2929  0.2031  1.2042
  144OSM   C12S15855   4.624   5.656  -0.426 -0.3546 -0.5155  0.5489
  144OSM   H12S15856   4.577   5.749  -0.465 -1.1371  0.0631  2.7693
  144OSM   H12T15857   4.560   5.570  -0.398  0.6723 -1.1777  0.9138
  144OSM   C13S15858   4.711   5.613  -0.542 -0.1993 -0.0663 -0.4449
  144OSM   H13S15859   4.632   5.590  -0.617 -2.0516  1.3965  0.9640
  144OSM   H13T15860   4.761   5.517  -0.516 -1.0952 -0.0316  1.6390
  144OSM   C14S15861   4.797   5.724  -0.594  0.9744  0.5579 -0.2246
  144OSM   H14S15862   4.881   5.748  -0.526 -0.3178 -2.1256  2.5943
  144OSM   H14T15863   4.735   5.817  -0.597 -0.1421  0.0838  3.2404
  144OSM   C15S15864   4.857   5.710  -0.733 -0.5027 -0.1353  0.1014
  144OSM   H15S15865   4.911   5.612  -0.738  1.2956  0.7643  0.8724
  144OSM   H15T15866   4.944   5.778  -0.745  0.2686 -0.8119  1.5324
  144OSM   C16S15867   4.752   5.718  -0.848 -0.5008 -0.3895 -0.1590
  144OSM   H16S15868   4.674   5.787  -0.808  1.1169  0.3466  1.8989
  144OSM   H16T15869   4.717   5.617  -0.879 -1.8688 -0.1545  0.5146
  144OSM   C17S15870   4.820   5.770  -0.971 -0.7348  0.1407  0.0974
  144OSM   H17S15871   4.867   5.869  -0.950 -2.5822  1.0933 -0.0267
  144OSM   H17T15872   4.752   5.787  -1.057  0.7966 -1.9185 -1.6210
  144OSM   C18S15873   4.931   5.669  -1.015  0.5870 -0.0315 -0.7299
  144OSM   H18S15874   4.884   5.569  -1.029  1.3145 -0.6529  0.9695
  144OSM   H18T15875   5.015   5.666  -0.943  1.1410 -0.4591 -1.3899
  144OSM   H18U15876   4.971   5.712  -1.110 -1.1281 -0.4282 -1.6812
  144OSM    C1F15877   4.156   5.925  -0.051  0.3075  0.2177 -0.3357
  144OSM     OF15878   4.084   6.022  -0.069 -0.4834 -0.3388  1.0346
  144OSM    C2F15879   4.201   5.828  -0.156 -0.3103  0.1246  0.4973
  144OSM    H2F15880   4.132   5.742  -0.148  1.7108 -1.5340  0.8320
  144OSM    H2G15881   4.298   5.791  -0.117  1.0785  2.0335 -0.9372
  144OSM    C3F15882   4.221   5.894  -0.297 -1.0382 -0.3590 -0.3728
  144OSM    H3F15883   4.293   5.978  -0.289 -1.8039  0.2647  0.2523
  144OSM    H3G15884   4.133   5.942  -0.345 -0.8298 -0.9301 -1.3415
  144OSM    C4F15885   4.265   5.798  -0.407 -0.3789 -0.1364  0.5109
  144OSM    H4F15886   4.217   5.702  -0.383 -0.0750 -0.3016  0.4656
  144OSM    H4G15887   4.376   5.799  -0.412 -0.3008  2.5382 -4.3142
  144OSM    C5F15888   4.217   5.829  -0.550  0.4171 -0.5539 -0.1309
  144OSM    H5F15889   4.236   5.937  -0.568  1.0309 -0.3081  1.7466
  144OSM    H5G15890   4.106   5.835  -0.551  0.4400  0.6900  1.2679
  144OSM    C6F15891   4.281   5.738  -0.658  0.7253  0.2610 -0.1491
  144OSM    H6F15892   4.264   5.633  -0.627 -0.9046  0.3020 -0.7951
  144OSM    H6G15893   4.391   5.753  -0.653  0.7959 -0.4786  0.7926
  144OSM    C7F15894   4.216   5.767  -0.789 -0.4103 -0.1574 -0.3745
  144OSM    H7F15895   4.211   5.875  -0.817 -0.4470  0.0797  0.5302
  144OSM    H7G15896   4.112   5.729  -0.789 -1.5522  2.6984 -0.2381
  144OSM    C8F15897   4.294   5.692  -0.899 -0.2238  0.4338 -0.4602
  144OSM    H8F15898   4.346   5.607  -0.849 -0.4550  0.8387  0.5017
  144OSM    H8G15899   4.380   5.762  -0.910  0.7953 -0.4955  1.1649
  144OSM    C9F15900   4.196   5.664  -1.019  0.5040 -0.5180  0.0756
  144OSM    H9F15901   4.093   5.650  -0.984 -0.0876 -0.4500 -1.5839
  144OSM   C10F15902   4.226   5.649  -1.142  0.3575  0.1869  0.0679
  144OSM   H10F15903   4.138   5.637  -1.207 -0.2700  0.3252  0.8739
  144OSM   C11F15904   4.365   5.663  -1.208  0.3639  0.2463 -0.0854
  144OSM   H11F15905   4.393   5.577  -1.273 -0.0627  1.0091 -1.2959
  144OSM   H11G15906   4.440   5.671  -1.126 -1.3493 -0.4440  1.6227
  144OSM   C12F15907   4.376   5.801  -1.282 -0.2456  0.4670 -0.3609
  144OSM   H12F15908   4.347   5.877  -1.207 -1.3037  1.2434 -1.5174
  144OSM   H12G15909   4.310   5.814  -1.371 -1.7126  1.1682  0.7908
  144OSM   C13F15910   4.524   5.828  -1.321 -0.0564 -0.6402 -0.3676
  144OSM   H13F15911   4.572   5.734  -1.353  1.1468 -0.0586 -0.3173
  144OSM   H13G15912   4.572   5.880  -1.236 -1.5737  3.1738 -1.6150
  144OSM   C14F15913   4.531   5.926  -1.433 -0.0751 -0.3386  0.3141
  144OSM   H14F15914   4.441   5.993  -1.433 -0.2065 -0.5144 -0.0712
  144OSM   H14G15915   4.544   5.870  -1.528 -1.0712 -0.9819  0.5438
  144OSM   C15F15916   4.658   6.011  -1.419  0.1030  0.5131 -0.3206
  144OSM   H15F15917   4.649   6.091  -1.343 -1.2881 -1.7254  2.0018
  144OSM   H15G15918   4.666   6.074  -1.511 -0.4443  2.2992  0.7948
  144OSM   C16F15919   4.786   5.938  -1.396  0.2293  0.1662 -0.5837
  144OSM   H16F15920   4.797   5.866  -1.480  3.9104 -0.9472  0.6323
  144OSM   H16G15921   4.779   5.880  -1.302 -1.1968 -2.6730 -2.3126
  144OSM   C17F15922   4.914   6.017  -1.405  0.0779 -0.4352  0.0967
  144OSM   H17F15923   4.973   6.009  -1.312  0.2224 -1.3557 -0.0692
  144OSM   H17G15924   4.896   6.127  -1.401  0.4430 -0.4159  2.5648
  144OSM   C18F15925   5.008   5.982  -1.524  0.7326  0.2696 -0.1459
  144OSM   H18F15926   5.041   5.876  -1.537  0.4797  0.0785  0.7007
  144OSM   H18G15927   5.098   6.038  -1.494  0.9501  0.8125 -1.7388
  144OSM   H18H15928   4.959   6.016  -1.618 -2.1327 -0.9953  0.7623
  145OSM      N15929   0.667   0.767   1.033  0.1240  0.4831  0.5881
  145OSM    C1515930   0.609   0.899   1.088 -0.5472  0.2220 -0.4028
  145OSM   H15A15931   0.696   0.957   1.115 -0.8325  1.0027 -1.0961
  145OSM   H15B15932   0.537   0.875   1.165  1.4049 -1.7653  0.9159
  145OSM   H15C15933   0.553   0.956   1.015 -0.3737  0.5643 -0.2730
  145OSM    C1415934   0.755   0.791   0.911  0.2132  0.4767  0.3636
  145OSM   H14A15935   0.771   0.694   0.868 -0.6419 -0.0613  1.2318
  145OSM   H14B15936   0.845   0.847   0.931 -0.8063  1.3752  2.8500
  145OSM   H14C15937   0.691   0.847   0.843 -0.0992  1.4965  1.4713
  145OSM    C1315938   0.758   0.707   1.138  0.0064  0.8571  0.3946
  145OSM   H13A15939   0.814   0.618   1.113 -1.3980 -0.4471  1.6928
  145OSM   H13B15940   0.697   0.672   1.220 -0.2930 -0.8823 -0.4988
  145OSM   H13C15941   0.820   0.785   1.178  3.0566 -1.5977  0.8006
  145OSM    C1215942   0.561   0.664   1.006  0.4909 -0.2933  0.0599
  145OSM   H12A15943   0.515   0.629   1.098  1.3329 -0.0886  0.5686
  145OSM   H12B15944   0.620   0.588   0.956  0.2859 -0.3341 -0.1225
  145OSM    C1115945   0.440   0.702   0.919  0.0533 -0.3827  0.0923
  145OSM   H11A15946   0.356   0.758   0.966 -2.6310 -2.7450 -1.6100
  145OSM   H11B15947   0.390   0.604   0.909 -1.1248  0.4133 -3.3308
  145OSM      P15948   0.436   0.888   0.742  0.7636 -0.2084  0.3141
  145OSM    O1315949   0.292   0.885   0.703  0.4854  0.3950 -0.2248
  145OSM    O1415950   0.481   0.994   0.839 -0.5446  0.3113  0.1656
  145OSM    O1115951   0.528   0.906   0.614  0.0084 -0.1962  0.7235
  145OSM    O1215952   0.492   0.751   0.794  0.3412  0.1155  0.5622
  145OSM    C1S15953   0.586   0.788   0.553 -0.3103  0.8041  0.0154
  145OSM    H1S15954   0.524   0.697   0.538  0.1731 -0.2195  3.3749
  145OSM    H1T15955   0.679   0.761   0.607  0.0619  0.3562 -0.8436
  145OSM     NF15956   0.719   0.704   0.362 -0.1286 -0.7293  0.0962
  145OSM    HNF15957   0.811   0.729   0.333 -0.7397 -1.0303 -2.3579
  145OSM    C2S15958   0.637   0.817   0.415 -0.6610  0.3321  0.1145
  145OSM    H2S15959   0.549   0.822   0.346 -1.4777 -1.3926  0.9552
  145OSM    C3S15960   0.716   0.949   0.403  0.5071 -0.1032  0.0370
  145OSM    H3S15961   0.814   0.923   0.447  1.3911  2.1285 -0.4482
  145OSM     O315962   0.682   1.060   0.483 -0.0294 -0.3270  0.5377
  145OSM    HO315963   0.628   1.028   0.555 -0.1035 -1.1403  0.1286
  145OSM    C4S15964   0.756   0.998   0.268 -0.7531  0.2017  0.5268
  145OSM    H4S15965   0.860   0.974   0.243 -0.8118  0.9913 -0.5516
  145OSM    C5S15966   0.683   1.058   0.179  0.5142  0.0886  0.0361
  145OSM    H5S15967   0.580   1.082   0.211  0.1787 -1.1205 -0.0861
  145OSM    C6S15968   0.732   1.092   0.042  0.0506 -0.0185  0.8215
  145OSM    H6S15969   0.833   1.045   0.043  0.5708  1.0378  2.4479
  145OSM    H6T15970   0.732   1.202   0.024  0.7158 -0.3272 -1.4084
  145OSM    C7S15971   0.639   1.031  -0.072 -0.5114 -0.0637 -0.2375
  145OSM    H7S15972   0.536   1.070  -0.060 -0.7180 -0.7186  0.1646
  145OSM    H7T15973   0.622   0.921  -0.066 -2.1369  0.2409  1.7275
  145OSM    C8S15974   0.698   1.054  -0.213 -0.2104  0.0005  0.8642
  145OSM    H8S15975   0.786   0.988  -0.232 -0.2236  0.5326 -1.2619
  145OSM    H8T15976   0.741   1.156  -0.217  2.4157 -1.0262  0.7974
  145OSM    C9S15977   0.595   1.040  -0.333 -0.3324 -0.4831  0.1513
  145OSM    H9S15978   0.512   1.109  -0.306 -0.6969 -0.6779 -0.4803
  145OSM    H9T15979   0.561   0.935  -0.320  0.3775 -0.8392 -0.7908
  145OSM   C10S15980   0.665   1.060  -0.466 -0.2571  0.0752  0.0792
  145OSM   H10S15981   0.749   0.988  -0.479 -0.7789 -0.5899  0.3131
  145OSM   H10T15982   0.719   1.157  -0.477 -0.1832 -0.2117 -3.0487
  145OSM   C11S15983   0.573   1.043  -0.588 -0.5563 -0.0716 -0.4447
  145OSM   H11S15984   0.505   1.131  -0.597 -1.3621 -0.7975 -1.8988
  145OSM   H11T15985   0.516   0.948  -0.580 -1.6001  0.6026  0.4925
  145OSM   C12S15986   0.650   1.080  -0.715 -0.7277  0.2883 -0.1108
  145OSM   H12S15987   0.750   1.030  -0.714 -0.5609  0.5977 -0.7001
  145OSM   H12T15988   0.671   1.188  -0.726  0.4246  0.0868 -0.0560
  145OSM   C13S15989   0.575   1.049  -0.843  0.2782 -0.7752  0.6625
  145OSM   H13S15990   0.633   1.098  -0.925 -1.2958  0.5918  0.3233
  145OSM   H13T15991   0.481   1.108  -0.839  1.7144  1.7965 -0.8814
  145OSM   C14S15992   0.550   0.897  -0.856  0.7542  0.0662  0.0031
  145OSM   H14S15993   0.502   0.861  -0.762 -0.2582 -1.0355 -0.8988
  145OSM   H14T15994   0.646   0.842  -0.862  1.2428  0.7964  0.9831
  145OSM   C15S15995   0.469   0.852  -0.970  0.1064 -0.3410 -0.0820
  145OSM   H15S15996   0.507   0.901  -1.062 -3.3268  1.6605 -0.5839
  145OSM   H15T15997   0.365   0.891  -0.966  0.3955  0.5760 -1.1288
  145OSM   C16S15998   0.470   0.707  -1.003  0.6433  0.2300 -0.6466
  145OSM   H16S15999   0.444   0.652  -0.910  0.4508  0.7468 -0.3912
  145OSM   H16T16000   0.567   0.667  -1.038 -0.3482  0.2155 -3.6809
  145OSM   C17S16001   0.363   0.678  -1.111  0.2700  0.2804  0.2619
  145OSM   H17S16002   0.263   0.713  -1.079  0.7429  1.9233  0.0409
  145OSM   H17T16003   0.362   0.571  -1.140  2.8911  0.8709 -2.4063
  145OSM   C18S16004   0.381   0.757  -1.245  0.0643 -0.1832 -0.5032
  145OSM   H18S16005   0.302   0.725  -1.316  1.5414  0.6720 -2.6396
  145OSM   H18T16006   0.479   0.734  -1.292 -0.8272 -1.0793 -1.9906
  145OSM   H18U16007   0.381   0.866  -1.227  3.2230 -0.1898  0.0497
  145OSM    C1F16008   0.694   0.574   0.353  0.1855  0.3113 -0.0100
  145OSM     OF16009   0.583   0.529   0.366  0.4662  0.7590 -0.2686
  145OSM    C2F16010   0.806   0.479   0.323  0.8787  0.1723  0.0864
  145OSM    H2F16011   0.782   0.384   0.376 -0.6704  1.4687  1.8123
  145OSM    H2G16012   0.909   0.512   0.350  1.2326  1.8327 -2.8287
  145OSM    C3F16013   0.815   0.443   0.174  0.7007 -0.5604 -0.1964
  145OSM    H3F16014   0.727   0.378   0.154 -0.4155  0.2394  1.7530
  145OSM    H3G16015   0.900   0.375   0.153 -0.6240 -2.0971 -0.7829
  145OSM    C4F16016   0.826   0.564   0.077 -0.5012  0.4936 -0.2774
  145OSM    H4F16017   0.920   0.621   0.094 -0.3863  0.2149  0.0252
  145OSM    H4G16018   0.749   0.641   0.103 -1.2305 -0.9481  2.1067
  145OSM    C5F16019   0.828   0.535  -0.071  0.5117 -0.1055  0.0795
  145OSM    H5F16020   0.739   0.478  -0.107 -0.0598  0.2808  0.8381
  145OSM    H5G16021   0.920   0.477  -0.093 -0.1962 -1.9316  1.6756
  145OSM    C6F16022   0.826   0.660  -0.165 -0.1305 -0.0932  0.0747
  145OSM    H6F16023   0.923   0.714  -0.171 -0.3609  0.4264  0.7875
  145OSM    H6G16024   0.749   0.723  -0.115  0.5831  0.3672  0.6162
  145OSM    C7F16025   0.792   0.619  -0.307  0.8138 -0.3581 -0.6454
  145OSM    H7F16026   0.682   0.606  -0.296  0.9299 -0.6355  0.2522
  145OSM    H7G16027   0.831   0.523  -0.348  2.8146  0.3726 -0.5343
  145OSM    C8F16028   0.840   0.719  -0.411 -0.2166 -0.1471  0.2500
  145OSM    H8F16029   0.947   0.699  -0.435 -0.2296  1.1407 -1.0098
  145OSM    H8G16030   0.848   0.822  -0.369 -1.7260 -0.2971  0.9491
  145OSM    C9F16031   0.751   0.722  -0.532  0.3186  0.0642  0.0968
  145OSM    H9F16032   0.664   0.786  -0.517  0.7795  0.6673  0.2331
  145OSM   C10F16033   0.767   0.642  -0.637 -0.0077  0.6594  0.0632
  145OSM   H10F16034   0.685   0.634  -0.710 -1.1014 -0.8645  1.3699
  145OSM   C11F16035   0.886   0.555  -0.663 -0.1953 -0.0889  0.5875
  145OSM   H11F16036   0.864   0.462  -0.720 -0.1467 -0.2103  0.7692
  145OSM   H11G16037   0.927   0.515  -0.568  3.1200  0.2518 -0.5602
  145OSM   C12F16038   1.001   0.631  -0.729 -0.4088 -0.4609  0.1125
  145OSM   H12F16039   1.094   0.571  -0.740 -0.6074 -0.4811 -1.8887
  145OSM   H12G16040   1.029   0.714  -0.661 -1.3263  0.0369 -0.1085
  145OSM   C13F16041   0.980   0.700  -0.867 -0.6701 -0.0610 -0.2668
  145OSM   H13F16042   1.078   0.737  -0.902  0.5302 -2.4382  0.3690
  145OSM   H13G16043   0.909   0.785  -0.857  0.3209  0.9219 -1.3885
  145OSM   C14F16044   0.923   0.609  -0.975  0.0782 -0.2359  0.2412
  145OSM   H14F16045   0.839   0.557  -0.924  0.2378  0.1041  0.8590
  145OSM   H14G16046   1.003   0.545  -1.017 -0.9496 -0.7470 -1.0017
  145OSM   C15F16047   0.862   0.691  -1.088  0.1373  0.6098  0.7745
  145OSM   H15F16048   0.945   0.735  -1.146 -0.8241 -1.9303 -2.9043
  145OSM   H15G16049   0.795   0.776  -1.060 -0.6650  0.4351 -0.5290
  145OSM   C16F16050   0.784   0.592  -1.187 -0.1847 -0.3350 -0.0588
  145OSM   H16F16051   0.704   0.539  -1.131  0.6812  0.5901  2.1839
  145OSM   H16G16052   0.848   0.506  -1.217  0.1446  0.3883 -1.5329
  145OSM   C17F16053   0.748   0.658  -1.322 -0.2587  0.0943  0.1179
  145OSM   H17F16054   0.846   0.679  -1.370 -1.1006  0.7543 -1.3858
  145OSM   H17G16055   0.684   0.748  -1.305 -0.9894 -0.5181  0.6977
  145OSM   C18F16056   0.690   0.560  -1.422  0.5768  0.5655 -0.2340
  145OSM   H18F16057   0.593   0.520  -1.387  1.6872 -2.5886 -0.4511
  145OSM   H18G16058   0.760   0.474  -1.435 -1.8974 -1.6868  0.4018
  145OSM   H18H16059   0.678   0.607  -1.522  1.2994 -0.7785 -0.9857
  146OSM      N16060   4.545   1.737   1.373  0.5274  1.0592 -0.6260
  146OSM    C1516061   4.573   1.674   1.242  0.3933  0.4605 -0.0912
  146OSM   H15A16062   4.557   1.749   1.167 -0.4965  2.0108  1.5532
  146OSM   H15B16063   4.519   1.581   1.228  0.8459  0.0761  0.6079
  146OSM   H15C16064   4.677   1.648   1.231 -0.1427 -2.7266  1.1608
  146OSM    C1416065   4.395   1.753   1.381 -0.3018  0.4532  0.1295
  146OSM   H14A16066   4.351   1.655   1.368 -0.6115  0.4227  1.3004
  146OSM   H14B16067   4.367   1.818   1.300 -0.8188 -1.2765 -1.1402
  146OSM   H14C16068   4.365   1.801   1.473  0.5202  2.1303 -0.4367
  146OSM    C1316069   4.589   1.654   1.486 -0.2643  0.2453 -0.9581
  146OSM   H13A16070   4.694   1.629   1.484 -0.4634 -0.6818 -0.7067
  146OSM   H13B16071   4.539   1.559   1.473 -0.2602 -0.2159  1.6959
  146OSM   H13C16072   4.567   1.698   1.582  0.9119 -1.6865  0.2721
  146OSM    C1216073   4.602   1.874   1.385 -0.3409  0.0638  0.0893
  146OSM   H12A16074   4.708   1.883   1.367 -0.5482  1.9685 -0.4163
  146OSM   H12B16075   4.581   1.910   1.485 -1.9427 -2.0573  0.5992
  146OSM    C1116076   4.535   1.981   1.292 -0.2289 -0.0332 -0.3971
  146OSM   H11A16077   4.576   2.078   1.328  0.8973  0.2228 -2.2516
  146OSM   H11B16078   4.424   1.994   1.292 -0.4998 -1.9555 -1.9350
  146OSM      P16079   4.479   1.959   1.036  0.6640 -0.1555 -0.0420
  146OSM    O1316080   4.389   1.842   1.056  0.0576 -0.3640  0.5035
  146OSM    O1416081   4.411   2.092   1.020  1.1679  0.4660  0.9854
  146OSM    O1116082   4.570   1.934   0.914  0.4595 -0.6747 -0.1757
  146OSM    O1216083   4.579   1.965   1.150  0.5809  0.1830 -0.5753
  146OSM    C1S16084   4.676   2.018   0.895 -0.0561  0.4741  0.9692
  146OSM    H1S16085   4.755   2.007   0.973  0.4328 -0.6213  0.3521
  146OSM    H1T16086   4.646   2.125   0.897 -0.5276  0.3744 -0.1325
  146OSM     NF16087   4.881   2.058   0.761  0.6365  0.0751  0.3155
  146OSM    HNF16088   4.904   2.131   0.697 -1.2532  0.4295 -0.0102
  146OSM    C2S16089   4.745   2.007   0.753 -0.6620 -0.5181 -0.4674
  146OSM    H2S16090   4.742   1.899   0.726 -2.4379 -1.3594  2.6583
  146OSM    C3S16091   4.652   2.078   0.652  0.0916  0.0821 -0.3553
  146OSM    H3S16092   4.656   2.189   0.653 -2.1044  0.2225  1.8328
  146OSM     O316093   4.511   2.044   0.679 -0.2686  0.0422  0.2193
  146OSM    HO316094   4.509   1.982   0.753 -1.3604 -0.2558 -0.0435
  146OSM    C4S16095   4.689   2.036   0.519  0.2458  0.2876  0.7573
  146OSM    H4S16096   4.779   2.089   0.486 -0.7056  1.2654 -0.3599
  146OSM    C5S16097   4.646   1.933   0.438  0.2024 -0.3879 -0.1183
  146OSM    H5S16098   4.556   1.880   0.474  1.0908 -1.5087  0.5193
  146OSM    C6S16099   4.711   1.897   0.312  0.1324  0.0479 -0.3041
  146OSM    H6S16100   4.774   1.974   0.261  1.1399 -0.6728 -0.1631
  146OSM    H6T16101   4.630   1.879   0.238  0.2773  1.2362 -0.7768
  146OSM    C7S16102   4.796   1.773   0.319  0.4070 -0.3345 -0.9913
  146OSM    H7S16103   4.738   1.684   0.352  0.3326 -0.0195 -0.2364
  146OSM    H7T16104   4.880   1.781   0.391 -1.0656 -1.5917  1.0029
  146OSM    C8S16105   4.849   1.738   0.180 -0.0525 -0.5613  0.0520
  146OSM    H8S16106   4.915   1.649   0.182 -0.9566 -1.2373 -0.1075
  146OSM    H8T16107   4.916   1.820   0.143 -0.4044 -0.0318  0.5769
  146OSM    C9S16108   4.760   1.718   0.064  0.1506  0.4792 -0.3780
  146OSM    H9S16109   4.715   1.817   0.046  1.7326  1.3514  0.2260
  146OSM    H9T16110   4.677   1.653   0.099  0.9508 -0.5593 -0.3508
  146OSM   C10S16111   4.831   1.679  -0.065 -0.3437  0.3160  0.3048
  146OSM   H10S16112   4.859   1.572  -0.051 -1.5352 -0.1189 -0.4617
  146OSM   H10T16113   4.921   1.742  -0.079 -0.5795  0.4618 -0.6603
  146OSM   C11S16114   4.748   1.697  -0.194  0.5338 -0.5590  0.3082
  146OSM   H11S16115   4.695   1.795  -0.195  1.0006 -0.3049  0.4969
  146OSM   H11T16116   4.686   1.605  -0.189 -0.0450 -0.1355  1.2837
  146OSM   C12S16117   4.830   1.677  -0.318 -0.1059  0.5252  0.4261
  146OSM   H12S16118   4.889   1.584  -0.301 -0.9043 -0.1256 -0.2593
  146OSM   H12T16119   4.894   1.764  -0.343  0.2000 -0.2492 -1.6678
  146OSM   C13S16120   4.730   1.656  -0.440  0.3637 -0.8651  0.1778
  146OSM   H13S16121   4.665   1.745  -0.432  2.0384  0.3378  1.0107
  146OSM   H13T16122   4.678   1.558  -0.431 -0.5888 -0.2649  1.6916
  146OSM   C14S16123   4.805   1.660  -0.575 -0.9196  0.2085 -0.5141
  146OSM   H14S16124   4.873   1.572  -0.569 -1.4857 -0.1540  1.0035
  146OSM   H14T16125   4.866   1.750  -0.598  1.0301 -0.9928 -0.2398
  146OSM   C15S16126   4.728   1.637  -0.710 -0.5177  0.3402 -0.4519
  146OSM   H15S16127   4.681   1.732  -0.742 -1.7428 -0.1058 -0.0238
  146OSM   H15T16128   4.639   1.573  -0.693 -0.5948  0.8508  1.2548
  146OSM   C16S16129   4.819   1.568  -0.818 -0.0459  0.4568 -0.2155
  146OSM   H16S16130   4.749   1.549  -0.901  0.4880  0.3319 -0.6423
  146OSM   H16T16131   4.863   1.467  -0.803  1.3776  1.3735  2.5553
  146OSM   C17S16132   4.928   1.659  -0.868  0.0861  0.1332 -0.5058
  146OSM   H17S16133   4.996   1.701  -0.791  2.4318 -2.4183 -1.0295
  146OSM   H17T16134   4.880   1.745  -0.918 -0.7092 -0.0938 -0.1568
  146OSM   C18S16135   5.019   1.599  -0.972 -0.2599  0.3405 -0.2006
  146OSM   H18S16136   5.079   1.684  -1.011 -1.8116  0.8443 -1.6211
  146OSM   H18T16137   4.952   1.560  -1.051  0.2371 -0.7248 -0.1091
  146OSM   H18U16138   5.088   1.523  -0.929  0.9872 -0.7014 -3.7154
  146OSM    C1F16139   4.969   1.999   0.838 -0.3452 -0.4219 -0.8477
  146OSM     OF16140   4.947   1.890   0.883 -0.8012  0.2920 -0.0273
  146OSM    C2F16141   5.097   2.076   0.860 -0.0146 -0.2107 -0.2839
  146OSM    H2F16142   5.107   2.086   0.970 -0.7082 -0.1272 -0.2223
  146OSM    H2G16143   5.104   2.181   0.825  3.0588 -0.3848 -0.3938
  146OSM    C3F16144   5.221   1.995   0.809 -0.2142  0.4826 -0.0058
  146OSM    H3F16145   5.231   1.899   0.863 -0.5368  0.2748 -0.3128
  146OSM    H3G16146   5.318   2.049   0.816 -0.4533  1.1422 -1.4129
  146OSM    C4F16147   5.198   1.941   0.659 -0.8382  0.0543 -0.1167
  146OSM    H4F16148   5.175   2.032   0.600  1.2138  0.6437 -0.0693
  146OSM    H4G16149   5.109   1.875   0.645 -2.1087  1.7567 -0.4206
  146OSM    C5F16150   5.333   1.883   0.607 -0.2625 -0.8899 -0.3190
  146OSM    H5F16151   5.348   1.779   0.644  2.1890 -0.4704  0.0329
  146OSM    H5G16152   5.412   1.950   0.646  0.8131 -2.7089  0.7303
  146OSM    C6F16153   5.354   1.908   0.454 -0.8057  0.3530 -0.8889
  146OSM    H6F16154   5.444   1.852   0.421  0.2294  1.3147  0.1819
  146OSM    H6G16155   5.360   2.018   0.437 -1.3094  0.8259  1.5569
  146OSM    C7F16156   5.239   1.865   0.364  1.2200  0.2964  0.2572
  146OSM    H7F16157   5.158   1.940   0.372  0.9131  0.0954 -0.7769
  146OSM    H7G16158   5.204   1.762   0.390  0.7017  0.8865  2.0186
  146OSM    C8F16159   5.279   1.866   0.216 -0.1127  0.0946 -0.1436
  146OSM    H8F16160   5.189   1.811   0.182  0.1426 -0.2302 -0.3037
  146OSM    H8G16161   5.373   1.811   0.196  0.6609  1.9511 -1.9857
  146OSM    C9F16162   5.306   1.995   0.153 -0.6012 -0.5937 -0.6022
  146OSM    H9F16163   5.342   2.072   0.223 -0.2443 -0.8928 -0.4474
  146OSM   C10F16164   5.277   2.034   0.027 -0.3823 -0.0401  0.7295
  146OSM   H10F16165   5.321   2.129  -0.007  0.6360 -1.0185 -0.7928
  146OSM   C11F16166   5.240   1.953  -0.092 -0.5882  0.3317  0.5643
  146OSM   H11F16167   5.256   2.015  -0.183  0.3255 -0.3551  0.2413
  146OSM   H11G16168   5.133   1.931  -0.076 -0.0838 -0.7005  2.8882
  146OSM   C12F16169   5.301   1.814  -0.114 -0.0811  1.0703  0.7673
  146OSM   H12F16170   5.288   1.762  -0.016  4.2341  0.9824  1.4929
  146OSM   H12G16171   5.411   1.820  -0.130 -0.0669 -1.2178 -0.3654
  146OSM   C13F16172   5.236   1.723  -0.220  0.3339 -0.5136 -0.7332
  146OSM   H13F16173   5.131   1.699  -0.193 -0.3334  1.0040 -1.8485
  146OSM   H13G16174   5.289   1.625  -0.223 -0.2590 -0.8442 -0.4293
  146OSM   C14F16175   5.247   1.778  -0.363 -0.4596 -0.4092  0.1550
  146OSM   H14F16176   5.186   1.871  -0.369 -1.8507 -1.0000  3.0609
  146OSM   H14G16177   5.350   1.816  -0.377  0.6078 -1.8062  3.2315
  146OSM   C15F16178   5.230   1.661  -0.465  0.0376 -0.4989 -0.5028
  146OSM   H15F16179   5.121   1.642  -0.479 -0.1675  0.5147 -0.3448
  146OSM   H15G16180   5.283   1.577  -0.416  0.2019  0.1918  0.5350
  146OSM   C16F16181   5.306   1.687  -0.594  0.4247 -0.5109  0.8450
  146OSM   H16F16182   5.415   1.677  -0.575  0.4147 -1.2125  0.5589
  146OSM   H16G16183   5.281   1.783  -0.644 -2.4816 -2.1085 -1.0110
  146OSM   C17F16184   5.274   1.580  -0.708 -0.1010  1.0018  0.4088
  146OSM   H17F16185   5.239   1.616  -0.807  1.9568  1.7668 -0.0824
  146OSM   H17G16186   5.191   1.525  -0.658  0.3670  0.5706  0.7071
  146OSM   C18F16187   5.389   1.485  -0.740  0.0889 -0.2257 -0.4419
  146OSM   H18F16188   5.469   1.534  -0.799  0.2560 -0.4223 -0.3826
  146OSM   H18G16189   5.354   1.404  -0.808 -0.8094 -0.3762  0.1992
  146OSM   H18H16190   5.438   1.447  -0.648  0.3833 -0.1016 -0.5435
  147OSM      N16191   4.685   0.585   5.003 -0.1403 -0.1299  0.6366
  147OSM    C1516192   4.586   0.652   4.909 -0.4363 -0.7140 -0.7763
  147OSM   H15A16193   4.642   0.717   4.843  0.1519  1.6097  1.8440
  147OSM   H15B16194   4.522   0.720   4.962 -0.6890 -0.3185 -1.5721
  147OSM   H15C16195   4.535   0.577   4.850  0.1443 -2.0382  0.3443
  147OSM    C1416196   4.607   0.519   5.105 -0.2350  0.0366 -0.2415
  147OSM   H14A16197   4.665   0.474   5.184 -0.8144 -0.1673  0.0723
  147OSM   H14B16198   4.542   0.440   5.071  0.0718 -0.8576  1.1719
  147OSM   H14C16199   4.549   0.596   5.154 -0.6767  0.1309 -0.9099
  147OSM    C1316200   4.766   0.486   4.923 -0.4022 -0.5110 -0.0141
  147OSM   H13A16201   4.826   0.526   4.843  1.0156  1.3082  1.8236
  147OSM   H13B16202   4.696   0.411   4.888 -1.2756 -0.3900  1.4038
  147OSM   H13C16203   4.827   0.445   5.003  0.4937  1.0562  0.1429
  147OSM    C1216204   4.783   0.684   5.070  0.0497 -0.0487 -0.0396
  147OSM   H12A16205   4.834   0.723   4.984 -2.4831  0.2587 -1.4838
  147OSM   H12B16206   4.852   0.624   5.127  0.7948  0.8644  0.0527
  147OSM    C1116207   4.727   0.800   5.146  0.6561 -0.3422  0.1110
  147OSM   H11A16208   4.810   0.849   5.201 -0.5854  0.0376  1.7172
  147OSM   H11B16209   4.647   0.768   5.216 -0.5765  0.0169 -1.0898
  147OSM      P16210   4.596   1.023   5.116 -0.1730 -0.2906 -0.2227
  147OSM    O1316211   4.673   1.142   5.071  0.2769  0.0631 -0.2731
  147OSM    O1416212   4.452   1.014   5.078  0.3180  0.2200 -0.4549
  147OSM    O1116213   4.621   1.013   5.271  0.0412  0.1483  0.3251
  147OSM    O1216214   4.675   0.899   5.060  0.1246  0.0523 -0.3469
  147OSM    C1S16215   4.629   1.131   5.356  0.5784  0.2839 -0.0795
  147OSM    H1S16216   4.537   1.192   5.347  0.7847  0.4511 -1.2225
  147OSM    H1T16217   4.709   1.199   5.320  1.6151 -0.4729  0.7293
  147OSM     NF16218   4.624   1.218   5.587  0.3264 -0.1498  0.0106
  147OSM    HNF16219   4.709   1.257   5.624 -0.2859 -0.9574  2.5097
  147OSM    C2S16220   4.641   1.100   5.511 -0.3335  0.0789 -0.3582
  147OSM    H2S16221   4.554   1.033   5.528 -0.2919 -0.1094 -0.8680
  147OSM    C3S16222   4.768   1.023   5.550 -0.2260  0.1674  0.0481
  147OSM    H3S16223   4.857   1.089   5.544 -0.4857  0.9390  3.0447
  147OSM     O316224   4.807   0.925   5.456 -0.1226 -0.4141 -0.4481
  147OSM    HO316225   4.753   0.944   5.379  1.6344  2.3718 -1.1610
  147OSM    C4S16226   4.763   0.976   5.694  0.6742  0.7837  1.4089
  147OSM    H4S16227   4.787   1.062   5.759  2.0243  2.6052 -1.3262
  147OSM    C5S16228   4.733   0.864   5.751 -0.7116  0.6356 -0.1652
  147OSM    H5S16229   4.706   0.776   5.691 -0.2473  0.4001 -0.0389
  147OSM    C6S16230   4.719   0.856   5.899 -0.4700 -0.0112 -0.4331
  147OSM    H6S16231   4.671   0.761   5.929  0.3754 -0.3286 -0.0436
  147OSM    H6T16232   4.658   0.943   5.930 -1.8989 -0.6227 -1.4459
  147OSM    C7S16233   4.852   0.872   5.984 -0.0838 -0.5682  0.1726
  147OSM    H7S16234   4.886   0.977   5.974  0.1393 -0.6484  0.0823
  147OSM    H7T16235   4.932   0.804   5.947  0.0856  0.4033 -1.3290
  147OSM    C8S16236   4.831   0.852   6.135 -0.1867 -0.3784  0.0882
  147OSM    H8S16237   4.935   0.834   6.172 -0.3303  0.2377  0.8342
  147OSM    H8T16238   4.780   0.755   6.151 -0.3083 -0.6245 -1.6154
  147OSM    C9S16239   4.754   0.964   6.203 -0.5364 -0.2236  0.5585
  147OSM    H9S16240   4.659   0.981   6.148 -0.4934 -2.2992 -0.2694
  147OSM    H9T16241   4.820   1.052   6.185  0.7150 -1.6382 -2.6457
  147OSM   C10S16242   4.736   0.940   6.352  0.3744  0.5484  0.2096
  147OSM   H10S16243   4.830   0.914   6.404 -0.9751  0.0167  2.4982
  147OSM   H10T16244   4.666   0.855   6.367 -0.3102  1.3259  1.6757
  147OSM   C11S16245   4.657   1.044   6.434 -0.3802  0.3909  0.2679
  147OSM   H11S16246   4.557   1.066   6.392 -0.4422 -1.4458 -0.6379
  147OSM   H11T16247   4.720   1.134   6.453 -0.7378  0.2881  2.0890
  147OSM   C12S16248   4.636   0.990   6.576 -0.4762  0.5607 -0.2618
  147OSM   H12S16249   4.728   0.948   6.621 -2.1401 -1.4666  1.5087
  147OSM   H12T16250   4.561   0.907   6.573  0.1185 -0.0089  0.3590
  147OSM   C13S16251   4.580   1.100   6.672  0.3893  0.1471 -0.8490
  147OSM   H13S16252   4.480   1.136   6.641  1.5262  2.5139 -2.0739
  147OSM   H13T16253   4.644   1.190   6.659  1.1926 -0.3566 -0.4591
  147OSM   C14S16254   4.581   1.063   6.820  0.4803  0.5410  1.2686
  147OSM   H14S16255   4.682   1.028   6.850  0.8599  0.3450 -0.1524
  147OSM   H14T16256   4.503   0.985   6.831 -0.1254  0.7653 -0.8711
  147OSM   C15S16257   4.556   1.196   6.895 -0.5066  0.1852 -0.4261
  147OSM   H15S16258   4.479   1.264   6.853 -1.0750  0.8070  1.5220
  147OSM   H15T16259   4.657   1.239   6.882  0.8488 -1.2928  3.6142
  147OSM   C16S16260   4.545   1.174   7.052 -1.2229 -0.3092  0.0141
  147OSM   H16S16261   4.639   1.127   7.086 -0.7397 -1.1342 -2.2671
  147OSM   H16T16262   4.459   1.110   7.080  0.8223 -2.9036  0.6717
  147OSM   C17S16263   4.519   1.301   7.140  0.6822 -0.4631 -0.1799
  147OSM   H17S16264   4.514   1.277   7.249 -1.3394  0.6478  0.0264
  147OSM   H17T16265   4.421   1.346   7.114  1.4583  1.7372  0.4620
  147OSM   C18S16266   4.621   1.404   7.123  0.0889 -0.2074  0.3975
  147OSM   H18S16267   4.629   1.443   7.019 -1.3413 -0.9680 -0.0119
  147OSM   H18T16268   4.721   1.368   7.157  0.4488 -1.2159 -1.5761
  147OSM   H18U16269   4.600   1.491   7.189  1.9709  1.0326 -0.5235
  147OSM    C1F16270   4.511   1.275   5.595  0.4387  0.3148  0.3273
  147OSM     OF16271   4.416   1.221   5.548  0.3365 -0.1870 -0.2492
  147OSM    C2F16272   4.505   1.417   5.641 -0.1284 -0.3620 -0.1392
  147OSM    H2F16273   4.493   1.475   5.547 -1.0710 -1.7481 -0.9065
  147OSM    H2G16274   4.592   1.440   5.707  0.1460 -1.6199 -0.0429
  147OSM    C3F16275   4.376   1.437   5.724  0.3082  0.1292 -0.2215
  147OSM    H3F16276   4.370   1.374   5.816  0.9338  0.0450 -0.2365
  147OSM    H3G16277   4.283   1.411   5.670 -0.0906 -0.8748  0.9103
  147OSM    C4F16278   4.374   1.583   5.762 -0.9779  0.0206  0.1952
  147OSM    H4F16279   4.407   1.648   5.679  2.0716 -0.5054  0.8656
  147OSM    H4G16280   4.445   1.600   5.845 -2.1755  1.8470  0.8941
  147OSM    C5F16281   4.236   1.640   5.807  0.0525  0.2325 -0.1818
  147OSM    H5F16282   4.157   1.645   5.728 -1.5746  2.2970  1.4469
  147OSM    H5G16283   4.266   1.745   5.826  1.3473 -0.0123 -0.7699
  147OSM    C6F16284   4.169   1.582   5.937  0.0038 -0.1126 -0.2253
  147OSM    H6F16285   4.247   1.554   6.010  0.6676  1.1981 -0.4215
  147OSM    H6G16286   4.115   1.489   5.905 -2.5487  1.5123 -0.9725
  147OSM    C7F16287   4.064   1.671   5.999 -0.9278 -0.2867 -0.0291
  147OSM    H7F16288   3.972   1.679   5.936 -1.1416  0.8578  0.3993
  147OSM    H7G16289   4.112   1.771   6.003  0.0515 -0.7181 -0.7148
  147OSM    C8F16290   4.019   1.645   6.148 -0.3284  0.6934  0.0750
  147OSM    H8F16291   3.956   1.554   6.145 -0.4312  0.7759 -1.6272
  147OSM    H8G16292   3.962   1.731   6.190  0.5860  2.1033 -1.4359
  147OSM    C9F16293   4.145   1.639   6.240 -0.7453  0.9221  0.0308
  147OSM    H9F16294   4.208   1.728   6.249 -0.5756  0.7013  1.2036
  147OSM   C10F16295   4.180   1.530   6.312 -0.3825  0.2629 -0.4024
  147OSM   H10F16296   4.271   1.535   6.374 -1.9140  2.1663  1.8922
  147OSM   C11F16297   4.119   1.398   6.328 -0.9295  0.3686 -0.4739
  147OSM   H11F16298   4.180   1.330   6.265 -0.0065  1.8796 -1.2635
  147OSM   H11G16299   4.025   1.390   6.269  0.2609 -0.1787 -2.3829
  147OSM   C12F16300   4.114   1.336   6.466  0.3254  0.5746  0.0965
  147OSM   H12F16301   4.026   1.378   6.520  0.8411 -2.0595  3.3278
  147OSM   H12G16302   4.202   1.340   6.534  0.7039 -2.2798 -0.1200
  147OSM   C13F16303   4.100   1.178   6.468  0.7019 -0.2962 -0.4985
  147OSM   H13F16304   4.181   1.137   6.404  0.0726  0.9578 -2.1800
  147OSM   H13G16305   4.007   1.163   6.408  0.7384  0.0718 -0.6517
  147OSM   C14F16306   4.089   1.120   6.609 -0.2455  0.6782  0.2025
  147OSM   H14F16307   4.180   1.155   6.662  2.2883 -0.5510 -3.0330
  147OSM   H14G16308   4.109   1.012   6.595  1.1777  0.5417  2.6693
  147OSM   C15F16309   3.965   1.153   6.696  0.6982  0.2190 -0.2074
  147OSM   H15F16310   3.898   1.077   6.650  0.3519  0.5941 -0.3313
  147OSM   H15G16311   3.925   1.257   6.686 -1.1917 -0.4108  0.3860
  147OSM   C16F16312   3.978   1.130   6.850 -0.4351  0.6287  0.1987
  147OSM   H16F16313   4.039   1.208   6.899  0.5831 -0.5335  0.8321
  147OSM   H16G16314   4.036   1.037   6.870 -1.3758 -0.1123 -0.4313
  147OSM   C17F16315   3.833   1.105   6.918 -0.1190 -0.0011  0.0038
  147OSM   H17F16316   3.772   1.042   6.850 -0.6720  2.2040 -1.6448
  147OSM   H17G16317   3.773   1.199   6.915  0.8410  0.6290 -3.7080
  147OSM   C18F16318   3.849   1.042   7.061  0.2615  0.3974  0.2461
  147OSM   H18F16319   3.933   1.097   7.109  1.6830 -0.5786 -1.0368
  147OSM   H18G16320   3.870   0.934   7.050 -1.9558 -0.2430  1.7199
  147OSM   H18H16321   3.755   1.036   7.120  0.3257  1.4647  0.4771
  148OSM      N16322   4.807   6.188   5.072 -0.0436 -0.3689 -0.1257
  148OSM    C1516323   4.777   6.105   5.189 -0.5400 -0.3033  0.5706
  148OSM   H15A16324   4.824   6.136   5.281  0.1595 -0.8950  0.4221
  148OSM   H15B16325   4.823   6.007   5.183 -0.9855 -0.4352 -1.8056
  148OSM   H15C16326   4.669   6.094   5.189 -0.5959 -2.0210 -4.1011
  148OSM    C1416327   4.959   6.183   5.041  0.3355  0.1590  0.5298
  148OSM   H14A16328   5.023   6.211   5.123  1.1246  0.2866 -0.1169
  148OSM   H14B16329   4.979   6.253   4.961  1.2382 -1.2268 -0.4909
  148OSM   H14C16330   4.975   6.085   4.999 -0.1225  0.5532 -0.5922
  148OSM    C1316331   4.737   6.136   4.955  0.4004  0.1875 -0.1627
  148OSM   H13A16332   4.643   6.191   4.951  0.4084  0.1819 -0.4668
  148OSM   H13B16333   4.702   6.036   4.975  0.0315  0.3594  0.0621
  148OSM   H13C16334   4.786   6.141   4.859  0.1433  0.3411 -0.2879
  148OSM    C1216335   4.770   6.329   5.107  0.2997  0.4560  0.2289
  148OSM   H12A16336   4.788   6.390   5.019 -2.4520 -0.7289 -1.2784
  148OSM   H12B16337   4.839   6.362   5.183 -0.6133  2.4353  0.2655
  148OSM    C1116338   4.624   6.353   5.160 -0.1043 -0.5680  0.3320
  148OSM   H11A16339   4.629   6.459   5.193  2.4678  0.1193 -1.8592
  148OSM   H11B16340   4.600   6.288   5.246 -0.4033 -0.8081  0.0681
  148OSM      P16341   4.442   6.449   4.992 -0.2954 -0.1447 -0.3318
  148OSM    O1316342   4.527   6.545   4.911  0.4640  0.3131  0.3032
  148OSM    O1416343   4.323   6.409   4.918  0.5002 -0.0348  0.6765
  148OSM    O1116344   4.392   6.529   5.117 -0.5306  0.9056 -0.4409
  148OSM    O1216345   4.532   6.328   5.051  0.5749 -0.7361 -0.2465
  148OSM    C1S16346   4.297   6.483   5.207 -0.1708 -0.6817 -0.2261
  148OSM    H1S16347   4.275   6.375   5.198 -1.6354 -0.5720  1.4693
  148OSM    H1T16348   4.202   6.538   5.190  0.0029 -0.5257 -0.7013
  148OSM     NF16349   4.256   6.435   5.443 -0.8758  0.2919  0.3919
  148OSM    HNF16350   4.183   6.494   5.477 -1.4391  0.8818 -1.7069
  148OSM    C2S16351   4.349   6.504   5.353  0.5747  0.0542  0.4833
  148OSM    H2S16352   4.446   6.450   5.359  0.7246  0.4249  1.6341
  148OSM    C3S16353   4.369   6.652   5.380  0.0392 -0.0551 -0.3780
  148OSM    H3S16354   4.266   6.689   5.401 -0.6242 -0.5004 -2.6363
  148OSM     O316355   4.412   6.738   5.271  0.8480  0.1176 -0.4097
  148OSM    HO316356   4.408   6.681   5.194  3.8761 -0.3448 -0.3567
  148OSM    C4S16357   4.454   6.667   5.507 -1.0422  0.3666  0.0605
  148OSM    H4S16358   4.398   6.694   5.599  0.3814  2.1369  0.4713
  148OSM    C5S16359   4.579   6.630   5.515  0.1847  0.1893 -0.5815
  148OSM    H5S16360   4.629   6.581   5.430 -1.3556 -0.7640 -0.9799
  148OSM    C6S16361   4.659   6.618   5.638 -0.1149  0.5968  0.0346
  148OSM    H6S16362   4.746   6.686   5.626 -1.7055  2.7795  0.3807
  148OSM    H6T16363   4.700   6.514   5.638 -0.2274  0.5535 -0.4587
  148OSM    C7S16364   4.590   6.650   5.776 -0.4829 -0.1395  0.1837
  148OSM    H7S16365   4.522   6.566   5.803  0.9315 -1.2210  0.5519
  148OSM    H7T16366   4.540   6.749   5.773  1.7493  1.0397 -1.4109
  148OSM    C8S16367   4.695   6.655   5.892  0.3114 -0.2708 -0.3467
  148OSM    H8S16368   4.762   6.742   5.874  1.4983 -0.5767  2.1721
  148OSM    H8T16369   4.752   6.560   5.881 -2.2428 -1.8634 -0.5896
  148OSM    C9S16370   4.649   6.659   6.040 -0.6604  0.4313  0.2651
  148OSM    H9S16371   4.729   6.622   6.108 -0.6561 -0.5462 -0.2678
  148OSM    H9T16372   4.561   6.594   6.059  0.1565 -0.6600  0.3876
  148OSM   C10S16373   4.618   6.804   6.084 -0.0627  0.2819 -0.2251
  148OSM   H10S16374   4.540   6.857   6.025  0.3955 -0.4983 -1.5724
  148OSM   H10T16375   4.718   6.851   6.079  0.9243 -1.3257  2.3798
  148OSM   C11S16376   4.591   6.788   6.236 -0.0407  0.2269  0.3657
  148OSM   H11S16377   4.682   6.732   6.268 -2.1646 -3.1925  0.8981
  148OSM   H11T16378   4.502   6.726   6.259  1.1626 -1.2525  1.2101
  148OSM   C12S16379   4.585   6.927   6.307 -0.2989  0.5048  0.3329
  148OSM   H12S16380   4.509   6.994   6.262  2.3033  3.3133 -0.2425
  148OSM   H12T16381   4.686   6.970   6.287 -0.0316  0.4823  1.6044
  148OSM   C13S16382   4.575   6.912   6.455 -0.1566 -0.7580  0.1449
  148OSM   H13S16383   4.679   6.894   6.491 -0.3284  1.7419  2.2229
  148OSM   H13T16384   4.513   6.826   6.488  1.6452 -1.4473  1.9890
  148OSM   C14S16385   4.521   7.036   6.521 -0.0438 -0.0074  0.3648
  148OSM   H14S16386   4.410   7.036   6.511 -0.1285 -0.7836  1.2045
  148OSM   H14T16387   4.561   7.129   6.474 -0.4101  0.6525  1.3277
  148OSM   C15S16388   4.573   7.044   6.665 -0.2088 -0.3506  0.3570
  148OSM   H15S16389   4.565   7.150   6.698 -0.2927 -0.1177 -0.3844
  148OSM   H15T16390   4.682   7.023   6.665  0.1773  1.4336 -0.4780
  148OSM   C16S16391   4.506   6.949   6.762 -0.0634 -0.3463  0.3978
  148OSM   H16S16392   4.504   6.848   6.717  0.8318  0.5480 -1.8100
  148OSM   H16T16393   4.407   6.995   6.782  0.5021  0.7639  0.7719
  148OSM   C17S16394   4.586   6.944   6.891  0.2623  0.1656 -0.9290
  148OSM   H17S16395   4.593   7.046   6.935 -0.8544 -0.1690  0.0754
  148OSM   H17T16396   4.696   6.934   6.875  1.1646  2.5727  2.5044
  148OSM   C18S16397   4.531   6.848   7.000  0.2406  0.6518 -0.0093
  148OSM   H18S16398   4.440   6.896   7.042 -0.0954  1.8871 -1.9726
  148OSM   H18T16399   4.609   6.843   7.078  0.8173 -0.6502 -0.6551
  148OSM   H18U16400   4.511   6.751   6.949  0.0982  1.8016 -2.2974
  148OSM    C1F16401   4.238   6.307   5.450  0.5808  0.3941  0.0992
  148OSM     OF16402   4.322   6.231   5.412 -1.2419  0.0955 -0.0085
  148OSM    C2F16403   4.102   6.257   5.494  0.0813 -0.3826 -0.3374
  148OSM    H2F16404   4.043   6.224   5.405 -4.2284  0.9141  1.7742
  148OSM    H2G16405   4.044   6.337   5.544  0.9698 -0.4519  0.8575
  148OSM    C3F16406   4.106   6.143   5.589  0.5656 -0.2504 -0.7337
  148OSM    H3F16407   4.170   6.168   5.677  0.4411 -0.9739 -0.4243
  148OSM    H3G16408   4.162   6.057   5.546  0.0910 -0.9492  0.0146
  148OSM    C4F16409   3.977   6.078   5.629  1.0050 -0.2222 -0.0638
  148OSM    H4F16410   3.918   6.056   5.537 -1.1353  1.8318  0.7095
  148OSM    H4G16411   3.914   6.159   5.673  1.5664 -0.4564  1.1970
  148OSM    C5F16412   3.983   5.953   5.716 -0.0822  0.1873 -0.2806
  148OSM    H5F16413   4.017   5.878   5.642 -1.0509 -0.3414 -0.2072
  148OSM    H5G16414   3.884   5.911   5.743  0.4141 -2.1132 -1.7408
  148OSM    C6F16415   4.071   5.971   5.832  0.4101  0.5376  0.2634
  148OSM    H6F16416   4.038   6.062   5.887 -0.4381 -0.7777  2.0368
  148OSM    H6G16417   4.178   5.988   5.808  0.7272 -1.4070  0.1417
  148OSM    C7F16418   4.082   5.859   5.938  0.6804 -0.5055 -0.1509
  148OSM    H7F16419   4.159   5.785   5.909  1.1296 -0.3019  0.4795
  148OSM    H7G16420   3.983   5.814   5.957  0.6373  0.4556  2.2681
  148OSM    C8F16421   4.134   5.923   6.073  0.4788 -0.2864 -0.2150
  148OSM    H8F16422   4.216   5.988   6.036 -1.0612  1.3218 -0.9650
  148OSM    H8G16423   4.166   5.834   6.131  0.1140 -0.8832 -0.9084
  148OSM    C9F16424   4.037   6.004   6.152 -0.3246 -0.6447  0.5068
  148OSM    H9F16425   4.016   6.106   6.117  2.6892  0.1401  0.6371
  148OSM   C10F16426   3.985   5.980   6.274 -0.8215 -0.4147  0.5604
  148OSM   H10F16427   3.912   6.053   6.310  1.4350  2.2940 -0.0655
  148OSM   C11F16428   4.013   5.859   6.368  0.0154 -0.2679 -0.2942
  148OSM   H11F16429   4.091   5.793   6.325  1.3690  1.6712 -0.9450
  148OSM   H11G16430   3.921   5.799   6.386 -0.0744 -0.2967 -0.8173
  148OSM   C12F16431   4.057   5.908   6.507 -0.2358  0.1342 -0.3646
  148OSM   H12F16432   4.146   5.973   6.496 -0.2085  0.3322  0.8175
  148OSM   H12G16433   4.078   5.817   6.567  0.6067 -0.0424 -0.9213
  148OSM   C13F16434   3.946   5.987   6.583  0.2027  0.0177  0.1597
  148OSM   H13F16435   3.862   5.919   6.610  0.4646 -0.3893 -0.0468
  148OSM   H13G16436   3.913   6.073   6.521 -2.2686 -0.3229  0.8843
  148OSM   C14F16437   3.988   6.046   6.726 -0.0019 -0.5025  0.7234
  148OSM   H14F16438   4.050   6.137   6.717  0.9925 -0.9716  2.2830
  148OSM   H14G16439   4.053   5.973   6.781  2.6407  0.7833 -0.5237
  148OSM   C15F16440   3.864   6.089   6.808  0.3281  0.2569 -0.2506
  148OSM   H15F16441   3.785   6.013   6.793 -0.3902  1.5572 -4.0880
  148OSM   H15G16442   3.814   6.170   6.752 -0.8377  0.4499  1.0034
  148OSM   C16F16443   3.882   6.130   6.956  0.2547  0.5351  0.2155
  148OSM   H16F16444   3.940   6.224   6.968 -0.1064  0.6742  0.8783
  148OSM   H16G16445   3.926   6.052   7.022 -0.2500 -0.5529 -0.7048
  148OSM   C17F16446   3.747   6.159   7.023  0.2504  0.5363 -0.8931
  148OSM   H17F16447   3.682   6.071   7.005  2.1447 -1.0777 -0.2050
  148OSM   H17G16448   3.700   6.251   6.981  0.8129  0.7996 -0.9523
  148OSM   C18F16449   3.763   6.173   7.174  0.1624 -0.1899  0.2170
  148OSM   H18F16450   3.673   6.220   7.219  0.3981  0.1444  0.3475
  148OSM   H18G16451   3.846   6.244   7.198  0.4058 -0.2054 -0.5658
  148OSM   H18H16452   3.788   6.078   7.225  1.5348  0.8127  1.5452
  149OSM      N16453   4.511   5.563   4.870  0.6370  0.7907  0.2841
  149OSM    C1516454   4.365   5.569   4.826 -0.4830  0.9593  0.2478
  149OSM   H15A16455   4.344   5.547   4.723 -1.3562 -2.1503  0.9552
  149OSM   H15B16456   4.320   5.666   4.842 -0.1298  1.2547 -0.5332
  149OSM   H15C16457   4.321   5.486   4.880  3.4208 -0.9092  0.8869
  149OSM    C1416458   4.564   5.423   4.849 -0.6012 -1.1973  0.1562
  149OSM   H14A16459   4.666   5.424   4.883 -0.6404 -0.5036  0.2792
  149OSM   H14B16460   4.581   5.401   4.745 -1.5967  2.5678 -0.9634
  149OSM   H14C16461   4.513   5.347   4.906  1.6188 -1.2773  2.1714
  149OSM    C1316462   4.594   5.657   4.785 -0.4498  0.3368 -0.1765
  149OSM   H13A16463   4.551   5.756   4.783  0.1316  0.5840 -0.9386
  149OSM   H13B16464   4.616   5.626   4.684 -0.3823  1.7619 -0.6099
  149OSM   H13C16465   4.696   5.662   4.820 -0.3004  0.2607 -0.5945
  149OSM    C1216466   4.515   5.611   5.012  0.3477 -0.5386  0.2706
  149OSM   H12A16467   4.423   5.582   5.061 -1.3705 -0.4460 -2.6881
  149OSM   H12B16468   4.519   5.719   5.010 -2.0572 -0.3994  0.4752
  149OSM    C1116469   4.639   5.563   5.102  0.2500  0.3244 -0.2690
  149OSM   H11A16470   4.623   5.453   5.111 -2.9196  0.7791  0.5833
  149OSM   H11B16471   4.609   5.612   5.197 -2.5350  0.8969 -1.3721
  149OSM      P16472   4.900   5.534   5.120  0.2236  0.0438  0.0104
  149OSM    O1316473   4.906   5.390   5.108 -0.0297  0.2934  0.1827
  149OSM    O1416474   5.006   5.615   5.070  0.1146  0.2337  0.5510
  149OSM    O1116475   4.871   5.586   5.268 -0.1064 -0.1288 -0.2047
  149OSM    O1216476   4.767   5.586   5.048 -0.3495 -0.5601 -0.1696
  149OSM    C1S16477   4.805   5.516   5.372  0.2793  0.0039 -0.9634
  149OSM    H1S16478   4.831   5.408   5.375  1.4715  0.2709  2.4759
  149OSM    H1T16479   4.694   5.519   5.360 -0.2069  1.6689  2.7202
  149OSM     NF16480   4.767   5.501   5.601  0.2040  0.1465 -0.5561
  149OSM    HNF16481   4.691   5.535   5.656  0.1571 -3.3840  1.8685
  149OSM    C2S16482   4.831   5.579   5.509 -0.0990 -0.0415 -0.2364
  149OSM    H2S16483   4.937   5.576   5.543 -0.8672 -0.6213  2.3081
  149OSM    C3S16484   4.784   5.725   5.511 -0.0707 -0.4456  0.2213
  149OSM    H3S16485   4.673   5.723   5.509 -0.2362  2.4198 -2.9143
  149OSM     O316486   4.814   5.805   5.397  0.0111  0.2057 -0.2896
  149OSM    HO316487   4.828   5.743   5.325 -0.9032  2.1707 -2.2798
  149OSM    C4S16488   4.832   5.790   5.636 -0.3739  1.0163  0.3474
  149OSM    H4S16489   4.745   5.823   5.695 -0.4224  0.2291  0.7326
  149OSM    C5S16490   4.954   5.820   5.680  0.2289 -0.1434  0.0920
  149OSM    H5S16491   5.043   5.796   5.619  0.3629 -0.6617  0.4811
  149OSM    C6S16492   4.995   5.882   5.806  0.0229 -0.1799 -0.1907
  149OSM    H6S16493   5.008   5.992   5.797 -2.5991  0.1589 -0.6332
  149OSM    H6T16494   5.096   5.847   5.835 -1.5497 -2.9908  2.6602
  149OSM    C7S16495   4.895   5.848   5.919  0.2672  0.6763 -0.0563
  149OSM    H7S16496   4.899   5.737   5.928  1.9123  0.3681 -3.2231
  149OSM    H7T16497   4.795   5.890   5.895 -0.3177 -0.0039  1.0856
  149OSM    C8S16498   4.939   5.898   6.056 -0.1539  0.0533  0.3495
  149OSM    H8S16499   4.952   6.008   6.051 -0.2205  0.0096 -2.8671
  149OSM    H8T16500   5.047   5.871   6.063  0.8453  3.3784 -0.2014
  149OSM    C9S16501   4.860   5.849   6.177  0.6368 -0.2823 -0.1292
  149OSM    H9S16502   4.889   5.743   6.194  2.5095  0.0934 -0.7063
  149OSM    H9T16503   4.751   5.853   6.156  0.2406 -0.5070  1.6705
  149OSM   C10S16504   4.912   5.922   6.301 -0.5760  0.3106 -0.1984
  149OSM   H10S16505   4.878   6.026   6.322  3.2403  1.3032  1.9199
  149OSM   H10T16506   5.021   5.939   6.290 -0.4058  1.0027  2.0338
  149OSM   C11S16507   4.881   5.839   6.428  0.1375 -0.1436  0.0109
  149OSM   H11S16508   4.920   5.735   6.429  2.3729  0.6081 -1.4236
  149OSM   H11T16509   4.772   5.821   6.428  0.1883 -0.5495  1.2527
  149OSM   C12S16510   4.905   5.911   6.567 -0.2695  0.7114 -0.6386
  149OSM   H12S16511   4.872   6.016   6.554 -1.6055  0.5733  1.3316
  149OSM   H12T16512   5.016   5.912   6.581 -0.5186  0.1990  1.7891
  149OSM   C13S16513   4.836   5.837   6.679 -0.6823 -0.6592 -0.5340
  149OSM   H13S16514   4.894   5.745   6.700  0.7288  0.4645  0.7158
  149OSM   H13T16515   4.731   5.815   6.650 -0.3450 -2.3338 -0.5449
  149OSM   C14S16516   4.832   5.916   6.813  0.8111 -0.0285  0.0579
  149OSM   H14S16517   4.778   6.012   6.796 -1.2269 -0.5796  2.7587
  149OSM   H14T16518   4.934   5.946   6.843  0.9369 -0.1749 -0.2181
  149OSM   C15S16519   4.776   5.842   6.938  0.0077 -0.7020 -0.3055
  149OSM   H15S16520   4.830   5.746   6.951  2.3594  0.7536  1.2774
  149OSM   H15T16521   4.672   5.815   6.908 -0.2314 -1.0207  0.7923
  149OSM   C16S16522   4.770   5.927   7.069  0.7517 -0.0189 -0.1366
  149OSM   H16S16523   4.721   6.020   7.033  0.5429 -0.9848 -2.5684
  149OSM   H16T16524   4.873   5.951   7.105  0.0260  0.3733  1.8026
  149OSM   C17S16525   4.674   5.864   7.174  0.2982  0.0527 -0.1837
  149OSM   H17S16526   4.694   5.914   7.271  0.3830 -0.6576  0.1628
  149OSM   H17T16527   4.687   5.755   7.190 -0.5739  0.0257  0.4580
  149OSM   C18S16528   4.527   5.896   7.145  0.2232 -0.4476  0.0570
  149OSM   H18S16529   4.458   5.831   7.202  0.7249  0.3638  1.6217
  149OSM   H18T16530   4.512   5.878   7.036  1.1307  2.0072 -0.5295
  149OSM   H18U16531   4.501   5.999   7.175 -0.4893 -1.0669  1.6483
  149OSM    C1F16532   4.801   5.370   5.626 -0.2812 -0.1186 -0.3294
  149OSM     OF16533   4.893   5.313   5.568  0.1954  0.2232  0.0723
  149OSM    C2F16534   4.727   5.296   5.730  0.0521 -0.3520 -0.1153
  149OSM    H2F16535   4.713   5.187   5.712  1.5524 -0.4318 -0.9750
  149OSM    H2G16536   4.625   5.340   5.744  0.3457 -0.0417  1.2117
  149OSM    C3F16537   4.783   5.323   5.875 -0.4208 -0.1579  0.5006
  149OSM    H3F16538   4.892   5.301   5.881 -0.5805 -1.9687 -1.8718
  149OSM    H3G16539   4.717   5.268   5.945  1.4143 -1.9367  0.9437
  149OSM    C4F16540   4.766   5.464   5.916 -0.1269  0.7603  0.2309
  149OSM    H4F16541   4.671   5.515   5.890  0.0497  0.3349 -1.3336
  149OSM    H4G16542   4.851   5.512   5.865  3.5629 -2.5235  2.7004
  149OSM    C5F16543   4.809   5.475   6.067  0.3418  0.6525 -1.3149
  149OSM    H5F16544   4.802   5.582   6.097  0.1368  0.5417 -0.9566
  149OSM    H5G16545   4.913   5.445   6.091  0.5074  2.0109 -0.1704
  149OSM    C6F16546   4.723   5.393   6.166 -0.0426  0.1267  0.1061
  149OSM    H6F16547   4.636   5.347   6.116 -0.8201 -0.0340  1.5487
  149OSM    H6G16548   4.684   5.472   6.235  0.5999  0.6184 -0.0860
  149OSM    C7F16549   4.803   5.291   6.249  0.2090  0.2607  0.4743
  149OSM    H7F16550   4.909   5.326   6.250 -0.2204  1.6842 -1.1803
  149OSM    H7G16551   4.807   5.195   6.193  2.7008 -0.6873  2.0744
  149OSM    C8F16552   4.739   5.263   6.387  0.2623  0.0924  0.3123
  149OSM    H8F16553   4.796   5.177   6.429 -0.0094 -0.4181 -0.3525
  149OSM    H8G16554   4.635   5.233   6.362  0.6741  1.8289 -4.3618
  149OSM    C9F16555   4.756   5.376   6.487 -1.1206  0.0392 -0.5705
  149OSM    H9F16556   4.716   5.470   6.447 -1.1129 -0.1619 -1.0557
  149OSM   C10F16557   4.829   5.373   6.600  0.2059 -1.0678  0.8474
  149OSM   H10F16558   4.811   5.460   6.665  3.1427  0.4968 -0.2643
  149OSM   C11F16559   4.909   5.259   6.660 -0.3928  0.0950 -0.1053
  149OSM   H11F16560   4.920   5.172   6.592  0.7013 -0.3467  0.6015
  149OSM   H11G16561   4.858   5.221   6.751 -0.5264  0.2516 -0.1155
  149OSM   C12F16562   5.049   5.301   6.695 -0.0655 -0.7514  0.1158
  149OSM   H12F16563   5.106   5.333   6.606  1.2702 -1.2284  0.7627
  149OSM   H12G16564   5.108   5.213   6.729  2.9705 -0.0419 -2.7991
  149OSM   C13F16565   5.051   5.412   6.806  0.0261  0.6273 -0.6915
  149OSM   H13F16566   4.982   5.497   6.788  2.1391  2.5930  0.0803
  149OSM   H13G16567   5.151   5.458   6.803  0.4032 -0.1082  0.0436
  149OSM   C14F16568   5.031   5.362   6.954  0.1106  0.0955 -0.0394
  149OSM   H14F16569   5.107   5.283   6.973 -2.2627 -2.0496  1.3138
  149OSM   H14G16570   4.931   5.312   6.958  0.5954 -0.8890  0.0093
  149OSM   C15F16571   5.045   5.467   7.068  0.3629  0.5815  0.1999
  149OSM   H15F16572   4.953   5.527   7.053 -1.0050 -2.0215 -3.1709
  149OSM   H15G16573   5.136   5.529   7.049  0.2253  0.4206 -1.0895
  149OSM   C16F16574   5.055   5.397   7.200  0.5028  0.3517 -0.2966
  149OSM   H16F16575   5.142   5.331   7.217 -0.6150 -0.9160  0.6952
  149OSM   H16G16576   4.972   5.323   7.203  1.7338 -1.1719 -1.9776
  149OSM   C17F16577   5.053   5.488   7.326  0.1431 -0.0345 -0.0864
  149OSM   H17F16578   5.156   5.531   7.326 -0.8033  2.4367 -1.3203
  149OSM   H17G16579   5.043   5.417   7.410 -1.0173  1.4224  1.0580
  149OSM   C18F16580   4.942   5.583   7.332 -0.4052 -0.3806  0.0125
  149OSM   H18F16581   4.947   5.659   7.251  1.5309  1.5390  1.8028
  149OSM   H18G16582   4.956   5.643   7.424  2.0690 -1.8410  0.6934
  149OSM   H18H16583   4.841   5.536   7.338 -0.4711 -0.4192 -1.0634
  150OSM      N16584   3.325   0.047   5.113  0.1489  0.0516  0.1187
  150OSM    C1516585   3.253  -0.049   5.027  0.0900 -0.3208 -0.5497
  150OSM   H15A16586   3.316  -0.135   5.010 -1.2353 -0.9089 -2.9073
  150OSM   H15B16587   3.233  -0.010   4.929 -2.5477 -1.7991 -0.6888
  150OSM   H15C16588   3.160  -0.087   5.066  0.9991 -3.8463 -1.4555
  150OSM    C1416589   3.464   0.048   5.061 -0.2041 -0.4334 -0.3229
  150OSM   H14A16590   3.460   0.081   4.959  0.9184  0.1656 -0.1843
  150OSM   H14B16591   3.506  -0.052   5.061  0.2254 -0.3989 -4.1537
  150OSM   H14C16592   3.524   0.115   5.121 -2.7358  2.0917 -0.4134
  150OSM    C1316593   3.264   0.187   5.092 -0.2692  0.1896  0.4716
  150OSM   H13A16594   3.160   0.189   5.121 -1.1359  1.4395 -2.3535
  150OSM   H13B16595   3.247   0.212   4.988 -1.2134  0.8464  0.7693
  150OSM   H13C16596   3.306   0.274   5.139  1.5043 -0.5059  0.2428
  150OSM    C1216597   3.327   0.006   5.261 -0.6835  0.1937  1.4928
  150OSM   H12A16598   3.388   0.080   5.311 -0.6609  3.1088 -2.3525
  150OSM   H12B16599   3.380  -0.087   5.278 -0.8226 -0.2427 -0.2343
  150OSM    C1116600   3.199   0.022   5.343 -0.0231  0.7080 -0.2078
  150OSM   H11A16601   3.188   0.126   5.382 -0.9634 -0.0747  1.7438
  150OSM   H11B16602   3.220  -0.027   5.440  1.6811  0.4522 -0.6819
  150OSM      P16603   2.945   0.056   5.266  0.4054  0.2190 -0.6296
  150OSM    O1316604   2.976   0.201   5.254 -0.4053  0.2584  0.1636
  150OSM    O1416605   2.856  -0.012   5.172 -0.0670  0.2750  0.2446
  150OSM    O1116606   2.879   0.037   5.415 -0.6677  0.3100  0.6236
  150OSM    O1216607   3.080  -0.026   5.281  0.2329  0.8981 -0.7476
  150OSM    C1S16608   2.875  -0.095   5.474 -1.1273  0.3613 -0.0189
  150OSM    H1S16609   2.972  -0.109   5.527 -0.7406  1.3027 -0.4565
  150OSM    H1T16610   2.847  -0.178   5.406 -0.9833  0.5100 -0.2626
  150OSM     NF16611   2.766  -0.225   5.654 -0.0484 -0.3659  0.1373
  150OSM    HNF16612   2.705  -0.302   5.640  0.1247 -0.5716  0.4907
  150OSM    C2S16613   2.754  -0.105   5.575  0.7341  0.4411  0.0896
  150OSM    H2S16614   2.762  -0.027   5.654  1.6050 -0.2404  0.6977
  150OSM    C3S16615   2.616  -0.086   5.497 -0.1085  0.6177 -0.4233
  150OSM    H3S16616   2.612  -0.151   5.407 -2.0506 -2.4313  1.7090
  150OSM     O316617   2.598   0.047   5.450  0.9346  0.6672 -0.3884
  150OSM    HO316618   2.683   0.091   5.445  1.4814 -0.1155  1.2868
  150OSM    C4S16619   2.503  -0.133   5.582 -0.0051  0.0428 -0.4920
  150OSM    H4S16620   2.493  -0.242   5.586  0.1877  0.0577  0.7361
  150OSM    C5S16621   2.420  -0.060   5.657 -0.0080  0.2038  0.3721
  150OSM    H5S16622   2.427   0.049   5.657 -0.0060  0.2039  0.5274
  150OSM    C6S16623   2.319  -0.132   5.753  0.0040 -0.0764  0.3433
  150OSM    H6S16624   2.306  -0.238   5.724 -1.7787 -0.1868  1.4309
  150OSM    H6T16625   2.222  -0.080   5.737  1.2573  2.7557  1.3365
  150OSM    C7S16626   2.352  -0.112   5.908  0.3833 -0.8351  0.7553
  150OSM    H7S16627   2.357  -0.003   5.926 -2.1435 -0.4175 -0.5020
  150OSM    H7T16628   2.451  -0.157   5.931  0.3982  0.2852  3.1966
  150OSM    C8S16629   2.236  -0.160   6.001 -0.4204 -0.5077 -0.2019
  150OSM    H8S16630   2.231  -0.271   6.011  0.6712 -0.5309  0.2588
  150OSM    H8T16631   2.143  -0.115   5.961  0.7908  0.1774 -2.3893
  150OSM    C9S16632   2.254  -0.102   6.142 -0.1889 -0.2603 -0.1974
  150OSM    H9S16633   2.260   0.008   6.141 -0.3535 -0.2365  0.6637
  150OSM    H9T16634   2.349  -0.141   6.185 -1.2635 -2.2981  0.4876
  150OSM   C10S16635   2.136  -0.144   6.237  0.1613 -0.1435 -0.7107
  150OSM   H10S16636   2.119  -0.253   6.250  0.8774 -0.0320  1.7839
  150OSM   H10T16637   2.048  -0.099   6.186  0.7210  1.8706  0.0116
  150OSM   C11S16638   2.152  -0.089   6.377 -1.2259 -0.5143  0.5028
  150OSM   H11S16639   2.210   0.005   6.372  0.6571 -1.6900 -1.0221
  150OSM   H11T16640   2.207  -0.158   6.445 -0.0654  0.1124  0.2124
  150OSM   C12S16641   2.016  -0.054   6.447  0.6783  0.5063  1.1643
  150OSM   H12S16642   1.949  -0.143   6.441  0.9077  0.4309 -0.8199
  150OSM   H12T16643   1.965   0.020   6.382 -2.4112 -0.6677  2.0638
  150OSM   C13S16644   2.036  -0.001   6.592  0.3741 -0.3521 -0.2876
  150OSM   H13S16645   2.077   0.102   6.599  0.6584 -0.5952  2.9188
  150OSM   H13T16646   2.117  -0.056   6.645  1.7493  0.7215 -1.1921
  150OSM   C14S16647   1.909  -0.008   6.682 -0.0536 -0.0390 -0.6004
  150OSM   H14S16648   1.881  -0.112   6.709  0.3088 -0.7489 -2.7524
  150OSM   H14T16649   1.822   0.023   6.620 -0.2246 -0.8430 -0.7677
  150OSM   C15S16650   1.912   0.083   6.809 -0.4839  0.7746  0.0581
  150OSM   H15S16651   1.949   0.185   6.789  2.0284 -0.1383 -0.3476
  150OSM   H15T16652   1.996   0.044   6.871 -1.4976 -0.4495  0.7280
  150OSM   C16S16653   1.796   0.067   6.912 -0.2174  0.0618  1.0411
  150OSM   H16S16654   1.700   0.059   6.856 -0.0092  0.7482  0.5696
  150OSM   H16T16655   1.789   0.154   6.980  0.5890  1.6169 -0.7894
  150OSM   C17S16656   1.813  -0.059   7.007 -0.3601 -0.3624 -0.5638
  150OSM   H17S16657   1.897  -0.039   7.077 -1.6053 -1.1596  1.2441
  150OSM   H17T16658   1.833  -0.143   6.938  1.3544 -1.2065  0.8863
  150OSM   C18S16659   1.691  -0.083   7.097 -0.8770  0.6323 -0.2981
  150OSM   H18S16660   1.610  -0.128   7.035 -0.7249  0.4628 -0.3748
  150OSM   H18T16661   1.654   0.013   7.140 -0.7009 -0.6285  2.9084
  150OSM   H18U16662   1.711  -0.160   7.175  0.2737  0.8154 -0.4069
  150OSM    C1F16663   2.862  -0.235   5.748  0.3427 -0.4629  0.0962
  150OSM     OF16664   2.933  -0.143   5.777  0.3192  0.0950  0.1594
  150OSM    C2F16665   2.883  -0.372   5.805  0.0362 -0.4514 -0.2081
  150OSM    H2F16666   2.846  -0.449   5.733 -1.1195  0.8660 -1.0762
  150OSM    H2G16667   2.816  -0.387   5.892 -0.9787 -1.9609 -1.2072
  150OSM    C3F16668   3.024  -0.405   5.857 -0.0862  0.0699  0.8724
  150OSM    H3F16669   3.094  -0.399   5.771 -2.5689 -2.6685 -1.5687
  150OSM    H3G16670   3.016  -0.510   5.892 -1.7443 -0.7020 -1.5764
  150OSM    C4F16671   3.085  -0.320   5.982  0.1909  0.3463  0.7413
  150OSM    H4F16672   2.997  -0.303   6.048 -0.2109  1.9160 -0.1638
  150OSM    H4G16673   3.108  -0.215   5.954  2.3210 -0.4747 -0.8506
  150OSM    C5F16674   3.199  -0.388   6.062  0.3296 -0.1715  0.6145
  150OSM    H5F16675   3.287  -0.387   5.994 -0.9564 -3.5028 -1.3448
  150OSM    H5G16676   3.162  -0.488   6.094  1.5138 -0.0216  2.5755
  150OSM    C6F16677   3.239  -0.304   6.187 -0.0151  0.1081 -0.8428
  150OSM    H6F16678   3.216  -0.203   6.146  0.7748 -0.4953 -2.8781
  150OSM    H6G16679   3.347  -0.326   6.199 -0.0651 -0.0115 -0.6074
  150OSM    C7F16680   3.151  -0.347   6.313  0.0006  0.1601 -1.0904
  150OSM    H7F16681   3.174  -0.450   6.347 -0.2264  0.5879  0.4646
  150OSM    H7G16682   3.041  -0.338   6.300 -0.4014 -1.8718  0.4889
  150OSM    C8F16683   3.199  -0.257   6.439 -0.0355  0.4948 -0.1678
  150OSM    H8F16684   3.311  -0.256   6.442 -0.0630  1.4428  1.0922
  150OSM    H8G16685   3.162  -0.310   6.529 -0.2742 -0.3633 -0.7507
  150OSM    C9F16686   3.157  -0.117   6.442 -0.4603  1.0116 -0.7473
  150OSM    H9F16687   3.142  -0.083   6.339  0.5973 -0.2873 -1.3549
  150OSM   C10F16688   3.104  -0.048   6.535  0.0989 -0.6588 -0.0463
  150OSM   H10F16689   3.081   0.056   6.505  2.2417 -1.3635 -5.2203
  150OSM   C11F16690   3.090  -0.080   6.683  0.0462  0.3705 -0.0779
  150OSM   H11F16691   3.062  -0.186   6.697 -0.2976  0.3011 -1.1384
  150OSM   H11G16692   3.003  -0.024   6.725  0.7360  0.9068  0.6677
  150OSM   C12F16693   3.204  -0.037   6.781  0.1414 -0.1977  0.3482
  150OSM   H12F16694   3.220   0.073   6.780  0.6808 -0.2290  2.2962
  150OSM   H12G16695   3.298  -0.084   6.745 -0.6753  0.8877 -3.7684
  150OSM   C13F16696   3.168  -0.066   6.931 -0.2653 -0.8813 -0.0877
  150OSM   H13F16697   3.241  -0.026   7.004 -0.6646  0.0291 -0.1767
  150OSM   H13G16698   3.158  -0.177   6.931  1.1169 -1.0303 -1.1273
  150OSM   C14F16699   3.024  -0.025   6.975 -0.1331  0.1766  0.3344
  150OSM   H14F16700   2.955  -0.084   6.911  0.6868 -1.0212  0.5005
  150OSM   H14G16701   3.013   0.084   6.960  0.3393  0.0329 -1.2506
  150OSM   C15F16702   2.999  -0.052   7.126  0.0880  0.3640 -0.0422
  150OSM   H15F16703   3.089  -0.017   7.181 -0.1559 -2.9689  2.8232
  150OSM   H15G16704   2.989  -0.162   7.138  0.8350  0.4574  1.6320
  150OSM   C16F16705   2.877   0.029   7.181  0.3510 -0.0433 -0.8566
  150OSM   H16F16706   2.888   0.137   7.158 -2.1253  0.6281  0.7175
  150OSM   H16G16707   2.877   0.007   7.290  0.4401 -0.7183 -0.9880
  150OSM   C17F16708   2.745  -0.034   7.128 -0.0151 -1.5666  0.3464
  150OSM   H17F16709   2.758  -0.143   7.116  0.3076 -1.3113 -2.2273
  150OSM   H17G16710   2.732  -0.013   7.020 -0.8957 -4.2096 -0.1249
  150OSM   C18F16711   2.625   0.010   7.208  0.5768  0.6468  0.0278
  150OSM   H18F16712   2.638  -0.003   7.317  1.2247  1.4358  0.0592
  150OSM   H18G16713   2.528  -0.042   7.195  1.2723 -0.5939 -0.3411
  150OSM   H18H16714   2.607   0.120   7.201 -1.3556  0.4038  0.8015
  151OSM      N16715   2.668   2.508   4.772  0.1270  0.5832 -0.2857
  151OSM    C1516716   2.625   2.630   4.842 -0.1610  0.7310 -0.4790
  151OSM   H15A16717   2.637   2.620   4.949 -0.2121  0.9128 -0.4563
  151OSM   H15B16718   2.523   2.655   4.817 -0.4658  1.6940  1.4786
  151OSM   H15C16719   2.690   2.713   4.819 -0.8676  0.6559 -3.0242
  151OSM    C1416720   2.577   2.404   4.813 -0.2670  0.1040  0.7070
  151OSM   H14A16721   2.470   2.414   4.814 -0.5341 -2.1030  2.3546
  151OSM   H14B16722   2.609   2.379   4.913  0.7285  0.3339  0.4576
  151OSM   H14C16723   2.598   2.314   4.757  0.7068  0.2851  0.7665
  151OSM    C1316724   2.637   2.518   4.626 -0.4659 -0.5158  0.0287
  151OSM   H13A16725   2.619   2.418   4.587  0.1556 -1.4656  2.0191
  151OSM   H13B16726   2.716   2.564   4.571  1.7089 -0.3228  3.0727
  151OSM   H13C16727   2.552   2.583   4.611  2.1266  3.2278  0.3659
  151OSM    C1216728   2.811   2.472   4.783 -0.0889 -0.7139 -1.0095
  151OSM   H12A16729   2.864   2.544   4.722  1.4397 -2.3862 -1.7394
  151OSM   H12B16730   2.831   2.377   4.736  2.1495 -1.2249  0.7881
  151OSM    C1116731   2.874   2.466   4.928 -0.4818 -0.5023 -0.2301
  151OSM   H11A16732   2.843   2.559   4.981  0.0157 -0.4293 -0.0657
  151OSM   H11B16733   2.983   2.466   4.906 -0.4258  1.5703 -0.1147
  151OSM      P16734   2.882   2.205   4.942 -0.1121  0.3852  0.6046
  151OSM    O1316735   2.790   2.096   4.981 -0.7245 -0.0348 -0.0866
  151OSM    O1416736   2.914   2.205   4.800  1.0761 -0.1180  0.6886
  151OSM    O1116737   3.017   2.186   5.026 -0.2421 -0.1444  0.0296
  151OSM    O1216738   2.828   2.347   4.993  0.1303  0.0692  0.3640
  151OSM    C1S16739   3.024   2.235   5.165  0.5649  0.3088  0.1024
  151OSM    H1S16740   2.960   2.326   5.175  0.8600  0.8257 -2.1422
  151OSM    H1T16741   3.131   2.263   5.179  0.6512  0.6351 -1.0564
  151OSM     NF16742   2.952   2.170   5.396 -0.3118  0.2082 -0.0729
  151OSM    HNF16743   3.024   2.174   5.465 -0.0395 -1.2029 -0.2580
  151OSM    C2S16744   2.991   2.122   5.266 -0.4746 -0.1671 -0.1242
  151OSM    H2S16745   2.903   2.070   5.221  0.3716 -0.8759 -0.9832
  151OSM    C3S16746   3.105   2.018   5.293 -0.1301 -0.0003  0.4924
  151OSM    H3S16747   3.170   2.062   5.371  0.2998  3.6735 -1.7070
  151OSM     O316748   3.187   1.982   5.179 -0.2261 -0.1704  0.4985
  151OSM    HO316749   3.160   2.046   5.113  0.0324 -1.0335 -0.4722
  151OSM    C4S16750   3.050   1.890   5.363 -0.7651 -0.0766  0.6049
  151OSM    H4S16751   2.976   1.832   5.306 -0.7296 -0.8949  1.3889
  151OSM    C5S16752   3.084   1.837   5.483 -0.0202 -0.5340  0.1710
  151OSM    H5S16753   3.162   1.882   5.546 -1.3421  0.3602  1.2149
  151OSM    C6S16754   3.021   1.722   5.555  0.6275  0.5225  0.1341
  151OSM    H6S16755   2.937   1.689   5.491 -0.3270  1.3776  0.9185
  151OSM    H6T16756   2.986   1.753   5.656 -0.7968  0.5208 -0.3365
  151OSM    C7S16757   3.121   1.607   5.573  0.0477  0.6668  0.0368
  151OSM    H7S16758   3.181   1.598   5.479 -1.5161  0.5539 -1.0023
  151OSM    H7T16759   3.076   1.506   5.590 -0.9127  1.0564 -0.1192
  151OSM    C8S16760   3.217   1.624   5.697  0.1035 -0.1911  0.3689
  151OSM    H8S16761   3.241   1.731   5.682 -0.4787 -0.3413 -2.2040
  151OSM    H8T16762   3.308   1.562   5.688 -0.4246 -0.8502 -0.7064
  151OSM    C9S16763   3.162   1.602   5.842  0.0514  0.9837  0.2400
  151OSM    H9S16764   3.128   1.496   5.840  1.0266  0.6383  1.1372
  151OSM    H9T16765   3.068   1.661   5.844 -2.5530 -2.8004 -0.4863
  151OSM   C10S16766   3.263   1.629   5.956  0.2445  0.9029 -0.1592
  151OSM   H10S16767   3.293   1.735   5.943  2.0783  0.5106  0.6475
  151OSM   H10T16768   3.351   1.562   5.952 -0.1744  0.3721 -0.8734
  151OSM   C11S16769   3.197   1.615   6.091  0.0730  0.2008 -1.0644
  151OSM   H11S16770   3.173   1.510   6.115 -1.0543  0.5994 -0.3835
  151OSM   H11T16771   3.099   1.666   6.080  0.0262  0.0495 -1.3555
  151OSM   C12S16772   3.278   1.679   6.205 -0.6952  0.1258  0.2861
  151OSM   H12S16773   3.272   1.790   6.204  2.1304  0.4270  2.6351
  151OSM   H12T16774   3.381   1.644   6.181 -1.2238 -0.9189 -0.5321
  151OSM   C13S16775   3.230   1.635   6.352  0.5090  0.2576  0.3765
  151OSM   H13S16776   3.223   1.525   6.366 -0.5453  0.3304  0.4752
  151OSM   H13T16777   3.126   1.672   6.352  0.3011 -0.3227  0.3365
  151OSM   C14S16778   3.313   1.699   6.464 -0.0369 -0.3474  0.5794
  151OSM   H14S16779   3.313   1.810   6.453 -1.7224 -0.5178 -2.1397
  151OSM   H14T16780   3.417   1.668   6.445 -0.1527 -1.4855  1.6593
  151OSM   C15S16781   3.274   1.651   6.603 -0.5470  0.3597  0.0208
  151OSM   H15S16782   3.260   1.541   6.599 -4.8981  0.7978 -1.3931
  151OSM   H15T16783   3.172   1.687   6.630  0.2815  2.5151  0.5382
  151OSM   C16S16784   3.383   1.693   6.700 -0.6425  0.3026 -1.1451
  151OSM   H16S16785   3.378   1.803   6.705  1.4353  0.4070 -0.5797
  151OSM   H16T16786   3.482   1.658   6.663 -0.6891  0.0943 -1.0787
  151OSM   C17S16787   3.369   1.640   6.846  0.5239  0.0821 -0.3278
  151OSM   H17S16788   3.450   1.688   6.905  1.1861 -0.3926 -0.8484
  151OSM   H17T16789   3.385   1.530   6.849  2.7023  0.3773  0.7206
  151OSM   C18S16790   3.232   1.667   6.910 -0.4488 -0.2218  0.4446
  151OSM   H18S16791   3.248   1.668   7.019  0.1483 -0.8128  0.3672
  151OSM   H18T16792   3.160   1.585   6.886 -0.8709 -0.2881  1.8373
  151OSM   H18U16793   3.174   1.758   6.880  0.7420 -0.1353 -1.8042
  151OSM    C1F16794   2.826   2.217   5.429  0.1973  0.6076  0.0388
  151OSM     OF16795   2.739   2.221   5.343 -0.0372  0.4396  0.6292
  151OSM    C2F16796   2.799   2.267   5.564 -0.1772  0.1617 -0.3655
  151OSM    H2F16797   2.892   2.322   5.592 -0.3764  0.7742 -0.8903
  151OSM    H2G16798   2.774   2.184   5.634 -1.2815 -0.3075 -1.2840
  151OSM    C3F16799   2.685   2.368   5.578  0.6284  0.0699 -0.8176
  151OSM    H3F16800   2.594   2.332   5.524 -0.8521  3.3988 -0.8161
  151OSM    H3G16801   2.713   2.465   5.530 -1.1125  0.9298 -0.2037
  151OSM    C4F16802   2.637   2.384   5.727 -0.1088  0.2410  0.7648
  151OSM    H4F16803   2.580   2.291   5.747 -1.7411  1.1020  0.3362
  151OSM    H4G16804   2.567   2.469   5.743  2.9625  2.7206  2.2177
  151OSM    C5F16805   2.748   2.415   5.826 -0.9784  0.3566 -0.4042
  151OSM    H5F16806   2.781   2.520   5.821  0.8009 -0.1689 -0.3549
  151OSM    H5G16807   2.844   2.360   5.815 -1.7324 -1.1048  0.0181
  151OSM    C6F16808   2.708   2.406   5.977 -0.8401  0.1266 -0.0704
  151OSM    H6F16809   2.690   2.297   5.994  0.1337 -0.1144 -0.4924
  151OSM    H6G16810   2.617   2.470   5.985 -2.0518 -1.5002 -0.2708
  151OSM    C7F16811   2.820   2.450   6.080 -0.3811 -0.0411  0.6653
  151OSM    H7F16812   2.859   2.547   6.042  0.4315 -0.9694 -1.0116
  151OSM    H7G16813   2.900   2.375   6.061 -0.2231 -0.0281  1.2579
  151OSM    C8F16814   2.783   2.453   6.228 -0.0560 -0.0623 -0.3785
  151OSM    H8F16815   2.710   2.537   6.233 -0.4511 -0.3607 -1.0918
  151OSM    H8G16816   2.876   2.494   6.272  0.2238 -0.0124 -1.0037
  151OSM    C9F16817   2.744   2.320   6.297 -0.0409  0.5022  0.8437
  151OSM    H9F16818   2.779   2.225   6.252  0.5259  0.1496  1.9875
  151OSM   C10F16819   2.671   2.305   6.409  0.2011 -1.0425 -0.0466
  151OSM   H10F16820   2.635   2.207   6.446  0.2029 -1.4689 -1.1275
  151OSM   C11F16821   2.622   2.420   6.491 -0.3418 -0.2304 -0.2608
  151OSM   H11F16822   2.513   2.416   6.509 -0.0918 -1.5028  1.2481
  151OSM   H11G16823   2.657   2.519   6.455 -1.0829 -0.0574 -0.5051
  151OSM   C12F16824   2.684   2.410   6.634 -0.0569 -0.3921  0.2169
  151OSM   H12F16825   2.679   2.514   6.674 -0.5645 -0.3708  0.1055
  151OSM   H12G16826   2.790   2.379   6.622  0.6103  1.9421 -0.4357
  151OSM   C13F16827   2.615   2.315   6.735  0.2709 -0.2393  0.1038
  151OSM   H13F16828   2.606   2.222   6.675 -2.2671 -0.6248  0.9409
  151OSM   H13G16829   2.513   2.356   6.755 -0.4096 -1.8240  0.0314
  151OSM   C14F16830   2.709   2.305   6.858  0.5998  0.4337  0.1725
  151OSM   H14F16831   2.704   2.404   6.909 -1.2206 -0.0263  0.9842
  151OSM   H14G16832   2.812   2.290   6.820  0.4354 -2.0080  0.5358
  151OSM   C15F16833   2.651   2.213   6.968  0.4459  0.2264 -0.3550
  151OSM   H15F16834   2.661   2.107   6.936  0.7700 -0.1603  0.9804
  151OSM   H15G16835   2.542   2.233   6.973  0.3621  0.0656 -1.4203
  151OSM   C16F16836   2.720   2.242   7.102 -0.0689  0.7909 -0.0344
  151OSM   H16F16837   2.680   2.337   7.144 -1.4591  0.5375 -0.7196
  151OSM   H16G16838   2.831   2.246   7.103  0.2118 -3.3901  0.1560
  151OSM   C17F16839   2.712   2.136   7.212  0.3264  0.4106 -0.0181
  151OSM   H17F16840   2.754   2.156   7.313  1.4042 -2.6480  0.2719
  151OSM   H17G16841   2.776   2.047   7.194  1.0210  0.9212 -0.0804
  151OSM   C18F16842   2.573   2.079   7.238  0.2644 -0.0826 -0.0630
  151OSM   H18F16843   2.509   2.159   7.282  1.2884 -0.9062  3.2489
  151OSM   H18G16844   2.583   1.988   7.301 -0.1671 -0.3874 -0.4281
  151OSM   H18H16845   2.518   2.049   7.146  0.4523 -1.7549  0.3222
  152OSM      N16846   4.319   6.755   4.680  0.0061  0.0210  0.0600
  152OSM    C1516847   4.291   6.679   4.553  0.2186 -0.0987  0.2451
  152OSM   H15A16848   4.353   6.723   4.476  1.8228 -3.7588 -0.7806
  152OSM   H15B16849   4.190   6.682   4.514  0.2686  2.1414  0.1171
  152OSM   H15C16850   4.322   6.576   4.550 -2.3624 -1.0316  2.5581
  152OSM    C1416851   4.466   6.745   4.707 -0.5363 -0.4314  0.7112
  152OSM   H14A16852   4.495   6.641   4.703  0.8485 -0.0383 -0.3590
  152OSM   H14B16853   4.487   6.767   4.810 -0.2582 -1.6727  0.9331
  152OSM   H14C16854   4.534   6.803   4.646  0.8066 -2.9497 -0.3757
  152OSM    C1316855   4.282   6.899   4.659  0.0738  0.6360  0.0014
  152OSM   H13A16856   4.176   6.912   4.645 -0.2301 -0.3205  1.2211
  152OSM   H13B16857   4.343   6.945   4.582  1.9375  0.6226  1.4027
  152OSM   H13C16858   4.301   6.961   4.746  2.5824 -0.9934  0.7137
  152OSM    C1216859   4.231   6.699   4.798  0.1815  0.1020 -0.1627
  152OSM   H12A16860   4.251   6.594   4.814 -2.5332 -0.4260  0.3013
  152OSM   H12B16861   4.126   6.708   4.773 -0.0138  1.3500  0.9740
  152OSM    C1116862   4.250   6.764   4.937 -0.6773  0.2136  0.4237
  152OSM   H11A16863   4.359   6.770   4.955 -0.6621  1.3714  0.0253
  152OSM   H11B16864   4.213   6.692   5.013  0.3309  0.1720  0.8933
  152OSM      P16865   4.032   6.913   4.937 -0.4377 -0.1327 -0.2096
  152OSM    O1316866   4.001   7.034   4.856 -0.7919 -0.4423  0.0272
  152OSM    O1416867   3.965   6.788   4.901  0.1649  0.5186  0.1436
  152OSM    O1116868   3.985   6.944   5.086 -0.1407  0.0118  0.6153
  152OSM    O1216869   4.187   6.891   4.938  0.0319 -0.3147 -0.2290
  152OSM    C1S16870   4.067   6.906   5.192  0.3181  0.3191 -0.1442
  152OSM    H1S16871   4.160   6.966   5.197  0.4184  0.1079  0.7808
  152OSM    H1T16872   4.097   6.799   5.186  2.3588  0.9019 -1.1647
  152OSM     NF16873   4.083   6.902   5.446  0.1625 -0.3567  0.2815
  152OSM    HNF16874   4.073   6.809   5.481 -0.9535 -0.6073 -0.6366
  152OSM    C2S16875   3.994   6.916   5.329 -0.6263 -0.8235  0.5809
  152OSM    H2S16876   3.963   7.023   5.329  1.3672 -0.2052 -0.3155
  152OSM    C3S16877   3.866   6.823   5.330  0.4111  0.4986  0.1341
  152OSM    H3S16878   3.895   6.728   5.280  0.4422  0.9079 -0.6424
  152OSM     O316879   3.765   6.872   5.239  0.5369  0.2806 -0.3657
  152OSM    HO316880   3.803   6.934   5.177  1.3942 -0.0894 -0.2149
  152OSM    C4S16881   3.804   6.820   5.469 -0.0669  0.1416  1.2042
  152OSM    H4S16882   3.820   6.727   5.525 -0.0115 -0.2657  0.5300
  152OSM    C5S16883   3.723   6.915   5.518 -0.9961 -0.3134 -1.7917
  152OSM    H5S16884   3.714   7.012   5.466  1.1927  0.5024 -0.7835
  152OSM    C6S16885   3.660   6.908   5.656 -1.0583 -0.7557 -0.4723
  152OSM    H6S16886   3.666   6.807   5.700  1.0981 -0.9423 -1.0367
  152OSM    H6T16887   3.555   6.942   5.648 -0.2297  2.5753  0.9350
  152OSM    C7S16888   3.738   7.006   5.749 -0.4564 -0.5123  0.0262
  152OSM    H7S16889   3.694   7.022   5.849  1.1740 -1.6282  0.9776
  152OSM    H7T16890   3.760   7.103   5.701  1.3209 -0.5798  0.6339
  152OSM    C8S16891   3.881   6.961   5.785 -0.4253  0.1905  0.3605
  152OSM    H8S16892   3.938   6.954   5.690  0.4039 -0.4963  0.8972
  152OSM    H8T16893   3.877   6.856   5.820 -2.9623 -0.2099 -0.8638
  152OSM    C9S16894   3.969   7.051   5.875  0.8282  0.2293  0.4085
  152OSM    H9S16895   3.955   7.160   5.855 -0.2425  0.1907  0.8790
  152OSM    H9T16896   4.078   7.029   5.871  0.4834 -2.6141  2.8746
  152OSM   C10S16897   3.925   7.014   6.017 -0.2616  0.0125 -0.2710
  152OSM   H10S16898   3.888   6.910   6.019 -0.0432 -0.1255 -1.8863
  152OSM   H10T16899   3.836   7.073   6.051 -0.8689 -0.2989 -1.2765
  152OSM   C11S16900   4.026   7.051   6.124  0.2817 -0.3344  0.0067
  152OSM   H11S16901   4.052   7.159   6.121 -0.4979 -0.1591 -1.1741
  152OSM   H11T16902   4.122   7.000   6.101 -0.3202 -1.2732 -0.4891
  152OSM   C12S16903   3.992   6.994   6.263 -0.1505  0.6157 -0.6125
  152OSM   H12S16904   4.026   6.888   6.256  0.2752  0.6524  0.6969
  152OSM   H12T16905   3.881   6.994   6.263 -0.2216 -1.6602 -2.0066
  152OSM   C13S16906   4.047   7.065   6.382  0.0525 -0.2251 -0.2715
  152OSM   H13S16907   3.965   7.130   6.420  0.7524 -0.0429  0.9886
  152OSM   H13T16908   4.128   7.141   6.366 -1.1891  1.1381 -0.3252
  152OSM   C14S16909   4.086   6.976   6.502  0.0158  0.0206 -0.5602
  152OSM   H14S16910   4.171   6.910   6.476 -0.0619 -0.1078 -0.4939
  152OSM   H14T16911   4.000   6.907   6.521 -0.2823  0.0452 -1.7591
  152OSM   C15S16912   4.115   7.046   6.636 -0.2649  0.2619  0.4093
  152OSM   H15S16913   4.034   7.120   6.650 -1.3275 -0.7864  0.0068
  152OSM   H15T16914   4.208   7.107   6.633 -2.6108  4.0921 -0.9421
  152OSM   C16S16915   4.112   6.958   6.763  0.2135  0.1328  0.0893
  152OSM   H16S16916   4.177   6.870   6.744 -2.0304 -1.3059 -1.3580
  152OSM   H16T16917   4.010   6.913   6.766  0.3742 -0.2132  1.9150
  152OSM   C17S16918   4.139   7.047   6.885 -0.0514 -0.3238  0.4738
  152OSM   H17S16919   4.082   7.142   6.874 -0.1943 -0.6059 -1.5287
  152OSM   H17T16920   4.249   7.059   6.891  0.2969 -2.7771 -0.0014
  152OSM   C18S16921   4.102   6.970   7.011 -0.2612 -0.2626 -0.4464
  152OSM   H18S16922   4.131   7.025   7.103 -0.5468  0.2310 -0.6470
  152OSM   H18T16923   4.156   6.873   7.020  2.5618  1.2542 -0.0189
  152OSM   H18U16924   3.992   6.954   7.011 -0.3656  0.4035 -1.0204
  152OSM    C1F16925   4.172   7.000   5.477 -0.1273 -0.4890 -0.1724
  152OSM     OF16926   4.177   7.111   5.414 -0.4013  0.5867 -0.3162
  152OSM    C2F16927   4.274   6.967   5.586  0.1038  0.3198 -0.6300
  152OSM    H2F16928   4.365   6.927   5.535  2.1952  1.0306  2.2779
  152OSM    H2G16929   4.229   6.890   5.651 -1.1089 -0.7836 -2.6551
  152OSM    C3F16930   4.328   7.093   5.664  0.6332  0.3098  0.5412
  152OSM    H3F16931   4.245   7.144   5.716 -0.3786 -0.3221 -0.4111
  152OSM    H3G16932   4.361   7.179   5.602  1.8746  0.3644  1.2335
  152OSM    C4F16933   4.435   7.050   5.763  0.4877 -0.0731 -0.6069
  152OSM    H4F16934   4.515   7.005   5.700 -1.7138 -1.0387 -2.9001
  152OSM    H4G16935   4.398   6.961   5.818  0.7736 -0.0832 -0.4281
  152OSM    C5F16936   4.482   7.148   5.866  0.2697  0.3218  0.1495
  152OSM    H5F16937   4.492   7.251   5.826 -2.1777  0.8762  0.8384
  152OSM    H5G16938   4.583   7.112   5.898  1.4466  2.7913 -0.5256
  152OSM    C6F16939   4.391   7.148   5.987  0.2943  0.2350 -0.7465
  152OSM    H6F16940   4.382   7.044   6.022  0.5280 -0.0864 -1.6151
  152OSM    H6G16941   4.287   7.171   5.954 -1.8664 -3.0230  3.0225
  152OSM    C7F16942   4.450   7.236   6.096  0.5494 -0.6559  0.2821
  152OSM    H7F16943   4.558   7.215   6.112  1.3198  2.4907 -0.1571
  152OSM    H7G16944   4.395   7.207   6.189 -0.0935 -2.0875 -0.5102
  152OSM    C8F16945   4.445   7.387   6.055 -0.1740 -0.3158  0.2578
  152OSM    H8F16946   4.343   7.414   6.020  0.5568  2.4967 -0.0020
  152OSM    H8G16947   4.509   7.406   5.966  0.8870 -1.5601  0.7210
  152OSM    C9F16948   4.478   7.492   6.165  0.0742  0.1201  0.0144
  152OSM    H9F16949   4.580   7.532   6.160  0.5479 -0.8632  1.1698
  152OSM   C10F16950   4.395   7.528   6.269  0.5454  0.3287 -0.4529
  152OSM   H10F16951   4.433   7.598   6.345  2.4854 -1.1937  0.0482
  152OSM   C11F16952   4.258   7.461   6.291 -0.8152 -0.2524  0.2832
  152OSM   H11F16953   4.240   7.383   6.215 -0.2572 -0.6546  0.5590
  152OSM   H11G16954   4.181   7.540   6.277  0.9156  1.4045 -0.3813
  152OSM   C12F16955   4.252   7.380   6.417 -0.0588 -0.5261  0.4191
  152OSM   H12F16956   4.305   7.282   6.415  0.1345 -0.4414  1.0478
  152OSM   H12G16957   4.150   7.350   6.448 -0.8272  2.1141  0.7031
  152OSM   C13F16958   4.318   7.455   6.537 -0.2114  0.5624 -0.0471
  152OSM   H13F16959   4.274   7.557   6.536  1.2064  1.2585  2.2823
  152OSM   H13G16960   4.428   7.448   6.530 -0.2862 -0.7486 -0.2639
  152OSM   C14F16961   4.295   7.402   6.679 -0.1499 -0.1488 -0.9163
  152OSM   H14F16962   4.346   7.303   6.675 -0.3353 -0.3274  0.5907
  152OSM   H14G16963   4.188   7.374   6.681 -0.5789  1.3382  2.4648
  152OSM   C15F16964   4.310   7.505   6.793 -0.5309  0.4462 -0.0315
  152OSM   H15F16965   4.240   7.589   6.771  1.9635  1.9654 -2.8507
  152OSM   H15G16966   4.416   7.537   6.797  0.0478 -0.8791 -2.5600
  152OSM   C16F16967   4.249   7.445   6.915 -0.8035 -0.0199  0.4244
  152OSM   H16F16968   4.277   7.339   6.935 -0.3363 -0.0749 -0.4500
  152OSM   H16G16969   4.138   7.449   6.908 -0.9629 -0.7884  2.0118
  152OSM   C17F16970   4.284   7.535   7.033 -0.0744 -0.5060  0.3679
  152OSM   H17F16971   4.391   7.540   7.060 -0.3095  0.1293  1.2233
  152OSM   H17G16972   4.237   7.483   7.119  0.7576 -0.4216  0.8842
  152OSM   C18F16973   4.223   7.674   7.031 -0.7424  0.8731 -0.1732
  152OSM   H18F16974   4.114   7.667   7.010 -0.7642 -0.4040  0.2640
  152OSM   H18G16975   4.277   7.729   6.951  0.5757  0.0606  0.1110
  152OSM   H18H16976   4.237   7.726   7.128 -0.6027 -0.8145  0.7666
  153OSM      N16977   1.830   2.234   4.788  0.6240 -0.0713  0.1941
  153OSM    C1516978   1.823   2.083   4.798 -0.2764 -0.0057  0.2072
  153OSM   H15A16979   1.890   2.048   4.721  1.2455 -0.2752  1.5955
  153OSM   H15B16980   1.724   2.041   4.786  0.6122 -2.9776  2.0286
  153OSM   H15C16981   1.850   2.047   4.896  3.1522 -1.2907 -1.0729
  153OSM    C1416982   1.838   2.273   4.940  0.3731 -0.2373 -0.2977
  153OSM   H14A16983   1.911   2.213   4.992  1.3409  1.3875  0.3100
  153OSM   H14B16984   1.744   2.239   4.981 -0.4616  1.4566 -0.7130
  153OSM   H14C16985   1.843   2.380   4.958  0.5774 -0.2810 -0.0952
  153OSM    C1316986   1.962   2.274   4.734  0.5924  0.0293 -0.2576
  153OSM   H13A16987   1.971   2.251   4.628  3.0077 -0.6956  0.0500
  153OSM   H13B16988   2.033   2.220   4.794 -0.7257 -1.0052  0.4185
  153OSM   H13C16989   1.985   2.378   4.748  0.6547 -0.2000  1.5656
  153OSM    C1216990   1.722   2.300   4.717  0.3743 -0.5187 -0.2365
  153OSM   H12A16991   1.725   2.258   4.617  1.8064 -0.1730 -0.3625
  153OSM   H12B16992   1.733   2.407   4.707 -1.2075 -0.3376 -0.3320
  153OSM    C1116993   1.576   2.295   4.774  0.1272  1.0503 -0.1544
  153OSM   H11A16994   1.556   2.186   4.780 -0.0190  0.9090 -2.4640
  153OSM   H11B16995   1.510   2.321   4.688 -1.2917 -2.1340 -0.1693
  153OSM      P16996   1.558   2.525   4.908 -0.4546  0.5159 -0.1443
  153OSM    O1316997   1.695   2.570   4.897  0.0775 -0.1712 -0.9084
  153OSM    O1416998   1.452   2.583   4.821 -0.7241 -0.4127  0.0860
  153OSM    O1116999   1.513   2.545   5.053 -0.3012 -0.3823 -0.0068
  153OSM    O1217000   1.553   2.365   4.897 -0.4196 -1.1025 -0.2126
  153OSM    C1S17001   1.598   2.535   5.171  0.1563  0.0678 -0.0033
  153OSM    H1S17002   1.655   2.629   5.184 -1.3424  1.0763 -0.3682
  153OSM    H1T17003   1.665   2.447   5.172 -0.8188 -0.7005 -0.5178
  153OSM     NF17004   1.600   2.541   5.418  0.2082  0.2832  0.4842
  153OSM    HNF17005   1.602   2.465   5.483  0.3279 -0.8937 -0.8639
  153OSM    C2S17006   1.509   2.538   5.301 -0.1166 -0.0422  0.1054
  153OSM    H2S17007   1.446   2.630   5.301 -2.4461 -1.5472  0.5721
  153OSM    C3S17008   1.412   2.422   5.303  0.2439  0.3768  0.8018
  153OSM    H3S17009   1.470   2.329   5.321  0.7966  0.6858  0.6358
  153OSM     O317010   1.333   2.402   5.187 -0.0913 -0.5020  0.1934
  153OSM    HO317011   1.370   2.456   5.117 -0.8165 -0.6026 -0.2704
  153OSM    C4S17012   1.327   2.436   5.428  0.2214  0.0166  0.4916
  153OSM    H4S17013   1.378   2.390   5.515 -0.8969  0.1972  1.2707
  153OSM    C5S17014   1.197   2.473   5.444 -0.0963 -0.0818 -0.4625
  153OSM    H5S17015   1.142   2.505   5.354  1.3257 -1.3756 -1.8537
  153OSM    C6S17016   1.113   2.467   5.576  0.1632 -0.0490 -0.0916
  153OSM    H6S17017   1.011   2.432   5.549 -0.3435  1.1387  0.1938
  153OSM    H6T17018   1.102   2.572   5.611  0.9732  0.0786 -0.2083
  153OSM    C7S17019   1.178   2.378   5.685 -0.0698 -0.5476  0.7340
  153OSM    H7S17020   1.280   2.420   5.698 -0.4266  0.2603  1.0281
  153OSM    H7T17021   1.174   2.269   5.668 -0.4017 -0.3105 -0.8660
  153OSM    C8S17022   1.113   2.379   5.824 -0.8341  0.1726  0.0099
  153OSM    H8S17023   1.016   2.326   5.823 -1.2323  0.7995  2.0754
  153OSM    H8T17024   1.095   2.486   5.847  0.6408  0.6141 -0.7665
  153OSM    C9S17025   1.206   2.326   5.939 -0.6038  0.4554 -0.0303
  153OSM    H9S17026   1.289   2.399   5.945 -1.4200  1.2993  1.5234
  153OSM    H9T17027   1.245   2.226   5.910 -0.3519  0.0484  1.5867
  153OSM   C10S17028   1.124   2.319   6.071  0.1476  0.4635 -0.4906
  153OSM   H10S17029   1.043   2.244   6.057  0.6052 -0.7017  2.3967
  153OSM   H10T17030   1.094   2.424   6.094  1.3728  0.3588  1.7989
  153OSM   C11S17031   1.199   2.271   6.183  0.1600 -0.0015 -0.0470
  153OSM   H11S17032   1.292   2.324   6.212  0.3360  0.5159 -1.4789
  153OSM   H11T17033   1.232   2.169   6.154  0.6511  0.2096 -0.2466
  153OSM   C12S17034   1.106   2.247   6.307  0.5880 -0.3500  0.2800
  153OSM   H12S17035   1.003   2.213   6.282  2.0282 -5.2242 -0.0535
  153OSM   H12T17036   1.093   2.346   6.357 -0.3948  0.4425 -1.4636
  153OSM   C13S17037   1.159   2.151   6.409  0.2846  0.2793 -0.2713
  153OSM   H13S17038   1.263   2.187   6.429 -0.5528  0.8851  3.7929
  153OSM   H13T17039   1.169   2.050   6.365  0.0384  0.2069 -0.1632
  153OSM   C14S17040   1.079   2.153   6.538 -0.4045 -0.3086 -0.1394
  153OSM   H14S17041   0.970   2.131   6.524 -0.2778 -1.2780  0.3001
  153OSM   H14T17042   1.074   2.252   6.587  1.3768 -1.1732  1.9627
  153OSM   C15S17043   1.139   2.061   6.643  0.1511  1.0345 -0.3826
  153OSM   H15S17044   1.243   2.094   6.659  0.3315  0.4435 -0.3101
  153OSM   H15T17045   1.132   1.953   6.615 -1.3496  1.0622 -0.2240
  153OSM   C16S17046   1.063   2.070   6.779 -0.5259  0.0597 -0.5023
  153OSM   H16S17047   0.954   2.061   6.761 -0.6082  2.9305 -1.9155
  153OSM   H16T17048   1.071   2.173   6.820  1.1839  0.2303 -1.1828
  153OSM   C17S17049   1.109   1.966   6.879  0.4480  0.6204  0.8164
  153OSM   H17S17050   1.097   1.868   6.828  0.3113  1.2724 -0.4415
  153OSM   H17T17051   1.044   1.957   6.968 -0.4855  0.8541  0.1714
  153OSM   C18S17052   1.257   1.975   6.919  0.1589 -0.5460  0.3789
  153OSM   H18S17053   1.284   1.915   7.008  0.2034 -0.1959  0.6030
  153OSM   H18T17054   1.294   2.078   6.939  2.8632 -1.2813 -0.4445
  153OSM   H18U17055   1.321   1.945   6.834  1.3196  0.6181  0.8092
  153OSM    C1F17056   1.687   2.643   5.440 -0.3510 -0.3328  1.0230
  153OSM     OF17057   1.664   2.753   5.388 -0.2713 -0.4079 -0.4177
  153OSM    C2F17058   1.793   2.617   5.543 -0.0884 -0.0170  0.1929
  153OSM    H2F17059   1.889   2.644   5.494  0.3504  0.4844  1.2938
  153OSM    H2G17060   1.786   2.508   5.564 -2.5599 -0.0367 -0.4120
  153OSM    C3F17061   1.780   2.690   5.680 -0.5296  0.4268 -0.1353
  153OSM    H3F17062   1.727   2.629   5.756  1.0926 -0.1348  0.5916
  153OSM    H3G17063   1.728   2.786   5.658  2.9537  2.2771 -0.9837
  153OSM    C4F17064   1.914   2.722   5.745  0.5598 -0.2056 -0.8492
  153OSM    H4F17065   1.973   2.785   5.674  0.0299  1.6861  0.3152
  153OSM    H4G17066   1.979   2.636   5.769  1.5180  0.3466 -1.3878
  153OSM    C5F17067   1.905   2.820   5.868  0.0674  0.0846  0.5248
  153OSM    H5F17068   1.815   2.882   5.849 -0.2129 -0.7459 -0.9709
  153OSM    H5G17069   1.991   2.889   5.850  0.3130 -0.8276 -2.2862
  153OSM    C6F17070   1.904   2.757   6.005 -0.6294  0.3521  0.0360
  153OSM    H6F17071   1.980   2.676   6.003 -3.0572 -2.0848  0.4159
  153OSM    H6G17072   1.812   2.696   6.019  0.1391 -0.9447 -0.3988
  153OSM    C7F17073   1.931   2.847   6.126  0.4181  0.1573  0.5776
  153OSM    H7F17074   1.835   2.903   6.134  0.0168 -0.2593 -1.0291
  153OSM    H7G17075   2.010   2.921   6.102  3.4501 -2.7703  0.8929
  153OSM    C8F17076   1.950   2.780   6.260  0.2650 -0.4088 -0.7277
  153OSM    H8F17077   2.044   2.722   6.247  1.7744  1.7204  0.1873
  153OSM    H8G17078   1.861   2.717   6.282 -0.2744  1.6079  4.2152
  153OSM    C9F17079   1.974   2.890   6.358  0.0097 -0.3185  0.1328
  153OSM    H9F17080   2.034   2.973   6.319  0.8919 -0.8153  0.4169
  153OSM   C10F17081   1.951   2.893   6.493  0.6111 -0.2457  0.1059
  153OSM   H10F17082   1.973   2.989   6.541 -0.0484  2.2298 -4.0487
  153OSM   C11F17083   1.888   2.780   6.573  0.1929 -0.0630  0.6694
  153OSM   H11F17084   1.970   2.706   6.591  2.8423  2.8940  1.5859
  153OSM   H11G17085   1.808   2.732   6.513 -0.9593  0.3514  1.8329
  153OSM   C12F17086   1.828   2.825   6.703 -0.3760  0.3458 -0.7883
  153OSM   H12F17087   1.742   2.756   6.717  0.2104 -0.3956 -0.7891
  153OSM   H12G17088   1.782   2.926   6.705 -0.8412  0.1791 -2.2815
  153OSM   C13F17089   1.917   2.796   6.833 -0.7650  0.3430  0.9172
  153OSM   H13F17090   1.987   2.882   6.845  0.2439 -0.1642 -0.9416
  153OSM   H13G17091   1.969   2.700   6.809 -3.3948 -0.7492 -0.8767
  153OSM   C14F17092   1.836   2.760   6.958  0.0766 -0.6897  0.3418
  153OSM   H14F17093   1.903   2.713   7.032 -1.7684 -3.3039  0.5143
  153OSM   H14G17094   1.759   2.684   6.930  2.2048 -2.0345 -2.3530
  153OSM   C15F17095   1.770   2.882   7.024  0.5814  0.5758  0.2950
  153OSM   H15F17096   1.699   2.942   6.962  0.9003  1.2670  0.5931
  153OSM   H15G17097   1.860   2.943   7.047  0.6801  0.0839  1.2403
  153OSM   C16F17098   1.702   2.846   7.159 -0.2512  0.4198 -0.2694
  153OSM   H16F17099   1.777   2.820   7.237 -0.9875  0.3157  0.4213
  153OSM   H16G17100   1.628   2.765   7.141 -0.8959  0.9733 -0.1731
  153OSM   C17F17101   1.618   2.958   7.218 -0.6167 -0.5483 -0.3594
  153OSM   H17F17102   1.561   2.908   7.300  0.2769 -0.9761  0.0218
  153OSM   H17G17103   1.556   3.016   7.147  0.8012  0.0258 -1.1662
  153OSM   C18F17104   1.704   3.068   7.268 -0.3086 -0.4751 -0.0729
  153OSM   H18F17105   1.644   3.130   7.338  0.9653  1.3395 -0.5353
  153OSM   H18G17106   1.738   3.129   7.183 -2.8081  1.9672  0.5271
  153OSM   H18H17107   1.794   3.017   7.309  0.7422  0.9708 -0.5005
  154OSM      N17108   0.260   5.504   4.893 -0.1554 -0.4459 -0.3238
  154OSM    C1517109   0.176   5.592   4.808  0.5309  0.4055  0.0217
  154OSM   H15A17110   0.093   5.535   4.768 -0.2942 -0.3212  2.5939
  154OSM   H15B17111   0.232   5.614   4.718 -0.2367 -1.5883 -0.9909
  154OSM   H15C17112   0.135   5.681   4.854 -1.0835  1.2631 -2.7947
  154OSM    C1417113   0.358   5.591   4.963  0.6741  0.0383 -0.1443
  154OSM   H14A17114   0.406   5.522   5.031 -0.4199 -0.4815  0.1206
  154OSM   H14B17115   0.312   5.670   5.022 -3.1918 -0.9540 -1.5575
  154OSM   H14C17116   0.427   5.635   4.893  1.3370 -1.5631 -0.5213
  154OSM    C1317117   0.163   5.444   4.991 -0.4336 -0.0483  0.3807
  154OSM   H13A17118   0.085   5.510   5.027 -2.6618 -2.3712  0.1216
  154OSM   H13B17119   0.202   5.404   5.083 -2.3746 -0.5353  1.0445
  154OSM   H13C17120   0.112   5.365   4.939  0.9676 -2.9022  3.0116
  154OSM    C1217121   0.337   5.392   4.807 -0.7782 -0.7384  0.3235
  154OSM   H12A17122   0.420   5.356   4.866  1.3576  2.7951 -0.2231
  154OSM   H12B17123   0.382   5.445   4.724  0.1291  0.3532  1.4924
  154OSM    C1117124   0.246   5.278   4.752 -0.2959 -0.3420  0.7965
  154OSM   H11A17125   0.293   5.226   4.666  0.4481  0.8876  0.4284
  154OSM   H11B17126   0.148   5.319   4.720 -1.0745 -2.1271  0.7667
  154OSM      P17127   0.321   5.061   4.885  0.1946  0.0562  0.1447
  154OSM    O1317128   0.246   4.935   4.856 -0.1040  0.1661  0.2022
  154OSM    O1417129   0.448   5.080   4.806  0.4952  0.3968 -0.0193
  154OSM    O1117130   0.344   5.075   5.041  0.7430  0.3352  0.1606
  154OSM    O1217131   0.228   5.185   4.854  0.4047 -0.4129 -0.0109
  154OSM    C1S17132   0.238   5.059   5.134 -0.7193  0.6579  0.0515
  154OSM    H1S17133   0.207   4.953   5.123 -0.8103  0.7889 -1.1585
  154OSM    H1T17134   0.152   5.123   5.104 -3.0642 -2.1353  0.4029
  154OSM     NF17135   0.180   5.062   5.365  0.0161 -0.4734  0.4891
  154OSM    HNF17136   0.131   5.136   5.411  0.0951 -1.3220  1.9867
  154OSM    C2S17137   0.287   5.096   5.276  0.6016 -0.2473  0.0782
  154OSM    H2S17138   0.368   5.027   5.307  0.0282 -1.5975 -1.3013
  154OSM    C3S17139   0.333   5.245   5.282 -1.1304 -0.0669  0.1292
  154OSM    H3S17140   0.250   5.315   5.258 -0.6448  0.3509 -0.3583
  154OSM     O317141   0.438   5.275   5.184 -0.2550 -0.2927 -0.2979
  154OSM    HO317142   0.425   5.195   5.134 -1.2392 -0.9714  0.9879
  154OSM    C4S17143   0.379   5.273   5.424 -0.0435  0.1994  0.1041
  154OSM    H4S17144   0.312   5.345   5.473  1.9077  1.7701  0.5948
  154OSM    C5S17145   0.490   5.229   5.492 -0.3011 -0.2086 -0.0602
  154OSM    H5S17146   0.568   5.162   5.453  0.4073 -1.2976  2.9627
  154OSM    C6S17147   0.518   5.267   5.635  0.2956 -0.1188  1.1708
  154OSM    H6S17148   0.609   5.330   5.626  0.2933  0.1016  2.4581
  154OSM    H6T17149   0.542   5.175   5.692  0.5340 -0.7318  0.1050
  154OSM    C7S17150   0.415   5.347   5.720  0.7472 -0.3270 -0.3250
  154OSM    H7S17151   0.337   5.277   5.757  0.7191 -0.5678 -0.8311
  154OSM    H7T17152   0.355   5.427   5.671  2.1158  1.8277  1.3437
  154OSM    C8S17153   0.465   5.404   5.850  0.1074  0.3613 -0.7122
  154OSM    H8S17154   0.514   5.504   5.846  0.1143  0.3330 -1.5465
  154OSM    H8T17155   0.545   5.340   5.891  0.3138  1.2382  0.2886
  154OSM    C9S17156   0.366   5.397   5.973 -0.1424  0.2795  0.4993
  154OSM    H9S17157   0.348   5.292   6.003 -2.5244 -0.1405 -2.0609
  154OSM    H9T17158   0.266   5.438   5.949 -0.1060  0.0804 -0.0085
  154OSM   C10S17159   0.412   5.479   6.098 -0.4622 -0.1660  0.1119
  154OSM   H10S17160   0.408   5.586   6.069 -1.3669  0.3257  1.8965
  154OSM   H10T17161   0.516   5.455   6.130 -1.2807 -1.2179  2.2222
  154OSM   C11S17162   0.312   5.465   6.222  0.3488 -1.1376 -0.6459
  154OSM   H11S17163   0.319   5.365   6.270  1.5811 -0.7078  0.1189
  154OSM   H11T17164   0.215   5.476   6.169  0.1251  1.6723  0.2036
  154OSM   C12S17165   0.334   5.579   6.326 -0.2580  0.4821 -0.0589
  154OSM   H12S17166   0.331   5.678   6.276 -4.3096 -0.1267 -1.3949
  154OSM   H12T17167   0.437   5.573   6.367 -0.2395 -0.2024 -0.1921
  154OSM   C13S17168   0.238   5.592   6.452  0.2334 -0.1216  0.0432
  154OSM   H13S17169   0.238   5.489   6.495 -3.0618  0.0661  0.7452
  154OSM   H13T17170   0.135   5.621   6.421  0.3320 -0.9940 -1.1683
  154OSM   C14S17171   0.280   5.683   6.574  0.4259  0.1182 -0.1911
  154OSM   H14S17172   0.192   5.714   6.633  0.8546 -1.3601  1.2874
  154OSM   H14T17173   0.319   5.781   6.538  1.0445  0.3612  1.0936
  154OSM   C15S17174   0.382   5.620   6.674 -0.1044 -0.3366  0.1656
  154OSM   H15S17175   0.467   5.592   6.607  1.8001  0.5814  2.0798
  154OSM   H15T17176   0.347   5.528   6.726  0.2072  0.3471  1.6306
  154OSM   C16S17177   0.435   5.723   6.781 -0.3196 -0.4372 -0.1795
  154OSM   H16S17178   0.347   5.751   6.843 -1.0476  1.0972 -1.8313
  154OSM   H16T17179   0.469   5.816   6.732 -1.8908  0.7095  0.7960
  154OSM   C17S17180   0.548   5.666   6.876 -0.4533  0.4938 -0.6772
  154OSM   H17S17181   0.629   5.634   6.807  0.4405 -3.2743  1.8099
  154OSM   H17T17182   0.519   5.572   6.929 -1.6126 -1.4292 -4.3592
  154OSM   C18S17183   0.590   5.752   6.994  0.2818  0.3304  0.9069
  154OSM   H18S17184   0.681   5.715   7.047 -0.0312 -0.4287  0.9194
  154OSM   H18T17185   0.509   5.742   7.069  0.1324 -1.2240  0.5743
  154OSM   H18U17186   0.608   5.857   6.964 -0.8129  0.4108  0.5220
  154OSM    C1F17187   0.135   4.939   5.384  0.5217  0.2657  0.3393
  154OSM     OF17188   0.188   4.849   5.337 -0.1637  0.3151  0.2467
  154OSM    C2F17189   0.014   4.918   5.475 -0.4685 -0.5390  0.9190
  154OSM    H2F17190  -0.069   4.867   5.422  0.5182 -0.7578 -0.4758
  154OSM    H2G17191  -0.016   5.019   5.512  2.6888  0.6986  0.4338
  154OSM    C3F17192   0.054   4.833   5.603 -0.2959  0.8658 -0.1023
  154OSM    H3F17193   0.084   4.739   5.552 -2.1562  0.6949 -0.9786
  154OSM    H3G17194  -0.030   4.807   5.671  0.4313 -1.1079  0.0940
  154OSM    C4F17195   0.158   4.887   5.693  0.1509  0.6194 -0.1826
  154OSM    H4F17196   0.105   4.940   5.775 -0.3576  0.4431 -0.3895
  154OSM    H4G17197   0.232   4.949   5.638  0.6697 -2.1372 -2.9140
  154OSM    C5F17198   0.238   4.763   5.754  0.5323  0.4120 -0.0398
  154OSM    H5F17199   0.287   4.700   5.677  0.7308  0.3405  0.1430
  154OSM    H5G17200   0.175   4.691   5.810  3.0719 -2.2660 -0.3490
  154OSM    C6F17201   0.349   4.801   5.852 -0.6833  0.0138  0.2804
  154OSM    H6F17202   0.431   4.858   5.803 -0.2105  1.5388  2.6571
  154OSM    H6G17203   0.406   4.711   5.886  1.3086  0.8972 -0.5302
  154OSM    C7F17204   0.321   4.898   5.965 -0.3214  0.3995  0.4338
  154OSM    H7F17205   0.224   4.869   6.011 -0.8031  0.7561 -0.3312
  154OSM    H7G17206   0.312   5.000   5.922  0.0874  0.4313  0.4199
  154OSM    C8F17207   0.430   4.888   6.077  0.3330 -0.5241  0.8602
  154OSM    H8F17208   0.525   4.869   6.024  0.1479 -2.3443  1.1355
  154OSM    H8G17209   0.418   4.793   6.134  1.1067 -1.3859 -0.3632
  154OSM    C9F17210   0.441   4.991   6.182 -0.0836 -0.2420  0.5834
  154OSM    H9F17211   0.523   5.060   6.157 -1.4538  0.2746 -3.0151
  154OSM   C10F17212   0.362   5.009   6.292  0.0352  0.5802 -0.3249
  154OSM   H10F17213   0.389   5.088   6.363 -0.3275 -0.0541  0.5405
  154OSM   C11F17214   0.251   4.913   6.330  0.2905  0.1106  0.3752
  154OSM   H11F17215   0.255   4.827   6.260  0.3123  1.3224 -1.1716
  154OSM   H11G17216   0.146   4.947   6.326  0.3575  0.2148 -0.6682
  154OSM   C12F17217   0.279   4.853   6.477  0.5090 -0.1581  0.7057
  154OSM   H12F17218   0.387   4.824   6.472  0.3510 -0.7594 -3.3861
  154OSM   H12G17219   0.228   4.757   6.497 -0.2403  0.0547 -0.0891
  154OSM   C13F17220   0.257   4.954   6.589  0.6410 -0.9121 -0.3251
  154OSM   H13F17221   0.158   5.004   6.602  1.5568  1.3065 -1.3273
  154OSM   H13G17222   0.313   5.045   6.562 -1.7237  0.6142 -0.4230
  154OSM   C14F17223   0.299   4.901   6.728  0.1043 -0.0051  0.6754
  154OSM   H14F17224   0.404   4.866   6.723  0.1021  0.0423  0.2848
  154OSM   H14G17225   0.245   4.807   6.753  1.6783 -1.2840 -0.5552
  154OSM   C15F17226   0.286   5.012   6.840  0.4631  0.6606 -0.1924
  154OSM   H15F17227   0.176   5.022   6.850  0.5106  0.2487  0.9273
  154OSM   H15G17228   0.317   5.108   6.795  0.5889  0.7174  0.0133
  154OSM   C16F17229   0.367   4.978   6.968 -0.1643  0.2617 -0.5879
  154OSM   H16F17230   0.477   4.982   6.961  0.0061  0.3361  1.5496
  154OSM   H16G17231   0.357   4.868   6.982 -0.2822  0.4745  1.2687
  154OSM   C17F17232   0.312   5.057   7.086  0.2651  0.0587 -1.0886
  154OSM   H17F17233   0.214   5.013   7.112  0.4579  0.9684  1.4853
  154OSM   H17G17234   0.290   5.164   7.064 -1.6408  0.2507  1.2605
  154OSM   C18F17235   0.405   5.060   7.212 -0.3868  0.4350 -0.0521
  154OSM   H18F17236   0.414   4.962   7.263 -0.5284 -0.6993 -2.0987
  154OSM   H18G17237   0.379   5.145   7.279  0.5875  1.5658 -1.0530
  154OSM   H18H17238   0.503   5.082   7.164  0.5378 -2.5025  0.2688
  155OSM      N17239   1.579   2.969   4.846  0.4426 -0.3809 -0.2931
  155OSM    C1517240   1.633   3.031   4.719 -1.2690 -0.1969 -0.2529
  155OSM   H15A17241   1.589   3.124   4.687 -0.1995  0.7299  0.8682
  155OSM   H15B17242   1.636   2.953   4.644 -2.2107 -1.0621  0.5665
  155OSM   H15C17243   1.737   3.052   4.740 -0.9706  0.5782 -2.2814
  155OSM    C1417244   1.445   2.911   4.820  0.2850 -0.2866 -0.3615
  155OSM   H14A17245   1.409   2.858   4.907  2.1840  1.2968  1.5001
  155OSM   H14B17246   1.451   2.832   4.747 -0.1280 -0.9150  0.2726
  155OSM   H14C17247   1.379   2.989   4.786  0.1088 -0.0458  0.5206
  155OSM    C1317248   1.669   2.872   4.894 -0.7569  0.0259  0.0287
  155OSM   H13A17249   1.766   2.913   4.917 -0.2095 -1.5792  0.8040
  155OSM   H13B17250   1.679   2.790   4.824  2.5959  1.5658 -1.5150
  155OSM   H13C17251   1.642   2.822   4.986 -0.5793  0.0146  0.0737
  155OSM    C1217252   1.566   3.076   4.958 -0.1099  0.5664 -0.5309
  155OSM   H12A17253   1.540   3.030   5.052  0.4273  1.5949  0.1298
  155OSM   H12B17254   1.483   3.140   4.931 -1.2144 -0.8011 -0.5299
  155OSM    C1117255   1.685   3.161   4.992  0.2680  0.1515 -0.1855
  155OSM   H11A17256   1.771   3.091   4.989 -1.4681 -2.0944 -3.2281
  155OSM   H11B17257   1.663   3.201   5.093  0.7534 -1.0581  0.4234
  155OSM      P17258   1.837   3.333   4.877 -0.2769 -0.1577  0.1144
  155OSM    O1317259   1.930   3.231   4.825  0.0376 -0.2672 -0.2745
  155OSM    O1417260   1.820   3.461   4.798 -0.2678  0.3890  0.0635
  155OSM    O1117261   1.882   3.366   5.024  0.6890  0.3228  0.5871
  155OSM    O1217262   1.698   3.266   4.901 -0.5276  0.2610 -0.8532
  155OSM    C1S17263   1.991   3.297   5.087 -0.1449  0.3306 -0.0710
  155OSM    H1S17264   2.082   3.315   5.025 -1.2257  1.4447 -1.3993
  155OSM    H1T17265   1.991   3.186   5.081  2.4855  0.2043  0.8246
  155OSM     NF17266   2.157   3.320   5.273 -0.1707 -0.3620 -0.3588
  155OSM    HNF17267   2.150   3.263   5.355 -1.8830 -0.7312 -0.7155
  155OSM    C2S17268   2.027   3.370   5.223  0.4023 -0.1502 -0.4343
  155OSM    H2S17269   2.037   3.475   5.189  1.8607  0.3935  1.5058
  155OSM    C3S17270   1.907   3.372   5.329 -0.3797 -0.1554  0.3595
  155OSM    H3S17271   1.888   3.267   5.361 -3.2954 -0.0024 -0.5342
  155OSM     O317272   1.777   3.415   5.280 -0.5020  0.0247  0.5213
  155OSM    HO317273   1.787   3.388   5.188  2.7240  0.2882  0.6863
  155OSM    C4S17274   1.954   3.452   5.448  0.3978  0.6579 -0.1142
  155OSM    H4S17275   2.020   3.389   5.509 -1.8841 -1.9269 -0.1126
  155OSM    C5S17276   1.934   3.585   5.472 -0.0981  0.4365 -0.0441
  155OSM    H5S17277   1.880   3.646   5.398 -3.2473 -0.7462  1.0976
  155OSM    C6S17278   1.995   3.666   5.582 -0.3416 -0.7117 -0.3920
  155OSM    H6S17279   1.913   3.727   5.625  0.4719  0.6656 -0.7262
  155OSM    H6T17280   2.067   3.743   5.545 -0.6606  0.8209  1.9605
  155OSM    C7S17281   2.080   3.586   5.683 -0.0956  0.4012 -0.8191
  155OSM    H7S17282   2.157   3.521   5.637  0.2378  1.9554 -2.5651
  155OSM    H7T17283   2.008   3.518   5.734 -1.1221  1.9321 -0.1455
  155OSM    C8S17284   2.125   3.680   5.793 -0.1011  0.7242  0.1465
  155OSM    H8S17285   2.045   3.756   5.803 -1.0419 -0.4473  1.9929
  155OSM    H8T17286   2.219   3.732   5.765  0.0363  2.1794  2.9298
  155OSM    C9S17287   2.124   3.608   5.931  0.1983 -0.2816  0.5615
  155OSM    H9S17288   2.202   3.530   5.944 -0.5465 -0.8881  1.5453
  155OSM    H9T17289   2.020   3.569   5.928  0.4688 -1.0981  1.3110
  155OSM   C10S17290   2.146   3.705   6.047  0.6188 -0.3450 -0.1394
  155OSM   H10S17291   2.082   3.795   6.035  1.1048 -0.0232 -0.3439
  155OSM   H10T17292   2.254   3.731   6.054  0.6660  0.2851 -2.5663
  155OSM   C11S17293   2.112   3.639   6.180  0.4624 -0.4813  0.2167
  155OSM   H11S17294   2.171   3.550   6.209 -0.5377 -1.8357 -1.6575
  155OSM   H11T17295   2.008   3.607   6.158  0.5044  1.0923 -2.8274
  155OSM   C12S17296   2.100   3.749   6.289  0.1375  0.0511  0.9581
  155OSM   H12S17297   2.039   3.831   6.247 -0.2096 -0.3019  0.7659
  155OSM   H12T17298   2.203   3.784   6.314 -0.5103  2.7139  0.1665
  155OSM   C13S17299   2.045   3.688   6.414  0.1636  0.2660  0.0319
  155OSM   H13S17300   2.121   3.609   6.433  0.9060  0.6365 -1.2341
  155OSM   H13T17301   1.946   3.644   6.393  0.4842 -1.3698  1.6904
  155OSM   C14S17302   2.037   3.784   6.529 -0.0350 -0.1375 -0.4771
  155OSM   H14S17303   1.979   3.733   6.610  0.5284  0.8694  0.6008
  155OSM   H14T17304   1.989   3.877   6.491  0.8180  0.5274  0.0146
  155OSM   C15S17305   2.165   3.842   6.597 -0.0708 -0.5715 -0.2953
  155OSM   H15S17306   2.230   3.889   6.521  0.4262 -1.2663 -0.3089
  155OSM   H15T17307   2.225   3.756   6.633  3.0313  1.8958  0.9177
  155OSM   C16S17308   2.138   3.934   6.718 -0.3911 -0.2679  0.5732
  155OSM   H16S17309   2.074   3.865   6.778 -0.4412 -0.1009  0.7128
  155OSM   H16T17310   2.083   4.026   6.690 -0.3546 -1.1128 -2.6880
  155OSM   C17S17311   2.268   3.959   6.800 -0.0322 -0.2746  0.4857
  155OSM   H17S17312   2.346   4.015   6.744  0.2350  0.1599  1.2753
  155OSM   H17T17313   2.311   3.863   6.836  0.7122 -0.0073  0.3254
  155OSM   C18S17314   2.248   4.046   6.922  0.1508 -0.8582 -0.2656
  155OSM   H18S17315   2.221   4.147   6.883  3.2223 -0.5041 -1.7673
  155OSM   H18T17316   2.344   4.045   6.978  0.4160 -1.1252 -0.7231
  155OSM   H18U17317   2.171   4.008   6.993 -2.4848 -0.5603 -2.8078
  155OSM    C1F17318   2.277   3.333   5.213 -0.3333  0.1890 -0.4186
  155OSM     OF17319   2.288   3.385   5.105 -0.5597  0.6950  0.2102
  155OSM    C2F17320   2.391   3.290   5.298  0.3024 -0.1371  0.6722
  155OSM    H2F17321   2.456   3.225   5.237 -0.9056  1.1059 -2.0987
  155OSM    H2G17322   2.353   3.230   5.384  1.5730  1.8016  2.6869
  155OSM    C3F17323   2.476   3.403   5.357 -0.1801 -0.8273 -0.2997
  155OSM    H3F17324   2.526   3.463   5.278  1.4330  1.4558  2.2524
  155OSM    H3G17325   2.562   3.368   5.419 -0.2222  0.6335  0.6450
  155OSM    C4F17326   2.393   3.509   5.430 -0.4811  0.3833 -0.8799
  155OSM    H4F17327   2.339   3.460   5.514 -0.3461 -1.6909 -1.9439
  155OSM    H4G17328   2.316   3.562   5.369  0.6095  1.3047 -1.5107
  155OSM    C5F17329   2.478   3.621   5.488  0.1236 -0.4070  0.4552
  155OSM    H5F17330   2.424   3.718   5.484  1.1163  0.1880  0.9128
  155OSM    H5G17331   2.569   3.632   5.425 -1.4965  0.4055 -1.8767
  155OSM    C6F17332   2.513   3.599   5.631 -0.3304 -0.3594 -0.6047
  155OSM    H6F17333   2.419   3.607   5.689 -0.1179  0.4849 -0.3696
  155OSM    H6G17334   2.578   3.683   5.664  0.1026 -0.9722  0.1205
  155OSM    C7F17335   2.575   3.466   5.669  0.2529 -0.3038 -0.4884
  155OSM    H7F17336   2.667   3.448   5.610 -1.2344 -1.0068 -2.7088
  155OSM    H7G17337   2.498   3.392   5.639 -0.0389  0.0180 -0.5378
  155OSM    C8F17338   2.594   3.448   5.817  0.2087  0.7979 -0.1482
  155OSM    H8F17339   2.617   3.342   5.843 -0.8243  0.8783  1.2054
  155OSM    H8G17340   2.493   3.471   5.856  0.2357  0.3000  0.2250
  155OSM    C9F17341   2.692   3.542   5.878  0.3194 -0.6654  0.5124
  155OSM    H9F17342   2.789   3.565   5.832  0.8991 -1.9508  1.0361
  155OSM   C10F17343   2.684   3.583   6.008  0.1375 -0.6179  0.2042
  155OSM   H10F17344   2.764   3.652   6.040 -0.7318  0.0152  1.0833
  155OSM   C11F17345   2.578   3.541   6.110  0.4357  0.1352 -0.3315
  155OSM   H11F17346   2.543   3.436   6.098 -3.3336  1.1435  0.2992
  155OSM   H11G17347   2.493   3.614   6.113  0.0772 -0.3049  0.5633
  155OSM   C12F17348   2.653   3.542   6.246  0.3025 -0.3628  1.0903
  155OSM   H12F17349   2.696   3.640   6.274  0.2969 -0.7972  2.7299
  155OSM   H12G17350   2.735   3.467   6.241  0.3786 -0.2197  0.0663
  155OSM   C13F17351   2.551   3.508   6.358 -0.2907  0.5445 -0.8897
  155OSM   H13F17352   2.506   3.409   6.340  0.1511  0.0005  0.8408
  155OSM   H13G17353   2.465   3.578   6.369 -0.1035  0.7405 -0.6517
  155OSM   C14F17354   2.622   3.497   6.492  0.6181 -0.2413  0.2185
  155OSM   H14F17355   2.631   3.599   6.536 -1.9898 -0.1555  0.7052
  155OSM   H14G17356   2.717   3.440   6.480  0.3028 -1.0723  1.4340
  155OSM   C15F17357   2.543   3.422   6.603 -0.1999  0.0064  0.4370
  155OSM   H15F17358   2.594   3.443   6.699 -1.0769  0.2571  0.8550
  155OSM   H15G17359   2.556   3.313   6.587 -0.1792 -0.0584  0.8892
  155OSM   C16F17360   2.403   3.478   6.611  0.5928 -0.3134 -0.0363
  155OSM   H16F17361   2.338   3.472   6.521  0.3213 -1.9599  0.2497
  155OSM   H16G17362   2.417   3.585   6.639  1.1737 -0.7595  1.4806
  155OSM   C17F17363   2.332   3.415   6.733  0.2606 -0.3384  0.2373
  155OSM   H17F17364   2.395   3.431   6.823  1.0362  1.0652 -0.5172
  155OSM   H17G17365   2.335   3.305   6.718  1.2465 -0.4912  1.3716
  155OSM   C18F17366   2.189   3.468   6.746 -0.1142 -0.5973  0.0194
  155OSM   H18F17367   2.135   3.396   6.811 -0.6939 -0.7434 -0.6122
  155OSM   H18G17368   2.142   3.470   6.645 -0.3791  0.7063  0.1550
  155OSM   H18H17369   2.180   3.568   6.794 -0.8705 -1.5221  1.8946
  156OSM      N17370   0.800   2.255   4.813 -0.6180  0.1825  0.1921
  156OSM    C1517371   0.807   2.182   4.684  0.1606  0.1885  0.2512
  156OSM   H15A17372   0.708   2.150   4.656  0.5998 -0.9969  0.0057
  156OSM   H15B17373   0.876   2.099   4.687  0.7100  0.5616 -1.3264
  156OSM   H15C17374   0.833   2.244   4.600 -1.1718 -0.5212 -0.7140
  156OSM    C1417375   0.937   2.265   4.862  0.0061  0.4028 -0.0325
  156OSM   H14A17376   1.011   2.303   4.793  1.0933 -0.5288  0.5736
  156OSM   H14B17377   0.958   2.167   4.903 -2.4592 -0.2826 -0.2586
  156OSM   H14C17378   0.941   2.332   4.947 -0.9860  1.4699 -0.8043
  156OSM    C1317379   0.743   2.385   4.774  0.3164  0.5171 -0.0238
  156OSM   H13A17380   0.701   2.428   4.864 -0.5186 -2.2779  1.0222
  156OSM   H13B17381   0.662   2.382   4.703  0.4373 -3.4364 -0.2309
  156OSM   H13C17382   0.816   2.447   4.724  1.2907 -0.5400  0.0359
  156OSM    C1217383   0.718   2.189   4.913  0.1431  0.0597 -0.5279
  156OSM   H12A17384   0.764   2.098   4.949  0.3303  0.6268  0.7312
  156OSM   H12B17385   0.626   2.156   4.868  0.7774 -1.1175 -1.0066
  156OSM    C1117386   0.687   2.277   5.034 -0.2836  0.2600 -0.0577
  156OSM   H11A17387   0.775   2.332   5.074 -0.9497  1.0568  0.3468
  156OSM   H11B17388   0.646   2.216   5.116 -0.3315  2.3360  1.5291
  156OSM      P17389   0.450   2.357   4.974 -0.2559 -0.3651  0.2004
  156OSM    O1317390   0.391   2.490   4.928 -0.2608 -0.3342 -0.0826
  156OSM    O1417391   0.439   2.245   4.877 -0.2034  0.2608  0.1612
  156OSM    O1117392   0.363   2.315   5.100  0.1881  0.0176 -0.0464
  156OSM    O1217393   0.603   2.380   5.005  0.8086  0.2410 -0.0359
  156OSM    C1S17394   0.401   2.354   5.236 -0.4963  0.1990 -0.2462
  156OSM    H1S17395   0.372   2.457   5.267 -1.3415 -0.4160  1.0824
  156OSM    H1T17396   0.511   2.359   5.250 -0.5633  3.0210 -0.2545
  156OSM     NF17397   0.383   2.327   5.488 -0.1114  0.0185  1.0307
  156OSM    HNF17398   0.429   2.259   5.546 -2.7118 -3.5474 -0.7059
  156OSM    C2S17399   0.332   2.278   5.354  0.4057  0.3956 -0.0281
  156OSM    H2S17400   0.225   2.305   5.359  0.8065  1.7288  2.1766
  156OSM    C3S17401   0.338   2.120   5.340 -0.0616 -0.6532  0.1476
  156OSM    H3S17402   0.438   2.088   5.375 -0.0573 -1.3555 -0.4726
  156OSM     O317403   0.325   2.069   5.206 -0.4948 -0.0482  0.4792
  156OSM    HO317404   0.353   2.148   5.160 -0.9121 -0.8037 -1.1497
  156OSM    C4S17405   0.236   2.062   5.438  0.0913  0.5773  0.1122
  156OSM    H4S17406   0.133   2.051   5.401 -0.1306 -0.8730  1.0593
  156OSM    C5S17407   0.272   1.985   5.543 -0.2170 -0.1974 -0.3494
  156OSM    H5S17408   0.380   1.990   5.563  0.0078  0.2630 -1.5914
  156OSM    C6S17409   0.181   1.911   5.632  0.1435  0.2623  0.7500
  156OSM    H6S17410   0.165   1.813   5.583  1.6506  0.9385 -1.2190
  156OSM    H6T17411   0.082   1.960   5.645 -0.1065 -0.4512  1.6557
  156OSM    C7S17412   0.244   1.894   5.775  0.4573 -0.2099  0.5352
  156OSM    H7S17413   0.261   1.988   5.832 -0.7827 -0.6585  1.7020
  156OSM    H7T17414   0.345   1.852   5.758  0.0170 -0.7767 -0.8748
  156OSM    C8S17415   0.159   1.795   5.857 -0.0352  0.1648 -0.8906
  156OSM    H8S17416   0.131   1.708   5.794  2.1892 -1.1261 -0.1872
  156OSM    H8T17417   0.075   1.860   5.890  0.3017  0.6353 -0.9644
  156OSM    C9S17418   0.231   1.756   5.985  0.2318 -0.2915 -0.5716
  156OSM    H9S17419   0.332   1.717   5.960  0.2748  0.6096 -1.9095
  156OSM    H9T17420   0.167   1.692   6.050 -2.2828  2.9782  0.4143
  156OSM   C10S17421   0.248   1.869   6.089 -0.0676  1.2431  0.5445
  156OSM   H10S17422   0.144   1.894   6.120  0.3759  2.8770  0.8326
  156OSM   H10T17423   0.281   1.962   6.039  0.3573 -0.1924 -1.9845
  156OSM   C11S17424   0.334   1.834   6.207 -0.3109 -0.6824  0.2953
  156OSM   H11S17425   0.442   1.824   6.184 -0.3775  0.5800 -0.6177
  156OSM   H11T17426   0.296   1.738   6.248 -1.4812 -0.8085 -1.0058
  156OSM   C12S17427   0.323   1.928   6.322 -0.2269 -0.1821  0.4124
  156OSM   H12S17428   0.219   1.923   6.359  0.1432  3.2593  2.3990
  156OSM   H12T17429   0.336   2.032   6.285  2.4817 -0.1209  1.3158
  156OSM   C13S17430   0.414   1.893   6.438 -0.4238 -0.7252  0.1038
  156OSM   H13S17431   0.518   1.923   6.413 -0.8551 -0.5501 -1.6009
  156OSM   H13T17432   0.413   1.782   6.442 -3.0807 -0.7435  0.7744
  156OSM   C14S17433   0.363   1.941   6.572  0.4853 -0.7027  0.1887
  156OSM   H14S17434   0.272   1.877   6.579 -0.7828  1.2330  2.6695
  156OSM   H14T17435   0.322   2.044   6.577  1.3716 -0.3804  0.9001
  156OSM   C15S17436   0.472   1.943   6.686 -0.7677 -0.3408  0.5831
  156OSM   H15S17437   0.560   2.001   6.648 -0.6156 -0.7082  0.3699
  156OSM   H15T17438   0.515   1.841   6.682  1.5811  0.5807  0.6215
  156OSM   C16S17439   0.425   1.966   6.827  0.5456 -0.7066 -0.3937
  156OSM   H16S17440   0.339   1.902   6.857 -0.0669  0.1193 -0.3542
  156OSM   H16T17441   0.386   2.069   6.838  1.9942 -0.3118  2.0199
  156OSM   C17S17442   0.536   1.970   6.935 -0.3085  0.5964  0.1500
  156OSM   H17S17443   0.619   2.036   6.901 -0.3403  0.6210  0.1213
  156OSM   H17T17444   0.566   1.863   6.943  1.7571  1.1831  1.0258
  156OSM   C18S17445   0.485   2.019   7.073  0.1838  0.6925  0.4097
  156OSM   H18S17446   0.378   1.999   7.092 -0.5177  1.9578 -1.7889
  156OSM   H18T17447   0.510   2.127   7.079 -0.0165  0.7254  0.6743
  156OSM   H18U17448   0.544   1.977   7.157 -3.2878  0.6167  3.0010
  156OSM    C1F17449   0.370   2.447   5.538 -0.3096 -0.5167  0.3606
  156OSM     OF17450   0.294   2.532   5.490 -0.1477 -0.3055 -0.1871
  156OSM    C2F17451   0.442   2.480   5.665  0.9606  0.7456 -0.4035
  156OSM    H2F17452   0.504   2.571   5.648 -0.6112  2.0314  0.4714
  156OSM    H2G17453   0.503   2.392   5.694 -0.7193 -0.5199 -0.6031
  156OSM    C3F17454   0.337   2.509   5.776 -0.2765 -0.4927 -0.0710
  156OSM    H3F17455   0.300   2.408   5.803 -1.0307 -0.4697 -0.9810
  156OSM    H3G17456   0.240   2.553   5.745 -1.0446 -1.9819  0.1388
  156OSM    C4F17457   0.384   2.583   5.896 -0.7581  0.3230 -0.1211
  156OSM    H4F17458   0.408   2.688   5.871  0.4933  0.2498  0.6816
  156OSM    H4G17459   0.483   2.544   5.930 -2.1245 -2.1732  1.2889
  156OSM    C5F17460   0.278   2.596   6.010  0.4763 -0.3028 -0.4374
  156OSM    H5F17461   0.236   2.498   6.042  1.2476  0.3654  3.0045
  156OSM    H5G17462   0.199   2.657   5.962  1.9645  1.7750 -0.3420
  156OSM    C6F17463   0.333   2.669   6.130  0.5068 -0.2143  0.5583
  156OSM    H6F17464   0.240   2.698   6.184 -1.5923 -2.0118 -1.8196
  156OSM    H6G17465   0.384   2.760   6.093 -1.2630  0.1112 -1.2379
  156OSM    C7F17466   0.428   2.588   6.212 -0.6309  0.6910 -0.7925
  156OSM    H7F17467   0.527   2.600   6.163  0.7452 -0.2729  1.6094
  156OSM    H7G17468   0.405   2.480   6.221  2.1747  0.1987  3.4878
  156OSM    C8F17469   0.457   2.640   6.360 -0.6006 -0.4986 -0.3275
  156OSM    H8F17470   0.509   2.738   6.355 -2.1720  0.4158  0.3271
  156OSM    H8G17471   0.533   2.574   6.408 -1.3339 -0.6748  0.6368
  156OSM    C9F17472   0.340   2.642   6.455 -0.6329 -0.1649 -0.5583
  156OSM    H9F17473   0.250   2.594   6.414 -2.2935  2.0643  0.3206
  156OSM   C10F17474   0.322   2.717   6.569 -0.5353  0.3924  0.2919
  156OSM   H10F17475   0.225   2.722   6.621 -0.6830  0.3126  0.0283
  156OSM   C11F17476   0.421   2.806   6.641  0.4678  0.0609  0.1366
  156OSM   H11F17477   0.381   2.910   6.637  0.0946 -0.0268  1.2425
  156OSM   H11G17478   0.518   2.830   6.592  0.1274  1.6911  0.2185
  156OSM   C12F17479   0.452   2.774   6.789 -0.1125 -0.5479  0.4824
  156OSM   H12F17480   0.519   2.860   6.815 -2.8909  1.6580  0.8147
  156OSM   H12G17481   0.506   2.677   6.796  1.8850  0.5152  0.6841
  156OSM   C13F17482   0.326   2.777   6.870 -0.6546  0.2490 -0.3263
  156OSM   H13F17483   0.265   2.686   6.855  0.3310 -0.5439  0.3879
  156OSM   H13G17484   0.272   2.874   6.864 -1.4585 -0.0882  0.9095
  156OSM   C14F17485   0.354   2.773   7.026 -0.8753 -0.1494  0.4061
  156OSM   H14F17486   0.403   2.676   7.049 -0.8255 -0.6427 -1.6454
  156OSM   H14G17487   0.275   2.787   7.103 -1.0477  1.3679  0.0020
  156OSM   C15F17488   0.459   2.878   7.060 -0.1005  0.4903 -0.1932
  156OSM   H15F17489   0.442   2.982   7.025 -0.9391  0.3733 -0.1517
  156OSM   H15G17490   0.553   2.829   7.028 -1.1499 -1.1047 -0.9517
  156OSM   C16F17491   0.471   2.886   7.209  0.0763 -0.2064 -0.7682
  156OSM   H16F17492   0.505   2.786   7.243  0.6223 -0.3061 -1.5626
  156OSM   H16G17493   0.377   2.914   7.260  1.0341  1.5864  0.1036
  156OSM   C17F17494   0.572   2.982   7.264 -0.6705  0.1280  0.2900
  156OSM   H17F17495   0.551   3.084   7.225  0.7258 -0.4087 -2.0019
  156OSM   H17G17496   0.675   2.951   7.238 -0.7077 -1.0350  1.4375
  156OSM   C18F17497   0.566   2.986   7.414 -0.0758 -0.1844 -0.2054
  156OSM   H18F17498   0.612   3.076   7.460 -1.1593  0.0077  0.5414
  156OSM   H18G17499   0.612   2.892   7.452 -1.3627 -1.1964 -1.0820
  156OSM   H18H17500   0.460   2.980   7.445 -0.4999 -1.6344 -1.7505
  157OSM      N17501   5.600   3.892   5.136  0.2491 -1.1746 -0.7923
  157OSM    C1517502   5.460   3.926   5.107 -0.3089  0.5816 -0.6145
  157OSM   H15A17503   5.419   3.885   5.016 -0.9111 -0.6463  0.1811
  157OSM   H15B17504   5.451   4.034   5.099  3.3364  1.1358  0.8541
  157OSM   H15C17505   5.391   3.916   5.189 -0.5158  1.0126 -0.7335
  157OSM    C1417506   5.624   3.747   5.136  0.2490  0.2815 -0.2567
  157OSM   H14A17507   5.724   3.715   5.163 -0.8944 -3.1315  0.4775
  157OSM   H14B17508   5.599   3.712   5.037  0.8180  0.4648 -0.4690
  157OSM   H14C17509   5.560   3.696   5.207  1.6286 -1.2397 -0.0484
  157OSM    C1317510   5.695   3.945   5.031  0.3360 -0.6157 -0.1142
  157OSM   H13A17511   5.681   3.891   4.939  0.6546 -1.4605  0.3150
  157OSM   H13B17512   5.795   3.914   5.060  0.1860 -2.4619 -1.4283
  157OSM   H13C17513   5.692   4.051   5.009 -0.2253 -0.6768 -0.3463
  157OSM    C1217514   5.645   3.958   5.274 -0.1616  0.5911 -0.1964
  157OSM   H12A17515   5.655   4.065   5.258  1.5359  0.1795 -2.4065
  157OSM   H12B17516   5.747   3.924   5.284  0.1467  1.3112 -0.7860
  157OSM    C1117517   5.569   3.939   5.410  0.0369 -0.4080  0.1085
  157OSM   H11A17518   5.469   3.985   5.395 -0.2929  0.6769  4.5012
  157OSM   H11B17519   5.626   3.991   5.489  1.4306 -0.2506 -0.9509
  157OSM      P17520   5.664   3.715   5.495  0.5776 -0.0232  0.2001
  157OSM    O1317521   5.653   3.570   5.461 -0.2050  0.5729  0.4872
  157OSM    O1417522   5.788   3.783   5.461  0.0601  0.0585 -0.5743
  157OSM    O1117523   5.648   3.731   5.654  0.0655  0.2717 -0.6343
  157OSM    O1217524   5.542   3.798   5.439  0.2032  0.0648  0.0745
  157OSM    C1S17525   5.518   3.699   5.713 -0.7017  0.5433  0.1359
  157OSM    H1S17526   5.470   3.614   5.660 -1.6885  0.3934  1.2223
  157OSM    H1T17527   5.446   3.784   5.704  0.7989  1.8582  0.1331
  157OSM     NF17528   5.407   3.581   5.898 -0.2084  0.0422  0.0913
  157OSM    HNF17529   5.329   3.626   5.941  0.8667  0.9540  1.1252
  157OSM    C2S17530   5.529   3.648   5.861  1.1959  0.9943 -0.5187
  157OSM    H2S17531   5.614   3.577   5.871 -0.0864 -0.4037  1.1335
  157OSM    C3S17532   5.558   3.777   5.944 -0.0372 -0.0946  0.0357
  157OSM    H3S17533   5.467   3.838   5.924 -0.7095 -1.4558 -1.3162
  157OSM     O317534   5.673   3.857   5.902 -0.4696 -0.0323  0.0355
  157OSM    HO317535   5.669   3.843   5.807 -0.1709  2.6498 -0.4414
  157OSM    C4S17536   5.561   3.742   6.093 -0.3798 -0.0845 -0.3100
  157OSM    H4S17537   5.652   3.684   6.116  1.3377  2.7810  0.6695
  157OSM    C5S17538   5.483   3.773   6.196  0.4218 -0.0156  0.1611
  157OSM    H5S17539   5.392   3.833   6.182  0.4091 -0.1694 -0.4382
  157OSM    C6S17540   5.496   3.719   6.333  0.0357  0.2573 -0.0410
  157OSM    H6S17541   5.589   3.659   6.340 -0.6914 -0.8022  1.0952
  157OSM    H6T17542   5.429   3.634   6.358  0.8760 -0.6969 -0.9799
  157OSM    C7S17543   5.485   3.810   6.457  0.0246 -0.5330 -0.3730
  157OSM    H7S17544   5.552   3.897   6.442  0.2578 -0.3822  1.3216
  157OSM    H7T17545   5.523   3.755   6.546 -1.6232 -2.4695 -0.7780
  157OSM    C8S17546   5.345   3.848   6.490  1.1667 -0.2915  0.3764
  157OSM    H8S17547   5.283   3.759   6.511  0.5380 -0.3715 -1.6547
  157OSM    H8T17548   5.294   3.893   6.402  2.5061 -1.5337 -1.0819
  157OSM    C9S17549   5.335   3.955   6.609 -0.4820 -0.4498  0.3049
  157OSM    H9S17550   5.229   3.966   6.639 -0.6417  0.5451 -0.5696
  157OSM    H9T17551   5.376   4.056   6.585 -0.8445 -0.6181 -1.1260
  157OSM   C10S17552   5.414   3.908   6.736 -0.5994 -0.2119  0.2524
  157OSM   H10S17553   5.519   3.910   6.700 -0.6531  0.2225  0.1167
  157OSM   H10T17554   5.388   3.802   6.757  1.1407  0.0528  5.1453
  157OSM   C11S17555   5.404   3.995   6.863  0.1356 -0.2508 -0.1490
  157OSM   H11S17556   5.296   3.995   6.889  0.1084  1.4834 -0.1174
  157OSM   H11T17557   5.431   4.102   6.848  0.4243 -0.2458  0.3977
  157OSM   C12S17558   5.484   3.941   6.979 -0.8219  0.1152 -0.4277
  157OSM   H12S17559   5.592   3.937   6.955 -1.0219  0.3531 -1.4334
  157OSM   H12T17560   5.436   3.841   6.981 -0.1047 -0.2203  1.0746
  157OSM   C13S17561   5.473   4.009   7.114  0.6085 -0.0001  0.4806
  157OSM   H13S17562   5.472   4.119   7.106  1.5293  0.1446  2.0068
  157OSM   H13T17563   5.563   3.992   7.177  0.5791 -3.4604 -0.1897
  157OSM   C14S17564   5.353   3.955   7.192 -0.6910 -0.2308  0.1271
  157OSM   H14S17565   5.374   3.847   7.207  3.4864  0.0197 -2.3252
  157OSM   H14T17566   5.261   3.954   7.130 -1.8634 -2.0560  1.7669
  157OSM   C15S17567   5.332   4.025   7.323 -0.4445 -0.5204  0.6831
  157OSM   H15S17568   5.294   4.129   7.310 -3.9446 -1.9711 -3.0157
  157OSM   H15T17569   5.424   4.025   7.386 -0.9156  0.0958  1.3957
  157OSM   C16S17570   5.225   3.960   7.413 -0.2194  0.5887  0.5465
  157OSM   H16S17571   5.256   3.855   7.434 -0.8175 -0.2641 -2.2850
  157OSM   H16T17572   5.133   3.958   7.349  0.4929  2.5246 -0.6310
  157OSM   C17S17573   5.204   4.038   7.540 -0.6162 -0.7883 -0.7024
  157OSM   H17S17574   5.126   4.115   7.525 -0.6889 -1.2858 -3.1893
  157OSM   H17T17575   5.296   4.097   7.564 -0.6058 -0.5932 -1.2094
  157OSM   C18S17576   5.162   3.960   7.667  0.5972 -0.5545  0.4834
  157OSM   H18S17577   5.232   3.876   7.686  2.9497  0.7670 -1.7207
  157OSM   H18T17578   5.059   3.919   7.660  0.9977 -2.1273  2.8168
  157OSM   H18U17579   5.163   4.039   7.745  0.0686  1.7963 -1.7433
  157OSM    C1F17580   5.382   3.459   5.853 -0.7329  0.1924  0.7285
  157OSM     OF17581   5.471   3.402   5.789  0.2831 -0.1801  0.2135
  157OSM    C2F17582   5.249   3.394   5.878  0.7043  0.3988 -0.2385
  157OSM    H2F17583   5.214   3.359   5.779  1.3553 -0.3779 -0.1978
  157OSM    H2G17584   5.179   3.474   5.912 -0.9499 -0.2428 -1.9514
  157OSM    C3F17585   5.259   3.288   5.985  0.3284 -0.2337  0.1445
  157OSM    H3F17586   5.348   3.221   5.977  0.7195  0.4099 -1.4055
  157OSM    H3G17587   5.170   3.223   5.979  0.7877 -1.1099  2.2007
  157OSM    C4F17588   5.254   3.356   6.125 -0.5995  0.1070 -0.0849
  157OSM    H4F17589   5.152   3.399   6.127 -0.7152 -0.1257 -0.6932
  157OSM    H4G17590   5.327   3.440   6.131 -1.0041  0.3973  0.9736
  157OSM    C5F17591   5.291   3.255   6.232  0.3204 -0.1662 -0.5819
  157OSM    H5F17592   5.399   3.231   6.225  0.4713 -0.1725  1.3044
  157OSM    H5G17593   5.222   3.168   6.228 -0.1162  0.0761  1.1845
  157OSM    C6F17594   5.253   3.313   6.369 -0.1599 -0.6608 -0.0881
  157OSM    H6F17595   5.145   3.338   6.364 -0.0386 -0.3069 -1.0338
  157OSM    H6G17596   5.306   3.409   6.380  0.6858 -0.9356 -1.4809
  157OSM    C7F17597   5.317   3.228   6.480  0.6947 -0.4158 -0.1059
  157OSM    H7F17598   5.426   3.228   6.459  0.5799  1.2899 -0.8393
  157OSM    H7G17599   5.274   3.126   6.471 -0.7633  0.2894 -1.8705
  157OSM    C8F17600   5.285   3.279   6.620 -0.1961  0.5915 -0.6492
  157OSM    H8F17601   5.316   3.205   6.697 -0.3011  2.2340  1.0430
  157OSM    H8G17602   5.175   3.278   6.636 -0.1647 -2.9220  0.2291
  157OSM    C9F17603   5.343   3.415   6.660  0.3880  0.0179  0.6787
  157OSM    H9F17604   5.437   3.427   6.604 -0.1069 -0.5445 -0.2850
  157OSM   C10F17605   5.283   3.518   6.725 -0.6146 -0.0075  0.2391
  157OSM   H10F17606   5.344   3.608   6.743 -0.3016 -0.2760  0.5424
  157OSM   C11F17607   5.149   3.518   6.788  0.3094  0.0172 -0.1773
  157OSM   H11F17608   5.140   3.561   6.890  2.2721  1.2750 -0.4760
  157OSM   H11G17609   5.114   3.414   6.806  1.0917 -0.1802  0.2035
  157OSM   C12F17610   5.036   3.607   6.729 -0.2122  0.6560  0.0875
  157OSM   H12F17611   4.946   3.553   6.765  1.3252 -0.6255  2.3129
  157OSM   H12G17612   5.040   3.607   6.618  1.4023 -0.3713  0.1176
  157OSM   C13F17613   5.041   3.745   6.781  0.4663 -0.6197  0.0143
  157OSM   H13F17614   5.136   3.795   6.755 -0.4490  2.1646  1.6274
  157OSM   H13G17615   5.038   3.746   6.892 -1.3711  2.1682  0.0340
  157OSM   C14F17616   4.920   3.829   6.722 -0.5790  0.7685 -0.5974
  157OSM   H14F17617   4.830   3.765   6.735  0.5230 -0.6730  0.2677
  157OSM   H14G17618   4.943   3.829   6.613  0.8136 -0.0825 -0.3404
  157OSM   C15F17619   4.898   3.968   6.779  0.1322 -0.3134 -0.0551
  157OSM   H15F17620   4.979   4.041   6.761 -0.4471  0.1442 -0.8768
  157OSM   H15G17621   4.892   3.957   6.890  0.9495  0.6707  0.0921
  157OSM   C16F17622   4.760   4.028   6.730 -0.5372 -0.5559  0.4012
  157OSM   H16F17623   4.735   4.123   6.782 -0.6100  0.1048 -0.7909
  157OSM   H16G17624   4.686   3.949   6.752  0.2256 -1.1567  0.8762
  157OSM   C17F17625   4.754   4.052   6.576  0.4236 -0.1636  0.2184
  157OSM   H17F17626   4.776   3.952   6.534  3.2465 -0.3464  1.8384
  157OSM   H17G17627   4.830   4.126   6.542 -0.3438 -0.0234 -1.2666
  157OSM   C18F17628   4.622   4.113   6.535 -0.6365  0.8717  0.2661
  157OSM   H18F17629   4.629   4.220   6.561  0.2785  1.9522 -3.7295
  157OSM   H18G17630   4.530   4.077   6.586 -0.1825  0.6081  0.9139
  157OSM   H18H17631   4.604   4.113   6.426  0.5606  0.5223  0.0494
  158OSM      N17632   3.320   3.920   4.784 -0.2680  0.2669  0.3066
  158OSM    C1517633   3.232   4.045   4.794 -0.2820 -0.4626 -0.0733
  158OSM   H15A17634   3.139   4.020   4.844 -0.7776  1.0804 -0.1732
  158OSM   H15B17635   3.209   4.082   4.696 -1.0699 -1.7072 -0.3851
  158OSM   H15C17636   3.287   4.115   4.856 -0.4722 -0.0337 -0.3905
  158OSM    C1417637   3.269   3.833   4.660  0.0917 -0.4139  0.0718
  158OSM   H14A17638   3.314   3.735   4.651 -1.0875 -0.9584 -0.0867
  158OSM   H14B17639   3.283   3.880   4.564 -1.8648 -0.2391 -0.1829
  158OSM   H14C17640   3.162   3.824   4.676 -0.1007 -0.8343 -1.2779
  158OSM    C1317641   3.469   3.964   4.767  0.5144  0.0298  0.5677
  158OSM   H13A17642   3.478   4.044   4.695  1.4609 -1.8187 -1.4984
  158OSM   H13B17643   3.527   3.878   4.734 -2.6435 -1.5473 -1.3039
  158OSM   H13C17644   3.518   3.996   4.858  0.3691  1.8604  0.0292
  158OSM    C1217645   3.315   3.835   4.906  0.3709  0.8743  0.8387
  158OSM   H12A17646   3.391   3.760   4.888 -1.2033 -0.6089  0.0275
  158OSM   H12B17647   3.220   3.784   4.910  0.4967  0.7285  2.5630
  158OSM    C1117648   3.340   3.900   5.038  0.1332 -0.3842 -0.7277
  158OSM   H11A17649   3.310   3.829   5.118  1.2740 -1.4078 -1.1797
  158OSM   H11B17650   3.270   3.986   5.049  1.1966  0.3010  1.2207
  158OSM      P17651   3.582   3.931   5.149  0.1175  0.4173  0.1162
  158OSM    O1317652   3.641   3.807   5.103 -0.2246 -0.4248 -0.7337
  158OSM    O1417653   3.678   4.045   5.164 -0.1458  0.2838  0.1544
  158OSM    O1117654   3.505   3.903   5.280  0.3878  0.2154  0.2927
  158OSM    O1217655   3.467   3.968   5.049 -0.4870  0.1999  0.4575
  158OSM    C1S17656   3.479   3.999   5.372 -0.1666 -0.3897 -0.4357
  158OSM    H1S17657   3.440   4.091   5.324 -0.5852  0.3037  1.1534
  158OSM    H1T17658   3.572   4.034   5.423  0.0891  0.6121 -1.5575
  158OSM     NF17659   3.392   4.055   5.594 -0.0402 -0.4664 -0.1259
  158OSM    HNF17660   3.450   4.038   5.673 -1.4530 -0.9367  0.8605
  158OSM    C2S17661   3.379   3.961   5.488  0.1298  0.8336  0.3682
  158OSM    H2S17662   3.274   3.956   5.452  0.3301 -0.4536 -0.0679
  158OSM    C3S17663   3.409   3.816   5.544  0.6620  0.5174 -0.4832
  158OSM    H3S17664   3.512   3.810   5.586  0.2862 -1.8518  0.2377
  158OSM     O317665   3.426   3.718   5.440  0.8580 -0.2699 -0.3093
  158OSM    HO317666   3.425   3.779   5.366  4.2589 -1.5306 -1.5721
  158OSM    C4S17667   3.319   3.773   5.653  1.0298 -0.2721  0.9772
  158OSM    H4S17668   3.366   3.783   5.752 -1.3889 -1.4632  2.3470
  158OSM    C5S17669   3.203   3.710   5.644 -0.3817 -0.5821 -0.0447
  158OSM    H5S17670   3.179   3.700   5.537  1.2489  0.8810 -0.6109
  158OSM    C6S17671   3.105   3.671   5.753 -0.3661 -0.5534  0.5561
  158OSM    H6S17672   3.077   3.563   5.749  0.1679 -0.6743 -0.0900
  158OSM    H6T17673   3.013   3.733   5.751  0.8462  1.2998 -1.5066
  158OSM    C7S17674   3.172   3.679   5.897  0.5677 -0.7394 -0.3895
  158OSM    H7S17675   3.220   3.777   5.915  0.3232 -0.7838  0.5756
  158OSM    H7T17676   3.255   3.607   5.914  0.4710 -0.6085  0.7395
  158OSM    C8S17677   3.068   3.637   6.003 -0.1022 -0.1981  0.1000
  158OSM    H8S17678   3.080   3.530   6.028  0.1996 -0.0805  0.4661
  158OSM    H8T17679   2.967   3.642   5.957  0.1710  0.2946 -0.4615
  158OSM    C9S17680   3.060   3.732   6.127  0.1492 -0.2762  1.1824
  158OSM    H9S17681   2.965   3.724   6.185 -1.9323 -1.7029 -2.1008
  158OSM    H9T17682   3.052   3.834   6.084  1.4512 -0.3550  0.7048
  158OSM   C10S17683   3.189   3.733   6.205 -0.3396  0.6190 -0.0950
  158OSM   H10S17684   3.262   3.764   6.128 -0.1739 -0.8632 -0.5610
  158OSM   H10T17685   3.205   3.625   6.224 -0.4999  0.3114 -1.5753
  158OSM   C11S17686   3.199   3.820   6.330 -0.5278  0.3647  0.2404
  158OSM   H11S17687   3.190   3.929   6.312 -1.3920  0.3445  0.5209
  158OSM   H11T17688   3.302   3.814   6.371 -0.5083 -0.5062  0.0895
  158OSM   C12S17689   3.118   3.773   6.454 -0.5249 -0.4998  0.0577
  158OSM   H12S17690   3.115   3.663   6.463 -3.1835 -0.4558  0.5790
  158OSM   H12T17691   3.012   3.790   6.425 -0.9048 -0.9427  1.1677
  158OSM   C13S17692   3.143   3.855   6.583 -0.3781  0.1576  0.5306
  158OSM   H13S17693   3.155   3.961   6.551 -0.5361 -0.2104 -0.7980
  158OSM   H13T17694   3.238   3.823   6.629  0.6900 -1.0027 -2.2656
  158OSM   C14S17695   3.030   3.860   6.689 -0.6804 -0.3238  0.0389
  158OSM   H14S17696   2.930   3.863   6.642 -0.1526 -0.5787 -1.1510
  158OSM   H14T17697   3.029   3.958   6.740 -1.8962 -0.8711  1.1096
  158OSM   C15S17698   3.030   3.739   6.784  0.4018  0.6078  0.3209
  158OSM   H15S17699   3.137   3.714   6.802 -0.0610 -1.4180  0.4062
  158OSM   H15T17700   2.995   3.647   6.734  1.6078  1.4691 -2.2893
  158OSM   C16S17701   2.957   3.758   6.921 -0.9670  0.0131 -0.4141
  158OSM   H16S17702   2.981   3.664   6.974 -0.8329  0.1612 -0.2072
  158OSM   H16T17703   2.848   3.762   6.901 -1.0730 -1.3298 -0.1648
  158OSM   C17S17704   2.989   3.885   7.004 -0.1608 -0.5980 -0.7826
  158OSM   H17S17705   2.960   3.976   6.946  1.4102  1.1634  1.0486
  158OSM   H17T17706   3.094   3.887   7.040 -0.6555 -0.8775  0.7242
  158OSM   C18S17707   2.903   3.899   7.131 -0.5353  0.6073  0.9002
  158OSM   H18S17708   2.898   3.999   7.180  0.4809  0.4490  1.3507
  158OSM   H18T17709   2.927   3.815   7.200 -2.0685 -1.3634 -0.8237
  158OSM   H18U17710   2.796   3.878   7.107 -0.2379  0.3314 -0.2510
  158OSM    C1F17711   3.329   4.174   5.578  0.1213  0.2646 -0.0221
  158OSM     OF17712   3.277   4.201   5.474 -0.1330 -0.0184 -0.4112
  158OSM    C2F17713   3.341   4.274   5.689  0.0085 -0.4379  0.2235
  158OSM    H2F17714   3.446   4.308   5.685 -0.0736 -0.1985  0.1140
  158OSM    H2G17715   3.324   4.219   5.785 -0.1449  1.4346  1.3144
  158OSM    C3F17716   3.245   4.388   5.677  0.8935  0.1880 -0.4121
  158OSM    H3F17717   3.141   4.349   5.688  0.3682  1.9302  1.2401
  158OSM    H3G17718   3.260   4.433   5.577  0.9847 -2.4815 -1.7003
  158OSM    C4F17719   3.279   4.489   5.791 -0.2927 -0.4440 -0.0116
  158OSM    H4F17720   3.281   4.589   5.745  1.3228 -0.5733 -0.2682
  158OSM    H4G17721   3.382   4.473   5.830  0.4068 -1.6505 -2.1957
  158OSM    C5F17722   3.175   4.481   5.907 -0.1447  0.4491 -0.0095
  158OSM    H5F17723   3.192   4.380   5.948 -1.0667 -0.6779 -2.2281
  158OSM    H5G17724   3.077   4.484   5.854  0.6262  5.5881 -1.7126
  158OSM    C6F17725   3.192   4.582   6.022 -0.5823  0.0269  0.5531
  158OSM    H6F17726   3.112   4.555   6.095 -0.5136  1.1857  1.0718
  158OSM    H6G17727   3.178   4.682   5.977 -0.9277  0.3644  1.3899
  158OSM    C7F17728   3.338   4.585   6.088 -0.8664 -0.3777  0.0447
  158OSM    H7F17729   3.406   4.610   6.003 -0.2238 -1.3985  0.2444
  158OSM    H7G17730   3.368   4.484   6.124 -0.9699 -0.7920 -0.9678
  158OSM    C8F17731   3.352   4.693   6.201 -0.1532  0.7303  0.0232
  158OSM    H8F17732   3.304   4.788   6.169  1.3303  0.7198 -2.4493
  158OSM    H8G17733   3.461   4.703   6.218 -0.2639  0.4961  0.9432
  158OSM    C9F17734   3.275   4.650   6.322 -0.0813 -0.1827  0.0699
  158OSM    H9F17735   3.198   4.573   6.309  0.0677 -1.0555  3.5097
  158OSM   C10F17736   3.301   4.685   6.446 -0.1699  0.1431 -0.4800
  158OSM   H10F17737   3.242   4.659   6.535  0.4896 -0.4326 -0.2041
  158OSM   C11F17738   3.414   4.777   6.485 -0.4168  0.7578 -0.1623
  158OSM   H11F17739   3.378   4.874   6.527 -2.1455  1.1198 -2.2592
  158OSM   H11G17740   3.456   4.818   6.390 -0.1468  1.2015  0.1466
  158OSM   C12F17741   3.527   4.708   6.566  0.3818 -0.3035  0.1089
  158OSM   H12F17742   3.611   4.779   6.582  0.4987 -0.9122  2.7545
  158OSM   H12G17743   3.566   4.623   6.507  1.6316  1.3268 -1.5288
  158OSM   C13F17744   3.486   4.663   6.705  0.4420 -0.3268 -0.7350
  158OSM   H13F17745   3.394   4.601   6.694  0.2623 -0.1784 -0.0888
  158OSM   H13G17746   3.461   4.747   6.773 -0.2709 -1.6221  0.6626
  158OSM   C14F17747   3.581   4.570   6.783  0.5194 -0.2080  0.1604
  158OSM   H14F17748   3.633   4.489   6.727  3.7056  1.7294  0.0545
  158OSM   H14G17749   3.524   4.523   6.865  0.9365 -1.3620 -0.1843
  158OSM   C15F17750   3.700   4.648   6.835 -0.6194 -0.5242 -0.3773
  158OSM   H15F17751   3.662   4.744   6.877 -0.0413  0.9500 -2.9691
  158OSM   H15G17752   3.760   4.672   6.744  2.0245 -1.1034  1.1124
  158OSM   C16F17753   3.783   4.578   6.943  0.6346 -0.3510  0.4133
  158OSM   H16F17754   3.817   4.481   6.901 -0.1967  0.0989 -1.4179
  158OSM   H16G17755   3.713   4.551   7.024 -0.8577  0.6364 -0.4976
  158OSM   C17F17756   3.891   4.665   7.005  0.1562  0.4479  0.0725
  158OSM   H17F17757   3.855   4.765   7.039 -1.8175  0.6720 -2.3477
  158OSM   H17G17758   3.971   4.681   6.930  1.1678 -2.2672  0.4774
  158OSM   C18F17759   3.953   4.591   7.124 -0.2415  0.1620 -0.0415
  158OSM   H18F17760   4.021   4.662   7.175  0.3599  0.4933 -1.2772
  158OSM   H18G17761   4.014   4.507   7.084 -1.0836 -0.6339  0.3049
  158OSM   H18H17762   3.880   4.548   7.196 -1.4450 -1.0767 -1.9191
  159OSM      N17763   4.242   3.418   5.187  0.2678 -0.1917  0.7982
  159OSM    C1517764   4.226   3.409   5.335  0.5133 -0.2049  0.5532
  159OSM   H15A17765   4.233   3.506   5.382  1.4064  0.2420 -0.4454
  159OSM   H15B17766   4.303   3.346   5.377  1.0767  0.5360  0.6565
  159OSM   H15C17767   4.129   3.373   5.367 -1.1770  2.9512 -0.5684
  159OSM    C1417768   4.240   3.284   5.124  0.7580 -0.8555 -0.5643
  159OSM   H14A17769   4.255   3.289   5.017 -0.3322  2.2327 -0.6826
  159OSM   H14B17770   4.146   3.234   5.141  0.1119  0.4778 -0.0099
  159OSM   H14C17771   4.318   3.225   5.170  2.5730  1.8499  0.0963
  159OSM    C1317772   4.138   3.508   5.130  0.0117 -0.3077 -0.0122
  159OSM   H13A17773   4.154   3.608   5.167  1.6096 -0.7215  0.4646
  159OSM   H13B17774   4.034   3.484   5.148 -0.1678  1.2998  1.2975
  159OSM   H13C17775   4.150   3.510   5.022 -0.2448  0.6053 -0.0273
  159OSM    C1217776   4.380   3.472   5.154 -0.0023 -0.3900 -0.4699
  159OSM   H12A17777   4.397   3.574   5.185 -1.5421 -0.3053  0.1814
  159OSM   H12B17778   4.394   3.477   5.047 -0.3829 -1.6491 -0.6027
  159OSM    C1117779   4.503   3.387   5.189 -0.0928 -0.1557 -0.0842
  159OSM   H11A17780   4.589   3.455   5.170 -1.4244  2.0706  1.3183
  159OSM   H11B17781   4.499   3.299   5.122 -3.6961  0.5726 -1.0361
  159OSM      P17782   4.617   3.263   5.390 -0.1322 -0.1564  0.2931
  159OSM    O1317783   4.611   3.130   5.325  0.5633  0.7885 -0.3032
  159OSM    O1417784   4.746   3.340   5.396 -0.0126  0.3488  0.1688
  159OSM    O1117785   4.567   3.245   5.539  0.1520  0.6274  0.1138
  159OSM    O1217786   4.501   3.355   5.328 -0.4392  0.7795  0.0161
  159OSM    C1S17787   4.552   3.111   5.578 -0.1250 -0.0140  0.0404
  159OSM    H1S17788   4.629   3.040   5.542  0.2383 -0.8258  2.2130
  159OSM    H1T17789   4.459   3.068   5.535 -0.0846 -1.9260  1.7095
  159OSM     NF17790   4.513   2.941   5.755  0.5975 -0.2941 -0.4281
  159OSM    HNF17791   4.423   2.904   5.776  0.5564 -0.5252 -0.9846
  159OSM    C2S17792   4.529   3.083   5.730  0.4925  0.4223 -0.4095
  159OSM    H2S17793   4.621   3.112   5.785  0.9866  0.1698 -1.0836
  159OSM    C3S17794   4.410   3.174   5.785  0.1747  0.8700  0.3770
  159OSM    H3S17795   4.313   3.151   5.736 -0.3142  0.4996  1.4987
  159OSM     O317796   4.427   3.312   5.757  0.2650  0.4240  0.2271
  159OSM    HO317797   4.501   3.312   5.696 -0.6794 -2.1339 -1.0741
  159OSM    C4S17798   4.392   3.165   5.931  0.5251 -0.1405 -0.4677
  159OSM    H4S17799   4.482   3.164   5.994 -1.1132  1.8263  2.1058
  159OSM    C5S17800   4.269   3.148   5.986 -0.3078 -0.2816 -0.2783
  159OSM    H5S17801   4.186   3.141   5.914  2.0098 -0.6550 -3.1394
  159OSM    C6S17802   4.243   3.139   6.134  0.9819  0.3193 -0.4831
  159OSM    H6S17803   4.134   3.164   6.136 -0.2577 -4.1016  3.0319
  159OSM    H6T17804   4.306   3.208   6.195  1.3371  0.1645 -0.6729
  159OSM    C7S17805   4.246   2.997   6.202 -0.0608  0.5581  1.1380
  159OSM    H7S17806   4.349   2.960   6.183  0.4186  0.6486  3.3638
  159OSM    H7T17807   4.175   2.937   6.140  1.9692  1.9137 -2.8592
  159OSM    C8S17808   4.216   3.008   6.349  0.0236 -0.1403  0.1294
  159OSM    H8S17809   4.114   3.049   6.364 -0.0159 -0.0859 -0.2778
  159OSM    H8T17810   4.288   3.078   6.397  0.9508 -0.4905 -0.7349
  159OSM    C9S17811   4.225   2.879   6.440 -0.1089  0.7588 -0.7631
  159OSM    H9S17812   4.325   2.832   6.436 -0.5095 -0.1888 -0.1130
  159OSM    H9T17813   4.146   2.808   6.409 -0.5761  1.6166 -1.5988
  159OSM   C10S17814   4.181   2.898   6.587 -0.1213  0.0301 -0.8306
  159OSM   H10S17815   4.085   2.950   6.609 -0.3401 -0.3384 -0.9172
  159OSM   H10T17816   4.252   2.977   6.621  0.7114 -0.4094 -1.5125
  159OSM   C11S17817   4.192   2.770   6.662  0.2609  0.2706 -0.3815
  159OSM   H11S17818   4.283   2.716   6.629  0.6086 -1.5855  3.1623
  159OSM   H11T17819   4.114   2.691   6.654 -0.0050  0.3734  0.9025
  159OSM   C12S17820   4.232   2.797   6.811 -0.6087  0.2960 -0.2960
  159OSM   H12S17821   4.142   2.857   6.837 -0.2864  2.0021 -2.7113
  159OSM   H12T17822   4.317   2.869   6.814 -1.8910  1.8257  0.7546
  159OSM   C13S17823   4.237   2.669   6.895  0.9379 -0.0644  0.1076
  159OSM   H13S17824   4.314   2.605   6.846  0.5461 -0.4921  0.0369
  159OSM   H13T17825   4.137   2.620   6.888  1.3049 -0.8427  0.2185
  159OSM   C14S17826   4.264   2.687   7.047  0.4607  0.6641  0.5652
  159OSM   H14S17827   4.179   2.749   7.083 -1.7111 -1.8146  0.0198
  159OSM   H14T17828   4.358   2.743   7.068  0.9196  0.1091  0.0136
  159OSM   C15S17829   4.277   2.556   7.127  0.7940 -0.0162  0.6415
  159OSM   H15S17830   4.370   2.498   7.111 -0.2676 -1.8022  0.6719
  159OSM   H15T17831   4.183   2.499   7.116  1.0557 -0.0899 -1.7097
  159OSM   C16S17832   4.293   2.588   7.288  0.1632 -0.9146 -0.2380
  159OSM   H16S17833   4.196   2.629   7.324  0.5068  0.9750 -1.2749
  159OSM   H16T17834   4.369   2.668   7.303 -1.7562  0.9110  0.2520
  159OSM   C17S17835   4.320   2.464   7.364 -0.6742  0.5533 -0.3418
  159OSM   H17S17836   4.295   2.474   7.471  2.7400 -0.2773  0.6742
  159OSM   H17T17837   4.424   2.425   7.357 -0.5724  0.2853  1.9609
  159OSM   C18S17838   4.233   2.348   7.319 -0.5494  0.0759 -0.8858
  159OSM   H18S17839   4.269   2.311   7.221 -0.6422  2.5743 -1.9305
  159OSM   H18T17840   4.128   2.385   7.319  0.7377  4.1988 -0.4172
  159OSM   H18U17841   4.247   2.265   7.392 -0.4005 -0.6108 -1.6808
  159OSM    C1F17842   4.613   2.855   5.728 -0.0399  0.1354 -0.0544
  159OSM     OF17843   4.725   2.891   5.697 -0.1527 -0.2944 -0.3011
  159OSM    C2F17844   4.576   2.706   5.741 -0.5425 -0.3206 -0.3372
  159OSM    H2F17845   4.557   2.664   5.640 -3.6113  0.7665 -0.3049
  159OSM    H2G17846   4.483   2.713   5.801 -0.4090 -1.0911 -0.0296
  159OSM    C3F17847   4.685   2.621   5.801 -0.1654 -0.7389  0.5260
  159OSM    H3F17848   4.765   2.610   5.725 -0.8085 -0.2180 -0.2415
  159OSM    H3G17849   4.638   2.521   5.808 -0.0934 -0.6778  2.3886
  159OSM    C4F17850   4.743   2.663   5.939  0.3026 -0.5874  0.0667
  159OSM    H4F17851   4.803   2.754   5.917 -2.4051  1.1155 -0.7774
  159OSM    H4G17852   4.806   2.577   5.971 -0.4575 -0.3663  2.4114
  159OSM    C5F17853   4.646   2.699   6.056 -0.0309 -0.3506  0.1681
  159OSM    H5F17854   4.584   2.610   6.081  0.9350 -0.8471  0.8615
  159OSM    H5G17855   4.582   2.780   6.015  0.1467  0.0237  0.6253
  159OSM    C6F17856   4.722   2.763   6.168  0.4877 -0.2400  0.2115
  159OSM    H6F17857   4.743   2.866   6.132 -1.7523  0.1251 -0.2233
  159OSM    H6G17858   4.817   2.710   6.189  1.6484  0.5104 -2.6028
  159OSM    C7F17859   4.628   2.770   6.282 -0.4293 -0.1167  0.5037
  159OSM    H7F17860   4.545   2.696   6.281 -0.8153  0.2777  1.8725
  159OSM    H7G17861   4.588   2.873   6.276 -3.1680 -1.1629 -1.7175
  159OSM    C8F17862   4.702   2.753   6.422  1.2941 -0.0598  0.4914
  159OSM    H8F17863   4.773   2.835   6.443 -0.1033  0.5255  3.4031
  159OSM    H8G17864   4.760   2.659   6.409  0.6967 -0.3549 -0.1058
  159OSM    C9F17865   4.604   2.730   6.540 -0.4364 -0.4182 -0.0369
  159OSM    H9F17866   4.538   2.818   6.551 -0.4633 -0.4834  0.3598
  159OSM   C10F17867   4.601   2.621   6.625  0.0819 -0.0970  0.3986
  159OSM   H10F17868   4.552   2.636   6.722 -0.3726  0.4340  0.0903
  159OSM   C11F17869   4.694   2.501   6.621 -0.0025  0.4070 -0.3205
  159OSM   H11F17870   4.802   2.527   6.629 -0.1927  0.6146  2.4990
  159OSM   H11G17871   4.670   2.449   6.526 -0.1702  0.6617 -0.4191
  159OSM   C12F17872   4.667   2.388   6.723  0.9407  0.0201  0.3515
  159OSM   H12F17873   4.712   2.289   6.701 -1.7415 -0.8696 -1.6058
  159OSM   H12G17874   4.558   2.368   6.733  0.8628  0.0341 -0.4315
  159OSM   C13F17875   4.708   2.460   6.858 -0.8072  0.2051 -0.1977
  159OSM   H13F17876   4.673   2.565   6.845  1.6595  0.7809 -3.3668
  159OSM   H13G17877   4.816   2.483   6.867 -0.6909 -0.1491 -0.6004
  159OSM   C14F17878   4.652   2.387   6.975 -0.2341  1.2816 -1.0784
  159OSM   H14F17879   4.701   2.287   6.973 -1.9872  0.3428 -0.1382
  159OSM   H14G17880   4.544   2.359   6.974  0.3300 -1.2541 -0.1688
  159OSM   C15F17881   4.667   2.448   7.113  0.1947 -0.0284  0.3134
  159OSM   H15F17882   4.604   2.403   7.194  0.6942 -0.1162  0.6581
  159OSM   H15G17883   4.642   2.555   7.097  0.9944 -0.0687 -1.3356
  159OSM   C16F17884   4.808   2.463   7.160 -0.2499  0.1564  0.2252
  159OSM   H16F17885   4.872   2.528   7.097  0.4930 -0.5377  0.2480
  159OSM   H16G17886   4.852   2.361   7.156  0.3334  0.3932  0.4734
  159OSM   C17F17887   4.821   2.510   7.310  0.8298  0.0072 -0.2520
  159OSM   H17F17888   4.897   2.451   7.366 -1.0942  0.0723  2.6989
  159OSM   H17G17889   4.724   2.484   7.359  1.4072 -2.5444 -0.3306
  159OSM   C18F17890   4.850   2.654   7.330  0.0230  0.2836 -0.0589
  159OSM   H18F17891   4.889   2.696   7.426  0.5441  0.1214 -0.1982
  159OSM   H18G17892   4.760   2.705   7.290  0.4178  0.1580 -1.1283
  159OSM   H18H17893   4.940   2.664   7.266 -0.3074 -2.7965 -1.1713
  160OSM      N17894   6.632   4.850   4.938 -0.4828  0.1543 -0.0961
  160OSM    C1517895   6.633   5.001   4.910 -0.5123  0.3469 -0.5412
  160OSM   H15A17896   6.664   5.050   5.001  0.0635 -1.0045  0.0234
  160OSM   H15B17897   6.536   5.031   4.872 -0.3327 -2.1098 -3.2575
  160OSM   H15C17898   6.708   5.029   4.839 -0.1714 -0.3258 -0.4511
  160OSM    C1417899   6.609   4.778   4.811 -0.0868  0.7279 -0.3500
  160OSM   H14A17900   6.674   4.816   4.733 -1.2996 -0.8040 -2.1998
  160OSM   H14B17901   6.509   4.790   4.773 -0.6994 -2.4200 -0.0387
  160OSM   H14C17902   6.607   4.670   4.813 -0.8023  0.7408  1.5266
  160OSM    C1317903   6.769   4.819   4.986 -0.5169  0.3048 -0.0788
  160OSM   H13A17904   6.842   4.851   4.913 -0.4666 -1.2115 -0.7476
  160OSM   H13B17905   6.782   4.713   5.006  2.5166 -0.1883 -3.5692
  160OSM   H13C17906   6.795   4.879   5.072 -0.0647  0.0471 -0.0334
  160OSM    C1217907   6.535   4.810   5.041  1.0310 -0.2173 -0.0889
  160OSM   H12A17908   6.533   4.703   5.050 -0.5658 -0.1987 -0.0103
  160OSM   H12B17909   6.438   4.839   5.003  1.3214  0.2014 -0.5251
  160OSM    C1117910   6.554   4.874   5.180 -0.7389  0.0178 -0.2019
  160OSM   H11A17911   6.653   4.846   5.224  0.6118  1.1839 -2.3555
  160OSM   H11B17912   6.486   4.826   5.254  2.0698 -1.8631  1.3730
  160OSM      P17913   6.406   5.087   5.167  0.2634 -0.7108 -0.0350
  160OSM    O1317914   6.415   5.226   5.122  0.4874 -0.0425 -0.3202
  160OSM    O1417915   6.307   5.002   5.103 -0.3759  0.0135  0.5314
  160OSM    O1117916   6.357   5.096   5.320  0.0858  0.3803  0.0939
  160OSM    O1217917   6.546   5.019   5.182 -0.2705  0.0209  0.4844
  160OSM    C1S17918   6.442   5.077   5.431 -0.3668  0.7305  1.0563
  160OSM    H1S17919   6.521   5.155   5.438  0.2584  0.5512 -2.2260
  160OSM    H1T17920   6.486   4.974   5.436 -0.7755  0.5302  0.5798
  160OSM     NF17921   6.443   5.050   5.684  0.1253  0.1051  0.8301
  160OSM    HNF17922   6.439   4.958   5.722  1.2201  0.8867  3.0232
  160OSM    C2S17923   6.360   5.084   5.565 -0.2979 -0.1080 -0.1569
  160OSM    H2S17924   6.312   5.183   5.575 -0.9118 -0.5407  1.6178
  160OSM    C3S17925   6.236   4.985   5.553 -0.3249 -0.6343 -0.4923
  160OSM    H3S17926   6.275   4.881   5.553 -2.7295 -1.5888  0.2816
  160OSM     O317927   6.157   5.001   5.436 -0.3137 -0.8094  0.2560
  160OSM    HO317928   6.221   5.051   5.386  1.7275 -2.3838  1.1477
  160OSM    C4S17929   6.152   4.992   5.675 -0.5641 -0.7024  0.0873
  160OSM    H4S17930   6.110   5.091   5.699 -3.2257 -2.1691  2.0341
  160OSM    C5S17931   6.135   4.899   5.769  0.6973 -0.2521 -0.3473
  160OSM    H5S17932   6.176   4.800   5.747  1.1605 -0.1145 -0.1053
  160OSM    C6S17933   6.050   4.925   5.892 -0.2735  0.1284  0.1343
  160OSM    H6S17934   6.014   4.828   5.933  1.3027 -0.6318 -0.1792
  160OSM    H6T17935   5.963   4.990   5.872 -0.5876 -0.8916 -2.1841
  160OSM    C7S17936   6.120   4.988   6.008  0.2175  0.3483 -0.5751
  160OSM    H7S17937   6.213   4.930   6.025  0.3807  0.6694 -0.3576
  160OSM    H7T17938   6.062   4.970   6.101  1.1683 -0.9011 -0.1851
  160OSM    C8S17939   6.161   5.130   5.998 -0.0464 -0.6397 -0.2354
  160OSM    H8S17940   6.071   5.195   5.994  2.8850  3.8940 -0.1460
  160OSM    H8T17941   6.211   5.146   5.900 -0.5533  2.2151 -0.1276
  160OSM    C9S17942   6.244   5.185   6.114 -0.1682  0.0853 -0.1138
  160OSM    H9S17943   6.266   5.292   6.089 -0.5440  0.2412  0.2143
  160OSM    H9T17944   6.344   5.138   6.119  0.7142  1.9341  0.8958
  160OSM   C10S17945   6.170   5.190   6.248 -0.2337  0.3851  0.0876
  160OSM   H10S17946   6.150   5.089   6.289  0.2130  0.0771 -0.4463
  160OSM   H10T17947   6.072   5.239   6.226  0.5900  0.9343 -2.8787
  160OSM   C11S17948   6.249   5.279   6.352  0.7074  0.6497  0.4617
  160OSM   H11S17949   6.307   5.363   6.308 -1.1429  0.8598 -1.7562
  160OSM   H11T17950   6.325   5.213   6.399  0.4111  1.3082  1.9377
  160OSM   C12S17951   6.154   5.325   6.459 -0.6194  0.4241 -0.2656
  160OSM   H12S17952   6.086   5.391   6.401 -0.1366  0.1823 -1.1303
  160OSM   H12T17953   6.221   5.380   6.528  0.2878 -1.6447  0.5854
  160OSM   C13S17954   6.069   5.227   6.536  0.6681  0.0813 -0.1834
  160OSM   H13S17955   6.126   5.136   6.564  1.1816  0.2552 -0.6316
  160OSM   H13T17956   5.978   5.200   6.478  0.2168 -0.1494  0.6289
  160OSM   C14S17957   6.002   5.282   6.666  0.2110 -0.0203  0.5804
  160OSM   H14S17958   5.920   5.217   6.703  1.1396 -0.8066  1.2984
  160OSM   H14T17959   5.961   5.379   6.629  0.2898 -0.1505  0.1585
  160OSM   C15S17960   6.100   5.311   6.776  0.4625 -0.4716 -0.7974
  160OSM   H15S17961   6.138   5.414   6.759  4.2324 -1.3985  0.8542
  160OSM   H15T17962   6.190   5.246   6.777  2.0889  1.6520  0.4511
  160OSM   C16S17963   6.034   5.323   6.919  0.8534 -0.4301  0.5483
  160OSM   H16S17964   5.968   5.234   6.923 -0.3498  0.3440 -0.8006
  160OSM   H16T17965   5.966   5.411   6.925 -0.0496 -1.0165 -0.7288
  160OSM   C17S17966   6.141   5.340   7.018 -0.4063  0.1296 -0.3959
  160OSM   H17S17967   6.213   5.412   6.974 -0.7161 -0.0332 -1.1848
  160OSM   H17T17968   6.208   5.252   7.031 -2.5333 -1.3038  1.6735
  160OSM   C18S17969   6.091   5.393   7.153 -0.4268 -0.5140 -0.2397
  160OSM   H18S17970   6.009   5.329   7.192 -0.9014 -0.7117 -1.5387
  160OSM   H18T17971   6.039   5.490   7.139  1.8294  0.6278 -1.3229
  160OSM   H18U17972   6.175   5.388   7.227 -0.5005  0.8450 -0.0373
  160OSM    C1F17973   6.534   5.131   5.733 -0.2670  0.5400 -0.5705
  160OSM     OF17974   6.543   5.243   5.684 -0.3656 -0.1860  0.1546
  160OSM    C2F17975   6.613   5.088   5.848  0.2118  0.1816 -0.0352
  160OSM    H2F17976   6.715   5.078   5.806  0.3692 -0.2758  0.4354
  160OSM    H2G17977   6.586   4.993   5.899 -0.0309 -0.0115 -0.5191
  160OSM    C3F17978   6.598   5.197   5.962  0.1841 -0.2096  0.0623
  160OSM    H3F17979   6.495   5.189   6.000  1.3311 -1.9627  3.1019
  160OSM    H3G17980   6.612   5.300   5.921  1.5956 -0.6260 -0.5560
  160OSM    C4F17981   6.684   5.170   6.086 -0.1091 -0.3711  0.5416
  160OSM    H4F17982   6.785   5.173   6.042 -0.5678  1.0404 -0.4743
  160OSM    H4G17983   6.659   5.070   6.129 -0.1149  0.3564  2.3371
  160OSM    C5F17984   6.662   5.272   6.203 -0.1895 -0.0595  0.8883
  160OSM    H5F17985   6.555   5.256   6.228 -0.0724 -0.5604  1.0973
  160OSM    H5G17986   6.679   5.376   6.170 -0.7708  0.1256  1.1638
  160OSM    C6F17987   6.743   5.245   6.328  0.0337  0.3055 -0.7429
  160OSM    H6F17988   6.852   5.259   6.316  0.2054 -0.5242 -0.2663
  160OSM    H6G17989   6.719   5.145   6.370 -2.0543  0.8576 -0.5123
  160OSM    C7F17990   6.713   5.339   6.445 -0.3759 -0.6448 -0.0743
  160OSM    H7F17991   6.603   5.355   6.444 -0.0816  2.4402 -3.5433
  160OSM    H7G17992   6.761   5.437   6.425 -0.5532  0.0652  2.6072
  160OSM    C8F17993   6.775   5.266   6.566  0.0037 -0.6056 -0.2759
  160OSM    H8F17994   6.884   5.246   6.564  0.2470  0.2405  1.8043
  160OSM    H8G17995   6.732   5.166   6.587 -0.6221 -0.3993 -0.5405
  160OSM    C9F17996   6.750   5.343   6.696  0.2474  0.4668 -0.7572
  160OSM    H9F17997   6.812   5.434   6.698 -0.1890  0.7771 -1.0487
  160OSM   C10F17998   6.669   5.319   6.802  0.0994 -0.4798  0.1691
  160OSM   H10F17999   6.684   5.387   6.888 -0.2378  0.5561 -0.5758
  160OSM   C11F18000   6.577   5.199   6.815 -0.5103  0.1662  0.3941
  160OSM   H11F18001   6.630   5.123   6.753  1.2408  1.5765  0.1000
  160OSM   H11G18002   6.475   5.218   6.777  0.6001  1.4182 -2.2057
  160OSM   C12F18003   6.593   5.137   6.949  0.5998  0.8023 -0.1104
  160OSM   H12F18004   6.698   5.115   6.977  0.2820  0.6193  0.9918
  160OSM   H12G18005   6.552   5.034   6.945  1.3619  0.4671  0.4606
  160OSM   C13F18006   6.536   5.215   7.071 -0.7634  0.0574  0.4114
  160OSM   H13F18007   6.429   5.240   7.056 -0.6656  0.6066  0.6079
  160OSM   H13G18008   6.584   5.315   7.079 -1.0427  0.2627 -0.2968
  160OSM   C14F18009   6.563   5.140   7.201 -0.2009 -0.8028 -0.2427
  160OSM   H14F18010   6.664   5.095   7.209  0.1259  0.0699  0.7752
  160OSM   H14G18011   6.492   5.055   7.209  1.0463 -1.9328 -0.9077
  160OSM   C15F18012   6.545   5.229   7.331  0.2310  0.6143 -0.2843
  160OSM   H15F18013   6.617   5.314   7.331  0.4072  0.4660 -0.4670
  160OSM   H15G18014   6.581   5.168   7.416  0.2819 -0.4995 -1.0846
  160OSM   C16F18015   6.400   5.275   7.345 -0.2087  0.1826 -0.4152
  160OSM   H16F18016   6.329   5.189   7.334  0.4553 -0.4922  0.4085
  160OSM   H16G18017   6.365   5.335   7.259  0.2987 -0.3638 -1.0144
  160OSM   C17F18018   6.374   5.338   7.477 -0.1864 -0.3154 -0.4865
  160OSM   H17F18019   6.408   5.268   7.556 -1.4967 -0.9082 -0.4232
  160OSM   H17G18020   6.263   5.337   7.479 -0.2201  0.4063  1.9362
  160OSM   C18F18021   6.431   5.475   7.509  0.3522 -0.8078 -0.0861
  160OSM   H18F18022   6.399   5.563   7.451  1.4970  1.1994  2.1508
  160OSM   H18G18023   6.541   5.467   7.507  0.3610 -0.8092  0.2987
  160OSM   H18H18024   6.405   5.498   7.615 -0.9887 -0.5391 -0.4547
  161OSM      N18025   5.368   2.024   4.966 -1.0582 -0.0973 -0.3635
  161OSM    C1518026   5.518   2.031   4.985  0.4973  0.1486  0.0005
  161OSM   H15A18027   5.535   2.046   5.091  1.0389  0.5740 -0.1439
  161OSM   H15B18028   5.562   2.113   4.931 -1.4505  1.5574  0.4344
  161OSM   H15C18029   5.571   1.939   4.962  0.5946 -0.1768  1.4339
  161OSM    C1418030   5.312   2.160   4.994  0.8904  0.5834  0.1150
  161OSM   H14A18031   5.210   2.160   4.961  0.4364 -0.2196  1.4285
  161OSM   H14B18032   5.373   2.235   4.946 -0.0183  1.8933  0.9562
  161OSM   H14C18033   5.301   2.175   5.100 -2.2315 -1.6949  0.2630
  161OSM    C1318034   5.352   1.991   4.822  0.2178 -0.0540  0.6215
  161OSM   H13A18035   5.249   1.999   4.789  1.0216  1.0550 -1.8990
  161OSM   H13B18036   5.394   1.896   4.794 -1.3233 -1.0348  1.5078
  161OSM   H13C18037   5.397   2.078   4.775 -1.4980  2.0136  2.5430
  161OSM    C1218038   5.306   1.913   5.050 -0.2144 -0.1571 -0.1706
  161OSM   H12A18039   5.345   1.818   5.017 -0.8904 -0.6167  0.3296
  161OSM   H12B18040   5.199   1.914   5.033 -0.3592 -1.0992  0.5744
  161OSM    C1118041   5.340   1.918   5.201 -0.1359  0.2940 -0.0345
  161OSM   H11A18042   5.273   1.851   5.259  1.3582 -1.3233 -0.0999
  161OSM   H11B18043   5.316   2.021   5.234  1.6979  0.1755  1.9079
  161OSM      P18044   5.537   1.738   5.226  0.1993  0.3022 -0.4151
  161OSM    O1318045   5.505   1.668   5.103  0.4374 -0.0583  0.3758
  161OSM    O1418046   5.670   1.734   5.275 -0.3307  0.1050  0.0421
  161OSM    O1118047   5.464   1.658   5.343  0.2974  0.0843 -0.0182
  161OSM    O1218048   5.482   1.890   5.235 -0.3363 -0.6028 -0.2119
  161OSM    C1S18049   5.427   1.737   5.466  0.0319  0.3305 -0.2025
  161OSM    H1S18050   5.324   1.774   5.451  0.1228  1.1968  1.1413
  161OSM    H1T18051   5.487   1.830   5.476 -0.4445  0.7284 -0.9424
  161OSM     NF18052   5.346   1.706   5.702 -0.0303  0.2207  0.7152
  161OSM    HNF18053   5.391   1.777   5.755  0.3230 -2.5096  4.5459
  161OSM    C2S18054   5.419   1.645   5.598  0.5919  0.0448  0.1681
  161OSM    H2S18055   5.359   1.558   5.565 -0.9451  1.4258 -0.8572
  161OSM    C3S18056   5.563   1.606   5.641 -0.2443  0.4451  0.0979
  161OSM    H3S18057   5.611   1.702   5.670  1.3076 -0.2028 -0.2135
  161OSM     O318058   5.663   1.568   5.545  0.4982 -0.2173  0.0927
  161OSM    HO318059   5.632   1.607   5.462 -0.7639 -1.3800  0.0028
  161OSM    C4S18060   5.564   1.518   5.755 -0.2124  0.0455  0.9053
  161OSM    H4S18061   5.534   1.573   5.846 -2.2115  1.1766 -0.3795
  161OSM    C5S18062   5.579   1.380   5.761 -0.4749 -0.0563  0.8515
  161OSM    H5S18063   5.576   1.315   5.673 -2.0339  0.2322  0.6662
  161OSM    C6S18064   5.574   1.299   5.890  0.0997 -0.2681 -0.0345
  161OSM    H6S18065   5.667   1.238   5.893 -0.2814 -0.8323  0.7957
  161OSM    H6T18066   5.483   1.236   5.887 -0.6098  0.7612 -0.6303
  161OSM    C7S18067   5.547   1.371   6.020 -0.2759  0.1328 -0.9121
  161OSM    H7S18068   5.444   1.412   6.014 -0.8323 -1.1998 -1.0578
  161OSM    H7T18069   5.627   1.445   6.042 -0.4840 -0.1191  0.8643
  161OSM    C8S18070   5.555   1.279   6.137  1.1226 -0.0460  0.1502
  161OSM    H8S18071   5.653   1.226   6.132  1.3717  0.5322 -1.6086
  161OSM    H8T18072   5.470   1.208   6.141 -0.1931  1.5119  0.9186
  161OSM    C9S18073   5.527   1.364   6.262 -0.1891  0.2822  0.0679
  161OSM    H9S18074   5.429   1.418   6.261 -0.7930 -0.7703  0.6085
  161OSM    H9T18075   5.611   1.435   6.277  1.0954 -1.3419  0.9177
  161OSM   C10S18076   5.526   1.280   6.393 -0.1519  0.2709 -0.1886
  161OSM   H10S18077   5.630   1.245   6.412 -0.3863  0.5873  1.9181
  161OSM   H10T18078   5.457   1.194   6.379 -0.8307  0.9524 -1.0834
  161OSM   C11S18079   5.489   1.362   6.514 -0.0632 -0.2154 -0.3252
  161OSM   H11S18080   5.408   1.436   6.493 -0.0416 -0.0347  0.2034
  161OSM   H11T18081   5.577   1.425   6.540 -1.5115  0.9473  2.1379
  161OSM   C12S18082   5.443   1.268   6.630 -0.0701  0.6749 -0.2220
  161OSM   H12S18083   5.518   1.192   6.661 -2.1980 -0.9106  1.3151
  161OSM   H12T18084   5.357   1.203   6.605  1.7557 -1.1627 -2.0950
  161OSM   C13S18085   5.397   1.356   6.750  0.6285 -0.0221  0.2122
  161OSM   H13S18086   5.301   1.404   6.721  0.5634  0.1773  0.7548
  161OSM   H13T18087   5.477   1.430   6.774  1.9980 -1.6518  0.8660
  161OSM   C14S18088   5.362   1.283   6.876 -0.1120 -0.5581  0.4490
  161OSM   H14S18089   5.446   1.219   6.912  0.1819 -0.1471  0.5031
  161OSM   H14T18090   5.272   1.225   6.849 -0.0180  0.2761 -1.8815
  161OSM   C15S18091   5.322   1.375   7.001  0.2337 -0.1858 -0.2816
  161OSM   H15S18092   5.280   1.308   7.079  1.7071 -0.9571 -0.1125
  161OSM   H15T18093   5.246   1.439   6.952  0.5637  0.7968  0.4381
  161OSM   C16S18094   5.443   1.461   7.050 -0.3696  0.0350  0.5713
  161OSM   H16S18095   5.480   1.537   6.978  0.4936  0.5344  1.5207
  161OSM   H16T18096   5.524   1.393   7.084  0.0736  0.8331  1.1525
  161OSM   C17S18097   5.402   1.558   7.164  0.0067  0.1514  0.0173
  161OSM   H17S18098   5.324   1.626   7.123 -0.3725 -0.2149  0.1325
  161OSM   H17T18099   5.489   1.627   7.178  0.6486 -0.9172  1.6650
  161OSM   C18S18100   5.358   1.502   7.299  0.1665  0.3211 -0.1654
  161OSM   H18S18101   5.273   1.431   7.287 -0.3168  0.6452  1.1833
  161OSM   H18T18102   5.338   1.590   7.363 -1.0130  0.5481 -0.8158
  161OSM   H18U18103   5.444   1.441   7.334 -1.2706 -0.8880  1.3685
  161OSM    C1F18104   5.218   1.716   5.707 -0.1342 -0.4956 -0.1854
  161OSM     OF18105   5.135   1.657   5.634  0.2423 -0.3576  0.2893
  161OSM    C2F18106   5.163   1.809   5.808 -0.7632  0.4550 -0.4338
  161OSM    H2F18107   5.229   1.790   5.895  2.3045 -1.0527 -2.8728
  161OSM    H2G18108   5.058   1.779   5.829 -0.0159 -0.2189  2.8362
  161OSM    C3F18109   5.169   1.963   5.769 -0.2739 -0.2697  0.3258
  161OSM    H3F18110   5.141   1.975   5.662  0.7683 -1.9814 -0.1821
  161OSM    H3G18111   5.268   2.013   5.777 -1.0321  1.9363 -2.3337
  161OSM    C4F18112   5.070   2.039   5.861  0.1139  0.0275  0.6131
  161OSM    H4F18113   5.092   2.030   5.970  1.7534  1.2449  0.4219
  161OSM    H4G18114   4.968   1.996   5.852  0.5307 -0.8833  0.1032
  161OSM    C5F18115   5.075   2.189   5.830 -0.3946 -0.0336 -0.4031
  161OSM    H5F18116   4.979   2.227   5.871 -0.0018  0.0696  0.4405
  161OSM    H5G18117   5.085   2.206   5.720 -0.9466  1.3719 -0.2476
  161OSM    C6F18118   5.187   2.272   5.886  0.0289 -0.1831  0.0688
  161OSM    H6F18119   5.278   2.221   5.849  0.3425 -0.4810  1.2188
  161OSM    H6G18120   5.194   2.280   5.997  0.4526  0.1915  0.0155
  161OSM    C7F18121   5.186   2.421   5.840 -0.6686 -0.2241  1.0362
  161OSM    H7F18122   5.143   2.418   5.738  2.2136  0.0283 -0.2787
  161OSM    H7G18123   5.285   2.467   5.824 -0.2570 -1.4937 -0.1864
  161OSM    C8F18124   5.093   2.501   5.926  0.2549 -0.9695  0.0901
  161OSM    H8F18125   5.093   2.462   6.030  0.3686  0.6364  0.7120
  161OSM    H8G18126   4.986   2.487   5.897  0.2467 -0.7287  0.0029
  161OSM    C9F18127   5.136   2.651   5.942 -0.0746  0.0405  0.4963
  161OSM    H9F18128   5.175   2.705   5.854 -2.3447  1.7223  0.4342
  161OSM   C10F18129   5.150   2.716   6.056 -0.0433 -0.1805  0.2123
  161OSM   H10F18130   5.173   2.823   6.048  0.3013 -0.3589 -2.0784
  161OSM   C11F18131   5.121   2.670   6.198  0.4098 -0.2780 -0.6034
  161OSM   H11F18132   5.209   2.615   6.237  1.2837  1.9435  0.7291
  161OSM   H11G18133   5.024   2.616   6.192 -0.6707  1.3444  1.1563
  161OSM   C12F18134   5.094   2.784   6.301  0.5336  0.6413 -0.0215
  161OSM   H12F18135   5.000   2.836   6.272 -1.0935 -2.0999 -0.0252
  161OSM   H12G18136   5.179   2.856   6.300  2.6199 -1.6793 -0.5921
  161OSM   C13F18137   5.080   2.717   6.437 -0.1360  0.1141 -0.0346
  161OSM   H13F18138   5.165   2.647   6.448 -0.0439  0.4422  1.5331
  161OSM   H13G18139   4.987   2.658   6.447 -0.4937  0.7905  0.7187
  161OSM   C14F18140   5.074   2.813   6.558 -0.3754 -0.0930 -0.5556
  161OSM   H14F18141   5.020   2.901   6.517  1.4291  1.5488  0.4770
  161OSM   H14G18142   5.171   2.862   6.581 -0.1654  0.0165 -1.6017
  161OSM   C15F18143   5.011   2.755   6.684  0.8052 -0.3687  0.3833
  161OSM   H15F18144   5.045   2.652   6.709 -2.1821 -1.4676  0.3032
  161OSM   H15G18145   4.902   2.759   6.663  1.0366  2.6995 -0.7776
  161OSM   C16F18146   5.031   2.855   6.799 -0.6338 -0.5554 -0.2012
  161OSM   H16F18147   4.996   2.954   6.761 -3.9250 -2.6730 -3.2549
  161OSM   H16G18148   5.141   2.868   6.813 -0.7756  0.3651  0.1169
  161OSM   C17F18149   4.948   2.817   6.919  0.3981 -0.1676  0.3559
  161OSM   H17F18150   4.993   2.721   6.954  2.0138 -0.3761 -2.0320
  161OSM   H17G18151   4.843   2.792   6.892  0.6521 -1.4439  0.4832
  161OSM   C18F18152   4.951   2.921   7.032 -0.1233 -0.0940  0.3292
  161OSM   H18F18153   4.911   3.018   6.995 -1.8767 -0.0607  2.1101
  161OSM   H18G18154   5.056   2.932   7.066  0.1592 -0.8810 -0.2634
  161OSM   H18H18155   4.886   2.886   7.115 -2.7118  0.1709 -1.4697
  162OSM      N18156   6.092   3.641   5.758 -0.0871 -0.4397  0.3756
  162OSM    C1518157   6.181   3.605   5.647  0.7408  0.3413  0.1567
  162OSM   H15A18158   6.281   3.624   5.682  0.5622 -1.6870  1.9831
  162OSM   H15B18159   6.161   3.669   5.562 -1.4859  1.2261  1.2588
  162OSM   H15C18160   6.165   3.504   5.613 -1.3684  0.6177  0.1420
  162OSM    C1418161   5.953   3.621   5.714 -0.5614  0.3199  0.0828
  162OSM   H14A18162   5.884   3.647   5.792  1.6593 -0.2387  2.3665
  162OSM   H14B18163   5.940   3.521   5.675 -1.2876 -1.2980  4.0629
  162OSM   H14C18164   5.917   3.688   5.637 -2.6369  0.4560  1.1216
  162OSM    C1318165   6.120   3.551   5.875  0.5546 -0.0853  0.4161
  162OSM   H13A18166   6.226   3.546   5.893  0.3949  1.8326  2.1963
  162OSM   H13B18167   6.088   3.449   5.859 -0.1485 -0.3038  2.8201
  162OSM   H13C18168   6.065   3.568   5.966 -1.3335 -2.2996 -0.2106
  162OSM    C1218169   6.124   3.781   5.808  0.3908  0.2785  0.4339
  162OSM   H12A18170   6.228   3.786   5.835  0.7630 -1.3678 -0.5385
  162OSM   H12B18171   6.088   3.786   5.910 -0.9336 -1.5876  0.1357
  162OSM    C1118172   6.089   3.896   5.712 -0.0658 -0.0135 -0.2988
  162OSM   H11A18173   6.094   3.999   5.752 -0.1968 -0.0615 -0.1554
  162OSM   H11B18174   5.982   3.886   5.683  0.2823 -1.0751 -1.2842
  162OSM      P18175   6.319   3.939   5.593  0.0799 -0.0341 -0.4418
  162OSM    O1318176   6.404   3.837   5.521 -0.3189 -0.5221  0.3036
  162OSM    O1418177   6.335   4.080   5.549 -0.0273  0.1780 -0.2594
  162OSM    O1118178   6.366   3.938   5.746  0.4041  0.3488  0.2604
  162OSM    O1218179   6.165   3.893   5.592  0.0316  0.0747  0.2273
  162OSM    C1S18180   6.499   3.991   5.765 -0.6017  0.6665 -0.4816
  162OSM    H1S18181   6.510   4.091   5.717 -1.4660  0.9988  0.0024
  162OSM    H1T18182   6.574   3.921   5.723 -1.9285 -0.8588 -0.3768
  162OSM     NF18183   6.653   4.070   5.943  0.1360  0.2828  0.0985
  162OSM    HNF18184   6.735   4.017   5.966 -0.4618  0.0359  1.7897
  162OSM    C2S18185   6.527   4.011   5.919 -0.2147  0.2006  0.7754
  162OSM    H2S18186   6.454   4.088   5.955  1.0324  1.5550  0.4977
  162OSM    C3S18187   6.490   3.883   5.995 -0.5068 -0.6662 -0.1376
  162OSM    H3S18188   6.543   3.799   5.947  0.0576  0.2320 -1.1295
  162OSM     O318189   6.353   3.856   5.998 -0.6629 -0.6240 -0.0175
  162OSM    HO318190   6.332   3.905   5.919 -3.0283  0.9262  1.4470
  162OSM    C4S18191   6.546   3.876   6.135 -0.1894 -0.3023 -0.4174
  162OSM    H4S18192   6.534   3.974   6.184  0.8820 -0.5343  0.3492
  162OSM    C5S18193   6.592   3.766   6.204  0.0778 -0.2525 -0.7468
  162OSM    H5S18194   6.628   3.672   6.159 -0.3080 -0.8511  0.1768
  162OSM    C6S18195   6.626   3.793   6.344 -1.0228  0.2691  0.0200
  162OSM    H6S18196   6.679   3.887   6.369  0.7991 -0.2532 -1.5944
  162OSM    H6T18197   6.702   3.718   6.376 -0.4135  0.7258 -0.3254
  162OSM    C7S18198   6.499   3.797   6.420  0.1369  1.0526 -0.8787
  162OSM    H7S18199   6.465   3.691   6.427  1.7480  0.5757  0.2350
  162OSM    H7T18200   6.411   3.850   6.377 -0.2413 -1.1154 -2.9844
  162OSM    C8S18201   6.528   3.823   6.567  0.5367 -0.1117  0.3785
  162OSM    H8S18202   6.540   3.933   6.580 -0.3650 -0.1342  1.5728
  162OSM    H8T18203   6.621   3.766   6.591  1.5512  1.1751 -0.3653
  162OSM    C9S18204   6.421   3.779   6.670  0.0715 -0.3205  0.0130
  162OSM    H9S18205   6.408   3.669   6.656  0.6557 -0.6044  1.5498
  162OSM    H9T18206   6.323   3.828   6.649 -1.4455 -3.9168 -2.3718
  162OSM   C10S18207   6.455   3.800   6.813  0.3774 -0.6414  0.3236
  162OSM   H10S18208   6.484   3.906   6.826  1.6541 -0.8203 -0.7974
  162OSM   H10T18209   6.541   3.738   6.848 -0.7809 -1.3865  1.9386
  162OSM   C11S18210   6.347   3.753   6.914  0.3686 -0.6047 -0.3630
  162OSM   H11S18211   6.328   3.646   6.891 -2.1169  0.0036 -1.4345
  162OSM   H11T18212   6.253   3.811   6.905  0.8508  0.0651 -1.2631
  162OSM   C12S18213   6.396   3.772   7.065  0.1361  0.9575  0.0934
  162OSM   H12S18214   6.458   3.863   7.060 -0.9633  1.9401  2.5716
  162OSM   H12T18215   6.469   3.689   7.077 -0.1947  0.5006 -0.8999
  162OSM   C13S18216   6.294   3.778   7.174  0.1615  0.4626  0.2841
  162OSM   H13S18217   6.243   3.679   7.173 -0.5828  0.8298  0.8807
  162OSM   H13T18218   6.226   3.860   7.144  0.5821 -0.1154 -2.5761
  162OSM   C14S18219   6.362   3.821   7.305 -0.1412  0.0720 -0.1131
  162OSM   H14S18220   6.287   3.887   7.353 -1.5039  1.1378 -3.4538
  162OSM   H14T18221   6.441   3.892   7.276 -2.0300  2.2395 -0.1952
  162OSM   C15S18222   6.409   3.703   7.406  0.5657  0.0367  0.5085
  162OSM   H15S18223   6.313   3.651   7.425 -0.0206  0.2308 -1.7041
  162OSM   H15T18224   6.448   3.737   7.505  1.8140  2.4800 -0.7486
  162OSM   C16S18225   6.509   3.609   7.336  0.3272  0.0248  0.1691
  162OSM   H16S18226   6.608   3.655   7.317  0.5497  0.4956  2.2529
  162OSM   H16T18227   6.461   3.562   7.248  1.0542  0.8518 -0.6874
  162OSM   C17S18228   6.535   3.496   7.432  0.1287 -0.3574  0.3145
  162OSM   H17S18229   6.551   3.402   7.374 -4.1570 -0.5564 -0.9010
  162OSM   H17T18230   6.446   3.482   7.496 -1.0950  1.5126 -0.8818
  162OSM   C18S18231   6.650   3.526   7.530 -0.5818 -0.1509 -0.1720
  162OSM   H18S18232   6.639   3.458   7.617 -0.7929 -0.6894 -0.6172
  162OSM   H18T18233   6.634   3.634   7.552 -0.1868 -0.3062  0.9313
  162OSM   H18U18234   6.746   3.514   7.475 -0.0060 -0.0915  0.7954
  162OSM    C1F18235   6.668   4.199   5.931  0.3647  0.3870  0.0223
  162OSM     OF18236   6.586   4.266   5.872  0.3036 -0.2531  0.1444
  162OSM    C2F18237   6.799   4.250   5.986 -0.1230 -0.2845  0.2289
  162OSM    H2F18238   6.881   4.206   5.925 -1.1020 -2.0064  0.0688
  162OSM    H2G18239   6.819   4.222   6.092 -0.8468  1.7727  0.9413
  162OSM    C3F18240   6.812   4.406   5.979 -0.0014 -0.1009  0.0651
  162OSM    H3F18241   6.818   4.434   5.871  1.0477 -1.9463 -0.3936
  162OSM    H3G18242   6.912   4.425   6.023 -0.1041 -2.9967  1.7491
  162OSM    C4F18243   6.703   4.478   6.056  0.3337 -0.3568 -0.2466
  162OSM    H4F18244   6.721   4.436   6.157  0.0146  1.3517  0.5559
  162OSM    H4G18245   6.600   4.462   6.015 -1.0277 -0.9611  3.0770
  162OSM    C5F18246   6.736   4.634   6.064  0.4484  0.3557  0.1174
  162OSM    H5F18247   6.739   4.681   5.963  1.7856  0.9722  0.4330
  162OSM    H5G18248   6.838   4.629   6.106  1.4765 -0.1797 -2.2920
  162OSM    C6F18249   6.640   4.719   6.149  0.8603  0.0731 -0.0388
  162OSM    H6F18250   6.540   4.700   6.105  0.8787  0.8088 -0.4039
  162OSM    H6G18251   6.659   4.828   6.147  1.1946  0.2846  4.3972
  162OSM    C7F18252   6.623   4.686   6.302  0.6398 -0.0516  0.0364
  162OSM    H7F18253   6.718   4.670   6.357  0.7422  0.2855 -0.0375
  162OSM    H7G18254   6.574   4.590   6.328  0.1386  0.2650  0.2828
  162OSM    C8F18255   6.548   4.793   6.373  0.0054 -0.0341  0.2398
  162OSM    H8F18256   6.607   4.882   6.341  1.5414 -0.9201  0.5405
  162OSM    H8G18257   6.571   4.769   6.479  1.3563 -1.9665 -0.4334
  162OSM    C9F18258   6.399   4.808   6.333 -0.3891  0.5760 -0.1275
  162OSM    H9F18259   6.377   4.863   6.240 -0.2616  0.9271  0.0479
  162OSM   C10F18260   6.291   4.790   6.405  0.6083 -0.4636 -0.0597
  162OSM   H10F18261   6.193   4.820   6.367  1.3610  0.2183 -1.5467
  162OSM   C11F18262   6.289   4.718   6.537  0.7174  0.4609  0.0186
  162OSM   H11F18263   6.380   4.665   6.573  0.7424 -0.5805 -1.4773
  162OSM   H11G18264   6.208   4.641   6.535  0.3594  0.7928  1.0703
  162OSM   C12F18265   6.261   4.825   6.644 -0.3974  0.4577  0.5339
  162OSM   H12F18266   6.166   4.877   6.619  1.1875  2.0825 -2.8362
  162OSM   H12G18267   6.347   4.896   6.646 -1.5756  1.9425  0.3063
  162OSM   C13F18268   6.241   4.767   6.785 -0.1624  0.6259  0.7547
  162OSM   H13F18269   6.316   4.686   6.800 -2.9407 -2.3184 -0.0225
  162OSM   H13G18270   6.139   4.724   6.799 -0.6941  1.3253 -0.7390
  162OSM   C14F18271   6.257   4.868   6.899 -0.1530 -0.3438 -0.0022
  162OSM   H14F18272   6.225   4.970   6.869  3.4589  0.5785 -1.1109
  162OSM   H14G18273   6.367   4.870   6.912  0.1762 -1.9826 -2.0534
  162OSM   C15F18274   6.195   4.824   7.034  0.1942  0.1296  0.5171
  162OSM   H15F18275   6.257   4.741   7.072  0.4053  0.0293 -0.0360
  162OSM   H15G18276   6.094   4.780   7.020 -0.6625  1.6389  1.6478
  162OSM   C16F18277   6.171   4.942   7.127  0.0442  0.1454 -0.0839
  162OSM   H16F18278   6.088   4.998   7.080  1.2891  1.2180 -1.0464
  162OSM   H16G18279   6.254   5.015   7.139 -0.9834  1.3230  0.0937
  162OSM   C17F18280   6.129   4.893   7.268 -0.5076  0.3834  1.0297
  162OSM   H17F18281   6.222   4.853   7.315  0.1294 -1.0185 -1.2121
  162OSM   H17G18282   6.069   4.804   7.239  1.9896 -1.1506  0.1173
  162OSM   C18F18283   6.049   4.983   7.360 -0.5904  0.3380 -0.0367
  162OSM   H18F18284   5.956   5.019   7.311  0.6294 -0.6912 -3.3908
  162OSM   H18G18285   6.106   5.075   7.387 -1.1969  0.6846  0.0942
  162OSM   H18H18286   6.025   4.935   7.457  2.6536 -1.1730  0.1617
  163OSM      N18287   6.264   3.961   5.081  0.3853 -0.0248 -0.8917
  163OSM    C1518288   6.111   3.957   5.077  0.3455 -0.1733  0.9319
  163OSM   H15A18289   6.081   3.899   5.162  0.9298 -0.6743  0.8045
  163OSM   H15B18290   6.068   3.910   4.990  0.0314  0.9621  0.4464
  163OSM   H15C18291   6.075   4.059   5.072 -0.5336 -0.5182 -2.4533
  163OSM    C1418292   6.325   3.996   5.214  0.6213 -0.4511 -0.7846
  163OSM   H14A18293   6.432   3.982   5.218  0.9111  1.4900 -0.9321
  163OSM   H14B18294   6.287   3.939   5.298  2.6390  0.0640  0.5616
  163OSM   H14C18295   6.307   4.101   5.230  0.6588 -0.4507 -0.7418
  163OSM    C1318296   6.308   3.824   5.045  0.1070 -0.9518  0.5082
  163OSM   H13A18297   6.254   3.752   5.105 -0.5043 -0.2551  0.8120
  163OSM   H13B18298   6.413   3.805   5.066  0.5792  0.3013 -0.5859
  163OSM   H13C18299   6.284   3.794   4.945 -0.8208 -1.6323  0.9246
  163OSM    C1218300   6.307   4.066   4.975 -0.0625 -0.0733  0.3614
  163OSM   H12A18301   6.266   4.027   4.883 -0.9100 -1.4384  1.2734
  163OSM   H12B18302   6.414   4.063   4.973  0.0019  0.7334  1.4484
  163OSM    C1118303   6.266   4.211   4.976  0.0297 -0.3236 -0.7259
  163OSM   H11A18304   6.273   4.246   4.871  0.7861 -2.4545 -1.4412
  163OSM   H11B18305   6.341   4.265   5.037 -0.6267  0.0358 -0.2354
  163OSM      P18306   6.087   4.392   5.031  0.1816  0.1355  0.1996
  163OSM    O1318307   6.199   4.491   5.024  0.3270  0.5843 -0.2113
  163OSM    O1418308   5.969   4.414   4.942  0.2387  0.2634  0.0046
  163OSM    O1118309   6.037   4.402   5.177  0.2582  0.7058  0.8213
  163OSM    O1218310   6.132   4.240   5.021 -0.2983  0.5297  0.5154
  163OSM    C1S18311   6.127   4.374   5.274 -0.0612 -1.1065  0.1601
  163OSM    H1S18312   6.181   4.467   5.303 -0.1231 -1.2622  0.7878
  163OSM    H1T18313   6.202   4.299   5.241 -0.1774 -1.2017  0.1166
  163OSM     NF18314   6.156   4.308   5.507  0.1179  0.1202 -1.0926
  163OSM    HNF18315   6.190   4.218   5.534 -0.7378 -0.2017 -1.0728
  163OSM    C2S18316   6.055   4.317   5.402 -0.0386 -0.5325  0.4504
  163OSM    H2S18317   5.982   4.395   5.435  1.0705 -0.1140  2.0481
  163OSM    C3S18318   5.981   4.187   5.378 -0.1636  0.7675  0.3705
  163OSM    H3S18319   6.056   4.111   5.348 -0.2609  1.1880 -1.0051
  163OSM     O318320   5.886   4.182   5.276 -0.3081  0.5261 -0.4752
  163OSM    HO318321   5.904   4.251   5.211  0.0979 -0.6194 -1.6383
  163OSM    C4S18322   5.917   4.139   5.504  0.1356 -0.4894  0.0591
  163OSM    H4S18323   5.965   4.048   5.543  0.5848  0.2383  1.2713
  163OSM    C5S18324   5.804   4.187   5.558 -0.3406  0.7910 -0.2320
  163OSM    H5S18325   5.757   4.272   5.506 -0.4318  0.1319 -1.2477
  163OSM    C6S18326   5.736   4.124   5.679  0.4576 -0.3576  0.3210
  163OSM    H6S18327   5.779   4.022   5.691  2.5118  0.6112  1.9070
  163OSM    H6T18328   5.626   4.126   5.668  0.5302 -0.0313 -0.3997
  163OSM    C7S18329   5.771   4.187   5.809  1.2106 -0.4648 -0.0420
  163OSM    H7S18330   5.875   4.149   5.822  2.2666  1.9358 -0.9085
  163OSM    H7T18331   5.700   4.160   5.889  1.4032  1.6289  0.8866
  163OSM    C8S18332   5.782   4.336   5.811 -0.1498  0.6200  0.6152
  163OSM    H8S18333   5.687   4.371   5.765 -0.4642 -0.2101  0.6224
  163OSM    H8T18334   5.864   4.365   5.741 -0.3200 -0.3137  0.0193
  163OSM    C9S18335   5.803   4.398   5.946 -0.7808 -0.2806  0.3483
  163OSM    H9S18336   5.895   4.355   5.992  0.9548  0.1243 -2.4573
  163OSM    H9T18337   5.710   4.385   6.005 -0.1854 -1.8863  0.9703
  163OSM   C10S18338   5.820   4.552   5.924  0.2669  0.1320 -0.1438
  163OSM   H10S18339   5.733   4.586   5.864 -1.1704  1.3391  2.4626
  163OSM   H10T18340   5.911   4.569   5.863  0.3788 -1.7694 -0.5670
  163OSM   C11S18341   5.805   4.629   6.055 -0.3244 -0.9505 -0.6264
  163OSM   H11S18342   5.714   4.597   6.110  0.4310 -1.1064  0.5810
  163OSM   H11T18343   5.800   4.739   6.038  0.2001 -1.0788 -1.7073
  163OSM   C12S18344   5.929   4.595   6.137 -0.2924  0.4127 -0.3784
  163OSM   H12S18345   6.023   4.603   6.078 -1.2409 -0.8711 -2.1667
  163OSM   H12T18346   5.927   4.487   6.163 -1.2931  1.2158  3.5108
  163OSM   C13S18347   5.948   4.692   6.257 -0.4503  0.3441  0.2034
  163OSM   H13S18348   5.982   4.792   6.223  0.0191 -0.0377 -0.4813
  163OSM   H13T18349   6.036   4.650   6.311 -0.0347 -1.6722 -1.8454
  163OSM   C14S18350   5.831   4.705   6.356  0.0222  0.1386 -0.4215
  163OSM   H14S18351   5.778   4.608   6.369  0.3592 -0.2830 -1.9795
  163OSM   H14T18352   5.757   4.778   6.316  0.7475  0.7097 -0.7363
  163OSM   C15S18353   5.889   4.753   6.497  0.1180  0.1245  0.1726
  163OSM   H15S18354   5.937   4.852   6.487  0.8552 -0.1392  0.9354
  163OSM   H15T18355   5.965   4.683   6.538 -1.1387 -0.7722  1.0677
  163OSM   C16S18356   5.785   4.768   6.600 -0.0253 -0.4425  0.4124
  163OSM   H16S18357   5.710   4.686   6.595 -1.8681  1.2326 -0.4095
  163OSM   H16T18358   5.722   4.856   6.578  2.6420  1.3528 -0.5035
  163OSM   C17S18359   5.851   4.789   6.736 -0.3549 -0.5015 -0.7898
  163OSM   H17S18360   5.934   4.864   6.728 -1.3709  1.1592  2.4356
  163OSM   H17T18361   5.902   4.697   6.771  0.1638  0.1994  0.3649
  163OSM   C18S18362   5.758   4.864   6.832  0.2755 -1.1112 -0.6648
  163OSM   H18S18363   5.802   4.890   6.931 -1.2390  0.4267 -0.3366
  163OSM   H18T18364   5.659   4.820   6.857 -0.4429  1.5910  1.9518
  163OSM   H18U18365   5.736   4.966   6.792 -0.3832 -0.8356  0.3623
  163OSM    C1F18366   6.199   4.411   5.581  0.3721  0.0792  0.8178
  163OSM     OF18367   6.178   4.528   5.552  0.0719  0.3173 -0.1456
  163OSM    C2F18368   6.268   4.365   5.707  0.1834 -0.1009 -0.6288
  163OSM    H2F18369   6.377   4.381   5.693  0.2566 -0.9835 -1.2030
  163OSM    H2G18370   6.259   4.255   5.725 -3.9337  0.3197  1.0269
  163OSM    C3F18371   6.224   4.440   5.834 -0.3444  0.5727 -0.7831
  163OSM    H3F18372   6.124   4.406   5.868  0.2743 -0.1021  0.4293
  163OSM    H3G18373   6.229   4.547   5.806  1.7718  0.6103 -0.4118
  163OSM    C4F18374   6.313   4.406   5.955 -0.2340 -0.1145 -0.0203
  163OSM    H4F18375   6.410   4.459   5.945 -0.9914  1.1935 -0.6761
  163OSM    H4G18376   6.338   4.298   5.947 -0.1499 -0.0074 -1.3651
  163OSM    C5F18377   6.244   4.433   6.092 -0.7444 -0.0930  0.0030
  163OSM    H5F18378   6.167   4.354   6.107  1.5258 -2.7281 -1.2149
  163OSM    H5G18379   6.205   4.536   6.101 -1.0271 -0.2098  0.1294
  163OSM    C6F18380   6.335   4.395   6.210 -0.0115 -0.3689 -0.4682
  163OSM    H6F18381   6.278   4.402   6.305  1.8190 -2.3791  0.8901
  163OSM    H6G18382   6.426   4.459   6.216 -1.4022  1.5588  0.8953
  163OSM    C7F18383   6.368   4.243   6.219  0.6324  0.4363 -0.2844
  163OSM    H7F18384   6.432   4.211   6.134 -0.3993  1.4819 -1.4838
  163OSM    H7G18385   6.270   4.192   6.213  0.0277  1.1742  2.2507
  163OSM    C8F18386   6.443   4.201   6.351  0.4556 -0.1228 -0.1876
  163OSM    H8F18387   6.415   4.094   6.351  1.4459 -0.4052  1.1449
  163OSM    H8G18388   6.383   4.243   6.435 -0.7864  0.9419 -1.5412
  163OSM    C9F18389   6.591   4.225   6.355  0.2574 -0.0583  0.0049
  163OSM    H9F18390   6.645   4.211   6.261  1.6920 -0.8843  0.9108
  163OSM   C10F18391   6.662   4.284   6.456 -0.2669  0.1332  0.0154
  163OSM   H10F18392   6.770   4.291   6.435 -0.6469  2.0087 -1.6492
  163OSM   C11F18393   6.611   4.343   6.587 -0.0522 -0.4769 -0.0914
  163OSM   H11F18394   6.610   4.271   6.671 -0.4176 -0.5308 -0.1420
  163OSM   H11G18395   6.503   4.367   6.580 -0.5106 -1.6269  2.2036
  163OSM   C12F18396   6.695   4.462   6.614 -0.0400  0.8117 -0.6267
  163OSM   H12F18397   6.708   4.517   6.518  0.1304  1.4881 -0.2210
  163OSM   H12G18398   6.795   4.436   6.654 -0.3654 -0.2628 -0.4661
  163OSM   C13F18399   6.638   4.562   6.727  0.0043  0.1076 -0.6041
  163OSM   H13F18400   6.632   4.497   6.817 -1.0344  0.3379 -0.4902
  163OSM   H13G18401   6.530   4.572   6.703 -0.5604 -1.9850  0.7727
  163OSM   C14F18402   6.718   4.696   6.735 -0.1757  0.1126 -0.2261
  163OSM   H14F18403   6.692   4.745   6.639 -0.1432  1.7581  0.5606
  163OSM   H14G18404   6.826   4.675   6.730 -0.3822 -1.0026 -0.1903
  163OSM   C15F18405   6.688   4.777   6.865  0.8350 -0.5572 -0.6062
  163OSM   H15F18406   6.585   4.820   6.866  1.2309  0.4002 -0.1276
  163OSM   H15G18407   6.759   4.862   6.866  1.3769 -0.9921 -1.4488
  163OSM   C16F18408   6.709   4.705   6.998 -0.3956 -0.3628 -0.4330
  163OSM   H16F18409   6.816   4.677   6.994 -0.7152 -1.6101 -0.7182
  163OSM   H16G18410   6.644   4.614   7.007 -1.0339  0.0068 -1.2031
  163OSM   C17F18411   6.670   4.794   7.124  0.2288  0.3132 -0.2255
  163OSM   H17F18412   6.626   4.881   7.071  1.6688  0.2081 -1.6649
  163OSM   H17G18413   6.762   4.820   7.181 -1.3320  3.2416  1.1883
  163OSM   C18F18414   6.567   4.724   7.218 -0.8785 -1.1794  0.4347
  163OSM   H18F18415   6.617   4.636   7.263  0.4729 -0.1152  1.0770
  163OSM   H18G18416   6.477   4.692   7.161 -0.7284 -1.6129  0.4346
  163OSM   H18H18417   6.534   4.792   7.300  1.1713 -1.9503  1.9871
  164OSM      N18418   0.847   4.158   4.745  0.2985 -0.2343 -0.3349
  164OSM    C1518419   0.726   4.241   4.769  0.5421 -0.2015 -0.1653
  164OSM   H15A18420   0.701   4.295   4.679 -1.8339 -2.0888 -0.7480
  164OSM   H15B18421   0.742   4.308   4.853  1.2146 -0.8682  0.2511
  164OSM   H15C18422   0.637   4.182   4.790 -0.3876  1.1370 -0.1702
  164OSM    C1418423   0.875   4.087   4.871 -0.1304  0.4912 -0.2985
  164OSM   H14A18424   0.799   4.018   4.904  0.8675 -0.1968  0.6058
  164OSM   H14B18425   0.889   4.158   4.951  1.0165 -0.1701  0.1104
  164OSM   H14C18426   0.966   4.033   4.850 -1.1049 -0.8858 -1.1492
  164OSM    C1318427   0.829   4.060   4.631  0.7676  0.2914  0.6795
  164OSM   H13A18428   0.815   4.116   4.539  2.1467 -0.3644  0.0413
  164OSM   H13B18429   0.742   3.998   4.646  1.8459 -1.6512 -0.7007
  164OSM   H13C18430   0.911   3.996   4.604  0.2038  0.6125 -2.1052
  164OSM    C1218431   0.968   4.245   4.703  0.4246 -0.1602  0.0510
  164OSM   H12A18432   0.993   4.307   4.789  0.5259  0.1256 -0.1824
  164OSM   H12B18433   0.939   4.316   4.627  1.9550  0.6040  0.1519
  164OSM    C1118434   1.110   4.177   4.673 -0.0015 -0.6969  0.2203
  164OSM   H11A18435   1.183   4.259   4.686  0.2365 -0.7985 -0.4508
  164OSM   H11B18436   1.106   4.133   4.571  1.6929  1.2342 -0.7343
  164OSM      P18437   1.279   4.007   4.764  0.2978 -0.4730  0.2746
  164OSM    O1318438   1.267   3.873   4.700  0.2651 -0.1519  0.4491
  164OSM    O1418439   1.386   4.100   4.714  0.8815  0.0790  0.1373
  164OSM    O1118440   1.307   3.992   4.919 -0.1478 -0.3004 -0.0592
  164OSM    O1218441   1.137   4.072   4.760 -0.1989  0.2625 -0.2697
  164OSM    C1S18442   1.221   4.037   5.022 -0.0092  0.0903 -1.0091
  164OSM    H1S18443   1.138   3.965   5.035  1.7710 -1.7143  1.0955
  164OSM    H1T18444   1.175   4.137   5.005  1.2632  0.7147 -0.9172
  164OSM     NF18445   1.206   4.051   5.277 -0.2966  0.7159 -0.4298
  164OSM    HNF18446   1.213   4.130   5.336 -1.4880  0.0418  0.6621
  164OSM    C2S18447   1.294   4.046   5.160 -0.2621  0.3835  0.3740
  164OSM    H2S18448   1.361   3.958   5.173 -0.8055  0.2111  2.3761
  164OSM    C3S18449   1.392   4.163   5.159  0.2100 -0.3186  0.0321
  164OSM    H3S18450   1.341   4.258   5.134 -0.7119 -0.9451 -0.5234
  164OSM     O318451   1.483   4.148   5.046 -0.5156  0.5596  0.0131
  164OSM    HO318452   1.445   4.073   4.999  1.2969  0.7863 -1.9806
  164OSM    C4S18453   1.454   4.179   5.299  0.2471 -0.2171  0.9615
  164OSM    H4S18454   1.403   4.243   5.373  2.1017 -0.6155  2.6806
  164OSM    C5S18455   1.570   4.124   5.345 -0.3676  0.1066 -0.3252
  164OSM    H5S18456   1.631   4.051   5.290 -1.8771 -2.6002  1.4082
  164OSM    C6S18457   1.632   4.149   5.483 -0.0561 -0.0089 -0.1956
  164OSM    H6S18458   1.630   4.258   5.504  0.6426 -0.1694  0.8065
  164OSM    H6T18459   1.735   4.108   5.483 -0.2402 -0.4656 -0.5873
  164OSM    C7S18460   1.557   4.077   5.591 -0.2558 -0.1997 -0.2669
  164OSM    H7S18461   1.563   3.968   5.567 -1.0821 -0.4424  0.5584
  164OSM    H7T18462   1.450   4.108   5.585 -0.0127  0.4635 -1.6803
  164OSM    C8S18463   1.614   4.098   5.730 -0.3888 -0.2514  0.3084
  164OSM    H8S18464   1.613   4.207   5.752 -1.4432 -0.3383  0.7197
  164OSM    H8T18465   1.719   4.060   5.731 -0.9545 -1.9941 -0.8691
  164OSM    C9S18466   1.538   4.016   5.827 -0.5877 -0.4033  0.0440
  164OSM    H9S18467   1.539   3.911   5.791  0.3757 -0.7368  0.9710
  164OSM    H9T18468   1.443   4.072   5.839  0.2297  1.0120  0.1126
  164OSM   C10S18469   1.601   4.009   5.967  0.0837  0.2524 -0.2337
  164OSM   H10S18470   1.677   3.928   5.965  0.4719  0.6130 -2.1062
  164OSM   H10T18471   1.525   3.985   6.045  1.5033  1.4223  1.6031
  164OSM   C11S18472   1.675   4.134   6.024  0.3822  0.2990 -0.1980
  164OSM   H11S18473   1.612   4.225   6.016  0.7683  0.4337 -2.2060
  164OSM   H11T18474   1.771   4.152   5.971  1.4155 -1.4926  0.9385
  164OSM   C12S18475   1.724   4.108   6.164  0.2616  0.8824  0.3970
  164OSM   H12S18476   1.823   4.156   6.182  1.4244 -1.9759  2.4253
  164OSM   H12T18477   1.764   4.005   6.181  0.7112  0.8966 -0.5314
  164OSM   C13S18478   1.614   4.130   6.267 -0.1227 -0.4874  0.5607
  164OSM   H13S18479   1.521   4.082   6.230 -0.9462 -0.0166  1.9668
  164OSM   H13T18480   1.598   4.240   6.264  0.8893 -0.2908  1.6735
  164OSM   C14S18481   1.651   4.102   6.420 -0.6700 -0.5915 -0.3437
  164OSM   H14S18482   1.755   4.135   6.440 -0.0960 -0.4731 -3.1250
  164OSM   H14T18483   1.641   3.992   6.435  0.6851 -1.0585 -2.3212
  164OSM   C15S18484   1.554   4.158   6.520  0.3695 -0.7073  0.2082
  164OSM   H15S18485   1.452   4.117   6.508 -0.7466  1.6031  1.3112
  164OSM   H15T18486   1.558   4.268   6.510 -0.5996 -0.5470  1.3657
  164OSM   C16S18487   1.591   4.134   6.667 -0.9801  0.2428  0.4526
  164OSM   H16S18488   1.696   4.162   6.689 -1.1459  3.1978 -1.8400
  164OSM   H16T18489   1.591   4.023   6.671  3.3726  0.0477 -0.1204
  164OSM   C17S18490   1.504   4.199   6.767  0.1763 -0.4135  0.3047
  164OSM   H17S18491   1.398   4.170   6.754  0.4603 -0.7312 -1.6065
  164OSM   H17T18492   1.504   4.310   6.759  0.4335 -0.5308 -1.5662
  164OSM   C18S18493   1.544   4.158   6.905  0.5327 -1.1799  0.1297
  164OSM   H18S18494   1.642   4.198   6.939  0.7841 -0.1294 -1.7218
  164OSM   H18T18495   1.561   4.048   6.910 -1.8263 -1.5543  1.6676
  164OSM   H18U18496   1.476   4.183   6.990  1.6288  0.5058  0.5516
  164OSM    C1F18497   1.131   3.951   5.305  0.6914 -0.1483  0.3236
  164OSM     OF18498   1.156   3.843   5.245  0.5213  0.1545  0.0762
  164OSM    C2F18499   1.025   3.978   5.410  0.5940 -0.5343  0.3848
  164OSM    H2F18500   0.945   4.045   5.370 -0.2840 -2.0600 -0.5465
  164OSM    H2G18501   1.073   4.034   5.493  2.6269  1.9430 -2.2605
  164OSM    C3F18502   0.951   3.854   5.464  0.1238 -0.5277 -0.0263
  164OSM    H3F18503   0.903   3.805   5.377 -1.2973 -0.6524  0.8047
  164OSM    H3G18504   0.867   3.884   5.529 -1.4225 -2.0371 -1.2367
  164OSM    C4F18505   1.049   3.766   5.539  0.1752 -0.0546  0.5266
  164OSM    H4F18506   1.126   3.720   5.474 -0.4461 -0.1606 -0.1587
  164OSM    H4G18507   0.979   3.688   5.576 -0.6315  0.6774  0.5876
  164OSM    C5F18508   1.101   3.839   5.663  0.4094 -0.3237 -0.0351
  164OSM    H5F18509   1.033   3.924   5.688  1.6359  1.2868 -1.8314
  164OSM    H5G18510   1.200   3.882   5.640  0.2919  0.1582  0.3436
  164OSM    C6F18511   1.128   3.762   5.791  0.3100  0.5858  0.0255
  164OSM    H6F18512   1.205   3.686   5.766  1.4284  1.7849 -0.3031
  164OSM    H6G18513   1.031   3.723   5.828 -0.9455  3.2281 -0.2107
  164OSM    C7F18514   1.184   3.860   5.898 -0.0007 -0.0436  0.0024
  164OSM    H7F18515   1.117   3.948   5.904 -0.4797 -0.0502 -3.3725
  164OSM    H7G18516   1.276   3.910   5.861 -0.8424  0.6519 -1.2242
  164OSM    C8F18517   1.221   3.788   6.029  0.3737 -0.2080  0.0666
  164OSM    H8F18518   1.287   3.700   6.017  0.0754 -0.5012  0.5496
  164OSM    H8G18519   1.122   3.747   6.056  0.4730 -0.3744  0.1734
  164OSM    C9F18520   1.262   3.882   6.145  0.2516 -0.0883 -0.2935
  164OSM    H9F18521   1.300   3.979   6.109  0.7796  0.2637  1.1533
  164OSM   C10F18522   1.255   3.861   6.276 -0.5514 -0.0193 -0.1999
  164OSM   H10F18523   1.281   3.947   6.340 -2.5399  0.3888  0.1414
  164OSM   C11F18524   1.206   3.736   6.341  0.6967  0.5390  0.3823
  164OSM   H11F18525   1.291   3.679   6.383  0.2917 -1.6980 -1.6014
  164OSM   H11G18526   1.165   3.666   6.265  0.4253 -1.6832  2.4830
  164OSM   C12F18527   1.098   3.765   6.450 -0.8036  0.0828 -0.2571
  164OSM   H12F18528   1.035   3.674   6.449  0.5044 -0.9314  2.0826
  164OSM   H12G18529   1.031   3.846   6.414  2.6396  3.0249 -0.6346
  164OSM   C13F18530   1.156   3.815   6.586  0.3330  0.2062  0.3122
  164OSM   H13F18531   1.191   3.921   6.585 -0.4256  0.4656 -0.7450
  164OSM   H13G18532   1.219   3.729   6.618 -0.3057  0.3963  2.1933
  164OSM   C14F18533   1.047   3.809   6.692 -0.4533  0.3616 -0.8847
  164OSM   H14F18534   1.024   3.703   6.717  1.2801  0.0459 -0.4754
  164OSM   H14G18535   0.963   3.870   6.653  1.2184  3.5773  0.1730
  164OSM   C15F18536   1.080   3.875   6.825 -1.2641  0.0209  0.3074
  164OSM   H15F18537   0.984   3.883   6.880 -0.7218  0.2175  1.2577
  164OSM   H15G18538   1.128   3.973   6.802  1.7244 -1.6020 -0.9044
  164OSM   C16F18539   1.184   3.792   6.905 -0.3159  0.4138  0.0192
  164OSM   H16F18540   1.264   3.787   6.828 -0.1254  1.9685  0.0963
  164OSM   H16G18541   1.134   3.693   6.914 -0.0099  0.1443 -1.0689
  164OSM   C17F18542   1.221   3.854   7.037 -0.2527 -0.0656 -0.1056
  164OSM   H17F18543   1.231   3.964   7.027 -0.1718  0.0997  1.4374
  164OSM   H17G18544   1.326   3.828   7.062 -0.2658 -0.3360 -0.3299
  164OSM   C18F18545   1.125   3.813   7.148 -0.6312  0.1352  0.5642
  164OSM   H18F18546   1.135   3.704   7.165 -1.4947 -0.2431 -1.1891
  164OSM   H18G18547   1.024   3.831   7.106 -0.5975 -3.0008 -1.1441
  164OSM   H18H18548   1.146   3.874   7.239  2.3244 -0.9411  0.6972
  165SAPS     N18549   1.984   1.071   0.904 -0.1205  0.1195 -0.2647
  165SAPS   HN118550   2.028   0.988   0.948  0.0033  1.3217  2.0351
  165SAPS   HN218551   2.060   1.108   0.844  0.1492  2.4807  1.4020
  165SAPS   HN318552   1.973   1.152   0.968  0.1702  0.3188 -0.4649
  165SAPS   C1218553   1.860   1.054   0.828 -0.5457 -0.2178  0.3556
  165SAPS  H12A18554   1.784   1.021   0.898 -0.1255  1.0091  1.4487
  165SAPS   C1318555   1.794   1.184   0.779  0.1641 -0.1429 -0.2775
  165SAPS  O13A18556   1.835   1.291   0.826  0.3073 -0.3295 -0.5934
  165SAPS  O13B18557   1.702   1.183   0.696  0.8074  0.0129 -0.3300
  165SAPS   C1118558   1.897   0.962   0.708  0.2174  0.0682  0.0706
  165SAPS  H11A18559   1.977   1.015   0.651  0.5804  0.4661  0.9222
  165SAPS  H11B18560   1.810   0.955   0.640  0.1423  1.4789 -0.0129
  165SAPS     P18561   1.887   0.696   0.759  0.1560  0.2371  0.3740
  165SAPS   O1318562   1.978   0.599   0.821  0.3946 -0.4950 -0.4722
  165SAPS   O1418563   1.755   0.709   0.825  0.5449  0.7958 -0.5061
  165SAPS   O1218564   1.956   0.833   0.750 -0.1129 -0.6618  0.2374
  165SAPS   O1118565   1.872   0.671   0.603 -0.3067  0.0207 -0.0206
  165SAPS    C118566   1.959   0.713   0.493 -0.3310  0.1921 -0.3692
  165SAPS    HA18567   1.992   0.819   0.501  1.4659 -0.2985 -0.7735
  165SAPS    HB18568   2.053   0.654   0.497 -0.8640 -0.7577 -1.5018
  165SAPS    C218569   1.891   0.682   0.360 -0.0946  0.6601  0.0416
  165SAPS    HS18570   1.880   0.573   0.343  0.6767  0.4244  1.0141
  165SAPS   O2118571   1.962   0.732   0.242 -0.7354 -0.5162  0.2933
  165SAPS   C2118572   2.086   0.687   0.221  0.2401  0.5236  0.1749
  165SAPS   O2218573   2.145   0.604   0.284  0.2408  0.4124 -0.3147
  165SAPS   C2218574   2.137   0.738   0.091  0.0667  0.7834 -0.7307
  165SAPS   H2R18575   2.053   0.735   0.018  0.5533 -0.4830 -1.2576
  165SAPS   H2S18576   2.195   0.833   0.096  0.1577  0.7217 -0.6169
  165SAPS    C318577   1.747   0.733   0.347  0.0976 -0.4506 -0.0382
  165SAPS    HX18578   1.749   0.840   0.379 -1.9907 -0.6163  0.8117
  165SAPS    HY18579   1.679   0.688   0.422  0.7033 -0.2012  0.6767
  165SAPS   O3118580   1.697   0.715   0.219 -0.1275 -0.0079 -0.0285
  165SAPS   C3118581   1.673   0.594   0.168  0.2869  0.3376  0.2701
  165SAPS   O3218582   1.678   0.488   0.231 -0.0313  0.7310 -0.1548
  165SAPS   C3218583   1.632   0.611   0.026 -0.0171  0.4505  0.4100
  165SAPS   H2X18584   1.604   0.717   0.013  1.4581  0.6746 -1.3961
  165SAPS   H2Y18585   1.547   0.541   0.009  1.2598 -0.9850 -0.2743
  165SAPS   C2318586   2.232   0.632   0.018  0.0884 -0.1938 -0.7438
  165SAPS   H3R18587   2.229   0.662  -0.089  2.2529 -2.6388 -1.5790
  165SAPS   H3S18588   2.195   0.530   0.042  0.5089  0.1198  1.4826
  165SAPS   C2418589   2.374   0.644   0.060  0.7123 -0.6065 -0.4825
  165SAPS   H4R18590   2.373   0.648   0.171 -1.1260 -1.8381 -0.4046
  165SAPS   H4S18591   2.397   0.747   0.027 -0.1316 -0.9044 -2.0977
  165SAPS   C2518592   2.464   0.546  -0.007  0.2332 -0.4161 -0.2438
  165SAPS   H5R18593   2.453   0.444   0.030  0.1718 -0.3917 -0.1959
  165SAPS   C2618594   2.523   0.567  -0.127 -0.2715 -0.6193 -0.6528
  165SAPS   H6R18595   2.575   0.491  -0.187  0.8402  0.2787 -0.8554
  165SAPS   C2718596   2.541   0.703  -0.188 -0.1844  0.0810  0.0752
  165SAPS   H7R18597   2.644   0.740  -0.207 -0.0316  1.1645  2.7113
  165SAPS   H7S18598   2.498   0.780  -0.121 -1.3907 -0.2983 -0.2435
  165SAPS   C2818599   2.451   0.720  -0.311  0.3493 -0.1091 -0.4492
  165SAPS   H8R18600   2.351   0.752  -0.279  1.4505  1.6997  1.3728
  165SAPS   C2918601   2.485   0.711  -0.443 -0.0131 -0.1708  0.5781
  165SAPS   H9R18602   2.406   0.721  -0.519  1.3698 -0.3927 -0.9241
  165SAPS  C21018603   2.622   0.686  -0.505  0.0112 -0.1901  0.7179
  165SAPS  H10R18604   2.626   0.580  -0.539  3.5327  0.5209 -1.5760
  165SAPS  H10S18605   2.695   0.688  -0.422  0.4633  0.2448  0.3174
  165SAPS  C21118606   2.668   0.777  -0.623 -0.4936  0.3517 -0.5524
  165SAPS  H11R18607   2.649   0.741  -0.725 -1.3288 -0.5424 -0.0989
  165SAPS  C21218608   2.749   0.884  -0.619 -0.1449 -0.2040  0.3184
  165SAPS  H12R18609   2.765   0.940  -0.713 -1.3523 -0.4652 -0.0685
  165SAPS  C21318610   2.791   0.964  -0.488 -0.2730 -0.2330  0.3920
  165SAPS  H13R18611   2.900   0.947  -0.475 -0.6606 -2.1336  1.5970
  165SAPS  H13S18612   2.751   0.916  -0.396 -3.5650  0.0760 -0.7683
  165SAPS  C21418613   2.769   1.118  -0.481 -0.0624 -0.2324 -0.2076
  165SAPS  H14R18614   2.715   1.161  -0.395  1.0318  3.4482 -1.1589
  165SAPS  C21518615   2.812   1.209  -0.570  0.2336 -0.2341 -0.2171
  165SAPS  H15R18616   2.775   1.311  -0.552 -0.5644 -0.8131  1.6263
  165SAPS  C21618617   2.885   1.196  -0.701  0.6631 -0.5619  0.0740
  165SAPS  H16R18618   2.938   1.100  -0.718  0.6181  0.0269 -4.6797
  165SAPS  H16S18619   2.964   1.274  -0.712 -2.4542  2.6907 -1.5047
  165SAPS  C21718620   2.797   1.218  -0.828  0.0916 -0.3312 -0.2574
  165SAPS  H17R18621   2.736   1.310  -0.815 -0.6076 -0.6836 -0.9641
  165SAPS  H17S18622   2.720   1.137  -0.830  1.3978 -1.7656  2.5418
  165SAPS  C21818623   2.870   1.213  -0.959  0.5050 -0.0730 -0.7500
  165SAPS  H18R18624   2.930   1.120  -0.966  1.7704  0.2445  3.5410
  165SAPS  H18S18625   2.943   1.297  -0.958  1.0324 -0.5161 -1.3392
  165SAPS  C21918626   2.769   1.211  -1.080 -0.2689  0.1187 -0.0733
  165SAPS  H19R18627   2.710   1.305  -1.083 -0.5946  0.0462  2.2639
  165SAPS  H19S18628   2.697   1.132  -1.048 -1.8058  1.6653  0.4568
  165SAPS  C22018629   2.846   1.189  -1.207 -0.5627 -0.0982  0.4577
  165SAPS  H20R18630   2.798   1.224  -1.301  0.9149  1.5889  0.2833
  165SAPS  H20S18631   2.881   1.084  -1.215 -0.6971 -0.0375 -1.7044
  165SAPS  H20T18632   2.936   1.253  -1.214 -1.8562  1.6452 -1.3814
  165SAPS   C3318633   1.760   0.581  -0.061  0.1749 -0.5522  0.5961
  165SAPS   H3X18634   1.758   0.471  -0.080 -0.6592 -0.6366  1.1253
  165SAPS   H3Y18635   1.857   0.603  -0.011  0.0540 -0.3075  0.7219
  165SAPS   C3418636   1.762   0.665  -0.195 -0.4923  0.1316 -0.2558
  165SAPS   H4X18637   1.770   0.771  -0.161 -0.2777 -0.3526  1.2978
  165SAPS   H4Y18638   1.671   0.641  -0.253 -0.2801 -0.3693 -0.3865
  165SAPS   C3518639   1.876   0.633  -0.289 -0.0761  0.3986 -0.0380
  165SAPS   H5X18640   1.850   0.550  -0.358  0.6654  0.3929 -0.3217
  165SAPS   H5Y18641   1.966   0.602  -0.231 -0.3739 -1.0141 -0.3008
  165SAPS   C3618642   1.910   0.759  -0.370  0.1840  0.2949  0.1008
  165SAPS   H6X18643   1.928   0.848  -0.306  3.2480 -1.0086  1.2276
  165SAPS   H6Y18644   1.815   0.783  -0.424 -0.3659 -1.5178  0.1775
  165SAPS   C3718645   2.039   0.759  -0.455 -0.0087 -0.2293  0.5156
  165SAPS   H7X18646   2.125   0.707  -0.407 -1.2872 -0.1531  3.0680
  165SAPS   H7Y18647   2.078   0.862  -0.467 -1.3167  0.2802  0.4583
  165SAPS   C3818648   2.021   0.691  -0.592 -0.3919  0.2691  0.2770
  165SAPS   H8X18649   1.948   0.748  -0.653 -0.6586 -0.0482  0.2969
  165SAPS   H8Y18650   2.002   0.583  -0.571 -0.7754  0.5790  1.6089
  165SAPS   C3918651   2.153   0.683  -0.678  0.4135  0.0203  0.4702
  165SAPS   H9X18652   2.228   0.622  -0.624  1.0748  0.0359 -0.4190
  165SAPS   H9Y18653   2.187   0.789  -0.684 -3.3073  1.4918  1.8993
  165SAPS  C31018654   2.128   0.624  -0.812 -0.0710  0.5244 -0.4236
  165SAPS  H10X18655   2.109   0.514  -0.811  0.7950  0.3761  0.6496
  165SAPS  H10Y18656   2.223   0.645  -0.866  2.6953  1.6753  4.3488
  165SAPS  C31118657   2.002   0.671  -0.884  0.3295 -0.5790 -0.4228
  165SAPS  H11X18658   1.975   0.776  -0.860 -1.8466 -0.9807 -0.9678
  165SAPS  H11Y18659   1.918   0.611  -0.844  0.7186  0.0342  1.4389
  165SAPS  C31218660   2.002   0.654  -1.038 -0.1020  0.0457  0.1387
  165SAPS  H12X18661   1.902   0.672  -1.081  1.5132 -0.5576 -4.3171
  165SAPS  H12Y18662   2.033   0.549  -1.058  0.5537  0.4117 -0.8177
  165SAPS  C31318663   2.090   0.754  -1.111 -0.7502  0.2681  0.4721
  165SAPS  H13X18664   2.195   0.746  -1.078 -1.1051  1.1936  1.8746
  165SAPS  H13Y18665   2.048   0.855  -1.091  1.9418  0.9571  3.3377
  165SAPS  C31418666   2.103   0.724  -1.264  0.0397 -0.1698 -0.3002
  165SAPS  H14X18667   2.145   0.621  -1.271 -1.2866 -0.8315  0.7988
  165SAPS  H14Y18668   2.173   0.800  -1.305 -0.1322  0.2083  0.0946
  165SAPS  C31518669   1.973   0.732  -1.333  0.2532  0.1067  0.7398
  165SAPS  H15X18670   1.955   0.841  -1.333 -0.2035  0.0372  1.7948
  165SAPS  H15Y18671   1.883   0.688  -1.285 -0.0605 -0.1728 -0.0862
  165SAPS  C31618672   1.983   0.685  -1.485 -0.3314  0.2253 -0.3250
  165SAPS  H16X18673   2.010   0.577  -1.491 -1.6553 -0.0666 -1.3897
  165SAPS  H16Y18674   2.058   0.749  -1.536  0.3137 -0.0192  0.2866
  165SAPS  C31718675   1.849   0.700  -1.547  0.0028  0.8407  0.8365
  165SAPS  H17X18676   1.775   0.655  -1.478 -1.8468  0.0359 -1.5411
  165SAPS  H17Y18677   1.848   0.638  -1.639  0.6773 -0.4523  1.6724
  165SAPS  C31818678   1.809   0.837  -1.572  0.4533  0.7918 -0.3678
  165SAPS  H18X18679   1.874   0.883  -1.650 -0.1263 -0.3112 -1.5253
  165SAPS  H18Y18680   1.828   0.897  -1.480 -2.0424  0.0483  0.7276
  165SAPS  H18Z18681   1.706   0.846  -1.612  0.4800  1.3821 -0.3133
  166SAPS     N18682   1.445   6.181   0.522 -0.4381  0.0809  0.2932
  166SAPS   HN118683   1.381   6.251   0.480  1.3065  0.6721 -1.5463
  166SAPS   HN218684   1.517   6.233   0.577 -1.2099 -0.3667  1.7869
  166SAPS   HN318685   1.485   6.130   0.440 -0.3239 -4.2359  2.7204
  166SAPS   C1218686   1.380   6.083   0.614 -0.0511 -0.5871 -0.2347
  166SAPS  H12A18687   1.455   6.018   0.656 -0.8747 -1.3274  0.1117
  166SAPS   C1318688   1.301   6.151   0.735 -0.1146 -0.1251  0.0424
  166SAPS  O13A18689   1.289   6.275   0.738 -0.3024  0.1881  0.0898
  166SAPS  O13B18690   1.248   6.082   0.824 -0.1552  0.4203 -0.1961
  166SAPS   C1118691   1.297   5.981   0.536 -0.2274  0.2733 -0.4544
  166SAPS  H11A18692   1.220   6.044   0.486 -0.0668  0.3670 -0.5838
  166SAPS  H11B18693   1.240   5.920   0.610 -1.3512  4.1288  2.2313
  166SAPS     P18694   1.473   5.801   0.488 -0.1034  0.7381  0.0069
  166SAPS   O1318695   1.602   5.863   0.517 -0.1230 -0.0529  0.5375
  166SAPS   O1418696   1.403   5.731   0.592  0.3281 -0.1165  0.1235
  166SAPS   O1218697   1.377   5.917   0.433 -0.1763 -0.2142  0.7236
  166SAPS   O1118698   1.483   5.713   0.364  0.1305 -0.3935  0.0059
  166SAPS    C118699   1.367   5.678   0.278  0.1009  0.3625  0.2015
  166SAPS    HA18700   1.301   5.600   0.320 -1.1427  2.0932  1.6129
  166SAPS    HB18701   1.309   5.770   0.255  2.3699  1.2661 -2.6434
  166SAPS    C218702   1.397   5.633   0.134  0.2213 -0.2938  0.5085
  166SAPS    HS18703   1.295   5.634   0.090 -0.1210 -2.9427  1.0683
  166SAPS   O2118704   1.458   5.503   0.130 -0.3790  0.6699 -0.0817
  166SAPS   C2118705   1.377   5.396   0.140 -0.0756 -0.1468 -0.2851
  166SAPS   O2218706   1.255   5.402   0.146 -1.1694  0.3265 -0.0778
  166SAPS   C2218707   1.453   5.266   0.140  0.4852 -1.1382  0.4527
  166SAPS   H2R18708   1.540   5.275   0.071  0.1431  1.1691  0.2314
  166SAPS   H2S18709   1.490   5.235   0.241  2.0427  0.7291  0.5332
  166SAPS    C318710   1.487   5.734   0.056  0.2647  0.2960 -0.7503
  166SAPS    HX18711   1.592   5.696   0.056  0.8366  1.7607  0.4309
  166SAPS    HY18712   1.476   5.830   0.112  2.3214  0.1075  0.0576
  166SAPS   O3118713   1.449   5.743  -0.080  0.4026 -0.6554  0.0582
  166SAPS   C3118714   1.354   5.836  -0.112  0.3172 -0.0128 -0.1320
  166SAPS   O3218715   1.303   5.909  -0.029 -0.1918 -0.4718 -0.0823
  166SAPS   C3218716   1.337   5.831  -0.260  0.4401 -0.1880 -0.0171
  166SAPS   H2X18717   1.324   5.727  -0.295 -0.2181 -0.3380  0.6503
  166SAPS   H2Y18718   1.424   5.883  -0.305 -0.1682 -0.2044 -1.2327
  166SAPS   C2318719   1.373   5.139   0.093 -0.5364 -0.7523  0.1903
  166SAPS   H3R18720   1.273   5.139   0.141 -0.4329 -0.3238  0.4041
  166SAPS   H3S18721   1.425   5.055   0.144  2.3608  2.2267  2.5750
  166SAPS   C2418722   1.374   5.125  -0.057 -0.2009 -0.7837 -0.2988
  166SAPS   H4R18723   1.356   5.019  -0.083 -1.1745 -0.1867 -2.2643
  166SAPS   H4S18724   1.470   5.151  -0.105 -0.4131 -2.7620 -1.9335
  166SAPS   C2518725   1.255   5.208  -0.109  0.1268  0.1201 -0.3111
  166SAPS   H5R18726   1.160   5.195  -0.056  0.3632  1.5183  0.5219
  166SAPS   C2618727   1.257   5.301  -0.204 -0.6083 -0.2211  0.0242
  166SAPS   H6R18728   1.172   5.365  -0.232  0.6543  1.3176 -0.4952
  166SAPS   C2718729   1.378   5.329  -0.290 -0.0988 -0.1972  0.2516
  166SAPS   H7R18730   1.348   5.357  -0.394  0.2975 -0.5974  0.0226
  166SAPS   H7S18731   1.443   5.239  -0.302  1.8352  1.0836  0.6347
  166SAPS   C2818732   1.470   5.428  -0.236  0.0778  0.2142 -0.6494
  166SAPS   H8R18733   1.427   5.482  -0.151  0.6604  1.5020 -1.1418
  166SAPS   C2918734   1.578   5.487  -0.288 -0.6824  0.5285  0.2872
  166SAPS   H9R18735   1.629   5.566  -0.231  0.0571  0.3524 -0.1212
  166SAPS  C21018736   1.649   5.452  -0.420 -0.0655 -0.0160 -0.4957
  166SAPS  H10R18737   1.596   5.368  -0.471 -0.1079 -1.2336  1.4384
  166SAPS  H10S18738   1.751   5.408  -0.408  1.1273  2.3065 -1.4255
  166SAPS  C21118739   1.661   5.566  -0.509 -0.3943 -0.4530 -1.0027
  166SAPS  H11R18740   1.605   5.658  -0.489  2.0867  0.9389 -0.0110
  166SAPS  C21218741   1.712   5.561  -0.634  0.2131 -0.4678  0.7196
  166SAPS  H12R18742   1.718   5.651  -0.697  1.2489 -0.0305  1.4175
  166SAPS  C21318743   1.776   5.438  -0.702  0.1728  0.5167 -0.5894
  166SAPS  H13R18744   1.758   5.351  -0.634  0.2363  0.4284 -0.6838
  166SAPS  H13S18745   1.885   5.450  -0.718  0.1186  0.1393 -1.2901
  166SAPS  C21418746   1.704   5.413  -0.832  0.4016  0.2144 -0.5137
  166SAPS  H14R18747   1.602   5.374  -0.816  1.2496 -3.1444 -2.3246
  166SAPS  C21518748   1.734   5.438  -0.960 -0.8448 -0.0763 -0.1942
  166SAPS  H15R18749   1.660   5.407  -1.036 -0.9010 -1.6075  0.4336
  166SAPS  C21618750   1.871   5.504  -1.000  0.5024  1.5152 -0.4211
  166SAPS  H16R18751   1.947   5.519  -0.921  0.7758 -0.2039 -0.3292
  166SAPS  H16S18752   1.861   5.601  -1.052 -1.0417  0.6447 -1.8484
  166SAPS  C21718753   1.937   5.397  -1.099  0.8640  0.3601  0.4262
  166SAPS  H17R18754   1.961   5.303  -1.044  0.1095  0.1878  0.4739
  166SAPS  H17S18755   2.034   5.441  -1.127  1.5602 -1.6059 -0.4343
  166SAPS  C21818756   1.862   5.382  -1.230  0.2530 -0.1641  0.0372
  166SAPS  H18R18757   1.865   5.470  -1.298 -0.2087  0.5883  0.9690
  166SAPS  H18S18758   1.761   5.343  -1.209 -0.3719  0.8403 -1.0091
  166SAPS  C21918759   1.930   5.271  -1.321 -0.1520 -0.4763  0.1330
  166SAPS  H19R18760   1.908   5.168  -1.286 -1.8053 -0.8314 -1.7597
  166SAPS  H19S18761   2.041   5.275  -1.326 -0.0450 -1.5596  1.2244
  166SAPS  C22018762   1.865   5.262  -1.462  0.7182  0.4148 -0.3667
  166SAPS  H20R18763   1.902   5.165  -1.502  1.6725  0.6707 -0.1112
  166SAPS  H20S18764   1.905   5.340  -1.529 -0.2230  0.2473 -1.1567
  166SAPS  H20T18765   1.754   5.270  -1.453  0.8164  1.2860  0.1912
  166SAPS   C3318766   1.203   5.893  -0.312 -0.2334  0.5313 -0.1055
  166SAPS   H3X18767   1.220   6.003  -0.311  1.4132  0.3247  2.0741
  166SAPS   H3Y18768   1.121   5.877  -0.239  1.4013 -1.8219  1.3549
  166SAPS   C3418769   1.154   5.846  -0.452  0.1706 -0.5986 -0.3925
  166SAPS   H4X18770   1.086   5.925  -0.490 -1.2251 -1.6685 -0.1854
  166SAPS   H4Y18771   1.103   5.748  -0.445 -0.0579 -0.6043 -1.8282
  166SAPS   C3518772   1.271   5.828  -0.554 -0.8312 -0.0069  0.1163
  166SAPS   H5X18773   1.332   5.736  -0.543 -0.5023  0.0621 -0.9434
  166SAPS   H5Y18774   1.347   5.906  -0.533  0.6909 -1.6835  1.0872
  166SAPS   C3618775   1.233   5.831  -0.703  0.1655 -0.0740  0.1226
  166SAPS   H6X18776   1.186   5.925  -0.740  0.8709  0.5376  0.7474
  166SAPS   H6Y18777   1.158   5.752  -0.725 -0.3128  0.3763  0.1129
  166SAPS   C3718778   1.358   5.814  -0.781 -0.4764  0.4113 -0.1354
  166SAPS   H7X18779   1.413   5.727  -0.738 -1.4353 -0.9817 -1.5928
  166SAPS   H7Y18780   1.427   5.900  -0.790 -0.5538  0.7859  2.2809
  166SAPS   C3818781   1.325   5.785  -0.934  0.3759  0.8090 -0.6746
  166SAPS   H8X18782   1.270   5.877  -0.962  1.5720  2.3452  1.7478
  166SAPS   H8Y18783   1.273   5.687  -0.939  1.7028  0.1388 -2.8063
  166SAPS   C3918784   1.442   5.775  -1.029 -0.0064  0.9290  0.0135
  166SAPS   H9X18785   1.518   5.710  -0.981  0.5394  2.0436  0.6881
  166SAPS   H9Y18786   1.482   5.875  -1.055 -1.9265  1.4966 -0.9279
  166SAPS  C31018787   1.406   5.696  -1.161  0.1650  0.3635 -0.2244
  166SAPS  H10X18788   1.321   5.736  -1.221 -0.7443 -2.3581 -0.8643
  166SAPS  H10Y18789   1.388   5.591  -1.129 -0.5360 -0.1452 -2.1588
  166SAPS  C31118790   1.536   5.682  -1.247 -0.2067  0.1524 -0.9269
  166SAPS  H11X18791   1.609   5.634  -1.178 -1.3545  0.7386  0.7662
  166SAPS  H11Y18792   1.570   5.785  -1.273  0.6653 -0.3844 -1.9623
  166SAPS  C31218793   1.524   5.597  -1.375  0.9384  0.0953  0.1164
  166SAPS  H12X18794   1.428   5.619  -1.425  1.9803  1.0244 -1.5650
  166SAPS  H12Y18795   1.544   5.490  -1.355 -1.5437 -0.4706 -0.1702
  166SAPS  C31318796   1.624   5.641  -1.472 -0.8559 -0.3373  0.6563
  166SAPS  H13X18797   1.727   5.622  -1.434 -0.3468 -0.2870 -0.6715
  166SAPS  H13Y18798   1.622   5.752  -1.483  2.3103 -0.3293 -1.0495
  166SAPS  C31418799   1.609   5.564  -1.599 -0.3126  0.2040  0.1694
  166SAPS  H14X18800   1.506   5.561  -1.641  0.1155  0.6935 -0.9469
  166SAPS  H14Y18801   1.620   5.454  -1.587 -2.7410 -0.3557 -1.9158
  166SAPS  C31518802   1.701   5.600  -1.717 -0.6219  0.3954  0.6770
  166SAPS  H15X18803   1.788   5.531  -1.714  0.3083  1.5245  0.5149
  166SAPS  H15Y18804   1.729   5.707  -1.705  3.2444 -0.0264 -2.2823
  166SAPS  C31618805   1.631   5.597  -1.856  0.4346  0.9166  0.0281
  166SAPS  H16X18806   1.596   5.494  -1.880  1.2308  0.5823  0.2638
  166SAPS  H16Y18807   1.707   5.624  -1.933  0.0626  1.4904 -0.1493
  166SAPS  C31718808   1.524   5.703  -1.875  0.4819  0.4717  0.6194
  166SAPS  H17X18809   1.560   5.800  -1.834  0.4327  0.6749  0.1914
  166SAPS  H17Y18810   1.430   5.675  -1.822  0.9130  0.3432  1.3235
  166SAPS  C31818811   1.495   5.730  -2.023 -0.3324  0.0639  0.1622
  166SAPS  H18X18812   1.433   5.822  -2.032 -0.1632  0.0415 -1.6912
  166SAPS  H18Y18813   1.446   5.645  -2.075 -1.4847 -0.0290  1.3392
  166SAPS  H18Z18814   1.588   5.746  -2.082 -0.0561 -0.0056  0.5754
  167SAPS     N18815   5.088   6.401   1.069 -0.0302  0.0229  0.9488
  167SAPS   HN118816   5.183   6.415   1.029 -0.8905 -1.9108 -2.0770
  167SAPS   HN218817   5.029   6.374   0.988 -1.2403  0.5147  1.6508
  167SAPS   HN318818   5.051   6.489   1.110 -1.9573 -0.4266  0.2445
  167SAPS   C1218819   5.083   6.295   1.171 -0.0087  0.2542 -0.3340
  167SAPS  H12A18820   5.178   6.285   1.221  0.3173  0.8612 -0.8084
  167SAPS   C1318821   4.981   6.321   1.278  0.0104  0.8835  0.6032
  167SAPS  O13A18822   4.930   6.438   1.283  0.2716 -0.1164  0.6568
  167SAPS  O13B18823   4.972   6.242   1.375  0.2647  0.2144  0.0678
  167SAPS   C1118824   5.053   6.167   1.096  0.3894  0.1386 -0.3974
  167SAPS  H11A18825   4.949   6.174   1.056  0.7286 -1.1193 -1.6043
  167SAPS  H11B18826   5.034   6.078   1.160 -1.4414  1.1240  0.5030
  167SAPS     P18827   5.108   6.047   0.865  0.0943  0.1002 -0.1650
  167SAPS   O1318828   5.129   5.912   0.923  0.1518  0.4151  0.4751
  167SAPS   O1418829   4.978   6.078   0.805  0.3117  0.1525 -0.4657
  167SAPS   O1218830   5.141   6.149   0.983  0.6143  0.3451 -0.2967
  167SAPS   O1118831   5.222   6.074   0.755 -0.4977  0.5098  0.2851
  167SAPS    C118832   5.247   6.197   0.692  0.2100  0.0029  0.0259
  167SAPS    HA18833   5.221   6.281   0.760  0.9854  0.9446 -0.8139
  167SAPS    HB18834   5.354   6.215   0.669  0.3948  1.3680  1.7437
  167SAPS    C218835   5.166   6.211   0.558 -0.0607  0.0470 -0.1277
  167SAPS    HS18836   5.058   6.188   0.571  0.0356 -0.2863  0.0949
  167SAPS   O2118837   5.228   6.126   0.459 -0.2161  0.3204  0.2285
  167SAPS   C2118838   5.165   6.020   0.428  0.7296  0.2723 -0.8052
  167SAPS   O2218839   5.056   5.985   0.478 -0.1133 -0.0932 -0.0282
  167SAPS   C2218840   5.226   5.958   0.309 -0.0375 -0.4758 -0.3433
  167SAPS   H2R18841   5.248   6.045   0.242 -1.2349 -1.3395 -1.9271
  167SAPS   H2S18842   5.322   5.916   0.345  0.9260 -0.0957 -2.2956
  167SAPS    C318843   5.172   6.360   0.516  0.6575 -0.3088  0.6371
  167SAPS    HX18844   5.277   6.395   0.509  0.7838 -0.9708 -2.0912
  167SAPS    HY18845   5.126   6.425   0.593  1.2366  0.5917  0.2452
  167SAPS   O3118846   5.106   6.387   0.389 -0.0295  0.1959  0.3031
  167SAPS   C3118847   5.172   6.370   0.277  0.2405 -0.1492 -0.5642
  167SAPS   O3218848   5.293   6.359   0.257  0.5613 -0.5894  0.0668
  167SAPS   C3218849   5.066   6.352   0.165 -0.4148 -0.1692  0.3589
  167SAPS   H2X18850   5.023   6.454   0.157  0.0165 -0.0494 -0.6634
  167SAPS   H2Y18851   4.989   6.282   0.205  0.4064 -1.9887 -1.0541
  167SAPS   C2318852   5.140   5.851   0.239 -0.4415 -0.3857 -0.6831
  167SAPS   H3R18853   5.040   5.892   0.215 -0.7562 -1.5402 -1.4092
  167SAPS   H3S18854   5.115   5.767   0.307 -1.2832  0.2770 -0.1535
  167SAPS   C2418855   5.199   5.815   0.106  0.2159  0.3964 -0.2030
  167SAPS   H4R18856   5.270   5.732   0.129  0.9557  1.6324  2.4071
  167SAPS   H4S18857   5.256   5.897   0.057 -0.7629  0.9103 -0.5127
  167SAPS   C2518858   5.097   5.749   0.018 -0.4392  0.3134 -0.3540
  167SAPS   H5R18859   5.018   5.698   0.074  1.8559 -0.2304  2.6885
  167SAPS   C2618860   5.084   5.765  -0.113 -0.2751 -0.4226  0.4485
  167SAPS   H6R18861   4.995   5.717  -0.155  0.3904 -1.8066  0.5700
  167SAPS   C2718862   5.173   5.837  -0.208  0.1988 -0.0405  0.4818
  167SAPS   H7R18863   5.270   5.786  -0.224 -0.1393 -0.6999  0.4949
  167SAPS   H7S18864   5.188   5.932  -0.151 -0.4248 -0.1604  0.8632
  167SAPS   C2818865   5.093   5.859  -0.333  0.5908  0.2683  0.0419
  167SAPS   H8R18866   4.999   5.914  -0.320  0.5304  0.1758 -0.0031
  167SAPS   C2918867   5.131   5.834  -0.458 -0.5564  0.1180 -0.1940
  167SAPS   H9R18868   5.059   5.850  -0.539 -1.4752 -1.7357  0.2145
  167SAPS  C21018869   5.259   5.770  -0.504  0.1959  0.1615 -0.4734
  167SAPS  H10R18870   5.330   5.746  -0.422  1.8530 -0.5491 -2.0525
  167SAPS  H10S18871   5.321   5.841  -0.562  1.2332 -0.8109 -0.5909
  167SAPS  C21118872   5.229   5.642  -0.583 -0.1632 -0.0919 -0.4312
  167SAPS  H11R18873   5.174   5.565  -0.526 -0.5157  0.6362  0.2489
  167SAPS  C21218874   5.257   5.603  -0.706  0.1194 -0.6663 -0.0816
  167SAPS  H12R18875   5.224   5.501  -0.732  0.7076 -0.3288 -2.3606
  167SAPS  C21318876   5.333   5.681  -0.809 -0.6187  0.6315  0.1299
  167SAPS  H13R18877   5.370   5.783  -0.782  0.5991  1.0494 -2.6938
  167SAPS  H13S18878   5.263   5.703  -0.893 -1.1276 -0.8052  0.1580
  167SAPS  C21418879   5.447   5.588  -0.854  0.0859  0.5960  0.2927
  167SAPS  H14R18880   5.516   5.555  -0.775 -0.4559 -1.5333 -0.0737
  167SAPS  C21518881   5.463   5.538  -0.979  0.0935  0.8546 -0.4515
  167SAPS  H15R18882   5.558   5.494  -1.014 -0.5827  0.2443 -1.5686
  167SAPS  C21618883   5.366   5.561  -1.092 -0.2201  0.1582  0.3197
  167SAPS  H16R18884   5.270   5.611  -1.068  0.6043  1.9291  0.1508
  167SAPS  H16S18885   5.347   5.463  -1.139  1.0247  0.6774 -1.3716
  167SAPS  C21718886   5.436   5.651  -1.195  0.4788 -0.1210  0.6490
  167SAPS  H17R18887   5.518   5.597  -1.247  0.2802  1.4829 -1.4475
  167SAPS  H17S18888   5.483   5.741  -1.149 -0.0677  0.5908 -0.1483
  167SAPS  C21818889   5.336   5.699  -1.301 -0.7448  0.3372  0.1844
  167SAPS  H18R18890   5.394   5.763  -1.372 -1.4778 -0.2927 -1.0083
  167SAPS  H18S18891   5.254   5.766  -1.266  0.3013  1.3371  0.8014
  167SAPS  C21918892   5.279   5.588  -1.388  1.2454  0.1004 -0.5451
  167SAPS  H19R18893   5.202   5.615  -1.464  1.7905 -3.1776 -2.4502
  167SAPS  H19S18894   5.217   5.523  -1.322  1.5761  1.2917  0.9804
  167SAPS  C22018895   5.372   5.493  -1.466 -0.3567  0.0815 -0.0144
  167SAPS  H20R18896   5.455   5.459  -1.401 -0.9943 -1.6909 -0.0720
  167SAPS  H20S18897   5.406   5.545  -1.558 -1.9353 -0.4713 -0.9603
  167SAPS  H20T18898   5.324   5.399  -1.502  1.2707  0.1119 -2.5552
  167SAPS   C3318899   5.120   6.298   0.030  0.2011  0.1382  0.5417
  167SAPS   H3X18900   5.155   6.192   0.032 -1.3858 -0.4063  1.5503
  167SAPS   H3Y18901   5.216   6.346   0.003  0.9588 -0.9610  1.1722
  167SAPS   C3418902   5.019   6.302  -0.082  0.7160  0.3485  0.2716
  167SAPS   H4X18903   5.075   6.273  -0.174 -1.2876 -0.7297 -0.6586
  167SAPS   H4Y18904   4.981   6.406  -0.086  2.6759  1.0997 -0.1858
  167SAPS   C3518905   4.897   6.210  -0.086  0.2105 -0.2040  0.1597
  167SAPS   H5X18906   4.830   6.215   0.002  0.5749 -1.5936  0.5480
  167SAPS   H5Y18907   4.941   6.108  -0.091 -0.8288 -0.6701  0.3771
  167SAPS   C3618908   4.819   6.213  -0.224  0.0899 -1.0534  0.3217
  167SAPS   H6X18909   4.893   6.202  -0.307 -0.0150  0.2722  0.0445
  167SAPS   H6Y18910   4.770   6.312  -0.223  0.5283 -0.8328  0.3956
  167SAPS   C3718911   4.724   6.100  -0.236 -0.5010  0.5439  0.1549
  167SAPS   H7X18912   4.654   6.113  -0.151 -0.0005 -2.3933  1.1322
  167SAPS   H7Y18913   4.785   6.007  -0.235 -0.9451  0.2417 -0.1859
  167SAPS   C3818914   4.639   6.101  -0.363  0.1619  0.1817 -0.4332
  167SAPS   H8X18915   4.569   6.186  -0.357 -0.9025 -0.7257  0.6158
  167SAPS   H8Y18916   4.578   6.008  -0.368 -0.3222  0.4437  0.3791
  167SAPS   C3918917   4.719   6.095  -0.496  1.2758  0.7182  0.8434
  167SAPS   H9X18918   4.793   6.013  -0.513  0.3694 -0.0178  0.3743
  167SAPS   H9Y18919   4.776   6.190  -0.507  0.3601  1.4599  2.2095
  167SAPS  C31018920   4.625   6.086  -0.619 -0.5309  0.2858 -0.4180
  167SAPS  H10X18921   4.564   6.179  -0.610  0.5588  1.1373 -1.5662
  167SAPS  H10Y18922   4.557   5.998  -0.611 -0.3406  0.2286  0.7217
  167SAPS  C31118923   4.700   6.098  -0.748 -0.4847 -0.2862 -0.0334
  167SAPS  H11X18924   4.781   6.022  -0.753  0.9407  1.2051 -0.2064
  167SAPS  H11Y18925   4.758   6.193  -0.744 -1.1521  0.0755  3.1439
  167SAPS  C31218926   4.625   6.069  -0.878  0.2500 -0.3020 -0.5039
  167SAPS  H12X18927   4.590   5.964  -0.876 -1.4281  0.2166 -0.8817
  167SAPS  H12Y18928   4.695   6.086  -0.963 -0.5814  0.6975 -1.0163
  167SAPS  C31318929   4.508   6.163  -0.885  0.0692 -0.0895 -0.1408
  167SAPS  H13X18930   4.546   6.267  -0.874 -0.8006  0.3913 -1.4655
  167SAPS  H13Y18931   4.430   6.148  -0.807  0.4974  0.5331  0.4162
  167SAPS  C31418932   4.435   6.142  -1.022 -0.5449 -0.0176 -0.2320
  167SAPS  H14X18933   4.451   6.037  -1.054  1.1351 -0.0910  0.6917
  167SAPS  H14Y18934   4.491   6.191  -1.105 -1.5423 -0.5374 -1.2218
  167SAPS  C31518935   4.289   6.184  -1.018 -0.7425 -0.1799 -0.3940
  167SAPS  H15X18936   4.288   6.281  -0.963  0.1118  0.0005 -0.6941
  167SAPS  H15Y18937   4.226   6.115  -0.958 -1.3757  0.2857 -0.5052
  167SAPS  C31618938   4.225   6.213  -1.153  0.7934 -0.2187  0.3025
  167SAPS  H16X18939   4.249   6.127  -1.219  1.8940  0.4891 -0.2673
  167SAPS  H16Y18940   4.287   6.294  -1.199  3.1895 -1.6450  0.8252
  167SAPS  C31718941   4.073   6.252  -1.143 -0.0681  0.9686  1.0629
  167SAPS  H17X18942   4.068   6.336  -1.069  1.3485  1.6243  0.4624
  167SAPS  H17Y18943   4.022   6.166  -1.095 -1.1842  1.7549  1.3231
  167SAPS  C31818944   3.993   6.298  -1.265 -0.1412  0.6618 -0.1753
  167SAPS  H18X18945   4.040   6.383  -1.318 -0.9104  1.6868  0.7258
  167SAPS  H18Y18946   3.892   6.333  -1.234  0.4147  0.9016  1.4885
  167SAPS  H18Z18947   3.988   6.208  -1.329 -0.5103  0.1771  0.5161
  168SAPS     N18948   1.352   5.325   0.837  0.0773  0.4102  0.2599
  168SAPS   HN118949   1.343   5.376   0.746 -0.9475  0.7256  0.5348
  168SAPS   HN218950   1.276   5.367   0.893  0.0256 -0.1195  0.5841
  168SAPS   HN318951   1.443   5.331   0.888 -0.3608 -1.7229  1.3972
  168SAPS   C1218952   1.317   5.183   0.828  0.4003 -0.2991  0.4131
  168SAPS  H12A18953   1.411   5.138   0.799  0.6128  0.0843  0.4959
  168SAPS   C1318954   1.295   5.120   0.964  0.4740 -0.0738  0.0246
  168SAPS  O13A18955   1.322   5.191   1.072  0.1225 -0.1285  0.4660
  168SAPS  O13B18956   1.288   4.996   0.976 -0.7007 -0.1407 -0.5385
  168SAPS   C1118957   1.200   5.153   0.734 -0.8169 -0.0108  0.4306
  168SAPS  H11A18958   1.204   5.044   0.717  0.5710  0.1966 -0.8282
  168SAPS  H11B18959   1.233   5.196   0.636  0.4208 -0.0351  0.8176
  168SAPS     P18960   0.940   5.175   0.767 -0.5970 -0.5477  0.0578
  168SAPS   O1318961   0.901   5.148   0.906 -0.6759  0.4650  0.5088
  168SAPS   O1418962   0.853   5.262   0.692  0.6839  0.2704 -0.3877
  168SAPS   O1218963   1.084   5.224   0.780  0.1624  0.2600 -0.2525
  168SAPS   O1118964   0.953   5.034   0.705  0.0105  0.6755  0.3285
  168SAPS    C118965   0.839   4.970   0.638  0.8005  0.4535 -0.7884
  168SAPS    HA18966   0.795   4.896   0.708 -1.4679  2.0161 -0.4606
  168SAPS    HB18967   0.759   5.046   0.623  1.0885  0.6290 -1.4764
  168SAPS    C218968   0.870   4.895   0.507 -0.5014 -0.3212  0.3298
  168SAPS    HS18969   0.792   4.823   0.474 -0.5931  0.6561 -1.7508
  168SAPS   O2118970   1.007   4.851   0.512 -0.5384  0.3954  0.3567
  168SAPS   C2118971   1.027   4.728   0.565  0.1504 -0.8404  0.6091
  168SAPS   O2218972   0.940   4.650   0.606 -0.0293  0.1268  0.7070
  168SAPS   C2218973   1.178   4.703   0.566  0.9402 -0.3400  0.2631
  168SAPS   H2R18974   1.234   4.798   0.551 -0.4082  0.6899  1.4828
  168SAPS   H2S18975   1.209   4.675   0.669  2.9960  2.5491  0.5608
  168SAPS    C318976   0.880   5.008   0.403 -0.0284  0.0616  0.0677
  168SAPS    HX18977   0.942   5.087   0.450  1.4008 -2.2728  2.3385
  168SAPS    HY18978   0.782   5.058   0.385 -0.2316 -0.7401 -1.2101
  168SAPS   O3118979   0.938   4.959   0.280  0.7707 -0.6645 -0.4119
  168SAPS   C3118980   0.934   5.040   0.176  0.4130  0.0886  0.9648
  168SAPS   O3218981   0.900   5.155   0.171  0.5341  0.0370 -0.1096
  168SAPS   C3218982   1.002   4.967   0.051 -0.0689 -0.7416 -0.2485
  168SAPS   H2X18983   0.993   4.858   0.065 -2.5932 -0.8456 -2.0103
  168SAPS   H2Y18984   1.110   4.993   0.059 -0.4249  0.3103  2.2428
  168SAPS   C2318985   1.227   4.611   0.450 -0.2508  0.2198  0.4440
  168SAPS   H3R18986   1.185   4.509   0.463  2.1050 -0.8056  0.6215
  168SAPS   H3S18987   1.337   4.608   0.465 -0.2860 -1.3618  0.6181
  168SAPS   C2418988   1.193   4.668   0.314 -0.1168 -0.5048 -0.2979
  168SAPS   H4R18989   1.244   4.767   0.309 -1.6237  0.2523 -1.5868
  168SAPS   H4S18990   1.087   4.700   0.308 -0.3091 -1.1685 -0.4696
  168SAPS   C2518991   1.226   4.588   0.198  0.2769 -0.5678 -0.1235
  168SAPS   H5R18992   1.177   4.490   0.191 -1.1992  0.2103 -1.1963
  168SAPS   C2618993   1.316   4.627   0.108  0.3508  0.0156  0.5516
  168SAPS   H6R18994   1.328   4.561   0.020 -0.0264 -0.3051  0.7368
  168SAPS   C2718995   1.408   4.742   0.102 -0.3026 -0.3448 -0.0227
  168SAPS   H7R18996   1.437   4.761   0.208 -0.6383 -0.3435  0.0683
  168SAPS   H7S18997   1.351   4.836   0.083  1.8901  0.6638 -2.2164
  168SAPS   C2818998   1.535   4.720   0.023 -1.2211  0.1777  0.3053
  168SAPS   H8R18999   1.618   4.670   0.075  0.3059 -0.5660 -2.5892
  168SAPS   C2919000   1.554   4.747  -0.109 -0.8582 -0.3461 -0.0916
  168SAPS   H9R19001   1.652   4.726  -0.154 -1.7381  0.2220 -2.4461
  168SAPS  C21019002   1.438   4.783  -0.202 -0.3543 -0.4719 -0.3892
  168SAPS  H10R19003   1.471   4.860  -0.275 -0.3168 -1.5662 -1.5519
  168SAPS  H10S19004   1.363   4.844  -0.145  2.2239  3.1656 -0.5098
  168SAPS  C21119005   1.366   4.662  -0.262 -0.0850 -0.7560 -0.5658
  168SAPS  H11R19006   1.306   4.614  -0.183 -1.8134  0.9694 -0.7713
  168SAPS  C21219007   1.369   4.622  -0.391  1.4210  0.6295 -0.6279
  168SAPS  H12R19008   1.295   4.543  -0.415 -0.3837  2.0544  0.0047
  168SAPS  C21319009   1.449   4.682  -0.501  0.0249  0.4941  0.2917
  168SAPS  H13R19010   1.552   4.639  -0.503  0.1533  0.5177  3.2239
  168SAPS  H13S19011   1.467   4.790  -0.481  2.7951  0.5755 -1.9746
  168SAPS  C21419012   1.369   4.664  -0.631 -0.1548  0.1534  0.1443
  168SAPS  H14R19013   1.306   4.751  -0.653 -0.9511 -0.3491  0.3767
  168SAPS  C21519014   1.371   4.550  -0.714  0.3679 -0.4236  0.4690
  168SAPS  H15R19015   1.308   4.542  -0.804 -0.4854 -0.4266  1.0556
  168SAPS  C21619016   1.455   4.423  -0.686 -0.2141 -0.4840  0.1729
  168SAPS  H16R19017   1.392   4.336  -0.658 -0.1924 -0.3089  0.7725
  168SAPS  H16S19018   1.530   4.435  -0.606 -0.7897  0.1813  0.6279
  168SAPS  C21719019   1.530   4.381  -0.814  0.2386 -0.9653 -0.2130
  168SAPS  H17R19020   1.607   4.314  -0.772 -0.6875 -1.6195  0.4618
  168SAPS  H17S19021   1.576   4.471  -0.860 -0.7320  0.1299  0.8844
  168SAPS  C21819022   1.456   4.319  -0.929  0.8562 -0.5402  0.1560
  168SAPS  H18R19023   1.353   4.360  -0.935  0.8166 -0.3738  1.6348
  168SAPS  H18S19024   1.424   4.212  -0.926 -0.3135 -0.2883 -1.7100
  168SAPS  C21919025   1.534   4.325  -1.061  0.5775  0.1591  0.1451
  168SAPS  H19R19026   1.618   4.253  -1.063 -0.3188 -0.9624  0.9451
  168SAPS  H19S19027   1.586   4.423  -1.064 -0.2982  0.7017  1.5819
  168SAPS  C22019028   1.438   4.307  -1.177 -0.0419  0.5031 -0.3486
  168SAPS  H20R19029   1.405   4.201  -1.171  0.9480  0.2694  3.3084
  168SAPS  H20S19030   1.492   4.322  -1.273 -1.0720 -1.6364 -1.3328
  168SAPS  H20T19031   1.349   4.373  -1.177 -0.9492 -0.6620  0.8185
  168SAPS   C3319032   0.951   5.034  -0.089  0.6619 -0.6976 -0.5179
  168SAPS   H3X19033   0.956   5.143  -0.070 -0.4032 -0.7820  0.3646
  168SAPS   H3Y19034   0.844   5.004  -0.099  0.1808  0.5449  0.6456
  168SAPS   C3419035   1.028   4.987  -0.217 -0.0056 -0.7234  0.4528
  168SAPS   H4X19036   1.053   4.880  -0.205  3.1709 -0.5877 -3.2264
  168SAPS   H4Y19037   1.128   5.034  -0.226  0.6831 -2.2455 -0.2711
  168SAPS   C3519038   0.945   5.022  -0.344 -0.2539  0.3763 -0.2286
  168SAPS   H5X19039   0.917   5.129  -0.335  0.9853  0.8543 -1.6623
  168SAPS   H5Y19040   0.847   4.969  -0.351 -2.1052  3.0036  3.0740
  168SAPS   C3619041   1.027   5.003  -0.475 -0.1440  0.1804 -1.2135
  168SAPS   H6X19042   1.062   4.898  -0.463  2.6828  1.2822  1.1308
  168SAPS   H6Y19043   1.114   5.071  -0.481 -0.8398  1.4563  1.6899
  168SAPS   C3719044   0.937   5.017  -0.604 -0.2111 -0.5210 -0.8151
  168SAPS   H7X19045   0.875   5.109  -0.604 -0.6478 -0.8111 -1.4307
  168SAPS   H7Y19046   0.877   4.924  -0.600  1.2767 -1.5761 -1.8225
  168SAPS   C3819047   1.020   5.008  -0.732  0.2695 -0.1431 -1.0591
  168SAPS   H8X19048   1.080   4.915  -0.719 -0.1738 -0.1036  1.9318
  168SAPS   H8Y19049   1.095   5.088  -0.750  0.8656 -0.2827  0.6230
  168SAPS   C3919050   0.928   4.993  -0.851  0.0301 -0.2671  0.1925
  168SAPS   H9X19051   0.861   5.081  -0.859  0.1813 -0.2522 -1.2733
  168SAPS   H9Y19052   0.859   4.907  -0.837  1.6933 -1.7193 -0.1132
  168SAPS  C31019053   1.002   4.987  -0.983 -0.4795 -0.7901  0.1926
  168SAPS  H10X19054   1.086   4.914  -0.972  1.3955  1.4162  1.4107
  168SAPS  H10Y19055   1.053   5.084  -1.000  1.0296 -1.6625 -0.5356
  168SAPS  C31119056   0.909   4.944  -1.103 -0.6564 -0.3725 -0.7911
  168SAPS  H11X19057   0.836   5.026  -1.122  0.1830 -0.3029 -4.3683
  168SAPS  H11Y19058   0.852   4.849  -1.095 -0.6881 -0.5526 -2.7488
  168SAPS  C31219059   0.985   4.925  -1.240  0.3634  0.3480  0.1129
  168SAPS  H12X19060   0.909   4.906  -1.318  0.3039 -0.3391  0.3327
  168SAPS  H12Y19061   1.058   4.842  -1.228 -0.8683 -0.7422  0.2677
  168SAPS  C31319062   1.069   5.052  -1.283 -0.3420 -0.5264  0.4128
  168SAPS  H13X19063   1.150   5.074  -1.211 -1.2299 -0.1447  1.3142
  168SAPS  H13Y19064   1.004   5.142  -1.290  2.1582  1.5576  2.3674
  168SAPS  C31419065   1.143   5.038  -1.418  0.2841 -0.4410 -0.3976
  168SAPS  H14X19066   1.065   5.024  -1.496 -1.1080 -1.6887  1.1612
  168SAPS  H14Y19067   1.204   4.946  -1.408  0.9537  0.1629  1.6530
  168SAPS  C31519068   1.220   5.163  -1.451 -0.1437  0.2773 -1.1525
  168SAPS  H15X19069   1.327   5.142  -1.432 -0.9220 -1.4360  1.9748
  168SAPS  H15Y19070   1.200   5.245  -1.379 -1.1444 -0.0650 -1.0208
  168SAPS  C31619071   1.184   5.220  -1.586  0.4337 -0.0713 -0.0416
  168SAPS  H16X19072   1.076   5.244  -1.589 -0.1349 -2.4825 -1.3685
  168SAPS  H16Y19073   1.206   5.141  -1.661  0.0705 -0.4450  0.2407
  168SAPS  C31719074   1.263   5.347  -1.627 -0.8666  0.1742  0.1543
  168SAPS  H17X19075   1.314   5.386  -1.537 -0.4229 -0.6688  0.2804
  168SAPS  H17Y19076   1.184   5.423  -1.645 -1.0703 -0.4454 -1.8413
  168SAPS  C31819077   1.355   5.336  -1.750  0.6596 -0.2982 -0.6859
  168SAPS  H18X19078   1.313   5.263  -1.823 -0.6730 -0.7045  0.4608
  168SAPS  H18Y19079   1.460   5.309  -1.726  1.5850  2.5377 -1.1653
  168SAPS  H18Z19080   1.368   5.435  -1.798  0.2704 -0.7529 -1.7767
  169SAPS     N19081   3.716   1.969   0.433 -0.1010  0.0967 -0.5159
  169SAPS   HN119082   3.795   1.925   0.382 -0.2187  3.5002 -4.1054
  169SAPS   HN219083   3.746   2.067   0.447 -0.4084  0.6005 -2.8658
  169SAPS   HN319084   3.700   1.920   0.523 -1.9798  1.6520  0.0597
  169SAPS   C1219085   3.590   1.949   0.359  0.1795  0.1133  0.1305
  169SAPS  H12A19086   3.612   1.973   0.256 -1.6080  1.6633  0.0364
  169SAPS   C1319087   3.539   1.805   0.354 -1.1731 -0.1628 -0.2422
  169SAPS  O13A19088   3.612   1.718   0.418  0.0705 -0.7200 -0.4112
  169SAPS  O13B19089   3.453   1.779   0.271  0.7426  0.1617 -0.1734
  169SAPS   C1119090   3.475   2.053   0.412  0.2364  0.0182  0.1995
  169SAPS  H11A19091   3.392   2.042   0.339  1.9525 -1.4640 -1.6659
  169SAPS  H11B19092   3.505   2.160   0.403  1.5726 -0.3815 -0.4423
  169SAPS     P19093   3.291   2.066   0.592  0.2565  0.2044 -0.1354
  169SAPS   O1319094   3.211   1.943   0.614 -0.3597  0.2276  0.3542
  169SAPS   O1419095   3.313   2.149   0.706  0.3475  0.3182 -0.2580
  169SAPS   O1219096   3.434   2.029   0.544  0.8770  0.9001  0.1237
  169SAPS   O1119097   3.215   2.144   0.472 -0.7205 -0.0785 -0.3807
  169SAPS    C119098   3.248   2.283   0.448 -0.2363  0.5651  0.4674
  169SAPS    HA19099   3.188   2.351   0.513 -2.3163 -1.2071  0.5192
  169SAPS    HB19100   3.355   2.308   0.464  0.0801 -0.2369 -0.3016
  169SAPS    C219101   3.205   2.333   0.309 -0.3892  0.5167 -0.2596
  169SAPS    HS19102   3.215   2.443   0.299  2.8634  0.4161  0.8524
  169SAPS   O2119103   3.070   2.291   0.278 -0.0974 -0.6002  0.4286
  169SAPS   C2119104   3.018   2.358   0.180  0.0318  0.1997  0.7951
  169SAPS   O2219105   3.064   2.449   0.115  0.3837  0.3752  0.7028
  169SAPS   C2219106   2.881   2.302   0.160  0.4225  0.2665  0.1861
  169SAPS   H2R19107   2.886   2.201   0.113  2.7129  1.2649 -1.9451
  169SAPS   H2S19108   2.827   2.303   0.257 -0.3393 -0.7714 -0.2079
  169SAPS    C319109   3.304   2.275   0.202 -0.3515  1.3482 -0.2725
  169SAPS    HX19110   3.407   2.284   0.242 -0.0226 -0.1693 -0.7002
  169SAPS    HY19111   3.296   2.341   0.112 -1.3982 -2.7472 -3.5153
  169SAPS   O3119112   3.278   2.143   0.148  0.2432  0.0685  1.0570
  169SAPS   C3119113   3.361   2.093   0.058  0.3610 -0.3783  0.8667
  169SAPS   O3219114   3.472   2.143   0.037 -0.0472 -0.2082 -0.2943
  169SAPS   C3219115   3.298   1.968  -0.008 -0.1265  0.6373 -0.4229
  169SAPS   H2X19116   3.296   1.892   0.073  0.2831 -0.0990 -1.0936
  169SAPS   H2Y19117   3.364   1.938  -0.092  1.5379 -1.8967  1.6551
  169SAPS   C2319118   2.803   2.377   0.049 -0.2725 -0.2342  0.6390
  169SAPS   H3R19119   2.853   2.383  -0.050 -3.6048  2.1010 -1.0830
  169SAPS   H3S19120   2.776   2.479   0.082  2.1507  0.9126 -0.6598
  169SAPS   C2419121   2.665   2.307   0.020 -0.4370 -0.6463  0.2677
  169SAPS   H4R19122   2.610   2.283   0.114  0.3697 -1.6426  0.5007
  169SAPS   H4S19123   2.684   2.219  -0.044 -0.9998  2.1873 -4.2395
  169SAPS   C2519124   2.577   2.400  -0.062  0.3077  0.1883  0.4565
  169SAPS   H5R19125   2.509   2.466  -0.007 -0.9009  0.0440 -0.8198
  169SAPS   C2619126   2.560   2.403  -0.194  0.9910 -0.3586 -0.2808
  169SAPS   H6R19127   2.511   2.490  -0.239  3.7814  1.4835  0.0054
  169SAPS   C2719128   2.629   2.321  -0.291  0.2163 -0.3245 -0.4791
  169SAPS   H7R19129   2.589   2.218  -0.280 -0.4646  0.0673  0.9991
  169SAPS   H7S19130   2.736   2.318  -0.261  0.2842 -3.7651 -0.6602
  169SAPS   C2819131   2.610   2.364  -0.438  0.0119  0.4448 -0.1084
  169SAPS   H8R19132   2.545   2.444  -0.474 -1.7446 -1.1475 -0.6360
  169SAPS   C2919133   2.685   2.295  -0.530 -0.0833  0.3712 -0.5020
  169SAPS   H9R19134   2.669   2.313  -0.637 -0.0978  3.3090 -0.0841
  169SAPS  C21019135   2.797   2.193  -0.506  0.5800 -0.3707  0.0882
  169SAPS  H10R19136   2.830   2.192  -0.400 -0.4053 -0.3844  0.4059
  169SAPS  H10S19137   2.885   2.231  -0.562  1.7026 -0.4737  1.6966
  169SAPS  C21119138   2.752   2.056  -0.552 -0.8848  0.1469 -0.2316
  169SAPS  H11R19139   2.750   1.991  -0.464  1.0322  1.6160  1.0024
  169SAPS  C21219140   2.742   2.003  -0.677  0.2414  0.6070 -0.1326
  169SAPS  H12R19141   2.722   1.895  -0.686  1.7796  0.3494 -0.9953
  169SAPS  C21319142   2.755   2.072  -0.810 -0.2941  0.2191  0.7438
  169SAPS  H13R19143   2.714   2.175  -0.811 -3.0741 -0.7784 -0.7332
  169SAPS  H13S19144   2.696   2.014  -0.885 -1.3090  2.4579 -0.2883
  169SAPS  C21419145   2.903   2.081  -0.839 -0.1712  0.5167 -0.0283
  169SAPS  H14R19146   2.969   2.122  -0.760  2.3137 -0.9276 -1.2263
  169SAPS  C21519147   2.962   2.034  -0.951  0.6048 -0.8063  0.1835
  169SAPS  H15R19148   3.071   2.049  -0.953  0.7505 -1.7962  0.1851
  169SAPS  C21619149   2.898   1.970  -1.075 -0.0995 -0.3691 -0.4605
  169SAPS  H16R19150   2.792   1.943  -1.056 -0.1593 -0.6763 -1.2070
  169SAPS  H16S19151   2.953   1.880  -1.110  1.9456  1.2853 -1.8130
  169SAPS  C21719152   2.891   2.066  -1.202 -0.2735  0.3724 -0.6660
  169SAPS  H17R19153   2.859   2.166  -1.166  1.5733  1.5856 -2.1751
  169SAPS  H17S19154   2.815   2.029  -1.274 -0.2564  0.8257 -0.9219
  169SAPS  C21819155   3.021   2.093  -1.290  0.6209  0.0464 -0.9678
  169SAPS  H18R19156   3.052   1.997  -1.337 -3.8823 -2.2897  0.2381
  169SAPS  H18S19157   3.092   2.142  -1.221 -2.6312  2.2400  1.1118
  169SAPS  C21919158   2.988   2.194  -1.403  0.0364  0.0079  0.0483
  169SAPS  H19R19159   2.949   2.281  -1.348 -2.2735 -0.2223 -1.1141
  169SAPS  H19S19160   2.899   2.170  -1.465  1.2936 -0.7847 -1.5455
  169SAPS  C22019161   3.106   2.212  -1.498 -0.2160  0.1486 -0.4608
  169SAPS  H20R19162   3.087   2.305  -1.556 -0.4549  0.6128  0.3569
  169SAPS  H20S19163   3.135   2.122  -1.558  1.8942  0.2873  0.2740
  169SAPS  H20T19164   3.201   2.233  -1.446  0.1959 -2.8571  0.1675
  169SAPS   C3319165   3.153   1.998  -0.045 -1.0382  0.3490  0.1822
  169SAPS   H3X19166   3.157   2.097  -0.096 -0.2780 -0.1211 -0.6865
  169SAPS   H3Y19167   3.092   2.007   0.048 -0.5098  0.8689  0.4867
  169SAPS   C3419168   3.085   1.890  -0.135  0.5147 -0.9842  0.3662
  169SAPS   H4X19169   2.978   1.881  -0.107 -1.2842  1.8579 -4.4139
  169SAPS   H4Y19170   3.142   1.796  -0.116  1.6161 -0.7495 -1.5413
  169SAPS   C3519171   3.098   1.928  -0.279 -0.0210 -0.1686  0.4312
  169SAPS   H5X19172   3.045   2.021  -0.310  1.7830  0.7947  0.1325
  169SAPS   H5Y19173   3.048   1.848  -0.338 -3.0279  2.5129 -0.9957
  169SAPS   C3619174   3.235   1.929  -0.347  0.7083  0.3376 -0.3685
  169SAPS   H6X19175   3.272   1.825  -0.338 -2.0400 -0.8444 -1.3974
  169SAPS   H6Y19176   3.304   2.002  -0.300  0.7019 -0.8088  1.5333
  169SAPS   C3719177   3.239   1.957  -0.502  0.5886 -0.0076  0.3925
  169SAPS   H7X19178   3.193   2.057  -0.518 -1.4360 -0.9151  0.1812
  169SAPS   H7Y19179   3.175   1.886  -0.560 -0.4511 -1.4678  3.1394
  169SAPS   C3819180   3.392   1.952  -0.553  0.4762  0.2171 -0.0465
  169SAPS   H8X19181   3.463   1.964  -0.469 -1.0564  4.1611  0.9157
  169SAPS   H8Y19182   3.393   2.038  -0.624 -3.0265  0.4062 -0.0829
  169SAPS   C3919183   3.420   1.826  -0.646 -0.4725  0.5104  0.5549
  169SAPS   H9X19184   3.349   1.841  -0.731  0.7611  0.9074 -0.4393
  169SAPS   H9Y19185   3.395   1.724  -0.611  0.2402 -0.5001 -1.6490
  169SAPS  C31019186   3.562   1.830  -0.698 -0.3050 -0.2283 -0.2207
  169SAPS  H10X19187   3.638   1.844  -0.618  0.7350 -0.6001 -1.1147
  169SAPS  H10Y19188   3.569   1.913  -0.772  0.2042 -0.0527  0.0172
  169SAPS  C31119189   3.592   1.694  -0.762 -0.6103  0.4603 -0.3744
  169SAPS  H11X19190   3.520   1.647  -0.832  0.5680 -2.6050  0.3371
  169SAPS  H11Y19191   3.597   1.623  -0.677 -0.2061  0.4930 -0.3652
  169SAPS  C31219192   3.730   1.700  -0.831  0.5139 -0.6047 -0.7395
  169SAPS  H12X19193   3.797   1.724  -0.746  0.5415  3.1577 -1.6754
  169SAPS  H12Y19194   3.743   1.787  -0.899 -0.7449  0.3893  0.2400
  169SAPS  C31319195   3.773   1.564  -0.894 -0.0052  0.3907  0.2820
  169SAPS  H13X19196   3.750   1.482  -0.822 -1.8073  0.1402 -0.5314
  169SAPS  H13Y19197   3.882   1.556  -0.910  0.0988 -2.8539  1.8050
  169SAPS  C31419198   3.715   1.537  -1.031  0.3520  0.1091  0.0280
  169SAPS  H14X19199   3.757   1.607  -1.106  1.2696 -0.1804  0.2577
  169SAPS  H14Y19200   3.604   1.540  -1.026  0.4042  1.4418  0.8786
  169SAPS  C31519201   3.743   1.395  -1.089 -0.8548 -0.0593 -0.4860
  169SAPS  H15X19202   3.686   1.324  -1.026 -2.1270 -1.9840 -3.5467
  169SAPS  H15Y19203   3.853   1.381  -1.084 -0.8492 -0.3413 -1.2480
  169SAPS  C31619204   3.710   1.392  -1.243  0.2746 -0.0886 -0.0189
  169SAPS  H16X19205   3.776   1.460  -1.301  0.3563 -0.8233 -0.8044
  169SAPS  H16Y19206   3.604   1.420  -1.262  0.5652  0.9696 -0.1712
  169SAPS  C31719207   3.727   1.253  -1.309  0.4052 -0.0292 -0.0785
  169SAPS  H17X19208   3.666   1.172  -1.263 -1.6334  0.8501 -1.0653
  169SAPS  H17Y19209   3.834   1.233  -1.290  1.5395  4.8315  0.0524
  169SAPS  C31819210   3.704   1.254  -1.457 -0.8939  0.1140  0.1050
  169SAPS  H18X19211   3.597   1.281  -1.473 -1.5714  0.5069  4.2626
  169SAPS  H18Y19212   3.709   1.150  -1.496  0.0788 -0.4487  1.6335
  169SAPS  H18Z19213   3.762   1.330  -1.513 -0.4823  0.4954  1.0309
  170SAPS     N19214   5.007   5.225   1.156 -0.1977  0.0051  0.0794
  170SAPS   HN119215   4.979   5.219   1.256 -0.7305 -1.2017 -0.1243
  170SAPS   HN219216   5.093   5.167   1.158 -0.6866 -0.7468 -0.1748
  170SAPS   HN319217   5.023   5.322   1.123 -1.3107 -0.0265 -0.6229
  170SAPS   C1219218   4.887   5.166   1.089  1.1531 -0.3874  0.0499
  170SAPS  H12A19219   4.886   5.061   1.112 -2.4786 -0.6568 -0.7431
  170SAPS   C1319220   4.751   5.196   1.158  0.1742 -0.6806  0.1737
  170SAPS  O13A19221   4.746   5.252   1.271  0.0871  0.3785 -0.3841
  170SAPS  O13B19222   4.652   5.126   1.120  0.2271  0.3689  0.2546
  170SAPS   C1119223   4.891   5.203   0.934 -1.2844  0.4552  0.3237
  170SAPS  H11A19224   4.884   5.313   0.917 -1.7733  0.1215 -2.0430
  170SAPS  H11B19225   4.805   5.155   0.882  0.7052 -0.1878 -2.6157
  170SAPS     P19226   5.123   5.213   0.804  0.3726 -0.6471  0.0519
  170SAPS   O1319227   5.181   5.324   0.889 -0.0837 -0.3556 -0.6838
  170SAPS   O1419228   5.216   5.104   0.768 -0.3255 -0.0188  0.3328
  170SAPS   O1219229   5.005   5.145   0.875 -0.0241  0.3718 -0.3735
  170SAPS   O1119230   5.057   5.280   0.675  0.0122 -0.0786  0.1364
  170SAPS    C119231   4.949   5.208   0.608 -0.0082  0.2014 -0.2549
  170SAPS    HA19232   4.913   5.122   0.668 -0.2482 -0.3367 -1.1577
  170SAPS    HB19233   4.864   5.280   0.602  0.1302  0.6454  2.2305
  170SAPS    C219234   4.978   5.163   0.462  0.4446 -0.3555 -0.3335
  170SAPS    HS19235   5.064   5.092   0.472  0.4540 -0.5767 -1.7200
  170SAPS   O2119236   5.015   5.285   0.393 -0.3762  0.1641  0.5461
  170SAPS   C2119237   5.124   5.272   0.324  0.2208  0.2116 -0.2743
  170SAPS   O2219238   5.195   5.173   0.325 -0.0719 -0.2901 -0.7587
  170SAPS   C2219239   5.141   5.389   0.234  0.2342  0.4221  0.6597
  170SAPS   H2R19240   5.046   5.403   0.178  0.2793 -0.4501  0.3574
  170SAPS   H2S19241   5.161   5.476   0.301  1.5787 -0.5150  1.5232
  170SAPS    C319242   4.856   5.103   0.386 -0.7615  0.1334 -0.5175
  170SAPS    HX19243   4.776   5.178   0.405  1.6365  1.9366  3.5573
  170SAPS    HY19244   4.820   5.010   0.435  1.0190  0.3802  1.3729
  170SAPS   O3119245   4.869   5.104   0.244  0.0690 -0.1881  0.1500
  170SAPS   C3119246   4.897   4.984   0.200  0.1264 -0.2856 -0.4376
  170SAPS   O3219247   4.906   4.882   0.263  0.1229  0.5075  0.2117
  170SAPS   C3219248   4.919   4.997   0.052 -0.8579  0.1582 -0.2260
  170SAPS   H2X19249   5.001   5.070   0.035 -0.5263 -0.4916 -1.5247
  170SAPS   H2Y19250   4.829   5.031  -0.004 -1.3870  0.1420  0.5869
  170SAPS   C2319251   5.265   5.366   0.142  0.1032 -0.4663  0.0647
  170SAPS   H3R19252   5.354   5.353   0.208  1.0984 -0.1331 -1.1811
  170SAPS   H3S19253   5.281   5.460   0.084  3.2560 -0.9522 -0.0370
  170SAPS   C2419254   5.255   5.256   0.034  0.1981  0.8332 -0.3945
  170SAPS   H4R19255   5.214   5.158   0.068  0.5345  1.1435  0.9777
  170SAPS   H4S19256   5.355   5.238  -0.010 -0.5696 -1.0188 -1.5220
  170SAPS   C2519257   5.158   5.307  -0.067 -0.4221  0.2439  0.5853
  170SAPS   H5R19258   5.075   5.367  -0.026 -0.9260 -0.7023  0.9997
  170SAPS   C2619259   5.181   5.309  -0.198 -0.2168  0.1776 -0.4477
  170SAPS   H6R19260   5.111   5.373  -0.253  0.3582  1.1788 -0.0492
  170SAPS   C2719261   5.293   5.245  -0.281  0.3920  0.8937  0.2352
  170SAPS   H7R19262   5.300   5.135  -0.274 -2.0706  0.7570  1.7955
  170SAPS   H7S19263   5.391   5.287  -0.248 -0.0370  3.4267 -1.3788
  170SAPS   C2819264   5.294   5.297  -0.422  0.2782 -0.3400  0.4135
  170SAPS   H8R19265   5.322   5.403  -0.429 -1.8775  0.3670  1.5634
  170SAPS   C2919266   5.274   5.225  -0.532 -0.0836 -0.0019  0.4676
  170SAPS   H9R19267   5.272   5.279  -0.628 -1.0141  2.6243  1.8717
  170SAPS  C21019268   5.261   5.074  -0.535  0.1331  0.0024  0.1407
  170SAPS  H10R19269   5.183   5.053  -0.458 -1.3708  3.3932 -0.3050
  170SAPS  H10S19270   5.357   5.024  -0.510  1.0018 -0.1331 -3.1053
  170SAPS  C21119271   5.212   5.010  -0.666 -0.1401  0.2705 -0.2712
  170SAPS  H11R19272   5.107   4.975  -0.661 -0.5344  1.5381  1.2271
  170SAPS  C21219273   5.290   4.999  -0.779  0.4039  0.5038 -0.3452
  170SAPS  H12R19274   5.247   4.960  -0.872  0.5277  0.2545 -0.2998
  170SAPS  C21319275   5.436   5.037  -0.778  0.2046  0.1021 -0.2773
  170SAPS  H13R19276   5.502   4.950  -0.796  2.1346  1.3997  0.1701
  170SAPS  H13S19277   5.466   5.077  -0.679 -1.2687 -0.4166  0.4042
  170SAPS  C21419278   5.456   5.134  -0.894  0.0285 -0.3355 -0.6302
  170SAPS  H14R19279   5.401   5.225  -0.868  1.8601  0.5828  0.2069
  170SAPS  C21519280   5.523   5.121  -1.008 -0.1706 -0.1690  0.1670
  170SAPS  H15R19281   5.524   5.204  -1.080  0.4505 -2.0116 -2.1132
  170SAPS  C21619282   5.601   4.999  -1.061  0.0768  0.3091  0.5735
  170SAPS  H16R19283   5.546   4.945  -1.142  2.6650  0.7704 -1.6360
  170SAPS  H16S19284   5.620   4.921  -0.985 -1.5359 -0.2200  0.4825
  170SAPS  C21719285   5.736   5.046  -1.128  0.4244 -0.5466 -0.1167
  170SAPS  H17R19286   5.804   5.084  -1.048  0.4255 -0.3178 -0.2291
  170SAPS  H17S19287   5.693   5.116  -1.201  1.2040 -3.1920 -3.3620
  170SAPS  C21819288   5.805   4.938  -1.220  0.3582  0.3676 -0.4615
  170SAPS  H18R19289   5.736   4.891  -1.293  3.7466 -0.8238 -3.1652
  170SAPS  H18S19290   5.831   4.852  -1.155 -1.2293  0.4724  0.3630
  170SAPS  C21919291   5.919   5.004  -1.284  0.0056  0.2527 -0.2819
  170SAPS  H19R19292   5.969   4.937  -1.358 -0.2769 -0.8286  0.4853
  170SAPS  H19S19293   5.989   5.042  -1.207 -2.0461  0.8228  1.3704
  170SAPS  C22019294   5.886   5.130  -1.368 -0.6477  0.2228 -0.0848
  170SAPS  H20R19295   5.805   5.103  -1.439 -0.4174 -0.4521 -0.0999
  170SAPS  H20S19296   5.971   5.178  -1.422  0.3233  1.1805  2.1561
  170SAPS  H20T19297   5.852   5.205  -1.293 -2.0753  1.4880 -1.9031
  170SAPS   C3319298   4.972   4.865  -0.005 -0.3717  0.1159  0.1429
  170SAPS   H3X19299   4.877   4.809  -0.021 -0.0639  0.0710 -1.7382
  170SAPS   H3Y19300   5.044   4.808   0.057  0.8837  0.8560 -0.5906
  170SAPS   C3419301   5.032   4.891  -0.144 -0.3821  0.0697  0.0705
  170SAPS   H4X19302   4.980   4.978  -0.189 -1.0399  0.1268  0.9350
  170SAPS   H4Y19303   4.993   4.810  -0.209  2.5440 -0.1274 -1.6747
  170SAPS   C3519304   5.184   4.896  -0.163  0.1390  0.1528 -0.6297
  170SAPS   H5X19305   5.217   4.979  -0.098 -0.4049  0.7489 -1.0984
  170SAPS   H5Y19306   5.195   4.929  -0.269 -1.0168  1.9688 -0.2046
  170SAPS   C3619307   5.273   4.768  -0.137  0.7986  0.3734  0.2497
  170SAPS   H6X19308   5.225   4.700  -0.210 -0.5640  0.8335  0.6826
  170SAPS   H6Y19309   5.265   4.737  -0.030  1.5946  2.4955  0.9759
  170SAPS   C3719310   5.421   4.784  -0.177  0.7285  0.0626  0.2262
  170SAPS   H7X19311   5.476   4.703  -0.125 -1.6916 -1.2225  0.9309
  170SAPS   H7Y19312   5.452   4.885  -0.142 -1.0260  1.5960 -2.2876
  170SAPS   C3819313   5.444   4.770  -0.330 -0.2785 -0.2867  0.1533
  170SAPS   H8X19314   5.530   4.833  -0.362  0.0024  0.0649  1.5090
  170SAPS   H8Y19315   5.351   4.807  -0.378  0.8385  0.0972 -1.7859
  170SAPS   C3919316   5.470   4.629  -0.377  0.4026 -0.0872 -0.4219
  170SAPS   H9X19317   5.385   4.565  -0.346  0.7187  0.0617  0.8211
  170SAPS   H9Y19318   5.555   4.589  -0.317  0.8670  2.4881  0.7933
  170SAPS  C31019319   5.490   4.618  -0.526  0.0075  1.0064 -0.1830
  170SAPS  H10X19320   5.396   4.657  -0.571 -1.2843 -0.6405  0.9741
  170SAPS  H10Y19321   5.499   4.510  -0.550  2.6829  0.9741  0.6614
  170SAPS  C31119322   5.608   4.706  -0.581  0.9723  0.3381  0.1494
  170SAPS  H11X19323   5.686   4.697  -0.503 -0.3268  0.4515  1.4905
  170SAPS  H11Y19324   5.571   4.810  -0.593 -0.2516  0.0785  1.3891
  170SAPS  C31219325   5.669   4.652  -0.706 -0.4197  0.3049  0.1994
  170SAPS  H12X19326   5.694   4.545  -0.688 -1.4414 -0.0433 -0.3469
  170SAPS  H12Y19327   5.759   4.709  -0.737  1.7679 -2.8273  0.2796
  170SAPS  C31319328   5.580   4.643  -0.833  0.2267 -0.4696 -0.3709
  170SAPS  H13X19329   5.518   4.735  -0.841  0.6238  0.2046  2.9174
  170SAPS  H13Y19330   5.509   4.559  -0.826  0.3180 -0.4306  1.7952
  170SAPS  C31419331   5.662   4.628  -0.962 -0.5706  0.4453  0.1939
  170SAPS  H14X19332   5.725   4.537  -0.952  0.4118  1.2505  1.5939
  170SAPS  H14Y19333   5.731   4.714  -0.973  1.2860 -0.6889  2.1828
  170SAPS  C31519334   5.577   4.619  -1.090 -0.4104  0.7770  0.4366
  170SAPS  H15X19335   5.526   4.718  -1.100 -0.2091  0.8784  0.3931
  170SAPS  H15Y19336   5.509   4.533  -1.077 -0.8243  1.0812  0.2977
  170SAPS  C31619337   5.663   4.584  -1.209  0.6794  0.0124 -0.4006
  170SAPS  H16X19338   5.686   4.475  -1.209  1.3511  0.1480 -1.1077
  170SAPS  H16Y19339   5.757   4.640  -1.194  0.2842  1.6332 -3.1806
  170SAPS  C31719340   5.584   4.614  -1.336 -0.1425  0.0518  0.4742
  170SAPS  H17X19341   5.652   4.582  -1.418  0.6053  1.7256  0.3997
  170SAPS  H17Y19342   5.573   4.723  -1.351 -1.5012 -0.1522 -0.1297
  170SAPS  C31819343   5.453   4.536  -1.343 -0.9190  0.3110  0.2068
  170SAPS  H18X19344   5.387   4.584  -1.268  0.4102  0.5143  1.2866
  170SAPS  H18Y19345   5.463   4.426  -1.333 -2.0446  0.2003  0.2550
  170SAPS  H18Z19346   5.403   4.559  -1.440  1.4095  1.7687 -0.7606
  171SAPS     N19347   5.707   5.188   0.866  0.0160 -0.1778 -0.5614
  171SAPS   HN119348   5.723   5.251   0.785  0.6217 -0.8849 -0.9978
  171SAPS   HN219349   5.706   5.097   0.816 -2.3357 -0.7354  0.4033
  171SAPS   HN319350   5.618   5.189   0.920  0.6635 -1.7360  0.5896
  171SAPS   C1219351   5.827   5.174   0.958  0.1828  0.0938  0.5678
  171SAPS  H12A19352   5.835   5.273   1.001  0.7326  0.8704 -1.2398
  171SAPS   C1319353   5.803   5.067   1.072 -0.5517 -0.1280  0.1911
  171SAPS  O13A19354   5.698   4.994   1.070  0.8733 -0.3966 -0.8017
  171SAPS  O13B19355   5.893   5.047   1.157  0.4874 -0.3025 -0.3215
  171SAPS   C1119356   5.957   5.139   0.875  0.6627  0.6064 -0.1214
  171SAPS  H11A19357   5.924   5.050   0.816  0.9752  0.1940  0.3173
  171SAPS  H11B19358   6.039   5.116   0.946 -1.4046 -2.6872  1.4520
  171SAPS     P19359   6.125   5.264   0.709 -0.1203 -0.0900 -0.2847
  171SAPS   O1319360   6.130   5.396   0.638  0.3930  0.3551 -0.3451
  171SAPS   O1419361   6.234   5.236   0.807  0.4504  0.1567 -0.5714
  171SAPS   O1219362   5.987   5.251   0.789  0.0141  0.1676  0.6864
  171SAPS   O1119363   6.113   5.146   0.612 -0.4951  0.1076  0.2661
  171SAPS    C119364   5.993   5.082   0.563  0.0902 -0.4608  0.5444
  171SAPS    HA19365   6.011   4.972   0.564 -0.0231 -0.4947 -0.1564
  171SAPS    HB19366   5.899   5.106   0.617 -0.3829 -0.1986 -0.3716
  171SAPS    C219367   5.958   5.134   0.420 -0.6493 -0.2602 -0.4737
  171SAPS    HS19368   5.882   5.061   0.384 -1.4777  0.0688  0.5466
  171SAPS   O2119369   6.067   5.130   0.323 -0.2086  0.0885 -0.1503
  171SAPS   C2119370   6.122   5.019   0.314  0.2954  0.0220 -0.1179
  171SAPS   O2219371   6.080   4.907   0.349 -0.1131  0.2271  0.3334
  171SAPS   C2219372   6.244   5.043   0.219  0.0328  0.0135  0.0437
  171SAPS   H2R19373   6.207   5.124   0.154 -1.3398  0.1558  0.9505
  171SAPS   H2S19374   6.318   5.097   0.281 -0.5739 -0.4999  1.2611
  171SAPS    C319375   5.881   5.267   0.416  0.2518 -0.0861  1.0410
  171SAPS    HX19376   5.946   5.350   0.453 -1.5313  1.1143  1.6858
  171SAPS    HY19377   5.801   5.262   0.494  1.5447 -0.6397  2.3763
  171SAPS   O3119378   5.823   5.293   0.286  0.1775 -0.4779 -0.2708
  171SAPS   C3119379   5.755   5.406   0.280 -0.1871 -0.8097 -0.2632
  171SAPS   O3219380   5.737   5.491   0.368  0.0576 -0.3103  0.0683
  171SAPS   C3219381   5.711   5.417   0.135 -0.0697 -0.2231 -0.0091
  171SAPS   H2X19382   5.681   5.316   0.099  0.2173 -0.0135 -0.8703
  171SAPS   H2Y19383   5.808   5.452   0.094  1.5261 -3.1030  1.0421
  171SAPS   C2319384   6.293   4.922   0.135 -0.5687  0.9017 -0.6436
  171SAPS   H3R19385   6.313   4.843   0.211  0.5407  1.3244 -0.4764
  171SAPS   H3S19386   6.382   4.946   0.073 -1.0388 -0.2384 -1.7919
  171SAPS   C2419387   6.187   4.873   0.032 -0.6422  0.9654 -0.4483
  171SAPS   H4R19388   6.103   4.821   0.082  0.3988 -1.3678 -1.0098
  171SAPS   H4S19389   6.241   4.789  -0.016 -1.5678 -0.3255  0.7079
  171SAPS   C2519390   6.144   4.986  -0.058  0.3248  0.1305 -0.1353
  171SAPS   H5R19391   6.081   5.061  -0.009 -0.0695  0.5035 -1.1909
  171SAPS   C2619392   6.174   5.002  -0.183  0.1278  0.0715  0.1494
  171SAPS   H6R19393   6.142   5.093  -0.235 -0.2442  0.4088  0.9691
  171SAPS   C2719394   6.240   4.896  -0.264  0.2289  0.7200  0.4082
  171SAPS   H7R19395   6.191   4.899  -0.364  4.6589  4.2694 -2.0362
  171SAPS   H7S19396   6.239   4.793  -0.223 -1.5275  1.1637  1.6276
  171SAPS   C2819397   6.381   4.933  -0.298  0.3521  0.4185 -0.3518
  171SAPS   H8R19398   6.449   4.940  -0.212 -1.0281  0.2525  0.7920
  171SAPS   C2919399   6.423   4.961  -0.423  0.5322  0.0643 -0.6882
  171SAPS   H9R19400   6.528   4.991  -0.438  0.4884  0.0694 -0.9930
  171SAPS  C21019401   6.337   4.951  -0.545  0.0949  0.3406 -0.3587
  171SAPS  H10R19402   6.250   5.020  -0.549 -0.4163 -0.3220 -3.8349
  171SAPS  H10S19403   6.299   4.847  -0.556 -3.0266  1.4653 -1.3709
  171SAPS  C21119404   6.420   4.961  -0.674 -0.3644  0.0610 -0.0642
  171SAPS  H11R19405   6.501   4.888  -0.685 -0.9651 -0.6247  0.0018
  171SAPS  C21219406   6.410   5.054  -0.772  0.1869  0.0679 -0.6925
  171SAPS  H12R19407   6.465   5.040  -0.866  0.2989  0.2258 -0.6509
  171SAPS  C21319408   6.319   5.176  -0.784  0.1250  0.0911 -0.5285
  171SAPS  H13R19409   6.390   5.262  -0.789 -0.2139  0.4256  0.2064
  171SAPS  H13S19410   6.263   5.193  -0.690  0.9539  0.3887 -0.0733
  171SAPS  C21419411   6.220   5.187  -0.897 -0.0295  0.4235  1.1847
  171SAPS  H14R19412   6.123   5.150  -0.860 -0.6199 -1.3801 -1.8009
  171SAPS  C21519413   6.237   5.221  -1.025 -0.2278 -0.5845  0.2868
  171SAPS  H15R19414   6.162   5.217  -1.106 -0.8742 -3.8038  0.9226
  171SAPS  C21619415   6.375   5.260  -1.072  0.1236  0.1317 -0.1343
  171SAPS  H16R19416   6.457   5.229  -1.004  1.0101  1.5675 -0.4918
  171SAPS  H16S19417   6.386   5.371  -1.076 -0.3049  0.1527 -0.7335
  171SAPS  C21719418   6.415   5.198  -1.205 -0.1821 -0.6952 -0.5698
  171SAPS  H17R19419   6.515   5.225  -1.245 -0.5485 -1.8348 -2.3931
  171SAPS  H17S19420   6.331   5.217  -1.275 -2.5943 -1.6580  1.8702
  171SAPS  C21819421   6.428   5.042  -1.186 -0.6091 -1.1649 -0.6594
  171SAPS  H18R19422   6.347   4.999  -1.124 -0.7044 -0.5996 -0.3914
  171SAPS  H18S19423   6.522   5.015  -1.133 -0.1356  0.4187 -0.6422
  171SAPS  C21919424   6.440   4.959  -1.312  0.7751  0.0174  0.2741
  171SAPS  H19R19425   6.469   4.854  -1.288  1.2744  0.0361 -0.2301
  171SAPS  H19S19426   6.525   5.000  -1.371 -0.7399  1.6002 -0.9032
  171SAPS  C22019427   6.312   4.939  -1.403 -0.4482 -1.1229  0.6472
  171SAPS  H20R19428   6.345   4.919  -1.507  2.7457 -0.1606  1.3384
  171SAPS  H20S19429   6.259   5.036  -1.405 -0.8508 -1.3555 -0.4038
  171SAPS  H20T19430   6.241   4.870  -1.353 -2.4485 -0.4050 -1.0849
  171SAPS   C3319431   5.598   5.518   0.112  0.3036 -0.4474 -0.6345
  171SAPS   H3X19432   5.637   5.617   0.144 -0.6173 -0.4301  0.5250
  171SAPS   H3Y19433   5.506   5.492   0.168 -0.7973 -1.6757 -2.8715
  171SAPS   C3419434   5.546   5.541  -0.037 -0.2024  1.2965 -0.1634
  171SAPS   H4X19435   5.463   5.615  -0.039  0.3902  1.9585 -1.9720
  171SAPS   H4Y19436   5.502   5.449  -0.081 -2.5659  2.2407  0.0651
  171SAPS   C3519437   5.656   5.599  -0.129 -0.0507  0.5659 -0.2362
  171SAPS   H5X19438   5.729   5.517  -0.150 -1.9366 -1.1500 -0.3670
  171SAPS   H5Y19439   5.701   5.686  -0.076  1.4162 -0.4055  0.2046
  171SAPS   C3619440   5.595   5.651  -0.262 -0.5530 -0.2684  0.1081
  171SAPS   H6X19441   5.512   5.717  -0.228 -1.3119 -1.8945  1.5915
  171SAPS   H6Y19442   5.562   5.572  -0.333  1.2338 -0.2965 -0.7426
  171SAPS   C3719443   5.702   5.739  -0.331 -0.1239  0.7132  0.1619
  171SAPS   H7X19444   5.792   5.673  -0.330 -0.3904  0.2914  2.1279
  171SAPS   H7Y19445   5.728   5.832  -0.275  2.0616 -0.1714  0.7374
  171SAPS   C3819446   5.657   5.765  -0.473  0.6384 -0.0478 -0.1561
  171SAPS   H8X19447   5.567   5.829  -0.482  0.2669 -0.6788 -1.0336
  171SAPS   H8Y19448   5.626   5.662  -0.503 -0.3968 -0.7373  2.9137
  171SAPS   C3919449   5.763   5.830  -0.563 -0.0796 -0.5113  0.1221
  171SAPS   H9X19450   5.849   5.763  -0.587 -1.3374 -0.9850 -3.6864
  171SAPS   H9Y19451   5.814   5.916  -0.515  0.8874 -0.9305 -0.1327
  171SAPS  C31019452   5.697   5.872  -0.699  1.3748 -0.0843 -0.3856
  171SAPS  H10X19453   5.648   5.781  -0.739  0.1667  0.5042 -0.2819
  171SAPS  H10Y19454   5.773   5.910  -0.772 -0.9717  1.4850 -2.1997
  171SAPS  C31119455   5.609   5.997  -0.680  0.8236 -1.0057  0.4529
  171SAPS  H11X19456   5.676   6.078  -0.644  0.8166 -1.6424  1.9524
  171SAPS  H11Y19457   5.524   5.986  -0.610 -0.9870  1.7307 -1.1196
  171SAPS  C31219458   5.548   6.046  -0.811 -0.4727 -0.2102  0.0700
  171SAPS  H12X19459   5.467   6.118  -0.785 -0.7136 -0.3099 -0.3902
  171SAPS  H12Y19460   5.498   5.959  -0.858  0.9244 -1.4080  0.7527
  171SAPS  C31319461   5.628   6.108  -0.926 -0.0779  0.2548  0.2762
  171SAPS  H13X19462   5.696   6.032  -0.971 -3.2887 -2.6572 -0.0838
  171SAPS  H13Y19463   5.669   6.206  -0.894 -1.8802  1.3851 -0.7413
  171SAPS  C31419464   5.525   6.125  -1.038  0.0260  0.5095 -0.3704
  171SAPS  H14X19465   5.447   6.197  -1.007 -0.6760 -0.9462  1.4177
  171SAPS  H14Y19466   5.474   6.030  -1.066 -2.0769  1.7483 -0.9387
  171SAPS  C31519467   5.587   6.179  -1.164 -0.8072 -0.8474 -0.0160
  171SAPS  H15X19468   5.642   6.273  -1.143 -1.3363 -0.2178 -1.3238
  171SAPS  H15Y19469   5.503   6.212  -1.229  0.6188  2.1228 -0.5316
  171SAPS  C31619470   5.677   6.074  -1.237 -0.3388  0.3212  0.5769
  171SAPS  H16X19471   5.631   5.973  -1.245 -0.2811  0.4162 -1.5747
  171SAPS  H16Y19472   5.765   6.036  -1.182 -0.1247  1.1209  0.8037
  171SAPS  C31719473   5.726   6.118  -1.380 -0.2120 -0.1595 -0.4711
  171SAPS  H17X19474   5.794   6.204  -1.364  0.7704 -0.6858 -1.7176
  171SAPS  H17Y19475   5.632   6.153  -1.427  0.5770  0.0201 -1.9637
  171SAPS  C31819476   5.783   6.005  -1.470 -0.7359  0.2161  1.3383
  171SAPS  H18X19477   5.797   6.050  -1.571 -0.3018 -2.8789 -0.1382
  171SAPS  H18Y19478   5.712   5.920  -1.479 -1.1417  0.1878  3.9757
  171SAPS  H18Z19479   5.875   5.963  -1.425 -0.6278  1.3336  2.1981
  172SAPS     N19480   4.803   1.151   0.914 -0.1741 -0.0720 -0.1023
  172SAPS   HN119481   4.831   1.223   0.844 -1.4763 -1.0148 -1.6794
  172SAPS   HN219482   4.861   1.065   0.909 -0.5113 -0.4352  1.5664
  172SAPS   HN319483   4.707   1.117   0.890  0.6052 -0.4418 -3.1337
  172SAPS   C1219484   4.815   1.226   1.049  0.1276  0.0442  0.0136
  172SAPS  H12A19485   4.716   1.254   1.081  0.6558  1.6607  0.3482
  172SAPS   C1319486   4.866   1.125   1.148 -0.3226 -0.3677  0.0803
  172SAPS  O13A19487   4.868   1.001   1.118 -0.5745 -0.7294  0.3059
  172SAPS  O13B19488   4.873   1.161   1.270 -0.0265  0.0693  0.1767
  172SAPS   C1119489   4.895   1.360   1.036  0.1534  0.0148 -0.3044
  172SAPS  H11A19490   4.862   1.424   1.122 -1.3804  0.4578 -1.1772
  172SAPS  H11B19491   4.857   1.411   0.945 -1.7061 -0.4804  0.1444
  172SAPS     P19492   5.135   1.450   1.085  0.4956  0.6573  0.2462
  172SAPS   O1319493   5.056   1.547   1.158  0.1680  0.1227  0.6570
  172SAPS   O1419494   5.238   1.378   1.165 -0.2961  0.4267  0.1663
  172SAPS   O1219495   5.034   1.346   1.026 -0.4777  0.1193  0.7202
  172SAPS   O1119496   5.194   1.520   0.953 -0.3946  0.6920 -0.1937
  172SAPS    C119497   5.117   1.585   0.859 -0.3491  0.0395  0.6651
  172SAPS    HA19498   5.015   1.613   0.891 -0.5768 -0.7873  0.6777
  172SAPS    HB19499   5.160   1.681   0.824  1.8484 -0.2410  2.3987
  172SAPS    C219500   5.092   1.488   0.738  0.1398 -0.3374  0.0437
  172SAPS    HS19501   5.064   1.390   0.782  1.6554 -0.4412  0.8613
  172SAPS   O2119502   5.207   1.472   0.662  0.0286  0.3188  0.5124
  172SAPS   C2119503   5.229   1.355   0.607  0.4753 -0.0832 -0.2717
  172SAPS   O2219504   5.171   1.252   0.633  0.4414  0.2142 -0.0549
  172SAPS   C2219505   5.324   1.380   0.492 -0.1718  0.0577  0.5668
  172SAPS   H2R19506   5.330   1.489   0.469 -1.0292  0.0259  0.1449
  172SAPS   H2S19507   5.424   1.339   0.518  0.0814 -0.2484 -0.7863
  172SAPS    C319508   4.972   1.538   0.654  0.6284 -0.3432  0.4675
  172SAPS    HX19509   4.996   1.633   0.602 -0.5504 -1.0033 -1.3605
  172SAPS    HY19510   4.883   1.545   0.720  0.2160  0.0778 -0.1289
  172SAPS   O3119511   4.929   1.450   0.547 -0.2240  0.2897 -0.5712
  172SAPS   C3119512   4.876   1.329   0.575  0.3316  0.9805 -0.1644
  172SAPS   O3219513   4.843   1.292   0.684 -0.4474  0.0210 -0.6744
  172SAPS   C3219514   4.847   1.242   0.447  0.0714  0.1401  0.1494
  172SAPS   H2X19515   4.768   1.167   0.471  0.0877  0.1080  0.1041
  172SAPS   H2Y19516   4.941   1.183   0.440  0.4984  0.9977 -2.0054
  172SAPS   C2319517   5.276   1.297   0.367 -0.4918  0.5483  0.3117
  172SAPS   H3R19518   5.266   1.191   0.399 -2.1927  1.0437  1.5530
  172SAPS   H3S19519   5.354   1.291   0.288 -0.3552 -1.7039  0.5699
  172SAPS   C2419520   5.152   1.346   0.306  0.3376 -0.0878 -0.2908
  172SAPS   H4R19521   5.076   1.360   0.385 -1.1476  3.0554 -2.0627
  172SAPS   H4S19522   5.107   1.269   0.240 -2.7577 -1.2404  2.8769
  172SAPS   C2519523   5.176   1.477   0.233  0.1538  0.0001 -0.2726
  172SAPS   H5R19524   5.210   1.561   0.295 -1.7612  0.4693  0.2155
  172SAPS   C2619525   5.170   1.504   0.098 -0.5629  0.2775  0.1864
  172SAPS   H6R19526   5.192   1.609   0.073  1.8532 -0.1641  0.1356
  172SAPS   C2719527   5.119   1.419  -0.013  0.5007 -0.7622  0.4238
  172SAPS   H7R19528   5.059   1.484  -0.081  0.3128 -1.9088 -0.5349
  172SAPS   H7S19529   5.040   1.358   0.036 -1.3758  1.0715 -0.1840
  172SAPS   C2819530   5.218   1.335  -0.085 -0.2264  0.5612 -0.1777
  172SAPS   H8R19531   5.319   1.339  -0.042 -0.5916  0.2716  0.7224
  172SAPS   C2919532   5.206   1.279  -0.207  0.2136  0.1434  0.0205
  172SAPS   H9R19533   5.285   1.224  -0.260 -0.3328  0.8262 -1.5574
  172SAPS  C21019534   5.092   1.303  -0.299 -0.6540  0.0623  0.1399
  172SAPS  H10R19535   5.135   1.337  -0.395 -0.4447  0.7983  0.4839
  172SAPS  H10S19536   5.031   1.391  -0.267 -0.9417 -0.4447  1.0470
  172SAPS  C21119537   5.020   1.179  -0.329 -0.0532 -0.4182 -0.0251
  172SAPS  H11R19538   4.954   1.140  -0.249 -0.4299 -0.1625 -0.2072
  172SAPS  C21219539   5.034   1.099  -0.440 -0.5983  0.4407 -0.0592
  172SAPS  H12R19540   4.964   1.014  -0.447  1.4634 -1.3123 -0.2472
  172SAPS  C21319541   5.128   1.114  -0.555 -0.4044  0.0489 -0.5564
  172SAPS  H13R19542   5.129   1.012  -0.599  2.3146  0.1492 -0.8571
  172SAPS  H13S19543   5.229   1.127  -0.511  0.7523 -0.0771 -2.9916
  172SAPS  C21419544   5.106   1.223  -0.658  0.1684  0.3161  0.0470
  172SAPS  H14R19545   5.111   1.328  -0.626 -0.3032  0.8718 -1.6034
  172SAPS  C21519546   5.091   1.202  -0.790  0.1240 -0.4809 -0.3288
  172SAPS  H15R19547   5.084   1.292  -0.853  2.5695 -0.2121 -0.3325
  172SAPS  C21619548   5.070   1.075  -0.865 -0.2237  0.5704  0.1169
  172SAPS  H16R19549   4.962   1.068  -0.891 -0.8074  1.7837  1.9875
  172SAPS  H16S19550   5.096   0.985  -0.805  0.0750 -0.3183 -1.2803
  172SAPS  C21719551   5.161   1.058  -0.982 -1.0949 -0.1536  0.2501
  172SAPS  H17R19552   5.259   1.091  -0.940 -2.7054  2.5969  2.2138
  172SAPS  H17S19553   5.122   1.131  -1.055  0.2743  0.6997  0.3227
  172SAPS  C21819554   5.161   0.913  -1.040  0.1398  0.0658 -0.1436
  172SAPS  H18R19555   5.056   0.891  -1.070  0.0409 -2.6084  1.7759
  172SAPS  H18S19556   5.191   0.835  -0.967 -1.0284 -1.6087 -1.3911
  172SAPS  C21919557   5.249   0.896  -1.162  0.4071  0.1902 -0.1989
  172SAPS  H19R19558   5.238   0.988  -1.223 -0.9702  0.5229  0.5337
  172SAPS  H19S19559   5.220   0.808  -1.224  1.9759 -0.5625  0.0645
  172SAPS  C22019560   5.394   0.892  -1.138 -0.4738 -0.4630 -0.0741
  172SAPS  H20R19561   5.408   0.822  -1.053 -2.0780 -4.1242 -2.5636
  172SAPS  H20S19562   5.442   0.990  -1.115 -2.0753  0.1939  0.5879
  172SAPS  H20T19563   5.445   0.851  -1.228 -0.9506 -0.7716 -0.2049
  172SAPS   C3319564   4.808   1.309   0.323  0.5134 -0.1454  0.7912
  172SAPS   H3X19565   4.872   1.394   0.289 -0.3870 -0.6012 -2.3227
  172SAPS   H3Y19566   4.706   1.352   0.331 -0.3904 -2.0946  0.2857
  172SAPS   C3419567   4.789   1.209   0.207  0.3531  0.4448  0.0004
  172SAPS   H4X19568   4.725   1.128   0.248 -0.4466  0.3587 -1.3542
  172SAPS   H4Y19569   4.888   1.168   0.176  1.1529  1.2309  1.3894
  172SAPS   C3519570   4.707   1.266   0.085 -0.0718  0.0176  1.0666
  172SAPS   H5X19571   4.769   1.355   0.057 -1.4821  1.0792  1.2186
  172SAPS   H5Y19572   4.606   1.305   0.111 -0.5854 -0.4426 -0.1563
  172SAPS   C3619573   4.699   1.165  -0.033  0.3655 -0.3246  0.2924
  172SAPS   H6X19574   4.626   1.081  -0.019  0.0427 -0.0343  0.3625
  172SAPS   H6Y19575   4.798   1.118  -0.051  0.8647  0.8437 -0.1038
  172SAPS   C3719576   4.667   1.242  -0.165  0.4226 -0.2456 -0.1840
  172SAPS   H7X19577   4.753   1.309  -0.185 -0.3586  1.2771  1.2903
  172SAPS   H7Y19578   4.574   1.299  -0.146 -0.0285 -1.1680  0.4938
  172SAPS   C3819579   4.645   1.146  -0.284  0.3335  0.2228  0.2158
  172SAPS   H8X19580   4.562   1.078  -0.254  0.5154 -0.6553 -1.1774
  172SAPS   H8Y19581   4.736   1.083  -0.297  0.2071 -0.2210  1.3746
  172SAPS   C3919582   4.599   1.212  -0.416  0.3918  0.4342  0.3717
  172SAPS   H9X19583   4.681   1.283  -0.440 -2.1568  3.2556 -0.5222
  172SAPS   H9Y19584   4.518   1.281  -0.387 -0.5705  0.3385 -1.8898
  172SAPS  C31019585   4.567   1.116  -0.531 -0.0825 -0.3075 -0.3961
  172SAPS  H10X19586   4.461   1.086  -0.520  0.1648 -0.4599  2.1318
  172SAPS  H10Y19587   4.630   1.024  -0.526 -2.1974 -1.7433  3.2314
  172SAPS  C31119588   4.598   1.176  -0.667  0.5931  0.8451 -0.2954
  172SAPS  H11X19589   4.687   1.243  -0.659  1.2345 -0.0536  0.2276
  172SAPS  H11Y19590   4.510   1.237  -0.697 -1.6014 -1.9343  0.0878
  172SAPS  C31219591   4.619   1.061  -0.776 -0.4997 -0.0283 -0.0753
  172SAPS  H12X19592   4.538   0.986  -0.764 -0.0082 -0.4563  0.6221
  172SAPS  H12Y19593   4.716   1.009  -0.764 -0.3674 -0.3006 -2.0020
  172SAPS  C31319594   4.612   1.116  -0.917 -0.0869 -0.5038 -0.2333
  172SAPS  H13X19595   4.516   1.169  -0.932  0.1891 -0.2526 -1.2111
  172SAPS  H13Y19596   4.612   1.035  -0.993  2.7271  0.4498 -1.3997
  172SAPS  C31419597   4.727   1.208  -0.952  0.1496 -0.5637  1.2109
  172SAPS  H14X19598   4.816   1.148  -0.980  1.1056  0.9832  0.8396
  172SAPS  H14Y19599   4.751   1.271  -0.863  3.7726 -2.3675  1.7031
  172SAPS  C31519600   4.694   1.288  -1.077 -0.3316 -0.6417  0.5577
  172SAPS  H15X19601   4.774   1.363  -1.094 -0.1540 -1.3094 -2.0397
  172SAPS  H15Y19602   4.602   1.347  -1.057  1.5897  2.3244  1.2668
  172SAPS  C31619603   4.676   1.203  -1.200 -0.3880 -0.4978  0.0552
  172SAPS  H16X19604   4.764   1.141  -1.228 -0.5067  0.4163 -2.7377
  172SAPS  H16Y19605   4.584   1.141  -1.194 -0.5932 -0.2633 -0.5782
  172SAPS  C31719606   4.653   1.300  -1.316 -0.4981  0.2805  0.0356
  172SAPS  H17X19607   4.743   1.359  -1.342 -1.6440  2.0571 -0.0759
  172SAPS  H17Y19608   4.587   1.385  -1.290 -0.7435 -0.0902  0.6455
  172SAPS  C31819609   4.615   1.226  -1.437 -0.0702  0.3937 -0.0620
  172SAPS  H18X19610   4.523   1.167  -1.416  0.0203  0.2990  0.0701
  172SAPS  H18Y19611   4.704   1.166  -1.465 -0.7787 -1.1666  0.9178
  172SAPS  H18Z19612   4.593   1.283  -1.530  1.7228 -1.0457 -1.4548
  173SAPS     N19613   6.088   0.325   5.066  0.4247 -0.5601  0.2153
  173SAPS   HN119614   6.064   0.397   5.136  1.1625 -0.9170  0.8572
  173SAPS   HN219615   6.041   0.233   5.078  0.6948 -0.9125 -1.2807
  173SAPS   HN319616   6.190   0.306   5.058  0.1697 -1.8424 -0.2841
  173SAPS   C1219617   6.049   0.367   4.930 -0.3026  0.6433  0.2600
  173SAPS  H12A19618   6.069   0.471   4.912  1.0943  0.1280 -1.4930
  173SAPS   C1319619   6.134   0.299   4.818 -0.4014 -0.1200  0.0823
  173SAPS  O13A19620   6.247   0.252   4.849  0.0203 -0.0829  0.0313
  173SAPS  O13B19621   6.107   0.322   4.694  0.3039 -0.3074 -0.4129
  173SAPS   C1119622   5.895   0.340   4.912  0.9440 -0.1414  0.2260
  173SAPS  H11A19623   5.881   0.232   4.937  0.1442 -0.3114 -0.8897
  173SAPS  H11B19624   5.864   0.352   4.806  1.6123 -1.4183 -0.1347
  173SAPS     P19625   5.667   0.396   5.050 -0.1324  0.0539  0.0853
  173SAPS   O1319626   5.621   0.528   5.104  0.9368  0.1309  0.0597
  173SAPS   O1419627   5.600   0.339   4.933  0.5832  0.2920  1.2410
  173SAPS   O1219628   5.821   0.417   5.012 -0.5295  0.2488  0.0144
  173SAPS   O1119629   5.656   0.294   5.171  0.3834  0.0289  0.6629
  173SAPS    C119630   5.706   0.325   5.296  0.5662 -0.0552 -1.0092
  173SAPS    HA19631   5.787   0.401   5.293  2.2123 -1.7208 -0.6101
  173SAPS    HB19632   5.626   0.356   5.366  0.7399 -3.6711  1.0293
  173SAPS    C219633   5.776   0.209   5.357 -0.6104  0.2823 -0.1895
  173SAPS    HS19634   5.785   0.134   5.275  0.2667 -0.7968  0.8564
  173SAPS   O2119635   5.702   0.164   5.472 -0.0045  0.6649  0.9960
  173SAPS   C2119636   5.728   0.040   5.508 -1.1698  0.1280 -0.2572
  173SAPS   O2219637   5.807  -0.038   5.454  0.3156  0.2923 -0.3256
  173SAPS   C2219638   5.653   0.021   5.643 -0.3544  0.2414 -0.2031
  173SAPS   H2R19639   5.562   0.086   5.645 -1.2255 -0.9207 -0.7279
  173SAPS   H2S19640   5.613  -0.083   5.642 -0.1650  0.1699 -0.2383
  173SAPS    C319641   5.924   0.243   5.396  0.3330 -0.2684 -0.1596
  173SAPS    HX19642   5.971   0.283   5.303 -0.2025  0.0160 -0.3117
  173SAPS    HY19643   5.969   0.144   5.420 -0.2950 -0.7289 -0.8242
  173SAPS   O3119644   5.929   0.342   5.496  0.6878  0.4215 -0.3450
  173SAPS   C3119645   6.046   0.338   5.558 -0.2628  0.1973 -0.3520
  173SAPS   O3219646   6.139   0.271   5.524 -0.7718 -0.0613 -0.0171
  173SAPS   C3219647   6.053   0.431   5.679  0.5588 -0.3674 -0.5857
  173SAPS   H2X19648   5.998   0.392   5.767  2.2716 -2.3715 -0.3228
  173SAPS   H2Y19649   6.012   0.531   5.653 -1.0762 -1.1206 -1.0317
  173SAPS   C2319650   5.745   0.037   5.768 -0.1336 -0.4218  0.5496
  173SAPS   H3R19651   5.821  -0.041   5.744  1.7286  0.0634  4.2842
  173SAPS   H3S19652   5.686   0.011   5.858 -0.6992  1.2902  0.7051
  173SAPS   C2419653   5.813   0.173   5.785  0.0402  0.3135 -0.1070
  173SAPS   H4R19654   5.866   0.185   5.688 -1.0971 -2.6752 -1.2078
  173SAPS   H4S19655   5.889   0.156   5.864 -1.2891 -2.7007  0.6631
  173SAPS   C2519656   5.728   0.289   5.809  0.1125  0.1082 -0.8333
  173SAPS   H5R19657   5.702   0.355   5.725  1.6265  1.2522 -0.4639
  173SAPS   C2619658   5.716   0.347   5.931 -0.1207 -0.3137  0.1641
  173SAPS   H6R19659   5.647   0.432   5.932 -0.6796 -0.6983 -1.7038
  173SAPS   C2719660   5.777   0.305   6.063  0.1885 -0.6376  0.0391
  173SAPS   H7R19661   5.806   0.393   6.124 -1.1380  0.1861 -0.4968
  173SAPS   H7S19662   5.877   0.257   6.050  1.2436  0.5184  3.1147
  173SAPS   C2819663   5.698   0.199   6.130  0.3897  0.1914 -0.1465
  173SAPS   H8R19664   5.657   0.113   6.074  0.5203  0.6966 -1.0422
  173SAPS   C2919665   5.675   0.187   6.257 -0.1445  0.5123 -0.4339
  173SAPS   H9R19666   5.616   0.099   6.289 -1.8894  1.9046  0.3563
  173SAPS  C21019667   5.717   0.274   6.371  0.6121  0.5849 -0.2874
  173SAPS  H10R19668   5.634   0.285   6.443  0.1830  0.9593 -0.8300
  173SAPS  H10S19669   5.727   0.377   6.331 -1.0854 -0.4643 -3.7878
  173SAPS  C21119670   5.845   0.229   6.441 -0.9146 -0.3563  0.1136
  173SAPS  H11R19671   5.924   0.211   6.367  0.7982  0.5453  1.6564
  173SAPS  C21219672   5.879   0.234   6.573 -0.9561 -1.1231  0.7871
  173SAPS  H12R19673   5.975   0.188   6.598  0.3839  1.4021  0.6268
  173SAPS  C21319674   5.794   0.290   6.680 -0.1804  0.2151 -0.7843
  173SAPS  H13R19675   5.736   0.370   6.629 -0.5920 -0.0927 -0.8087
  173SAPS  H13S19676   5.855   0.341   6.757 -2.9751 -0.3998  2.0730
  173SAPS  C21419677   5.688   0.191   6.736 -0.1021  0.4533  0.7692
  173SAPS  H14R19678   5.664   0.107   6.669  0.1811 -0.4934  1.8289
  173SAPS  C21519679   5.648   0.185   6.863  0.4861  0.2310 -0.8816
  173SAPS  H15R19680   5.584   0.104   6.901  1.2333  0.5480  1.2118
  173SAPS  C21619681   5.674   0.294   6.969  0.0914 -0.3498 -0.3011
  173SAPS  H16R19682   5.659   0.396   6.926  2.0775  0.4269  0.6897
  173SAPS  H16S19683   5.781   0.307   6.998 -0.7305  2.2354  2.0376
  173SAPS  C21719684   5.601   0.283   7.113  0.4500  0.4736  0.4581
  173SAPS  H17R19685   5.491   0.288   7.101  0.4114  0.1298  0.6836
  173SAPS  H17S19686   5.637   0.372   7.168  0.7781  0.1710  0.7327
  173SAPS  C21819687   5.650   0.161   7.186 -0.0833 -0.2409 -0.6246
  173SAPS  H18R19688   5.760   0.157   7.199  0.0102  3.4450  1.1112
  173SAPS  H18S19689   5.621   0.070   7.128 -0.1782 -0.5140 -0.1553
  173SAPS  C21919690   5.585   0.123   7.317  0.0093  0.2144 -0.2901
  173SAPS  H19R19691   5.596   0.013   7.325 -0.4240  0.3166  2.5191
  173SAPS  H19S19692   5.477   0.144   7.300  0.5349  3.0275 -0.6345
  173SAPS  C22019693   5.640   0.208   7.433 -0.1928  0.4587  0.2174
  173SAPS  H20R19694   5.748   0.192   7.448 -0.6087 -1.5854  1.4719
  173SAPS  H20S19695   5.585   0.175   7.524  0.9198  1.3980  1.2586
  173SAPS  H20T19696   5.618   0.316   7.420 -0.0243  0.7749  2.3091
  173SAPS   C3319697   6.194   0.452   5.733 -0.1274 -0.1858 -0.4843
  173SAPS   H3X19698   6.247   0.503   5.650  0.8622  0.9833  0.8281
  173SAPS   H3Y19699   6.252   0.358   5.752  1.1156 -0.6466 -5.2046
  173SAPS   C3419700   6.187   0.537   5.862  0.3534 -0.5870  0.0704
  173SAPS   H4X19701   6.131   0.632   5.848 -1.0629 -1.3638  0.3231
  173SAPS   H4Y19702   6.292   0.572   5.873  0.0387  0.9431 -1.4247
  173SAPS   C3519703   6.140   0.457   5.978 -0.4696 -0.0984  0.2699
  173SAPS   H5X19704   6.195   0.360   5.974  0.2881  0.3632 -1.0868
  173SAPS   H5Y19705   6.030   0.440   5.979 -0.1969 -2.1657  0.5494
  173SAPS   C3619706   6.197   0.520   6.103 -0.2826 -0.2748  0.0134
  173SAPS   H6X19707   6.186   0.631   6.103 -1.7550 -0.3351 -2.2930
  173SAPS   H6Y19708   6.306   0.499   6.096 -0.5158 -0.9203 -2.8113
  173SAPS   C3719709   6.142   0.462   6.232  0.4250  1.1118 -0.3056
  173SAPS   H7X19710   6.144   0.354   6.207  0.8862  0.4598  2.3221
  173SAPS   H7Y19711   6.036   0.491   6.251 -0.3306 -1.8277  0.4601
  173SAPS   C3819712   6.222   0.489   6.356  0.3689  0.6808  0.3052
  173SAPS   H8X19713   6.231   0.600   6.361 -1.6090  0.8284  1.6440
  173SAPS   H8Y19714   6.323   0.445   6.338 -0.0760 -0.6499  0.9667
  173SAPS   C3919715   6.163   0.436   6.492  0.3073  0.1253  0.8091
  173SAPS   H9X19716   6.163   0.325   6.494  0.6081  0.1372  2.0818
  173SAPS   H9Y19717   6.061   0.481   6.484 -0.1227 -1.1146 -2.1367
  173SAPS  C31019718   6.237   0.476   6.620 -0.0463 -0.2598 -0.7926
  173SAPS  H10X19719   6.223   0.582   6.650  0.1732 -0.8438  1.5959
  173SAPS  H10Y19720   6.345   0.453   6.629 -0.5840 -2.1763  2.5966
  173SAPS  C31119721   6.177   0.395   6.732  0.0462  0.1597 -0.3479
  173SAPS  H11X19722   6.210   0.289   6.736 -0.9904 -0.1450  1.3948
  173SAPS  H11Y19723   6.066   0.393   6.725  0.0667 -3.1756 -1.2745
  173SAPS  C31219724   6.214   0.460   6.865  0.2298  0.0267 -0.1733
  173SAPS  H12X19725   6.209   0.571   6.864  1.7683  0.1171 -0.0335
  173SAPS  H12Y19726   6.317   0.425   6.887 -0.8738 -1.9093  2.4765
  173SAPS  C31319727   6.122   0.412   6.972 -0.0762  0.5282  0.2319
  173SAPS  H13X19728   6.121   0.301   6.976 -1.2097  0.5562  1.3147
  173SAPS  H13Y19729   6.022   0.450   6.939 -1.4326 -2.7297  0.1928
  173SAPS  C31419730   6.145   0.465   7.118  0.0717  0.1716  0.3749
  173SAPS  H14X19731   6.061   0.431   7.182  0.9892 -0.4784  1.2668
  173SAPS  H14Y19732   6.137   0.576   7.117 -0.3991  0.1537  1.3826
  173SAPS  C31519733   6.274   0.410   7.177 -0.1335 -0.8821  0.4016
  173SAPS  H15X19734   6.300   0.310   7.136  1.5495 -0.9108  1.4699
  173SAPS  H15Y19735   6.266   0.400   7.287  1.9462 -1.6591  0.5274
  173SAPS  C31619736   6.397   0.510   7.169  0.0304 -0.4968  0.1940
  173SAPS  H16X19737   6.427   0.561   7.075  0.3737  1.9457  1.5520
  173SAPS  H16Y19738   6.491   0.459   7.198 -0.6002 -1.0298  1.3530
  173SAPS  C31719739   6.381   0.630   7.272 -0.4109 -0.5455  0.7265
  173SAPS  H17X19740   6.335   0.596   7.367 -0.1813 -1.2264  0.6035
  173SAPS  H17Y19741   6.312   0.694   7.212  0.2825 -1.4230 -1.0967
  173SAPS  C31819742   6.507   0.714   7.297 -0.7016 -0.1758 -0.5065
  173SAPS  H18X19743   6.545   0.738   7.195  0.0285 -2.4457 -0.8284
  173SAPS  H18Y19744   6.580   0.659   7.361 -0.3104  0.2012 -0.6219
  173SAPS  H18Z19745   6.487   0.808   7.353  0.8090  1.0029 -1.8440
  174SAPS     N19746   0.908   0.291   4.652  0.0701  0.0308 -0.3574
  174SAPS   HN119747   0.910   0.320   4.752  0.5817 -1.0416 -0.0491
  174SAPS   HN219748   0.890   0.189   4.652  3.2226 -0.7543 -3.9828
  174SAPS   HN319749   0.995   0.301   4.597 -0.5075  0.3246 -1.2428
  174SAPS   C1219750   0.782   0.356   4.593 -0.1005  0.0831  0.1961
  174SAPS  H12A19751   0.792   0.463   4.602 -3.1628  0.6083 -1.4561
  174SAPS   C1319752   0.758   0.344   4.443  0.5632 -0.0915  0.6462
  174SAPS  O13A19753   0.840   0.274   4.377  0.5743  0.0785  0.3483
  174SAPS  O13B19754   0.648   0.385   4.393 -0.3216  0.0664 -0.2908
  174SAPS   C1119755   0.663   0.302   4.674  0.1970  0.2241 -0.0271
  174SAPS  H11A19756   0.644   0.194   4.652 -1.4226  0.9183 -2.4524
  174SAPS  H11B19757   0.571   0.344   4.627  1.1891 -1.2329 -3.5492
  174SAPS     P19758   0.672   0.237   4.927  0.3258 -0.0188 -0.2222
  174SAPS   O1319759   0.792   0.157   4.910 -0.0484 -0.3868 -0.4011
  174SAPS   O1419760   0.662   0.326   5.043 -0.0421  0.0020  0.1323
  174SAPS   O1219761   0.661   0.343   4.810 -0.0714  0.0933  0.5332
  174SAPS   O1119762   0.545   0.147   4.920  0.4767 -0.1593  0.0514
  174SAPS    C119763   0.545   0.017   4.976 -0.0269  0.0389  0.3177
  174SAPS    HA19764   0.448  -0.029   4.949 -0.1078 -0.2152  1.0197
  174SAPS    HB19765   0.629  -0.048   4.944  0.4050  0.7479 -0.0190
  174SAPS    C219766   0.548   0.012   5.135  0.2962  0.1750 -0.8404
  174SAPS    HS19767   0.475   0.093   5.155  0.4356 -0.0312  0.6332
  174SAPS   O2119768   0.686   0.028   5.175  0.0790 -0.5996 -0.3922
  174SAPS   C2119769   0.685   0.098   5.286 -1.1272  0.5128 -0.0037
  174SAPS   O2219770   0.608   0.173   5.333  0.8282  0.0673  0.0963
  174SAPS   C2219771   0.821   0.072   5.345  0.3553  0.0205 -0.3539
  174SAPS   H2R19772   0.896   0.104   5.270 -0.6356  2.6687 -0.3226
  174SAPS   H2S19773   0.832   0.144   5.429 -0.0429 -1.3065  0.8834
  174SAPS    C319774   0.491  -0.126   5.184  0.2616 -0.2343  0.9649
  174SAPS    HX19775   0.576  -0.195   5.167 -0.4945 -0.7617 -0.8871
  174SAPS    HY19776   0.409  -0.140   5.111  0.2774  0.9556  0.6901
  174SAPS   O3119777   0.443  -0.104   5.315 -0.0972 -0.2933 -0.2451
  174SAPS   C3119778   0.376  -0.207   5.368  0.4110  0.3006 -0.0022
  174SAPS   O3219779   0.351  -0.312   5.314 -0.3233  0.3313  0.2993
  174SAPS   C3219780   0.344  -0.177   5.519  0.2633  0.1958 -0.3023
  174SAPS   H2X19781   0.295  -0.272   5.550  1.7270 -0.1876  0.9163
  174SAPS   H2Y19782   0.276  -0.089   5.525  0.2065  0.1586 -0.3997
  174SAPS   C2319783   0.830  -0.074   5.396 -0.3782  0.0475 -0.1361
  174SAPS   H3R19784   0.842  -0.140   5.308  1.4474 -0.4406  0.4321
  174SAPS   H3S19785   0.743  -0.098   5.462  0.3523  0.5110  1.0359
  174SAPS   C2419786   0.959  -0.090   5.484 -0.3026  0.1658  0.4334
  174SAPS   H4R19787   1.049  -0.048   5.434 -0.2576  3.4968  2.9594
  174SAPS   H4S19788   0.969  -0.200   5.498 -3.3949 -0.0436  1.7898
  174SAPS   C2519789   0.958  -0.024   5.619 -0.3081 -0.0078 -0.5565
  174SAPS   H5R19790   0.967   0.086   5.625  0.2238 -0.1188  2.1340
  174SAPS   C2619791   0.985  -0.083   5.735  0.2645 -0.0756 -0.1757
  174SAPS   H6R19792   0.970  -0.013   5.818  0.7428 -0.1568 -0.0182
  174SAPS   C2719793   1.007  -0.227   5.773  0.0830 -0.4156  0.7889
  174SAPS   H7R19794   0.970  -0.292   5.690  2.0568 -0.5182 -0.0520
  174SAPS   H7S19795   0.935  -0.266   5.849  2.1990 -3.2572  1.5199
  174SAPS   C2819796   1.151  -0.254   5.803 -0.9007 -0.0056 -0.0320
  174SAPS   H8R19797   1.217  -0.226   5.719 -1.0208 -2.3041 -0.9565
  174SAPS   C2919798   1.220  -0.303   5.907  0.3744 -0.7464 -0.5853
  174SAPS   H9R19799   1.328  -0.325   5.899 -0.3070 -3.9048 -3.2282
  174SAPS  C21019800   1.148  -0.360   6.029  0.4149 -0.5658 -0.1492
  174SAPS  H10R19801   1.218  -0.423   6.087  1.5326  1.3402  0.6531
  174SAPS  H10S19802   1.065  -0.419   5.985 -0.6679 -0.1998  1.3290
  174SAPS  C21119803   1.073  -0.256   6.109 -0.0305  0.1951 -0.8706
  174SAPS  H11R19804   1.062  -0.155   6.065 -0.4220  0.5122 -0.0776
  174SAPS  C21219805   1.036  -0.280   6.242 -0.2810 -0.4904  1.1724
  174SAPS  H12R19806   0.976  -0.197   6.284 -0.7230 -0.3423  0.2688
  174SAPS  C21319807   1.054  -0.410   6.314  0.5327  0.4082 -0.2926
  174SAPS  H13R19808   1.062  -0.489   6.236 -2.9712  0.9706 -1.3975
  174SAPS  H13S19809   0.965  -0.449   6.368  0.9081 -2.7679 -1.7215
  174SAPS  C21419810   1.159  -0.409   6.426  0.3550 -0.3768 -0.5741
  174SAPS  H14R19811   1.163  -0.335   6.507 -0.5656 -1.9806  0.9952
  174SAPS  C21519812   1.248  -0.511   6.440  0.2387 -0.0796 -0.4608
  174SAPS  H15R19813   1.313  -0.511   6.529 -1.3312 -0.6200  0.7418
  174SAPS  C21619814   1.277  -0.629   6.352 -0.5321  0.9389  0.0810
  174SAPS  H16R19815   1.209  -0.641   6.265 -2.8024 -0.4948  1.9046
  174SAPS  H16S19816   1.265  -0.721   6.414  0.8040  0.5257 -0.2512
  174SAPS  C21719817   1.410  -0.614   6.282 -0.1910  0.1802 -0.1310
  174SAPS  H17R19818   1.487  -0.594   6.359  0.0478 -2.3022  0.3628
  174SAPS  H17S19819   1.409  -0.522   6.221 -2.7235  0.4185  0.1921
  174SAPS  C21819820   1.448  -0.733   6.199  0.0789  0.5525  0.1563
  174SAPS  H18R19821   1.363  -0.768   6.136 -1.1872  2.4714  0.7013
  174SAPS  H18S19822   1.463  -0.819   6.267 -0.5117  0.7988  0.6072
  174SAPS  C21919823   1.569  -0.716   6.113  0.2412  0.8127 -0.4576
  174SAPS  H19R19824   1.660  -0.694   6.174 -1.4896  3.0469  1.4885
  174SAPS  H19S19825   1.548  -0.632   6.044  0.3129  0.2118 -1.2273
  174SAPS  C22019826   1.590  -0.846   6.024  0.4331 -0.7027 -0.4362
  174SAPS  H20R19827   1.688  -0.859   5.973 -0.7390 -1.8110 -2.5223
  174SAPS  H20S19828   1.529  -0.842   5.932  0.1361 -1.1708 -0.2650
  174SAPS  H20T19829   1.561  -0.930   6.092  0.6089 -0.6114 -0.2447
  174SAPS   C3319830   0.472  -0.148   5.595 -0.1132 -0.5888 -0.2608
  174SAPS   H3X19831   0.519  -0.055   5.557 -1.5591 -0.0665 -0.8641
  174SAPS   H3Y19832   0.540  -0.232   5.568  1.7374 -0.1293  2.5242
  174SAPS   C3419833   0.456  -0.133   5.750  0.2274  0.4794 -0.0579
  174SAPS   H4X19834   0.557  -0.132   5.795 -1.3365 -1.3961  4.0132
  174SAPS   H4Y19835   0.401  -0.217   5.799  2.1680 -0.8139 -0.0078
  174SAPS   C3519836   0.406   0.009   5.788  0.9691  0.0576  0.8027
  174SAPS   H5X19837   0.299   0.030   5.766  1.2478  1.3388  0.5597
  174SAPS   H5Y19838   0.472   0.079   5.731 -1.4928  0.4965 -1.7454
  174SAPS   C3619839   0.431   0.042   5.937  0.0546 -0.5765 -0.4443
  174SAPS   H6X19840   0.541   0.049   5.947 -0.0853 -1.7996  4.1462
  174SAPS   H6Y19841   0.388  -0.038   6.001 -1.4019 -0.4112 -1.1754
  174SAPS   C3719842   0.367   0.177   5.981 -0.6136  0.1110  0.1130
  174SAPS   H7X19843   0.258   0.177   5.961 -0.7375  2.0295  0.5314
  174SAPS   H7Y19844   0.410   0.254   5.913  0.9599 -0.5407  0.3261
  174SAPS   C3819845   0.405   0.198   6.132  0.0701  0.4410 -0.4711
  174SAPS   H8X19846   0.392   0.308   6.141  1.9131  0.5738  1.1551
  174SAPS   H8Y19847   0.510   0.168   6.153  0.0248  0.1218 -0.6873
  174SAPS   C3919848   0.315   0.119   6.226  0.4065 -0.3435 -0.7639
  174SAPS   H9X19849   0.352   0.014   6.218  2.9681  0.3858  0.5298
  174SAPS   H9Y19850   0.206   0.120   6.206 -0.5448 -1.0762  3.4134
  174SAPS  C31019851   0.334   0.182   6.364 -0.4493 -0.1569  0.7794
  174SAPS  H10X19852   0.277   0.278   6.368 -0.4139 -0.1539  1.2363
  174SAPS  H10Y19853   0.440   0.195   6.393  0.3778 -2.6795 -0.7842
  174SAPS  C31119854   0.283   0.094   6.477  0.7807  0.7901 -0.1486
  174SAPS  H11X19855   0.323  -0.008   6.462 -0.8954  0.3668 -2.2703
  174SAPS  H11Y19856   0.178   0.072   6.447  0.8204 -0.1221  0.3536
  174SAPS  C31219857   0.299   0.153   6.620  0.3010  0.3553 -0.0085
  174SAPS  H12X19858   0.246   0.248   6.641 -0.0181  0.4849 -1.2978
  174SAPS  H12Y19859   0.408   0.168   6.632  0.5450 -1.5931  0.6368
  174SAPS  C31319860   0.240   0.054   6.729 -0.3504 -0.6847 -0.5490
  174SAPS  H13X19861   0.277  -0.048   6.705  1.3767  0.3467 -2.6586
  174SAPS  H13Y19862   0.132   0.063   6.704 -0.6601 -2.6853 -0.0754
  174SAPS  C31419863   0.277   0.094   6.870 -0.2539 -0.1021 -0.6224
  174SAPS  H14X19864   0.240   0.197   6.888 -0.9575 -0.8713  3.3331
  174SAPS  H14Y19865   0.388   0.092   6.875 -0.1784  2.0823 -0.1314
  174SAPS  C31519866   0.212   0.020   6.996 -0.0187 -0.4031  0.2672
  174SAPS  H15X19867   0.102   0.030   6.987  0.1467  0.4767 -1.1042
  174SAPS  H15Y19868   0.228   0.088   7.083 -1.5372  2.8204 -1.7657
  174SAPS  C31619869   0.259  -0.122   7.024 -0.1666  0.4026  0.2263
  174SAPS  H16X19870   0.366  -0.128   6.993 -0.1468 -0.1576  0.3866
  174SAPS  H16Y19871   0.195  -0.184   6.957  0.5272 -0.9202  0.7359
  174SAPS  C31719872   0.246  -0.155   7.169  0.7562  0.6552 -0.0248
  174SAPS  H17X19873   0.139  -0.144   7.195  1.0330  0.4474  1.2875
  174SAPS  H17Y19874   0.294  -0.073   7.226 -3.1944  1.6324  2.2360
  174SAPS  C31819875   0.296  -0.294   7.214 -0.2687 -0.2320  0.6633
  174SAPS  H18X19876   0.407  -0.304   7.217 -0.2199 -1.5233 -2.0576
  174SAPS  H18Y19877   0.262  -0.369   7.139 -1.2496  2.5829 -1.9039
  174SAPS  H18Z19878   0.240  -0.323   7.305 -2.9308  1.0035 -0.4617
  175SAPS     N19879   5.154   5.811   5.172 -0.7455  0.5261 -0.0820
  175SAPS   HN119880   5.114   5.890   5.227 -0.3465  1.0166 -0.4877
  175SAPS   HN219881   5.076   5.748   5.144 -1.2444  0.8533  0.5457
  175SAPS   HN319882   5.210   5.765   5.247 -1.4461 -0.3231 -0.0561
  175SAPS   C1219883   5.240   5.854   5.063  0.6312  0.4737  0.3199
  175SAPS  H12A19884   5.291   5.767   5.024 -0.6838 -0.5993  0.8799
  175SAPS   C1319885   5.156   5.904   4.936 -0.3698  0.1081 -0.3557
  175SAPS  O13A19886   5.035   5.879   4.932  0.8197 -0.2770 -0.4683
  175SAPS  O13B19887   5.221   5.954   4.840  0.0608 -0.2049 -0.2939
  175SAPS   C1119888   5.333   5.966   5.110 -0.8287 -0.0386  0.1036
  175SAPS  H11A19889   5.393   6.012   5.029 -0.3993  0.8838  0.9309
  175SAPS  H11B19890   5.400   5.908   5.176 -0.2510 -0.4084 -0.7904
  175SAPS     P19891   5.299   6.224   5.175 -0.3492  0.1227 -0.1158
  175SAPS   O1319892   5.377   6.253   5.059 -0.0759  0.0925 -0.4438
  175SAPS   O1419893   5.173   6.297   5.199 -0.1071  0.0163 -0.2557
  175SAPS   O1219894   5.267   6.065   5.184 -0.2599 -0.3491 -0.1454
  175SAPS   O1119895   5.396   6.243   5.297 -0.1601  0.6475 -0.1544
  175SAPS    C119896   5.493   6.148   5.342  0.5198  0.3182 -0.6866
  175SAPS    HA19897   5.515   6.080   5.257 -0.1850  1.4787 -1.8425
  175SAPS    HB19898   5.582   6.205   5.376  0.0946  0.6121 -0.0594
  175SAPS    C219899   5.444   6.076   5.465 -0.7581  0.7362 -0.2745
  175SAPS    HS19900   5.355   6.021   5.427 -0.9177  1.5314 -1.0617
  175SAPS   O2119901   5.416   6.176   5.571 -0.7487  0.7257 -0.2938
  175SAPS   C2119902   5.290   6.162   5.614 -0.6035 -0.0150  0.2610
  175SAPS   O2219903   5.207   6.079   5.571 -0.0325  0.3388 -0.2565
  175SAPS   C2219904   5.268   6.265   5.716  0.1765 -0.0078 -0.1504
  175SAPS   H2R19905   5.267   6.216   5.816  0.8456  0.8059  0.2749
  175SAPS   H2S19906   5.358   6.328   5.736 -2.0208  3.2349  0.3402
  175SAPS    C319907   5.552   5.967   5.515  0.8076 -0.9825 -0.5139
  175SAPS    HX19908   5.653   6.009   5.496  1.2770 -2.3008 -1.0508
  175SAPS    HY19909   5.549   5.886   5.438  0.4859 -3.1003  1.6215
  175SAPS   O3119910   5.542   5.920   5.655 -0.2487  0.4832 -0.2261
  175SAPS   C3119911   5.529   5.792   5.665  0.0710 -0.6856  0.7043
  175SAPS   O3219912   5.491   5.709   5.584  0.0985  0.3700  0.0180
  175SAPS   C3219913   5.578   5.754   5.804  0.9903  0.3049 -0.0433
  175SAPS   H2X19914   5.674   5.804   5.829  1.7477 -0.8113 -0.6183
  175SAPS   H2Y19915   5.600   5.645   5.797  1.6735  0.4537 -0.3046
  175SAPS   C2319916   5.145   6.365   5.699  0.2127  0.6534 -0.1124
  175SAPS   H3R19917   5.054   6.305   5.676  1.7728 -2.0290  0.2606
  175SAPS   H3S19918   5.163   6.421   5.604  0.9972 -0.8000 -0.8595
  175SAPS   C2419919   5.129   6.470   5.812 -0.2136 -0.1057  0.5458
  175SAPS   H4R19920   5.089   6.554   5.752 -1.8669 -0.1249  1.5625
  175SAPS   H4S19921   5.231   6.485   5.854  1.3679 -0.7934 -2.7640
  175SAPS   C2519922   5.029   6.425   5.920 -0.0876  0.4750 -0.1463
  175SAPS   H5R19923   4.953   6.354   5.884  0.3898  0.2361 -0.6971
  175SAPS   C2619924   5.021   6.470   6.044 -0.6044 -0.4197  0.3313
  175SAPS   H6R19925   4.948   6.432   6.117 -2.5276  0.7279 -0.9079
  175SAPS   C2719926   5.093   6.581   6.110 -1.0226  0.4381  0.4691
  175SAPS   H7R19927   5.173   6.609   6.038 -0.4539  1.1585  1.3512
  175SAPS   H7S19928   5.132   6.529   6.201 -0.2258  1.0501  0.4871
  175SAPS   C2819929   5.021   6.706   6.153 -0.6273  0.2055  0.1529
  175SAPS   H8R19930   4.980   6.771   6.075  1.5409  0.6178 -0.6960
  175SAPS   C2919931   4.999   6.747   6.279  0.6075  0.3667  0.1107
  175SAPS   H9R19932   4.957   6.847   6.289 -0.5679  0.0214 -1.0767
  175SAPS  C21019933   5.043   6.681   6.411  0.1861  0.2466  0.1584
  175SAPS  H10R19934   5.136   6.731   6.446  0.0910 -0.5358  1.5907
  175SAPS  H10S19935   5.081   6.578   6.394  0.6335  0.4811 -0.3055
  175SAPS  C21119936   4.950   6.689   6.530  0.0711  0.7135  0.3920
  175SAPS  H11R19937   4.851   6.643   6.514  0.9415 -1.0954 -0.0109
  175SAPS  C21219938   4.968   6.751   6.641 -1.1651 -0.4173 -0.4343
  175SAPS  H12R19939   4.889   6.744   6.717 -2.0070  0.6481 -1.1810
  175SAPS  C21319940   5.086   6.839   6.678 -0.1237  0.0808  0.2915
  175SAPS  H13R19941   5.144   6.878   6.591 -4.0435  2.3428 -1.6289
  175SAPS  H13S19942   5.160   6.788   6.743  1.9579 -0.9802 -2.6747
  175SAPS  C21419943   5.055   6.975   6.738  0.0364  0.2955 -0.2760
  175SAPS  H14R19944   5.042   7.057   6.665 -1.1945  0.0290 -0.3746
  175SAPS  C21519945   5.029   7.008   6.864 -0.3004  0.3808 -0.8958
  175SAPS  H15R19946   4.999   7.110   6.891  0.0499  0.7832 -1.9719
  175SAPS  C21619947   5.039   6.926   6.987 -0.0013  1.0820 -0.5209
  175SAPS  H16R19948   5.127   6.963   7.044 -0.0167  1.6435 -0.8560
  175SAPS  H16S19949   5.065   6.824   6.950 -3.8317  0.1090 -0.9830
  175SAPS  C21719950   4.914   6.919   7.078 -0.2872 -0.0887 -0.1674
  175SAPS  H17R19951   4.937   6.832   7.143 -1.9195 -0.7428 -0.4260
  175SAPS  H17S19952   4.821   6.881   7.032  0.2145 -2.1685  0.4177
  175SAPS  C21819953   4.887   7.052   7.153  0.5168 -0.6231 -0.0221
  175SAPS  H18R19954   4.803   7.032   7.223  0.0382  0.8909 -0.1297
  175SAPS  H18S19955   4.864   7.136   7.083  0.3453 -0.6036  0.0562
  175SAPS  C21919956   5.000   7.113   7.233 -0.1278 -0.2653 -0.0457
  175SAPS  H19R19957   5.070   7.172   7.170  0.4726  0.1043  0.9362
  175SAPS  H19S19958   5.067   7.035   7.276  2.1175  0.6321 -1.6720
  175SAPS  C22019959   4.950   7.216   7.337 -1.0411  0.1695  0.6628
  175SAPS  H20R19960   5.029   7.261   7.402 -0.5921 -0.9122  0.8906
  175SAPS  H20S19961   4.875   7.166   7.401  0.6140 -0.2232  2.4083
  175SAPS  H20T19962   4.903   7.304   7.288 -2.8246 -1.4060 -0.5882
  175SAPS   C3319963   5.473   5.795   5.911  0.0492  0.2537 -0.3953
  175SAPS   H3X19964   5.466   5.730   6.000  2.6643 -1.2320 -1.1748
  175SAPS   H3Y19965   5.371   5.799   5.867 -0.0041  0.5568 -0.2428
  175SAPS   C3419966   5.506   5.938   5.962  0.1079 -0.1441 -0.1106
  175SAPS   H4X19967   5.544   6.001   5.879  1.4673  0.1630  0.7097
  175SAPS   H4Y19968   5.587   5.940   6.038 -0.0403  5.4060  0.3673
  175SAPS   C3519969   5.379   5.995   6.034 -0.5929  0.2215  0.6423
  175SAPS   H5X19970   5.363   5.921   6.115  1.0364  0.1837  0.9703
  175SAPS   H5Y19971   5.298   6.004   5.958  0.5873  1.3896 -0.5277
  175SAPS   C3619972   5.405   6.133   6.102  0.4088  0.4720  0.0419
  175SAPS   H6X19973   5.448   6.200   6.025  0.2336 -0.9093 -1.3015
  175SAPS   H6Y19974   5.473   6.119   6.189 -1.3883  0.4786  1.5220
  175SAPS   C3719975   5.274   6.196   6.159 -0.1893 -0.0756  0.1910
  175SAPS   H7X19976   5.184   6.172   6.099 -0.6282  0.5936  0.5645
  175SAPS   H7Y19977   5.290   6.306   6.152  0.8499 -0.2541 -0.3952
  175SAPS   C3819978   5.251   6.165   6.305  0.2455 -0.1125  0.4898
  175SAPS   H8X19979   5.346   6.203   6.348  0.7583  0.6129 -1.1991
  175SAPS   H8Y19980   5.236   6.056   6.316  1.8284 -0.9612 -3.9151
  175SAPS   C3919981   5.142   6.249   6.375  0.0466 -0.1958  0.5094
  175SAPS   H9X19982   5.044   6.212   6.339 -0.2884  2.1653 -1.2363
  175SAPS   H9Y19983   5.142   6.355   6.340 -1.6218  0.0356  1.1145
  175SAPS  C31019984   5.145   6.230   6.522  0.1662 -0.0013  0.0227
  175SAPS  H10X19985   5.248   6.260   6.552  0.7150 -1.6653 -0.0929
  175SAPS  H10Y19986   5.132   6.126   6.560 -3.7123 -0.0228 -0.9025
  175SAPS  C31119987   5.035   6.316   6.594 -0.3442  0.4562 -0.5697
  175SAPS  H11X19988   4.937   6.280   6.558 -0.4630  2.1273 -2.0647
  175SAPS  H11Y19989   5.055   6.424   6.575  1.5867  0.2443  0.0347
  175SAPS  C31219990   5.048   6.302   6.744 -0.2267 -0.1610 -0.1485
  175SAPS  H12X19991   5.144   6.332   6.790  0.3836  0.4833 -1.7516
  175SAPS  H12Y19992   5.040   6.193   6.763  1.1961 -0.4434 -1.0293
  175SAPS  C31319993   4.927   6.379   6.815 -0.0125 -0.5848 -0.5955
  175SAPS  H13X19994   4.827   6.356   6.773 -1.9788  0.0293  3.3169
  175SAPS  H13Y19995   4.945   6.488   6.800  2.0029 -0.8372 -0.2433
  175SAPS  C31419996   4.903   6.353   6.966 -0.0726 -0.2319 -0.0783
  175SAPS  H14X19997   4.996   6.352   7.026  1.2176  0.5411 -1.9765
  175SAPS  H14Y19998   4.865   6.249   6.971 -1.4917  0.1223 -2.1060
  175SAPS  C31519999   4.787   6.438   7.022 -0.1927 -0.7243 -1.0436
  175SAPS  H15X20000   4.691   6.394   6.987  0.6811 -1.4844 -2.6063
  175SAPS  H15Y20001   4.783   6.542   6.984 -0.5610 -0.3095  0.0899
  175SAPS  C31620002   4.775   6.423   7.170 -0.5807  0.3033 -0.3891
  175SAPS  H16X20003   4.759   6.318   7.202 -2.1008  0.5326 -0.3027
  175SAPS  H16Y20004   4.693   6.489   7.207 -1.6560 -0.5833 -1.1060
  175SAPS  C31720005   4.891   6.486   7.240 -0.7002 -0.3790 -0.2878
  175SAPS  H17X20006   4.887   6.590   7.201  0.8674  0.6742  2.1403
  175SAPS  H17Y20007   4.995   6.454   7.216 -0.8915 -1.5595  0.3813
  175SAPS  C31820008   4.891   6.470   7.394 -0.0058  0.8650  0.0904
  175SAPS  H18X20009   4.984   6.508   7.442 -0.0587 -0.0226  0.9143
  175SAPS  H18Y20010   4.885   6.364   7.424  1.8454  1.3140  2.3726
  175SAPS  H18Z20011   4.815   6.524   7.454  0.1114 -1.9166  2.9969
  176SAPS     N20012   3.536   3.009   4.988 -0.3452 -0.0515 -0.5768
  176SAPS   HN120013   3.451   2.988   4.932  0.3195 -0.1405 -1.5954
  176SAPS   HN220014   3.542   2.948   5.072  0.0397  0.7254 -0.0244
  176SAPS   HN320015   3.537   3.109   5.015  1.3827 -0.1668 -0.0505
  176SAPS   C1220016   3.651   2.976   4.902 -0.2989  0.4173  0.6278
  176SAPS  H12A20017   3.736   2.971   4.969 -0.5230 -1.1272  0.8288
  176SAPS   C1320018   3.637   2.834   4.833  0.3480 -0.1429  0.1329
  176SAPS  O13A20019   3.526   2.767   4.847 -0.8982 -0.4021 -0.2221
  176SAPS  O13B20020   3.728   2.802   4.756  0.4529  0.2766  0.1408
  176SAPS   C1120021   3.671   3.088   4.795 -0.9657  0.8779 -0.3512
  176SAPS  H11A20022   3.593   3.092   4.716 -0.0547  0.2180 -1.3283
  176SAPS  H11B20023   3.759   3.050   4.738 -1.6596 -0.0800 -0.8092
  176SAPS     P20024   3.611   3.334   4.861 -0.0732  0.2349 -0.1324
  176SAPS   O1320025   3.682   3.442   4.937  0.2989  0.4578  0.4794
  176SAPS   O1420026   3.560   3.367   4.730  0.3983  0.1881  0.1471
  176SAPS   O1220027   3.706   3.214   4.852 -0.7306  0.6390 -0.3461
  176SAPS   O1120028   3.492   3.265   4.936  0.2797 -0.6011 -0.1011
  176SAPS    C120029   3.404   3.345   5.017 -0.5420  0.3334  0.0824
  176SAPS    HA20030   3.380   3.445   4.976 -0.5301  0.7732  1.0990
  176SAPS    HB20031   3.310   3.289   5.032 -0.7330  0.5794 -0.2012
  176SAPS    C220032   3.461   3.367   5.156  0.4794  0.1308 -0.5475
  176SAPS    HS20033   3.571   3.386   5.149  0.3687  0.2699 -2.8230
  176SAPS   O2120034   3.449   3.248   5.234  0.5691  0.7897 -0.1489
  176SAPS   C2120035   3.541   3.237   5.329 -1.1620  0.3543  0.2041
  176SAPS   O2220036   3.631   3.315   5.355 -0.0013  0.4574  0.0936
  176SAPS   C2220037   3.524   3.101   5.397  1.1793 -0.0906 -0.8868
  176SAPS   H2R20038   3.438   3.044   5.357  0.1034 -0.7852  2.2282
  176SAPS   H2S20039   3.618   3.046   5.374  1.7505  1.0814 -1.4828
  176SAPS    C320040   3.391   3.481   5.227  0.9484 -0.2915  0.0684
  176SAPS    HX20041   3.401   3.571   5.162  0.4981 -0.4958 -0.2914
  176SAPS    HY20042   3.434   3.508   5.326  2.8254 -0.3064 -0.7132
  176SAPS   O3120043   3.248   3.450   5.243 -0.1222 -0.4047  0.0424
  176SAPS   C3120044   3.159   3.516   5.163 -0.4100 -0.3728 -0.2877
  176SAPS   O3220045   3.184   3.598   5.078  0.1572  0.0544  0.3522
  176SAPS   C3220046   3.016   3.460   5.193 -0.1292 -0.9946  0.8584
  176SAPS   H2X20047   3.028   3.350   5.191  2.0564 -0.8096 -1.0726
  176SAPS   H2Y20048   2.949   3.502   5.115 -0.0596  1.3321  1.9391
  176SAPS   C2320049   3.519   3.108   5.551 -1.1156 -0.0711  0.0586
  176SAPS   H3R20050   3.605   3.173   5.579 -1.4428 -0.1401  1.2818
  176SAPS   H3S20051   3.548   3.007   5.584  0.1819  0.6729  1.3073
  176SAPS   C2420052   3.390   3.153   5.623  0.6513 -0.4345  0.3375
  176SAPS   H4R20053   3.394   3.119   5.729 -0.8679 -2.7534 -0.2779
  176SAPS   H4S20054   3.297   3.105   5.586  0.6961  0.5282 -1.0679
  176SAPS   C2520055   3.368   3.304   5.618  0.0210  0.2689 -0.3531
  176SAPS   H5R20056   3.294   3.336   5.544  2.1258 -0.0648 -2.7606
  176SAPS   C2620057   3.420   3.391   5.701  0.0411  0.7875  0.3839
  176SAPS   H6R20058   3.394   3.498   5.689 -0.4256  0.9080  2.1734
  176SAPS   C2720059   3.519   3.361   5.808 -0.5178 -0.2665  0.3162
  176SAPS   H7R20060   3.617   3.386   5.763 -1.1344 -0.4777 -1.1988
  176SAPS   H7S20061   3.530   3.252   5.827 -3.0651 -1.0687 -2.0319
  176SAPS   C2820062   3.496   3.452   5.929 -0.0327  0.1967 -0.3620
  176SAPS   H8R20063   3.557   3.543   5.936 -0.3835  0.7076 -2.9357
  176SAPS   C2920064   3.419   3.430   6.036 -0.1143  0.0898 -0.2944
  176SAPS   H9R20065   3.424   3.511   6.111 -0.8899 -0.0565 -0.0740
  176SAPS  C21020066   3.328   3.317   6.058 -0.0683 -0.2877  0.0131
  176SAPS  H10R20067   3.322   3.247   5.972 -0.4460 -0.1754 -0.0510
  176SAPS  H10S20068   3.221   3.346   6.058  0.1628  0.8925  2.8949
  176SAPS  C21120069   3.373   3.239   6.170  0.2893  0.0530 -0.2907
  176SAPS  H11R20070   3.462   3.178   6.149  0.1736  0.0360 -0.7457
  176SAPS  C21220071   3.321   3.232   6.292 -0.7877 -0.4537  0.3456
  176SAPS  H12R20072   3.370   3.164   6.364  3.4563  0.5716 -1.2504
  176SAPS  C21320073   3.204   3.323   6.345 -0.7654 -0.0349  0.0869
  176SAPS  H13R20074   3.157   3.382   6.263  0.1602 -2.0781 -2.0401
  176SAPS  H13S20075   3.248   3.394   6.419 -0.0081 -0.9053  0.4832
  176SAPS  C21420076   3.090   3.233   6.411  0.0221 -0.4525 -0.7954
  176SAPS  H14R20077   3.026   3.175   6.342 -0.1095  1.2423 -2.1674
  176SAPS  C21520078   3.057   3.235   6.543  0.0071  0.4173  0.3561
  176SAPS  H15R20079   2.989   3.155   6.575 -1.3756  0.8881 -1.2802
  176SAPS  C21620080   3.125   3.308   6.650 -0.0893  0.3907  0.1374
  176SAPS  H16R20081   3.168   3.404   6.613 -1.6091  1.3748  0.7893
  176SAPS  H16S20082   3.219   3.253   6.669 -1.0435 -1.1735  0.4576
  176SAPS  C21720083   3.056   3.330   6.782  0.1584 -0.2218 -0.6720
  176SAPS  H17R20084   2.956   3.375   6.767  0.3340  0.5413  0.3003
  176SAPS  H17S20085   3.125   3.396   6.840 -0.1293  0.3250 -0.9419
  176SAPS  C21820086   3.044   3.201   6.866 -0.7269 -0.3049 -0.1309
  176SAPS  H18R20087   3.146   3.172   6.900 -0.4662  0.3639 -0.3311
  176SAPS  H18S20088   2.998   3.125   6.799 -1.3791 -1.0372  1.0910
  176SAPS  C21920089   2.945   3.206   6.979 -0.0672  0.6369 -0.2802
  176SAPS  H19R20090   2.849   3.230   6.929 -0.3814  1.7664  0.7999
  176SAPS  H19S20091   2.977   3.287   7.048  1.2488  0.0391 -0.1604
  176SAPS  C22020092   2.938   3.078   7.054 -0.3156  0.4270 -0.1699
  176SAPS  H20R20093   2.896   3.079   7.157  0.6380 -0.7557  0.2582
  176SAPS  H20S20094   3.030   3.016   7.068 -1.1950 -0.6287  1.2582
  176SAPS  H20T20095   2.869   3.006   7.004 -1.6134  1.7536 -0.3589
  176SAPS   C3320096   2.958   3.532   5.317 -0.2123  0.0079 -0.2469
  176SAPS   H3X20097   2.848   3.530   5.304 -0.9632 -1.5786  4.3095
  176SAPS   H3Y20098   2.980   3.641   5.317 -1.7059  0.3493 -1.9462
  176SAPS   C3420099   3.008   3.483   5.451 -0.0600  0.3273  0.4874
  176SAPS   H4X20100   2.970   3.560   5.522  0.1731  0.1936  0.7587
  176SAPS   H4Y20101   3.119   3.488   5.456  0.1540 -2.9057  1.2056
  176SAPS   C3520102   2.971   3.343   5.480  0.3057  0.0342 -0.3043
  176SAPS   H5X20103   3.050   3.283   5.430  1.2028  0.1729  0.9076
  176SAPS   H5Y20104   2.869   3.322   5.441 -0.2353 -0.4425  1.3059
  176SAPS   C3620105   2.960   3.307   5.630  0.4489  0.7613  0.4651
  176SAPS   H6X20106   2.866   3.343   5.679  0.8232  0.4251  1.4524
  176SAPS   H6Y20107   3.042   3.354   5.687  0.1910  0.7363  0.8634
  176SAPS   C3720108   2.980   3.157   5.662 -0.2609 -0.1466 -0.4422
  176SAPS   H7X20109   3.085   3.125   5.649  0.1594  0.6678  0.7617
  176SAPS   H7Y20110   2.916   3.099   5.592 -0.6005  2.3322 -2.2953
  176SAPS   C3820111   2.922   3.127   5.807 -0.5407 -0.7562  0.2687
  176SAPS   H8X20112   2.905   3.017   5.804  1.6863 -1.1284 -1.2901
  176SAPS   H8Y20113   2.825   3.177   5.826 -0.0499 -0.0018  0.8575
  176SAPS   C3920114   3.032   3.149   5.909  0.4413  0.0409  0.0305
  176SAPS   H9X20115   3.073   3.252   5.914 -0.9823  0.5947  0.7066
  176SAPS   H9Y20116   3.107   3.076   5.873  0.4976 -0.9048  1.9445
  176SAPS  C31020117   2.995   3.119   6.059 -0.1478  0.1249  0.4044
  176SAPS  H10X20118   2.912   3.191   6.076 -0.5723 -0.7497  2.3870
  176SAPS  H10Y20119   3.078   3.152   6.125  0.9820 -2.2828  0.2902
  176SAPS  C31120120   2.937   2.979   6.079 -0.8304 -0.3652  0.4877
  176SAPS  H11X20121   3.008   2.899   6.049  0.1557 -0.1514  2.1195
  176SAPS  H11Y20122   2.852   2.973   6.008  1.5469  0.0503 -2.6257
  176SAPS  C31220123   2.874   2.969   6.213 -0.5940  0.5076 -0.3883
  176SAPS  H12X20124   2.788   3.037   6.228 -2.8490 -2.0166 -1.0156
  176SAPS  H12Y20125   2.944   2.980   6.298  2.3694  1.9144 -2.8242
  176SAPS  C31320126   2.816   2.830   6.241  0.1946 -0.4818 -0.2060
  176SAPS  H13X20127   2.885   2.744   6.235 -0.7621 -1.2899  0.0414
  176SAPS  H13Y20128   2.739   2.802   6.166  1.5093 -0.1008 -1.7492
  176SAPS  C31420129   2.742   2.840   6.381  0.2434  0.6582  0.6776
  176SAPS  H14X20130   2.657   2.769   6.389 -0.5209  1.4216 -0.4427
  176SAPS  H14Y20131   2.700   2.938   6.412  0.2215  0.6292  0.7401
  176SAPS  C31520132   2.836   2.811   6.500 -1.2256  0.2135  0.1940
  176SAPS  H15X20133   2.914   2.889   6.516 -0.2605 -0.6372 -0.2275
  176SAPS  H15Y20134   2.881   2.711   6.483 -0.9841  0.4722 -0.7160
  176SAPS  C31620135   2.769   2.800   6.638 -0.5299 -1.0144  0.0058
  176SAPS  H16X20136   2.682   2.732   6.633 -1.5036  0.0008  2.1237
  176SAPS  H16Y20137   2.731   2.899   6.669 -0.3990 -1.2319  0.8854
  176SAPS  C31720138   2.865   2.740   6.747  0.6206  0.4654  0.2382
  176SAPS  H17X20139   2.954   2.806   6.757  1.4401 -0.1837 -1.9769
  176SAPS  H17Y20140   2.909   2.649   6.700  0.5714  0.9167 -0.7038
  176SAPS  C31820141   2.807   2.707   6.885 -0.0986 -0.6622 -0.2729
  176SAPS  H18X20142   2.889   2.674   6.953 -2.1777 -2.4397  1.5214
  176SAPS  H18Y20143   2.729   2.628   6.882  2.0480 -2.8895 -0.8606
  176SAPS  H18Z20144   2.769   2.804   6.924 -1.6191 -0.4182 -2.2436
  177SAPS     N20145   1.772   0.856   5.122 -0.2770  0.7432 -0.0754
  177SAPS   HN120146   1.851   0.791   5.142 -1.1936 -0.8607 -1.3902
  177SAPS   HN220147   1.700   0.855   5.197 -1.1320  0.2014 -0.8766
  177SAPS   HN320148   1.726   0.833   5.032 -0.0883  3.1810 -0.8683
  177SAPS   C1220149   1.826   0.994   5.123  0.7552 -0.3179  0.3300
  177SAPS  H12A20150   1.895   1.000   5.040  0.8019  0.9774  0.4390
  177SAPS   C1320151   1.735   1.116   5.101  0.0830  0.5234 -0.2592
  177SAPS  O13A20152   1.613   1.091   5.068  0.3561  0.2918 -0.0714
  177SAPS  O13B20153   1.790   1.231   5.099 -0.3006 -0.2603  0.4463
  177SAPS   C1120154   1.903   1.024   5.253  0.8831 -0.0272 -0.2180
  177SAPS  H11A20155   1.840   1.005   5.342 -0.0653  1.1009 -0.6303
  177SAPS  H11B20156   1.932   1.131   5.263 -0.0041  0.0704  1.9137
  177SAPS     P20157   2.158   0.978   5.288 -0.0856  0.2198  0.1108
  177SAPS   O1320158   2.244   0.857   5.288  0.0948  0.5877  0.1523
  177SAPS   O1420159   2.187   1.092   5.203  0.3505 -0.3510 -0.2556
  177SAPS   O1220160   2.010   0.928   5.262  0.2095 -0.3182  0.2862
  177SAPS   O1120161   2.148   1.031   5.439  0.0238 -0.3409 -0.2507
  177SAPS    C120162   2.086   0.953   5.537  0.3592 -0.0189 -0.4929
  177SAPS    HA20163   1.989   0.905   5.512  0.7758 -2.2902  1.7582
  177SAPS    HB20164   2.160   0.876   5.570  2.2942  0.4254 -3.4113
  177SAPS    C220165   2.052   1.044   5.664 -0.1304 -0.1387  0.0428
  177SAPS    HS20166   2.143   1.106   5.675  0.2061 -0.5845 -0.1918
  177SAPS   O2120167   2.016   0.962   5.778 -0.0523  0.1382  0.6929
  177SAPS   C2120168   2.103   0.964   5.879  0.9484  0.0452  0.1330
  177SAPS   O2220169   2.214   1.017   5.878 -0.5964  0.5519  0.2571
  177SAPS   C2220170   2.064   0.873   5.984  0.4986 -0.3093 -0.5967
  177SAPS   H2R20171   2.008   0.796   5.926  0.0853 -0.5485  0.1141
  177SAPS   H2S20172   2.153   0.822   6.027  1.0347  1.2518  0.1998
  177SAPS    C320173   1.932   1.133   5.634 -0.0120 -0.4155 -0.8876
  177SAPS    HX20174   1.855   1.068   5.588  1.4360 -1.1847 -2.3123
  177SAPS    HY20175   1.964   1.200   5.551  0.9299  0.3649  0.0694
  177SAPS   O3120176   1.889   1.215   5.755 -1.0171 -0.0998  0.2098
  177SAPS   C3120177   1.940   1.337   5.752 -0.5132 -0.4660  0.1783
  177SAPS   O3220178   2.014   1.386   5.666  0.4335  0.5194  0.1878
  177SAPS   C3220179   1.893   1.397   5.883 -0.1166 -0.0368  0.4373
  177SAPS   H2X20180   1.814   1.470   5.855 -1.7437 -0.9025  2.5122
  177SAPS   H2Y20181   1.977   1.453   5.929 -1.8945  2.5139  0.7582
  177SAPS   C2320182   1.968   0.951   6.083 -0.0436  0.8718 -0.3012
  177SAPS   H3R20183   1.913   0.874   6.140  3.0929  0.3779  2.3722
  177SAPS   H3S20184   1.891   1.001   6.021 -2.1866 -1.4010  0.3810
  177SAPS   C2420185   2.034   1.055   6.184 -0.0169  0.4666  0.0142
  177SAPS   H4R20186   1.939   1.102   6.219 -0.9605 -1.2487 -0.1090
  177SAPS   H4S20187   2.097   1.129   6.131  1.4421 -2.1948 -2.2370
  177SAPS   C2520188   2.112   0.981   6.278  0.1402  0.6255 -0.0620
  177SAPS   H5R20189   2.181   0.908   6.234 -1.0973  0.0101 -1.0330
  177SAPS   C2620190   2.101   0.979   6.419 -0.3015  0.3389 -0.0951
  177SAPS   H6R20191   2.157   0.904   6.476 -0.8461  2.5968  3.7748
  177SAPS   C2720192   2.016   1.069   6.501  0.3631 -0.3092 -0.4887
  177SAPS   H7R20193   1.984   1.158   6.444  0.9692 -0.1638 -0.6055
  177SAPS   H7S20194   2.088   1.126   6.563  1.0904 -1.0507 -0.6274
  177SAPS   C2820195   1.891   1.027   6.577 -0.1243 -0.4822 -0.1192
  177SAPS   H8R20196   1.806   1.017   6.508  0.5084 -0.8373 -0.8621
  177SAPS   C2920197   1.884   1.013   6.715  0.4037 -0.2902 -0.1380
  177SAPS   H9R20198   1.789   0.989   6.765 -0.8424  1.6659 -1.4569
  177SAPS  C21020199   1.999   1.046   6.805 -0.4771 -0.1108 -0.4639
  177SAPS  H10R20200   1.964   1.075   6.906 -2.1118 -1.8172 -0.4934
  177SAPS  H10S20201   2.047   1.136   6.760 -1.5344 -0.6928 -2.8976
  177SAPS  C21120202   2.097   0.933   6.812 -0.3582  0.6359 -0.6971
  177SAPS  H11R20203   2.126   0.884   6.717  3.2099 -1.0840  1.0562
  177SAPS  C21220204   2.153   0.883   6.923 -0.1828 -0.3031 -0.2803
  177SAPS  H12R20205   2.214   0.793   6.909  1.2046  0.5714 -0.0286
  177SAPS  C21320206   2.111   0.921   7.061 -0.0265 -0.5282 -1.4724
  177SAPS  H13R20207   2.015   0.977   7.066 -0.2093 -0.8304 -1.5780
  177SAPS  H13S20208   2.174   1.008   7.090 -0.5726 -1.0176  1.4853
  177SAPS  C21420209   2.119   0.812   7.157 -0.0591 -0.5329  0.4231
  177SAPS  H14R20210   2.045   0.732   7.157 -0.2365 -0.3804  1.3716
  177SAPS  C21520211   2.217   0.801   7.249  0.4044  0.1530 -0.5745
  177SAPS  H15R20212   2.214   0.730   7.333  2.2887 -0.1996 -0.7627
  177SAPS  C21620213   2.333   0.886   7.264 -0.1237 -1.0508  0.2075
  177SAPS  H16R20214   2.297   0.974   7.320 -1.2499 -2.5318  1.9077
  177SAPS  H16S20215   2.369   0.927   7.167 -0.7906 -0.4581  0.2025
  177SAPS  C21720216   2.437   0.815   7.350  0.3166  0.2897 -0.2212
  177SAPS  H17R20217   2.469   0.719   7.305  0.9890  0.4430 -0.0763
  177SAPS  H17S20218   2.402   0.779   7.449 -0.1597 -1.5995 -1.0359
  177SAPS  C21820219   2.559   0.909   7.389  0.2581 -0.2051  0.3356
  177SAPS  H18R20220   2.515   1.005   7.424 -1.1847 -2.0008  3.8515
  177SAPS  H18S20221   2.624   0.926   7.301 -2.2633  2.4586 -1.2068
  177SAPS  C21920222   2.657   0.854   7.499  0.3160  1.3944 -0.2963
  177SAPS  H19R20223   2.684   0.747   7.486 -0.5985  0.7407  2.5815
  177SAPS  H19S20224   2.599   0.852   7.593 -3.3469  0.4920 -2.3833
  177SAPS  C22020225   2.776   0.946   7.521 -0.1567 -0.7773  0.3338
  177SAPS  H20R20226   2.849   0.920   7.441 -1.9632  0.0390 -1.6989
  177SAPS  H20S20227   2.818   0.925   7.621 -0.1432 -2.3474  0.0362
  177SAPS  H20T20228   2.738   1.050   7.524 -0.0614 -0.7060 -0.5324
  177SAPS   C3320229   1.814   1.300   5.982  0.1234 -0.1609 -0.6450
  177SAPS   H3X20230   1.889   1.238   6.036 -2.1976 -0.6915  2.2031
  177SAPS   H3Y20231   1.744   1.225   5.940  0.2551 -0.3760 -0.4869
  177SAPS   C3420232   1.741   1.378   6.086 -0.3484  0.2920 -0.0119
  177SAPS   H4X20233   1.661   1.438   6.038  1.0284 -0.8163 -4.1002
  177SAPS   H4Y20234   1.813   1.442   6.140 -0.0141  0.4025 -0.5800
  177SAPS   C3520235   1.682   1.289   6.194  0.3293  0.1969 -0.1240
  177SAPS   H5X20236   1.764   1.264   6.264  0.5385  0.9245 -0.1061
  177SAPS   H5Y20237   1.636   1.195   6.156  1.1262 -0.2128 -0.1136
  177SAPS   C3620238   1.569   1.368   6.271  0.4726  0.1396  0.0426
  177SAPS   H6X20239   1.485   1.399   6.206  0.6193  1.3263  0.3984
  177SAPS   H6Y20240   1.612   1.459   6.318 -0.3009  1.7781 -2.2177
  177SAPS   C3720241   1.483   1.283   6.369  0.0112  0.2845 -0.1983
  177SAPS   H7X20242   1.512   1.178   6.345  0.0486 -0.3256  2.2444
  177SAPS   H7Y20243   1.376   1.297   6.342 -0.1416  0.5546  0.5333
  177SAPS   C3820244   1.488   1.317   6.515  0.4991 -0.3196 -0.1955
  177SAPS   H8X20245   1.395   1.275   6.558 -1.3147  2.7893 -0.7386
  177SAPS   H8Y20246   1.483   1.428   6.524  0.9456 -0.1361 -1.8279
  177SAPS   C3920247   1.615   1.270   6.591  0.4585 -1.2386  0.7322
  177SAPS   H9X20248   1.709   1.291   6.535  0.4225 -0.3431  0.9856
  177SAPS   H9Y20249   1.622   1.160   6.604 -1.4929 -1.2218  2.3704
  177SAPS  C31020250   1.635   1.311   6.741 -0.3322 -0.5549 -0.3107
  177SAPS  H10X20251   1.609   1.415   6.770  0.1855  0.3833 -2.9709
  177SAPS  H10Y20252   1.740   1.285   6.766  0.0190 -0.2723 -1.4412
  177SAPS  C31120253   1.530   1.227   6.818  0.1709 -0.7492 -0.8557
  177SAPS  H11X20254   1.558   1.119   6.813 -1.7614 -1.3746  0.8010
  177SAPS  H11Y20255   1.434   1.234   6.763 -1.7778  0.2945  2.4166
  177SAPS  C31220256   1.521   1.274   6.963  0.3093  0.2588  0.3205
  177SAPS  H12X20257   1.448   1.203   7.008  2.9533 -3.6642 -1.0344
  177SAPS  H12Y20258   1.476   1.375   6.968  0.3549  0.2282  1.9142
  177SAPS  C31320259   1.656   1.277   7.034  0.1778 -0.1621  0.1879
  177SAPS  H13X20260   1.719   1.359   6.992 -0.5479 -0.5875 -1.8175
  177SAPS  H13Y20261   1.725   1.191   7.024  1.2110  0.4421  1.7269
  177SAPS  C31420262   1.647   1.305   7.186 -0.5312 -0.2311  0.0637
  177SAPS  H14X20263   1.605   1.221   7.245  3.6034 -2.7557 -0.2206
  177SAPS  H14Y20264   1.597   1.404   7.180  1.1530  0.6323 -5.7193
  177SAPS  C31520265   1.784   1.321   7.258  0.0936  0.5158 -0.0777
  177SAPS  H15X20266   1.771   1.379   7.352  0.2106  2.2803 -1.1145
  177SAPS  H15Y20267   1.859   1.376   7.198 -0.1513  1.1363  0.1722
  177SAPS  C31620268   1.858   1.187   7.293  0.4946 -0.6424  0.4212
  177SAPS  H16X20269   1.823   1.110   7.221  0.6173  0.0827 -0.4339
  177SAPS  H16Y20270   1.814   1.146   7.387  1.6701  0.4890  1.4946
  177SAPS  C31720271   2.006   1.183   7.318  0.2437  0.4511  0.3388
  177SAPS  H17X20272   2.072   1.194   7.229  0.4609  1.7894  0.6321
  177SAPS  H17Y20273   2.028   1.078   7.345 -3.1258 -0.3509  0.3993
  177SAPS  C31820274   2.051   1.274   7.428 -0.6297  0.0956  0.1483
  177SAPS  H18X20275   2.162   1.271   7.434 -0.5462  0.8234 -0.6682
  177SAPS  H18Y20276   2.021   1.247   7.531  2.9109 -1.3837  0.9410
  177SAPS  H18Z20277   2.020   1.380   7.411  0.6534  0.5247  0.3790
  178SAPS     N20278   4.383   2.550   5.346 -0.9116  0.7902 -0.3884
  178SAPS   HN120279   4.306   2.482   5.327 -2.1353  2.3582 -1.3175
  178SAPS   HN220280   4.383   2.569   5.448 -0.2062  0.7048 -0.3675
  178SAPS   HN320281   4.342   2.628   5.290  0.0836  2.1100  0.6673
  178SAPS   C1220282   4.514   2.521   5.284 -0.0121 -0.0775 -1.1546
  178SAPS  H12A20283   4.507   2.512   5.176  2.9306  1.7788 -1.6214
  178SAPS   C1320284   4.615   2.640   5.300  0.3737 -0.1281  1.2640
  178SAPS  O13A20285   4.591   2.746   5.362 -0.0771  0.0111  0.6202
  178SAPS  O13B20286   4.729   2.618   5.253 -0.0784  0.3093 -0.0854
  178SAPS   C1120287   4.566   2.385   5.334  0.2130 -0.3739 -0.1077
  178SAPS  H11A20288   4.598   2.384   5.440 -1.4618  1.2263  0.4707
  178SAPS  H11B20289   4.651   2.369   5.264  0.5423 -0.2566  0.2597
  178SAPS     P20290   4.505   2.130   5.358  0.2788 -0.1527  0.1248
  178SAPS   O1320291   4.447   2.039   5.255  0.6284 -0.4099 -0.0149
  178SAPS   O1420292   4.651   2.119   5.382  0.0591 -0.2770 -0.3961
  178SAPS   O1220293   4.467   2.278   5.313  0.0095 -0.1568 -0.0977
  178SAPS   O1120294   4.423   2.111   5.489 -0.1521 -0.2095 -0.0277
  178SAPS    C120295   4.335   2.209   5.533 -0.1168 -0.5436 -0.0747
  178SAPS    HA20296   4.379   2.311   5.538  0.1606 -0.7045  0.9723
  178SAPS    HB20297   4.243   2.210   5.472  0.9152  0.8174 -1.6888
  178SAPS    C220298   4.304   2.187   5.688 -1.0680  0.1921  0.0564
  178SAPS    HS20299   4.258   2.278   5.731 -0.8486  0.6841 -0.7285
  178SAPS   O2120300   4.426   2.151   5.753 -0.9012  0.2903  0.4692
  178SAPS   C2120301   4.501   2.258   5.790 -0.0359  0.5204 -0.0416
  178SAPS   O2220302   4.469   2.376   5.776 -0.0379  0.4197 -0.3178
  178SAPS   C2220303   4.633   2.216   5.865 -0.0554  0.1737  0.0631
  178SAPS   H2R20304   4.613   2.116   5.910 -0.6764  0.2944  0.0588
  178SAPS   H2S20305   4.710   2.200   5.786 -1.1054 -0.6991 -0.8169
  178SAPS    C320306   4.200   2.074   5.708 -0.3237 -0.4801  0.2458
  178SAPS    HX20307   4.248   1.989   5.656  0.7893  0.1984  0.1286
  178SAPS    HY20308   4.110   2.100   5.649  0.2414  2.0752  0.3734
  178SAPS   O3120309   4.180   2.043   5.848  0.3435 -0.0375  0.1000
  178SAPS   C3120310   4.094   2.120   5.907  0.4994  0.4561 -0.0647
  178SAPS   O3220311   4.027   2.210   5.855 -0.3308  0.1326  0.6264
  178SAPS   C3220312   4.079   2.098   6.057  0.5200  0.2523 -0.3001
  178SAPS   H2X20313   3.998   2.025   6.077 -1.6258  1.8505 -2.5082
  178SAPS   H2Y20314   4.049   2.198   6.096  0.1622 -0.4689  1.3428
  178SAPS   C2320315   4.679   2.317   5.975 -0.0366  0.7538  0.4244
  178SAPS   H3R20316   4.602   2.395   5.994 -1.6165 -1.1093  2.1867
  178SAPS   H3S20317   4.767   2.370   5.934 -1.0735  1.8202 -0.4801
  178SAPS   C2420318   4.719   2.247   6.106  0.4315 -0.2564 -0.4276
  178SAPS   H4R20319   4.796   2.170   6.086  2.1905  0.7317  2.0677
  178SAPS   H4S20320   4.637   2.195   6.159 -0.3996  2.1928  0.8872
  178SAPS   C2520321   4.774   2.342   6.208 -0.0023 -0.5177 -0.1050
  178SAPS   H5R20322   4.705   2.427   6.221 -1.0882 -1.6382  2.1491
  178SAPS   C2620323   4.885   2.335   6.282 -0.6313 -0.0317  0.2883
  178SAPS   H6R20324   4.910   2.424   6.342 -0.2955  0.7706 -0.9969
  178SAPS   C2720325   4.981   2.212   6.263 -0.7953  0.0134 -0.8334
  178SAPS   H7R20326   5.011   2.209   6.156  2.5578 -1.5181  0.0036
  178SAPS   H7S20327   4.926   2.121   6.295 -0.5309  0.3390  0.6276
  178SAPS   C2820328   5.111   2.217   6.348  0.2894 -0.7107  0.0639
  178SAPS   H8R20329   5.199   2.215   6.281  0.7484  0.5859  0.5916
  178SAPS   C2920330   5.128   2.205   6.482 -0.0143  0.6363  0.3624
  178SAPS   H9R20331   5.233   2.212   6.513  1.7165  1.9460 -4.8154
  178SAPS  C21020332   5.028   2.191   6.596  0.0431  0.6323 -0.1952
  178SAPS  H10R20333   4.927   2.158   6.562 -0.7725  1.3704  1.4127
  178SAPS  H10S20334   5.014   2.292   6.638  0.6077  0.4097  0.5538
  178SAPS  C21120335   5.061   2.108   6.719 -0.2837 -0.6572 -0.0128
  178SAPS  H11R20336   5.055   1.999   6.712  1.5029 -0.8300  0.6457
  178SAPS  C21220337   5.075   2.154   6.844 -0.1219  0.0673  0.2751
  178SAPS  H12R20338   5.115   2.086   6.921  0.5264  3.1645  2.8956
  178SAPS  C21320339   5.070   2.305   6.878  0.4131 -0.0678  0.1385
  178SAPS  H13R20340   5.051   2.309   6.988  2.0427  0.3703  0.4380
  178SAPS  H13S20341   4.976   2.349   6.840 -0.1689  1.0271  2.5988
  178SAPS  C21420342   5.182   2.386   6.840 -0.4738 -0.5081  0.3337
  178SAPS  H14R20343   5.223   2.360   6.742  0.3914  1.1494  0.2235
  178SAPS  C21520344   5.247   2.473   6.920  0.7009  0.8732  0.1094
  178SAPS  H15R20345   5.338   2.514   6.875  1.0379 -0.5989 -0.6059
  178SAPS  C21620346   5.215   2.497   7.062 -0.4137  0.2061  0.1594
  178SAPS  H16R20347   5.105   2.505   7.079 -0.3390 -2.1924  2.3335
  178SAPS  H16S20348   5.251   2.600   7.082  0.8200  0.5571 -3.1759
  178SAPS  C21720349   5.254   2.378   7.154 -0.1126 -0.3526 -0.3022
  178SAPS  H17R20350   5.361   2.351   7.156 -0.0954 -0.2971 -0.4399
  178SAPS  H17S20351   5.189   2.290   7.134  0.2487 -0.4237 -1.2164
  178SAPS  C21820352   5.226   2.430   7.296  0.2123  0.5775  1.0757
  178SAPS  H18R20353   5.120   2.448   7.321 -0.6408 -2.0442 -0.2366
  178SAPS  H18S20354   5.268   2.532   7.311  0.4619  0.4483  1.2541
  178SAPS  C21920355   5.277   2.333   7.408  0.6084  0.0488  0.7149
  178SAPS  H19R20356   5.261   2.384   7.505  1.0992  2.2545 -0.2944
  178SAPS  H19S20357   5.388   2.319   7.413  0.6525  0.3758  0.6729
  178SAPS  C22020358   5.208   2.192   7.406 -0.2135 -0.6322  0.4091
  178SAPS  H20R20359   5.211   2.159   7.300  1.2269 -0.8287  0.4955
  178SAPS  H20S20360   5.103   2.200   7.443 -0.0934 -0.4116  0.7069
  178SAPS  H20T20361   5.263   2.117   7.468 -0.2348 -2.8322 -2.0651
  178SAPS   C3320362   4.215   2.048   6.126 -0.5452 -0.8208 -0.0198
  178SAPS   H3X20363   4.292   2.123   6.099  0.0741 -1.3543  0.2286
  178SAPS   H3Y20364   4.242   1.945   6.094  1.8752 -0.6644  1.2345
  178SAPS   C3420365   4.185   2.031   6.269 -0.6978 -0.1156  0.1033
  178SAPS   H4X20366   4.110   1.950   6.260  0.6905 -1.6195  1.4756
  178SAPS   H4Y20367   4.128   2.119   6.306 -1.5652 -1.2497  1.5699
  178SAPS   C3520368   4.307   2.000   6.359  0.5226 -0.8585  0.1936
  178SAPS   H5X20369   4.369   2.092   6.361  1.7716 -1.6473 -0.8179
  178SAPS   H5Y20370   4.369   1.929   6.299 -0.4948 -0.5615 -1.2497
  178SAPS   C3620371   4.267   1.949   6.490 -0.0090 -0.0077 -0.5176
  178SAPS   H6X20372   4.190   1.870   6.483 -0.2690  0.3496 -1.8844
  178SAPS   H6Y20373   4.224   2.036   6.544 -1.7867 -1.2333  0.1275
  178SAPS   C3720374   4.392   1.912   6.572 -0.6268 -0.0401  0.7642
  178SAPS   H7X20375   4.433   1.818   6.529  0.7662  0.8807  0.0180
  178SAPS   H7Y20376   4.347   1.893   6.672 -0.7589  1.6673  1.0474
  178SAPS   C3820377   4.494   2.017   6.583  0.5991 -0.1863  0.4948
  178SAPS   H8X20378   4.447   2.112   6.618 -0.2524 -0.4967  0.2226
  178SAPS   H8Y20379   4.544   2.031   6.485  0.3658  1.0147  0.5325
  178SAPS   C3920380   4.611   1.977   6.676 -0.2284  0.4047 -0.4268
  178SAPS   H9X20381   4.685   2.055   6.646 -2.0886  3.1046  1.4408
  178SAPS   H9Y20382   4.641   1.875   6.644  0.6544 -0.4497  2.7077
  178SAPS  C31020383   4.577   1.996   6.824 -0.2899 -0.4998  0.2002
  178SAPS  H10X20384   4.480   1.957   6.863 -0.0788  0.5543  1.9030
  178SAPS  H10Y20385   4.554   2.104   6.839 -2.1812 -0.6897 -0.9323
  178SAPS  C31120386   4.692   1.948   6.918 -0.1445 -0.5496 -0.3114
  178SAPS  H11X20387   4.776   2.019   6.903  0.2181 -0.8391  0.3278
  178SAPS  H11Y20388   4.725   1.849   6.882 -0.2668 -0.3543 -0.9776
  178SAPS  C31220389   4.650   1.950   7.065 -0.4947  0.3532  0.0732
  178SAPS  H12X20390   4.555   1.893   7.073 -0.9763  1.4097  3.5644
  178SAPS  H12Y20391   4.641   2.058   7.092  0.4664  0.4774 -0.0831
  178SAPS  C31320392   4.765   1.895   7.150 -0.0183  0.2878  0.1098
  178SAPS  H13X20393   4.860   1.941   7.116  0.3716  1.0449  2.1167
  178SAPS  H13Y20394   4.776   1.789   7.117  1.0524  0.2808  0.4614
  178SAPS  C31420395   4.745   1.936   7.295  0.2273  0.0791  0.0523
  178SAPS  H14X20396   4.817   1.871   7.349  0.8571 -0.0296 -0.8944
  178SAPS  H14Y20397   4.643   1.900   7.321 -0.1207  1.2149  0.3080
  178SAPS  C31520398   4.767   2.086   7.341  0.2549  0.1935  0.2533
  178SAPS  H15X20399   4.697   2.152   7.285  0.8744 -0.4225 -1.3149
  178SAPS  H15Y20400   4.862   2.137   7.316  0.7095 -0.2893  0.9654
  178SAPS  C31620401   4.753   2.091   7.495  0.2544  0.2528 -0.0362
  178SAPS  H16X20402   4.811   2.006   7.536  0.8642  1.1858  1.0830
  178SAPS  H16Y20403   4.645   2.079   7.518  0.0416  0.1364 -1.0479
  178SAPS  C31720404   4.797   2.233   7.536  0.6442 -0.4691 -0.4493
  178SAPS  H17X20405   4.723   2.303   7.493  0.5786 -0.5593 -0.4834
  178SAPS  H17Y20406   4.901   2.250   7.499  0.0038 -1.0789 -2.6567
  178SAPS  C31820407   4.820   2.244   7.689 -0.1116  0.1411  0.1352
  178SAPS  H18X20408   4.925   2.223   7.717  0.1078 -0.6728 -1.2470
  178SAPS  H18Y20409   4.762   2.171   7.748  1.2375 -0.5106  0.6900
  178SAPS  H18Z20410   4.798   2.348   7.722 -2.6044 -0.1329 -0.4871
  179SAPS     N20411   1.053   4.569   5.102 -0.5996  0.3543  0.3831
  179SAPS   HN120412   1.137   4.529   5.055 -1.8345  0.3932 -1.9969
  179SAPS   HN220413   1.070   4.667   5.133  0.6210  0.1390  0.4258
  179SAPS   HN320414   1.029   4.520   5.190 -0.1007 -0.0599  0.2975
  179SAPS   C1220415   0.938   4.586   5.012 -0.1745  0.2802  0.2278
  179SAPS  H12A20416   0.902   4.686   5.031  0.8809  0.9021 -0.9376
  179SAPS   C1320417   0.986   4.583   4.864  0.3453  0.1785 -0.5752
  179SAPS  O13A20418   1.091   4.524   4.835 -0.8920 -0.1603 -0.0623
  179SAPS  O13B20419   0.898   4.620   4.778 -0.5672 -0.8017  0.1044
  179SAPS   C1120420   0.829   4.476   5.032 -0.3329 -0.6956 -0.3578
  179SAPS  H11A20421   0.872   4.375   5.014 -1.8493 -1.1845 -1.4470
  179SAPS  H11B20422   0.754   4.488   4.951 -0.3941  0.3044 -0.1606
  179SAPS     P20423   0.638   4.418   5.195  0.0495  0.3655 -0.0365
  179SAPS   O1320424   0.609   4.321   5.089 -0.2348 -0.5280  0.1253
  179SAPS   O1420425   0.645   4.359   5.331 -0.1159  0.3340 -0.2104
  179SAPS   O1220426   0.777   4.493   5.166 -0.4388 -0.2587 -0.5114
  179SAPS   O1120427   0.533   4.537   5.184 -0.1824  0.0246 -0.5702
  179SAPS    C120428   0.571   4.675   5.203  0.6608  0.1781  0.2478
  179SAPS    HA20429   0.643   4.707   5.125  0.8812 -0.1013  0.3344
  179SAPS    HB20430   0.484   4.738   5.177  1.7378  0.5848 -2.7955
  179SAPS    C220431   0.627   4.711   5.338  0.0417 -0.1195 -0.3683
  179SAPS    HS20432   0.737   4.702   5.326  0.0938  0.3994 -0.3045
  179SAPS   O2120433   0.569   4.628   5.443 -0.1775  0.0905 -0.6850
  179SAPS   C2120434   0.660   4.583   5.532 -0.0120  0.2555  0.4529
  179SAPS   O2220435   0.776   4.614   5.536  0.6043 -0.0512  0.5728
  179SAPS   C2220436   0.590   4.494   5.632 -0.1416 -0.4328  0.3726
  179SAPS   H2R20437   0.496   4.540   5.669 -0.3472 -0.0081 -0.6653
  179SAPS   H2S20438   0.554   4.401   5.585 -0.8643  0.9497 -1.9560
  179SAPS    C320439   0.611   4.867   5.374 -0.0425  0.2804 -0.1289
  179SAPS    HX20440   0.505   4.900   5.363 -0.4636 -0.1773  2.1032
  179SAPS    HY20441   0.674   4.907   5.292  1.0547 -3.1634 -1.1271
  179SAPS   O3120442   0.656   4.899   5.507  0.3062  0.0712  0.0581
  179SAPS   C3120443   0.782   4.913   5.518 -0.3753  0.4525 -0.1931
  179SAPS   O3220444   0.868   4.898   5.433  0.0744  0.3743  0.1427
  179SAPS   C3220445   0.813   4.963   5.662 -0.4125 -0.0539 -0.3001
  179SAPS   H2X20446   0.735   5.034   5.696 -0.5686 -1.1957  1.9214
  179SAPS   H2Y20447   0.914   5.008   5.648 -1.0245  1.3868 -0.2569
  179SAPS   C2320448   0.682   4.463   5.756 -0.2341  0.3410 -0.7574
  179SAPS   H3R20449   0.755   4.544   5.778  1.1666 -0.8481 -0.8613
  179SAPS   H3S20450   0.736   4.369   5.733 -0.7554 -0.2231  0.2286
  179SAPS   C2420451   0.589   4.424   5.874  0.4081  0.3080 -0.1004
  179SAPS   H4R20452   0.507   4.358   5.838  0.3278  0.6910 -0.6319
  179SAPS   H4S20453   0.541   4.520   5.903  0.4970  0.1614  0.5307
  179SAPS   C2520454   0.667   4.364   5.991  0.4841  0.1832 -0.7221
  179SAPS   H5R20455   0.714   4.266   5.972  1.0593  0.1937  0.5554
  179SAPS   C2620456   0.667   4.414   6.114 -0.5243 -0.5604  0.4566
  179SAPS   H6R20457   0.720   4.358   6.193  1.5108  0.8218  0.1352
  179SAPS   C2720458   0.613   4.547   6.161 -0.1529  0.0649  0.1813
  179SAPS   H7R20459   0.598   4.615   6.075  0.2338 -0.5124 -0.3524
  179SAPS   H7S20460   0.687   4.601   6.223 -0.9067 -1.2604  2.3669
  179SAPS   C2820461   0.477   4.557   6.222  0.4693 -0.9580  0.1675
  179SAPS   H8R20462   0.382   4.578   6.172  0.1850 -0.3594  0.9364
  179SAPS   C2920463   0.461   4.549   6.356  0.2984 -0.2582 -0.4496
  179SAPS   H9R20464   0.361   4.533   6.398 -1.1338  0.1281 -3.4582
  179SAPS  C21020465   0.572   4.535   6.459  0.1007  0.1228  0.0418
  179SAPS  H10R20466   0.650   4.467   6.418 -2.5563 -1.2170 -3.3216
  179SAPS  H10S20467   0.537   4.488   6.553  0.0192  0.7073  0.3045
  179SAPS  C21120468   0.637   4.668   6.480 -0.1523 -0.2565 -1.5029
  179SAPS  H11R20469   0.654   4.729   6.390  1.7254 -0.4780 -1.3469
  179SAPS  C21220470   0.694   4.712   6.595 -0.2562  0.4780 -0.4515
  179SAPS  H12R20471   0.754   4.804   6.585 -0.4007  0.5662 -0.5274
  179SAPS  C21320472   0.710   4.639   6.728  0.4688  0.9355 -0.2628
  179SAPS  H13R20473   0.814   4.601   6.721 -0.2515 -0.9312 -1.5020
  179SAPS  H13S20474   0.637   4.556   6.738  0.9518  0.3502 -1.4553
  179SAPS  C21420475   0.694   4.719   6.858 -0.4922 -0.4932  0.0594
  179SAPS  H14R20476   0.775   4.793   6.857 -1.0436  0.1073 -0.8073
  179SAPS  C21520477   0.604   4.705   6.956 -0.2761 -0.3102  0.3557
  179SAPS  H15R20478   0.603   4.775   7.041  2.5839 -0.7372  0.8299
  179SAPS  C21620479   0.497   4.596   6.969  0.0316 -0.4649 -0.6770
  179SAPS  H16R20480   0.512   4.506   6.906 -1.3209  0.1047 -1.8462
  179SAPS  H16S20481   0.408   4.648   6.928 -1.4818 -0.4242  2.3462
  179SAPS  C21720482   0.456   4.537   7.109 -0.8119 -0.4383 -0.1322
  179SAPS  H17R20483   0.550   4.542   7.169 -0.9259 -0.4820  0.0514
  179SAPS  H17S20484   0.422   4.433   7.090 -0.3265 -0.4499 -1.0161
  179SAPS  C21820485   0.354   4.636   7.175  0.6780  0.0854  0.7382
  179SAPS  H18R20486   0.261   4.635   7.116 -1.0099  0.9363  3.1911
  179SAPS  H18S20487   0.403   4.736   7.177  1.1888 -0.1608  1.0404
  179SAPS  C21920488   0.325   4.609   7.331  0.3523 -0.1727  1.0731
  179SAPS  H19R20489   0.420   4.601   7.387  0.0704 -3.9377  1.2529
  179SAPS  H19S20490   0.285   4.506   7.339  0.1155 -0.2413 -0.5855
  179SAPS  C22020491   0.221   4.701   7.396  0.2073 -0.3205  0.2477
  179SAPS  H20R20492   0.250   4.805   7.370 -0.5662 -0.5015 -1.4662
  179SAPS  H20S20493   0.216   4.703   7.507 -1.5676  2.8861  0.2171
  179SAPS  H20T20494   0.121   4.686   7.351  1.3275  0.9343 -2.8708
  179SAPS   C3320495   0.817   4.852   5.776 -0.3157  0.1404  0.6217
  179SAPS   H3X20496   0.880   4.765   5.749  1.0780  1.6565 -1.1622
  179SAPS   H3Y20497   0.713   4.812   5.778 -0.0556 -0.5407  0.5409
  179SAPS   C3420498   0.845   4.921   5.906  0.0759  0.0821  0.1934
  179SAPS   H4X20499   0.760   4.987   5.932  0.8849  0.9578  0.6819
  179SAPS   H4Y20500   0.932   4.989   5.897  0.5141 -0.4492  0.3266
  179SAPS   C3520501   0.881   4.829   6.028 -0.6910 -0.8697 -0.4971
  179SAPS   H5X20502   0.971   4.772   5.996  1.5618  1.6390  0.9549
  179SAPS   H5Y20503   0.788   4.775   6.054 -1.3285 -0.1801 -1.2858
  179SAPS   C3620504   0.918   4.918   6.152 -0.4835 -0.0178 -1.0158
  179SAPS   H6X20505   0.968   5.014   6.126 -0.0831  0.4369  1.1872
  179SAPS   H6Y20506   0.987   4.853   6.211 -2.1428  1.2135  2.5909
  179SAPS   C3720507   0.795   4.973   6.231  0.1127 -0.4126 -0.3124
  179SAPS   H7X20508   0.720   4.891   6.236 -1.0811  0.7373  2.1284
  179SAPS   H7Y20509   0.744   5.056   6.177  0.7069  1.3640  1.7380
  179SAPS   C3820510   0.813   5.015   6.380 -0.8404 -0.5005 -0.0904
  179SAPS   H8X20511   0.900   5.083   6.392 -0.5465 -1.2221  2.1452
  179SAPS   H8Y20512   0.847   4.922   6.429  1.2680  0.0425 -0.4100
  179SAPS   C3920513   0.697   5.083   6.447  0.4079  0.3605 -0.4400
  179SAPS   H9X20514   0.617   5.010   6.471 -2.0682  3.0738 -0.0406
  179SAPS   H9Y20515   0.656   5.155   6.373 -0.9786  0.4354  0.3773
  179SAPS  C31020516   0.741   5.144   6.582 -0.1676  0.1004  0.3124
  179SAPS  H10X20517   0.832   5.205   6.558 -0.9346  0.5322 -1.7448
  179SAPS  H10Y20518   0.788   5.065   6.644  1.3394  0.4243 -0.3469
  179SAPS  C31120519   0.618   5.203   6.652  0.1181 -0.5174 -0.0863
  179SAPS  H11X20520   0.541   5.127   6.676  0.8366 -1.2304  0.0029
  179SAPS  H11Y20521   0.568   5.279   6.589  0.7260  1.0533  1.2354
  179SAPS  C31220522   0.663   5.273   6.778  0.3733 -0.3839 -0.1311
  179SAPS  H12X20523   0.584   5.328   6.833 -0.1764 -0.7449 -0.5507
  179SAPS  H12Y20524   0.736   5.351   6.746 -1.2724  1.4107  0.3146
  179SAPS  C31320525   0.743   5.177   6.870 -0.1932  0.9823  0.2256
  179SAPS  H13X20526   0.842   5.158   6.823  0.2650  1.8700  0.8102
  179SAPS  H13Y20527   0.683   5.084   6.878  1.4159 -0.3455 -1.8847
  179SAPS  C31420528   0.754   5.232   7.018 -0.2318 -0.2503  0.0600
  179SAPS  H14X20529   0.651   5.250   7.057  0.5821  0.8573  1.8532
  179SAPS  H14Y20530   0.806   5.330   7.007 -0.2512 -0.1819  0.5424
  179SAPS  C31520531   0.850   5.144   7.098  0.8294  0.0386  0.2251
  179SAPS  H15X20532   0.945   5.133   7.041  0.9447  2.5026 -0.1888
  179SAPS  H15Y20533   0.823   5.037   7.103 -0.8189  0.4553  0.7282
  179SAPS  C31620534   0.872   5.197   7.239 -0.0897 -0.0993  0.0724
  179SAPS  H16X20535   0.879   5.307   7.254 -1.5943  0.4020 -2.3246
  179SAPS  H16Y20536   0.966   5.147   7.273 -1.5358 -2.7481  0.4306
  179SAPS  C31720537   0.764   5.148   7.331  0.2283  1.0588  0.0513
  179SAPS  H17X20538   0.769   5.037   7.333 -2.9417  0.8425  0.2741
  179SAPS  H17Y20539   0.662   5.178   7.298  0.0818 -1.1109 -1.7604
  179SAPS  C31820540   0.781   5.197   7.470 -0.3192 -0.0482  0.5019
  179SAPS  H18X20541   0.777   5.308   7.467 -0.8422 -0.0445 -3.3051
  179SAPS  H18Y20542   0.880   5.167   7.509  0.5319  0.1359 -1.4483
  179SAPS  H18Z20543   0.695   5.160   7.531 -0.6456 -1.7747 -0.9201
  180SAPS     N20544   1.385   0.943   5.108  0.6962  0.1788 -0.3164
  180SAPS   HN120545   1.373   0.945   5.211  0.3992 -1.0073 -0.3089
  180SAPS   HN220546   1.391   0.843   5.079 -2.4393 -0.4817  0.9665
  180SAPS   HN320547   1.472   0.996   5.085 -0.1527  1.0626 -1.5985
  180SAPS   C1220548   1.261   1.005   5.031 -0.8188 -0.0330  0.1319
  180SAPS  H12A20549   1.266   1.110   5.057  2.8865  0.4837 -1.9731
  180SAPS   C1320550   1.254   1.008   4.874  0.2865 -0.1665  0.0331
  180SAPS  O13A20551   1.345   0.956   4.805 -0.3471 -0.0417  0.0603
  180SAPS  O13B20552   1.150   1.054   4.821  0.2361 -0.0856  0.1473
  180SAPS   C1120553   1.140   0.944   5.098  0.3043  0.7780 -1.3315
  180SAPS  H11A20554   1.059   1.011   5.064 -1.5051  0.5806  2.1552
  180SAPS  H11B20555   1.152   0.951   5.209  2.4823  0.6214 -1.5095
  180SAPS     P20556   0.998   0.723   5.120  0.2229 -0.1210 -0.2399
  180SAPS   O1320557   0.866   0.792   5.111 -0.5683  0.1557 -0.1953
  180SAPS   O1420558   1.010   0.585   5.062  0.0664 -0.5090 -0.0349
  180SAPS   O1220559   1.119   0.807   5.060  0.4536  0.2157 -0.3552
  180SAPS   O1120560   1.061   0.721   5.265  0.4431  0.0382  0.0635
  180SAPS    C120561   1.160   0.638   5.307 -0.1836  0.1884 -0.2077
  180SAPS    HA20562   1.127   0.536   5.282  0.0051 -0.1592  0.9160
  180SAPS    HB20563   1.254   0.656   5.250  1.0649  0.9655  1.9422
  180SAPS    C220564   1.203   0.659   5.458 -0.2678  0.0003  1.0903
  180SAPS    HS20565   1.289   0.592   5.476  1.2522  1.3280 -0.7881
  180SAPS   O2120566   1.083   0.641   5.539 -0.0583  0.1294  0.4724
  180SAPS   C2120567   1.020   0.525   5.538 -0.0584 -0.0996  0.4183
  180SAPS   O2220568   1.069   0.418   5.501 -0.3419 -0.6754 -0.4355
  180SAPS   C2220569   0.880   0.552   5.591 -0.6269 -0.0312 -0.0921
  180SAPS   H2R20570   0.896   0.594   5.693 -0.2482 -1.2543  0.3709
  180SAPS   H2S20571   0.832   0.613   5.512 -1.6844  0.0587  0.6017
  180SAPS    C320572   1.254   0.807   5.487 -0.1784  0.2659 -0.2307
  180SAPS    HX20573   1.174   0.877   5.455  0.4264  0.5593 -1.1167
  180SAPS    HY20574   1.351   0.826   5.438  0.2999  1.7252  1.1892
  180SAPS   O3120575   1.279   0.821   5.630 -0.2371 -0.1493  0.8027
  180SAPS   C3120576   1.188   0.877   5.698  0.9334 -0.0374 -0.0722
  180SAPS   O3220577   1.084   0.929   5.656 -0.0187 -0.2340  0.0609
  180SAPS   C3220578   1.220   0.873   5.842  0.2399 -0.1287 -0.5295
  180SAPS   H2X20579   1.262   0.972   5.868 -0.5085 -0.8666  4.3420
  180SAPS   H2Y20580   1.289   0.789   5.861 -1.7435 -1.6716  0.2256
  180SAPS   C2320581   0.806   0.413   5.611  0.3960 -0.1566 -0.4930
  180SAPS   H3R20582   0.877   0.333   5.642  0.2190 -0.5278 -1.0319
  180SAPS   H3S20583   0.768   0.386   5.510  0.7150 -0.9481 -0.4148
  180SAPS   C2420584   0.690   0.411   5.704 -0.2410 -0.4895 -0.2999
  180SAPS   H4R20585   0.647   0.309   5.705 -1.5348  0.0391  0.3065
  180SAPS   H4S20586   0.612   0.476   5.660 -0.1146  0.8201  1.3055
  180SAPS   C2520587   0.723   0.456   5.846 -0.4234 -1.0042  0.1731
  180SAPS   H5R20588   0.728   0.565   5.860 -0.6076 -1.1933  1.8583
  180SAPS   C2620589   0.760   0.370   5.940  0.4582  0.0235 -0.1970
  180SAPS   H6R20590   0.774   0.414   6.040 -0.7851  0.1017 -0.0410
  180SAPS   C2720591   0.759   0.219   5.935 -0.4013  0.9252 -0.4095
  180SAPS   H7R20592   0.758   0.176   5.833 -2.3651 -2.5512  0.8596
  180SAPS   H7S20593   0.669   0.182   5.990  1.1554 -2.0016  0.3477
  180SAPS   C2820594   0.887   0.166   6.004 -0.0658 -0.1330 -0.4206
  180SAPS   H8R20595   0.981   0.189   5.951 -0.3288  1.0190 -0.4023
  180SAPS   C2920596   0.899   0.109   6.127 -0.4279  0.4457  0.9528
  180SAPS   H9R20597   0.995   0.071   6.165 -0.7865 -1.8070 -0.2121
  180SAPS  C21020598   0.788   0.086   6.225 -0.6063  0.5296 -0.1159
  180SAPS  H10R20599   0.816  -0.014   6.265  0.5899  0.4109 -1.1915
  180SAPS  H10S20600   0.699   0.071   6.161 -1.2128  0.9799  0.6079
  180SAPS  C21120601   0.774   0.196   6.330  0.4323  0.0522 -0.0886
  180SAPS  H11R20602   0.724   0.288   6.296  0.4851 -0.2659 -1.0512
  180SAPS  C21220603   0.808   0.191   6.458 -0.1040  0.3016  0.3336
  180SAPS  H12R20604   0.798   0.279   6.523  2.1223 -0.2070  1.4422
  180SAPS  C21320605   0.871   0.074   6.526  0.3177  0.5162 -0.2010
  180SAPS  H13R20606   0.959   0.039   6.467  0.1971  1.2699 -0.8524
  180SAPS  H13S20607   0.803  -0.013   6.521  0.0459  0.7716 -1.7354
  180SAPS  C21420608   0.910   0.103   6.672  0.3755  0.2265 -0.0473
  180SAPS  H14R20609   1.019   0.113   6.679  0.5320  0.7674 -2.4004
  180SAPS  C21520610   0.833   0.099   6.785  0.0372  0.1938  0.0067
  180SAPS  H15R20611   0.872   0.138   6.880 -1.6870  1.1343  0.3793
  180SAPS  C21620612   0.688   0.073   6.798 -0.5618 -0.4356  0.0028
  180SAPS  H16R20613   0.645   0.049   6.699  1.1399 -1.5304 -0.4971
  180SAPS  H16S20614   0.629   0.158   6.840  1.6957  1.6993 -0.8856
  180SAPS  C21720615   0.663  -0.047   6.886  0.0008  0.1063  0.3459
  180SAPS  H17R20616   0.715  -0.138   6.850 -0.8996 -1.3135  2.4080
  180SAPS  H17S20617   0.556  -0.071   6.869  0.5191 -1.8702 -0.4424
  180SAPS  C21820618   0.691  -0.039   7.032  0.0539 -0.6403 -0.6024
  180SAPS  H18R20619   0.797  -0.012   7.051 -0.3319 -1.1335  3.0465
  180SAPS  H18S20620   0.669  -0.138   7.076  0.9658 -0.5487  0.1095
  180SAPS  C21920621   0.603   0.059   7.107  0.4249 -0.6854  0.0005
  180SAPS  H19R20622   0.560   0.013   7.198  1.0180 -0.7820  0.2375
  180SAPS  H19S20623   0.532   0.108   7.037  1.1341 -0.9651 -0.9447
  180SAPS  C22020624   0.695   0.168   7.160  0.6435  0.5608 -0.5634
  180SAPS  H20R20625   0.763   0.216   7.086  1.3780  1.8041  0.8713
  180SAPS  H20S20626   0.626   0.246   7.198  1.1403  0.4181  0.6924
  180SAPS  H20T20627   0.759   0.139   7.246  0.1662  1.6828  0.1954
  180SAPS   C3320628   1.097   0.860   5.936  0.3668  0.6434  0.1324
  180SAPS   H3X20629   1.036   0.952   5.918 -1.1281 -0.5539 -1.2562
  180SAPS   H3Y20630   1.127   0.869   6.043  1.0071 -1.1183  0.1314
  180SAPS   C3420631   1.010   0.733   5.918  0.1483  0.7961  0.1527
  180SAPS   H4X20632   0.966   0.749   5.817 -0.7842  1.1509  0.6076
  180SAPS   H4Y20633   0.926   0.740   5.991  1.7231 -0.6121  2.2088
  180SAPS   C3520634   1.085   0.596   5.942  0.3408 -0.1596 -0.5160
  180SAPS   H5X20635   1.181   0.579   5.889  1.4466  1.3714  0.9264
  180SAPS   H5Y20636   1.022   0.511   5.907 -1.6615  0.3561  1.6111
  180SAPS   C3620637   1.117   0.573   6.090  0.5614  0.0637  0.2782
  180SAPS   H6X20638   1.018   0.586   6.139 -0.7052 -2.2931 -1.4322
  180SAPS   H6Y20639   1.182   0.655   6.127 -0.1528  2.8033 -3.8680
  180SAPS   C3720640   1.165   0.437   6.128 -0.2236  0.4713 -1.0148
  180SAPS   H7X20641   1.254   0.412   6.067 -0.0324  0.5376 -0.7679
  180SAPS   H7Y20642   1.086   0.362   6.108 -0.1453  0.1915 -0.3205
  180SAPS   C3820643   1.216   0.419   6.276 -0.8419  0.2215  0.5171
  180SAPS   H8X20644   1.309   0.480   6.288 -0.3347  0.0032 -1.8537
  180SAPS   H8Y20645   1.256   0.316   6.290 -0.8617  0.2941  1.1300
  180SAPS   C3920646   1.117   0.449   6.387  0.3411  0.0137  0.2783
  180SAPS   H9X20647   1.017   0.425   6.344  0.9665 -1.3441 -0.4581
  180SAPS   H9Y20648   1.117   0.558   6.412 -0.2921  0.5119 -1.7267
  180SAPS  C31020649   1.135   0.357   6.512  1.0680 -0.3065  0.2896
  180SAPS  H10X20650   1.145   0.252   6.477  2.2451  0.1254 -0.7345
  180SAPS  H10Y20651   1.041   0.361   6.571 -0.7261 -1.2114 -2.3142
  180SAPS  C31120652   1.250   0.397   6.587  0.1549 -0.1160  0.1552
  180SAPS  H11X20653   1.332   0.425   6.518  0.4380 -1.5193 -0.1016
  180SAPS  H11Y20654   1.286   0.311   6.646 -1.1817 -1.5129 -0.9793
  180SAPS  C31220655   1.236   0.513   6.688  1.0121  0.2309  0.4112
  180SAPS  H12X20656   1.155   0.584   6.659  2.9039  2.6483  0.6787
  180SAPS  H12Y20657   1.333   0.568   6.687  0.4865  1.1760  0.3299
  180SAPS  C31320658   1.194   0.467   6.829 -0.0333  0.8779 -0.0525
  180SAPS  H13X20659   1.201   0.553   6.899 -1.4036 -0.1161  1.3889
  180SAPS  H13Y20660   1.273   0.392   6.850 -0.7593  0.4823  1.4548
  180SAPS  C31420661   1.056   0.402   6.839  0.8327  0.1822 -0.2041
  180SAPS  H14X20662   1.031   0.321   6.766 -1.4509  1.2999 -0.7520
  180SAPS  H14Y20663   0.986   0.488   6.835 -0.9339 -1.1847 -0.3313
  180SAPS  C31520664   1.040   0.354   6.988 -0.6763 -0.9842  0.5182
  180SAPS  H15X20665   0.931   0.334   7.002 -0.6295 -0.2069  2.2662
  180SAPS  H15Y20666   1.068   0.431   7.064  0.7219  2.0155 -2.7600
  180SAPS  C31620667   1.133   0.244   7.024  0.1491  0.7270  0.0841
  180SAPS  H16X20668   1.241   0.271   7.023  0.7181 -1.1966  1.9884
  180SAPS  H16Y20669   1.129   0.174   6.938  2.3998 -1.7497  1.8653
  180SAPS  C31720670   1.108   0.180   7.163 -0.3178  0.0614 -0.4207
  180SAPS  H17X20671   1.038   0.094   7.154 -0.0648 -0.4177  1.7130
  180SAPS  H17Y20672   1.065   0.252   7.236  2.2073 -1.8804  3.3262
  180SAPS  C31820673   1.241   0.123   7.220  0.9373  0.7046 -0.5879
  180SAPS  H18X20674   1.207   0.070   7.312 -0.3900 -1.7273 -2.3600
  180SAPS  H18Y20675   1.307   0.206   7.254 -0.3116  0.6833  2.1705
  180SAPS  H18Z20676   1.292   0.050   7.154 -2.8545 -1.2582 -1.6344
  181POPC     N20677   3.574   5.202   0.823  0.7203 -0.5837 -0.6807
  181POPC   C1220678   3.599   5.252   0.683 -0.5432 -0.5426 -0.0245
  181POPC  H12A20679   3.680   5.190   0.648 -0.9725 -0.2505 -1.6330
  181POPC  H12B20680   3.642   5.351   0.687 -0.7430 -0.3144 -2.3178
  181POPC   C1320681   3.453   5.268   0.881 -0.5870  0.3998 -0.2401
  181POPC  H13A20682   3.380   5.272   0.802  1.2311 -5.5085 -2.7503
  181POPC  H13B20683   3.408   5.215   0.964 -0.8038 -1.4016 -1.4464
  181POPC  H13C20684   3.484   5.363   0.921 -1.4494  0.1075  1.1854
  181POPC   C1420685   3.545   5.057   0.810  0.2381  0.7254 -0.3848
  181POPC  H14A20686   3.545   4.999   0.901  0.4124 -3.4502 -2.7570
  181POPC  H14B20687   3.454   5.031   0.756  1.1934 -1.3956 -1.0832
  181POPC  H14C20688   3.625   5.005   0.759 -0.6418 -0.2000 -0.8616
  181POPC   C1520689   3.690   5.215   0.914 -0.5765 -0.4035 -0.6227
  181POPC  H15A20690   3.658   5.176   1.009  2.3828  1.7571  1.4275
  181POPC  H15B20691   3.729   5.315   0.929  0.0414 -0.9733  1.8453
  181POPC  H15C20692   3.769   5.142   0.905 -1.0840 -1.1946  1.0015
  181POPC   C1120693   3.500   5.241   0.570 -0.0088  0.3591  0.4841
  181POPC  H11A20694   3.493   5.133   0.545  3.8547  0.3965 -1.6227
  181POPC  H11B20695   3.539   5.283   0.474 -1.9738 -2.5718 -1.7899
  181POPC     P20696   3.367   5.466   0.599  0.2116 -0.0318  0.1391
  181POPC   O1320697   3.456   5.525   0.702 -0.2689 -0.3830  0.3396
  181POPC   O1420698   3.225   5.513   0.597 -0.1073  0.1754 -0.6735
  181POPC   O1220699   3.374   5.311   0.598 -0.4580 -0.0686  0.2083
  181POPC   O1120700   3.435   5.499   0.454 -0.2400 -0.6156  0.2311
  181POPC    C120701   3.345   5.538   0.350  0.7274 -0.1033  0.5958
  181POPC    HA20702   3.395   5.586   0.263 -1.1009 -0.7466 -0.8841
  181POPC    HB20703   3.263   5.604   0.385 -0.0145 -0.6486 -0.0804
  181POPC    C220704   3.287   5.408   0.285  0.5379 -0.3328 -0.4226
  181POPC    HS20705   3.221   5.373   0.367 -0.9489 -0.1275 -1.4884
  181POPC   O2120706   3.393   5.315   0.250 -0.1432  0.1349  1.2540
  181POPC   C2120707   3.353   5.190   0.219 -0.7272 -0.7082 -0.6306
  181POPC   O2220708   3.239   5.151   0.211  0.3244  0.2502 -0.4780
  181POPC   C2220709   3.481   5.103   0.204  1.0433 -0.3431  0.3527
  181POPC   H2R20710   3.538   5.115   0.298 -0.5144 -0.6130  1.3699
  181POPC   H2S20711   3.534   5.136   0.112 -1.6412 -0.8236 -1.4864
  181POPC    C320712   3.185   5.442   0.166  0.2189  0.4655  0.6928
  181POPC    HX20713   3.093   5.484   0.211 -1.1676 -1.5951 -0.0820
  181POPC    HY20714   3.151   5.348   0.118 -0.3210  1.3189 -0.6531
  181POPC   O3120715   3.243   5.513   0.052  1.1985  0.0362 -0.5960
  181POPC   C3120716   3.191   5.639   0.025 -0.0203  1.0735  0.9241
  181POPC   O3220717   3.102   5.693   0.088  0.5637 -0.5354  0.5331
  181POPC   C3220718   3.267   5.697  -0.091 -0.2957  0.2044  0.8092
  181POPC   H2X20719   3.376   5.676  -0.086  0.0350  1.6180  0.1302
  181POPC   H2Y20720   3.252   5.807  -0.100 -3.4050 -0.1679 -0.0150
  181POPC   C2320721   3.438   4.959   0.182  0.3544  0.2155 -0.5929
  181POPC   H3R20722   3.331   4.945   0.157  0.3545 -1.5344  0.2721
  181POPC   H3S20723   3.464   4.901   0.273  0.8197 -3.7465 -3.0325
  181POPC   C2420724   3.509   4.895   0.062  0.1417  0.2183 -0.2609
  181POPC   H4R20725   3.489   4.786   0.055  0.2147  0.1441  0.5402
  181POPC   H4S20726   3.618   4.909   0.078  0.2845 -1.6513  0.7107
  181POPC   C2520727   3.470   4.962  -0.071 -0.0281  0.0326  0.0362
  181POPC   H5R20728   3.476   5.073  -0.071 -2.1498  0.1861  0.5236
  181POPC   H5S20729   3.362   4.941  -0.089 -0.4043  2.3120 -0.7187
  181POPC   C2620730   3.540   4.911  -0.201 -0.8448  0.6221 -0.2913
  181POPC   H6R20731   3.533   4.800  -0.196  1.9977  0.4147  0.9186
  181POPC   H6S20732   3.648   4.938  -0.205 -1.0075  1.2256 -0.8044
  181POPC   C2720733   3.467   4.958  -0.328 -0.1804  0.2758 -0.0520
  181POPC   H7R20734   3.481   5.068  -0.319 -0.8077  0.3218  0.3878
  181POPC   H7S20735   3.361   4.928  -0.332  0.5643 -2.5551 -0.7862
  181POPC   C2820736   3.546   4.926  -0.453  0.4238 -0.4059 -0.1098
  181POPC   H8R20737   3.650   4.959  -0.435  0.3571 -0.2374 -0.0312
  181POPC   H8S20738   3.511   4.994  -0.533 -0.0760  1.1841  1.4089
  181POPC   C2920739   3.530   4.781  -0.491 -0.6657 -0.0816 -0.0245
  181POPC   H9120740   3.506   4.717  -0.404  0.1252  0.2303  0.4375
  181POPC  C21020741   3.552   4.725  -0.612  1.2899  0.1673  0.2397
  181POPC  H10120742   3.532   4.618  -0.629 -0.2456  0.1738  1.7675
  181POPC  C21120743   3.590   4.811  -0.734  0.0278 -0.0514  0.3027
  181POPC  H11R20744   3.671   4.877  -0.698 -2.3153  1.5429  3.1015
  181POPC  H11S20745   3.502   4.875  -0.758 -0.0418 -0.2561  0.0171
  181POPC  C21220746   3.618   4.736  -0.862  0.0034  0.6258 -0.2840
  181POPC  H12R20747   3.526   4.681  -0.892 -0.3915  1.5035 -0.7220
  181POPC  H12S20748   3.696   4.657  -0.861 -0.9115 -0.3040  0.0050
  181POPC  C21320749   3.668   4.826  -0.963 -0.0840 -0.3288  0.6596
  181POPC  H13R20750   3.766   4.867  -0.929 -0.4935 -0.4020  1.9773
  181POPC  H13S20751   3.593   4.908  -0.957  1.9062  1.6964 -0.4579
  181POPC  C21420752   3.679   4.762  -1.099 -0.3012 -0.0710  0.5785
  181POPC  H14R20753   3.579   4.736  -1.140  0.3702 -0.9954 -0.5805
  181POPC  H14S20754   3.726   4.661  -1.094  0.5415 -0.0616 -3.4603
  181POPC  C21520755   3.760   4.840  -1.202 -0.0003  0.4047 -0.1013
  181POPC  H15R20756   3.867   4.868  -1.188  1.0374 -2.8605 -0.6711
  181POPC  H15S20757   3.701   4.932  -1.223 -1.0560 -0.4245 -0.8755
  181POPC  C21620758   3.759   4.772  -1.340 -0.5695  0.2086 -0.2239
  181POPC  H16R20759   3.655   4.734  -1.347 -0.4347 -1.8487  4.7570
  181POPC  H16S20760   3.826   4.683  -1.339 -1.1323 -0.2370  1.0153
  181POPC  C21720761   3.803   4.860  -1.454 -0.6001 -0.5517  0.4419
  181POPC  H17R20762   3.912   4.877  -1.447 -0.1074 -0.4409 -4.3847
  181POPC  H17S20763   3.763   4.962  -1.441  0.3286 -0.3863  2.2200
  181POPC  C21820764   3.772   4.813  -1.599 -0.2793  0.5186 -0.1789
  181POPC  H18R20765   3.665   4.785  -1.611 -0.6310  2.2987 -1.7844
  181POPC  H18S20766   3.838   4.729  -1.628  1.1702  0.6011  2.5159
  181POPC  H18T20767   3.793   4.901  -1.663  0.1196  0.3329 -0.2995
  181POPC   C3320768   3.218   5.636  -0.225 -0.0116  0.1762  0.2046
  181POPC   H3X20769   3.108   5.628  -0.224 -0.1218  1.3366  1.6342
  181POPC   H3Y20770   3.256   5.533  -0.244  4.0725  1.8970 -2.4749
  181POPC   C3420771   3.265   5.709  -0.354 -0.1428  0.4078  0.2350
  181POPC   H4X20772   3.243   5.818  -0.362 -0.9856  0.1128 -5.8640
  181POPC   H4Y20773   3.220   5.659  -0.442 -0.6361  0.7816  0.2691
  181POPC   C3520774   3.420   5.690  -0.368  0.3708 -0.4351 -0.0858
  181POPC   H5X20775   3.461   5.596  -0.326  2.9268  1.0705  1.0455
  181POPC   H5Y20776   3.478   5.769  -0.315 -0.2611 -0.3070  0.4309
  181POPC   C3620777   3.456   5.686  -0.520  0.0393  0.3206 -0.0043
  181POPC   H6X20778   3.398   5.612  -0.580  1.8034  1.3160 -3.2039
  181POPC   H6Y20779   3.566   5.675  -0.530  0.3266  0.9200  2.0815
  181POPC   C3720780   3.427   5.821  -0.587  0.5351 -1.0015  1.2374
  181POPC   H7X20781   3.499   5.898  -0.552  0.8627 -0.1078 -1.1843
  181POPC   H7Y20782   3.329   5.866  -0.558  1.4258  1.6238  0.4973
  181POPC   C3820783   3.432   5.820  -0.745  0.2550 -0.3482  0.8225
  181POPC   H8X20784   3.402   5.920  -0.783 -0.8943 -1.1398 -0.4524
  181POPC   H8Y20785   3.354   5.750  -0.783 -0.3787  0.4893  0.5594
  181POPC   C3920786   3.569   5.790  -0.806 -1.1935 -0.0844  0.1800
  181POPC   H9X20787   3.613   5.693  -0.774 -0.6504 -0.1181 -0.6584
  181POPC   H9Y20788   3.645   5.854  -0.756 -1.4240 -2.7851  4.5593
  181POPC  C31020789   3.565   5.810  -0.957  0.9088 -0.2078 -0.7653
  181POPC  H10X20790   3.499   5.898  -0.977  0.2348 -0.6689 -0.5858
  181POPC  H10Y20791   3.497   5.729  -0.990 -2.0659  1.4119  0.9661
  181POPC  C31120792   3.701   5.812  -1.025 -0.2914 -0.0031  0.3418
  181POPC  H11X20793   3.777   5.746  -0.979  0.9933  1.2546  0.0773
  181POPC  H11Y20794   3.750   5.911  -1.023  3.2032 -1.4747 -1.7595
  181POPC  C31220795   3.700   5.784  -1.175  0.2904  0.2857 -0.1656
  181POPC  H12X20796   3.592   5.787  -1.201 -0.1476 -1.6945  1.1826
  181POPC  H12Y20797   3.725   5.680  -1.205  1.4106  0.6090 -0.3785
  181POPC  C31320798   3.778   5.886  -1.249  0.1541  0.6367 -0.5159
  181POPC  H13X20799   3.886   5.861  -1.249 -0.1956 -2.5412 -6.2414
  181POPC  H13Y20800   3.768   5.986  -1.201 -0.1359  0.3775 -0.0273
  181POPC  C31420801   3.752   5.899  -1.404 -0.2826  0.6944  0.0632
  181POPC  H14X20802   3.643   5.916  -1.411 -0.5451 -0.5938  0.6903
  181POPC  H14Y20803   3.778   5.797  -1.441  0.0565  0.1286  1.7660
  181POPC  C31520804   3.832   6.006  -1.472 -0.6596 -0.6410  0.1040
  181POPC  H15X20805   3.839   6.088  -1.398  1.4366 -1.2118  0.6140
  181POPC  H15Y20806   3.785   6.039  -1.567 -2.4527 -0.8617  0.8850
  181POPC  C31620807   3.978   5.968  -1.515 -0.7136  0.4506 -0.1292
  181POPC  H16X20808   4.024   6.065  -1.544 -1.2471  1.1264  1.2369
  181POPC  H16Y20809   3.975   5.885  -1.589 -0.1805 -2.2731  2.7092
  181POPC  H16Z20810   4.028   5.921  -1.428 -0.8857 -3.4084 -1.9148
  182POPC     N20811   6.375   1.012   1.229  0.1521 -0.2065  0.0081
  182POPC   C1220812   6.340   0.949   1.094  0.4076  0.1914 -0.3605
  182POPC  H12A20813   6.374   0.846   1.091 -3.4862 -1.2331 -1.8773
  182POPC  H12B20814   6.400   0.996   1.018  1.0002  0.0663  0.0164
  182POPC   C1320815   6.343   1.158   1.228 -0.0398 -0.3381 -0.0146
  182POPC  H13A20816   6.406   1.220   1.166  0.0651  0.4198  0.8353
  182POPC  H13B20817   6.253   1.177   1.172 -0.3995  0.9422  0.9443
  182POPC  H13C20818   6.351   1.194   1.330  1.8060 -1.2160  0.1897
  182POPC   C1420819   6.284   0.951   1.338  0.3683 -0.3506  0.1971
  182POPC  H14A20820   6.192   1.008   1.339  1.1696  1.0847 -1.4704
  182POPC  H14B20821   6.258   0.850   1.312 -0.8748  0.4490 -1.8663
  182POPC  H14C20822   6.330   0.958   1.435 -1.5495  1.8170  1.0627
  182POPC   C1520823   6.515   0.995   1.271 -0.6863 -0.5230  0.0391
  182POPC  H15A20824   6.585   1.037   1.200 -1.0981 -0.0045 -0.0698
  182POPC  H15B20825   6.542   0.893   1.292  0.3025 -0.5498 -1.1980
  182POPC  H15C20826   6.522   1.054   1.362 -0.1688 -1.9017  0.9245
  182POPC   C1120827   6.196   0.943   1.041  0.8611 -0.1087 -0.2526
  182POPC  H11A20828   6.131   0.881   1.105 -0.8214  1.8651  0.0519
  182POPC  H11B20829   6.189   0.895   0.941  1.0300  1.0781 -0.8522
  182POPC     P20830   6.138   1.168   0.909  0.7462  0.0239  0.0005
  182POPC   O1320831   6.247   1.136   0.820 -0.1982  0.4535  0.3016
  182POPC   O1420832   6.139   1.300   0.969 -0.0278 -0.3913 -0.7050
  182POPC   O1220833   6.130   1.065   1.035  0.4443 -0.1212 -0.3726
  182POPC   O1120834   5.994   1.149   0.837  0.0033 -0.0912 -0.4031
  182POPC    C120835   5.973   1.019   0.785  0.0396 -0.8698 -0.0265
  182POPC    HA20836   5.893   0.964   0.840 -0.8080 -0.9194 -1.2676
  182POPC    HB20837   6.062   0.953   0.786  1.4987  0.9693 -1.3209
  182POPC    C220838   5.917   1.031   0.640 -0.1003 -0.7342 -0.3110
  182POPC    HS20839   5.896   0.935   0.588 -0.5335 -0.4493 -0.6580
  182POPC   O2120840   6.005   1.104   0.555  0.1715  0.3594  0.0766
  182POPC   C2120841   6.116   1.037   0.511  0.1006  0.2587 -0.0073
  182POPC   O2220842   6.145   0.927   0.556  0.3173  0.4052  0.4116
  182POPC   C2220843   6.191   1.118   0.405 -0.9413 -0.7142  0.9972
  182POPC   H2R20844   6.296   1.142   0.430 -1.0337  0.8470  0.0332
  182POPC   H2S20845   6.149   1.221   0.394  0.1773 -0.5322 -3.7983
  182POPC    C320846   5.790   1.118   0.640  0.3291  0.5496  0.2228
  182POPC    HX20847   5.821   1.220   0.673 -0.5625  0.2027  2.2472
  182POPC    HY20848   5.723   1.084   0.721 -0.4615  0.5860 -0.4080
  182POPC   O3120849   5.717   1.122   0.514 -0.3961  0.0245 -0.4987
  182POPC   C3120850   5.617   1.033   0.499  0.0686 -0.0341 -0.1413
  182POPC   O3220851   5.581   0.950   0.584 -0.2476 -0.2270 -0.3150
  182POPC   C3220852   5.555   1.052   0.361  0.7438  0.0659  0.4310
  182POPC   H2X20853   5.520   1.158   0.366 -1.1078 -0.2383 -2.9192
  182POPC   H2Y20854   5.470   0.982   0.343 -0.5735  1.4953  0.8499
  182POPC   C2320855   6.190   1.059   0.260 -0.2209  0.2790 -0.1070
  182POPC   H3R20856   6.251   0.966   0.255 -0.0066  0.4340 -0.4530
  182POPC   H3S20857   6.246   1.128   0.192 -1.4168  2.4463  1.0254
  182POPC   C2420858   6.047   1.053   0.206  0.1226 -0.5479  0.0339
  182POPC   H4R20859   5.988   1.146   0.221 -1.4385 -1.6147  0.7473
  182POPC   H4S20860   5.994   0.976   0.266  0.8111 -0.1027  1.2440
  182POPC   C2520861   6.027   1.015   0.061  0.6282  0.1542 -1.1781
  182POPC   H5R20862   5.919   1.016   0.033 -0.2274  0.4777  1.7806
  182POPC   H5S20863   6.073   0.918   0.034  1.9938  0.4825 -0.1189
  182POPC   C2620864   6.094   1.110  -0.039  0.5356 -0.6069 -0.5086
  182POPC   H6R20865   6.202   1.084  -0.046  0.0043 -3.7036  1.0836
  182POPC   H6S20866   6.076   1.209   0.007 -0.0100 -1.5249  1.3479
  182POPC   C2720867   6.030   1.131  -0.178 -0.2297 -0.0130  0.4722
  182POPC   H7R20868   6.111   1.185  -0.233  0.5467  0.1078  1.6964
  182POPC   H7S20869   5.939   1.191  -0.160 -0.3556 -0.4749  1.4376
  182POPC   C2820870   5.996   1.010  -0.267  0.8708  0.4113 -0.1299
  182POPC   H8R20871   5.911   0.961  -0.215 -0.6005  4.5581  1.8079
  182POPC   H8S20872   6.071   0.928  -0.272  1.1482  0.6032  0.7775
  182POPC   C2920873   5.961   1.078  -0.400  0.2142  0.1615  0.2895
  182POPC   H9120874   5.872   1.143  -0.397  0.9842  1.2403  0.4346
  182POPC  C21020875   6.017   1.057  -0.520  0.2693 -0.3787  0.0227
  182POPC  H10120876   5.967   1.107  -0.605  1.2751  0.6198 -0.0056
  182POPC  C21120877   6.141   0.976  -0.557  0.1769 -0.1554  0.4495
  182POPC  H11R20878   6.115   0.870  -0.582  0.6861  0.2703 -2.2484
  182POPC  H11S20879   6.206   0.972  -0.467 -2.1476 -0.9876  2.2038
  182POPC  C21220880   6.228   1.042  -0.672  0.2548 -0.1230 -1.1611
  182POPC  H12R20881   6.330   0.998  -0.672  0.9754  1.4540 -0.1561
  182POPC  H12S20882   6.239   1.149  -0.642 -1.5041  0.3054 -1.9307
  182POPC  C21320883   6.151   1.040  -0.800  1.0133 -0.0014  0.5463
  182POPC  H13R20884   6.070   1.115  -0.811  1.3068  0.1329 -0.9525
  182POPC  H13S20885   6.101   0.942  -0.814  0.4844  0.5127 -1.6186
  182POPC  C21420886   6.235   1.052  -0.926  0.2615 -0.4961 -0.2309
  182POPC  H14R20887   6.318   1.126  -0.922 -1.0247  1.0302 -0.7291
  182POPC  H14S20888   6.174   1.082  -1.014  0.4523 -0.3642 -0.3205
  182POPC  C21520889   6.296   0.917  -0.971 -0.8962 -0.3223  0.0923
  182POPC  H15R20890   6.206   0.856  -0.994  0.7780 -3.2789  0.9089
  182POPC  H15S20891   6.352   0.886  -0.880 -0.6466 -0.1387  0.0011
  182POPC  C21620892   6.375   0.935  -1.101 -0.3120  0.3800  0.3878
  182POPC  H16R20893   6.468   0.984  -1.066 -0.1542 -0.5491  1.3362
  182POPC  H16S20894   6.313   1.000  -1.167  0.0549 -0.4130 -0.7654
  182POPC  C21720895   6.383   0.802  -1.183  0.0567  0.2035 -0.1465
  182POPC  H17R20896   6.279   0.769  -1.204 -0.2009  1.6961 -1.4303
  182POPC  H17S20897   6.443   0.726  -1.127 -0.8735 -0.0949  0.4746
  182POPC  C21820898   6.443   0.809  -1.322  0.5054  0.2046 -1.1187
  182POPC  H18R20899   6.443   0.712  -1.375  0.5199 -0.1017 -0.5597
  182POPC  H18S20900   6.545   0.851  -1.314  0.6718 -0.4216  0.3444
  182POPC  H18T20901   6.388   0.884  -1.384  0.2924  2.1175  1.2401
  182POPC   C3320902   5.637   1.049   0.235 -0.2593  0.3702 -0.5276
  182POPC   H3X20903   5.688   0.951   0.227  0.5575  0.7003  0.4106
  182POPC   H3Y20904   5.721   1.121   0.242  0.4205 -0.5754  4.2022
  182POPC   C3420905   5.554   1.071   0.108  0.1182 -0.2620  0.3883
  182POPC   H4X20906   5.507   1.172   0.106  0.7822  0.0534 -1.2444
  182POPC   H4Y20907   5.475   0.993   0.116 -0.7207  0.4250 -0.8873
  182POPC   C3520908   5.634   1.069  -0.017 -0.3708  0.4751  0.7499
  182POPC   H5X20909   5.671   0.965  -0.034  1.5023  1.3058 -0.6576
  182POPC   H5Y20910   5.722   1.136  -0.016  0.2768 -0.3524  0.7748
  182POPC   C3620911   5.543   1.113  -0.143 -0.1306  0.1341  0.4740
  182POPC   H6X20912   5.523   1.220  -0.122 -0.1627 -0.1377  1.8832
  182POPC   H6Y20913   5.447   1.058  -0.136 -1.5798  2.4687  0.1681
  182POPC   C3720914   5.613   1.095  -0.279  0.8220 -0.6101 -0.0412
  182POPC   H7X20915   5.669   0.999  -0.283  0.4248 -0.8241 -2.4537
  182POPC   H7Y20916   5.687   1.176  -0.297  1.0111 -0.5560  0.9707
  182POPC   C3820917   5.518   1.100  -0.397 -0.1657  0.1234  0.3854
  182POPC   H8X20918   5.490   1.207  -0.407  0.5064  0.2728  0.0427
  182POPC   H8Y20919   5.422   1.046  -0.380  0.9303 -1.2363  2.7861
  182POPC   C3920920   5.587   1.069  -0.535 -0.8352  0.6976 -0.2953
  182POPC   H9X20921   5.598   0.958  -0.538  1.0983  0.8760 -2.5651
  182POPC   H9Y20922   5.691   1.107  -0.530 -0.7023  0.2610  0.4190
  182POPC  C31020923   5.513   1.117  -0.661 -0.5063  0.2184  0.1048
  182POPC  H10X20924   5.520   1.228  -0.661  0.8323  0.1657 -1.1522
  182POPC  H10Y20925   5.406   1.087  -0.667 -0.8678  1.4987 -0.2405
  182POPC  C31120926   5.581   1.074  -0.794 -0.2622 -0.6474  0.0289
  182POPC  H11X20927   5.512   1.097  -0.877  0.7516  0.6701 -0.4812
  182POPC  H11Y20928   5.596   0.964  -0.798 -1.2208 -0.8073  0.4001
  182POPC  C31220929   5.721   1.141  -0.797  0.1314  0.4867 -0.6320
  182POPC  H12X20930   5.775   1.091  -0.714  0.6811  0.2853 -1.1017
  182POPC  H12Y20931   5.713   1.251  -0.784 -0.8876  0.3957 -0.4538
  182POPC  C31320932   5.802   1.118  -0.921  0.0307 -0.0974  0.2621
  182POPC  H13X20933   5.800   1.010  -0.947 -1.2942  0.0172 -0.2191
  182POPC  H13Y20934   5.905   1.158  -0.919  0.0567  0.0287 -1.7259
  182POPC  C31420935   5.733   1.160  -1.046  0.1562  0.0554  0.4049
  182POPC  H14X20936   5.694   1.264  -1.036 -1.7442 -0.5136 -0.7019
  182POPC  H14Y20937   5.650   1.092  -1.076  0.8260 -0.7853  0.4107
  182POPC  C31520938   5.820   1.153  -1.174 -0.0271 -0.2797  0.1638
  182POPC  H15X20939   5.859   1.049  -1.169  1.5453  0.1911 -1.4056
  182POPC  H15Y20940   5.899   1.228  -1.153 -0.7808  1.7189 -3.3007
  182POPC  C31620941   5.753   1.181  -1.300  0.1610 -0.4409  0.4568
  182POPC  H16X20942   5.731   1.289  -1.313  0.7902 -0.2090  1.2466
  182POPC  H16Y20943   5.656   1.127  -1.307  0.9085 -1.7462 -0.0232
  182POPC  H16Z20944   5.813   1.147  -1.387  1.2995  2.4536  0.0023
  183POPC     N20945   1.326   3.066   0.355  0.1352  0.1961  0.6303
  183POPC   C1220946   1.249   2.958   0.419  0.7375 -0.1308  0.1792
  183POPC  H12A20947   1.169   2.929   0.351  1.6324 -2.6887  0.1040
  183POPC  H12B20948   1.214   2.993   0.515  0.6644 -0.6173  0.3329
  183POPC   C1320949   1.231   3.184   0.359 -0.6706 -0.6216  0.2225
  183POPC  H13A20950   1.161   3.184   0.441 -0.9226  0.0840  0.0100
  183POPC  H13B20951   1.287   3.276   0.366  2.2372 -2.1443 -1.3983
  183POPC  H13C20952   1.173   3.196   0.269  1.9211  0.5958 -1.3977
  183POPC   C1420953   1.446   3.097   0.426  0.3467 -0.2631 -0.2682
  183POPC  H14A20954   1.404   3.147   0.512  0.8063 -1.0032  0.4000
  183POPC  H14B20955   1.491   3.005   0.460 -0.0141 -0.4992 -0.4190
  183POPC  H14C20956   1.513   3.167   0.379 -0.2825 -0.6387 -1.7918
  183POPC   C1520957   1.354   3.037   0.207 -0.2579 -0.1243  0.5786
  183POPC  H15A20958   1.413   2.947   0.197 -2.5328 -1.7133  0.5774
  183POPC  H15B20959   1.402   3.122   0.161 -2.9951 -0.2833 -2.9335
  183POPC  H15C20960   1.262   3.026   0.153  1.0460  0.3126 -1.8441
  183POPC   C1120961   1.327   2.829   0.453  0.6465  0.2120 -0.1510
  183POPC  H11A20962   1.414   2.819   0.384 -0.9633 -1.6753 -2.0157
  183POPC  H11B20963   1.270   2.734   0.449 -1.1710  1.1826  1.2031
  183POPC     P20964   1.472   2.745   0.648 -0.2581 -0.3120  0.2188
  183POPC   O1320965   1.423   2.689   0.775  0.1020  0.6803  0.0276
  183POPC   O1420966   1.594   2.832   0.652  0.1277  0.5806  0.1216
  183POPC   O1220967   1.359   2.836   0.589  0.6619  0.8343 -0.5415
  183POPC   O1120968   1.489   2.629   0.538 -0.3207  0.3445  0.1147
  183POPC    C120969   1.392   2.522   0.530 -0.1628 -0.0771  0.5000
  183POPC    HA20970   1.355   2.517   0.426  1.4312 -1.6176 -0.0443
  183POPC    HB20971   1.302   2.523   0.595 -0.9085 -0.0146 -0.5130
  183POPC    C220972   1.465   2.390   0.571 -0.1464  0.7133 -0.2071
  183POPC    HS20973   1.478   2.381   0.681 -0.3634  2.5433  0.0018
  183POPC   O2120974   1.585   2.386   0.491 -0.2067  0.2769  0.0944
  183POPC   C2120975   1.691   2.439   0.550  0.1407  0.8665 -0.0587
  183POPC   O2220976   1.698   2.470   0.666 -0.6694 -0.3540  0.0389
  183POPC   C2220977   1.805   2.449   0.452 -0.4090  0.8506 -0.0533
  183POPC   H2R20978   1.876   2.375   0.494  0.6662  1.8907  0.0247
  183POPC   H2S20979   1.853   2.549   0.457  0.8645  0.1957  1.6709
  183POPC    C320980   1.372   2.267   0.533 -0.2178  0.4144  0.1475
  183POPC    HX20981   1.280   2.262   0.595 -0.5784 -2.0603 -0.4949
  183POPC    HY20982   1.430   2.177   0.564 -1.1242 -0.4186 -0.5168
  183POPC   O3120983   1.347   2.271   0.390  0.1761 -0.0617  0.1448
  183POPC   C3120984   1.422   2.193   0.317  0.6394 -0.2240  0.4829
  183POPC   O3220985   1.516   2.130   0.352  0.1884  0.0185  0.3607
  183POPC   C3220986   1.380   2.215   0.168  0.1318 -0.2734 -0.5370
  183POPC   H2X20987   1.467   2.241   0.105  0.3287 -2.5617 -1.3139
  183POPC   H2Y20988   1.314   2.304   0.163  1.4480  0.7011 -1.1954
  183POPC   C2320989   1.784   2.417   0.303  0.3961  0.4443 -0.0453
  183POPC   H3R20990   1.756   2.311   0.288 -0.7382  0.7853 -0.3986
  183POPC   H3S20991   1.891   2.422   0.273  0.5017  0.1385  0.2683
  183POPC   C2420992   1.696   2.511   0.214  0.3756  0.6139  0.2512
  183POPC   H4R20993   1.695   2.618   0.241 -0.0159  1.5375 -2.9467
  183POPC   H4S20994   1.594   2.469   0.231  0.9803 -2.2459 -2.2286
  183POPC   C2520995   1.742   2.504   0.063 -0.1747 -0.5350  0.2641
  183POPC   H5R20996   1.853   2.499   0.065 -0.2124 -1.3850  0.7072
  183POPC   H5S20997   1.719   2.603   0.019 -0.4328 -0.5018  0.4767
  183POPC   C2620998   1.669   2.407  -0.019  0.0149 -0.0056  0.5342
  183POPC   H6R20999   1.557   2.409  -0.022  0.0036 -0.2262 -2.5880
  183POPC   H6S21000   1.690   2.303   0.015 -2.0480  0.1799  2.6327
  183POPC   C2721001   1.722   2.407  -0.164 -0.5003 -0.0816 -0.7409
  183POPC   H7R21002   1.833   2.407  -0.161 -0.4815  1.5095  2.5083
  183POPC   H7S21003   1.690   2.499  -0.218  0.7296 -0.5337 -2.3143
  183POPC   C2821004   1.669   2.292  -0.246  0.6630 -0.1687  0.3639
  183POPC   H8R21005   1.558   2.304  -0.245  0.7388  0.6144  1.3597
  183POPC   H8S21006   1.680   2.195  -0.193 -0.4182 -0.1287  0.6930
  183POPC   C2921007   1.729   2.288  -0.380 -0.5425 -0.1416  0.4343
  183POPC   H9121008   1.838   2.280  -0.372 -0.4095  2.0475  1.4483
  183POPC  C21021009   1.672   2.326  -0.494  0.3857  0.4334 -0.2621
  183POPC  H10121010   1.728   2.309  -0.587 -1.2741  0.4825 -1.3024
  183POPC  C21121011   1.526   2.358  -0.509  0.0925  0.3438  0.6574
  183POPC  H11R21012   1.521   2.453  -0.566  1.8150 -0.5826 -1.1444
  183POPC  H11S21013   1.475   2.391  -0.416 -1.2083 -0.3682  0.2161
  183POPC  C21221014   1.446   2.239  -0.564 -0.9574  0.4423  0.0722
  183POPC  H12R21015   1.338   2.240  -0.539 -0.6470 -1.4651  1.7469
  183POPC  H12S21016   1.475   2.141  -0.519 -1.8955 -0.0386 -0.3452
  183POPC  C21321017   1.484   2.202  -0.713  0.3324  0.7407 -0.6635
  183POPC  H13R21018   1.428   2.112  -0.744 -2.0816  1.2716  1.7855
  183POPC  H13S21019   1.594   2.187  -0.714  0.3366 -0.0548  2.2530
  183POPC  C21421020   1.462   2.320  -0.819 -0.9106  0.5245 -0.8675
  183POPC  H14R21021   1.529   2.402  -0.787  0.8114 -1.0779 -0.1399
  183POPC  H14S21022   1.361   2.361  -0.797  0.0081  1.0114  3.2912
  183POPC  C21521023   1.469   2.282  -0.968 -0.2790  0.4505 -0.3257
  183POPC  H15R21024   1.413   2.188  -0.984  1.6286 -0.8227  0.1217
  183POPC  H15S21025   1.576   2.264  -0.995 -0.3716  1.1097 -1.1881
  183POPC  C21621026   1.419   2.404  -1.056  0.3277  0.8534 -0.2201
  183POPC  H16R21027   1.485   2.493  -1.055  1.3807  0.2052  3.0100
  183POPC  H16S21028   1.324   2.439  -1.011  0.4394 -1.1778  1.7828
  183POPC  C21721029   1.391   2.370  -1.202  0.5099 -0.0374  0.1913
  183POPC  H17R21030   1.349   2.461  -1.249  1.3436  0.6790  0.8154
  183POPC  H17S21031   1.320   2.284  -1.208 -1.1432  1.1799  1.5877
  183POPC  C21821032   1.520   2.330  -1.273 -0.3427  0.3047  0.3408
  183POPC  H18R21033   1.497   2.278  -1.368  1.1450  1.0485 -0.4645
  183POPC  H18S21034   1.579   2.263  -1.207  0.4667 -0.0498 -0.7206
  183POPC  H18T21035   1.589   2.411  -1.305  0.3873  0.1817  1.5235
  183POPC   C3321036   1.314   2.093   0.096  0.3136 -0.6591 -0.1443
  183POPC   H3X21037   1.232   2.059   0.164  1.4149  2.5863  3.0804
  183POPC   H3Y21038   1.390   2.014   0.077  1.3154  0.4465 -0.8841
  183POPC   C3421039   1.259   2.141  -0.040 -0.7719  0.4297 -0.5609
  183POPC   H4X21040   1.260   2.252  -0.044  0.3811  0.4393 -0.3905
  183POPC   H4Y21041   1.151   2.116  -0.052 -0.7988 -0.0937  0.6493
  183POPC   C3521042   1.346   2.102  -0.152 -0.9470  0.0652 -0.5014
  183POPC   H5X21043   1.454   2.124  -0.135 -0.8776 -0.5297 -0.1265
  183POPC   H5Y21044   1.309   2.169  -0.232 -3.3066 -0.6497 -0.0741
  183POPC   C3621045   1.322   1.958  -0.194  0.2464  0.5710  0.1778
  183POPC   H6X21046   1.214   1.937  -0.181 -0.2673  1.9541 -1.5908
  183POPC   H6Y21047   1.374   1.882  -0.131 -0.3461  1.3443  1.6576
  183POPC   C3721048   1.344   1.940  -0.346 -0.5429 -0.2874  0.0984
  183POPC   H7X21049   1.443   1.978  -0.378 -0.4178 -0.5176  0.2089
  183POPC   H7Y21050   1.260   1.992  -0.397 -0.1222  2.0565  1.6388
  183POPC   C3821051   1.331   1.797  -0.389 -0.2440 -0.2265 -0.4860
  183POPC   H8X21052   1.244   1.745  -0.342 -1.9086  2.5671 -0.2249
  183POPC   H8Y21053   1.425   1.749  -0.355 -0.5568 -0.2095  0.4474
  183POPC   C3921054   1.314   1.778  -0.542 -0.1234  0.2816 -0.8166
  183POPC   H9X21055   1.244   1.860  -0.569 -0.1841  1.4357  2.3560
  183POPC   H9Y21056   1.261   1.682  -0.556 -0.4262 -0.3421  3.2500
  183POPC  C31021057   1.437   1.805  -0.621  0.2220  0.3849  0.2242
  183POPC  H10X21058   1.515   1.729  -0.597  0.5018  0.5246 -0.2378
  183POPC  H10Y21059   1.473   1.904  -0.587 -1.2773  1.0937 -0.1543
  183POPC  C31121060   1.407   1.788  -0.769  0.0062 -0.4691  0.6983
  183POPC  H11X21061   1.326   1.859  -0.798 -0.3898 -1.1811  0.0301
  183POPC  H11Y21062   1.367   1.689  -0.798  0.7444 -1.0811  1.6954
  183POPC  C31221063   1.525   1.828  -0.854 -0.3317 -0.1561 -0.3755
  183POPC  H12X21064   1.622   1.782  -0.826 -0.0255 -0.9127 -2.5040
  183POPC  H12Y21065   1.531   1.939  -0.855 -0.3677 -0.1219  1.0277
  183POPC  C31321066   1.498   1.796  -1.005 -0.3392  0.2797 -0.2095
  183POPC  H13X21067   1.568   1.854  -1.069  0.6141 -0.7739 -0.1549
  183POPC  H13Y21068   1.394   1.828  -1.028 -0.2260  1.2950  0.6096
  183POPC  C31421069   1.513   1.646  -1.039  0.5074 -0.8297 -0.5330
  183POPC  H14X21070   1.432   1.583  -0.996 -0.4193  1.6790  1.6518
  183POPC  H14Y21071   1.612   1.606  -1.008  0.4757 -1.4719 -1.2050
  183POPC  C31521072   1.474   1.620  -1.184  0.3797 -0.7929 -0.3943
  183POPC  H15X21073   1.547   1.669  -1.252 -0.6124 -0.7068 -1.4061
  183POPC  H15Y21074   1.371   1.657  -1.203  1.2940  4.1817  2.5166
  183POPC  C31621075   1.494   1.472  -1.236 -0.3548 -0.2428 -0.6283
  183POPC  H16X21076   1.470   1.396  -1.159 -0.8356  0.0563 -0.4773
  183POPC  H16Y21077   1.604   1.456  -1.247  0.4822  2.6045  2.1434
  183POPC  H16Z21078   1.433   1.447  -1.325  1.9743  0.8962 -2.6865
  184POPC     N21079   6.360   2.909   0.893  0.4708 -0.7853  0.5529
  184POPC   C1221080   6.427   2.833   0.779 -0.1494 -0.8768 -0.2652
  184POPC  H12A21081   6.471   2.907   0.714 -1.9036  0.7532  0.3097
  184POPC  H12B21082   6.349   2.781   0.724  1.8605 -2.3664 -1.8638
  184POPC   C1321083   6.448   3.011   0.947 -0.0280 -0.3269  0.4350
  184POPC  H13A21084   6.393   3.071   1.018 -1.0785  0.0188 -0.6385
  184POPC  H13B21085   6.523   2.960   1.006  0.4871  0.0089  0.0811
  184POPC  H13C21086   6.507   3.072   0.879 -0.8045  1.2723  1.1537
  184POPC   C1421087   6.238   2.973   0.837  0.1494  0.5830  0.1852
  184POPC  H14A21088   6.174   2.887   0.824  1.3295 -0.5575  1.6872
  184POPC  H14B21089   6.183   3.040   0.902 -2.2907 -1.7849  0.7708
  184POPC  H14C21090   6.247   3.024   0.742 -0.1746 -0.4893 -0.4447
  184POPC   C1521091   6.318   2.828   1.014  0.3826  0.3308  0.5997
  184POPC  H15A21092   6.411   2.786   1.048 -0.2818 -1.2580  0.5422
  184POPC  H15B21093   6.253   2.743   0.998  0.6393  0.1532  0.4931
  184POPC  H15C21094   6.267   2.887   1.089 -1.6905 -0.2401 -0.2843
  184POPC   C1121095   6.544   2.736   0.809  0.0952 -0.2875  0.4824
  184POPC  H11A21096   6.585   2.674   0.726 -1.2774 -0.1198 -0.3417
  184POPC  H11B21097   6.493   2.661   0.874 -3.0819  0.8430 -0.5310
  184POPC     P21098   6.762   2.872   0.813  0.3080  0.2533 -0.0251
  184POPC   O1321099   6.868   2.775   0.781  0.1994 -0.1327  0.2401
  184POPC   O1421100   6.795   2.996   0.897 -0.2645  0.6248  0.2313
  184POPC   O1221101   6.652   2.793   0.888  0.0277  0.2143  0.3928
  184POPC   O1121102   6.696   2.926   0.687 -0.0559  0.3770  0.3802
  184POPC    C121103   6.753   3.034   0.602 -0.2356 -0.3744  0.1944
  184POPC    HA21104   6.860   3.051   0.628 -0.3044 -0.2637  0.4067
  184POPC    HB21105   6.699   3.130   0.616  1.6665  0.5288  1.8557
  184POPC    C221106   6.745   3.003   0.446 -0.1365  0.2788  0.1490
  184POPC    HS21107   6.640   3.024   0.421 -0.0867  0.4967  0.1186
  184POPC   O2121108   6.783   2.856   0.425  0.6514  0.0395  0.4153
  184POPC   C2121109   6.674   2.778   0.439 -0.6080  0.4202 -0.3236
  184POPC   O2221110   6.561   2.820   0.450  0.0889 -0.0399 -0.4000
  184POPC   C2221111   6.727   2.633   0.428  0.6064  0.7783  0.0851
  184POPC   H2R21112   6.721   2.583   0.527  3.0542 -1.8297 -0.9556
  184POPC   H2S21113   6.834   2.629   0.400  0.6729 -1.8739  0.5287
  184POPC    C321114   6.831   3.089   0.353  0.2526  0.3550  0.1291
  184POPC    HX21115   6.937   3.065   0.375  0.2231  1.4826  1.6847
  184POPC    HY21116   6.805   3.196   0.371  1.0925  0.6900 -0.5539
  184POPC   O3121117   6.797   3.065   0.211  0.1296  0.1611 -0.2722
  184POPC   C3121118   6.873   2.969   0.156 -0.5437  0.8059  0.3185
  184POPC   O3221119   6.981   2.928   0.200  0.0636 -0.0071 -0.2196
  184POPC   C3221120   6.795   2.911   0.032  0.7023 -0.0096 -0.7289
  184POPC   H2X21121   6.694   2.887   0.071  1.1387 -3.0302 -1.1876
  184POPC   H2Y21122   6.839   2.811   0.010  0.0039 -0.0138 -2.1742
  184POPC   C2321123   6.659   2.541   0.321 -0.4684 -0.3762 -0.2410
  184POPC   H3R21124   6.549   2.531   0.327 -0.5803  0.9750  0.4561
  184POPC   H3S21125   6.705   2.444   0.349 -0.2666 -1.0984 -2.8150
  184POPC   C2421126   6.701   2.579   0.178  0.3158 -0.2749  0.3265
  184POPC   H4R21127   6.795   2.637   0.193  0.6292 -1.0453  1.4654
  184POPC   H4S21128   6.626   2.641   0.123  2.8134  1.5508 -1.2410
  184POPC   C2521129   6.723   2.450   0.102 -0.1508  0.2458  0.4660
  184POPC   H5R21130   6.643   2.379   0.131  0.1661 -0.3282 -0.0385
  184POPC   H5S21131   6.812   2.395   0.140 -0.4735  0.7245  1.9937
  184POPC   C2621132   6.702   2.460  -0.049  0.2953 -0.1070  0.2875
  184POPC   H6R21133   6.642   2.552  -0.065  2.1394  1.0671 -0.3296
  184POPC   H6S21134   6.642   2.376  -0.090 -0.1813 -0.4933  1.7488
  184POPC   C2721135   6.836   2.470  -0.126  0.2967  0.2582  0.0338
  184POPC   H7R21136   6.918   2.432  -0.061 -0.2101 -1.1034 -0.0915
  184POPC   H7S21137   6.848   2.579  -0.144 -1.3760  0.2301 -1.4735
  184POPC   C2821138   6.849   2.405  -0.263  0.2669  0.0154 -0.8793
  184POPC   H8R21139   6.812   2.303  -0.239 -2.6367  1.3721  0.9504
  184POPC   H8S21140   6.957   2.408  -0.289  0.5889  2.2381  0.4604
  184POPC   C2921141   6.768   2.462  -0.375  0.0592 -0.0440 -0.5831
  184POPC   H9121142   6.662   2.462  -0.345  0.1051 -2.0319 -0.2748
  184POPC  C21021143   6.810   2.517  -0.489 -0.5663  1.0925  0.0654
  184POPC  H10121144   6.737   2.562  -0.558 -0.9795 -2.6004 -2.1878
  184POPC  C21121145   6.949   2.542  -0.536 -0.1395  0.1605  0.4292
  184POPC  H11R21146   7.025   2.500  -0.467  1.1106  1.1198 -0.3216
  184POPC  H11S21147   6.963   2.652  -0.536 -1.8435  0.4058 -0.5999
  184POPC  C21221148   6.989   2.494  -0.675  0.1281 -0.2110  0.4273
  184POPC  H12R21149   6.997   2.384  -0.688 -2.7223 -0.3400 -1.0868
  184POPC  H12S21150   7.093   2.529  -0.692  0.6449 -1.7820  0.1976
  184POPC  C21321151   6.895   2.551  -0.788  0.1417  0.3546  0.0423
  184POPC  H13R21152   6.881   2.660  -0.769 -4.3578 -0.3718  2.2206
  184POPC  H13S21153   6.795   2.504  -0.780  0.0236  0.7645  1.1505
  184POPC  C21421154   6.956   2.524  -0.928 -0.9146  0.3803  0.2345
  184POPC  H14R21155   6.936   2.420  -0.959 -0.7087  1.0937 -2.5047
  184POPC  H14S21156   7.065   2.541  -0.920 -0.7355 -0.3747 -0.5980
  184POPC  C21521157   6.896   2.625  -1.030  0.3688  0.2940  0.5261
  184POPC  H15R21158   6.918   2.724  -0.984 -1.3890  0.2861  1.4752
  184POPC  H15S21159   6.786   2.612  -1.031  0.4350 -0.3948 -1.1750
  184POPC  C21621160   6.970   2.603  -1.160  0.3405  0.5605  1.0663
  184POPC  H16R21161   7.075   2.579  -1.133  1.0581  2.1428 -0.1431
  184POPC  H16S21162   6.970   2.689  -1.230 -0.6658  0.2532  0.6605
  184POPC  C21721163   6.917   2.488  -1.252 -1.0733 -0.1949 -0.1008
  184POPC  H17R21164   6.895   2.406  -1.181 -0.8761 -0.2861 -0.1431
  184POPC  H17S21165   6.989   2.450  -1.328 -2.3014  0.4023 -1.6080
  184POPC  C21821166   6.796   2.531  -1.335  0.6087 -0.1169 -0.1187
  184POPC  H18R21167   6.820   2.625  -1.390  0.8140  0.3678  0.7795
  184POPC  H18S21168   6.709   2.556  -1.271  0.5662  0.1013 -0.2571
  184POPC  H18T21169   6.759   2.458  -1.409  1.2484 -0.3060 -0.2616
  184POPC   C3321170   6.790   3.000  -0.088 -0.4748  0.6449 -0.7784
  184POPC   H3X21171   6.774   3.104  -0.053 -0.5084 -0.0073  1.2753
  184POPC   H3Y21172   6.710   2.962  -0.154  1.1046 -1.5461 -1.5633
  184POPC   C3421173   6.920   2.978  -0.171  0.2350 -0.1882  0.0771
  184POPC   H4X21174   6.949   2.871  -0.175 -1.8544 -0.7877 -1.1343
  184POPC   H4Y21175   7.006   3.029  -0.124  0.2737 -1.2553  1.1939
  184POPC   C3521176   6.897   3.024  -0.319 -0.0940 -0.5435  0.5377
  184POPC   H5X21177   6.884   3.135  -0.324 -1.4664 -0.7504 -1.9878
  184POPC   H5Y21178   6.799   2.988  -0.356 -0.3066 -0.2576  0.8085
  184POPC   C3621179   7.015   2.981  -0.416 -0.2921  0.3531  0.2797
  184POPC   H6X21180   7.015   2.870  -0.420  3.0440  0.2929 -0.9633
  184POPC   H6Y21181   7.113   3.008  -0.373  1.1555 -1.8643 -1.4092
  184POPC   C3721182   7.002   3.046  -0.555  0.9601 -0.4818 -0.5658
  184POPC   H7X21183   7.042   3.150  -0.553  0.6407 -0.3657  0.2557
  184POPC   H7Y21184   6.892   3.057  -0.562  0.4937 -0.9666  3.5217
  184POPC   C3821185   7.072   2.974  -0.660 -0.4180  0.2354  0.4193
  184POPC   H8X21186   7.019   2.877  -0.674 -0.2498  0.2390 -0.2619
  184POPC   H8Y21187   7.168   2.952  -0.609 -2.1163 -1.3583  3.2118
  184POPC   C3921188   7.069   3.062  -0.786 -0.1818  0.0669 -0.0472
  184POPC   H9X21189   7.098   3.168  -0.767 -2.3141  0.7048 -0.1583
  184POPC   H9Y21190   6.969   3.068  -0.833  0.9306  1.8399 -2.4039
  184POPC  C31021191   7.166   2.993  -0.888 -0.2874  0.6527  1.3303
  184POPC  H10X21192   7.163   2.884  -0.867 -1.4808  0.8686  2.3332
  184POPC  H10Y21193   7.270   3.032  -0.877  0.6559 -1.4651  0.7133
  184POPC  C31121194   7.127   3.019  -1.034  0.5643  0.6112 -0.6513
  184POPC  H11X21195   7.171   3.115  -1.068 -0.3334  0.9814 -0.8083
  184POPC  H11Y21196   7.016   3.029  -1.044  0.9296  4.2018 -3.1994
  184POPC  C31221197   7.172   2.905  -1.116 -0.0620  0.5603 -0.2846
  184POPC  H12X21198   7.121   2.807  -1.110  2.8239 -1.2953 -3.1065
  184POPC  H12Y21199   7.282   2.891  -1.105  0.1657  0.4070 -2.2847
  184POPC  C31321200   7.144   2.921  -1.266 -0.2505 -0.2003 -0.3027
  184POPC  H13X21201   7.173   2.824  -1.311 -1.3913 -1.3184  1.2948
  184POPC  H13Y21202   7.205   3.004  -1.307 -0.8161  0.6287  0.4726
  184POPC  C31421203   7.000   2.961  -1.300 -0.4326 -0.6346 -0.3081
  184POPC  H14X21204   6.983   3.068  -1.274 -2.8796 -0.4678 -2.3098
  184POPC  H14Y21205   6.924   2.900  -1.248 -3.1474  1.4661 -1.5595
  184POPC  C31521206   6.976   2.976  -1.454 -0.0966  0.5110 -0.0744
  184POPC  H15X21207   7.012   2.876  -1.486 -3.1905 -0.1779 -1.7845
  184POPC  H15Y21208   7.044   3.054  -1.494 -0.4165  1.4387  1.1247
  184POPC  C31621209   6.837   2.992  -1.507  0.0204 -0.6385  0.6797
  184POPC  H16X21210   6.797   3.094  -1.489  1.0739 -0.2224  0.7629
  184POPC  H16Y21211   6.770   2.921  -1.455 -0.2012 -1.9235 -1.2705
  184POPC  H16Z21212   6.835   2.979  -1.617  2.3779 -1.8474  0.7158
  185POPC     N21213   5.283   0.149   5.280 -0.9837  0.6177 -0.2735
  185POPC   C1221214   5.360   0.281   5.258 -0.7237  0.4560  0.6150
  185POPC  H12A21215   5.456   0.260   5.212 -1.0868  0.8811 -0.3756
  185POPC  H12B21216   5.385   0.323   5.354  1.2051 -0.2787  0.4818
  185POPC   C1321217   5.245   0.090   5.145 -0.3579  0.4149  0.0055
  185POPC  H13A21218   5.181   0.159   5.093  0.2804 -0.0938 -1.5183
  185POPC  H13B21219   5.335   0.083   5.086 -0.9678 -1.8396 -0.7403
  185POPC  H13C21220   5.201  -0.008   5.146  0.4632  0.0343 -0.1658
  185POPC   C1421221   5.371   0.046   5.344 -0.3796 -0.3493 -0.1141
  185POPC  H14A21222   5.323  -0.050   5.331  1.7466 -1.5424  0.4582
  185POPC  H14B21223   5.463   0.041   5.288  0.1283  0.5738  0.6238
  185POPC  H14C21224   5.410   0.066   5.442 -1.5013  1.9742 -0.0501
  185POPC   C1521225   5.154   0.175   5.360 -0.2253 -0.0780 -0.3665
  185POPC  H15A21226   5.095   0.241   5.298  0.1090 -0.8113 -1.5043
  185POPC  H15B21227   5.171   0.223   5.455 -1.6407  0.1675 -0.2099
  185POPC  H15C21228   5.105   0.079   5.369  0.1297 -0.1870  0.5991
  185POPC   C1121229   5.289   0.392   5.182 -0.6912 -0.2885 -0.3057
  185POPC  H11A21230   5.253   0.350   5.086 -1.3100  1.1839 -0.7589
  185POPC  H11B21231   5.364   0.468   5.149 -2.4696  1.8233  0.2263
  185POPC     P21232   5.057   0.516   5.212 -0.2109 -0.1310  0.6698
  185POPC   O1321233   4.967   0.406   5.165  0.0218  0.4758 -0.2493
  185POPC   O1421234   5.079   0.627   5.115 -0.4366  0.4336 -0.7783
  185POPC   O1221235   5.194   0.451   5.267  0.4773  0.0940  0.3032
  185POPC   O1121236   4.989   0.579   5.337  0.0290 -0.7471 -0.6717
  185POPC    C121237   5.064   0.672   5.417  0.1591  0.6860 -0.0259
  185POPC    HA21238   4.996   0.759   5.428  1.9913  2.1061  0.5703
  185POPC    HB21239   5.155   0.707   5.364 -0.2030 -0.6641 -1.6351
  185POPC    C221240   5.084   0.610   5.556 -0.0897 -0.1137 -0.6516
  185POPC    HS21241   5.160   0.530   5.546 -0.8844 -1.3049  2.1290
  185POPC   O2121242   4.964   0.547   5.603 -0.2251  0.1147  0.3443
  185POPC   C2121243   4.978   0.429   5.660 -0.7212  0.3025 -0.4900
  185POPC   O2221244   5.086   0.374   5.682  0.3863  0.3537  0.1969
  185POPC   C2221245   4.849   0.378   5.717  0.5890  0.3112 -0.4434
  185POPC   H2R21246   4.808   0.306   5.642  0.0313  0.9684 -0.7789
  185POPC   H2S21247   4.782   0.464   5.737 -1.9025 -1.6249  0.1818
  185POPC    C321248   5.141   0.707   5.664  0.5018 -0.7445 -0.0351
  185POPC    HX21249   5.071   0.792   5.649  0.9989 -0.5682 -1.4575
  185POPC    HY21250   5.244   0.747   5.650  0.2710 -0.3319 -0.6003
  185POPC   O3121251   5.118   0.660   5.801 -0.6302  0.1769  0.6885
  185POPC   C3121252   5.220   0.592   5.840  0.0540 -0.2088  0.1969
  185POPC   O3221253   5.323   0.567   5.773 -0.5287 -0.2244 -0.2328
  185POPC   C3221254   5.192   0.555   5.990 -0.3632  0.1141  1.0549
  185POPC   H2X21255   5.136   0.459   5.990 -2.4245  1.2524  1.8101
  185POPC   H2Y21256   5.128   0.636   6.032  0.0381  0.5371  0.8585
  185POPC   C2321257   4.858   0.284   5.844 -0.1888  0.0978  0.1520
  185POPC   H3R21258   4.951   0.222   5.847 -0.5799 -0.4873  0.2451
  185POPC   H3S21259   4.770   0.218   5.839 -0.7065  0.6502  1.4907
  185POPC   C2421260   4.852   0.379   5.969  0.0722 -0.2259  0.1563
  185POPC   H4R21261   4.746   0.407   5.984 -0.0965 -0.2361 -0.9679
  185POPC   H4S21262   4.900   0.476   5.943  1.5330 -0.5555  1.4774
  185POPC   C2521263   4.912   0.332   6.098 -0.5508  0.4759 -0.5155
  185POPC   H5R21264   5.021   0.315   6.085 -0.6868  1.3384 -3.5570
  185POPC   H5S21265   4.865   0.236   6.128  1.0848 -0.8227 -1.9084
  185POPC   C2621266   4.899   0.440   6.200  0.4276 -0.5882 -0.0724
  185POPC   H6R21267   4.796   0.480   6.203  0.9933  1.0517 -1.2157
  185POPC   H6S21268   4.955   0.534   6.183  0.8358 -1.1080 -1.7855
  185POPC   C2721269   4.925   0.384   6.341  0.1329 -0.5831 -0.6629
  185POPC   H7R21270   5.013   0.316   6.337  1.9437  1.1411  3.8722
  185POPC   H7S21271   4.837   0.331   6.382  1.1731 -0.9005  1.2638
  185POPC   C2821272   4.971   0.498   6.438  0.0381 -0.2949 -0.1949
  185POPC   H8R21273   5.069   0.542   6.408  1.2471 -3.3260 -1.0704
  185POPC   H8S21274   4.993   0.446   6.533 -0.1692 -0.8223 -0.4327
  185POPC   C2921275   4.858   0.592   6.446 -0.3098  0.0278 -0.5484
  185POPC   H9121276   4.817   0.640   6.355  0.6624  0.0450 -0.9841
  185POPC  C21021277   4.804   0.630   6.563 -0.2929  0.1693 -0.3594
  185POPC  H10121278   4.730   0.711   6.555 -0.7741 -0.1719  0.4754
  185POPC  C21121279   4.833   0.583   6.705  0.3542  0.1417 -0.8135
  185POPC  H11R21280   4.938   0.612   6.727  1.3213 -2.1450 -2.0916
  185POPC  H11S21281   4.840   0.473   6.710 -1.7554  0.0032 -0.1095
  185POPC  C21221282   4.744   0.645   6.807 -0.5599  0.0762  0.3689
  185POPC  H12R21283   4.643   0.652   6.761 -0.2534  0.1994 -0.2868
  185POPC  H12S21284   4.774   0.748   6.835 -0.0803  0.5486 -1.7863
  185POPC  C21321285   4.733   0.560   6.936  0.1739  0.5725  0.0722
  185POPC  H13R21286   4.834   0.556   6.984  0.2979  2.0777 -0.0294
  185POPC  H13S21287   4.702   0.460   6.898 -0.6978  0.7855  0.2208
  185POPC  C21421288   4.618   0.605   7.019 -0.5094  0.2804 -0.3273
  185POPC  H14R21289   4.528   0.602   6.953  0.7638 -1.3592 -2.0954
  185POPC  H14S21290   4.649   0.700   7.066  0.3646  1.3999 -2.9878
  185POPC  C21521291   4.592   0.509   7.133  0.9740 -0.3823  0.7253
  185POPC  H15R21292   4.635   0.552   7.226  1.1367  0.3119  0.3316
  185POPC  H15S21293   4.645   0.412   7.117 -0.2711 -1.5623  3.1862
  185POPC  C21621294   4.446   0.486   7.171 -0.2290 -0.2915 -0.2789
  185POPC  H16R21295   4.387   0.460   7.080 -1.1376 -0.2194  0.2762
  185POPC  H16S21296   4.401   0.580   7.208 -0.8288 -0.5902 -0.2286
  185POPC  C21721297   4.422   0.373   7.274 -0.8362  0.3448 -0.9318
  185POPC  H17R21298   4.472   0.281   7.236 -1.6233 -0.0144 -1.1275
  185POPC  H17S21299   4.321   0.335   7.300 -0.1000  0.0612  1.7554
  185POPC  C21821300   4.494   0.398   7.408  0.0645 -0.1702  0.2260
  185POPC  H18R21301   4.604   0.402   7.389  0.0572  0.7387  0.3407
  185POPC  H18S21302   4.480   0.316   7.481  0.1594 -0.6211 -0.2554
  185POPC  H18T21303   4.450   0.493   7.444  0.6379  0.2688 -0.2084
  185POPC   C3321304   5.312   0.536   6.084 -0.1989  0.0021 -0.0226
  185POPC   H3X21305   5.330   0.633   6.134 -2.5253  0.9373 -0.9150
  185POPC   H3Y21306   5.406   0.518   6.027 -0.1849  1.2052 -0.3973
  185POPC   C3421307   5.281   0.432   6.189  0.5012 -0.1208 -0.5742
  185POPC   H4X21308   5.319   0.335   6.151 -0.4320 -0.5319 -0.4861
  185POPC   H4Y21309   5.173   0.427   6.214  0.7458 -1.4405  0.3308
  185POPC   C3521310   5.345   0.465   6.329  0.7026  0.1469 -0.4031
  185POPC   H5X21311   5.297   0.547   6.387  3.4069 -0.0404  2.3499
  185POPC   H5Y21312   5.451   0.497   6.317  0.7060 -0.0952 -1.0405
  185POPC   C3621313   5.337   0.337   6.421  0.1874 -0.1757 -0.0902
  185POPC   H6X21314   5.390   0.259   6.361  1.0574  0.6707 -0.4388
  185POPC   H6Y21315   5.234   0.297   6.429  0.1212  0.2732  1.5036
  185POPC   C3721316   5.377   0.356   6.562 -0.0735 -0.2511 -0.5544
  185POPC   H7X21317   5.486   0.378   6.561  0.1463 -0.9623  1.6023
  185POPC   H7Y21318   5.360   0.263   6.621  0.6669 -1.6391 -2.4506
  185POPC   C3821319   5.307   0.476   6.645  0.0369 -0.4747  0.6354
  185POPC   H8X21320   5.198   0.473   6.627  0.2695 -1.3621 -0.7525
  185POPC   H8Y21321   5.342   0.572   6.601 -2.1277 -0.3205 -0.8617
  185POPC   C3921322   5.350   0.460   6.793 -0.0352  0.8095 -0.5344
  185POPC   H9X21323   5.458   0.485   6.801  0.4313  0.2528 -3.8665
  185POPC   H9Y21324   5.339   0.352   6.816  2.3652  0.1699 -1.9989
  185POPC  C31021325   5.263   0.545   6.888  0.8011  0.4542 -0.3090
  185POPC  H10X21326   5.155   0.519   6.878  1.1614 -0.8113 -1.1162
  185POPC  H10Y21327   5.263   0.654   6.863 -0.8505  0.7941  0.9920
  185POPC  C31121328   5.304   0.522   7.032 -0.0925  0.6862  0.1940
  185POPC  H11X21329   5.415   0.532   7.037 -0.0212  1.4811 -2.0103
  185POPC  H11Y21330   5.271   0.417   7.051 -0.4843  0.3372 -2.1057
  185POPC  C31221331   5.252   0.627   7.131 -0.0013 -0.3253 -0.3375
  185POPC  H12X21332   5.143   0.606   7.133 -0.0437 -0.0727  0.5067
  185POPC  H12Y21333   5.269   0.729   7.092 -1.2617  0.4839  1.0724
  185POPC  C31321334   5.297   0.599   7.269 -0.1933  0.2055  0.1080
  185POPC  H13X21335   5.404   0.626   7.273  0.2712 -1.1685 -1.7512
  185POPC  H13Y21336   5.283   0.489   7.281 -0.2916  0.1163 -0.8005
  185POPC  C31421337   5.222   0.681   7.376 -0.1015  0.1963  0.3491
  185POPC  H14X21338   5.114   0.693   7.355  0.1220  0.2028 -0.8685
  185POPC  H14Y21339   5.255   0.786   7.364  1.7114 -0.3213  0.4340
  185POPC  C31521340   5.259   0.646   7.523 -0.0234  0.2394  0.0741
  185POPC  H15X21341   5.269   0.536   7.534 -0.3007  0.1713 -0.3483
  185POPC  H15Y21342   5.188   0.684   7.599  0.2591 -0.5167  0.7411
  185POPC  C31621343   5.402   0.693   7.559  0.1067  0.1250  0.1499
  185POPC  H16X21344   5.453   0.654   7.650  0.1599  0.0404  0.0832
  185POPC  H16Y21345   5.411   0.804   7.561  1.2615  0.0383  1.5267
  185POPC  H16Z21346   5.469   0.666   7.475 -2.3730  0.8048 -2.1747
  186POPC     N21347   6.508   2.439   4.551 -0.5574 -0.2346  0.1214
  186POPC   C1221348   6.394   2.364   4.619 -0.7202  0.2247  0.6374
  186POPC  H12A21349   6.362   2.285   4.553 -0.5667  0.2337  0.5508
  186POPC  H12B21350   6.309   2.428   4.634 -1.8812 -1.4930  1.7471
  186POPC   C1321351   6.624   2.350   4.532  0.7744 -0.5175 -0.1782
  186POPC  H13A21352   6.656   2.316   4.629  1.1376 -1.9008 -0.7618
  186POPC  H13B21353   6.605   2.262   4.472  1.9579 -0.3024 -0.9096
  186POPC  H13C21354   6.704   2.401   4.480 -1.7145  2.6093 -1.2797
  186POPC   C1421355   6.465   2.478   4.410 -0.3463  0.6310 -0.2354
  186POPC  H14A21356   6.431   2.389   4.360 -2.3042  1.2757 -0.1131
  186POPC  H14B21357   6.377   2.537   4.433 -0.2312  0.5097  0.5247
  186POPC  H14C21358   6.542   2.532   4.356 -1.9171  1.8381 -1.3577
  186POPC   C1521359   6.557   2.565   4.621 -0.1964  1.0647  0.0264
  186POPC  H15A21360   6.652   2.591   4.578 -0.1588 -0.9904 -1.2507
  186POPC  H15B21361   6.565   2.543   4.727  0.2228 -1.4731 -0.4593
  186POPC  H15C21362   6.486   2.644   4.604 -0.2531  1.0918  0.3868
  186POPC   C1121363   6.419   2.303   4.757  0.4540 -0.2795  0.3012
  186POPC  H11A21364   6.502   2.231   4.746  0.9629 -0.0256  2.1951
  186POPC  H11B21365   6.342   2.235   4.798  1.7291 -1.3243  1.0345
  186POPC     P21366   6.358   2.470   4.950 -0.1281  0.3321  0.1286
  186POPC   O1321367   6.220   2.416   4.918  0.4530 -0.4640  0.1949
  186POPC   O1421368   6.377   2.619   4.946  0.1546  0.2964  0.7668
  186POPC   O1221369   6.461   2.408   4.847 -0.0574  0.8445  0.2076
  186POPC   O1121370   6.404   2.415   5.088  0.0242 -0.0474 -0.2757
  186POPC    C121371   6.517   2.455   5.154  0.0107 -0.1064  0.3763
  186POPC    HA21372   6.549   2.560   5.136  1.4643 -0.3246  1.5087
  186POPC    HB21373   6.594   2.387   5.111 -0.8383 -0.5032 -0.5491
  186POPC    C221374   6.525   2.418   5.311 -0.2653 -0.0125 -0.0381
  186POPC    HS21375   6.528   2.307   5.309  3.0294 -0.0212 -0.0704
  186POPC   O2121376   6.407   2.473   5.382  0.5426 -0.3891  0.1795
  186POPC   C2121377   6.369   2.394   5.483 -0.5217 -0.0676 -0.2090
  186POPC   O2221378   6.408   2.280   5.502  0.1764 -0.2685 -0.7567
  186POPC   C2221379   6.260   2.458   5.574 -0.4194  0.3283 -0.0211
  186POPC   H2R21380   6.169   2.476   5.513 -1.7086 -1.3647  1.3098
  186POPC   H2S21381   6.300   2.556   5.607 -1.0618  0.7329 -0.4209
  186POPC    C321382   6.655   2.470   5.386 -0.4410  0.7012  0.0892
  186POPC    HX21383   6.658   2.578   5.362 -1.7516  0.3090 -2.0479
  186POPC    HY21384   6.748   2.429   5.341  0.6347  0.1538  2.6093
  186POPC   O3121385   6.654   2.453   5.528  0.2894 -0.2570 -0.7205
  186POPC   C3121386   6.695   2.341   5.575 -0.4564 -0.4445 -0.3265
  186POPC   O3221387   6.725   2.244   5.507 -0.0506 -0.0991  0.4455
  186POPC   C3221388   6.718   2.346   5.724 -0.5535 -0.1369 -0.0088
  186POPC   H2X21389   6.625   2.394   5.762 -1.1156 -0.6782 -0.6615
  186POPC   H2Y21390   6.797   2.420   5.748 -0.5233 -0.9340  2.6691
  186POPC   C2321391   6.209   2.380   5.693 -0.7733 -0.5691  0.6910
  186POPC   H3R21392   6.176   2.280   5.658  1.0941 -0.3578 -1.9459
  186POPC   H3S21393   6.127   2.436   5.742  1.9060  2.3561  2.1766
  186POPC   C2421394   6.320   2.362   5.797  0.1664 -0.2167  0.1322
  186POPC   H4R21395   6.370   2.456   5.827 -0.4766 -0.1879  1.1941
  186POPC   H4S21396   6.397   2.290   5.762 -0.0877  0.1006 -1.1219
  186POPC   C2521397   6.256   2.297   5.927 -0.2300  0.0934  0.1175
  186POPC   H5R21398   6.209   2.200   5.901 -0.7750  0.8691 -1.9937
  186POPC   H5S21399   6.183   2.370   5.968 -0.2638 -0.3615  0.8832
  186POPC   C2621400   6.357   2.276   6.043  0.0868 -0.2396 -0.2961
  186POPC   H6R21401   6.393   2.381   6.054 -0.6736  0.4009 -3.1640
  186POPC   H6S21402   6.439   2.203   6.025  1.8508  1.5731 -0.0791
  186POPC   C2721403   6.286   2.231   6.176 -0.1788  0.1132  0.5604
  186POPC   H7R21404   6.252   2.127   6.156  4.1022 -1.4819  0.4569
  186POPC   H7S21405   6.200   2.299   6.195  0.7752  1.5944 -0.2282
  186POPC   C2821406   6.391   2.233   6.292  0.4306  0.3823 -0.4684
  186POPC   H8R21407   6.487   2.191   6.253  0.2053 -1.9523  1.2703
  186POPC   H8S21408   6.345   2.156   6.357  0.0358 -0.2384 -1.4487
  186POPC   C2921409   6.414   2.372   6.345  0.1929  0.2001  1.0833
  186POPC   H9121410   6.487   2.428   6.286  0.1186  0.1032  0.8994
  186POPC  C21021411   6.341   2.443   6.435  0.4073 -0.8781  0.4728
  186POPC  H10121412   6.381   2.541   6.465 -2.7467  0.2785  1.3673
  186POPC  C21121413   6.223   2.386   6.509  0.1504 -0.3171 -0.9048
  186POPC  H11R21414   6.207   2.277   6.492 -1.3265 -0.2066 -0.4030
  186POPC  H11S21415   6.125   2.432   6.483 -1.9445 -3.5777  0.6029
  186POPC  C21221416   6.241   2.392   6.657 -0.2027  0.0995 -0.2028
  186POPC  H12R21417   6.159   2.352   6.721  0.8120 -2.4652 -0.3947
  186POPC  H12S21418   6.255   2.499   6.683 -1.1832  0.3845 -0.8017
  186POPC  C21321419   6.369   2.320   6.702 -0.1992  0.6445 -0.0094
  186POPC  H13R21420   6.454   2.377   6.659  0.8744 -0.5662  0.4666
  186POPC  H13S21421   6.369   2.215   6.667  2.6514  0.9153 -1.0706
  186POPC  C21421422   6.383   2.328   6.855 -0.2519  0.0586  0.0298
  186POPC  H14R21423   6.312   2.255   6.899 -0.3396 -0.3196 -0.7176
  186POPC  H14S21424   6.367   2.432   6.891  0.6507  0.4550 -0.6531
  186POPC  C21521425   6.516   2.291   6.905  0.2658 -0.0240 -0.1308
  186POPC  H15R21426   6.588   2.366   6.866  0.3243  0.8734  1.6175
  186POPC  H15S21427   6.554   2.198   6.856  0.2981 -0.2990  0.4125
  186POPC  C21621428   6.521   2.267   7.051  0.4888  0.0267 -0.7492
  186POPC  H16R21429   6.625   2.238   7.077  0.3180  2.0691  2.7902
  186POPC  H16S21430   6.458   2.181   7.083  2.4671 -0.2861  2.9124
  186POPC  C21721431   6.467   2.379   7.146 -0.0181  0.1773  0.1457
  186POPC  H17R21432   6.362   2.406   7.120 -0.4712 -2.8186 -1.6071
  186POPC  H17S21433   6.522   2.474   7.131 -2.1461  1.3251 -0.9686
  186POPC  C21821434   6.475   2.350   7.297 -0.4283  0.7402 -0.2182
  186POPC  H18R21435   6.478   2.446   7.353 -2.1761  0.1355  1.0051
  186POPC  H18S21436   6.382   2.301   7.331 -0.6569  1.4379  0.1906
  186POPC  H18T21437   6.570   2.297   7.321 -0.4845  1.2222  1.1457
  186POPC   C3321438   6.759   2.206   5.786  0.4713  0.0251  0.3129
  186POPC   H3X21439   6.862   2.176   5.757 -0.1067 -1.0990 -0.6598
  186POPC   H3Y21440   6.696   2.130   5.736  2.6947 -1.9941  0.4122
  186POPC   C3421441   6.743   2.203   5.941 -0.4334 -0.1696 -0.2620
  186POPC   H4X21442   6.743   2.093   5.955 -1.7011 -0.1239  0.2549
  186POPC   H4Y21443   6.642   2.245   5.962 -0.7093 -1.1526  0.4306
  186POPC   C3521444   6.853   2.267   6.022 -0.3021  0.4551 -1.1144
  186POPC   H5X21445   6.842   2.377   6.024  1.8190  0.7462 -2.1637
  186POPC   H5Y21446   6.953   2.246   5.976 -0.2381  1.7565 -1.6163
  186POPC   C3621447   6.837   2.203   6.170 -0.3717 -0.4426 -0.0414
  186POPC   H6X21448   6.905   2.116   6.179  2.1654  1.5616  1.5805
  186POPC   H6Y21449   6.731   2.176   6.191 -0.1263 -0.9060  0.6340
  186POPC   C3721450   6.872   2.304   6.277  0.1110  0.2036 -0.8596
  186POPC   H7X21451   6.817   2.397   6.252 -2.3239 -0.8096  0.4355
  186POPC   H7Y21452   6.980   2.332   6.274 -0.2956  2.5096  1.6940
  186POPC   C3821453   6.835   2.265   6.418 -0.1656 -0.1655 -0.4679
  186POPC   H8X21454   6.870   2.160   6.426  0.3272 -0.0034 -0.4763
  186POPC   H8Y21455   6.725   2.267   6.434 -0.1596  0.2295 -0.4616
  186POPC   C3921456   6.909   2.350   6.536  0.5292  0.3204  0.9170
  186POPC   H9X21457   6.875   2.455   6.525  0.0944  0.1639  0.7319
  186POPC   H9Y21458   7.019   2.357   6.523  0.7308 -2.0186  0.8996
  186POPC  C31021459   6.896   2.289   6.671  0.5465 -0.5552  0.0442
  186POPC  H10X21460   6.977   2.217   6.692  1.5943 -0.0070 -1.8582
  186POPC  H10Y21461   6.796   2.242   6.677 -1.4801  3.3421  0.2469
  186POPC  C31121462   6.897   2.394   6.777 -0.2917 -0.2144 -1.0926
  186POPC  H11X21463   6.807   2.459   6.770  1.4750  2.4710 -0.1586
  186POPC  H11Y21464   6.988   2.457   6.769 -1.0309  1.4262  1.7480
  186POPC  C31221465   6.898   2.321   6.920  0.6988 -0.5183 -0.0355
  186POPC  H12X21466   6.987   2.254   6.922 -0.5778 -2.2915 -0.5496
  186POPC  H12Y21467   6.814   2.250   6.934  1.7647 -1.2411  4.2360
  186POPC  C31321468   6.907   2.425   7.024 -0.2302 -0.6565 -0.6740
  186POPC  H13X21469   6.806   2.460   7.053 -0.4223 -0.2859 -1.7665
  186POPC  H13Y21470   6.962   2.515   6.988  2.2813 -0.2447  3.4940
  186POPC  C31421471   6.984   2.365   7.143 -0.0422  0.0691 -0.0656
  186POPC  H14X21472   7.081   2.333   7.100 -0.1998 -0.7514  0.1728
  186POPC  H14Y21473   6.949   2.270   7.188 -0.1306  0.5992  1.0200
  186POPC  C31521474   7.014   2.471   7.251  1.6208 -0.2006 -0.4528
  186POPC  H15X21475   7.064   2.558   7.202 -1.1678  0.0913 -3.0868
  186POPC  H15Y21476   7.087   2.421   7.318 -2.4759 -3.8034  1.8881
  186POPC  C31621477   6.885   2.508   7.325  0.3369 -0.0724  0.1357
  186POPC  H16X21478   6.822   2.560   7.250 -0.0612 -3.1812 -1.8946
  186POPC  H16Y21479   6.907   2.581   7.406 -2.3536  0.7927  0.1912
  186POPC  H16Z21480   6.839   2.418   7.371  2.0033 -0.2304  1.6230
  187POPC     N21481   6.021   5.253   5.180 -0.1122 -0.0635 -0.0393
  187POPC   C1221482   5.888   5.323   5.166  0.3915 -0.1821  0.3805
  187POPC  H12A21483   5.859   5.329   5.063  2.2543 -0.4983 -0.1979
  187POPC  H12B21484   5.892   5.428   5.189 -1.0630 -0.2149  0.8990
  187POPC   C1321485   6.070   5.275   5.317  0.4584  0.1739 -0.1099
  187POPC  H13A21486   5.985   5.250   5.380 -0.6308  2.8369 -0.4119
  187POPC  H13B21487   6.154   5.211   5.340  1.3080  1.5347  0.6520
  187POPC  H13C21488   6.091   5.378   5.339  0.7560  0.0350  0.2547
  187POPC   C1421489   6.014   5.111   5.138 -0.3167  0.7682 -0.4144
  187POPC  H14A21490   5.971   5.098   5.040  0.4327 -0.3591 -0.6126
  187POPC  H14B21491   6.116   5.076   5.141 -0.4872  0.2379 -0.7472
  187POPC  H14C21492   5.952   5.052   5.204  0.9730 -4.1027 -3.0785
  187POPC   C1521493   6.115   5.326   5.088  0.0479  0.0322 -0.8682
  187POPC  H15A21494   6.124   5.430   5.113  2.6161 -0.2912 -0.0820
  187POPC  H15B21495   6.086   5.327   4.984 -0.1395 -0.2841 -0.8212
  187POPC  H15C21496   6.218   5.290   5.085  0.2985  0.8182 -2.3249
  187POPC   C1121497   5.767   5.258   5.238  0.0581 -0.7111  0.6451
  187POPC  H11A21498   5.702   5.334   5.285  2.5589 -0.2328  3.6531
  187POPC  H11B21499   5.796   5.188   5.318  0.0118 -0.4799  0.8649
  187POPC     P21500   5.612   5.237   5.030  0.4140 -0.1253  0.3203
  187POPC   O1321501   5.555   5.120   4.959 -0.1470 -0.4206 -0.1277
  187POPC   O1421502   5.704   5.326   4.952 -0.1301  0.0624  0.0962
  187POPC   O1221503   5.688   5.175   5.146  0.3824  0.1420 -0.4789
  187POPC   O1121504   5.496   5.321   5.094  0.4664  0.2054 -0.3997
  187POPC    C121505   5.377   5.264   5.137  0.4230  0.0975 -0.3176
  187POPC    HA21506   5.354   5.163   5.097  1.0601  0.3110 -1.2608
  187POPC    HB21507   5.300   5.323   5.084  2.2968  1.6043 -1.4838
  187POPC    C221508   5.364   5.266   5.295  0.3037 -0.3423  0.7287
  187POPC    HS21509   5.402   5.365   5.330  1.4304 -0.1799 -0.8335
  187POPC   O2121510   5.436   5.150   5.338 -0.3019 -0.9588 -0.3542
  187POPC   C2121511   5.501   5.163   5.455 -0.0299 -0.2304 -0.4294
  187POPC   O2221512   5.532   5.271   5.501 -0.0408 -0.3933 -0.0215
  187POPC   C2221513   5.539   5.028   5.507 -0.5436 -0.5566 -0.1703
  187POPC   H2R21514   5.650   5.027   5.505 -0.4837 -2.5625  1.3515
  187POPC   H2S21515   5.486   4.953   5.445 -2.0210 -0.0142  0.3792
  187POPC    C321516   5.213   5.276   5.343  0.0426  0.4275  0.0664
  187POPC    HX21517   5.152   5.203   5.286 -1.0036  1.1753  0.1914
  187POPC    HY21518   5.170   5.373   5.309 -0.9429 -0.1855 -0.5012
  187POPC   O3121519   5.204   5.268   5.488  0.2164 -0.3359  0.1453
  187POPC   C3121520   5.222   5.380   5.560 -0.2437 -0.1125  0.6705
  187POPC   O3221521   5.258   5.489   5.519 -0.0328  0.1761 -0.1384
  187POPC   C3221522   5.228   5.356   5.709  0.6750 -0.0174 -0.7282
  187POPC   H2X21523   5.327   5.306   5.723 -0.3741 -1.9653  0.1418
  187POPC   H2Y21524   5.170   5.266   5.737 -2.3056  2.2344  0.8251
  187POPC   C2321525   5.504   5.011   5.657 -0.4106 -0.1975  0.4204
  187POPC   H3R21526   5.518   4.901   5.673  0.9004 -0.0998  0.0326
  187POPC   H3S21527   5.397   5.036   5.673 -0.4645  1.2297 -1.8258
  187POPC   C2421528   5.597   5.078   5.762  0.8429 -0.2379 -0.7583
  187POPC   H4R21529   5.576   5.186   5.775  0.5292 -0.2772 -0.9289
  187POPC   H4S21530   5.701   5.057   5.730  1.1546  0.1660 -0.0487
  187POPC   C2521531   5.590   5.033   5.912 -0.1138 -0.2941  0.0118
  187POPC   H5R21532   5.622   4.927   5.923 -0.7561 -0.5098 -0.1450
  187POPC   H5S21533   5.484   5.038   5.946 -0.3294 -1.4817 -0.4075
  187POPC   C2621534   5.670   5.127   6.002  0.1078 -0.0298  0.9764
  187POPC   H6R21535   5.614   5.223   6.011 -0.9041 -0.5861  0.6968
  187POPC   H6S21536   5.773   5.155   5.972 -0.4839 -0.5715 -1.8410
  187POPC   C2721537   5.658   5.064   6.139  0.0474  0.1347  0.0004
  187POPC   H7R21538   5.721   4.972   6.134  1.0161  0.8525 -2.6470
  187POPC   H7S21539   5.553   5.035   6.162  1.1625 -2.5442  2.4735
  187POPC   C2821540   5.699   5.161   6.251 -0.0755  0.2997  0.6370
  187POPC   H8R21541   5.650   5.260   6.238 -1.5762 -0.3776  0.9295
  187POPC   H8S21542   5.808   5.181   6.246  0.5392 -2.5071  1.0333
  187POPC   C2921543   5.661   5.106   6.389 -0.0655  0.1411  0.1547
  187POPC   H9121544   5.711   5.011   6.416  1.8581  1.0247 -0.1523
  187POPC  C21021545   5.570   5.149   6.475  0.2366  0.5757 -0.7498
  187POPC  H10121546   5.544   5.103   6.572  1.3371  0.0063 -0.7062
  187POPC  C21121547   5.468   5.255   6.445 -0.0860  0.5388 -0.8057
  187POPC  H11R21548   5.504   5.327   6.368 -0.2616  2.1793  0.5792
  187POPC  H11S21549   5.461   5.306   6.544  1.9682  0.5065 -0.5961
  187POPC  C21221550   5.325   5.204   6.406 -0.5064  0.4177 -0.1246
  187POPC  H12R21551   5.248   5.284   6.409 -1.6467 -0.6726  1.5434
  187POPC  H12S21552   5.302   5.132   6.488  0.8435  0.5162  0.3737
  187POPC  C21321553   5.317   5.134   6.269  0.4856  0.5383  1.0744
  187POPC  H13R21554   5.378   5.043   6.283 -2.9682 -2.0948  0.4026
  187POPC  H13S21555   5.362   5.194   6.187  3.1417 -1.9191  0.5794
  187POPC  C21421556   5.170   5.096   6.228 -0.0459 -0.0151  0.0268
  187POPC  H14R21557   5.119   5.194   6.223 -0.7835 -0.2537  2.1224
  187POPC  H14S21558   5.112   5.052   6.312 -0.0218  0.5447  0.3384
  187POPC  C21521559   5.151   5.020   6.097  0.8921 -0.1115 -0.1222
  187POPC  H15R21560   5.154   4.909   6.090 -0.7785 -0.1353 -0.7861
  187POPC  H15S21561   5.229   5.060   6.028  0.2391  0.8913 -0.2903
  187POPC  C21621562   5.010   5.063   6.048 -0.2750 -0.4234  0.3773
  187POPC  H16R21563   5.017   5.169   6.016 -1.7201  0.0856  1.6471
  187POPC  H16S21564   4.935   5.056   6.130 -2.4164 -0.8041 -1.5189
  187POPC  C21721565   4.957   4.976   5.934 -0.2810 -1.2235  0.4838
  187POPC  H17R21566   4.849   4.994   5.917 -0.1048 -0.9229 -0.3589
  187POPC  H17S21567   4.969   4.865   5.941  0.9022 -1.2061 -0.7098
  187POPC  C21821568   5.021   5.022   5.800  0.1227 -1.0154  0.0547
  187POPC  H18R21569   5.131   5.031   5.812  0.3795 -2.5330 -0.8292
  187POPC  H18S21570   4.993   5.121   5.758  1.1057 -0.9959 -0.5877
  187POPC  H18T21571   5.003   4.948   5.720  1.1507 -1.6026  0.3393
  187POPC   C3321572   5.190   5.472   5.807  0.2905  0.5738  0.1865
  187POPC   H3X21573   5.079   5.485   5.811  0.0263 -1.4863  0.8541
  187POPC   H3Y21574   5.250   5.560   5.776  0.8655  0.1744  0.1591
  187POPC   C3421575   5.222   5.430   5.948  0.1219 -0.6144  0.3662
  187POPC   H4X21576   5.331   5.411   5.957  0.2054 -1.8533 -2.3808
  187POPC   H4Y21577   5.170   5.335   5.975 -3.3397  1.0012 -0.0603
  187POPC   C3521578   5.188   5.553   6.042  0.6657 -0.4363 -0.1987
  187POPC   H5X21579   5.079   5.571   6.031  1.0403  1.1492 -1.7578
  187POPC   H5Y21580   5.239   5.644   6.004  0.4667 -0.4305 -0.4546
  187POPC   C3621581   5.233   5.526   6.187  0.0386  0.3705 -0.0117
  187POPC   H6X21582   5.336   5.485   6.179 -0.4054 -0.6485 -0.7054
  187POPC   H6Y21583   5.176   5.445   6.237  1.0860  0.8103  2.0229
  187POPC   C3721584   5.229   5.647   6.284 -0.0794 -0.2252 -0.0683
  187POPC   H7X21585   5.142   5.715   6.264  1.0425  1.0037 -0.9601
  187POPC   H7Y21586   5.318   5.709   6.260  2.2085 -3.1059  0.4856
  187POPC   C3821587   5.238   5.611   6.429 -0.1435  0.2050 -0.0528
  187POPC   H8X21588   5.314   5.533   6.449 -0.2423 -0.9600 -3.4809
  187POPC   H8Y21589   5.135   5.579   6.455 -0.4883  0.6525 -0.8012
  187POPC   C3921590   5.258   5.736   6.526  0.6027  0.5594 -0.4224
  187POPC   H9X21591   5.200   5.825   6.492 -1.0460 -0.9680 -1.8520
  187POPC   H9Y21592   5.364   5.767   6.530  0.8967 -0.4203 -0.2001
  187POPC  C31021593   5.214   5.702   6.661  0.3835  0.1694 -0.4797
  187POPC  H10X21594   5.268   5.614   6.702  0.5287  1.1467  1.5269
  187POPC  H10Y21595   5.106   5.675   6.661  0.6292 -0.8417 -0.7074
  187POPC  C31121596   5.250   5.812   6.771  0.1449  0.2755 -0.5702
  187POPC  H11X21597   5.212   5.913   6.745 -0.8205  0.5110  1.5594
  187POPC  H11Y21598   5.362   5.814   6.769  0.1590 -0.6188 -1.4490
  187POPC  C31221599   5.201   5.775   6.910 -0.0827 -0.6756  0.1797
  187POPC  H12X21600   5.236   5.671   6.927 -3.2206 -2.0065 -0.6639
  187POPC  H12Y21601   5.090   5.784   6.913 -0.2246 -1.1914 -1.9347
  187POPC  C31321602   5.275   5.854   7.019  1.0979 -0.6599 -0.2342
  187POPC  H13X21603   5.250   5.961   7.000 -2.1992 -1.2899  0.0103
  187POPC  H13Y21604   5.384   5.834   7.012  1.9307  2.1668  2.2157
  187POPC  C31421605   5.232   5.819   7.165  0.2974  0.4656 -0.5066
  187POPC  H14X21606   5.226   5.708   7.176 -3.2332  0.4795 -1.0897
  187POPC  H14Y21607   5.136   5.870   7.189  0.6540  1.2526 -0.7527
  187POPC  C31521608   5.339   5.862   7.266 -0.1571  0.1186 -1.0961
  187POPC  H15X21609   5.426   5.794   7.265  0.1378  0.4183  0.5712
  187POPC  H15Y21610   5.287   5.826   7.357  1.8638 -3.1989 -1.1330
  187POPC  C31621611   5.358   6.012   7.298 -0.2246 -0.2603  0.4359
  187POPC  H16X21612   5.269   6.077   7.281  0.4588  0.3130 -1.1089
  187POPC  H16Y21613   5.441   6.042   7.230  0.3958 -0.6200  1.0205
  187POPC  H16Z21614   5.392   6.025   7.404 -0.2669 -0.0889  0.4297
  188POPC     N21615   5.753   2.194   5.357  0.0346  0.0827 -0.0618
  188POPC   C1221616   5.904   2.233   5.361  0.0539 -0.1388  0.1489
  188POPC  H12A21617   5.914   2.340   5.366  0.5805 -0.2385  1.8548
  188POPC  H12B21618   5.945   2.206   5.264 -0.6653 -0.4263 -0.0833
  188POPC   C1321619   5.685   2.287   5.264 -0.3453 -0.7154  0.5532
  188POPC  H13A21620   5.694   2.389   5.299  3.8565 -1.3679  1.9351
  188POPC  H13B21621   5.725   2.288   5.164 -3.9926  2.5071 -1.1420
  188POPC  H13C21622   5.580   2.261   5.264 -0.3585 -0.6732 -0.6712
  188POPC   C1421623   5.740   2.054   5.305  0.3560 -0.5477 -0.2632
  188POPC  H14A21624   5.635   2.033   5.292 -0.8670  3.7331  1.0537
  188POPC  H14B21625   5.781   2.037   5.207 -2.7509  0.5250 -1.8652
  188POPC  H14C21626   5.781   1.989   5.381 -0.7881  0.9283  1.6970
  188POPC   C1521627   5.691   2.207   5.496 -0.7130  0.0283  0.6493
  188POPC  H15A21628   5.746   2.144   5.564  3.1417  1.5689 -0.7488
  188POPC  H15B21629   5.586   2.184   5.490 -0.5108 -0.5422 -1.7986
  188POPC  H15C21630   5.703   2.305   5.540  0.1050 -0.9182  2.6416
  188POPC   C1121631   5.997   2.189   5.475  0.1106  0.5967  0.1132
  188POPC  H11A21632   5.959   2.209   5.578  0.3099 -0.8766  0.4976
  188POPC  H11B21633   6.098   2.236   5.463  0.6640 -0.7511 -0.6727
  188POPC     P21634   6.106   1.995   5.345 -0.0382  0.1689  0.2503
  188POPC   O1321635   6.122   2.094   5.237  0.3920 -0.5938 -0.7678
  188POPC   O1421636   6.051   1.861   5.302 -0.5701 -0.4916 -0.1132
  188POPC   O1221637   6.009   2.051   5.460  0.1705  0.0858  0.4483
  188POPC   O1121638   6.241   1.973   5.418 -0.1015  0.5142 -0.7002
  188POPC    C121639   6.278   1.850   5.479 -0.1019  1.0118  0.3298
  188POPC    HA21640   6.370   1.815   5.428  0.1256  0.7801  0.8886
  188POPC    HB21641   6.202   1.771   5.462 -0.4830  1.7873 -1.8309
  188POPC    C221642   6.306   1.856   5.631 -0.1348  0.1834 -0.0683
  188POPC    HS21643   6.336   1.756   5.669  2.0498  0.0282 -1.9683
  188POPC   O2121644   6.190   1.901   5.702 -0.1142 -0.0123 -0.1392
  188POPC   C2121645   6.084   1.819   5.696  0.1557  0.2633  0.8434
  188POPC   O2221646   6.086   1.709   5.650 -0.6666  0.1746 -0.3958
  188POPC   C2221647   5.962   1.882   5.757 -0.2107 -0.4745 -0.3092
  188POPC   H2R21648   5.888   1.887   5.675 -0.3890 -1.2671 -0.2041
  188POPC   H2S21649   5.986   1.988   5.783  0.1075 -0.2901 -1.3355
  188POPC    C321650   6.425   1.963   5.656  0.5610  0.5702 -0.1385
  188POPC    HX21651   6.383   2.055   5.610  0.6504  0.1695 -1.0534
  188POPC    HY21652   6.524   1.949   5.607  0.6330 -0.0902  0.1869
  188POPC   O3121653   6.450   1.972   5.801  0.5638 -0.3579 -0.5671
  188POPC   C3121654   6.508   1.878   5.856  0.4489  0.2798 -0.7618
  188POPC   O3221655   6.584   1.795   5.807  0.2144  0.2433 -0.2763
  188POPC   C3221656   6.461   1.885   6.008 -0.3705  0.6258 -0.5242
  188POPC   H2X21657   6.402   1.793   6.027  0.5925  0.1189  0.0689
  188POPC   H2Y21658   6.406   1.980   6.025  0.3356  0.7794  1.0721
  188POPC   C2321659   5.894   1.799   5.869  0.3883 -0.8699 -0.5418
  188POPC   H3R21660   5.880   1.694   5.836  1.4058 -0.9543 -0.7502
  188POPC   H3S21661   5.796   1.843   5.893  2.4978  4.0101  0.2396
  188POPC   C2421662   5.969   1.805   6.003 -0.0398  0.3292  0.7049
  188POPC   H4R21663   6.077   1.789   5.984 -0.9342 -3.6632 -2.4546
  188POPC   H4S21664   5.947   1.715   6.065  1.0843 -1.6580 -1.5860
  188POPC   C2521665   5.933   1.929   6.090  0.3475  0.9120  0.3626
  188POPC   H5R21666   5.835   1.915   6.139  0.5737  0.1452  0.6117
  188POPC   H5S21667   5.928   2.030   6.045  1.3471  1.4273  1.3827
  188POPC   C2621668   6.037   1.944   6.197 -0.3770  0.4832 -0.2745
  188POPC   H6R21669   6.003   2.039   6.244 -0.7569 -0.3380  1.1764
  188POPC   H6S21670   6.136   1.958   6.150 -0.0558  0.5371  0.4019
  188POPC   C2721671   6.046   1.829   6.300 -1.0146 -0.3246 -0.4167
  188POPC   H7R21672   6.061   1.741   6.235  1.5874 -1.6453  1.7684
  188POPC   H7S21673   5.952   1.808   6.355 -1.4324 -1.0259 -1.3782
  188POPC   C2821674   6.155   1.847   6.398  0.7066  0.7527 -0.3942
  188POPC   H8R21675   6.250   1.881   6.351  1.9648 -0.8155  0.8926
  188POPC   H8S21676   6.180   1.747   6.440  2.9737  0.7910 -1.4736
  188POPC   C2921677   6.125   1.935   6.512 -0.0727 -0.3913 -0.2668
  188POPC   H9121678   6.068   2.027   6.493 -0.9459 -0.6402  1.0008
  188POPC  C21021679   6.164   1.919   6.640  0.0057 -0.5242  0.1314
  188POPC  H10121680   6.135   1.992   6.717 -1.0393 -0.2489 -0.5117
  188POPC  C21121681   6.245   1.804   6.704  0.3668 -0.1144  0.4250
  188POPC  H11R21682   6.349   1.799   6.664  0.5575 -0.7145  0.9613
  188POPC  H11S21683   6.194   1.705   6.697 -0.5178  0.4365 -1.5725
  188POPC  C21221684   6.269   1.828   6.852 -0.1442  0.6555  0.1913
  188POPC  H12R21685   6.334   1.917   6.867  0.6817  0.4013 -1.6647
  188POPC  H12S21686   6.337   1.749   6.891 -0.2196  0.4611 -0.0746
  188POPC  C21321687   6.149   1.837   6.943 -0.2749  0.2352 -0.9788
  188POPC  H13R21688   6.091   1.743   6.932  3.7072 -2.4246 -1.1460
  188POPC  H13S21689   6.082   1.918   6.906 -1.7825 -1.2860 -1.7520
  188POPC  C21421690   6.180   1.860   7.095  0.4790 -0.7098  0.3061
  188POPC  H14R21691   6.090   1.871   7.159  1.2380  0.3411  1.2264
  188POPC  H14S21692   6.242   1.952   7.100 -0.2985 -0.1695  0.2383
  188POPC  C21521693   6.274   1.755   7.157 -0.2600  0.4450  0.4569
  188POPC  H15R21694   6.353   1.718   7.089 -0.1863  1.2034  0.1299
  188POPC  H15S21695   6.222   1.657   7.172 -0.5904  0.1716 -1.9997
  188POPC  C21621696   6.341   1.810   7.281  0.7500 -0.6947 -0.3472
  188POPC  H16R21697   6.254   1.833   7.346  0.9309 -0.0249 -0.3372
  188POPC  H16S21698   6.385   1.909   7.260  2.4790 -1.5009 -0.7364
  188POPC  C21721699   6.449   1.724   7.339  0.1571 -0.2061  0.4264
  188POPC  H17R21700   6.535   1.721   7.268 -1.1309 -0.0354 -1.2065
  188POPC  H17S21701   6.403   1.622   7.333  0.7082 -0.5379  1.5637
  188POPC  C21821702   6.492   1.748   7.480 -0.0433 -0.2004  0.5035
  188POPC  H18R21703   6.410   1.744   7.553 -1.0030  0.2688 -0.5174
  188POPC  H18S21704   6.543   1.846   7.492  0.9177 -0.7263  0.8333
  188POPC  H18T21705   6.577   1.685   7.514  0.3587 -0.4023 -0.8063
  188POPC   C3321706   6.591   1.888   6.090  0.9130 -0.2657 -0.1743
  188POPC   H3X21707   6.651   1.982   6.092  1.2656 -0.4954  1.4803
  188POPC   H3Y21708   6.655   1.804   6.059  0.3981 -0.4204 -0.8290
  188POPC   C3421709   6.556   1.874   6.234 -0.6530 -0.0896 -0.2867
  188POPC   H4X21710   6.493   1.783   6.243  0.0284 -0.7287 -1.6302
  188POPC   H4Y21711   6.488   1.956   6.267 -0.2748 -0.0895  0.5068
  188POPC   C3521712   6.671   1.863   6.330 -0.2264  0.1983  0.0355
  188POPC   H5X21713   6.731   1.955   6.313 -1.1502  0.6285 -1.0517
  188POPC   H5Y21714   6.730   1.773   6.304 -0.7143  0.0601 -0.6243
  188POPC   C3621715   6.617   1.867   6.478  0.1823  0.3585 -0.0900
  188POPC   H6X21716   6.558   1.773   6.488  0.6580  0.1375  0.7871
  188POPC   H6Y21717   6.552   1.955   6.497  0.2548  0.2639  0.6482
  188POPC   C3721718   6.718   1.888   6.589 -0.7794 -0.2636  0.2520
  188POPC   H7X21719   6.763   1.989   6.575  1.1448 -1.0365  0.5232
  188POPC   H7Y21720   6.791   1.804   6.590 -1.6609 -1.1265 -2.0675
  188POPC   C3821721   6.660   1.875   6.735  0.3964 -0.3895  0.2913
  188POPC   H8X21722   6.598   1.783   6.738 -3.1179  1.6666 -1.9439
  188POPC   H8Y21723   6.586   1.958   6.738  0.2215 -0.5724  1.9654
  188POPC   C3921724   6.764   1.895   6.843  0.3967 -0.1296  0.4299
  188POPC   H9X21725   6.817   1.992   6.839 -0.0406  0.2253  2.1194
  188POPC   H9Y21726   6.847   1.823   6.827 -0.3377 -0.9606  0.2455
  188POPC  C31021727   6.709   1.892   6.982 -0.0386  0.3468 -0.7359
  188POPC  H10X21728   6.664   1.795   7.010  0.7927  0.2877  0.4711
  188POPC  H10Y21729   6.620   1.959   6.978 -0.7951 -0.6272 -0.5596
  188POPC  C31121730   6.802   1.935   7.103  0.8482  0.4993 -0.9416
  188POPC  H11X21731   6.844   2.030   7.065  3.3814 -0.4903 -0.8220
  188POPC  H11Y21732   6.874   1.851   7.111  0.5458 -0.0184 -3.0109
  188POPC  C31221733   6.728   1.956   7.241  0.2461 -0.5693  0.3847
  188POPC  H12X21734   6.693   1.861   7.286 -0.9838 -0.4455 -0.2585
  188POPC  H12Y21735   6.634   2.015   7.236  0.9051  0.4584 -0.4915
  188POPC  C31321736   6.819   2.022   7.350 -0.5007 -0.2737  0.1136
  188POPC  H13X21737   6.758   2.046   7.440 -0.4996  0.8676 -0.1681
  188POPC  H13Y21738   6.860   2.116   7.307  0.4405 -1.7597 -2.4575
  188POPC  C31421739   6.936   1.936   7.395 -0.6715 -0.1934 -0.4684
  188POPC  H14X21740   6.981   1.870   7.319  2.1123  1.6390 -0.5471
  188POPC  H14Y21741   6.886   1.866   7.465  0.0458  0.7680  1.0531
  188POPC  C31521742   7.043   2.018   7.477  0.8017 -0.6802  0.4250
  188POPC  H15X21743   7.005   2.051   7.576 -1.7069  2.4410 -1.3510
  188POPC  H15Y21744   7.057   2.110   7.416 -1.3948 -0.7662 -0.3261
  188POPC  C31621745   7.175   1.938   7.480  0.4553 -0.1838 -0.0455
  188POPC  H16X21746   7.178   1.835   7.521  0.9115  0.0587  0.5360
  188POPC  H16Y21747   7.252   2.000   7.530  1.1302 -0.7077 -0.4073
  188POPC  H16Z21748   7.206   1.923   7.374 -0.3751 -1.0673 -0.1824
  189SAPI   C1221749   2.295   4.258   0.487  0.3959 -0.0397  0.1208
  189SAPI    H221750   2.304   4.213   0.588 -3.4766  0.3299  0.7970
  189SAPI    O221751   2.202   4.175   0.418  0.6396 -0.1918 -0.3350
  189SAPI   HO221752   2.133   4.156   0.482  0.4901  0.1394 -0.4009
  189SAPI   C1321753   2.247   4.399   0.497  0.4219  0.1539  0.9223
  189SAPI    H321754   2.334   4.452   0.541 -0.3649  2.1326  0.2039
  189SAPI    O321755   2.133   4.407   0.584  0.1592 -0.4263 -0.1979
  189SAPI   HO321756   2.063   4.361   0.537 -1.7597  0.7432  1.3320
  189SAPI   C1421757   2.218   4.463   0.360 -0.3091  0.0017  0.5507
  189SAPI    H421758   2.125   4.420   0.317 -0.1923  0.2379  0.0552
  189SAPI    O421759   2.186   4.601   0.375  0.1548 -0.0118 -0.1905
  189SAPI   HO421760   2.261   4.637   0.422  0.4285  1.1780 -1.4823
  189SAPI   C1521761   2.342   4.448   0.263  0.4504 -0.4673 -0.1320
  189SAPI    H521762   2.410   4.534   0.285 -0.0737  0.5038 -2.0891
  189SAPI    O521763   2.295   4.460   0.128  0.4437 -0.1628  0.0626
  189SAPI   HO521764   2.231   4.390   0.116  0.0718  0.2066 -0.1306
  189SAPI   C1621765   2.430   4.322   0.289 -0.0736  0.2836 -0.4888
  189SAPI    H621766   2.396   4.245   0.217 -0.4398  1.0928 -1.1980
  189SAPI    O621767   2.567   4.349   0.256 -0.7379  0.4114  0.4071
  189SAPI   HO621768   2.610   4.273   0.215 -1.6903  0.5848 -0.9814
  189SAPI   C1121769   2.433   4.256   0.425 -0.1344  0.6883 -0.1126
  189SAPI    H121770   2.496   4.321   0.490 -1.8869  1.3928  0.9523
  189SAPI     P21771   2.619   4.074   0.497 -0.1493  0.2178  0.6849
  189SAPI   O1321772   2.632   3.930   0.518 -0.0346 -0.1980 -0.4350
  189SAPI   O1421773   2.622   4.158   0.616 -0.8323 -0.6917 -0.2006
  189SAPI   O1221774   2.480   4.114   0.420 -0.2251  0.0184  0.4490
  189SAPI   O1121775   2.731   4.122   0.395 -0.2357 -0.4095 -0.0313
  189SAPI    C121776   2.781   4.022   0.301  1.0700 -0.0340  0.1676
  189SAPI    HA21777   2.891   4.009   0.313  1.4883  2.7805 -0.0475
  189SAPI    HB21778   2.744   3.919   0.321  0.5456 -0.3088 -2.0522
  189SAPI    C221779   2.772   4.065   0.142  0.0938  0.7516 -0.2438
  189SAPI    HS21780   2.850   4.002   0.094  0.0147 -1.3212  2.1138
  189SAPI   O2121781   2.795   4.207   0.126 -0.6637 -0.2241  0.1824
  189SAPI   C2121782   2.856   4.244   0.016 -0.5983 -0.2796  0.0849
  189SAPI   O2221783   2.903   4.168  -0.071 -0.1102 -0.0983 -0.2206
  189SAPI   C2221784   2.845   4.401  -0.007 -0.1659 -0.0287  0.0165
  189SAPI   H2R21785   2.762   4.423   0.064  0.9181 -3.2830  2.5347
  189SAPI   H2S21786   2.943   4.441   0.026  0.6042  0.2982 -2.4841
  189SAPI    C321787   2.633   4.025   0.092 -0.3556  0.1833  0.2802
  189SAPI    HX21788   2.557   4.096   0.132  0.4111  1.6521 -0.7988
  189SAPI    HY21789   2.614   3.921   0.126 -1.0471 -0.1457 -1.0473
  189SAPI   O3121790   2.623   4.028  -0.054  0.7057  0.4682 -0.2222
  189SAPI   C3121791   2.693   3.932  -0.114  0.5243 -0.0864 -0.4026
  189SAPI   O3221792   2.762   3.848  -0.059  0.1544  0.0568  0.5309
  189SAPI   C3221793   2.693   3.976  -0.255 -0.3726  0.6247  0.4572
  189SAPI   H2X21794   2.767   4.059  -0.258  0.7855 -0.4011 -0.2714
  189SAPI   H2Y21795   2.603   4.035  -0.283 -0.4708  0.3775  0.2375
  189SAPI   C2321796   2.836   4.436  -0.161  0.0165 -1.1193 -0.4808
  189SAPI   H3R21797   2.907   4.378  -0.224  1.2701  0.0931 -0.2305
  189SAPI   H3S21798   2.880   4.536  -0.178  0.4955 -1.4784 -1.4192
  189SAPI   C2421799   2.691   4.408  -0.212 -1.3008 -0.2869 -0.0560
  189SAPI   H4R21800   2.626   4.481  -0.159 -0.3156  2.4215 -2.3197
  189SAPI   H4S21801   2.674   4.299  -0.201  0.9948 -0.5850  1.1156
  189SAPI   C2521802   2.707   4.463  -0.353  0.6224 -0.5236 -0.2297
  189SAPI   H5R21803   2.679   4.569  -0.360 -1.4589 -0.7033  2.9488
  189SAPI   C2621804   2.757   4.409  -0.469 -0.2028 -0.5887  0.2638
  189SAPI   H6R21805   2.766   4.473  -0.558  3.5547 -0.2784  0.7232
  189SAPI   C2721806   2.807   4.274  -0.485 -0.3039  0.1315  0.0386
  189SAPI   H7R21807   2.736   4.221  -0.553  0.2940  0.6526 -1.0107
  189SAPI   H7S21808   2.804   4.223  -0.387 -1.8009 -1.4810 -0.7992
  189SAPI   C2821809   2.951   4.281  -0.540 -0.1004  0.3924  0.3011
  189SAPI   H8R21810   3.030   4.268  -0.465  1.5145 -1.2962 -1.5709
  189SAPI   C2921811   2.984   4.276  -0.673 -0.9364 -0.5635  0.3344
  189SAPI   H9R21812   3.091   4.280  -0.696 -0.8207 -1.8454  0.5618
  189SAPI  C21021813   2.885   4.292  -0.793  0.0785  0.8132 -0.1252
  189SAPI  H10R21814   2.782   4.326  -0.767 -0.9515 -1.5018 -0.9419
  189SAPI  H10S21815   2.863   4.190  -0.830 -2.5884  0.7233  1.4324
  189SAPI  C21121816   2.936   4.382  -0.905 -0.8248  0.0992  0.0693
  189SAPI  H11R21817   3.013   4.454  -0.873 -0.5150  0.3009 -1.0975
  189SAPI  C21221818   2.900   4.389  -1.032  0.5017  0.2651 -0.2047
  189SAPI  H12R21819   2.943   4.460  -1.105 -1.3866 -0.1977 -1.8644
  189SAPI  C21321820   2.809   4.299  -1.108  0.4505 -0.6207  0.2769
  189SAPI  H13R21821   2.741   4.366  -1.166 -0.2769  0.2046  2.0149
  189SAPI  H13S21822   2.747   4.247  -1.032 -0.0851  1.9413  1.7408
  189SAPI  C21421823   2.880   4.195  -1.193  0.6014  0.4351  0.4701
  189SAPI  H14R21824   2.965   4.140  -1.149  1.1484  1.3352  0.5702
  189SAPI  C21521825   2.841   4.147  -1.312 -0.3267 -0.4493 -0.9311
  189SAPI  H15R21826   2.907   4.073  -1.359 -0.5969  0.0147 -2.0851
  189SAPI  C21621827   2.724   4.196  -1.396  0.1223 -0.2317  0.6706
  189SAPI  H16R21828   2.632   4.197  -1.333  0.0970  0.4377  0.6369
  189SAPI  H16S21829   2.717   4.122  -1.478  0.6356  0.7573 -0.2899
  189SAPI  C21721830   2.747   4.328  -1.480 -0.1189 -0.4109  1.0264
  189SAPI  H17R21831   2.826   4.326  -1.558 -2.5180 -0.3089 -1.5223
  189SAPI  H17S21832   2.780   4.402  -1.403  1.0613 -0.2143  0.3474
  189SAPI  C21821833   2.621   4.384  -1.543 -0.0791  0.1912 -0.1268
  189SAPI  H18R21834   2.566   4.409  -1.450  0.2573 -2.0365  0.7317
  189SAPI  H18S21835   2.560   4.304  -1.589  0.3406  0.3049 -0.8957
  189SAPI  C21921836   2.653   4.512  -1.617 -0.2834 -0.2309  0.0560
  189SAPI  H19R21837   2.676   4.492  -1.724 -0.9758  1.7397 -0.5099
  189SAPI  H19S21838   2.738   4.567  -1.570  1.3226 -2.2353 -0.3343
  189SAPI  C22021839   2.533   4.609  -1.622 -0.1300  0.7220  0.6996
  189SAPI  H20R21840   2.545   4.668  -1.715 -0.2682 -1.9479 -1.1389
  189SAPI  H20S21841   2.527   4.678  -1.535 -0.3781  2.3780 -0.5926
  189SAPI  H20T21842   2.442   4.548  -1.636  1.9586 -2.0865 -1.8875
  189SAPI   C3321843   2.735   3.868  -0.356  0.0621  0.8457  0.2739
  189SAPI   H3X21844   2.660   3.786  -0.368 -0.1958  1.1034  0.1145
  189SAPI   H3Y21845   2.831   3.826  -0.318 -0.4689  0.2174  0.9509
  189SAPI   C3421846   2.741   3.929  -0.496 -0.8036 -0.0189 -0.2982
  189SAPI   H4X21847   2.839   3.980  -0.509 -0.0660 -1.4874 -0.8387
  189SAPI   H4Y21848   2.663   4.007  -0.500  0.1139  0.8716 -1.6443
  189SAPI   C3521849   2.720   3.835  -0.608  0.5096  0.1844 -0.4216
  189SAPI   H5X21850   2.626   3.776  -0.599  0.8432 -0.6734 -2.0647
  189SAPI   H5Y21851   2.798   3.756  -0.604 -0.6887 -1.0345 -0.2139
  189SAPI   C3621852   2.723   3.906  -0.741 -0.7514 -0.7080  0.5806
  189SAPI   H6X21853   2.818   3.961  -0.753 -0.7303 -0.7436  0.5843
  189SAPI   H6Y21854   2.633   3.969  -0.759 -0.1243  0.0706  0.1400
  189SAPI   C3721855   2.710   3.794  -0.847 -0.4317 -0.1732  0.7085
  189SAPI   H7X21856   2.602   3.768  -0.845 -1.2434  2.5650 -1.3436
  189SAPI   H7Y21857   2.774   3.709  -0.815 -0.9626 -0.7373  0.3094
  189SAPI   C3821858   2.747   3.836  -0.993 -0.5310  0.0976  0.1012
  189SAPI   H8X21859   2.857   3.853  -0.995 -0.7321  1.5328  0.4414
  189SAPI   H8Y21860   2.696   3.930  -1.022 -3.0819 -1.8667 -2.4179
  189SAPI   C3921861   2.718   3.738  -1.110 -0.1848 -0.4061 -0.7906
  189SAPI   H9X21862   2.619   3.690  -1.097  0.7976 -2.2055  0.6129
  189SAPI   H9Y21863   2.790   3.652  -1.114 -0.3576 -0.7709  1.8427
  189SAPI  C31021864   2.711   3.817  -1.240  0.3801  0.1579  1.1468
  189SAPI  H10X21865   2.807   3.866  -1.264 -0.4231  1.2989  0.1483
  189SAPI  H10Y21866   2.627   3.890  -1.234  0.8604  1.0376 -1.3250
  189SAPI  C31121867   2.656   3.736  -1.366  0.8282  0.3862  0.3304
  189SAPI  H11X21868   2.576   3.670  -1.325  0.2110  0.7853 -0.2078
  189SAPI  H11Y21869   2.726   3.663  -1.410 -0.3113  0.4140 -1.6205
  189SAPI  C31221870   2.603   3.833  -1.472  0.0217  0.1575 -0.2683
  189SAPI  H12X21871   2.684   3.903  -1.501 -1.2489  1.6104 -0.4687
  189SAPI  H12Y21872   2.532   3.907  -1.429  1.4513  1.3557  0.1064
  189SAPI  C31321873   2.554   3.766  -1.599 -0.2907 -0.1501  0.5032
  189SAPI  H13X21874   2.481   3.683  -1.589  0.8313 -1.3099 -0.4998
  189SAPI  H13Y21875   2.646   3.717  -1.636 -0.3302  0.8862 -1.0515
  189SAPI  C31421876   2.500   3.878  -1.693  0.4523  0.3997  0.1803
  189SAPI  H14X21877   2.461   3.828  -1.784  0.1887  1.4116 -0.2750
  189SAPI  H14Y21878   2.580   3.945  -1.729  0.1384  1.4537  1.3693
  189SAPI  C31521879   2.378   3.946  -1.632  0.3439 -0.0518 -0.6543
  189SAPI  H15X21880   2.407   4.004  -1.542  2.6744 -0.9521 -0.7527
  189SAPI  H15Y21881   2.304   3.865  -1.617 -0.7333  1.2099  1.0789
  189SAPI  C31621882   2.312   4.054  -1.727  0.3923 -0.4609 -0.0409
  189SAPI  H16X21883   2.265   4.002  -1.814 -0.6292  0.5903 -0.1370
  189SAPI  H16Y21884   2.402   4.116  -1.749  0.9483 -1.0601  0.4843
  189SAPI  C31721885   2.199   4.139  -1.670  0.3815  0.1573 -0.3820
  189SAPI  H17X21886   2.254   4.187  -1.586  0.4414 -0.0590 -0.2951
  189SAPI  H17Y21887   2.128   4.063  -1.631  2.4570 -2.9092 -2.1087
  189SAPI  C31821888   2.144   4.239  -1.770  0.6077  0.4961  0.2385
  189SAPI  H18X21889   2.099   4.190  -1.859  2.3709  0.5243 -0.7152
  189SAPI  H18Y21890   2.223   4.305  -1.813  0.0040  0.7479 -0.5105
  189SAPI  H18Z21891   2.066   4.310  -1.734 -0.3751 -1.4155  2.0435
  190SAPI   C1221892   1.025   2.643   0.761  0.0740 -0.1518 -0.4211
  190SAPI    H221893   1.076   2.617   0.666  1.1783 -1.5334  0.5074
  190SAPI    O221894   1.129   2.637   0.861 -0.1954  0.1520 -0.1365
  190SAPI   HO221895   1.208   2.676   0.824  0.4626  0.1269  1.1790
  190SAPI   C1321896   0.962   2.781   0.754  0.3591  0.1921 -0.4264
  190SAPI    H321897   0.872   2.779   0.688  1.0898  1.9606 -1.5437
  190SAPI    O321898   1.057   2.868   0.691  0.3651 -0.6303  0.0245
  190SAPI   HO321899   1.103   2.911   0.763 -1.8495  1.9302  0.0736
  190SAPI   C1421900   0.917   2.813   0.892 -0.1048 -0.6835 -0.3244
  190SAPI    H421901   1.010   2.837   0.947 -0.7328  0.6741  0.1966
  190SAPI    O421902   0.845   2.939   0.898 -0.0414  0.0160  0.5264
  190SAPI   HO421903   0.875   2.988   0.974 -0.2172  0.8821  0.0483
  190SAPI   C1521904   0.835   2.699   0.964 -0.0823  1.0368 -0.1463
  190SAPI    H521905   0.729   2.729   0.948 -0.6868 -0.4477  0.8535
  190SAPI    O521906   0.836   2.709   1.110 -0.5397 -0.4790  0.5474
  190SAPI   HO521907   0.919   2.670   1.140  1.2483  0.4100 -2.7391
  190SAPI   C1621908   0.844   2.554   0.916 -0.7588  0.6681  0.5485
  190SAPI    H621909   0.918   2.510   0.986 -2.2286 -3.0000  0.0186
  190SAPI    O621910   0.724   2.475   0.926 -0.0904 -0.3910  0.0720
  190SAPI   HO621911   0.749   2.393   0.882  1.1903  0.1944 -0.3270
  190SAPI   C1121912   0.916   2.537   0.777  0.3474 -0.1503 -0.5474
  190SAPI    H121913   0.837   2.564   0.703 -0.9691 -0.6160  0.6472
  190SAPI     P21914   0.892   2.296   0.666  0.3107 -0.1430  0.0479
  190SAPI   O1321915   0.767   2.271   0.746 -0.5382 -0.0255  0.0065
  190SAPI   O1421916   0.969   2.176   0.639 -0.4755  0.4856  0.1372
  190SAPI   O1221917   0.983   2.415   0.738 -0.7740  0.6183  0.1434
  190SAPI   O1121918   0.847   2.369   0.529 -0.5122 -0.1124  0.0136
  190SAPI    C121919   0.946   2.439   0.453  0.4686 -0.1296  0.8137
  190SAPI    HA21920   0.955   2.544   0.488  0.7189 -0.5513  2.0610
  190SAPI    HB21921   1.049   2.399   0.462  1.0675  1.6359  2.4968
  190SAPI    C221922   0.891   2.445   0.308 -0.4804  0.2560  0.6164
  190SAPI    HS21923   0.945   2.529   0.259 -0.6234 -0.9085 -1.6298
  190SAPI   O2121924   0.752   2.471   0.311  0.1431  0.0925  0.0471
  190SAPI   C2121925   0.710   2.565   0.226 -0.1621 -0.2574 -0.3005
  190SAPI   O2221926   0.773   2.619   0.136  0.0237  0.5524  0.5548
  190SAPI   C2221927   0.566   2.607   0.262  0.0444 -0.5897 -0.2150
  190SAPI   H2R21928   0.503   2.517   0.275 -1.6848  0.5994  0.1091
  190SAPI   H2S21929   0.572   2.670   0.353 -2.9804 -2.3944  1.3799
  190SAPI    C321930   0.919   2.313   0.221 -0.0069 -0.0237  0.3005
  190SAPI    HX21931   0.865   2.231   0.273  1.5475 -0.2775  1.5996
  190SAPI    HY21932   1.025   2.278   0.228 -0.8417 -2.9093 -0.1639
  190SAPI   O3121933   0.866   2.318   0.084  0.4279 -0.1775 -0.1184
  190SAPI   C3121934   0.958   2.384   0.010  0.6766 -0.3535 -0.1938
  190SAPI   O3221935   1.066   2.428   0.054  0.2730 -0.1276  0.2152
  190SAPI   C3221936   0.918   2.400  -0.131 -0.2395 -0.7764  0.4442
  190SAPI   H2X21937   0.903   2.506  -0.161 -0.4017  0.0120  3.0474
  190SAPI   H2Y21938   0.813   2.365  -0.139 -0.5297  0.3940 -2.1624
  190SAPI   C2321939   0.488   2.686   0.154  0.1718 -0.0799 -0.0285
  190SAPI   H3R21940   0.560   2.761   0.114  1.0857 -0.1474  1.4040
  190SAPI   H3S21941   0.411   2.744   0.210  0.5769  0.2575  0.1857
  190SAPI   C2421942   0.451   2.599   0.030  0.4642  0.2939 -1.0953
  190SAPI   H4R21943   0.378   2.524   0.069 -0.4421  1.2601 -0.9053
  190SAPI   H4S21944   0.541   2.551  -0.014  0.5127 -0.5534 -0.1281
  190SAPI   C2521945   0.377   2.671  -0.077  0.0598  0.4385 -0.1732
  190SAPI   H5R21946   0.298   2.736  -0.038  0.0960 -0.2469  1.0990
  190SAPI   C2621947   0.410   2.673  -0.209 -0.4137  0.3544 -0.6507
  190SAPI   H6R21948   0.333   2.729  -0.264 -0.8301  0.1002 -0.3332
  190SAPI   C2721949   0.509   2.595  -0.286  0.0025 -0.6131  0.0977
  190SAPI   H7R21950   0.474   2.622  -0.387 -2.9796 -0.1771  1.1458
  190SAPI   H7S21951   0.503   2.488  -0.255  2.5782 -1.2435 -1.2804
  190SAPI   C2821952   0.644   2.647  -0.262 -0.1406 -0.1829 -0.0863
  190SAPI   H8R21953   0.665   2.673  -0.157  0.1741  1.9084 -0.6052
  190SAPI   C2921954   0.745   2.686  -0.351  0.0903  0.7037  0.0592
  190SAPI   H9R21955   0.829   2.742  -0.307 -0.8199  1.7345  0.5387
  190SAPI  C21021956   0.758   2.680  -0.498  0.0456  0.0560  0.1350
  190SAPI  H10R21957   0.858   2.710  -0.535 -0.0470 -0.7726 -0.8334
  190SAPI  H10S21958   0.703   2.763  -0.546  2.3480  1.8514  0.4497
  190SAPI  C21121959   0.713   2.547  -0.562 -0.2358  0.4893 -0.0606
  190SAPI  H11R21960   0.663   2.480  -0.490 -0.2855  1.5909  0.9572
  190SAPI  C21221961   0.722   2.508  -0.686  0.2783 -0.0207  0.0864
  190SAPI  H12R21962   0.669   2.414  -0.709  1.5079 -0.7065 -0.0200
  190SAPI  C21321963   0.775   2.584  -0.805  0.4365  0.5189  0.2545
  190SAPI  H13R21964   0.843   2.522  -0.867 -0.7551  0.0926 -0.6638
  190SAPI  H13S21965   0.818   2.681  -0.774 -1.7729  1.7052 -0.2149
  190SAPI  C21421966   0.671   2.618  -0.912 -0.0277  0.1325 -0.0102
  190SAPI  H14R21967   0.570   2.573  -0.906 -0.5829  1.4116  0.7565
  190SAPI  C21521968   0.678   2.710  -1.010  0.1872 -0.6279 -1.0265
  190SAPI  H15R21969   0.600   2.717  -1.087  0.0385  1.2836 -0.7642
  190SAPI  C21621970   0.805   2.782  -1.038  0.6055 -0.3327 -0.2653
  190SAPI  H16R21971   0.889   2.766  -0.968 -0.3998 -0.3304  0.9864
  190SAPI  H16S21972   0.773   2.889  -1.039 -0.6379 -0.6884 -0.4538
  190SAPI  C21721973   0.842   2.742  -1.182 -0.0046 -0.1979  0.0064
  190SAPI  H17R21974   0.927   2.803  -1.219  0.4592  0.6474  2.2870
  190SAPI  H17S21975   0.752   2.752  -1.246  0.0043  0.3281  0.0681
  190SAPI  C21821976   0.891   2.597  -1.193 -0.4501  0.4127  0.6166
  190SAPI  H18R21977   0.809   2.524  -1.175  0.0721 -0.3558 -0.0782
  190SAPI  H18S21978   0.977   2.581  -1.126 -1.2821 -0.9353  1.4098
  190SAPI  C21921979   0.939   2.579  -1.344 -0.1150 -0.4374  0.4729
  190SAPI  H19R21980   0.998   2.667  -1.375 -0.7186  0.6196  2.1495
  190SAPI  H19S21981   0.856   2.584  -1.418  0.1941 -0.2584  0.1391
  190SAPI  C22021982   1.015   2.448  -1.378 -0.4915 -0.2098 -0.3958
  190SAPI  H20R21983   1.066   2.454  -1.477 -1.3170  1.1067 -0.7661
  190SAPI  H20S21984   0.950   2.358  -1.378  1.7834 -1.9367 -0.5326
  190SAPI  H20T21985   1.098   2.424  -1.309  1.5668 -0.3377 -2.7540
  190SAPI   C3321986   0.999   2.303  -0.222 -0.3189  0.5709 -0.8039
  190SAPI   H3X21987   0.983   2.198  -0.189  0.1320  0.9001  0.5206
  190SAPI   H3Y21988   1.108   2.324  -0.218  0.0474 -1.1170 -1.0809
  190SAPI   C3421989   0.952   2.320  -0.364  0.0236  1.3283 -0.3166
  190SAPI   H4X21990   0.968   2.422  -0.406  0.1796  1.1835 -0.6091
  190SAPI   H4Y21991   0.843   2.296  -0.365  0.6248 -1.9882  1.1877
  190SAPI   C3521992   1.030   2.218  -0.453  0.7888 -0.7605 -0.5309
  190SAPI   H5X21993   1.022   2.116  -0.410  0.5486 -0.7700 -0.5964
  190SAPI   H5Y21994   1.137   2.249  -0.452 -0.0054  2.4780 -1.8132
  190SAPI   C3621995   0.987   2.218  -0.598  0.1610  0.4926 -0.0116
  190SAPI   H6X21996   0.987   2.322  -0.636 -0.6016  1.0838  1.5231
  190SAPI   H6Y21997   0.884   2.176  -0.609 -0.4799  2.2828 -1.4270
  190SAPI   C3721998   1.083   2.143  -0.694  0.7815  0.2412  0.3401
  190SAPI   H7X21999   1.063   2.037  -0.668 -1.1605  0.9205  1.9121
  190SAPI   H7Y22000   1.189   2.178  -0.695  0.4308  1.3578 -0.6624
  190SAPI   C3822001   1.034   2.167  -0.842  0.2258  0.4881 -0.8247
  190SAPI   H8X22002   1.040   2.275  -0.865 -0.4397  0.7223  0.0510
  190SAPI   H8Y22003   0.925   2.151  -0.854  0.0139  1.2937 -0.0413
  190SAPI   C3922004   1.123   2.076  -0.932 -0.3705  0.9491  0.2175
  190SAPI   H9X22005   1.092   1.970  -0.923  0.4124  0.8306  1.7462
  190SAPI   H9Y22006   1.224   2.092  -0.890 -0.4180  1.3297  0.1915
  190SAPI  C31022007   1.113   2.118  -1.084  0.4344  0.1429  0.2708
  190SAPI  H10X22008   1.136   2.227  -1.090  1.1835 -0.0838 -2.1430
  190SAPI  H10Y22009   1.006   2.099  -1.110 -0.9008  1.7586  3.8954
  190SAPI  C31122010   1.185   2.036  -1.196 -0.0256 -0.0620 -0.4235
  190SAPI  H11X22011   1.155   1.929  -1.190  0.3655 -0.2827 -2.0222
  190SAPI  H11Y22012   1.295   2.039  -1.180 -0.1877  1.3345  0.6704
  190SAPI  C31222013   1.133   2.074  -1.324  0.2908  0.9472 -0.4238
  190SAPI  H12X22014   1.151   2.182  -1.343  0.2495  1.3993  1.8908
  190SAPI  H12Y22015   1.024   2.054  -1.331  0.6435 -1.7650  0.5075
  190SAPI  C31322016   1.202   2.001  -1.439 -0.2074  0.3236  0.4474
  190SAPI  H13X22017   1.172   1.894  -1.446 -0.7328  0.5794 -2.5252
  190SAPI  H13Y22018   1.311   2.016  -1.425  0.1014 -0.0912 -1.2504
  190SAPI  C31422019   1.175   2.062  -1.577 -0.0965 -0.3922  0.7675
  190SAPI  H14X22020   1.232   1.991  -1.640 -0.9578  0.3389 -0.9152
  190SAPI  H14Y22021   1.219   2.164  -1.585  0.4199 -0.6491  0.2519
  190SAPI  C31522022   1.031   2.053  -1.621 -0.4628 -0.6062  0.9070
  190SAPI  H15X22023   0.966   2.127  -1.570  1.5180  1.3336  0.7575
  190SAPI  H15Y22024   0.985   1.957  -1.587 -1.9423  0.1234  1.0360
  190SAPI  C31622025   1.005   2.054  -1.770 -0.1756  0.5089  0.0291
  190SAPI  H16X22026   1.087   2.010  -1.831 -1.6406  0.4965 -2.0372
  190SAPI  H16Y22027   1.001   2.158  -1.809 -0.6705  0.3650 -0.3077
  190SAPI  C31722028   0.886   1.968  -1.813  0.0813  0.8888  0.2246
  190SAPI  H17X22029   0.876   1.987  -1.922 -0.9220 -3.5399 -0.6428
  190SAPI  H17Y22030   0.803   2.024  -1.764 -2.2375  0.4499 -2.9341
  190SAPI  C31822031   0.891   1.818  -1.777 -0.1095 -1.0552  0.1768
  190SAPI  H18X22032   0.874   1.813  -1.668 -1.0695  4.3283  0.5806
  190SAPI  H18Y22033   0.990   1.772  -1.796  0.2288  0.0083 -0.7732
  190SAPI  H18Z22034   0.809   1.760  -1.826  0.6503 -1.3402 -0.7900
  191SAPI   C1222035   0.934   1.794   4.893 -0.2200 -0.4325  0.2420
  191SAPI    H222036   1.039   1.800   4.931 -0.5572 -1.0188  1.2976
  191SAPI    O222037   0.930   1.890   4.787 -0.2204 -0.0282  0.2125
  191SAPI   HO222038   1.000   1.875   4.723  0.0062  1.7766 -0.0149
  191SAPI   C1322039   0.917   1.654   4.842 -0.1471  0.2601  0.2227
  191SAPI    H322040   0.924   1.589   4.931  1.0067  4.6967  3.7906
  191SAPI    O322041   1.024   1.619   4.752  0.6813 -0.3269 -0.2962
  191SAPI   HO322042   1.052   1.692   4.697 -0.5101 -0.0003 -0.4859
  191SAPI   C1422043   0.784   1.637   4.777  0.8634  0.6871  0.1324
  191SAPI    H422044   0.794   1.693   4.682 -1.7006 -1.7215 -1.7170
  191SAPI    O422045   0.754   1.506   4.727  0.2926  0.0971  0.4748
  191SAPI   HO422046   0.839   1.465   4.706 -0.1538 -1.0658  0.8974
  191SAPI   C1522047   0.662   1.696   4.849 -0.1412 -0.1611  0.2254
  191SAPI    H522048   0.631   1.610   4.912  0.5616 -1.7142 -1.4634
  191SAPI    O522049   0.555   1.724   4.751 -0.3868  0.1368 -0.7496
  191SAPI   HO522050   0.595   1.794   4.699  0.9998 -0.4334 -0.4875
  191SAPI   C1622051   0.689   1.812   4.942 -0.5118  0.0686 -0.2431
  191SAPI    H622052   0.669   1.897   4.874  0.3388  0.9032  0.5216
  191SAPI    O622053   0.583   1.823   5.036  0.5028 -0.8508  0.2924
  191SAPI   HO622054   0.583   1.745   5.092 -1.6468 -1.3541 -0.3282
  191SAPI   C1122055   0.825   1.822   4.998 -0.5615 -0.4089  0.0334
  191SAPI    H122056   0.829   1.737   5.069 -0.5581  2.4276  3.7527
  191SAPI     P22057   0.937   1.951   5.208  0.1509 -0.1184  0.1438
  191SAPI   O1322058   1.056   2.034   5.176  0.2705  0.1511  0.2631
  191SAPI   O1422059   0.965   1.813   5.249 -0.4064  0.2078  0.3378
  191SAPI   O1222060   0.856   1.949   5.063  0.2426  0.4341 -0.4714
  191SAPI   O1122061   0.832   2.025   5.304  0.2066  0.1700  0.2805
  191SAPI    C122062   0.701   1.969   5.336 -0.3599  0.6578 -0.0091
  191SAPI    HA22063   0.619   2.039   5.309 -2.1951 -2.1086 -2.3341
  191SAPI    HB22064   0.674   1.883   5.270 -3.2818 -0.8189  2.8053
  191SAPI    C222065   0.684   1.922   5.486  0.0690  0.1574  0.2647
  191SAPI    HS22066   0.577   1.904   5.510  0.3202 -0.8512  0.6767
  191SAPI   O2122067   0.759   2.017   5.567 -0.0502 -0.1136  0.5145
  191SAPI   C2122068   0.689   2.116   5.609  0.4582 -0.5356 -0.0594
  191SAPI   O2222069   0.577   2.148   5.575 -0.7674  0.1083 -0.3021
  191SAPI   C2222070   0.763   2.174   5.728  0.4692  0.3484 -0.6971
  191SAPI   H2R22071   0.870   2.164   5.702  0.4780 -1.4443 -0.0863
  191SAPI   H2S22072   0.739   2.283   5.727  0.5696  0.3697 -1.5714
  191SAPI    C322073   0.760   1.794   5.510  0.0067  0.5206 -0.6304
  191SAPI    HX22074   0.864   1.826   5.486 -0.2833  2.7868  0.8726
  191SAPI    HY22075   0.724   1.707   5.450 -1.6824  0.3640  0.5571
  191SAPI   O3122076   0.757   1.762   5.652 -0.1974  0.2854  0.4089
  191SAPI   C3122077   0.647   1.696   5.696 -0.9412  0.6777  0.0537
  191SAPI   O3222078   0.557   1.672   5.622  0.2806  1.4484  0.5178
  191SAPI   C3222079   0.656   1.666   5.845  0.2103  0.3100  0.9089
  191SAPI   H2X22080   0.605   1.753   5.890 -0.7534  1.5507 -2.3212
  191SAPI   H2Y22081   0.763   1.656   5.873  0.5544 -0.0693 -0.4536
  191SAPI   C2322082   0.747   2.104   5.862 -0.0686  0.5684  0.3197
  191SAPI   H3R22083   0.811   2.150   5.940  2.8098  0.4858 -1.8370
  191SAPI   H3S22084   0.776   1.997   5.861 -1.0651  0.2687  1.2397
  191SAPI   C2422085   0.599   2.089   5.907 -0.1657  0.3571 -0.0041
  191SAPI   H4R22086   0.600   2.003   5.977 -1.3597 -0.9667 -1.5262
  191SAPI   H4S22087   0.533   2.046   5.828 -1.2918 -0.0492  1.1285
  191SAPI   C2522088   0.539   2.215   5.948 -0.0062 -0.0115  0.3631
  191SAPI   H5R22089   0.506   2.280   5.866  0.2719 -1.7282 -1.1724
  191SAPI   C2622090   0.533   2.262   6.070  0.6597  0.1366 -0.3934
  191SAPI   H6R22091   0.485   2.358   6.092 -2.1844 -1.1912 -0.2500
  191SAPI   C2722092   0.581   2.184   6.195  0.7716 -0.7605  0.1150
  191SAPI   H7R22093   0.624   2.088   6.160 -0.6278 -1.4401  0.1819
  191SAPI   H7S22094   0.484   2.177   6.248 -1.4839  3.0674 -2.9112
  191SAPI   C2822095   0.688   2.272   6.262 -0.4406  0.5340  0.2377
  191SAPI   H8R22096   0.758   2.324   6.194  1.1189 -0.0754  1.3179
  191SAPI   C2922097   0.718   2.287   6.396 -0.2297  0.2437  0.2639
  191SAPI   H9R22098   0.793   2.362   6.424  0.5995  0.0584 -1.3506
  191SAPI  C21022099   0.631   2.223   6.504  0.4697  0.2586 -0.0691
  191SAPI  H10R22100   0.709   2.190   6.576  2.8222  2.9611 -1.1704
  191SAPI  H10S22101   0.587   2.130   6.463  0.4644  1.8756 -4.2481
  191SAPI  C21122102   0.525   2.316   6.559  0.6315 -0.6541 -0.9402
  191SAPI  H11R22103   0.459   2.355   6.481  1.5764  0.4974 -1.1947
  191SAPI  C21222104   0.510   2.365   6.685  0.5122 -0.1597 -0.4995
  191SAPI  H12R22105   0.420   2.424   6.706 -0.6753 -1.6098 -1.3508
  191SAPI  C21322106   0.596   2.330   6.803  0.0486 -0.0396 -0.2088
  191SAPI  H13R22107   0.675   2.257   6.774  0.1786  0.8755 -2.3442
  191SAPI  H13S22108   0.532   2.275   6.875  1.2147 -0.0066  0.8913
  191SAPI  C21422109   0.659   2.449   6.868  0.0747  0.0861 -0.0889
  191SAPI  H14R22110   0.682   2.538   6.808  0.2099  0.1184  0.0092
  191SAPI  C21522111   0.712   2.459   6.990 -0.3441  0.5119 -0.7463
  191SAPI  H15R22112   0.749   2.555   7.027  0.9409  1.8897 -5.0771
  191SAPI  C21622113   0.704   2.350   7.095 -0.4604  0.0214 -0.4745
  191SAPI  H16R22114   0.735   2.255   7.046  0.5187 -1.4743  2.8139
  191SAPI  H16S22115   0.598   2.362   7.124 -0.1898  1.3493  0.0461
  191SAPI  C21722116   0.792   2.364   7.216 -0.5181  0.3284 -0.9703
  191SAPI  H17R22117   0.898   2.377   7.187  0.3472 -0.9035  1.3629
  191SAPI  H17S22118   0.789   2.272   7.279 -0.8579  1.4240  0.6915
  191SAPI  C21822119   0.754   2.488   7.307  0.3669  0.5660 -0.1578
  191SAPI  H18R22120   0.769   2.587   7.260  1.3450  0.1126 -0.8359
  191SAPI  H18S22121   0.826   2.496   7.392  0.0200  0.3161  0.1657
  191SAPI  C21922122   0.605   2.483   7.369 -0.3064 -0.0561  0.1668
  191SAPI  H19R22123   0.576   2.376   7.372 -1.5004  0.2350 -0.2426
  191SAPI  H19S22124   0.530   2.521   7.296  0.3228  0.0525 -0.4302
  191SAPI  C22022125   0.592   2.548   7.510  0.3074  0.5196 -0.2519
  191SAPI  H20R22126   0.482   2.556   7.529 -0.1129  0.1294 -2.2338
  191SAPI  H20S22127   0.638   2.649   7.517 -0.2408  0.7238  0.5503
  191SAPI  H20T22128   0.628   2.480   7.590 -1.8216 -1.7960 -1.0953
  191SAPI   C3322129   0.602   1.523   5.890  0.7432 -0.1903 -0.5807
  191SAPI   H3X22130   0.664   1.442   5.846  0.9486 -0.2276 -0.2204
  191SAPI   H3Y22131   0.505   1.502   5.839  0.1674  1.3875 -0.1990
  191SAPI   C3422132   0.592   1.488   6.045 -0.5810  0.0390 -0.7013
  191SAPI   H4X22133   0.506   1.552   6.072  0.2660  1.7715 -1.9234
  191SAPI   H4Y22134   0.687   1.526   6.088 -0.5196 -1.5882  0.6817
  191SAPI   C3522135   0.589   1.343   6.080 -0.4846 -0.2995  0.5767
  191SAPI   H5X22136   0.690   1.302   6.061 -0.5714 -0.8301  1.2246
  191SAPI   H5Y22137   0.508   1.299   6.018 -0.8888  0.0825  0.8299
  191SAPI   C3622138   0.563   1.327   6.226 -0.0354  0.5566 -0.2576
  191SAPI   H6X22139   0.640   1.382   6.284 -0.4730  0.2497  0.6305
  191SAPI   H6Y22140   0.558   1.219   6.250 -2.2606  0.9591  1.3091
  191SAPI   C3722141   0.424   1.384   6.267  0.8535 -0.0818  0.4722
  191SAPI   H7X22142   0.342   1.338   6.207 -0.3242  1.1928  1.0689
  191SAPI   H7Y22143   0.417   1.490   6.236 -1.5251 -0.1257  0.6801
  191SAPI   C3822144   0.389   1.373   6.412 -0.0573 -0.1500  0.3713
  191SAPI   H8X22145   0.478   1.416   6.464  0.9757 -0.2006 -1.2754
  191SAPI   H8Y22146   0.372   1.268   6.443 -0.0095 -0.1482  0.4040
  191SAPI   C3922147   0.265   1.454   6.457  0.0208 -0.2136  0.1880
  191SAPI   H9X22148   0.181   1.381   6.452  0.8034 -1.0367 -3.4722
  191SAPI   H9Y22149   0.246   1.532   6.381  1.0116 -1.0552 -0.9612
  191SAPI  C31022150   0.271   1.529   6.595  0.1074  0.8524  0.6949
  191SAPI  H10X22151   0.202   1.615   6.581  0.4394  0.6929 -2.7423
  191SAPI  H10Y22152   0.373   1.559   6.626  1.5908 -1.8020 -1.2494
  191SAPI  C31122153   0.221   1.442   6.714 -0.7033 -0.1949  0.0900
  191SAPI  H11X22154   0.306   1.375   6.738  0.6046  1.9690  1.9544
  191SAPI  H11Y22155   0.134   1.379   6.686  0.2308 -1.2061 -0.6170
  191SAPI  C31222156   0.215   1.529   6.843  0.3749  0.1581 -1.1482
  191SAPI  H12X22157   0.129   1.599   6.840  0.5934  0.4252 -1.2079
  191SAPI  H12Y22158   0.299   1.599   6.863  0.7657 -0.1736 -1.6025
  191SAPI  C31322159   0.196   1.438   6.966  0.6499 -0.5166  0.1168
  191SAPI  H13X22160   0.281   1.369   6.984  0.3982 -0.7541  0.4089
  191SAPI  H13Y22161   0.104   1.380   6.944 -0.2654  0.7085  0.6176
  191SAPI  C31422162   0.201   1.522   7.099  0.4548 -0.0178  0.1576
  191SAPI  H14X22163   0.140   1.613   7.085  0.4141  0.0142  0.5235
  191SAPI  H14Y22164   0.304   1.561   7.112  0.1027  0.3771  2.0782
  191SAPI  C31522165   0.136   1.458   7.229  0.2719  0.4421  0.1567
  191SAPI  H15X22166   0.201   1.372   7.253  3.4171  2.3429 -0.8605
  191SAPI  H15Y22167   0.032   1.428   7.204  0.6899 -0.8823 -0.0799
  191SAPI  C31622168   0.126   1.564   7.340  0.5475 -0.5993  0.1483
  191SAPI  H16X22169   0.080   1.654   7.294  1.1383  0.0916  0.8861
  191SAPI  H16Y22170   0.220   1.573   7.398  1.3097 -0.4437 -1.0809
  191SAPI  C31722171   0.035   1.508   7.443 -0.4632 -0.9630  0.6493
  191SAPI  H17X22172  -0.060   1.486   7.389 -1.2842 -1.0674  2.0781
  191SAPI  H17Y22173  -0.001   1.591   7.508 -2.1555 -1.5314  0.4802
  191SAPI  C31822174   0.103   1.393   7.523 -0.5565 -0.2957  0.0871
  191SAPI  H18X22175   0.100   1.305   7.455  0.6330  0.9869 -1.7343
  191SAPI  H18Y22176   0.040   1.371   7.611 -2.3936 -0.4042 -1.1927
  191SAPI  H18Z22177   0.204   1.422   7.558 -0.6665  3.5015 -2.1261
  192SAPI   C1222178   2.870   2.977   4.766  0.7851 -0.4584  0.1696
  192SAPI    H222179   2.886   3.052   4.847  2.2000 -3.2012  2.6102
  192SAPI    O222180   2.851   2.853   4.830 -0.1816  0.0367  0.6871
  192SAPI   HO222181   2.917   2.840   4.898  0.8305 -0.1310 -0.2975
  192SAPI   C1322182   2.741   3.031   4.697 -0.0143  0.2725 -0.6348
  192SAPI    H322183   2.754   3.131   4.650  1.5741 -0.3722 -1.6704
  192SAPI    O322184   2.636   3.043   4.793 -0.2067  0.0677 -0.0022
  192SAPI   HO322185   2.609   2.957   4.824  1.2685 -0.5086 -0.2064
  192SAPI   C1422186   2.706   2.939   4.582 -0.5670 -0.0589 -0.0986
  192SAPI    H422187   2.676   2.849   4.639 -0.0096 -0.6861 -0.7749
  192SAPI    O422188   2.595   2.985   4.500 -0.3200 -0.0912 -0.1769
  192SAPI   HO422189   2.527   2.918   4.509  0.7753 -1.4067 -1.3329
  192SAPI   C1522190   2.823   2.891   4.498  0.5493 -0.4983  0.0973
  192SAPI    H522191   2.823   2.971   4.421 -1.3259  2.6329  3.0234
  192SAPI    O522192   2.789   2.765   4.440  0.2152 -0.4522  0.0391
  192SAPI   HO522193   2.744   2.773   4.356  1.6353 -1.5035 -0.8885
  192SAPI   C1622194   2.967   2.894   4.560 -0.1152 -0.0361 -0.6112
  192SAPI    H622195   2.990   2.798   4.610  1.3263 -0.0682 -1.3014
  192SAPI    O622196   3.066   2.910   4.462  0.5462 -0.2141  0.0939
  192SAPI   HO622197   3.146   2.947   4.502  1.2084 -1.4668  0.0109
  192SAPI   C1122198   2.989   2.988   4.677  0.8488  0.4027  0.0480
  192SAPI    H122199   2.993   3.086   4.626  0.3087  0.4127  0.0192
  192SAPI     P22200   3.169   3.053   4.862  0.2638 -0.3619 -0.0237
  192SAPI   O1322201   3.126   3.193   4.861  0.0329 -0.5560 -0.2949
  192SAPI   O1422202   3.312   3.020   4.859  0.3079 -0.1913 -0.2673
  192SAPI   O1222203   3.104   2.957   4.748  0.2929 -0.5267  0.5553
  192SAPI   O1122204   3.107   2.983   4.985 -0.0117 -0.5245 -0.4745
  192SAPI    C122205   3.168   3.009   5.113 -0.3622  0.0150  0.2229
  192SAPI    HA22206   3.267   2.960   5.119 -0.4947 -0.1361  1.4028
  192SAPI    HB22207   3.189   3.116   5.136 -0.8921 -0.3313  2.6271
  192SAPI    C222208   3.086   2.949   5.230 -0.2581  0.0039 -0.2317
  192SAPI    HS22209   3.141   2.980   5.321  0.3453  0.9872 -0.9054
  192SAPI   O2122210   3.072   2.804   5.222  0.0251 -0.2282 -0.6750
  192SAPI   C2122211   3.177   2.745   5.265  0.0006 -0.3855  0.6998
  192SAPI   O2222212   3.285   2.797   5.290  0.0572  0.1510  0.3582
  192SAPI   C2222213   3.143   2.601   5.286 -0.5072 -0.5438 -0.5788
  192SAPI   H2R22214   3.068   2.573   5.209 -2.1887 -1.0664  1.1736
  192SAPI   H2S22215   3.235   2.542   5.266 -0.0382  0.3829 -1.1785
  192SAPI    C322216   2.947   3.013   5.238 -0.0120  0.6133 -0.7147
  192SAPI    HX22217   2.896   2.967   5.150 -0.0015  0.5633 -0.6944
  192SAPI    HY22218   2.957   3.123   5.226  1.6255  0.6624  0.7699
  192SAPI   O3122219   2.886   2.979   5.365 -0.0975  0.4275 -0.7452
  192SAPI   C3122220   2.762   3.026   5.371  0.2115  0.0867 -0.3218
  192SAPI   O3222221   2.707   3.108   5.298  0.6497  0.7665  0.1322
  192SAPI   C3222222   2.702   2.976   5.506  0.5204 -0.1608 -0.1757
  192SAPI   H2X22223   2.597   2.982   5.470  0.0973  1.5090  1.2238
  192SAPI   H2Y22224   2.714   3.041   5.595  0.0070 -3.1883  2.3174
  192SAPI   C2322225   3.068   2.574   5.415 -0.1882  0.5056 -0.3124
  192SAPI   H3R22226   3.035   2.468   5.405 -0.7415  0.3350  2.5396
  192SAPI   H3S22227   2.972   2.630   5.425 -0.5867 -0.3134  0.6378
  192SAPI   C2422228   3.156   2.589   5.537  0.1536 -0.0124 -0.6469
  192SAPI   H4R22229   3.201   2.690   5.535  0.1714  0.0336  0.8686
  192SAPI   H4S22230   3.247   2.526   5.529 -0.7863 -1.3344 -1.4712
  192SAPI   C2522231   3.077   2.569   5.666 -0.0191  0.2559 -0.0760
  192SAPI   H5R22232   3.011   2.482   5.650  0.4514  0.1745 -1.7526
  192SAPI   C2622233   3.064   2.646   5.780 -0.0666  0.0622 -0.2887
  192SAPI   H6R22234   3.003   2.610   5.865 -0.5993 -1.9867 -1.4785
  192SAPI   C2722235   3.124   2.781   5.801 -0.9138 -0.9166  0.1171
  192SAPI   H7R22236   3.082   2.824   5.894 -0.3623 -1.6028  0.6878
  192SAPI   H7S22237   3.085   2.835   5.712  1.2380 -0.1999 -0.4619
  192SAPI   C2822238   3.273   2.794   5.802  0.6001 -0.0555  0.3760
  192SAPI   H8R22239   3.320   2.798   5.703 -0.6161  1.2576 -0.1681
  192SAPI   C2922240   3.357   2.811   5.907  0.1460 -0.2666 -1.3561
  192SAPI   H9R22241   3.465   2.807   5.888  0.3867 -0.6885 -0.0169
  192SAPI  C21022242   3.312   2.816   6.050 -1.0813  0.0891  0.0492
  192SAPI  H10R22243   3.288   2.709   6.068  2.2434 -0.4738  1.9945
  192SAPI  H10S22244   3.223   2.879   6.068 -1.2617 -1.0616  4.3481
  192SAPI  C21122245   3.430   2.863   6.133  0.2104 -0.3450 -0.2780
  192SAPI  H11R22246   3.524   2.899   6.088  0.8898 -2.0921 -0.3202
  192SAPI  C21222247   3.433   2.853   6.264  0.7676 -0.0890 -0.2495
  192SAPI  H12R22248   3.524   2.890   6.313  0.3463  0.0679  0.4351
  192SAPI  C21322249   3.329   2.791   6.357 -0.2311 -0.0741 -0.1604
  192SAPI  H13R22250   3.374   2.701   6.406 -0.1915  1.0116  1.9275
  192SAPI  H13S22251   3.247   2.753   6.293  0.0644 -0.2289 -0.4467
  192SAPI  C21422252   3.275   2.900   6.444  1.0713  0.3498  0.5547
  192SAPI  H14R22253   3.259   2.995   6.391  3.7037  1.1927  1.0962
  192SAPI  C21522254   3.265   2.897   6.577 -0.2493  0.4155  0.3087
  192SAPI  H15R22255   3.227   2.987   6.627  2.5910  0.4147  2.7406
  192SAPI  C21622256   3.328   2.796   6.674  0.2983  0.1012  0.3612
  192SAPI  H16R22257   3.435   2.827   6.666  0.0083  0.6455 -2.2443
  192SAPI  H16S22258   3.326   2.693   6.633  1.2041  0.0310  0.4684
  192SAPI  C21722259   3.262   2.792   6.813  0.2203  0.3052  0.8337
  192SAPI  H17R22260   3.157   2.755   6.806  0.2402 -0.1772  2.6257
  192SAPI  H17S22261   3.251   2.893   6.859 -0.4170 -0.8205  3.3277
  192SAPI  C21822262   3.353   2.706   6.917 -0.5139  0.1328 -0.4237
  192SAPI  H18R22263   3.421   2.775   6.971 -0.1644  0.4176 -1.2129
  192SAPI  H18S22264   3.410   2.627   6.862 -0.4935  0.7151 -1.2601
  192SAPI  C21922265   3.267   2.645   7.023  0.3077  0.6006  0.3997
  192SAPI  H19R22266   3.198   2.576   6.970 -0.3463  0.3587  1.5175
  192SAPI  H19S22267   3.199   2.721   7.069 -1.8589 -0.6008 -0.6537
  192SAPI  C22022268   3.345   2.562   7.119  0.0979  0.5798 -0.2852
  192SAPI  H20R22269   3.415   2.490   7.073  0.7570  0.7760  0.3814
  192SAPI  H20S22270   3.268   2.507   7.178  1.1436  0.4541  0.9924
  192SAPI  H20T22271   3.413   2.622   7.183  2.0371 -2.2458  0.4815
  192SAPI   C3322272   2.742   2.832   5.538 -0.6249 -0.6559 -0.2902
  192SAPI   H3X22273   2.845   2.839   5.577  0.1563  1.3214 -2.4511
  192SAPI   H3Y22274   2.748   2.764   5.450  0.0589 -0.4216 -0.4282
  192SAPI   C3422275   2.651   2.767   5.640 -0.2347  0.0322 -0.1467
  192SAPI   H4X22276   2.692   2.675   5.687  2.0537  3.1438  4.7895
  192SAPI   H4Y22277   2.552   2.749   5.593  0.1575 -0.5896 -0.7543
  192SAPI   C3522278   2.634   2.853   5.760 -0.1838  0.3416 -0.0201
  192SAPI   H5X22279   2.568   2.935   5.726 -3.0552 -1.4943  0.7732
  192SAPI   H5Y22280   2.732   2.889   5.798 -1.6452  2.8106  1.6681
  192SAPI   C3622281   2.573   2.773   5.881  0.1419  0.4497  0.5132
  192SAPI   H6X22282   2.589   2.828   5.976 -2.2687 -0.1133  1.3262
  192SAPI   H6Y22283   2.609   2.670   5.898  0.5964  0.6248  0.6277
  192SAPI   C3722284   2.421   2.765   5.864  0.5453  0.0967  0.3068
  192SAPI   H7X22285   2.391   2.750   5.758 -1.5082  0.7100  0.7552
  192SAPI   H7Y22286   2.384   2.867   5.890  0.1634 -0.3763  1.7398
  192SAPI   C3822287   2.354   2.659   5.951 -0.0622  0.5913 -1.0978
  192SAPI   H8X22288   2.392   2.559   5.924  1.1003  0.0298  2.1667
  192SAPI   H8Y22289   2.245   2.646   5.937 -0.2717 -2.2818  2.0132
  192SAPI   C3922290   2.372   2.688   6.099 -0.1583 -0.1744 -0.1390
  192SAPI   H9X22291   2.344   2.792   6.129  1.3291 -0.1551  1.3055
  192SAPI   H9Y22292   2.478   2.677   6.128  0.1284  0.2037 -1.0315
  192SAPI  C31022293   2.287   2.589   6.194  0.0471 -0.0617  0.3851
  192SAPI  H10X22294   2.331   2.488   6.181  2.7233  0.9393  1.0211
  192SAPI  H10Y22295   2.181   2.586   6.161 -0.3608  0.9864  1.5114
  192SAPI  C31122296   2.294   2.634   6.341  0.2904 -1.0399 -0.5290
  192SAPI  H11X22297   2.262   2.739   6.355  1.8066 -0.6816  0.5486
  192SAPI  H11Y22298   2.398   2.628   6.382 -0.4106 -0.6601  1.4309
  192SAPI  C31222299   2.227   2.551   6.451  0.4463  0.3991  0.5338
  192SAPI  H12X22300   2.269   2.452   6.422  1.5252  1.1576 -0.5433
  192SAPI  H12Y22301   2.117   2.559   6.437  0.2253 -1.0098  1.2633
  192SAPI  C31322302   2.271   2.595   6.593 -0.5473  0.3321 -0.3094
  192SAPI  H13X22303   2.230   2.697   6.609 -0.7482  0.1950  0.0562
  192SAPI  H13Y22304   2.381   2.591   6.605 -0.2019  2.2474 -2.2096
  192SAPI  C31422305   2.209   2.504   6.702  0.2349  0.1872 -0.4034
  192SAPI  H14X22306   2.264   2.408   6.690  0.5373 -0.0204  2.2043
  192SAPI  H14Y22307   2.099   2.494   6.692  0.2616 -0.6686  0.0740
  192SAPI  C31522308   2.241   2.566   6.840  0.0147 -0.3351  0.3522
  192SAPI  H15X22309   2.197   2.668   6.850 -0.2029 -0.1348 -2.0099
  192SAPI  H15Y22310   2.348   2.581   6.866 -0.0878 -0.8373  1.0986
  192SAPI  C31622311   2.186   2.478   6.955  1.2325  0.6630 -0.5970
  192SAPI  H16X22312   2.239   2.381   6.948 -0.3528 -0.2926 -0.0934
  192SAPI  H16Y22313   2.081   2.448   6.933  1.1370 -1.8220  2.5585
  192SAPI  C31722314   2.206   2.539   7.097  0.3280  0.2499 -1.1670
  192SAPI  H17X22315   2.181   2.462   7.172  0.1347  1.3289 -0.0919
  192SAPI  H17Y22316   2.126   2.616   7.096 -0.4417 -0.4568 -3.7142
  192SAPI  C31822317   2.346   2.607   7.124  0.2798 -0.1235  0.1796
  192SAPI  H18X22318   2.422   2.526   7.115  1.5057  1.2259 -2.7273
  192SAPI  H18Y22319   2.351   2.644   7.229 -1.2311 -0.3901  0.3648
  192SAPI  H18Z22320   2.380   2.684   7.052  2.1670 -1.1367 -0.0746
  193SOD    SOD22321   1.836   4.890   5.009  0.3512  0.4959 -0.1311
  194SOD    SOD22322   5.766   2.642   4.053 -0.0492  0.5086 -0.0045
  195SOD    SOD22323   2.890   3.854   1.916  0.0398  0.3762 -0.5986
  196SOD    SOD22324   3.241   3.737   0.143 -0.0812  0.0005  0.1260
  197SOD    SOD22325   6.163   1.797   2.030  0.1314  0.2242 -0.2652
  198SOD    SOD22326   2.419   1.563   4.779 -0.5004  0.0519 -0.4485
  199SOD    SOD22327   6.011   6.755   1.357 -0.2053  0.0502  0.7834
  200SOD    SOD22328   3.631   4.459   2.121  0.3060  0.1663 -0.1664
  201SOD    SOD22329   0.649   3.836   1.012  0.0914  0.5764 -0.0165
  202SOD    SOD22330   1.178   4.248   0.662  0.1346  0.0927  0.2888
  203SOD    SOD22331   5.972   1.535   5.546 -0.2459 -0.0836  0.7119
  204SOD    SOD22332   0.211   1.644   3.687 -0.2487  0.0375  0.2411
  205SOD    SOD22333   5.850   2.809   1.520  0.3233 -0.3465  0.0906
  206SOD    SOD22334   5.763   1.674   4.791  0.3625  0.0172 -0.1220
  207SOD    SOD22335   3.121   0.907   2.098 -0.4061  0.8223 -0.5849
  208SOD    SOD22336   0.416   5.865   1.997 -0.0317 -0.6109  0.3864
  209SOD    SOD22337   4.567   4.675   4.404  0.2494  0.0590  0.0690
  210SOD    SOD22338   3.002   2.524   3.280  0.5850  0.6055  0.0876
  211SOD    SOD22339   1.750   2.152   1.126  0.2165 -0.2899 -0.1473
  212SOD    SOD22340   3.451   1.710   0.949  0.3956 -0.0449  0.1240
  213SOD    SOD22341   2.239   0.522   1.196 -0.0223 -0.2496  0.5538
  214SOD    SOD22342   2.273   3.671   0.453 -0.2284 -0.4242  0.0114
  215SOD    SOD22343   2.819   6.272   4.862 -0.4465  0.2055  0.1164
  216SOD    SOD22344   3.741   5.638   4.842  0.0266 -0.4222  0.4558
  217SOD    SOD22345   2.562   1.691   3.571  0.1187  0.1701 -1.0211
  218SOD    SOD22346   3.673   1.523   4.809 -0.0456 -0.1537 -0.1376
  219SOD    SOD22347   5.838   3.174   4.854 -0.1506  0.2796  0.1176
  220SOD    SOD22348   3.755   1.703   4.269 -0.5903 -0.9027  0.0183
  221SOD    SOD22349   0.851   6.332   0.466 -0.1206  0.0403 -0.6339
  222SOD    SOD22350   0.881   6.588   3.244 -0.1524 -0.2157 -0.4611
  223SOD    SOD22351   1.717   4.208   5.015  0.3958  0.0780 -0.1852
  224SOD    SOD22352   3.478   0.356   2.182 -0.2502  0.2189  0.1157
  225SOD    SOD22353   1.505   4.300   4.760 -0.0585  0.3403  0.0720
  226SOD    SOD22354   2.783   4.327   1.256  0.3696 -0.2084  0.1616
  227SOD    SOD22355   4.882   4.157   2.622  0.1037 -0.4238  0.0024
  228SOD    SOD22356   5.590   6.071   1.935  0.4113  0.4570  0.0446
  229SOD    SOD22357   6.669   0.947   0.881  0.4496 -0.1705 -0.2522
  230CLA    CLA22358   1.389   2.831   4.436 -0.1838 -0.4220 -0.1550
  231CLA    CLA22359   4.684   0.155   4.138 -0.1547  0.2363  0.1140
  232CLA    CLA22360   3.669   1.468   3.434 -0.2862 -0.1494 -0.1567
  233CLA    CLA22361   4.258   5.169   3.909 -0.1081 -0.5989  0.1384
  234CLA    CLA22362   6.519   1.128   3.351 -0.2372  0.3363 -0.4300
  235CLA    CLA22363   4.962   6.523   1.971  0.2378 -0.1720  0.3361
  236CLA    CLA22364   3.532   4.539   4.163  0.0117  0.2322  0.1381
  237CLA    CLA22365   1.993   5.431   2.898  0.1653 -0.1294  0.0537
  238CLA    CLA22366   3.518   4.066   4.095 -0.0206  0.1626 -0.1934
  239CLA    CLA22367   2.699   1.054   4.174 -0.3870 -0.2098  0.1528
  240CLA    CLA22368   5.451   5.446   3.791 -0.1749 -0.0586  0.5133
  241CLA    CLA22369   4.922   1.623   2.735 -0.0267  0.2456  0.1255
  242CLA    CLA22370   2.845   5.999   4.825  0.0319  0.2662 -0.2308
  243CLA    CLA22371   0.744   4.888   4.450  0.2939  0.2508  0.0678
  244CLA    CLA22372   6.291   3.123   3.779  0.2617 -0.2873  0.0386
  245CLA    CLA22373   3.284   0.635   1.570 -0.0273 -0.0032  0.1583
  246CLA    CLA22374   6.427   5.820   1.758 -0.2461  0.3100 -0.1425
  247TIP3   OH222375   4.009   3.796   3.513  0.2801  0.1095 -0.5311
  247TIP3    H122376   3.965   3.719   3.550 -0.0884 -0.2301 -1.6399
  247TIP3    H222377   4.100   3.786   3.539  0.1314 -0.3993 -0.1823
  248TIP3   OH222378   0.083   0.421   2.780  0.6759 -0.2136  0.6979
  248TIP3    H122379   0.120   0.507   2.760 -0.6345  0.1375 -0.3520
  248TIP3    H222380  -0.006   0.424   2.744  1.1191 -2.5650 -0.7587
  249TIP3   OH222381   6.080   2.970   3.938  0.3123  0.0608  0.1828
  249TIP3    H122382   6.048   2.889   3.899 -0.4447  0.0717  0.7601
  249TIP3    H222383   6.158   2.992   3.887 -0.4669 -0.0796 -1.1067
  250TIP3   OH222384   5.108   0.141   2.499  0.3503  0.1611 -0.1467
  250TIP3    H122385   5.144   0.056   2.477  0.1841  0.1897 -0.5426
  250TIP3    H222386   5.124   0.195   2.422 -1.9093 -0.2503 -0.9812
  251TIP3   OH222387   0.502   1.559   0.428 -0.9349 -0.1239 -0.1868
  251TIP3    H122388   0.486   1.506   0.350  0.0811  0.3569 -0.7322
  251TIP3    H222389   0.588   1.532   0.459 -0.1881  1.4922 -0.7411
  252TIP3   OH222390   3.303   0.231   3.332 -0.1738 -0.4920  0.0711
  252TIP3    H122391   3.388   0.187   3.340  0.7762  1.4003  1.1258
  252TIP3    H222392   3.271   0.239   3.422 -2.1056 -2.2337 -0.3864
  253TIP3   OH222393   1.879   5.769   1.474 -0.0911  0.0935  0.4819
  253TIP3    H122394   1.885   5.772   1.570  0.4438 -2.3605  0.5945
  253TIP3    H222395   1.785   5.767   1.457 -0.2087  1.2031  0.8779
  254TIP3   OH222396   6.251   3.001   2.122  1.0705  0.0549  0.2389
  254TIP3    H122397   6.286   2.970   2.206 -0.2092  0.3752  0.9158
  254TIP3    H222398   6.163   3.033   2.143  1.0035  0.8212 -1.0993
  255TIP3   OH222399   3.108   0.542   4.621 -0.3763 -0.4238 -0.2435
  255TIP3    H122400   3.086   0.502   4.705 -1.1699  0.2436 -0.1254
  255TIP3    H222401   3.093   0.635   4.633  0.7567 -0.1500 -0.7419
  256TIP3   OH222402   6.689   3.105   1.983 -0.0793  0.2103  0.1349
  256TIP3    H122403   6.748   3.164   2.029  1.4085  0.9482 -2.5501
  256TIP3    H222404   6.746   3.043   1.939 -1.4252 -0.5065 -0.6740
  257TIP3   OH222405   6.441   6.487   4.758 -0.0109  0.1776  0.2320
  257TIP3    H122406   6.464   6.531   4.840  2.5608 -0.8528  0.1650
  257TIP3    H222407   6.352   6.455   4.772  0.0520  0.7760  2.3117
  258TIP3   OH222408   2.728   4.987   2.810 -0.1175 -0.1382 -0.5820
  258TIP3    H122409   2.800   5.018   2.754  1.3819 -0.3573  1.1164
  258TIP3    H222410   2.768   4.918   2.864 -1.8020 -0.7353 -0.0484
  259TIP3   OH222411   4.676   0.969   1.906 -0.2538 -0.5839 -0.2249
  259TIP3    H122412   4.743   1.022   1.863 -2.6402  1.9654 -1.0909
  259TIP3    H222413   4.701   0.971   1.999  0.0768  1.6594 -0.2992
  260TIP3   OH222414   4.130   3.396   4.548 -0.2803 -0.1636  0.2656
  260TIP3    H122415   4.091   3.322   4.595 -2.2874 -0.4649 -1.7335
  260TIP3    H222416   4.090   3.473   4.588  0.4714 -0.2114  1.1545
  261TIP3   OH222417   0.540   2.953   5.567  0.1544 -0.3724 -0.0326
  261TIP3    H122418   0.613   2.896   5.592 -0.5420 -0.7349  1.3091
  261TIP3    H222419   0.485   2.898   5.511  0.4786 -0.3747 -0.3510
  262TIP3   OH222420   4.673   6.381   0.702  0.1190 -0.9830  0.1674
  262TIP3    H122421   4.703   6.333   0.625  2.5570 -2.4145  1.8822
  262TIP3    H222422   4.579   6.363   0.706  0.1875 -2.0038 -1.6577
  263TIP3   OH222423   0.279   3.712   5.112  0.1446  0.1620  0.0768
  263TIP3    H122424   0.287   3.799   5.073 -0.4643 -0.0498 -0.5452
  263TIP3    H222425   0.241   3.659   5.043  0.6875 -0.6516  0.3904
  264TIP3   OH222426   6.306   4.180   4.620  0.3120 -0.0810  0.4804
  264TIP3    H122427   6.323   4.086   4.623  1.2591  0.1107  2.2479
  264TIP3    H222428   6.392   4.220   4.632 -0.3693  0.9866  2.0405
  265TIP3   OH222429   5.427   2.089   4.056 -0.0762  0.7788 -0.0459
  265TIP3    H122430   5.350   2.126   4.012 -0.1799 -1.6467 -2.0824
  265TIP3    H222431   5.394   2.058   4.140 -0.8069  1.7876  0.0574
  266TIP3   OH222432   3.980   5.193   0.414 -0.2862  0.1271 -0.0683
  266TIP3    H122433   3.946   5.248   0.484 -0.1381 -0.1959  0.2636
  266TIP3    H222434   3.959   5.104   0.441  0.8310 -0.0849  0.1598
  267TIP3   OH222435   1.032   6.097   3.911  1.0755  0.0253  0.0778
  267TIP3    H122436   1.095   6.165   3.935  2.0024 -0.3996 -1.0609
  267TIP3    H222437   1.079   6.015   3.925  0.7208 -0.2997 -0.5980
  268TIP3   OH222438   6.320   2.182   4.383  0.8284 -0.5659  0.3148
  268TIP3    H122439   6.362   2.146   4.304  0.8934 -0.0172  0.0874
  268TIP3    H222440   6.292   2.106   4.433  1.3415 -0.9315  0.0540
  269TIP3   OH222441   3.901   0.528   4.788 -0.5522 -0.3925  0.3283
  269TIP3    H122442   3.902   0.433   4.799  0.2561 -0.2536  1.6208
  269TIP3    H222443   3.869   0.561   4.872 -0.6926  0.4934 -0.0685
  270TIP3   OH222444   4.186   0.438   4.762  0.1898 -0.4562  0.2263
  270TIP3    H122445   4.133   0.513   4.736  0.9189 -0.1014 -0.2580
  270TIP3    H222446   4.123   0.377   4.800 -0.3170  0.6648  1.2408
  271TIP3   OH222447   6.109   2.102   3.533 -0.8014 -0.2716  0.6219
  271TIP3    H122448   6.023   2.093   3.575 -1.3169  0.2767 -0.2947
  271TIP3    H222449   6.171   2.105   3.606 -1.6118 -0.1075  1.3143
  272TIP3   OH222450   5.741   1.918   4.469 -0.1319 -0.2984  0.2589
  272TIP3    H122451   5.804   1.967   4.521 -0.0765  0.1346 -0.2066
  272TIP3    H222452   5.665   1.975   4.463  0.2807  0.1473 -1.0749
  273TIP3   OH222453   1.848   1.556   1.788  0.3394 -0.1429 -0.2608
  273TIP3    H122454   1.832   1.547   1.882  0.6785  0.6135 -0.1205
  273TIP3    H222455   1.915   1.623   1.782  1.2275 -1.0699 -0.9870
  274TIP3   OH222456   4.422   0.032   3.288 -0.0195 -0.7336 -0.0553
  274TIP3    H122457   4.363  -0.042   3.282 -0.2846 -0.4429 -1.7242
  274TIP3    H222458   4.392   0.092   3.220 -0.1157  1.1451  1.5462
  275TIP3   OH222459   4.691   6.130   1.013  0.4825 -0.0041 -0.4722
  275TIP3    H122460   4.671   6.120   0.920  0.0992  1.2133 -0.5375
  275TIP3    H222461   4.733   6.216   1.019 -1.3320  0.8338  0.7507
  276TIP3   OH222462   2.314   5.074   0.998 -0.7264 -0.0205  0.8064
  276TIP3    H122463   2.256   5.143   0.966 -1.1024  0.5082  2.5292
  276TIP3    H222464   2.395   5.119   1.021 -0.8893 -0.1602  1.7079
  277TIP3   OH222465   5.894   2.817   2.949 -0.0107  0.2200 -0.1615
  277TIP3    H122466   5.838   2.740   2.939 -2.6987  1.9918  0.2802
  277TIP3    H222467   5.871   2.874   2.876  1.9424  0.6489 -0.5060
  278TIP3   OH222468   2.625   2.711   0.145  0.2530  0.0340 -0.6998
  278TIP3    H122469   2.720   2.715   0.144  0.4757 -2.8087 -1.6137
  278TIP3    H222470   2.602   2.704   0.237  0.8447  1.5159 -0.4240
  279TIP3   OH222471   3.250   4.364   1.207  0.1736  0.2748 -0.0756
  279TIP3    H122472   3.285   4.453   1.205  2.1342 -0.4705 -0.3885
  279TIP3    H222473   3.165   4.371   1.162  0.2381  1.9893  0.0131
  280TIP3   OH222474   0.228   3.507   4.918 -0.6232  0.2503  0.3747
  280TIP3    H122475   0.147   3.456   4.922 -0.4544 -0.1927 -1.2531
  280TIP3    H222476   0.291   3.456   4.969 -1.0100 -0.0753  0.5325
  281TIP3   OH222477   4.769   3.671   2.704 -0.0515  0.2467  0.6716
  281TIP3    H122478   4.811   3.723   2.636 -0.6382  1.4761  1.2126
  281TIP3    H222479   4.784   3.580   2.678  3.8444  0.5157  1.3396
  282TIP3   OH222480   4.780   1.864   2.900 -0.5838  0.4404  0.1479
  282TIP3    H122481   4.826   1.809   2.836 -4.9792 -2.9320 -0.6681
  282TIP3    H222482   4.755   1.803   2.970 -0.1715  2.9870  2.6648
  283TIP3   OH222483   0.562   6.082   2.817  0.4114 -0.0239 -0.1075
  283TIP3    H122484   0.626   6.148   2.845  0.4741  0.7737 -1.9916
  283TIP3    H222485   0.504   6.072   2.893 -0.0887  2.8376 -0.0049
  284TIP3   OH222486   0.141   6.385   4.528  0.0583 -0.0614 -0.1367
  284TIP3    H122487   0.166   6.478   4.523  1.7551 -0.5241 -1.2994
  284TIP3    H222488   0.068   6.383   4.590  1.8244  1.6805  2.1823
  285TIP3   OH222489   6.587   6.759   3.833 -0.0782  0.0655 -0.2653
  285TIP3    H122490   6.635   6.680   3.808  1.3816  0.7827  0.1643
  285TIP3    H222491   6.619   6.827   3.774 -2.4712  0.0751 -1.7123
  286TIP3   OH222492   4.998   1.261   4.452  0.4703 -0.4145 -0.3770
  286TIP3    H122493   5.021   1.250   4.544 -0.2936  1.8332  0.1310
  286TIP3    H222494   5.055   1.199   4.406  5.3703  2.4623  1.0267
  287TIP3   OH222495   1.171   1.282   4.680  0.0323  0.3148  0.5731
  287TIP3    H122496   1.183   1.255   4.589  3.1527 -1.1452  1.2917
  287TIP3    H222497   1.145   1.203   4.726 -0.1854  0.7193  1.1569
  288TIP3   OH222498   3.535   6.486   3.064  0.1495 -0.7339 -0.0792
  288TIP3    H122499   3.581   6.407   3.095  0.5870 -0.4726 -0.0505
  288TIP3    H222500   3.595   6.524   2.999  0.0040 -0.3494  0.0091
  289TIP3   OH222501   5.531   4.544   4.995 -0.5489 -0.1307 -0.2606
  289TIP3    H122502   5.596   4.610   4.971 -0.4466 -0.5008 -1.0318
  289TIP3    H222503   5.530   4.546   5.091  0.7976 -0.3024 -0.2150
  290TIP3   OH222504   1.099   3.574   2.570 -0.1599  0.2179  0.1933
  290TIP3    H122505   1.186   3.605   2.542 -0.5685  0.5339 -0.7871
  290TIP3    H222506   1.117   3.496   2.622  0.7511  0.6667  0.5654
  291TIP3   OH222507   2.303   4.835   3.517  0.2992  0.4506 -0.4678
  291TIP3    H122508   2.231   4.892   3.546 -0.1614 -1.5968  3.0350
  291TIP3    H222509   2.372   4.850   3.582  1.4875 -0.4688 -1.4781
  292TIP3   OH222510   0.961   3.454   1.878 -0.1334 -0.5173 -0.4995
  292TIP3    H122511   1.052   3.457   1.907 -0.8273 -0.4348  1.9805
  292TIP3    H222512   0.934   3.363   1.892 -1.1632  0.0308  1.6651
  293TIP3   OH222513   0.445   0.040   4.683 -0.0473  0.2454  0.0888
  293TIP3    H122514   0.360   0.010   4.716 -0.5097  2.0017  0.5769
  293TIP3    H222515   0.502   0.038   4.759  0.0723  0.0506 -0.0061
  294TIP3   OH222516   2.795   3.904   1.078 -0.0230 -0.1138  0.1274
  294TIP3    H122517   2.883   3.887   1.042 -0.6926  0.0859 -1.7263
  294TIP3    H222518   2.748   3.945   1.006 -0.8142  2.4713  2.0041
  295TIP3   OH222519   1.435   5.142   1.999 -0.4948 -0.1467  0.3836
  295TIP3    H122520   1.414   5.100   2.083 -1.6800 -1.7707 -0.6534
  295TIP3    H222521   1.522   5.180   2.013 -0.2930 -1.0881  2.1015
  296TIP3   OH222522   6.240   3.091   0.559  0.3877  0.5993  0.7168
  296TIP3    H122523   6.182   3.163   0.584  0.0573  0.4258  0.4592
  296TIP3    H222524   6.317   3.134   0.520  0.1276  0.8074  0.4306
  297TIP3   OH222525   2.006   4.417   3.077 -0.1999  0.2720  0.3557
  297TIP3    H122526   1.971   4.495   3.120  0.8346  1.9350 -1.6501
  297TIP3    H222527   1.983   4.345   3.135 -4.0589  1.6064  0.7606
  298TIP3   OH222528   4.116   5.035   3.008 -0.4214 -0.2309 -0.0467
  298TIP3    H122529   4.072   5.017   2.925  0.2004 -0.7051 -0.2837
  298TIP3    H222530   4.209   5.032   2.986 -0.2586  1.3287  0.3240
  299TIP3   OH222531   0.568   6.241   1.161  0.2464  0.3199  0.0991
  299TIP3    H122532   0.586   6.283   1.077 -0.6174  0.6456  0.0722
  299TIP3    H222533   0.540   6.312   1.219 -2.5596 -0.3307 -0.3151
  300TIP3   OH222534   1.620   5.979   1.716 -0.3033 -0.1466 -0.1082
  300TIP3    H122535   1.615   5.994   1.622  0.1416 -0.4149 -0.1751
  300TIP3    H222536   1.536   6.012   1.750  0.0489  1.1396 -0.4238
  301TIP3   OH222537   0.771   4.851   4.132 -0.2375 -0.2926  0.0249
  301TIP3    H122538   0.802   4.879   4.219  0.9216 -0.1578 -0.4193
  301TIP3    H222539   0.675   4.857   4.138 -0.1323  0.8566  0.9134
  302TIP3   OH222540   6.761   6.596   3.558 -0.2032  0.1539  0.0348
  302TIP3    H122541   6.746   6.565   3.647 -0.5411  1.2976  0.3986
  302TIP3    H222542   6.681   6.643   3.536  0.2384  0.6496 -0.5315
  303TIP3   OH222543   6.416   0.429   1.473  0.1971  0.2684  0.6411
  303TIP3    H122544   6.476   0.408   1.401 -0.3952 -1.2181  0.5397
  303TIP3    H222545   6.469   0.422   1.552  0.2754 -0.7226  0.5246
  304TIP3   OH222546   6.388   4.275   0.866 -0.6603 -0.5974  0.2465
  304TIP3    H122547   6.400   4.230   0.949 -0.6356  0.1628  0.6618
  304TIP3    H222548   6.467   4.253   0.815 -1.4785 -2.4869 -0.2673
  305TIP3   OH222549   3.504   4.009   0.705 -0.1410 -0.0672 -0.4687
  305TIP3    H122550   3.442   4.079   0.685  0.5553  0.3724 -1.1758
  305TIP3    H222551   3.556   3.999   0.625  1.8294  0.7650  0.6270
  306TIP3   OH222552   3.610   1.309   1.067  0.7426  0.0227  0.4883
  306TIP3    H122553   3.609   1.245   0.996  0.5523  1.6050 -0.9945
  306TIP3    H222554   3.618   1.256   1.147 -0.8140 -1.9161 -0.5541
  307TIP3   OH222555   2.916   4.353   4.817  0.2148  0.1506  0.1463
  307TIP3    H122556   2.957   4.268   4.801  1.2937  0.8025 -0.7453
  307TIP3    H222557   2.847   4.335   4.880 -0.2476 -1.5706 -0.7764
  308TIP3   OH222558   3.949   3.543   1.690 -0.3714  0.4066  0.0349
  308TIP3    H122559   4.028   3.488   1.683 -1.3002 -1.2203  1.4416
  308TIP3    H222560   3.950   3.596   1.611  0.7804 -1.4145 -1.2643
  309TIP3   OH222561   1.378   6.028   1.860  0.4886  0.1470 -0.5534
  309TIP3    H122562   1.340   5.940   1.869 -1.4804  1.1377  1.8332
  309TIP3    H222563   1.312   6.077   1.811  1.4171  0.4183 -1.5532
  310TIP3   OH222564   2.232   5.661   2.929  0.2410  0.7824  0.6788
  310TIP3    H122565   2.175   5.586   2.914  0.2455  0.6859  1.1358
  310TIP3    H222566   2.296   5.657   2.858  0.2431  0.3549  0.7032
  311TIP3   OH222567   1.313   0.301   1.682  0.1360 -0.1451 -0.2514
  311TIP3    H122568   1.401   0.275   1.654  0.2974 -2.5986  2.0767
  311TIP3    H222569   1.329   0.366   1.750  0.0223  1.0427 -1.3405
  312TIP3   OH222570   6.564   0.393   5.097 -0.2759  0.1911 -0.3455
  312TIP3    H122571   6.495   0.426   5.156 -0.6148  1.4980 -1.4264
  312TIP3    H222572   6.643   0.437   5.127  0.0616 -1.0482  0.6763
  313TIP3   OH222573   6.420   2.710   3.925 -0.2160 -0.1988  0.3290
  313TIP3    H122574   6.425   2.806   3.925 -1.0708 -0.1311 -1.2293
  313TIP3    H222575   6.493   2.683   3.980  1.1715  1.3151 -0.6638
  314TIP3   OH222576   4.093   0.592   0.994  0.5105  0.2427  0.4826
  314TIP3    H122577   4.102   0.504   1.032 -1.9844  0.0294  0.7895
  314TIP3    H222578   4.124   0.651   1.062 -2.4347 -0.2247  2.4564
  315TIP3   OH222579   3.546   3.087   0.868 -0.4119 -0.0517  0.7814
  315TIP3    H122580   3.612   3.136   0.917  0.4219 -0.7212  0.3458
  315TIP3    H222581   3.495   3.041   0.935 -0.5943  0.6526  1.1336
  316TIP3   OH222582   1.221   2.504   1.964 -0.3004 -0.4677 -0.0781
  316TIP3    H122583   1.268   2.476   1.886  1.1433 -0.8503  0.8895
  316TIP3    H222584   1.164   2.431   1.985  1.0891 -1.4108  0.5827
  317TIP3   OH222585   4.057   2.750   4.001  0.1384  0.9175 -0.2696
  317TIP3    H122586   4.001   2.786   3.932  0.4450  2.0489  0.0547
  317TIP3    H222587   4.017   2.781   4.082 -0.0355 -0.1410  0.0684
  318TIP3   OH222588   0.019   1.755   4.455  0.2060  0.0071 -0.0468
  318TIP3    H122589   0.092   1.758   4.392 -0.8232  0.0360 -1.2692
  318TIP3    H222590   0.061   1.773   4.539  1.6977 -0.4620 -0.6382
  319TIP3   OH222591   0.967   5.961   2.349  0.4024 -0.1004  0.8748
  319TIP3    H122592   0.954   5.867   2.364 -0.9158 -0.5712 -2.2951
  319TIP3    H222593   1.050   5.981   2.392  1.3718 -3.0485  0.6109
  320TIP3   OH222594   1.115   2.992   4.557 -0.3523  0.2272  0.6365
  320TIP3    H122595   1.126   3.015   4.649 -1.6154 -1.8859  1.3737
  320TIP3    H222596   1.190   2.935   4.537 -0.5452 -0.0131  0.6009
  321TIP3   OH222597   5.123   0.884   4.383  0.6511 -0.5559 -0.6010
  321TIP3    H122598   5.041   0.910   4.423  1.0854 -1.2684  0.8194
  321TIP3    H222599   5.100   0.812   4.324  0.4130 -1.6991  0.8373
  322TIP3   OH222600   5.489   1.928   1.007  0.3573 -0.6177 -0.2403
  322TIP3    H122601   5.516   1.892   1.092  2.0330 -0.1570 -0.5403
  322TIP3    H222602   5.474   2.021   1.024 -2.9946 -1.1363  0.3112
  323TIP3   OH222603   2.136   5.289   1.797 -0.3064  0.4144  0.4708
  323TIP3    H122604   2.118   5.353   1.866 -0.7619  0.3486  0.4153
  323TIP3    H222605   2.074   5.309   1.728  1.5121  1.8332 -0.8560
  324TIP3   OH222606   1.925   1.622   0.593  0.3103 -0.2313 -0.2281
  324TIP3    H122607   1.839   1.642   0.555  0.4970  0.5038 -0.2808
  324TIP3    H222608   1.978   1.699   0.572  0.6057 -0.1049  0.9420
  325TIP3   OH222609   0.895   1.557   1.688  0.1676  0.5352  0.3637
  325TIP3    H122610   0.816   1.543   1.638  0.7463 -2.2390  0.0689
  325TIP3    H222611   0.865   1.590   1.773 -1.3666 -0.9706  0.4431
  326TIP3   OH222612   6.512   2.633   3.275  0.3299  0.2505  0.3821
  326TIP3    H122613   6.491   2.722   3.304 -1.4735  0.4414 -1.2761
  326TIP3    H222614   6.576   2.646   3.205  0.1572  0.2617  0.2230
  327TIP3   OH222615   4.920   4.351   2.781  0.3145 -0.1634  0.0046
  327TIP3    H122616   4.871   4.354   2.863  0.9738  0.2713  0.4010
  327TIP3    H222617   4.977   4.429   2.785  1.7493 -1.1775  0.0394
  328TIP3   OH222618   4.830   2.502   4.549  0.5049  0.5076 -0.4232
  328TIP3    H122619   4.894   2.455   4.494  1.4557  2.0489 -0.6766
  328TIP3    H222620   4.857   2.482   4.638  2.1121  2.0753 -0.5108
  329TIP3   OH222621   4.391   2.968   2.686  0.0281 -0.4664 -0.3284
  329TIP3    H122622   4.343   2.899   2.641  1.1496 -0.4122 -1.6968
  329TIP3    H222623   4.352   3.050   2.655  0.0866 -0.4531 -0.3688
  330TIP3   OH222624   3.788   2.874   2.250  0.3337 -0.1576  0.0485
  330TIP3    H122625   3.780   2.932   2.325 -0.0992  0.0590 -0.1608
  330TIP3    H222626   3.788   2.932   2.174 -0.0441 -0.4222 -0.1602
  331TIP3   OH222627   3.713   1.766   2.571 -0.0710 -0.5438 -0.6120
  331TIP3    H122628   3.750   1.791   2.656 -0.9326  2.8222 -1.0684
  331TIP3    H222629   3.783   1.783   2.509 -0.5232  0.3975 -0.8866
  332TIP3   OH222630   1.178   0.025   1.987 -0.2835  0.5547  1.0081
  332TIP3    H122631   1.164   0.118   2.003 -0.6207  0.4398  1.3730
  332TIP3    H222632   1.270   0.010   2.010 -0.1595  0.8492  0.7049
  333TIP3   OH222633   5.773   2.496   1.685 -0.3507 -0.0259  0.2532
  333TIP3    H122634   5.816   2.504   1.600  0.0688  1.3242  0.5647
  333TIP3    H222635   5.777   2.584   1.722  0.2669 -0.7517  2.0489
  334TIP3   OH222636   2.621   3.632   1.566  0.4377 -0.0821 -0.0402
  334TIP3    H122637   2.632   3.727   1.569 -1.1536  0.1314 -0.2050
  334TIP3    H222638   2.612   3.612   1.473 -0.2045 -0.2559  0.0524
  335TIP3   OH222639   3.967   0.336   0.853 -0.6724  0.2552  0.3637
  335TIP3    H122640   4.021   0.281   0.910 -0.1152  1.9074  1.5043
  335TIP3    H222641   4.030   0.389   0.805 -1.2174  0.2592 -0.3556
  336TIP3   OH222642   3.213   2.003   1.209  0.0200 -0.0190 -0.2459
  336TIP3    H122643   3.237   2.008   1.302  0.6764 -0.9164 -0.3514
  336TIP3    H222644   3.276   2.061   1.165 -0.6886  0.9091 -0.0866
  337TIP3   OH222645   1.602   4.993   4.516  0.0729 -0.4325  0.3659
  337TIP3    H122646   1.658   5.016   4.441  2.0125 -1.6112  1.3810
  337TIP3    H222647   1.586   5.077   4.560  1.3436 -0.1056  0.2435
  338TIP3   OH222648   5.526   6.563   1.850  0.1239  0.2901 -0.8013
  338TIP3    H122649   5.610   6.519   1.861  0.3166  0.6472 -0.8416
  338TIP3    H222650   5.478   6.508   1.788  0.8152  0.7617 -1.7790
  339TIP3   OH222651   1.490   4.792   3.873 -0.7407 -0.3174  0.3707
  339TIP3    H122652   1.439   4.711   3.878 -0.0672 -0.7757  0.0784
  339TIP3    H222653   1.578   4.763   3.847 -0.5172  0.5236  0.1566
  340TIP3   OH222654   0.463   5.222   4.201  0.6896 -0.0623  0.3949
  340TIP3    H122655   0.421   5.307   4.193  1.4253  0.1831 -1.7861
  340TIP3    H222656   0.526   5.232   4.272 -1.0745  0.3414  1.9580
  341TIP3   OH222657   1.488   1.198   0.502  0.5793 -0.2484  0.4984
  341TIP3    H122658   1.570   1.208   0.551  0.0666 -0.6406  1.4653
  341TIP3    H222659   1.462   1.107   0.519  0.0100 -0.1640  0.0836
  342TIP3   OH222660   4.437   0.406   4.797 -0.6580 -0.1176  0.3915
  342TIP3    H122661   4.486   0.396   4.716  1.4578 -0.6307  1.6589
  342TIP3    H222662   4.345   0.405   4.770 -0.0088  0.8773 -2.0804
  343TIP3   OH222663   5.247   0.068   5.747 -0.5198  0.1748  0.1789
  343TIP3    H122664   5.277   0.155   5.721 -0.2191  1.1302  3.2840
  343TIP3    H222665   5.328   0.020   5.765 -0.7044 -0.5498 -0.8523
  344TIP3   OH222666   4.489   2.341   1.069  0.0159  0.1441 -0.1365
  344TIP3    H122667   4.468   2.248   1.064  2.4996 -0.4565 -0.5515
  344TIP3    H222668   4.561   2.353   1.007 -0.7965  2.5493 -0.7454
  345TIP3   OH222669   2.031   5.937   1.894 -0.0217 -0.0921 -0.0245
  345TIP3    H122670   1.983   5.877   1.837 -0.8479  0.2236  0.3228
  345TIP3    H222671   2.123   5.915   1.879 -0.2701 -0.8138 -0.5912
  346TIP3   OH222672   2.233   0.081   0.272  0.5543  0.4749 -1.1387
  346TIP3    H122673   2.310   0.043   0.315  0.0648 -0.5819 -1.1811
  346TIP3    H222674   2.247   0.176   0.279  0.5109  0.3611  1.2968
  347TIP3   OH222675   4.409   5.894   1.164 -0.3538 -0.0917  0.0709
  347TIP3    H122676   4.397   5.843   1.244 -0.9004 -1.3686 -0.7791
  347TIP3    H222677   4.327   5.883   1.116  0.0084  0.5420 -0.7216
  348TIP3   OH222678   2.859   3.233   4.317 -0.2010  0.4421  0.1747
  348TIP3    H122679   2.852   3.252   4.410  0.5244  0.5651  0.2098
  348TIP3    H222680   2.801   3.297   4.274 -0.9380  0.0521  0.5664
  349TIP3   OH222681   1.195   6.489   2.050  0.2164 -0.0179 -0.2415
  349TIP3    H122682   1.171   6.579   2.075  1.1610  0.2935 -0.4129
  349TIP3    H222683   1.273   6.470   2.103  0.7955 -0.2453 -1.1548
  350TIP3   OH222684   5.156   2.658   4.395  0.3570 -0.1194 -0.4357
  350TIP3    H122685   5.148   2.711   4.315 -1.0080  0.4437  0.0569
  350TIP3    H222686   5.083   2.686   4.450  0.3190 -1.6706  0.3441
  351TIP3   OH222687   1.471   0.425   1.145  0.7653 -0.6100 -0.3622
  351TIP3    H122688   1.442   0.462   1.062  0.8460 -0.1900 -0.2037
  351TIP3    H222689   1.497   0.335   1.124  0.1156 -0.7343 -0.6551
  352TIP3   OH222690   0.387   5.271   3.273 -0.8760 -0.4452 -0.1967
  352TIP3    H122691   0.387   5.266   3.368 -2.7626  1.4764 -0.0331
  352TIP3    H222692   0.319   5.209   3.246  0.1417 -1.5187 -0.3802
  353TIP3   OH222693   1.318   3.052   1.534  0.2286 -0.4190 -0.4128
  353TIP3    H122694   1.403   3.094   1.544  0.5705 -0.8550 -1.3996
  353TIP3    H222695   1.339   2.965   1.499 -0.4796 -1.2791  1.1957
  354TIP3   OH222696   0.908   0.884   4.804 -0.0185 -0.4215  0.7871
  354TIP3    H122697   0.890   0.831   4.881  0.1409 -0.1755  0.9925
  354TIP3    H222698   0.995   0.920   4.819 -0.8441  1.3878  1.5076
  355TIP3   OH222699   5.569   3.335   0.998 -0.2119 -0.0760 -0.1089
  355TIP3    H122700   5.544   3.270   0.933 -1.3953 -0.4881  0.7427
  355TIP3    H222701   5.498   3.399   0.997 -0.1206  0.0411  0.6254
  356TIP3   OH222702   6.709   3.451   4.451 -0.3559 -0.5897 -0.0319
  356TIP3    H122703   6.648   3.403   4.508 -0.4093  0.2601  0.6577
  356TIP3    H222704   6.777   3.483   4.510  0.6115 -1.2552 -0.7495
  357TIP3   OH222705   5.641   1.411   1.931 -0.2279  0.1889  0.1730
  357TIP3    H122706   5.657   1.321   1.903 -0.1570  0.2988 -0.1542
  357TIP3    H222707   5.562   1.437   1.882 -0.4930  0.1664  0.5859
  358TIP3   OH222708   1.537   5.677   4.832  0.4156 -0.1427 -0.3427
  358TIP3    H122709   1.551   5.639   4.918 -0.8742  1.5501  0.6795
  358TIP3    H222710   1.448   5.651   4.808  0.4409  0.1425 -0.7657
  359TIP3   OH222711   2.563   1.353   4.130  0.8466 -0.4445  0.2778
  359TIP3    H122712   2.610   1.274   4.155 -0.8820 -1.2138  1.2882
  359TIP3    H222713   2.496   1.364   4.198  1.0810  1.9416  0.2024
  360TIP3   OH222714   3.601   3.577   4.128 -0.3304 -0.7331 -0.3696
  360TIP3    H122715   3.564   3.531   4.203  1.1058  0.1543  0.9595
  360TIP3    H222716   3.663   3.639   4.167 -0.2081  0.3892 -2.2530
  361TIP3   OH222717   2.456   5.703   2.674  0.5440 -0.0701  0.3190
  361TIP3    H122718   2.519   5.767   2.708  0.1414 -0.0985  1.1425
  361TIP3    H222719   2.397   5.756   2.620 -0.5763  0.5381  2.0369
  362TIP3   OH222720   3.007   0.013   1.460 -0.1969  0.3459 -0.2324
  362TIP3    H122721   2.915   0.010   1.436 -0.2702 -1.2320  0.1267
  362TIP3    H222722   3.013  -0.042   1.539  0.8594  1.3620  0.4313
  363TIP3   OH222723   1.852   4.778   4.172  0.1979 -0.0483  0.1111
  363TIP3    H122724   1.774   4.813   4.215  0.7573  0.4288  0.7629
  363TIP3    H222725   1.889   4.852   4.125  0.0467 -0.3687 -0.5157
  364TIP3   OH222726   4.503   6.194   3.599 -0.2011 -0.1307  0.5616
  364TIP3    H122727   4.537   6.110   3.631 -0.4624 -0.7534 -0.7265
  364TIP3    H222728   4.565   6.259   3.632  2.0543 -1.1800 -1.3131
  365TIP3   OH222729   3.940   2.509   4.228 -0.0268  0.0022  0.0422
  365TIP3    H122730   3.859   2.556   4.247 -0.5975 -0.9862  0.0631
  365TIP3    H222731   4.001   2.578   4.200 -0.9318  0.7204 -0.1971
  366TIP3   OH222732   6.347   2.326   1.905  0.2659 -0.0969 -0.1010
  366TIP3    H122733   6.355   2.234   1.882  0.4352 -0.0785 -0.1186
  366TIP3    H222734   6.295   2.364   1.833 -0.3874 -0.3069  0.2493
  367TIP3   OH222735   0.181   0.052   0.966 -0.1078  0.2789 -0.2127
  367TIP3    H122736   0.132  -0.029   0.982 -1.3300  1.2785  1.5072
  367TIP3    H222737   0.197   0.087   1.054  0.4125  1.8780 -0.9096
  368TIP3   OH222738   5.086   2.857   1.926  0.1315  0.2842 -0.6577
  368TIP3    H122739   5.019   2.883   1.989 -0.7987  0.2408 -1.6036
  368TIP3    H222740   5.169   2.879   1.969 -0.5001  0.9354  0.2698
  369TIP3   OH222741   5.498   5.161   4.106 -0.3369  0.1276 -0.0404
  369TIP3    H122742   5.554   5.152   4.183 -2.5048 -0.8800  1.5343
  369TIP3    H222743   5.452   5.244   4.119 -1.9343 -0.8222  0.6903
  370TIP3   OH222744   6.110   3.230   2.966 -0.2365  0.0946  0.2087
  370TIP3    H122745   6.068   3.314   2.985 -2.1395 -0.5933 -0.6297
  370TIP3    H222746   6.039   3.166   2.975  0.8751 -1.2738 -0.3975
  371TIP3   OH222747   4.731   0.223   3.323  0.5461 -0.5430 -0.3606
  371TIP3    H122748   4.710   0.138   3.284 -0.8933 -0.4708  0.1764
  371TIP3    H222749   4.826   0.228   3.320  0.9372 -3.4487  2.1541
  372TIP3   OH222750   0.763   5.440   3.705  0.7108 -0.7375  0.2330
  372TIP3    H122751   0.753   5.459   3.612 -2.3948  0.4338  0.6927
  372TIP3    H222752   0.802   5.353   3.708 -0.1646 -1.2760 -2.1888
  373TIP3   OH222753   1.425   1.875   2.378  0.2690 -0.4062 -0.5122
  373TIP3    H122754   1.482   1.881   2.455 -0.4720  0.5995 -0.0225
  373TIP3    H222755   1.356   1.814   2.405 -0.0002 -0.0404 -0.3592
  374TIP3   OH222756   0.230   5.037   0.885 -0.2542 -0.1516  0.2778
  374TIP3    H122757   0.147   5.068   0.849 -1.1259  1.0520  3.0730
  374TIP3    H222758   0.221   4.942   0.887 -2.0546 -0.0158  1.4608
  375TIP3   OH222759   3.200   5.337   4.757 -0.4261 -0.0868 -0.1653
  375TIP3    H122760   3.226   5.249   4.731  0.8992  0.5674 -1.1700
  375TIP3    H222761   3.239   5.394   4.691  0.7568  1.4487  1.7410
  376TIP3   OH222762   5.967   6.369   3.341 -1.3243 -0.0361 -0.0708
  376TIP3    H122763   6.052   6.354   3.381 -1.4698 -1.5735 -0.2597
  376TIP3    H222764   5.986   6.381   3.248 -1.2839 -0.0035 -0.0585
  377TIP3   OH222765   6.623   1.867   1.919 -0.1484  0.4794  0.3822
  377TIP3    H122766   6.662   1.947   1.953  1.6994 -0.4148  0.5176
  377TIP3    H222767   6.581   1.893   1.837 -2.7261  2.2302  2.0908
  378TIP3   OH222768   0.771   3.437   5.581  0.2515  0.0179  0.1422
  378TIP3    H122769   0.783   3.469   5.492 -1.4014  1.1816  0.2992
  378TIP3    H222770   0.745   3.346   5.571  2.1770 -0.5319 -0.4309
  379TIP3   OH222771   4.790   0.172   4.446  0.2471  0.1725 -0.1468
  379TIP3    H122772   4.761   0.203   4.360  1.0568  2.3881  0.3019
  379TIP3    H222773   4.734   0.219   4.508  1.6272  0.9159  0.5852
  380TIP3   OH222774   3.393   1.419   1.183  0.5397 -0.7087 -0.9319
  380TIP3    H122775   3.470   1.439   1.129  1.1456 -1.5798 -0.4074
  380TIP3    H222776   3.353   1.343   1.140  1.0328 -1.4162 -0.1683
  381TIP3   OH222777   0.079   4.608   2.993  0.2197  0.2431  0.5283
  381TIP3    H122778   0.048   4.677   2.934 -0.4711 -1.0922 -0.7667
  381TIP3    H222779   0.070   4.644   3.081  1.2247  2.2929 -0.1699
  382TIP3   OH222780   1.679   4.650   2.796  0.4595  0.9500 -0.1391
  382TIP3    H122781   1.632   4.706   2.857  1.5008  0.0022  1.6242
  382TIP3    H222782   1.614   4.585   2.768 -0.2622  1.9204 -0.7835
  383TIP3   OH222783   1.356   3.769   3.113 -0.1812 -0.4467 -0.8083
  383TIP3    H122784   1.380   3.825   3.039 -0.1719  2.8405  1.4873
  383TIP3    H222785   1.440   3.742   3.150 -0.1535  0.3100 -0.3163
  384TIP3   OH222786   0.989   2.591   1.660  0.3826 -0.0667 -0.3473
  384TIP3    H122787   0.904   2.635   1.649  0.7882  0.7832 -0.1511
  384TIP3    H222788   1.053   2.662   1.660  1.1382 -0.7415 -0.8936
  385TIP3   OH222789   4.197   4.067   5.475  0.0557 -0.2442  0.7729
  385TIP3    H122790   4.119   4.083   5.528  1.6077  2.1409  2.4944
  385TIP3    H222791   4.209   4.148   5.425  0.6451 -1.1405 -0.6060
  386TIP3   OH222792   1.283   2.140   4.728  0.5555 -0.3588 -0.0542
  386TIP3    H122793   1.277   2.234   4.748 -2.0995 -0.2537 -0.8945
  386TIP3    H222794   1.252   2.096   4.807 -0.9025 -0.3681 -0.6095
  387TIP3   OH222795   1.001   5.958   0.773 -1.0280  0.3912 -0.1448
  387TIP3    H122796   1.080   6.010   0.785 -0.3352 -1.0198  2.0101
  387TIP3    H222797   0.952   6.003   0.704 -0.0842  3.3831  1.0076
  388TIP3   OH222798   2.884   4.795   2.437 -0.1650  0.1665 -0.0326
  388TIP3    H122799   2.875   4.735   2.511 -2.1783  0.6109  0.1175
  388TIP3    H222800   2.806   4.781   2.384  1.2002 -0.0931 -2.0872
  389TIP3   OH222801   5.279   2.763   3.228  0.6338  0.0942  0.1923
  389TIP3    H122802   5.222   2.834   3.200 -0.4560 -1.1829 -1.0141
  389TIP3    H222803   5.354   2.806   3.269 -0.5540  1.8644  0.5844
  390TIP3   OH222804   0.348   0.726   3.144  0.6896 -0.4268 -0.4162
  390TIP3    H122805   0.294   0.804   3.130  0.2206 -0.7254 -0.2953
  390TIP3    H222806   0.365   0.693   3.056  0.6048 -0.3785 -0.4506
  391TIP3   OH222807   1.695   5.726   3.128 -0.0482  0.6283 -0.0776
  391TIP3    H122808   1.757   5.678   3.183  0.4243  0.0829 -1.0543
  391TIP3    H222809   1.715   5.818   3.142 -0.1904  0.5169  0.9396
  392TIP3   OH222810   5.988   4.682   3.094  0.4401 -0.1435  0.4075
  392TIP3    H122811   5.927   4.670   3.022  0.5234  0.8334  0.1505
  392TIP3    H222812   6.007   4.594   3.126 -0.4550 -0.5091 -0.0444
  393TIP3   OH222813   2.671   2.414   2.720  0.1071 -0.4570 -0.7970
  393TIP3    H122814   2.670   2.455   2.807 -0.6690 -0.7169 -0.6670
  393TIP3    H222815   2.735   2.463   2.670  2.4363 -1.8503  0.6622
  394TIP3   OH222816   3.831   1.554   3.019  0.1353  0.2675  0.3063
  394TIP3    H122817   3.899   1.619   3.039 -0.1045  0.0622  1.9232
  394TIP3    H222818   3.752   1.588   3.059 -0.3931 -0.2010 -0.3138
  395TIP3   OH222819   0.835   1.682   1.293 -0.3149 -0.4571 -0.4625
  395TIP3    H122820   0.791   1.700   1.376  0.4178  0.0813 -0.1770
  395TIP3    H222821   0.889   1.760   1.278 -0.2043 -0.6896 -1.2851
  396TIP3   OH222822   5.174   0.292   3.261  0.0508  0.0286 -0.6091
  396TIP3    H122823   5.244   0.356   3.276  0.1199  0.1345 -1.3215
  396TIP3    H222824   5.146   0.309   3.171  0.6798 -1.5135 -1.1361
  397TIP3   OH222825   6.765   4.072   1.536  0.3801  0.3762  0.5012
  397TIP3    H122826   6.851   4.086   1.576  0.3028 -0.2938  0.9317
  397TIP3    H222827   6.732   4.160   1.517  0.4436  0.7323  1.8908
  398TIP3   OH222828   2.321   3.679   0.978 -0.3272  0.2407  0.0341
  398TIP3    H122829   2.292   3.741   1.044 -0.8206 -0.7531  0.7741
  398TIP3    H222830   2.397   3.720   0.938 -0.4754  1.1871  0.6947
  399TIP3   OH222831   2.162   6.348   2.908  0.3569 -0.1135  0.7510
  399TIP3    H122832   2.135   6.263   2.944  2.1828 -1.0294  0.0685
  399TIP3    H222833   2.233   6.327   2.847 -0.6907  1.6947 -1.2096
  400TIP3   OH222834   4.875   4.360   3.600  0.5464 -0.0163  0.1220
  400TIP3    H122835   4.873   4.266   3.580 -2.4466  0.1245 -0.7730
  400TIP3    H222836   4.908   4.401   3.520 -0.1348 -0.2117 -0.2700
  401TIP3   OH222837   3.018   5.628   0.461 -0.0278 -0.3286 -0.1400
  401TIP3    H122838   3.081   5.569   0.503  0.0682 -0.3998 -0.3776
  401TIP3    H222839   2.957   5.652   0.530  1.7969  1.8783  0.8248
  402TIP3   OH222840   1.494   6.374   1.651 -0.0179 -0.3296  0.1902
  402TIP3    H122841   1.505   6.449   1.709  0.7580 -0.6324  0.4490
  402TIP3    H222842   1.570   6.319   1.669 -0.4883 -1.0939 -0.1197
  403TIP3   OH222843   2.370   5.310   4.783 -0.6370 -0.1911  0.3299
  403TIP3    H122844   2.371   5.361   4.864 -1.6920 -0.4194  0.5026
  403TIP3    H222845   2.435   5.241   4.797 -1.0862 -0.4581  1.1410
  404TIP3   OH222846   5.338   5.237   2.607 -0.2366 -0.4596 -0.2825
  404TIP3    H122847   5.247   5.235   2.576  0.1295  0.9140 -1.5407
  404TIP3    H222848   5.382   5.299   2.550  1.4209 -0.7739  0.5802
  405TIP3   OH222849   0.099   3.209   1.530 -0.0562  0.0410 -0.6908
  405TIP3    H122850   0.143   3.124   1.527 -1.7183 -0.8417 -1.3183
  405TIP3    H222851   0.056   3.212   1.615  0.2418  0.3973 -0.5481
  406TIP3   OH222852   5.414   1.030   1.271  0.2007  0.5672  0.1033
  406TIP3    H122853   5.323   1.059   1.277  0.3815  0.9153  1.7308
  406TIP3    H222854   5.461   1.106   1.238 -0.2270  0.0336 -1.8451
  407TIP3   OH222855   0.166   4.316   2.544  0.3105  0.6460 -0.0708
  407TIP3    H122856   0.106   4.287   2.475  3.0961 -0.3629 -2.2669
  407TIP3    H222857   0.165   4.245   2.608  0.9853 -0.5689 -1.3484
  408TIP3   OH222858   3.362   1.273   4.635  0.1542 -0.4695 -0.5665
  408TIP3    H122859   3.387   1.315   4.717 -1.2147 -1.4187  0.3924
  408TIP3    H222860   3.428   1.206   4.621  0.3896 -0.3099 -0.2432
  409TIP3   OH222861   1.412   4.538   2.802 -0.4600 -0.0999  0.3607
  409TIP3    H122862   1.360   4.617   2.783  0.0045 -0.0232 -0.6095
  409TIP3    H222863   1.360   4.492   2.868 -0.5839  1.1784  1.2051
  410TIP3   OH222864   1.740   2.076   4.135 -0.4521 -0.0516 -0.0282
  410TIP3    H122865   1.649   2.057   4.155 -0.4116  0.6999  1.0253
  410TIP3    H222866   1.747   2.171   4.145  0.8217 -0.2717  1.7282
  411TIP3   OH222867   5.527   5.195   0.373 -0.8104  0.5242 -0.1519
  411TIP3    H122868   5.502   5.184   0.465  1.2267  2.6226  0.7540
  411TIP3    H222869   5.462   5.144   0.324 -1.5331 -1.2507  2.4674
  412TIP3   OH222870   1.854   3.423   3.234  0.3430 -0.0462  0.6635
  412TIP3    H122871   1.829   3.448   3.145 -0.7433  1.7052  1.3956
  412TIP3    H222872   1.925   3.483   3.256 -1.2352  1.5139  1.8836
  413TIP3   OH222873   4.042   5.186   2.300  0.1768  0.2416  0.1973
  413TIP3    H122874   4.053   5.203   2.393  1.1485 -0.2773  0.2029
  413TIP3    H222875   4.116   5.231   2.259 -0.0145  0.1318 -0.2746
  414TIP3   OH222876   3.135   0.250   3.580 -0.3447 -0.2722  0.2803
  414TIP3    H122877   3.068   0.314   3.604 -1.0350 -0.8926  0.0476
  414TIP3    H222878   3.215   0.281   3.623 -0.9664  0.0381  1.2519
  415TIP3   OH222879   2.808   3.932   4.490 -0.1261  0.1076 -0.2903
  415TIP3    H122880   2.751   3.966   4.559 -1.4101  0.3170 -1.4228
  415TIP3    H222881   2.866   3.870   4.536 -1.2006 -0.0530  0.9174
  416TIP3   OH222882   6.029   0.745   1.447 -0.0607  0.7822 -0.1794
  416TIP3    H122883   6.065   0.677   1.391  0.7087  0.2353  0.9286
  416TIP3    H222884   5.937   0.751   1.422  0.1453  0.2089 -1.1331
  417TIP3   OH222885   1.045   1.359   1.598  0.2571 -0.4378  0.0144
  417TIP3    H122886   1.004   1.434   1.641  0.4016 -0.7775  0.7612
  417TIP3    H222887   1.077   1.305   1.670  1.0816 -0.6976 -0.5378
  418TIP3   OH222888   4.422   3.053   1.223  0.2683 -0.0157  0.7578
  418TIP3    H122889   4.347   3.004   1.191  1.4826 -2.6024  1.6357
  418TIP3    H222890   4.427   3.129   1.165 -0.9103 -1.5990 -1.5780
  419TIP3   OH222891   0.143   5.967   3.502 -0.4818  0.0468 -0.3118
  419TIP3    H122892   0.232   5.965   3.538  0.1428  1.3883 -1.6378
  419TIP3    H222893   0.134   6.056   3.467 -2.3274 -0.0975 -0.2948
  420TIP3   OH222894   2.987   1.687   1.280  0.2754 -0.2441 -0.7776
  420TIP3    H122895   2.920   1.741   1.322 -0.3729 -0.5705 -1.3640
  420TIP3    H222896   3.058   1.681   1.345  0.0825  0.7653 -0.4596
  421TIP3   OH222897   6.721   5.293   0.743  0.3368  0.1189  0.1202
  421TIP3    H122898   6.666   5.244   0.805 -1.2823  0.4551 -1.0156
  421TIP3    H222899   6.786   5.229   0.714 -0.9622 -1.0323 -0.3645
  422TIP3   OH222900   2.539   0.310   4.969  0.4860 -0.1551 -0.0683
  422TIP3    H122901   2.631   0.335   4.979  0.4299 -0.6324  2.2095
  422TIP3    H222902   2.512   0.283   5.057 -1.8771  0.0793 -0.6625
  423TIP3   OH222903   2.580   0.056   3.058 -0.0234  0.3721  0.2519
  423TIP3    H122904   2.644   0.123   3.083  1.7812 -1.6340  1.2887
  423TIP3    H222905   2.606  -0.022   3.107 -2.4045 -0.9633 -0.4496
  424TIP3   OH222906   1.819   4.959   3.507 -0.0732  0.1611  0.2268
  424TIP3    H122907   1.794   5.051   3.504  0.9103  0.4659  0.7765
  424TIP3    H222908   1.915   4.961   3.503 -0.0815 -0.9350 -1.9337
  425TIP3   OH222909   5.861   3.407   3.733 -0.5507  0.4357  0.1380
  425TIP3    H122910   5.914   3.466   3.680  0.8406 -0.0669  0.9354
  425TIP3    H222911   5.888   3.319   3.705 -1.0804  0.1702  0.4487
  426TIP3   OH222912   1.720   6.384   5.280  0.4386  0.2528 -0.0402
  426TIP3    H122913   1.769   6.428   5.350  1.8049  0.8349 -1.3133
  426TIP3    H222914   1.783   6.325   5.240 -0.7356 -1.1512  0.1113
  427TIP3   OH222915   2.071   0.477   4.302  0.1142  0.5460 -0.0006
  427TIP3    H122916   2.038   0.531   4.230  0.7533  0.6388 -0.2250
  427TIP3    H222917   2.055   0.529   4.380  1.5032  1.4594 -0.2884
  428TIP3   OH222918   3.461   6.235   1.238 -0.7085  0.0201  0.0356
  428TIP3    H122919   3.503   6.316   1.212 -0.7435 -0.5763 -2.0089
  428TIP3    H222920   3.510   6.205   1.315  0.5017  0.9927 -0.3454
  429TIP3   OH222921   0.707   4.494   1.553  0.4979  0.2049  0.2093
  429TIP3    H122922   0.698   4.581   1.513 -0.0464  0.7631  1.4809
  429TIP3    H222923   0.649   4.497   1.630  1.2864 -0.9143  0.8720
  430TIP3   OH222924   0.371   1.469   3.717 -0.3795 -0.1227  0.6225
  430TIP3    H122925   0.461   1.462   3.685 -1.4157  0.9171 -3.0504
  430TIP3    H222926   0.341   1.379   3.724  0.6512 -0.4526  0.9733
  431TIP3   OH222927   3.995   6.693   2.568  0.1157 -0.4456 -0.4028
  431TIP3    H122928   3.980   6.685   2.662  0.9504  1.0258 -0.1112
  431TIP3    H222929   3.994   6.603   2.535 -2.0369 -0.8789  0.6867
  432TIP3   OH222930   6.171   6.615   4.841 -0.4775  0.4742  0.5389
  432TIP3    H122931   6.207   6.691   4.887  0.0330 -0.1343  1.1859
  432TIP3    H222932   6.091   6.594   4.888 -1.2376  1.3080 -0.3654
  433TIP3   OH222933   5.400   3.251   2.813 -0.5809  0.3478  0.1627
  433TIP3    H122934   5.427   3.325   2.868  0.1119  1.6055 -1.7604
  433TIP3    H222935   5.316   3.223   2.850 -1.6853  3.1677  0.0542
  434TIP3   OH222936   4.497   1.386   2.713 -0.2528  0.1510 -0.1820
  434TIP3    H122937   4.420   1.340   2.745  1.2858 -2.2099  0.4120
  434TIP3    H222938   4.526   1.439   2.787 -0.3602 -0.2738  0.1646
  435TIP3   OH222939   0.640   2.588   4.055  0.3626 -0.3469  0.1226
  435TIP3    H122940   0.558   2.634   4.034  1.2275  1.1350 -0.1716
  435TIP3    H222941   0.678   2.638   4.127  1.3050 -0.6249 -0.1659
  436TIP3   OH222942   5.026   2.057   4.838 -0.0890  0.6016  0.2425
  436TIP3    H122943   5.042   1.989   4.774  1.1755  0.7120  0.4123
  436TIP3    H222944   4.944   2.032   4.881 -1.4294  0.9652 -1.9420
  437TIP3   OH222945   5.004   1.067   1.537 -0.0699 -0.2037  0.3849
  437TIP3    H122946   4.935   1.091   1.476  0.9280  0.0903 -0.6658
  437TIP3    H222947   5.045   0.990   1.498  1.5828  0.8982 -0.1729
  438TIP3   OH222948   4.862   5.216   3.125  0.4448 -0.3761  0.0332
  438TIP3    H122949   4.886   5.283   3.060  1.9542 -1.5834 -0.7071
  438TIP3    H222950   4.943   5.168   3.140  0.1485 -0.1284  2.8805
  439TIP3   OH222951   5.079   6.659   1.727  0.3106  0.3754  0.3248
  439TIP3    H122952   5.086   6.737   1.782 -2.3440  0.4547  0.6525
  439TIP3    H222953   5.027   6.597   1.778  0.3411 -0.7207 -0.8986
  440TIP3   OH222954   5.288   5.477   1.084 -0.2729  0.0279  0.0435
  440TIP3    H122955   5.300   5.556   1.032 -0.6793  1.0430  1.4422
  440TIP3    H222956   5.281   5.406   1.020  1.7771  0.8742 -1.1940
  441TIP3   OH222957   2.117   5.825   3.485 -0.5955  0.1382  0.0140
  441TIP3    H122958   2.180   5.866   3.427  0.8094 -0.7718  0.8156
  441TIP3    H222959   2.072   5.760   3.430 -0.9566  0.8954 -0.5999
  442TIP3   OH222960   1.182   6.672   2.299  0.5613 -0.3891  0.6378
  442TIP3    H122961   1.138   6.665   2.383 -0.6852 -0.7084 -0.0172
  442TIP3    H222962   1.274   6.658   2.319  0.4666  0.7939  2.1203
  443TIP3   OH222963   0.718   1.944   3.509 -0.6151 -0.0168 -0.6040
  443TIP3    H122964   0.692   2.036   3.519 -1.2180  0.0109 -2.1842
  443TIP3    H222965   0.744   1.936   3.417  0.9990 -1.0613 -0.1020
  444TIP3   OH222966   5.841   2.525   2.760 -0.1351  0.0057  0.3693
  444TIP3    H122967   5.824   2.611   2.722 -2.6698 -0.2258  0.7654
  444TIP3    H222968   5.935   2.524   2.777  0.7588  1.0416 -3.5129
  445TIP3   OH222969   6.138   5.153   1.224 -0.3010  1.1188 -0.1323
  445TIP3    H122970   6.052   5.110   1.218  0.3958 -0.1678 -1.7341
  445TIP3    H222971   6.189   5.096   1.281  0.1198  0.7153 -0.9030
  446TIP3   OH222972   1.126   3.563   5.235 -0.2680  0.1101 -0.3296
  446TIP3    H122973   1.043   3.577   5.191  0.3038 -0.3510 -1.6001
  446TIP3    H222974   1.145   3.647   5.278 -2.1923 -0.2945  1.4551
  447TIP3   OH222975   5.452   0.618   4.430  0.1262 -0.4729  0.6072
  447TIP3    H122976   5.514   0.657   4.491 -1.4045 -0.0004  1.9497
  447TIP3    H222977   5.506   0.577   4.363  1.8399  2.5385 -0.0120
  448TIP3   OH222978   1.173   1.509   4.098  0.6217  1.0456  0.3669
  448TIP3    H122979   1.180   1.470   4.010 -0.1407  1.0452  0.2977
  448TIP3    H222980   1.113   1.582   4.086  1.1642  1.5609  0.7299
  449TIP3   OH222981   3.547   4.272   2.243  0.0733  0.2504 -0.1290
  449TIP3    H122982   3.565   4.178   2.236  1.0006  0.5053 -1.5927
  449TIP3    H222983   3.506   4.282   2.328  1.7102 -1.2253  0.9127
  450TIP3   OH222984   1.590   6.065   5.204  0.0554 -0.2718  0.5861
  450TIP3    H122985   1.658   5.998   5.205 -0.7661 -1.1376  2.1062
  450TIP3    H222986   1.612   6.124   5.276 -0.7470 -0.5257  1.0568
  451TIP3   OH222987   2.896   5.284   4.052  0.3680  0.4252  0.4783
  451TIP3    H122988   2.916   5.270   3.959  1.6088  0.1116  0.7793
  451TIP3    H222989   2.958   5.228   4.098  0.4710  1.3749  1.5309
  452TIP3   OH222990   0.048   3.898   4.566 -0.2850 -0.2379 -0.4385
  452TIP3    H122991   0.013   3.983   4.593  0.5851 -0.1404  0.4309
  452TIP3    H222992   0.118   3.920   4.504 -0.3583 -0.3432 -0.5589
  453TIP3   OH222993   2.783   1.884   1.312  0.7894 -0.3877 -0.7977
  453TIP3    H122994   2.692   1.913   1.317  0.6637 -0.9964  2.7160
  453TIP3    H222995   2.833   1.964   1.296 -0.2644  0.0858 -1.8678
  454TIP3   OH222996   1.207   4.113   3.636  0.7194  0.2624 -0.0197
  454TIP3    H122997   1.116   4.117   3.607  0.2372  0.4911  1.4796
  454TIP3    H222998   1.247   4.048   3.578 -0.8941 -1.3536  0.5827
  455TIP3   OH222999   5.979   5.276   2.170  0.0149 -0.0005  0.4918
  455TIP3    H123000   5.995   5.231   2.088  0.2290 -0.9597  1.0481
  455TIP3    H223001   6.066   5.305   2.199 -0.1987  1.4905 -0.2411
  456TIP3   OH223002   6.579   4.902   1.490 -0.1215 -0.0852  0.1613
  456TIP3    H123003   6.495   4.942   1.513  0.5159  0.1900  2.2709
  456TIP3    H223004   6.644   4.951   1.541  1.3722 -0.1462 -1.5834
  457TIP3   OH223005   2.984   5.005   0.216  0.7341 -0.0862  0.3947
  457TIP3    H123006   3.063   5.056   0.197  0.4164 -0.2960 -1.7496
  457TIP3    H223007   2.958   5.033   0.304  2.5662  0.7867  0.7048
  458TIP3   OH223008   2.124   1.661   2.940  0.4044  0.2169  0.1193
  458TIP3    H123009   2.082   1.581   2.969  1.0741  0.4093  1.7044
  458TIP3    H223010   2.196   1.631   2.884  0.8116 -0.3103  0.9159
  459TIP3   OH223011   5.726   4.400   1.564  0.2623 -0.0444 -0.3197
  459TIP3    H123012   5.690   4.432   1.481 -0.6487 -1.3284 -0.4503
  459TIP3    H223013   5.719   4.474   1.624  2.6567  1.5544 -1.8060
  460TIP3   OH223014   4.960   4.751   4.872 -0.3571  0.4551 -0.2747
  460TIP3    H123015   5.037   4.784   4.918 -1.5166  1.1374  1.2581
  460TIP3    H223016   4.944   4.814   4.803  0.4531  0.2966 -0.6210
  461TIP3   OH223017   6.289   6.621   3.390  0.3131  0.4071 -0.0394
  461TIP3    H123018   6.327   6.554   3.333  0.5072  0.5612 -0.0934
  461TIP3    H223019   6.289   6.582   3.477  0.3755  0.3157 -0.0797
  462TIP3   OH223020   4.219   5.905   0.723 -0.5399 -0.3022  0.3341
  462TIP3    H123021   4.312   5.903   0.701 -0.1840 -0.6650  1.7383
  462TIP3    H223022   4.174   5.913   0.639  0.8210  2.1947 -0.2332
  463TIP3   OH223023   1.408   3.072   2.172 -0.2239 -0.4785  0.4001
  463TIP3    H123024   1.473   3.003   2.181  0.5812  0.3795  1.5180
  463TIP3    H223025   1.349   3.060   2.247 -0.3021 -0.2005  0.3863
  464TIP3   OH223026   5.896   3.533   5.256  0.4109 -0.5074 -0.0116
  464TIP3    H123027   5.893   3.437   5.251 -0.9449 -0.4220 -2.3956
  464TIP3    H223028   5.822   3.556   5.313 -0.2207 -0.8524 -0.6736
  465TIP3   OH223029   0.942   6.398   2.754 -0.0002  0.2018  0.0255
  465TIP3    H123030   1.001   6.408   2.678  0.0923  1.2205  0.2161
  465TIP3    H223031   0.952   6.307   2.780  2.2813  0.5870  0.6757
  466TIP3   OH223032   4.735   2.592   3.083  0.2184 -0.6276 -0.1297
  466TIP3    H123033   4.648   2.577   3.121 -1.3213  2.1806 -2.1100
  466TIP3    H223034   4.725   2.567   2.991  0.8297  1.5602 -0.8547
  467TIP3   OH223035   3.878   5.938   1.937  0.4664  0.6688 -0.4337
  467TIP3    H123036   3.795   5.898   1.960  1.3854 -0.2901  1.3897
  467TIP3    H223037   3.937   5.864   1.921  1.0531  1.3313 -1.4562
  468TIP3   OH223038   4.115   3.381   3.428  0.1474  0.0919  0.3953
  468TIP3    H123039   4.040   3.441   3.435 -0.0630  0.2217 -2.0887
  468TIP3    H223040   4.095   3.326   3.353  2.1684 -0.4425  0.1828
  469TIP3   OH223041   6.590   3.044   2.285 -0.3329  0.1748 -0.0499
  469TIP3    H123042   6.568   2.951   2.274 -0.1515  0.0044  0.9902
  469TIP3    H223043   6.504   3.088   2.288 -0.4527 -0.0873  0.5167
  470TIP3   OH223044   2.809   2.343   4.299 -0.5521  0.1425  0.1100
  470TIP3    H123045   2.785   2.305   4.383 -0.7272  1.1576  0.5391
  470TIP3    H223046   2.904   2.349   4.301 -0.6341  3.7089  1.9423
  471TIP3   OH223047   5.251   2.216   2.648  0.4519  1.0288  0.3950
  471TIP3    H123048   5.243   2.155   2.575  0.4583  1.3207  0.1533
  471TIP3    H223049   5.312   2.283   2.618  0.3985  1.1895  0.6395
  472TIP3   OH223050   4.114   1.951   2.039 -0.0677 -0.4717 -0.9199
  472TIP3    H123051   4.095   2.044   2.042  1.1482 -0.1816 -1.5720
  472TIP3    H223052   4.105   1.927   1.947 -0.6505 -1.0743 -0.7185
  473TIP3   OH223053   6.722   5.207   1.840  0.1876 -0.2448 -0.3404
  473TIP3    H123054   6.774   5.283   1.817 -0.0601 -0.8630 -3.2925
  473TIP3    H223055   6.740   5.193   1.933  1.6629  2.2689 -0.1625
  474TIP3   OH223056   1.231   6.244   1.755 -0.2026 -0.1435  0.0110
  474TIP3    H123057   1.309   6.296   1.738 -0.3954 -0.6611 -2.9265
  474TIP3    H223058   1.168   6.308   1.791  0.9904  0.6073  0.8542
  475TIP3   OH223059   0.575   6.284   2.534  0.0878 -0.2366 -0.0800
  475TIP3    H123060   0.548   6.317   2.620  1.9447  0.7270  0.1858
  475TIP3    H223061   0.582   6.362   2.480 -0.4630 -0.7756 -0.9460
  476TIP3   OH223062   3.958   5.026   4.756  0.6854 -1.0823  0.2541
  476TIP3    H123063   4.037   4.986   4.793  0.0987 -3.0089 -0.4717
  476TIP3    H223064   3.896   5.027   4.829  1.4008  0.6646  0.8963
  477TIP3   OH223065   2.824   5.819   2.727  0.6961  0.1235 -0.4086
  477TIP3    H123066   2.781   5.734   2.717 -0.5802  0.6646  0.2931
  477TIP3    H223067   2.848   5.822   2.820 -0.3256  1.0098 -0.1637
  478TIP3   OH223068   4.296   1.144   1.580  0.1381  0.5160 -0.2722
  478TIP3    H123069   4.252   1.229   1.585  0.1658  0.4870  0.5380
  478TIP3    H223070   4.343   1.136   1.662  0.5057 -0.0899 -0.5335
  479TIP3   OH223071   0.367   5.879   1.773 -0.1053  0.1961 -0.1756
  479TIP3    H123072   0.342   5.935   1.699 -0.4857  0.5484  0.2113
  479TIP3    H223073   0.330   5.794   1.752  2.5431 -0.6402 -1.9683
  480TIP3   OH223074   1.758   2.837   4.030 -0.0640  0.5434  0.3755
  480TIP3    H123075   1.666   2.863   4.023 -0.2459  0.0336  0.7731
  480TIP3    H223076   1.764   2.758   3.976  0.2536  0.8440 -0.0322
  481TIP3   OH223077   4.713   3.914   1.286 -0.2026  0.3822 -0.6754
  481TIP3    H123078   4.792   3.931   1.235 -1.4547  1.1517 -2.4281
  481TIP3    H223079   4.745   3.870   1.365  1.8943  0.0513 -1.6477
  482TIP3   OH223080   4.243   0.062   1.338  0.4368  0.1447 -0.2857
  482TIP3    H123081   4.264  -0.031   1.348  0.2038  0.3093  2.2771
  482TIP3    H223082   4.301   0.106   1.400 -1.8520  1.3356  1.1366
  483TIP3   OH223083   4.919   6.444   2.626  0.3781 -0.0158  0.1152
  483TIP3    H123084   4.887   6.514   2.682  1.9807 -0.0584  1.1584
  483TIP3    H223085   4.980   6.486   2.566  0.8651 -0.4174  0.3224
  484TIP3   OH223086   3.170   4.809   2.338 -0.3384  0.3099  0.2205
  484TIP3    H123087   3.225   4.883   2.365  0.6720 -0.3344 -0.0291
  484TIP3    H223088   3.088   4.823   2.385 -0.3559  1.8603 -0.1957
  485TIP3   OH223089   5.214   5.490   0.587 -0.1969 -0.5519  0.2795
  485TIP3    H123090   5.161   5.413   0.604 -0.6890 -0.0270  1.1838
  485TIP3    H223091   5.294   5.456   0.547  0.5183 -1.7355  2.5742
  486TIP3   OH223092   4.329   4.858   1.488  0.0497 -0.0397 -0.2913
  486TIP3    H123093   4.412   4.849   1.535  0.7627 -1.1963 -1.6692
  486TIP3    H223094   4.331   4.947   1.452  0.1394  0.3494  0.6637
  487TIP3   OH223095   2.520   6.659   1.145 -0.3222  0.0338 -0.2604
  487TIP3    H123096   2.426   6.671   1.149 -0.2790  0.4023 -0.2922
  487TIP3    H223097   2.534   6.565   1.158 -0.5715  0.2478  1.8015
  488TIP3   OH223098   5.279   5.969   1.649 -0.1726 -0.0852 -0.2687
  488TIP3    H123099   5.214   5.954   1.580 -0.0386  0.8501 -0.6047
  488TIP3    H223100   5.275   5.889   1.702 -0.0588 -0.9644 -1.5316
  489TIP3   OH223101   1.077   2.612   4.626 -0.1400  0.1934 -0.1842
  489TIP3    H123102   1.165   2.576   4.618  0.0227  0.5433  0.0131
  489TIP3    H223103   1.053   2.598   4.717  0.3680  1.5686  0.1903
  490TIP3   OH223104   2.902   0.551   3.298  0.0762  1.3544  0.3294
  490TIP3    H123105   2.886   0.465   3.337 -0.7399  2.2152  1.9963
  490TIP3    H223106   2.993   0.571   3.320  1.0166  0.0267 -1.9826
  491TIP3   OH223107   4.228   4.708   5.206 -0.1806 -0.3424 -0.1079
  491TIP3    H123108   4.320   4.685   5.209  0.2849  1.4449  0.4355
  491TIP3    H223109   4.185   4.647   5.265  0.5070 -1.7214 -0.9978
  492TIP3   OH223110   2.570   0.056   4.793 -0.2717  0.3549 -0.1742
  492TIP3    H123111   2.483   0.037   4.827 -0.0680  0.3695  0.3706
  492TIP3    H223112   2.587   0.146   4.820 -0.7844  0.9641 -1.7817
  493TIP3   OH223113   2.164   4.521   3.671  1.3190  0.5305 -0.5739
  493TIP3    H123114   2.103   4.581   3.629  1.3555  0.1656 -1.1599
  493TIP3    H223115   2.108   4.455   3.712  1.3156  0.2665 -1.0028
  494TIP3   OH223116   3.580   1.628   3.177  0.6095  0.3374  0.1687
  494TIP3    H123117   3.489   1.647   3.155  1.2871  1.6501 -1.8141
  494TIP3    H223118   3.575   1.566   3.250 -1.8605 -0.5506 -0.6460
  495TIP3   OH223119   0.968   2.268   4.159 -0.2152  0.0341 -0.1968
  495TIP3    H123120   0.888   2.289   4.111  0.1499 -1.5797 -1.6086
  495TIP3    H223121   0.996   2.351   4.198 -1.0233  1.2255 -2.0387
  496TIP3   OH223122   6.452   3.949   3.527 -0.0879  0.3290  0.3784
  496TIP3    H123123   6.540   3.962   3.563  0.0458  0.2230  0.0879
  496TIP3    H223124   6.402   3.914   3.601  0.5723 -1.3753  0.0702
  497TIP3   OH223125   3.566   5.453   3.022 -0.2040 -0.2611  0.2759
  497TIP3    H123126   3.647   5.456   3.073 -0.1009  0.1542  0.0885
  497TIP3    H223127   3.506   5.510   3.069 -0.7403 -1.3717  0.9995
  498TIP3   OH223128   1.965   2.460   4.124  0.1906  0.6303  0.1842
  498TIP3    H123129   1.894   2.398   4.143  0.5682 -0.4370 -1.6193
  498TIP3    H223130   1.929   2.545   4.148 -1.0635 -0.0752  0.9423
  499TIP3   OH223131   1.113   5.392   3.236 -0.7538 -0.5346 -0.4713
  499TIP3    H123132   1.088   5.317   3.289 -0.8460 -0.4119 -0.3410
  499TIP3    H223133   1.062   5.382   3.156 -2.5378  0.6152  0.4633
  500TIP3   OH223134   5.075   4.779   3.416  0.3986 -0.3077  0.3867
  500TIP3    H123135   5.000   4.830   3.384  0.4585 -1.2445 -1.3202
  500TIP3    H223136   5.066   4.783   3.511 -0.6271  1.3465  0.2747
  501TIP3   OH223137   6.013   1.415   5.183  0.3253  0.1625  0.4765
  501TIP3    H123138   5.922   1.393   5.162  0.2962  1.6680 -1.1665
  501TIP3    H223139   6.047   1.457   5.104  1.7112  1.8704  1.8909
  502TIP3   OH223140   2.885   5.616   4.342 -0.1944  0.5110  0.2042
  502TIP3    H123141   2.940   5.660   4.406  0.7208  0.6770 -0.6789
  502TIP3    H223142   2.870   5.529   4.379  2.1954 -0.2077 -0.3612
  503TIP3   OH223143   0.023   0.948   1.843  0.1145 -0.2142 -0.0645
  503TIP3    H123144   0.112   0.973   1.867 -0.2622  0.7078  0.4011
  503TIP3    H223145   0.035   0.881   1.776  1.2283 -2.4718  2.1909
  504TIP3   OH223146   2.143   3.879   4.883 -0.0109  0.1461 -0.0543
  504TIP3    H123147   2.050   3.864   4.896 -0.2849  0.6416 -1.2929
  504TIP3    H223148   2.181   3.791   4.877 -0.1076 -0.1014  2.0609
  505TIP3   OH223149   3.732   5.791   0.949 -0.0412 -0.1553  0.4458
  505TIP3    H123150   3.666   5.722   0.959 -0.9679  0.6304 -0.0158
  505TIP3    H223151   3.714   5.829   0.863  0.3391  0.7691  0.7639
  506TIP3   OH223152   1.810   4.222   2.096 -0.4694 -0.0227 -0.2884
  506TIP3    H123153   1.727   4.270   2.096 -0.7348 -0.4776  0.1296
  506TIP3    H223154   1.785   4.130   2.086 -0.2312 -0.4934  2.5303
  507TIP3   OH223155   5.791   1.711   1.114 -0.1979 -0.1513  0.7569
  507TIP3    H123156   5.751   1.748   1.035  0.3343 -0.0876  0.5143
  507TIP3    H223157   5.863   1.656   1.081  0.1041 -0.0230  1.2000
  508TIP3   OH223158   0.849   5.158   3.633  0.0051 -0.0730 -0.0016
  508TIP3    H123159   0.891   5.167   3.548  0.7827 -1.1266  0.2407
  508TIP3    H223160   0.895   5.084   3.674 -0.9399 -0.1371  0.9762
  509TIP3   OH223161   4.516   2.204   2.702  0.4702 -0.2665  0.5598
  509TIP3    H123162   4.607   2.209   2.730  0.8968  1.0441 -0.9354
  509TIP3    H223163   4.468   2.260   2.763  0.4372 -1.7491  1.9839
  510TIP3   OH223164   5.133   2.642   3.431 -0.7062 -0.4874 -0.6769
  510TIP3    H123165   5.172   2.554   3.438  0.6919  0.1149 -0.6142
  510TIP3    H223166   5.183   2.685   3.362  1.0535  1.4552  1.6492
  511TIP3   OH223167   4.934   5.573   1.446 -0.2462 -0.4768  0.2678
  511TIP3    H123168   4.936   5.556   1.541 -3.0425 -0.5078  0.3848
  511TIP3    H223169   5.018   5.539   1.415  0.2149 -1.6585  2.5524
  512TIP3   OH223170   1.202   6.301   3.988  0.4113  0.0915 -0.0812
  512TIP3    H123171   1.199   6.363   4.062 -0.3279 -0.0280 -0.0038
  512TIP3    H223172   1.190   6.357   3.911  4.1162  0.6491 -0.4186
  513TIP3   OH223173   4.277   2.928   1.892  0.4354 -0.1093  0.3437
  513TIP3    H123174   4.332   2.928   1.971  0.6839  0.4372  0.1726
  513TIP3    H223175   4.319   2.991   1.833  0.9845 -1.4253 -0.7440
  514TIP3   OH223176   2.468   6.651   1.497 -0.5002 -0.8531 -0.1638
  514TIP3    H123177   2.478   6.561   1.465  0.2854 -0.5311 -0.8673
  514TIP3    H223178   2.533   6.660   1.566  3.0934  0.5986 -3.3393
  515TIP3   OH223179   1.821   3.619   2.972 -0.0232  0.3229 -0.3633
  515TIP3    H123180   1.909   3.582   2.968  0.3113  0.8457  1.2560
  515TIP3    H223181   1.818   3.681   2.899  1.4876  1.3693  0.4083
  516TIP3   OH223182   3.804   4.842   2.089 -0.5016  0.1353 -0.2351
  516TIP3    H123183   3.807   4.907   2.159  1.6329 -0.9264  0.7536
  516TIP3    H223184   3.882   4.788   2.103 -0.9839 -1.2387 -2.3683
  517TIP3   OH223185   5.808   1.244   2.289  0.5191  0.4899  0.0486
  517TIP3    H123186   5.770   1.258   2.376 -0.3006 -0.5447 -0.1174
  517TIP3    H223187   5.769   1.312   2.234  1.5668  1.5792  0.6272
  518TIP3   OH223188   3.683   5.033   3.014 -0.3203  0.2979  0.2242
  518TIP3    H123189   3.603   5.025   3.068 -0.9537 -0.3631 -0.7798
  518TIP3    H223190   3.661   5.099   2.949  0.2526  0.7077  0.4443
  519TIP3   OH223191   1.663   2.269   3.254 -0.2435 -0.0461 -0.0771
  519TIP3    H123192   1.712   2.255   3.173  2.6027  2.5181  0.9895
  519TIP3    H223193   1.581   2.310   3.225  0.1096 -0.4022 -1.7138
  520TIP3   OH223194   6.412   6.394   1.503  0.1487 -0.1036 -0.6075
  520TIP3    H123195   6.490   6.338   1.508 -0.2238 -0.5591  0.4295
  520TIP3    H223196   6.343   6.341   1.543 -0.4022  0.7800 -0.3788
  521TIP3   OH223197   5.463   6.197   1.470  0.7744  0.1232  0.2787
  521TIP3    H123198   5.369   6.194   1.490  0.7241 -1.6254 -0.0961
  521TIP3    H223199   5.471   6.267   1.405 -0.1616  0.7302  0.7865
  522TIP3   OH223200   1.304   4.085   0.187 -0.1817  0.1509 -0.0188
  522TIP3    H123201   1.222   4.123   0.157  0.3420  1.6231  0.3044
  522TIP3    H223202   1.306   3.998   0.148 -2.0397 -0.0575  0.2368
  523TIP3   OH223203   3.331   1.324   2.004  0.1550 -0.4633  0.2419
  523TIP3    H123204   3.272   1.394   2.035  0.0963  0.0077 -0.8833
  523TIP3    H223205   3.417   1.349   2.038 -0.2214 -0.9644  1.5957
  524TIP3   OH223206   6.305   6.748   2.297  0.1180 -0.3831  0.2317
  524TIP3    H123207   6.331   6.768   2.387  1.0600 -1.5191  0.2169
  524TIP3    H223208   6.228   6.804   2.282  1.4501  1.7239  0.8638
  525TIP3   OH223209   4.557   4.290   1.252  0.4865  0.0141  0.1181
  525TIP3    H123210   4.585   4.236   1.179  0.9293 -0.5617  0.7076
  525TIP3    H223211   4.464   4.272   1.262  0.4170  0.1286 -0.3299
  526TIP3   OH223212   4.151   0.817   1.513 -0.5693 -0.4519 -0.2249
  526TIP3    H123213   4.072   0.871   1.509 -0.0366  0.3505 -0.2097
  526TIP3    H223214   4.212   0.868   1.567 -0.5072 -1.6852  0.9205
  527TIP3   OH223215   5.324   0.480   1.244  0.0586 -0.2316 -0.2088
  527TIP3    H123216   5.390   0.412   1.227 -1.5451 -2.1029  0.5744
  527TIP3    H223217   5.265   0.475   1.168 -0.3887 -0.1214  0.1283
  528TIP3   OH223218   4.635   0.107   5.154  0.8174 -0.0146 -0.0198
  528TIP3    H123219   4.566   0.168   5.129  1.4976  0.6833 -0.2359
  528TIP3    H223220   4.596   0.054   5.223 -0.6729 -1.1109 -1.6131
  529TIP3   OH223221   0.919   5.279   2.464 -0.0428  0.5637  0.6684
  529TIP3    H123222   0.998   5.254   2.417  0.5762 -0.0572  1.9768
  529TIP3    H223223   0.848   5.264   2.402  0.3670 -3.4204  0.9096
  530TIP3   OH223224   5.918   3.416   1.728  0.6110 -0.3534 -0.2806
  530TIP3    H123225   5.940   3.481   1.795  2.5409 -1.4440  0.2047
  530TIP3    H223226   5.846   3.366   1.766  0.6410  0.0490  0.3145
  531TIP3   OH223227   5.957   4.380   1.939 -0.7289  0.0083  0.0190
  531TIP3    H123228   5.987   4.463   1.974 -0.9081 -0.3290  1.0173
  531TIP3    H223229   5.981   4.315   2.006 -1.5473 -0.5886 -0.2430
  532TIP3   OH223230   5.496   4.414   4.417  0.0845  0.7553 -0.2487
  532TIP3    H123231   5.556   4.382   4.484 -0.0905 -0.6627 -0.7344
  532TIP3    H223232   5.552   4.460   4.355  0.9037 -1.4984 -1.2847
  533TIP3   OH223233   2.703   6.550   4.854  0.3008  0.1816 -0.3846
  533TIP3    H123234   2.653   6.567   4.774  0.5541  0.4728 -0.4818
  533TIP3    H223235   2.786   6.595   4.840  0.1042  0.7777  0.3130
  534TIP3   OH223236   0.901   0.195   3.321 -0.7834 -0.9713 -0.3152
  534TIP3    H123237   0.858   0.223   3.402 -1.2891 -1.2677 -0.4758
  534TIP3    H223238   0.922   0.102   3.336 -1.1068 -1.0961 -0.6135
  535TIP3   OH223239   5.381   4.442   3.009  0.1591  0.2967  0.7214
  535TIP3    H123240   5.387   4.397   2.924  1.4266 -0.9881  1.4400
  535TIP3    H223241   5.288   4.465   3.017 -0.2894 -0.9907 -0.3169
  536TIP3   OH223242   0.469   3.979   1.495 -0.1371  0.3924 -0.6399
  536TIP3    H123243   0.544   3.999   1.439 -0.0855 -0.0220 -0.7209
  536TIP3    H223244   0.505   3.978   1.584  0.4050 -1.8500 -0.8308
  537TIP3   OH223245   0.239   5.517   1.540  0.5889 -0.1384 -0.3372
  537TIP3    H123246   0.188   5.480   1.468  2.1499  1.1052 -2.1837
  537TIP3    H223247   0.183   5.586   1.576 -0.7869 -1.7038  0.6398
  538TIP3   OH223248   5.111   3.378   3.878  0.0201  0.1856  0.2737
  538TIP3    H123249   5.113   3.471   3.902 -0.9283  0.1417  0.5953
  538TIP3    H223250   5.094   3.378   3.784 -0.3597  0.3439  0.3391
  539TIP3   OH223251   1.379   6.716   5.046  0.2399 -0.7236  0.0825
  539TIP3    H123252   1.363   6.726   5.140 -0.0277  0.5833 -0.0808
  539TIP3    H223253   1.448   6.780   5.027  1.0324 -1.6984 -0.4403
  540TIP3   OH223254   0.137   5.400   1.947  0.0789 -0.4718  0.7018
  540TIP3    H123255   0.183   5.321   1.974  1.0104  0.2478  1.3025
  540TIP3    H223256   0.135   5.455   2.026 -0.0846  0.3227  0.1622
  541TIP3   OH223257   3.765   4.582   3.822 -0.2886 -0.0145 -0.3447
  541TIP3    H123258   3.742   4.649   3.886  0.0590  0.7990 -1.0608
  541TIP3    H223259   3.692   4.520   3.825 -1.1525  0.9816 -0.4752
  542TIP3   OH223260   6.283   2.964   1.646  0.0771 -0.2073  0.1750
  542TIP3    H123261   6.267   3.015   1.725 -0.8444 -0.7057  0.3223
  542TIP3    H223262   6.376   2.942   1.651  0.4754  1.3633  0.1451
  543TIP3   OH223263   2.713   6.148   2.115  0.5751 -0.2639 -0.1889
  543TIP3    H123264   2.629   6.156   2.069  0.9544 -0.4738 -0.9319
  543TIP3    H223265   2.698   6.193   2.198 -0.3940 -0.6311 -0.1414
  544TIP3   OH223266   1.079   6.218   4.576 -0.0093  0.3488  0.2014
  544TIP3    H123267   1.111   6.277   4.508  2.2852 -2.5437 -1.4809
  544TIP3    H223268   1.153   6.209   4.637 -0.1204 -1.0202  0.1728
  545TIP3   OH223269   0.865   4.291   5.470  0.5726 -0.2575 -0.3254
  545TIP3    H123270   0.810   4.343   5.411  0.3772  2.4350  1.9713
  545TIP3    H223271   0.802   4.246   5.527  0.7396 -0.1280 -0.0369
  546TIP3   OH223272   1.800   0.462   1.122  0.0988  0.1887 -0.1040
  546TIP3    H123273   1.709   0.474   1.094 -0.0527  3.3324  1.3028
  546TIP3    H223274   1.794   0.424   1.209  0.0094  1.5762  0.5247
  547TIP3   OH223275   1.795   1.298   0.462 -0.3696  0.2287 -0.3269
  547TIP3    H123276   1.870   1.351   0.490  0.5464 -0.1597 -1.9332
  547TIP3    H223277   1.767   1.253   0.542  0.8731  0.6603  0.3882
  548TIP3   OH223278   1.785   4.670   1.827 -0.0782 -0.6834 -0.0524
  548TIP3    H123279   1.837   4.700   1.753 -0.2230 -0.8810 -0.2347
  548TIP3    H223280   1.828   4.588   1.854  1.2721  0.4367  1.4282
  549TIP3   OH223281   3.562   1.898   3.111 -0.2993 -0.4749  0.0329
  549TIP3    H123282   3.471   1.894   3.141  0.3314 -0.1378  2.1175
  549TIP3    H223283   3.603   1.819   3.148  0.3997 -0.3133 -0.3835
  550TIP3   OH223284   2.535   1.839   3.150  0.1704 -0.0537  0.4426
  550TIP3    H123285   2.546   1.808   3.060  0.2742  0.0535  0.4169
  550TIP3    H223286   2.617   1.886   3.169 -0.1805  0.6302  0.3073
  551TIP3   OH223287   4.502   1.515   2.285 -0.1259 -0.2183  0.0272
  551TIP3    H123288   4.473   1.548   2.370  0.0181  0.0381 -0.0237
  551TIP3    H223289   4.428   1.464   2.253 -0.6841  0.7810 -0.2965
  552TIP3   OH223290   1.541   4.685   3.297  0.7450 -0.7174  0.2866
  552TIP3    H123291   1.494   4.694   3.380  2.6470  1.4005  1.2487
  552TIP3    H223292   1.584   4.770   3.285  1.6103 -1.4273 -2.2071
  553TIP3   OH223293   3.131   1.100   3.246  0.2250 -0.1824 -0.0257
  553TIP3    H123294   3.114   1.130   3.336 -1.3186 -0.7001 -0.1162
  553TIP3    H223295   3.161   1.179   3.200 -0.7032  0.5057  0.5148
  554TIP3   OH223296   4.297   5.902   1.486  0.1991 -0.5670 -0.5670
  554TIP3    H123297   4.345   5.821   1.467 -0.5211 -1.2871  0.5383
  554TIP3    H223298   4.205   5.878   1.478 -0.0577 -0.1745  0.8412
  555TIP3   OH223299   0.213   6.580   3.377 -0.3895 -0.2730 -0.5399
  555TIP3    H123300   0.179   6.607   3.291 -2.2064  1.2339  0.5870
  555TIP3    H223301   0.138   6.587   3.436  0.4618 -2.5668  0.9749
  556TIP3   OH223302   4.500   5.828   5.289 -0.6138 -0.1355  0.4346
  556TIP3    H123303   4.593   5.820   5.312 -0.3588  1.4299  0.0843
  556TIP3    H223304   4.472   5.908   5.334 -1.5910 -0.1695 -0.1078
  557TIP3   OH223305   1.092   5.994   2.043 -0.0710 -0.2706 -0.5643
  557TIP3    H123306   1.084   6.086   2.065 -1.0861 -0.1824 -1.2387
  557TIP3    H223307   1.137   5.954   2.118 -0.4846  0.5884  0.1478
  558TIP3   OH223308   3.968   0.085   4.432  0.2286 -0.1343  0.0482
  558TIP3    H123309   3.942   0.158   4.488 -1.5312 -1.5816  1.2034
  558TIP3    H223310   3.965   0.008   4.489  2.9147 -1.0645 -0.8999
  559TIP3   OH223311   4.171   2.995   4.551  0.0337 -0.6699 -0.3297
  559TIP3    H123312   4.105   2.927   4.568  0.4196 -0.6541  1.4822
  559TIP3    H223313   4.122   3.065   4.509 -1.2735 -0.4498  1.4212
  560TIP3   OH223314   0.562   0.500   0.721  0.0287 -0.8507 -0.1172
  560TIP3    H123315   0.649   0.516   0.686  0.5605  0.0021  1.4757
  560TIP3    H223316   0.539   0.580   0.768 -1.7997 -0.9069 -0.8314
  561TIP3   OH223317   1.811   0.703   4.315 -0.3000  0.4937 -0.5412
  561TIP3    H123318   1.881   0.765   4.292 -0.5469  1.4022  0.9991
  561TIP3    H223319   1.734   0.736   4.270 -0.1983  0.6958 -0.5680
  562TIP3   OH223320   4.105   0.783   2.079 -0.1985 -0.1209  0.3676
  562TIP3    H123321   4.033   0.826   2.034 -0.0071  0.8200  0.9346
  562TIP3    H223322   4.162   0.750   2.009 -0.5135  0.2575 -0.0698
  563TIP3   OH223323   1.804   2.856   0.504  0.1161  0.2231  0.1688
  563TIP3    H123324   1.868   2.808   0.556 -0.6208 -0.3764  0.5458
  563TIP3    H223325   1.722   2.848   0.553 -0.5707 -0.2734 -1.0095
  564TIP3   OH223326   2.891   4.668   2.722 -0.3270 -0.6909 -0.7261
  564TIP3    H123327   2.953   4.737   2.747  1.1412 -1.0887 -3.0043
  564TIP3    H223328   2.945   4.601   2.680 -1.9770 -2.4167 -0.2458
  565TIP3   OH223329   1.800   4.478   4.162 -0.4199  0.5467 -0.0547
  565TIP3    H123330   1.795   4.573   4.149  2.6235  1.0707  1.6601
  565TIP3    H223331   1.834   4.445   4.079 -0.6332  1.0564 -0.3521
  566TIP3   OH223332   1.692   5.018   4.262  0.0532 -0.0935 -0.1449
  566TIP3    H123333   1.696   5.099   4.212 -0.6279  0.0912  0.0837
  566TIP3    H223334   1.617   4.971   4.225  0.3305 -0.5369 -0.1520
  567TIP3   OH223335   1.726   0.252   2.474  0.2981 -0.2253  0.1046
  567TIP3    H123336   1.748   0.161   2.495 -1.6647 -0.7225  0.1590
  567TIP3    H223337   1.806   0.301   2.495  1.7702 -2.0509 -0.9820
  568TIP3   OH223338   1.928   1.811   4.230 -0.3085  0.5452  0.4972
  568TIP3    H123339   1.852   1.868   4.220  0.1152  0.9896 -0.2247
  568TIP3    H223340   1.914   1.740   4.168 -0.7719 -0.0869  1.3037
  569TIP3   OH223341   3.098   1.734   3.968  0.4348  0.3670  0.5127
  569TIP3    H123342   3.005   1.756   3.973  0.5111  0.4903  1.9641
  569TIP3    H223343   3.130   1.745   4.058  1.5101 -1.1563  0.3661
  570TIP3   OH223344   1.541   0.488   3.558 -0.2736 -0.1157 -0.7740
  570TIP3    H123345   1.625   0.494   3.602 -1.3781  1.6305  1.2691
  570TIP3    H223346   1.476   0.487   3.628 -2.0065 -3.6462 -2.1431
  571TIP3   OH223347   4.026   5.525   2.233  0.0760  0.1798 -0.2334
  571TIP3    H123348   3.958   5.533   2.301 -0.7420  0.1763 -1.0322
  571TIP3    H223349   4.099   5.576   2.267  1.5296 -3.4851  2.8476
  572TIP3   OH223350   0.000   2.748   3.489  0.2714  0.6411  0.3255
  572TIP3    H123351   0.028   2.667   3.446 -2.7763  0.5452 -1.7747
  572TIP3    H223352   0.063   2.814   3.458  0.0835 -0.0781 -1.7783
  573TIP3   OH223353   1.312   0.014   0.878  0.3467  0.1518  0.1551
  573TIP3    H123354   1.352  -0.063   0.837 -0.4445 -0.4889  0.5430
  573TIP3    H223355   1.250   0.046   0.812  2.4320  2.0069 -1.0308
  574TIP3   OH223356   6.643   5.804   3.408 -0.5385 -0.1804 -0.2009
  574TIP3    H123357   6.696   5.828   3.484  0.4798 -0.0323 -0.9524
  574TIP3    H223358   6.553   5.819   3.437 -0.3176 -1.7683  1.5954
  575TIP3   OH223359   5.075   5.230   2.081 -0.5492 -0.1922 -0.3035
  575TIP3    H123360   5.162   5.203   2.054 -1.2263 -0.6909 -2.1490
  575TIP3    H223361   5.030   5.149   2.103 -0.7878 -0.0192 -0.1410
  576TIP3   OH223362   3.611   1.215   1.480  0.4157  0.0378 -0.3242
  576TIP3    H123363   3.666   1.283   1.441  2.4708 -0.0221  2.1600
  576TIP3    H223364   3.540   1.263   1.523  1.7609  0.7177  1.2720
  577TIP3   OH223365   5.638   1.182   4.768  0.0752  0.0107 -0.7588
  577TIP3    H123366   5.602   1.095   4.750  1.4016 -0.5251 -0.9106
  577TIP3    H223367   5.714   1.190   4.710  0.6777  0.7872  0.1036
  578TIP3   OH223368   3.652   6.745   0.653  0.4187 -0.2860  0.1264
  578TIP3    H123369   3.569   6.784   0.682  0.2924  0.6187 -1.3570
  578TIP3    H223370   3.716   6.774   0.718 -0.2821 -0.3717  0.8737
  579TIP3   OH223371   3.265   2.218   2.284  0.1892  0.5327  0.2264
  579TIP3    H123372   3.232   2.214   2.194 -2.3550  1.1111  1.0481
  579TIP3    H223373   3.278   2.127   2.309 -2.5726  0.0982  0.3816
  580TIP3   OH223374   4.262   2.570   3.951 -0.4377  0.1547  0.2443
  580TIP3    H123375   4.176   2.609   3.966 -0.3685  0.4478 -0.0772
  580TIP3    H223376   4.312   2.641   3.909  0.7554  0.8352  2.6719
  581TIP3   OH223377   3.847   5.358   3.642 -0.1040 -0.1437  0.0627
  581TIP3    H123378   3.854   5.298   3.717 -0.0396  0.7788  0.8116
  581TIP3    H223379   3.926   5.342   3.591 -0.1442 -0.7802  0.1910
  582TIP3   OH223380   4.793   2.186   1.159 -0.3455  0.9766  0.6547
  582TIP3    H123381   4.724   2.125   1.133  1.4879 -0.8414 -0.2170
  582TIP3    H223382   4.812   2.163   1.249  1.6056 -1.1216 -0.2150
  583TIP3   OH223383   6.762   1.228   5.524 -0.6851 -0.0354  0.1639
  583TIP3    H123384   6.827   1.283   5.480  0.3869 -0.1689  1.4988
  583TIP3    H223385   6.749   1.154   5.464 -1.6657  1.3159 -1.3497
  584TIP3   OH223386   3.868   2.036   2.968 -0.2671  0.1806 -0.1665
  584TIP3    H123387   3.958   2.019   2.938 -0.3659  0.3569 -0.5709
  584TIP3    H223388   3.879   2.073   3.055  0.0596  0.3242 -0.2658
  585TIP3   OH223389   0.320   4.916   2.402  0.1592  0.1155  0.2909
  585TIP3    H123390   0.371   4.839   2.380 -0.8351 -0.1501 -1.2195
  585TIP3    H223391   0.263   4.887   2.473  0.8336 -0.0923  0.7569
  586TIP3   OH223392   5.057   5.118   4.263  0.4672  0.1999  0.0217
  586TIP3    H123393   5.144   5.094   4.294  0.3991 -2.1462 -1.3263
  586TIP3    H223394   5.000   5.048   4.296 -0.6601  0.9176 -0.3352
  587TIP3   OH223395   5.116   3.483   2.028 -0.1499  0.0679 -0.5663
  587TIP3    H123396   5.079   3.402   1.992 -0.7148  1.2905 -2.9529
  587TIP3    H223397   5.184   3.453   2.088 -1.5473 -2.1790  0.0371
  588TIP3   OH223398   0.602   1.250   0.763  0.1701  0.0793  0.1725
  588TIP3    H123399   0.560   1.166   0.785 -0.7838  0.9984  2.1880
  588TIP3    H223400   0.688   1.245   0.805  0.4257 -0.1769 -0.3732
  589TIP3   OH223401   6.504   1.494   0.803 -0.0078  0.9021  0.2695
  589TIP3    H123402   6.553   1.572   0.777  0.6661  1.3546  2.6486
  589TIP3    H223403   6.543   1.467   0.886 -1.2272 -1.0887  0.2732
  590TIP3   OH223404   2.588   6.224   4.897 -0.3328  0.0055 -0.1099
  590TIP3    H123405   2.545   6.243   4.981  0.4010  0.6111  0.1382
  590TIP3    H223406   2.516   6.216   4.835 -0.9695 -1.5866  0.7719
  591TIP3   OH223407   5.921   3.091   3.433  0.4881 -0.1414 -0.0619
  591TIP3    H123408   5.948   3.166   3.380  1.1704  0.1549  0.6881
  591TIP3    H223409   5.943   3.115   3.523  2.5310 -1.9828  0.0137
  592TIP3   OH223410   5.439   4.588   1.180 -0.4572  0.3066 -0.0105
  592TIP3    H123411   5.349   4.565   1.156 -0.2227 -0.8380  0.1884
  592TIP3    H223412   5.491   4.564   1.103  0.1590 -2.4295  1.1575
  593TIP3   OH223413   2.897   2.724   0.211 -0.3299  0.7714 -0.0841
  593TIP3    H123414   2.991   2.727   0.192 -0.3591 -3.1893 -1.8463
  593TIP3    H223415   2.888   2.653   0.274 -2.2640 -0.6443 -1.8237
  594TIP3   OH223416   6.582   1.823   1.429 -0.1289  0.0461  0.0626
  594TIP3    H123417   6.607   1.898   1.483  1.2461  2.9562 -4.1407
  594TIP3    H223418   6.487   1.824   1.428 -0.1334  1.2121  0.7225
  595TIP3   OH223419   1.857   4.942   1.104 -0.2373 -0.3022 -0.0815
  595TIP3    H123420   1.832   4.990   1.183 -0.2452 -0.0604 -0.2318
  595TIP3    H223421   1.786   4.960   1.042 -1.3704 -2.2222  0.5534
  596TIP3   OH223422   1.475   1.936   1.319 -0.2126 -0.0349 -0.0233
  596TIP3    H123423   1.507   1.946   1.229  0.6868 -1.9293  0.0395
  596TIP3    H223424   1.553   1.942   1.373 -0.1009 -2.8325  0.2799
  597TIP3   OH223425   5.021   0.711   4.203  0.4362 -0.5949  0.2016
  597TIP3    H123426   5.024   0.616   4.194 -1.0684 -0.9499  2.7340
  597TIP3    H223427   4.936   0.736   4.164  1.5802  0.0295 -2.1153
  598TIP3   OH223428   3.748   4.236   1.637 -0.1862 -0.3580  0.8724
  598TIP3    H123429   3.689   4.215   1.709 -2.3848  0.1183 -0.6910
  598TIP3    H223430   3.731   4.328   1.618  1.6342  0.0193  0.8129
  599TIP3   OH223431   0.512   2.141   4.627  0.9544  0.0379  0.0214
  599TIP3    H123432   0.431   2.148   4.575  1.0303 -2.2325 -0.5129
  599TIP3    H223433   0.487   2.172   4.714 -0.3339 -0.0945 -0.2746
  600TIP3   OH223434   6.371   2.144   5.113  0.1075  0.5919 -1.2131
  600TIP3    H123435   6.302   2.111   5.170  0.8507 -1.4213 -1.4152
  600TIP3    H223436   6.376   2.238   5.134 -1.2231  0.3659  0.3103
  601TIP3   OH223437   2.311   5.797   4.348  0.2719  0.3819  0.6268
  601TIP3    H123438   2.235   5.815   4.292 -0.8100  0.2967  2.0122
  601TIP3    H223439   2.385   5.834   4.300 -0.7849  1.4131 -0.2801
  602TIP3   OH223440   2.039   4.321   0.940 -0.2836 -0.0316  0.1264
  602TIP3    H123441   1.951   4.329   0.977 -1.0494  1.9723 -1.8759
  602TIP3    H223442   2.092   4.383   0.991 -0.3378 -0.3008  0.5125
  603TIP3   OH223443   3.988   6.561   2.812  0.4630 -0.3284  0.2089
  603TIP3    H123444   3.954   6.473   2.795 -1.6510  0.5269 -0.3222
  603TIP3    H223445   4.049   6.549   2.885 -0.4913 -2.1215  0.7870
  604TIP3   OH223446   2.878   0.589   5.720  0.0338  0.1253 -0.4708
  604TIP3    H123447   2.842   0.504   5.695 -1.2574  0.5917 -0.2575
  604TIP3    H223448   2.971   0.572   5.735 -0.7243 -2.1273  3.1053
  605TIP3   OH223449   4.718   2.915   5.201 -0.3033 -0.3645  0.3003
  605TIP3    H123450   4.670   2.852   5.254  0.3763  0.0827  1.4848
  605TIP3    H223451   4.681   3.000   5.226  0.1579 -0.1344  0.2096
  606TIP3   OH223452   3.183   1.006   1.197 -0.9682 -0.2796 -0.4225
  606TIP3    H123453   3.105   1.036   1.245 -1.4592  0.6533 -1.7569
  606TIP3    H223454   3.211   1.082   1.146  0.3724 -0.8386 -0.5549
  607TIP3   OH223455   1.663   4.249   1.422  0.3167  0.2819 -0.1148
  607TIP3    H123456   1.607   4.189   1.372  0.4952 -0.1864  0.2370
  607TIP3    H223457   1.604   4.321   1.446 -0.8420 -1.3099  2.2826
  608TIP3   OH223458   5.064   2.507   1.849 -0.3419  0.4098 -0.2562
  608TIP3    H123459   5.137   2.483   1.906 -0.3143 -0.6923 -0.7157
  608TIP3    H223460   5.008   2.562   1.902  0.3646  0.5093  0.3969
  609TIP3   OH223461   4.049   0.374   3.068  0.0910  0.0452  0.1932
  609TIP3    H123462   4.096   0.400   3.147 -0.7407  1.0130  0.3887
  609TIP3    H223463   4.034   0.455   3.020 -2.5149  0.0184  0.7889
  610TIP3   OH223464   4.515   0.649   3.878  1.3931 -0.3192 -0.1184
  610TIP3    H123465   4.506   0.683   3.968 -2.5045 -2.0623  0.3973
  610TIP3    H223466   4.512   0.554   3.889 -0.6325 -0.5665 -2.0645
  611TIP3   OH223467   6.538   1.580   2.362  0.2043 -0.2867  0.3451
  611TIP3    H123468   6.555   1.641   2.290 -0.7978  1.0054  1.1494
  611TIP3    H223469   6.536   1.494   2.321 -0.1984  0.4092 -1.1669
  612TIP3   OH223470   5.838   0.143   1.502  0.1327 -0.1666  0.1506
  612TIP3    H123471   5.890   0.222   1.487 -0.7064  0.0000 -2.2159
  612TIP3    H223472   5.862   0.116   1.591  2.7927  0.9668 -0.1271
  613TIP3   OH223473   0.837   1.093   4.645 -0.3140 -0.4174  0.0832
  613TIP3    H123474   0.871   1.012   4.684  1.1308  0.3688  0.5445
  613TIP3    H223475   0.746   1.098   4.675 -0.4599 -1.9094 -0.0462
  614TIP3   OH223476   1.340   1.684   2.911 -0.1298  0.2077  0.3817
  614TIP3    H123477   1.268   1.652   2.965 -0.7317  1.2470  0.2236
  614TIP3    H223478   1.345   1.623   2.838 -0.5340 -0.1436  0.6454
  615TIP3   OH223479   6.011   5.804   2.377  0.2979  0.1712  0.3083
  615TIP3    H123480   6.029   5.777   2.287  1.5607  0.1290  0.5500
  615TIP3    H223481   5.934   5.753   2.403 -3.3297  3.6438 -2.3325
  616TIP3   OH223482   2.574   0.268   0.882  0.0082 -0.0410  0.2704
  616TIP3    H123483   2.515   0.206   0.839  0.3825 -1.3809  1.5894
  616TIP3    H223484   2.576   0.239   0.974  1.8714  0.6148  0.4808
  617TIP3   OH223485   5.104   6.227   2.739  0.1741 -0.3963 -0.0458
  617TIP3    H123486   5.094   6.255   2.648  0.6969 -0.3957 -0.1027
  617TIP3    H223487   5.063   6.298   2.790  0.5209 -0.0449 -0.2468
  618TIP3   OH223488   0.598   4.409   3.847 -0.0516  0.1542  0.1054
  618TIP3    H123489   0.524   4.348   3.844  0.2262 -0.1616 -1.2723
  618TIP3    H223490   0.603   4.437   3.938 -0.5221 -1.4757  0.6697
  619TIP3   OH223491   6.286   2.852   3.595 -0.5951 -0.3723 -0.1455
  619TIP3    H123492   6.356   2.865   3.531  0.9283  1.1555  1.6948
  619TIP3    H223493   6.272   2.938   3.634 -1.7633 -1.1403  1.2441
  620TIP3   OH223494   1.140   1.516   3.570  0.1558  0.5153  0.1144
  620TIP3    H123495   1.071   1.539   3.508 -2.2210 -0.5421  2.1978
  620TIP3    H223496   1.112   1.554   3.653  2.5686  0.7798  0.8989
  621TIP3   OH223497   3.296   4.331   5.013  0.1230  0.0137  0.1002
  621TIP3    H123498   3.311   4.418   5.049 -1.4803  1.0904 -1.7158
  621TIP3    H223499   3.263   4.280   5.087 -0.0003  1.2368  0.9144
  622TIP3   OH223500   0.738   4.699   2.157  0.0744  0.2806 -0.2974
  622TIP3    H123501   0.667   4.691   2.221  0.7040 -1.4045  0.2504
  622TIP3    H223502   0.733   4.619   2.105  1.7191 -0.0034 -0.0796
  623TIP3   OH223503   2.571   4.384   2.327  0.9842  0.4069 -0.2150
  623TIP3    H123504   2.636   4.404   2.259  1.0652  0.1962 -0.1995
  623TIP3    H223505   2.622   4.345   2.398  0.5533 -2.0839 -1.1744
  624TIP3   OH223506   2.177   4.280   1.993  0.2604 -0.1682 -0.2592
  624TIP3    H123507   2.106   4.272   2.056  0.4826 -0.5412 -0.0523
  624TIP3    H223508   2.214   4.367   2.008 -0.6302  0.3372 -0.8764
  625TIP3   OH223509   1.184   5.458   1.014  0.3920 -0.2003 -0.1237
  625TIP3    H123510   1.184   5.394   1.085  2.0042  0.1241  0.2269
  625TIP3    H223511   1.093   5.485   1.005 -0.2213 -2.0749  0.1343
  626TIP3   OH223512   2.214   1.119   1.121 -0.1512  0.2227  0.2104
  626TIP3    H123513   2.287   1.168   1.082  0.8295 -1.0854  0.3275
  626TIP3    H223514   2.146   1.185   1.134  1.2857  1.6917  0.8282
  627TIP3   OH223515   0.852   1.929   1.587  0.1065  0.1764 -0.2266
  627TIP3    H123516   0.902   1.930   1.505 -0.4481  0.8449 -0.5726
  627TIP3    H223517   0.786   1.861   1.573 -1.5221  1.8691 -1.3284
  628TIP3   OH223518   5.699   1.478   2.194  0.2342 -0.0107 -0.0198
  628TIP3    H123519   5.711   1.573   2.196  2.5480 -0.2611  0.4862
  628TIP3    H223520   5.636   1.463   2.123  1.1415  1.8030 -1.2954
  629TIP3   OH223521   5.556   3.228   2.598  0.0047  0.6248  0.3800
  629TIP3    H123522   5.526   3.219   2.689 -0.0158 -1.0544  0.2371
  629TIP3    H223523   5.642   3.186   2.597 -0.2621  0.0818 -0.5069
  630TIP3   OH223524   5.031   2.029   2.033 -0.5923 -0.0475  0.1340
  630TIP3    H123525   4.967   1.962   2.055 -0.4306 -0.1126  0.4198
  630TIP3    H223526   5.082   1.992   1.961 -1.2121  0.2202 -0.4525
  631TIP3   OH223527   2.129   5.701   0.874  0.1479 -0.8243  0.2701
  631TIP3    H123528   2.122   5.793   0.846 -1.3310 -1.5037 -1.7620
  631TIP3    H223529   2.210   5.671   0.834  0.8959 -0.3292  1.3393
  632TIP3   OH223530   0.199   0.242   3.652  0.0279  0.5458  0.1814
  632TIP3    H123531   0.188   0.337   3.664 -2.1434  0.4009 -0.2255
  632TIP3    H223532   0.151   0.204   3.726  1.1954 -0.2580  0.5454
  633TIP3   OH223533   1.360   4.736   0.966  1.4129  0.2801  0.0419
  633TIP3    H123534   1.331   4.826   0.975  1.1391  0.2540 -0.5102
  633TIP3    H223535   1.434   4.740   0.907  0.1744 -0.0464 -1.6145
  634TIP3   OH223536   5.511   5.091   3.191  0.2479 -0.8000  0.0373
  634TIP3    H123537   5.603   5.080   3.167  0.2487 -0.6509 -0.0320
  634TIP3    H223538   5.466   5.099   3.107 -0.1604 -3.3042 -0.0401
  635TIP3   OH223539   6.104   4.579   1.288  0.5690  0.2131  0.2877
  635TIP3    H123540   6.200   4.574   1.286  0.8204  3.1436 -1.9631
  635TIP3    H223541   6.085   4.652   1.347 -0.3634 -0.7787  1.2513
  636TIP3   OH223542   1.113   1.045   3.697 -0.0980  0.2755 -0.0467
  636TIP3    H123543   1.193   1.025   3.745  0.6185  0.4163 -1.1315
  636TIP3    H223544   1.043   1.043   3.763  1.1664  3.1237  1.5723
  637TIP3   OH223545   3.983   3.294   1.125  0.3746 -0.0128  0.0308
  637TIP3    H123546   3.899   3.253   1.108  0.3207 -0.0724  0.4128
  637TIP3    H223547   4.048   3.232   1.091  0.3032 -0.5545  0.8448
  638TIP3   OH223548   3.600   6.157   3.562 -0.7091 -0.3796 -0.1656
  638TIP3    H123549   3.588   6.155   3.657  2.6028  2.2869  0.5023
  638TIP3    H223550   3.544   6.229   3.533  0.3781  0.6795  0.2717
  639TIP3   OH223551   0.975   4.059   4.276 -0.5782  0.6170  0.5448
  639TIP3    H123552   0.988   4.140   4.326  1.1040 -1.0709  3.0021
  639TIP3    H223553   0.953   3.993   4.341 -1.7963 -1.0277 -1.3840
  640TIP3   OH223554   4.301   1.447   4.570  0.8354  0.5013 -0.0141
  640TIP3    H123555   4.300   1.538   4.600 -2.4983  0.0811  1.7168
  640TIP3    H223556   4.276   1.452   4.477  1.5318  1.3807 -0.1624
  641TIP3   OH223557   2.132   4.707   2.659 -0.6363 -0.2662 -0.3967
  641TIP3    H123558   2.116   4.800   2.673  1.4160  0.4274 -2.1087
  641TIP3    H223559   2.087   4.687   2.577  1.3564  0.0294 -1.6296
  642TIP3   OH223560   0.010   1.221   3.776  0.4215  0.2163 -0.0338
  642TIP3    H123561  -0.075   1.262   3.760  0.9796  1.4871  0.1900
  642TIP3    H223562   0.004   1.137   3.730 -0.0205  1.3715 -2.2600
  643TIP3   OH223563   0.666   4.812   3.705 -0.2989 -0.4932 -0.6242
  643TIP3    H123564   0.615   4.803   3.785  0.8655 -0.1082  0.2022
  643TIP3    H223565   0.638   4.896   3.668 -0.8696 -0.6911 -0.6478
  644TIP3   OH223566   4.637   0.479   3.261 -0.1277 -0.3405  0.1103
  644TIP3    H123567   4.550   0.442   3.277 -0.5780  1.1432  1.2686
  644TIP3    H223568   4.698   0.420   3.305 -0.0807 -3.3015 -3.3970
  645TIP3   OH223569   1.695   2.018   0.548 -0.1059 -0.4173 -0.5383
  645TIP3    H123570   1.635   2.050   0.480 -0.4066 -1.6119 -0.8460
  645TIP3    H223571   1.782   2.035   0.511 -0.2492  0.4574 -0.4960
  646TIP3   OH223572   1.257   3.783   2.389  0.3160 -0.1894  0.4825
  646TIP3    H123573   1.297   3.869   2.375 -0.2030 -0.3247 -2.3526
  646TIP3    H223574   1.268   3.767   2.483  1.0508  2.6319  0.9752
  647TIP3   OH223575   4.943   2.912   1.657 -0.1840 -0.3608 -0.2507
  647TIP3    H123576   4.880   2.862   1.710  0.6985 -0.4092  0.8005
  647TIP3    H223577   4.948   2.864   1.574  0.4418 -1.9150  0.6351
  648TIP3   OH223578   2.247   4.898   1.333  0.1124 -0.0789 -0.6641
  648TIP3    H123579   2.231   4.875   1.241  0.2210 -0.4113 -0.5981
  648TIP3    H223580   2.222   4.990   1.338 -1.1346 -0.4006 -0.7235
  649TIP3   OH223581   4.947   1.457   3.232  0.3622  0.6755 -0.6270
  649TIP3    H123582   5.015   1.394   3.207  1.0495  1.7331 -1.5320
  649TIP3    H223583   4.865   1.410   3.219  0.8654 -0.2004 -0.7647
  650TIP3   OH223584   4.622   6.640   3.435  0.0164 -0.2855  0.4446
  650TIP3    H123585   4.711   6.665   3.409 -0.0936 -0.9506 -0.6414
  650TIP3    H223586   4.567   6.713   3.407  0.0859 -0.3709  0.0745
  651TIP3   OH223587   5.874   0.077   1.758 -0.0992 -0.8484  0.5929
  651TIP3    H123588   5.919   0.137   1.818 -0.3061  0.1489 -0.2333
  651TIP3    H223589   5.787   0.115   1.747  0.0753 -0.7687 -0.6794
  652TIP3   OH223590   1.522   3.087   2.511 -0.0538  0.0319 -0.5112
  652TIP3    H123591   1.578   3.010   2.499  2.3619  1.4928  0.5978
  652TIP3    H223592   1.571   3.159   2.472 -0.2162  1.7189  2.1107
  653TIP3   OH223593   1.854   3.545   3.546  0.6094  0.5137  0.7880
  653TIP3    H123594   1.907   3.520   3.622  0.7632 -0.3335  0.4155
  653TIP3    H223595   1.907   3.518   3.471  1.0544  2.5472  0.3266
  654TIP3   OH223596   4.885   3.963   1.500 -0.3431  0.6062 -0.2559
  654TIP3    H123597   4.943   4.026   1.542 -0.6288  1.2523 -0.8274
  654TIP3    H223598   4.943   3.895   1.466 -0.1033  0.0446  1.2055
  655TIP3   OH223599   0.459   3.915   4.495 -0.5551 -0.5408 -0.3786
  655TIP3    H123600   0.529   3.906   4.561  0.7407  1.3770 -1.3928
  655TIP3    H223601   0.451   3.828   4.457 -0.4332 -1.3786  1.4282
  656TIP3   OH223602   1.291   3.402   4.285  0.1458 -0.1174 -0.1462
  656TIP3    H123603   1.202   3.366   4.290  0.4212 -0.6897  1.7312
  656TIP3    H223604   1.336   3.347   4.222 -0.0736 -1.6987  1.0081
  657TIP3   OH223605   2.362   5.639   0.740  0.4685 -0.2780 -0.4209
  657TIP3    H123606   2.426   5.600   0.799  0.4390 -1.1686 -0.9565
  657TIP3    H223607   2.350   5.574   0.671 -0.0994  0.3980 -0.9804
  658TIP3   OH223608   1.283   0.788   3.167 -0.5905  0.2538  0.0104
  658TIP3    H123609   1.357   0.779   3.228 -1.1792 -1.1260  0.5669
  658TIP3    H223610   1.291   0.876   3.132  1.8048 -0.1295 -0.5799
  659TIP3   OH223611   1.165   5.712   4.082  0.9862  0.2059 -0.2396
  659TIP3    H123612   1.159   5.739   4.173  2.8027 -2.3790  0.7516
  659TIP3    H223613   1.075   5.689   4.057  0.4988  0.7914  0.9255
  660TIP3   OH223614   4.062   4.757   5.735 -0.5072 -0.0579 -0.0794
  660TIP3    H123615   4.058   4.732   5.827  2.3271 -0.7992 -0.0621
  660TIP3    H223616   4.047   4.676   5.687 -0.1474 -0.0410 -0.2229
  661TIP3   OH223617   0.785   3.214   5.097  0.0534  0.5959 -0.2148
  661TIP3    H123618   0.709   3.155   5.097 -0.5426  1.3288  0.9572
  661TIP3    H223619   0.860   3.156   5.112 -0.5762  0.1577  1.5210
  662TIP3   OH223620   2.162   4.842   1.070  0.2643  0.3116 -0.1865
  662TIP3    H123621   2.070   4.865   1.053  0.6492  1.3990 -0.9095
  662TIP3    H223622   2.212   4.916   1.035  1.5658 -1.4533 -2.3541
  663TIP3   OH223623   1.782   1.738   3.046 -0.6219  0.0401  0.1016
  663TIP3    H123624   1.690   1.755   3.066 -0.9780 -1.3077 -0.2550
  663TIP3    H223625   1.814   1.690   3.123 -0.7310 -1.0518 -0.5026
  664TIP3   OH223626   3.607   3.831   3.828  0.3848  0.2136 -0.0286
  664TIP3    H123627   3.568   3.896   3.887  0.9189 -0.2918  0.9095
  664TIP3    H223628   3.679   3.877   3.785 -1.2522  1.1852 -1.8481
  665TIP3   OH223629   2.288   5.147   2.662  0.8060 -0.5077  0.3873
  665TIP3    H123630   2.326   5.134   2.575  1.3067 -0.8341  0.6491
  665TIP3    H223631   2.200   5.109   2.656  1.0813 -1.1411  0.2099
  666TIP3   OH223632   5.774   3.505   2.035 -0.0590 -0.2412 -0.5287
  666TIP3    H123633   5.740   3.467   1.954 -1.1068 -1.0673  0.2801
  666TIP3    H223634   5.716   3.472   2.104  0.0752  1.3956  0.4298
  667TIP3   OH223635   0.198   3.452   4.069  0.3484 -0.4525  0.3264
  667TIP3    H123636   0.138   3.526   4.058  1.0837  0.0958 -0.0759
  667TIP3    H223637   0.193   3.404   3.986  0.1822 -0.6211  0.4335
  668TIP3   OH223638   0.331   5.513   4.228 -0.1673  0.0449  0.0537
  668TIP3    H123639   0.239   5.512   4.253 -0.3810  2.5949 -0.4497
  668TIP3    H223640   0.334   5.561   4.146  1.6482  0.2802  0.2126
  669TIP3   OH223641   4.292   4.428   0.491  0.9479 -0.3160  0.0159
  669TIP3    H123642   4.235   4.464   0.423 -0.5109 -0.8637  0.8889
  669TIP3    H223643   4.293   4.496   0.559  1.7267 -0.1189 -0.1837
  670TIP3   OH223644   5.275   0.755   3.346 -0.0691  0.3723 -0.8145
  670TIP3    H123645   5.221   0.815   3.295 -0.3265  0.3986 -0.5108
  670TIP3    H223646   5.353   0.807   3.369  0.8148 -0.1137 -2.5308
  671TIP3   OH223647   1.383   2.528   4.000 -0.2143 -0.4818  0.0607
  671TIP3    H123648   1.403   2.604   3.946  0.7084 -0.8167 -0.0756
  671TIP3    H223649   1.346   2.565   4.080 -1.3411  0.0249 -0.6684
  672TIP3   OH223650   3.246   2.676   3.824  0.0536 -0.1289 -0.2557
  672TIP3    H123651   3.321   2.663   3.766 -0.5732  0.2911 -1.1937
  672TIP3    H223652   3.172   2.686   3.764 -0.7750 -0.6800  0.6572
  673TIP3   OH223653   2.377   6.092   1.132 -0.0234 -0.1946  0.2258
  673TIP3    H123654   2.375   6.162   1.198 -2.3998  0.9554 -0.9306
  673TIP3    H223655   2.295   6.103   1.084  0.4378 -2.6204 -1.2555
  674TIP3   OH223656   4.346   5.306   4.384  0.2514 -0.3467 -0.0204
  674TIP3    H123657   4.302   5.236   4.335  0.4779  0.0985 -0.8740
  674TIP3    H223658   4.292   5.384   4.368  1.1301  0.1256 -0.7823
  675TIP3   OH223659   0.988   0.510   1.289 -0.2822  0.2468 -0.1159
  675TIP3    H123660   1.040   0.496   1.368 -0.8435 -0.4782  0.1372
  675TIP3    H223661   1.052   0.525   1.220  0.3384 -1.7155 -0.0254
  676TIP3   OH223662   1.257   5.920   4.851  0.4128 -0.8143  0.1369
  676TIP3    H123663   1.274   5.995   4.794 -0.1700 -1.2295 -0.5969
  676TIP3    H223664   1.169   5.890   4.827  0.7626 -1.9382  0.1773
  677TIP3   OH223665   3.645   0.952   1.349 -0.0590  0.0726  0.4644
  677TIP3    H123666   3.568   0.911   1.308  0.2773 -0.0832 -0.0112
  677TIP3    H223667   3.607   1.017   1.408 -0.5920 -0.6964  1.0011
  678TIP3   OH223668   1.933   0.695   3.178  0.5216 -0.1898 -0.0595
  678TIP3    H123669   1.858   0.727   3.128  0.7016  2.5025  1.2315
  678TIP3    H223670   1.962   0.770   3.229  0.8005 -2.5056  3.5931
  679TIP3   OH223671   0.092   2.478   2.575 -0.1533  0.2459  0.3702
  679TIP3    H123672   0.149   2.555   2.578  1.0417 -0.6641  2.4748
  679TIP3    H223673   0.149   2.406   2.550 -1.1283 -0.1295 -0.9097
  680TIP3   OH223674   4.212   1.015   5.208 -0.0123 -0.0797 -0.9324
  680TIP3    H123675   4.241   0.983   5.293 -1.2839  0.6410 -0.2115
  680TIP3    H223676   4.293   1.025   5.158  0.5505 -3.3788 -0.8764
  681TIP3   OH223677   5.637   5.513   5.490 -0.1907 -0.0043  0.5513
  681TIP3    H123678   5.578   5.440   5.510 -1.0349  0.2349 -0.9376
  681TIP3    H223679   5.600   5.587   5.537  0.5352 -0.4449  1.8767
  682TIP3   OH223680   2.521   6.756   2.321 -0.5533  0.4505 -0.0609
  682TIP3    H123681   2.455   6.777   2.255 -0.6404 -1.2983 -0.5816
  682TIP3    H223682   2.601   6.798   2.288 -0.8436  0.5232 -0.7028
  683TIP3   OH223683   6.293   3.653   6.208 -0.3338 -0.1712  0.4803
  683TIP3    H123684   6.334   3.698   6.134 -1.6179 -0.1914 -0.2593
  683TIP3    H223685   6.255   3.724   6.261 -1.7721 -0.2968 -0.3323
  684TIP3   OH223686   6.764   1.628   3.096  0.1382  0.6769  0.6027
  684TIP3    H123687   6.813   1.546   3.098  0.0328  0.4756 -1.7691
  684TIP3    H223688   6.752   1.652   3.188  2.2140 -0.7231  1.2987
  685TIP3   OH223689   0.311   0.590   5.280 -0.1717 -0.3467 -0.6700
  685TIP3    H123690   0.380   0.523   5.280 -0.7391 -0.9428 -0.2201
  685TIP3    H223691   0.347   0.662   5.332  0.4747 -0.2606 -1.2240
  686TIP3   OH223692   3.745   6.152   4.127 -0.5953  0.3829  0.3871
  686TIP3    H123693   3.756   6.245   4.144 -1.6995  0.4619  0.7186
  686TIP3    H223694   3.785   6.139   4.041 -2.1357  1.5654 -0.5645
  687TIP3   OH223695   3.406   5.029   2.356  0.0106 -0.2645  0.3007
  687TIP3    H123696   3.483   4.972   2.360  1.3531  0.9163 -3.5694
  687TIP3    H223697   3.441   5.112   2.321 -2.7073  1.0673  0.5239
  688TIP3   OH223698   5.168   3.841   3.115 -0.1162  0.1895  0.9865
  688TIP3    H123699   5.226   3.913   3.093  0.2591 -0.2767  0.3918
  688TIP3    H223700   5.158   3.793   3.032  0.1763 -0.8094  1.5111
  689TIP3   OH223701   2.710   4.906   3.543  0.3274  0.1172 -0.0637
  689TIP3    H123702   2.630   4.917   3.491  0.4633  1.0335 -0.0852
  689TIP3    H223703   2.748   4.993   3.548  1.6191 -0.3962 -0.5124
  690TIP3   OH223704   4.444   3.233   2.556  0.0935  0.1586  0.0498
  690TIP3    H123705   4.511   3.230   2.624  0.1025 -0.9169 -0.0027
  690TIP3    H223706   4.399   3.317   2.571 -0.4723 -0.4428  1.9328
  691TIP3   OH223707   1.221   2.349   0.875 -0.9642 -0.6168 -0.3622
  691TIP3    H123708   1.197   2.442   0.883 -1.1818 -0.7614  0.9110
  691TIP3    H223709   1.154   2.312   0.819 -0.4362  0.1472 -1.5291
  692TIP3   OH223710   5.170   6.535   5.391 -0.3059 -0.2655 -0.4793
  692TIP3    H123711   5.246   6.513   5.444 -1.0264 -1.5869  0.0374
  692TIP3    H223712   5.201   6.528   5.300  0.6860  1.1252 -0.2758
  693TIP3   OH223713   1.615   3.607   1.597  0.5779  0.1068 -0.2251
  693TIP3    H123714   1.630   3.689   1.551 -0.1755  1.2865  1.5295
  693TIP3    H223715   1.545   3.564   1.547  0.5890  0.7881 -0.8456
  694TIP3   OH223716   1.788   5.310   2.305 -0.1314 -0.1653 -0.4854
  694TIP3    H123717   1.710   5.321   2.361  0.3453 -3.2963  0.9965
  694TIP3    H223718   1.856   5.362   2.349 -0.7239  0.5573 -0.3952
  695TIP3   OH223719   0.143   4.886   1.858  0.2705 -0.0755 -0.2751
  695TIP3    H123720   0.125   4.896   1.952  1.1072 -0.9470  0.0020
  695TIP3    H223721   0.078   4.823   1.828 -1.3053  1.7128 -0.7530
  696TIP3   OH223722   4.899   3.670   2.054  0.1091  0.1803 -0.4673
  696TIP3    H123723   4.948   3.590   2.034 -0.4655  0.0730 -1.5031
  696TIP3    H223724   4.809   3.640   2.065 -0.6163  0.9376 -3.4028
  697TIP3   OH223725   3.123   4.028   1.418 -0.2487 -0.3052  0.1032
  697TIP3    H123726   3.132   3.958   1.483  1.3328 -0.8820 -0.6556
  697TIP3    H223727   3.213   4.059   1.404 -0.8184  1.3084 -0.2161
  698TIP3   OH223728   6.418   2.806   4.354  0.5300 -0.1297 -0.2382
  698TIP3    H123729   6.382   2.895   4.348  0.1369 -0.3810 -2.2064
  698TIP3    H223730   6.512   2.819   4.347  0.4413  0.1023 -1.0961
  699TIP3   OH223731   2.663   0.326   3.151  0.5338 -0.3789  0.5798
  699TIP3    H123732   2.747   0.288   3.176  0.4251 -1.9178 -1.2018
  699TIP3    H223733   2.654   0.404   3.206  2.8635 -0.4851  1.1808
  700TIP3   OH223734   0.635   1.017   2.810  0.1935 -0.4465 -0.0924
  700TIP3    H123735   0.567   0.991   2.872 -0.1034 -0.5281 -0.4456
  700TIP3    H223736   0.594   1.085   2.757  0.3306 -0.6036 -0.4062
  701TIP3   OH223737   0.994   3.700   3.962  0.5838  0.2468 -0.2641
  701TIP3    H123738   1.066   3.691   4.025  0.5511  2.4955  0.1830
  701TIP3    H223739   1.020   3.774   3.907 -0.9789  0.5080 -0.6858
  702TIP3   OH223740   0.152   2.097   4.241  0.4642  0.7491 -0.6139
  702TIP3    H123741   0.079   2.036   4.251 -1.1600  2.2562 -2.5243
  702TIP3    H223742   0.226   2.054   4.284 -0.5956 -2.5147 -1.8023
  703TIP3   OH223743   2.580   3.846   2.883 -0.1422 -0.0783  0.1921
  703TIP3    H123744   2.640   3.886   2.945 -0.9711  0.6192  0.5675
  703TIP3    H223745   2.531   3.920   2.845 -0.4580 -0.5868 -0.4213
  704TIP3   OH223746   6.111   3.563   2.673  0.1783 -0.0677 -0.4879
  704TIP3    H123747   6.125   3.575   2.767 -1.2346 -0.1009 -0.2452
  704TIP3    H223748   6.166   3.630   2.631 -1.2284  1.8117  0.4970
  705TIP3   OH223749   2.083   4.971   3.597 -0.6786 -0.1433 -0.8690
  705TIP3    H123750   2.077   4.989   3.691 -1.2500 -1.5417 -0.6236
  705TIP3    H223751   2.081   5.058   3.557  1.3921  0.6175  0.4679
  706TIP3   OH223752   4.027   4.735   0.998 -0.1845  0.8117  0.1449
  706TIP3    H123753   4.074   4.653   1.010 -1.8095 -0.2927 -0.6399
  706TIP3    H223754   4.053   4.789   1.072  3.0830  0.7003 -0.7803
  707TIP3   OH223755   6.053   1.559   3.368 -0.0093 -0.2808 -0.1710
  707TIP3    H123756   6.066   1.591   3.279 -2.5469  2.8293  0.3655
  707TIP3    H223757   6.067   1.637   3.423  1.4209 -2.0781  2.2179
  708TIP3   OH223758   1.297   2.429   2.822  0.1390 -0.3007  0.0540
  708TIP3    H123759   1.223   2.370   2.806 -0.3135  0.3269 -0.1610
  708TIP3    H223760   1.331   2.401   2.907  0.1477 -1.1037 -0.2021
  709TIP3   OH223761   4.945   4.717   1.709 -0.2353  0.0330 -0.3089
  709TIP3    H123762   5.028   4.728   1.662 -0.9628 -0.3135 -1.7036
  709TIP3    H223763   4.893   4.658   1.655 -0.9448 -0.7423  1.1641
  710TIP3   OH223764   3.872   1.933   1.532  0.4379  0.0870  0.4443
  710TIP3    H123765   3.913   2.018   1.519 -0.7770  0.6694  0.2270
  710TIP3    H223766   3.926   1.872   1.483  1.1525  0.7786  0.3499
  711TIP3   OH223767   1.522   0.502   2.915  0.2208  0.5382  0.2425
  711TIP3    H123768   1.514   0.451   2.996  0.5479  1.0796  0.6293
  711TIP3    H223769   1.529   0.437   2.846 -0.5406  0.0611  0.5977
  712TIP3   OH223770   3.461   3.856   1.950  0.2565 -0.1811 -0.0002
  712TIP3    H123771   3.414   3.789   1.900 -0.7298  0.4172  0.1025
  712TIP3    H223772   3.530   3.808   1.996 -2.4637 -1.7691  2.7942
  713TIP3   OH223773   5.324   4.752   2.637  0.0532 -0.1994 -0.4618
  713TIP3    H123774   5.349   4.807   2.712  0.5878 -0.4763 -0.4293
  713TIP3    H223775   5.240   4.788   2.607 -0.8457 -0.8951  1.0896
  714TIP3   OH223776   2.943   4.257   1.443 -0.3906 -0.2491 -0.4812
  714TIP3    H123777   2.866   4.228   1.492  0.1632 -1.0318 -0.0488
  714TIP3    H223778   3.004   4.184   1.449  1.2863  1.1725  1.1100
  715TIP3   OH223779   5.551   1.184   1.514  0.2436  0.3806  0.1513
  715TIP3    H123780   5.489   1.154   1.447  1.8647  0.8778 -1.6702
  715TIP3    H223781   5.598   1.255   1.472  1.7024  0.3509  1.6619
  716TIP3   OH223782   0.232   2.728   2.524 -0.1314 -0.1203  0.2548
  716TIP3    H123783   0.169   2.761   2.461 -0.2728  0.1052  0.5143
  716TIP3    H223784   0.298   2.797   2.531  1.7296 -1.4979 -2.1771
  717TIP3   OH223785   2.763   4.984   3.230  0.6155 -0.4849  0.2239
  717TIP3    H123786   2.810   5.054   3.274  0.1384  0.2451 -0.3906
  717TIP3    H223787   2.673   4.992   3.263  0.4196 -0.3911 -0.3152
  718TIP3   OH223788   4.762   0.323   1.757 -0.3761 -0.0698  0.1656
  718TIP3    H123789   4.687   0.381   1.742  1.2425  1.5328 -2.6722
  718TIP3    H223790   4.747   0.249   1.697  0.4902  0.5134 -0.8053
  719TIP3   OH223791   5.485   5.351   2.389 -0.0835 -0.5335 -0.0615
  719TIP3    H123792   5.475   5.378   2.298 -0.8050  0.4338  0.2855
  719TIP3    H223793   5.578   5.331   2.399  0.1105 -0.0447 -0.8528
  720TIP3   OH223794   5.920   2.832   2.039 -0.0268  0.4927 -0.3275
  720TIP3    H123795   5.990   2.777   2.002  0.1662  0.8787 -0.5411
  720TIP3    H223796   5.942   2.921   2.011 -0.7825  0.5796 -0.6693
  721TIP3   OH223797   4.134   0.829   4.893  0.3696  0.1378  0.4694
  721TIP3    H123798   4.142   0.793   4.804 -0.8963 -2.9328  1.4583
  721TIP3    H223799   4.067   0.897   4.885  0.7228  0.3573 -1.0097
  722TIP3   OH223800   3.575   3.493   1.349  0.3589  0.1188 -0.1299
  722TIP3    H123801   3.501   3.552   1.334  0.5648  0.1717 -0.9876
  722TIP3    H223802   3.652   3.543   1.319  0.7411  0.0293  0.6602
  723TIP3   OH223803   3.488   1.035   2.323  0.1614 -0.1434  0.1986
  723TIP3    H123804   3.396   1.011   2.330  0.0335  0.1969 -0.2648
  723TIP3    H223805   3.513   1.060   2.412 -0.4917  0.8076  0.1317
  724TIP3   OH223806   6.180   3.237   1.174  0.5465  0.3235  0.0121
  724TIP3    H123807   6.124   3.304   1.213 -3.0713 -2.3145 -0.1553
  724TIP3    H223808   6.164   3.244   1.080  0.1056 -0.7055 -0.0071
  725TIP3   OH223809   3.759   5.020   2.575 -0.0751  0.3798 -0.9273
  725TIP3    H123810   3.663   5.021   2.577 -0.0988  2.2779 -1.1907
  725TIP3    H223811   3.784   4.973   2.654 -1.2453  1.5618  0.2087
  726TIP3   OH223812   5.926   2.479   3.051 -0.0272  0.5135 -0.1063
  726TIP3    H123813   5.959   2.461   2.963 -0.9024  2.2813 -0.8429
  726TIP3    H223814   6.004   2.479   3.106  0.4872 -1.0279 -0.7625
  727TIP3   OH223815   1.396   2.529   4.566  1.0481 -0.1201  0.1791
  727TIP3    H123816   1.380   2.615   4.528 -0.6876 -0.5301 -0.0962
  727TIP3    H223817   1.397   2.544   4.661  1.2538  0.2635  0.1193
  728TIP3   OH223818   3.616   5.475   2.334  0.7224 -0.0254 -0.6645
  728TIP3    H123819   3.564   5.523   2.271  0.4485 -0.8466 -1.0795
  728TIP3    H223820   3.604   5.383   2.310  1.0467 -0.3177  0.2465
  729TIP3   OH223821   2.125   6.585   1.914  0.6881  0.7023  0.0763
  729TIP3    H123822   2.075   6.566   1.993 -0.6847 -2.2327 -1.3471
  729TIP3    H223823   2.082   6.663   1.877 -1.0536 -0.0842  0.3608
  730TIP3   OH223824   3.674   2.544   4.807  0.0471  0.6348 -0.6119
  730TIP3    H123825   3.625   2.498   4.738  0.9157  0.1619 -0.9347
  730TIP3    H223826   3.663   2.637   4.787  0.1000  0.5085 -1.2627
  731TIP3   OH223827   2.171   2.700   4.346  0.3419 -0.6431 -0.2390
  731TIP3    H123828   2.090   2.750   4.355  0.9799  0.1931  1.3293
  731TIP3    H223829   2.164   2.656   4.261 -0.7309  1.2467 -1.1868
  732TIP3   OH223830   0.605   6.401   0.764 -0.5613  0.5867  0.0316
  732TIP3    H123831   0.553   6.358   0.697 -1.3886  1.6022  0.0071
  732TIP3    H223832   0.686   6.426   0.719 -0.5156  0.0144 -0.2155
  733TIP3   OH223833   2.075   2.793   2.561  0.1335  0.0593 -0.1801
  733TIP3    H123834   2.123   2.732   2.618  0.4909 -0.3639 -0.9190
  733TIP3    H223835   1.991   2.804   2.604  0.2899 -0.4913  0.2840
  734TIP3   OH223836   4.715   2.284   1.907 -0.7997 -0.7708 -0.1365
  734TIP3    H123837   4.674   2.346   1.847  1.1373 -0.5790 -1.3479
  734TIP3    H223838   4.793   2.330   1.940 -0.4516 -1.8179  0.5463
  735TIP3   OH223839   1.886   2.540   5.119 -0.0056  0.0892 -0.2069
  735TIP3    H123840   1.942   2.616   5.106 -0.7301  0.5316 -0.8266
  735TIP3    H223841   1.819   2.548   5.051 -1.9547  0.6187  1.6615
  736TIP3   OH223842   0.128   0.315   0.869 -0.0614 -0.4347 -0.2481
  736TIP3    H123843   0.126   0.363   0.951  3.5627 -1.6495  0.7392
  736TIP3    H223844   0.142   0.224   0.895  2.7401 -0.6651 -2.0967
  737TIP3   OH223845   3.070   4.351   3.949  0.0200  0.0624 -0.4854
  737TIP3    H123846   3.019   4.418   3.994 -0.2803  0.3173 -1.1921
  737TIP3    H223847   3.130   4.318   4.016  0.3522  1.2145 -0.1930
  738TIP3   OH223848   3.421   4.106   2.445 -0.6211 -0.2711 -0.1277
  738TIP3    H123849   3.479   4.126   2.518 -0.3526 -1.5009  0.0061
  738TIP3    H223850   3.436   4.013   2.426 -0.4241  0.0990 -1.9846
  739TIP3   OH223851   0.167   1.300   4.017 -0.1013  0.2773  0.1790
  739TIP3    H123852   0.214   1.299   3.933 -1.0323 -0.6525 -0.3553
  739TIP3    H223853   0.116   1.219   4.016 -1.4576  1.0955  0.8811
  740TIP3   OH223854   2.124   2.443   3.532  0.3034 -0.0372  0.4795
  740TIP3    H123855   2.100   2.487   3.614  0.5054 -1.3129  1.2527
  740TIP3    H223856   2.213   2.472   3.515  0.2338  0.2935  0.6547
  741TIP3   OH223857   6.363   5.862   2.255  0.1829  0.4054 -0.5064
  741TIP3    H123858   6.283   5.833   2.299  0.3723 -2.6887 -1.9683
  741TIP3    H223859   6.432   5.850   2.320  0.1993 -2.3833 -0.9274
  742TIP3   OH223860   5.459   2.215   3.204  0.6189 -0.0007  0.1532
  742TIP3    H123861   5.544   2.222   3.160  1.0216  0.0281  0.9158
  742TIP3    H223862   5.460   2.128   3.244  0.4171  0.1238  0.4290
  743TIP3   OH223863   2.378   1.152   4.840  0.2246  0.0545  0.7694
  743TIP3    H123864   2.420   1.235   4.861  0.9035 -0.0423 -0.1791
  743TIP3    H223865   2.288   1.163   4.870  0.0762  1.4488 -0.1111
  744TIP3   OH223866   0.193   0.650   0.612 -0.1473  0.4164  0.1535
  744TIP3    H123867   0.239   0.728   0.641  0.5027 -0.0624  0.4214
  744TIP3    H223868   0.215   0.641   0.519  0.0864  0.3334  0.2181
  745TIP3   OH223869   1.302   2.867   3.204 -0.0200  0.1636 -0.1670
  745TIP3    H123870   1.230   2.928   3.186 -0.7188 -0.2746  1.0020
  745TIP3    H223871   1.258   2.785   3.229  0.8216  0.3185  2.0338
  746TIP3   OH223872   1.148   1.194   2.739  0.1800 -0.0136  0.0522
  746TIP3    H123873   1.209   1.223   2.671  0.8922  2.6822  1.6821
  746TIP3    H223874   1.072   1.162   2.690  2.3054 -2.3760 -2.0123
  747TIP3   OH223875   2.936   2.907   1.790  0.3456 -0.6918  0.6070
  747TIP3    H123876   3.017   2.911   1.739 -0.0545 -1.8125 -0.1504
  747TIP3    H223877   2.880   2.974   1.750  0.7500 -0.1881  0.8769
  748TIP3   OH223878   1.722   2.992   0.291 -0.4562 -0.0411 -0.3354
  748TIP3    H123879   1.731   3.078   0.333 -0.9783  0.6040 -1.5002
  748TIP3    H223880   1.772   2.933   0.347 -1.5909  0.6571  1.5208
  749TIP3   OH223881   0.807   6.106   4.215  0.2418  0.2737 -0.1990
  749TIP3    H123882   0.848   6.173   4.269 -0.0790 -0.7633  1.3792
  749TIP3    H223883   0.877   6.074   4.159  2.1320 -2.4327  3.3421
  750TIP3   OH223884   5.474   2.901   5.112 -0.2890 -0.8471  0.2314
  750TIP3    H123885   5.431   2.987   5.103 -0.7397 -1.0632  0.2818
  750TIP3    H223886   5.435   2.863   5.190 -0.9840 -1.6026 -0.4679
  751TIP3   OH223887   3.576   2.431   4.134 -0.2188 -0.7092  0.2353
  751TIP3    H123888   3.607   2.462   4.049  1.2297 -1.1300  0.5747
  751TIP3    H223889   3.609   2.495   4.196 -0.1155 -1.1139  0.6050
  752TIP3   OH223890   6.608   0.562   2.986 -0.4120 -0.6210 -0.1256
  752TIP3    H123891   6.679   0.617   2.953 -1.6800  1.8149  0.9606
  752TIP3    H223892   6.536   0.623   3.002 -4.0959 -3.2785 -4.2616
  753TIP3   OH223893   0.421   2.718   5.289  0.3074  0.9353 -0.1335
  753TIP3    H123894   0.487   2.654   5.263 -0.4030  0.6223 -1.2327
  753TIP3    H223895   0.392   2.690   5.376  0.5408  0.2072 -0.2880
  754TIP3   OH223896   5.011   0.036   3.828  0.4125 -0.1096  0.2588
  754TIP3    H123897   5.095   0.048   3.871  0.3421 -0.5377  0.5251
  754TIP3    H223898   4.960  -0.017   3.889  0.2912 -0.6776 -0.3164
  755TIP3   OH223899   3.801   0.635   3.520  0.3341 -0.3843 -0.4412
  755TIP3    H123900   3.816   0.715   3.572 -0.8130 -1.6691  2.0465
  755TIP3    H223901   3.881   0.584   3.533 -0.5134 -1.3443  1.4432
  756TIP3   OH223902   1.571   1.376   1.788 -0.0586 -0.1009  0.1978
  756TIP3    H123903   1.637   1.444   1.772  0.8948 -0.8465  0.8897
  756TIP3    H223904   1.577   1.318   1.712 -0.4312  0.2186 -0.0837
  757TIP3   OH223905   0.233   0.899   2.333 -0.4704 -0.0884  0.0947
  757TIP3    H123906   0.220   0.974   2.276 -0.0525  0.5845  0.8503
  757TIP3    H223907   0.150   0.888   2.378  0.0018  1.1151  1.3361
  758TIP3   OH223908   5.049   0.901   3.281 -0.3568  0.0376  0.4813
  758TIP3    H123909   4.974   0.912   3.223 -0.7993 -0.1432  1.0097
  758TIP3    H223910   5.040   0.970   3.346 -0.2546 -0.1963  0.7458
  759TIP3   OH223911   4.613   0.285   3.604 -0.6480 -0.2137 -0.5211
  759TIP3    H123912   4.668   0.254   3.531 -1.0882 -1.0295 -0.5150
  759TIP3    H223913   4.609   0.211   3.664 -1.5107 -0.0534 -0.3738
  760TIP3   OH223914   2.333   3.153   2.812  0.0920  0.1611  0.1588
  760TIP3    H123915   2.421   3.180   2.787  0.0606 -0.7001 -0.9933
  760TIP3    H223916   2.278   3.227   2.786  0.3178  0.1192 -0.4719
  761TIP3   OH223917   2.667   5.690   1.559 -0.6570 -0.3687  0.1013
  761TIP3    H123918   2.592   5.747   1.575 -1.3137 -1.3879  0.6978
  761TIP3    H223919   2.743   5.749   1.568 -1.3613  0.6644 -0.5095
  762TIP3   OH223920   2.125   5.626   5.332  0.4344 -0.3936 -0.3398
  762TIP3    H123921   2.199   5.643   5.390  1.6619 -0.4431 -1.8205
  762TIP3    H223922   2.105   5.710   5.292  0.2549 -0.5524 -0.5934
  763TIP3   OH223923   0.810   0.020   1.770 -0.5740  0.5400  0.0070
  763TIP3    H123924   0.886  -0.036   1.788  0.6595  2.5796  1.6032
  763TIP3    H223925   0.752   0.007   1.845 -0.9324  0.3562 -0.3022
  764TIP3   OH223926   5.778   5.443   1.817  0.2277 -0.0618 -0.2517
  764TIP3    H123927   5.831   5.522   1.807  0.5333 -0.1442  0.6379
  764TIP3    H223928   5.691   5.469   1.787  0.5794  0.2886 -1.0168
  765TIP3   OH223929   2.804   1.876   0.089 -0.0840 -0.2687 -0.2444
  765TIP3    H123930   2.764   1.938   0.151  0.6737  0.2785 -0.2888
  765TIP3    H223931   2.750   1.797   0.096 -1.3451  0.5268 -0.4954
  766TIP3   OH223932   2.807   6.382   1.555 -0.0403 -0.1445  0.4238
  766TIP3    H123933   2.856   6.333   1.620  1.8830 -0.0746 -0.8799
  766TIP3    H223934   2.872   6.439   1.514 -0.6640 -1.6277 -2.9342
  767TIP3   OH223935   4.090   5.632   3.434 -0.2303 -0.2461  0.0488
  767TIP3    H123936   4.159   5.640   3.499  0.2903 -2.1079 -0.2209
  767TIP3    H223937   4.135   5.608   3.353 -0.8867  1.8554 -1.0131
  768TIP3   OH223938   5.823   6.588   3.309 -0.1221 -0.3331 -0.4321
  768TIP3    H123939   5.862   6.656   3.365 -1.5810  0.3131 -0.1695
  768TIP3    H223940   5.869   6.508   3.334  3.3118  0.8212 -2.3375
  769TIP3   OH223941   0.429   1.823   2.300 -0.2539 -0.0660  0.3174
  769TIP3    H123942   0.413   1.894   2.238 -1.4259 -0.8933 -0.3879
  769TIP3    H223943   0.384   1.850   2.380 -1.8148 -0.5208 -0.3483
  770TIP3   OH223944   5.468   0.431   3.787  0.3848 -0.0388  0.3363
  770TIP3    H123945   5.434   0.375   3.718 -1.3593  2.6471 -1.1425
  770TIP3    H223946   5.558   0.400   3.800  0.3248 -1.5489 -2.1473
  771TIP3   OH223947   0.341   1.413   4.285 -0.3881 -0.3379  0.0266
  771TIP3    H123948   0.338   1.390   4.377  0.5481  4.0340  1.3697
  771TIP3    H223949   0.251   1.403   4.255 -0.8570 -1.1315  1.6002
  772TIP3   OH223950   0.536   2.596   0.730 -0.2888 -0.2334 -0.0112
  772TIP3    H123951   0.461   2.536   0.732  0.0208 -0.7092 -1.5625
  772TIP3    H223952   0.603   2.552   0.784 -0.6594 -0.4500  0.2785
  773TIP3   OH223953   6.582   5.718   2.417 -0.6847 -0.2568 -0.1537
  773TIP3    H123954   6.653   5.779   2.395  0.2216 -0.9328  0.7421
  773TIP3    H223955   6.590   5.648   2.353  0.4039 -1.0365  0.7957
  774TIP3   OH223956   4.757   6.481   4.745 -0.3902  0.0774 -0.2168
  774TIP3    H123957   4.733   6.549   4.682 -0.0278 -0.1829 -0.6434
  774TIP3    H223958   4.696   6.493   4.818 -0.1124  1.0708 -0.1316
  775TIP3   OH223959   6.433   0.319   1.877 -0.3418  0.1760 -0.2390
  775TIP3    H123960   6.502   0.348   1.936 -0.0749  0.3035 -0.6132
  775TIP3    H223961   6.386   0.251   1.927 -0.4274  0.6289  0.3007
  776TIP3   OH223962   3.836   6.480   1.722  0.1507  0.2407 -0.0828
  776TIP3    H123963   3.874   6.403   1.764  0.7680 -0.0600 -1.1591
  776TIP3    H223964   3.743   6.477   1.747 -0.0427 -1.3909 -0.8692
  777TIP3   OH223965   0.080   0.586   4.017  0.0163 -0.5864  0.2939
  777TIP3    H123966   0.063   0.594   4.111  0.4823  0.4250  0.3042
  777TIP3    H223967   0.175   0.593   4.010 -0.1704  2.3092 -0.4907
  778TIP3   OH223968   4.232   2.894   1.029 -0.4607  0.0789  0.1784
  778TIP3    H123969   4.218   2.986   1.007 -1.2251  0.3341  1.6401
  778TIP3    H223970   4.225   2.848   0.945 -0.2123  1.3151 -0.5515
  779TIP3   OH223971   2.623   3.397   0.143  0.8120  0.0054  0.2311
  779TIP3    H123972   2.563   3.347   0.198  1.4787 -0.5582  0.4655
  779TIP3    H223973   2.622   3.352   0.059  0.7110  0.1522  0.1524
  780TIP3   OH223974   4.690   1.021   2.573  0.1726  0.0293  0.5452
  780TIP3    H123975   4.731   0.963   2.508  0.5626 -0.5406  1.2728
  780TIP3    H223976   4.682   1.105   2.529  1.0397 -0.1705 -0.0263
  781TIP3   OH223977   4.849   4.502   1.582 -0.9096  0.4946  0.2298
  781TIP3    H123978   4.819   4.507   1.492  0.9351 -0.4291 -0.4896
  781TIP3    H223979   4.815   4.419   1.615 -0.4187  0.1614 -0.0902
  782TIP3   OH223980   0.150   1.404   3.124 -0.5235 -0.3831  0.3664
  782TIP3    H123981   0.192   1.364   3.048  1.6044  0.4729  0.9905
  782TIP3    H223982   0.133   1.331   3.184 -0.1761 -0.8039 -0.0435
  783TIP3   OH223983   6.230   2.227   2.765 -0.0157  0.3393  0.0118
  783TIP3    H123984   6.201   2.146   2.807  0.2651  0.1742 -0.1125
  783TIP3    H223985   6.323   2.234   2.787  0.2528  0.0087 -0.9534
  784TIP3   OH223986   2.464   1.667   1.882  0.3851  0.3005  0.1963
  784TIP3    H123987   2.559   1.671   1.899  0.1294  1.1481  1.6022
  784TIP3    H223988   2.432   1.754   1.906 -0.4747  0.7305 -2.2837
  785TIP3   OH223989   6.739   1.655   0.745 -0.4312 -0.3416  0.0789
  785TIP3    H123990   6.777   1.742   0.728 -1.5671  0.3486  0.9067
  785TIP3    H223991   6.802   1.612   0.801 -0.5027  0.5109  0.8388
  786TIP3   OH223992   2.356   2.732   2.109  0.4820  0.0307  0.1724
  786TIP3    H123993   2.429   2.681   2.074  0.4936 -0.5916  1.0668
  786TIP3    H223994   2.396   2.795   2.168  0.3256 -0.1609  0.4895
  787TIP3   OH223995   0.406   3.579   5.420 -0.2122  0.2785  0.0257
  787TIP3    H123996   0.321   3.617   5.394 -0.4478 -0.5633 -0.4875
  787TIP3    H223997   0.385   3.488   5.443  0.6184 -0.0867 -0.5954
  788TIP3   OH223998   3.933   3.580   3.660  0.3360  0.1498 -0.1672
  788TIP3    H123999   4.008   3.521   3.674 -0.8367 -1.6455 -1.0651
  788TIP3    H224000   3.929   3.632   3.740  1.8364 -0.5360  0.3966
  789TIP3   OH224001   5.878   3.981   1.773 -0.3496 -0.5080  0.6197
  789TIP3    H124002   5.873   4.030   1.691  0.3437  0.5462  1.1803
  789TIP3    H224003   5.803   3.922   1.770 -2.0831  1.5686  0.5377
  790TIP3   OH224004   2.397   0.437   3.577  0.0189  0.1478 -0.1719
  790TIP3    H124005   2.460   0.507   3.591 -0.6986  0.5138  1.6034
  790TIP3    H224006   2.450   0.362   3.549  1.0664  0.7994 -0.0003
  791TIP3   OH224007   3.774   6.192   0.778 -0.5088 -0.1923 -0.5571
  791TIP3    H124008   3.812   6.135   0.844 -1.4538  0.7508  0.8436
  791TIP3    H224009   3.797   6.151   0.694  1.6517 -0.8323  0.2881
  792TIP3   OH224010   2.652   4.114   3.963 -0.1184  0.0452 -0.2769
  792TIP3    H124011   2.735   4.070   3.946  0.6813  1.8459 -1.4706
  792TIP3    H224012   2.628   4.088   4.052  1.3309 -1.1028 -0.1790
  793TIP3   OH224013   0.572   4.576   4.084  0.0558  0.0235  0.0195
  793TIP3    H124014   0.590   4.669   4.071  0.9359 -0.2159 -0.5356
  793TIP3    H224015   0.578   4.564   4.179 -1.7359  0.8474  0.2699
  794TIP3   OH224016   5.464   3.460   2.466 -1.0754  0.3590  0.1969
  794TIP3    H124017   5.380   3.444   2.422 -0.5853 -0.9023 -0.3360
  794TIP3    H224018   5.489   3.374   2.500  0.8411  0.3035 -1.1886
  795TIP3   OH224019   1.135   5.684   3.084 -0.6200  0.2990 -0.1572
  795TIP3    H124020   1.140   5.589   3.097 -1.3551  0.2753  0.0016
  795TIP3    H224021   1.103   5.694   2.995  0.0543  0.4083 -0.3886
  796TIP3   OH224022   4.993   0.404   2.040 -0.0781  0.3676 -0.3763
  796TIP3    H124023   5.022   0.379   1.952  0.6676 -0.5516  0.1109
  796TIP3    H224024   4.911   0.451   2.026 -0.7102 -1.0028 -1.4709
  797TIP3   OH224025   1.230   4.962   3.321  0.2784 -0.0718 -0.0582
  797TIP3    H124026   1.294   4.952   3.392  0.1950  2.2361  0.4342
  797TIP3    H224027   1.168   4.891   3.334  2.0937 -1.6762  0.1549
  798TIP3   OH224028   4.933   6.014   4.711  0.2312 -0.2197  0.1825
  798TIP3    H124029   4.978   5.958   4.775 -0.2452 -1.0643 -0.2039
  798TIP3    H224030   5.003   6.045   4.653  1.2970  3.4241  3.0492
  799TIP3   OH224031   5.672   4.408   2.788 -0.0635  0.4817 -0.1153
  799TIP3    H124032   5.622   4.451   2.718 -1.4840 -0.5538  0.2259
  799TIP3    H224033   5.690   4.478   2.851 -0.2850  1.0622 -0.6846
  800TIP3   OH224034   3.364   4.995   2.816 -0.0907 -0.1803 -0.7398
  800TIP3    H124035   3.366   5.068   2.877  3.0774 -0.8638  0.1561
  800TIP3    H224036   3.281   4.950   2.834  0.1035  0.4516  2.0774
  801TIP3   OH224037   2.413   4.305   4.297 -0.4646  0.0846 -0.1221
  801TIP3    H124038   2.328   4.263   4.312 -0.5691  1.0980  2.5542
  801TIP3    H224039   2.477   4.247   4.338  0.0481 -0.0657 -1.0827
  802TIP3   OH224040   0.814   6.312   4.698  0.2901  0.0133  0.6138
  802TIP3    H124041   0.864   6.391   4.720 -0.6451  1.0491 -0.7435
  802TIP3    H224042   0.879   6.251   4.663  0.6422  1.3945 -1.2905
  803TIP3   OH224043   3.512   5.285   1.251  0.4438  0.3209  0.8697
  803TIP3    H124044   3.491   5.273   1.344  0.9729 -0.6215  0.8758
  803TIP3    H224045   3.462   5.362   1.226 -2.5439 -1.3898  1.0537
  804TIP3   OH224046   6.707   2.516   2.306 -0.2538 -0.3835  0.4217
  804TIP3    H124047   6.735   2.491   2.394 -0.0728  0.2856  0.5659
  804TIP3    H224048   6.781   2.493   2.249 -1.1463 -2.7105  0.1009
  805TIP3   OH224049   5.849   4.614   3.389 -0.1175  0.3172 -0.5666
  805TIP3    H124050   5.782   4.546   3.392  2.4234 -2.4281 -0.4423
  805TIP3    H224051   5.850   4.643   3.298 -0.6204 -0.5731 -0.8689
  806TIP3   OH224052   5.703   5.891   1.471  0.3503  0.2972 -0.2402
  806TIP3    H124053   5.678   5.915   1.560  2.4087 -0.3867  0.5902
  806TIP3    H224054   5.668   5.803   1.458 -1.5941  1.1205 -0.8633
  807TIP3   OH224055   3.335   0.581   1.269  0.7080  0.3403 -0.4113
  807TIP3    H124056   3.428   0.573   1.246  1.1640 -1.8563  1.6611
  807TIP3    H224057   3.335   0.629   1.352 -0.0856  0.8104 -0.6709
  808TIP3   OH224058   1.774   5.906   2.631  0.4615 -0.1243 -0.2418
  808TIP3    H124059   1.819   5.825   2.653 -0.1816  0.0253  1.8332
  808TIP3    H224060   1.844   5.970   2.616  0.9526 -0.8096 -0.9284
  809TIP3   OH224061   1.142   0.971   4.544 -0.3600  0.4974 -0.8881
  809TIP3    H124062   1.058   1.005   4.576 -0.1392  1.7918 -1.6176
  809TIP3    H224063   1.196   0.962   4.623 -0.9664  0.2648 -0.4940
  810TIP3   OH224064   2.066   0.286   0.425 -0.3377  0.1521 -0.0869
  810TIP3    H124065   1.983   0.267   0.381  0.0332  0.5546 -0.9666
  810TIP3    H224066   2.122   0.323   0.357  1.0677 -1.4160  0.1530
  811TIP3   OH224067   4.571   2.279   3.986  0.4129 -0.0978  0.3261
  811TIP3    H124068   4.596   2.231   4.065 -0.2157  0.1757  0.6940
  811TIP3    H224069   4.651   2.324   3.959  0.8326 -0.8160  0.3615
  812TIP3   OH224070   1.979   1.981   3.599 -0.2588  0.3592 -0.1394
  812TIP3    H124071   2.031   1.950   3.673  0.5246  1.1472 -0.3445
  812TIP3    H224072   1.968   1.903   3.544  1.1477  0.2645 -0.3355
  813TIP3   OH224073   0.453   2.374   4.342 -0.1777 -0.3146  0.5477
  813TIP3    H124074   0.432   2.373   4.249  1.0513 -0.4395  0.2588
  813TIP3    H224075   0.505   2.295   4.356 -0.8877 -0.6354  1.4830
  814TIP3   OH224076   1.192   3.323   3.286 -0.0225  0.3283  0.0142
  814TIP3    H124077   1.170   3.413   3.260  2.4297  0.6436 -1.2877
  814TIP3    H224078   1.284   3.313   3.261  0.0150 -2.2825  0.9307
  815TIP3   OH224079   1.641   4.916   3.314  0.5247 -0.2205  0.0695
  815TIP3    H124080   1.675   4.986   3.258  1.9489 -1.2403 -0.3862
  815TIP3    H224081   1.692   4.924   3.395  1.1588 -1.1349 -0.2350
  816TIP3   OH224082   1.144   3.360   0.815 -0.1604  0.0530 -0.1579
  816TIP3    H124083   1.228   3.315   0.804 -1.0164 -1.4480 -0.8486
  816TIP3    H224084   1.156   3.413   0.894  1.2871 -0.4937  0.0211
  817TIP3   OH224085   5.015   1.657   5.394 -0.1789 -0.2709  0.9736
  817TIP3    H124086   4.975   1.743   5.384  0.3572 -0.1533 -0.3948
  817TIP3    H224087   5.097   1.674   5.441  1.0991  0.3706 -1.3145
  818TIP3   OH224088   4.118   0.536   2.220 -0.1513  0.4430 -0.7527
  818TIP3    H124089   4.086   0.613   2.172 -2.1824 -1.2574 -2.3825
  818TIP3    H224090   4.146   0.476   2.151  1.4448 -0.3005  0.4888
  819TIP3   OH224091   2.270   1.169   3.037 -0.9697 -0.0170  0.0858
  819TIP3    H124092   2.195   1.200   2.987 -1.1334 -0.0032  0.3391
  819TIP3    H224093   2.232   1.117   3.108 -0.8196  1.2051  1.0897
  820TIP3   OH224094   3.378   0.621   1.917  0.5542 -0.3738 -0.1336
  820TIP3    H124095   3.318   0.566   1.866 -0.6024 -0.3953  1.1966
  820TIP3    H224096   3.382   0.579   2.003  0.1644  1.2553  0.7084
  821TIP3   OH224097   2.292   6.175   4.267 -0.5630  0.2618  0.2487
  821TIP3    H124098   2.211   6.128   4.284 -1.6286  1.5258 -1.0474
  821TIP3    H224099   2.354   6.141   4.331 -1.2620 -2.8063 -0.5563
  822TIP3   OH224100   6.685   3.233   0.876 -0.5508 -0.2989 -0.1506
  822TIP3    H124101   6.737   3.154   0.862  0.9408  0.7422 -0.7377
  822TIP3    H224102   6.624   3.234   0.802 -0.6327 -0.9256 -0.1018
  823TIP3   OH224103   0.405   1.199   3.532  0.0961  0.4115  0.3884
  823TIP3    H124104   0.482   1.254   3.543  2.0683 -2.2111  0.9248
  823TIP3    H224105   0.418   1.156   3.448 -0.4055 -0.5750  0.7933
  824TIP3   OH224106   4.858   0.868   4.467  0.4176 -0.0028  0.3992
  824TIP3    H124107   4.866   0.784   4.511 -0.6606  0.3145  1.2558
  824TIP3    H224108   4.764   0.880   4.454  0.5817  0.8810 -0.0671
  825TIP3   OH224109   5.093   5.266   4.963  0.0979  0.6437 -0.1997
  825TIP3    H124110   5.101   5.344   4.908  0.0431  1.6255  1.1296
  825TIP3    H224111   5.020   5.285   5.021  2.1775  1.1545  2.4848
  826TIP3   OH224112   5.729   0.953   1.355 -0.0850  0.3273  0.5226
  826TIP3    H124113   5.687   1.010   1.419  1.0124  2.7280 -0.7584
  826TIP3    H224114   5.776   1.013   1.296 -0.3888 -1.7734 -2.0684
  827TIP3   OH224115   3.069   4.119   2.643  0.6670  0.3650  0.9231
  827TIP3    H124116   3.164   4.118   2.652  0.7480  2.5548  0.8764
  827TIP3    H224117   3.037   4.144   2.730  0.4126  3.2222  0.1300
  828TIP3   OH224118   0.077   1.004   1.462  0.3724  0.0592 -0.1964
  828TIP3    H124119   0.034   1.011   1.377 -0.5224 -2.0512  0.0085
  828TIP3    H224120   0.163   1.043   1.449 -0.3216  1.2249 -1.5983
  829TIP3   OH224121   5.514   0.556   5.566  0.0193  0.0949  0.3645
  829TIP3    H124122   5.457   0.604   5.626 -2.2349 -1.8094 -0.1037
  829TIP3    H224123   5.489   0.585   5.479  0.7416  0.2094  0.1841
  830TIP3   OH224124   0.418   0.895   2.929  0.4741  0.7407 -0.3233
  830TIP3    H124125   0.394   0.816   2.880  0.0253  1.0867 -0.6660
  830TIP3    H224126   0.372   0.966   2.885  0.4110  1.1192  0.3371
  831TIP3   OH224127   0.850   3.353   0.123 -0.3572 -0.2397 -0.3531
  831TIP3    H124128   0.937   3.346   0.083  0.3978 -2.3866  1.4413
  831TIP3    H224129   0.820   3.262   0.131 -2.2720  0.3989  0.0859
  832TIP3   OH224130   1.122   5.306   4.079 -0.3014  0.1763 -0.2148
  832TIP3    H124131   1.043   5.330   4.030  0.9905 -0.7848 -2.9294
  832TIP3    H224132   1.193   5.354   4.037  1.0956 -1.8909 -0.4050
  833TIP3   OH224133   0.542   4.344   2.725  0.3561 -0.3301  0.6618
  833TIP3    H124134   0.575   4.260   2.692 -0.8686 -1.3414  1.9392
  833TIP3    H224135   0.481   4.321   2.795 -0.5503  1.6036  0.5776
  834TIP3   OH224136   0.130   3.250   3.358  0.7313  0.1596 -0.2011
  834TIP3    H124137   0.175   3.313   3.415  0.5134  1.9677 -1.9262
  834TIP3    H224138   0.167   3.264   3.272 -0.2320 -1.2265 -0.8840
  835TIP3   OH224139   0.483   3.456   2.078 -0.5316  0.0523  0.2832
  835TIP3    H124140   0.508   3.485   2.166 -0.0021 -0.1534  0.2082
  835TIP3    H224141   0.558   3.403   2.048 -1.3851 -1.2494  0.3552
  836TIP3   OH224142   3.402   5.751   1.220  0.4572 -0.4288  0.6713
  836TIP3    H124143   3.473   5.786   1.275  2.7222 -1.6668 -1.2546
  836TIP3    H224144   3.405   5.804   1.141  0.0482 -1.2732  0.0824
  837TIP3   OH224145   6.345   5.121   1.037  0.3032 -0.8974  0.5124
  837TIP3    H124146   6.307   5.129   0.949 -0.1841 -2.8349  0.4914
  837TIP3    H224147   6.276   5.152   1.096  0.3269 -0.3452  0.2485
  838TIP3   OH224148   6.456   3.606   5.768  0.4292 -0.6028 -0.1729
  838TIP3    H124149   6.497   3.692   5.773 -0.5775 -0.0140 -1.5289
  838TIP3    H224150   6.528   3.546   5.753  1.0744  0.0754  0.1511
  839TIP3   OH224151   4.892   3.945   3.984  0.1550 -0.3178  0.4791
  839TIP3    H124152   4.920   3.920   4.072  0.4614 -1.2834  0.1144
  839TIP3    H224153   4.808   3.901   3.971  0.5096 -0.8584 -0.0209
  840TIP3   OH224154   2.770   3.862   1.351 -0.2769 -0.2436 -0.2326
  840TIP3    H124155   2.801   3.861   1.260 -0.4191  2.2000 -0.3957
  840TIP3    H224156   2.824   3.929   1.393 -2.0437  0.6526  0.7301
  841TIP3   OH224157   3.130   2.937   1.466 -0.2804  0.3862  0.5240
  841TIP3    H124158   3.189   2.973   1.533 -2.7494  0.3756  2.8680
  841TIP3    H224159   3.175   2.857   1.436  2.6972  2.3691 -0.7960
  842TIP3   OH224160   1.735   6.283   2.546 -0.1213  0.2147  0.1801
  842TIP3    H124161   1.698   6.230   2.616 -1.5648  0.7956 -0.1057
  842TIP3    H224162   1.727   6.229   2.468 -0.4524  0.3685  0.1054
  843TIP3   OH224163   0.843   5.675   4.666 -0.4116 -0.4670  0.2144
  843TIP3    H124164   0.807   5.639   4.748 -2.5539  1.3945  0.1946
  843TIP3    H224165   0.919   5.726   4.695 -1.5320  0.7311  1.2215
  844TIP3   OH224166   3.407   1.236   3.507 -0.6884  0.3068  0.1782
  844TIP3    H124167   3.491   1.270   3.536 -0.5564  2.7826 -2.6442
  844TIP3    H224168   3.344   1.271   3.570  0.1310  0.5935  0.8539
  845TIP3   OH224169   3.218   2.002   4.771 -0.5619  0.5043 -0.4449
  845TIP3    H124170   3.202   1.931   4.833  2.5283 -0.7518 -0.8754
  845TIP3    H224171   3.160   2.072   4.799 -2.8920 -1.7387  0.7568
  846TIP3   OH224172   6.382   2.117   3.621  0.3455 -0.0102 -0.5618
  846TIP3    H124173   6.331   2.195   3.599  0.4503 -0.2555 -1.7324
  846TIP3    H224174   6.473   2.144   3.611  0.4156  0.0376  0.1734
  847TIP3   OH224175   3.774   2.849   1.317 -0.1731  0.6241 -0.2374
  847TIP3    H124176   3.778   2.794   1.239 -0.1428  1.8607 -1.1431
  847TIP3    H224177   3.682   2.874   1.325  0.2281  2.7959 -1.5879
  848TIP3   OH224178   5.643   5.893   4.922  0.1159  0.3517 -0.1368
  848TIP3    H124179   5.620   5.901   4.829  1.1576 -0.3616 -0.4679
  848TIP3    H224180   5.635   5.800   4.941  0.2986  0.4414  0.3864
  849TIP3   OH224181   6.747   5.237   4.458  0.8538  0.1194  0.0269
  849TIP3    H124182   6.838   5.221   4.483  0.3963 -0.1960  1.6333
  849TIP3    H224183   6.745   5.223   4.364  2.5787  0.7016 -0.1271
  850TIP3   OH224184   5.941   3.071   1.854  0.4702 -0.8222 -0.0784
  850TIP3    H124185   6.034   3.091   1.851  0.4219 -0.3247  1.1042
  850TIP3    H224186   5.901   3.149   1.895 -0.5187 -0.8467 -0.9578
  851TIP3   OH224187   2.178   4.655   0.708  0.2303  0.1219 -0.4142
  851TIP3    H124188   2.259   4.672   0.660  0.9467 -1.4399  0.2115
  851TIP3    H224189   2.158   4.563   0.691 -0.6692  0.1172  0.5513
  852TIP3   OH224190   2.225   4.561   2.019  0.2311 -0.1624 -0.1725
  852TIP3    H124191   2.272   4.578   1.937  0.3279 -0.5914 -0.2116
  852TIP3    H224192   2.269   4.615   2.084  0.8357 -0.6224 -0.1938
  853TIP3   OH224193   3.044   0.485   2.431 -0.3171  0.0402 -0.7788
  853TIP3    H124194   3.109   0.525   2.489 -2.2790 -0.3493  1.8986
  853TIP3    H224195   3.025   0.400   2.472 -0.1804 -1.3066 -3.3244
  854TIP3   OH224196   3.800   4.735   1.652 -0.3517 -0.5812 -0.3084
  854TIP3    H124197   3.812   4.791   1.575  1.8979  0.4586  0.7241
  854TIP3    H224198   3.818   4.793   1.726 -1.4079 -1.8433  0.9881
  855TIP3   OH224199   1.850   6.134   5.442 -0.3666 -0.0952  0.5511
  855TIP3    H124200   1.896   6.201   5.391  0.7465  1.7227  3.6647
  855TIP3    H224201   1.903   6.055   5.429  0.1500  0.4167 -0.6751
  856TIP3   OH224202   0.768   1.541   2.357  0.3019 -0.1222 -0.0602
  856TIP3    H124203   0.826   1.610   2.324  0.9427 -0.7510 -0.2780
  856TIP3    H224204   0.680   1.568   2.330  0.5364  0.6369 -0.0887
  857TIP3   OH224205   4.375   4.832   2.492 -0.2937  0.0459  0.3045
  857TIP3    H124206   4.396   4.925   2.489  0.7556 -0.1610  0.5771
  857TIP3    H224207   4.374   4.804   2.400 -0.7172  0.3443  0.2184
  858TIP3   OH224208   1.691   5.550   1.901 -0.3071 -0.0527 -0.5657
  858TIP3    H124209   1.654   5.571   1.987 -0.4102 -2.1450 -0.0585
  858TIP3    H224210   1.631   5.591   1.839  0.1846  2.1690  0.3188
  859TIP3   OH224211   2.290   5.400   1.621 -0.1663  0.3091  0.2293
  859TIP3    H124212   2.254   5.336   1.683 -1.6130  0.8663 -0.0103
  859TIP3    H224213   2.337   5.347   1.557 -1.4650 -0.5423 -0.0550
  860TIP3   OH224214   4.512   2.579   2.889 -0.8116  0.3397 -0.3331
  860TIP3    H124215   4.454   2.568   2.964 -0.9265 -0.4003 -0.5143
  860TIP3    H224216   4.454   2.610   2.819 -0.5942  1.6233  0.0282
  861TIP3   OH224217   5.268   4.633   3.256 -0.7118  0.3210  0.2599
  861TIP3    H124218   5.200   4.665   3.316 -1.0854  0.2063 -0.0953
  861TIP3    H224219   5.283   4.542   3.284  1.4019  1.1901  2.2127
  862TIP3   OH224220   6.049   1.985   2.862  0.0761 -0.4189 -0.0395
  862TIP3    H124221   6.012   2.014   2.945 -0.1123 -0.3308 -0.1541
  862TIP3    H224222   6.133   1.946   2.886 -0.0838 -0.6108  0.2206
  863TIP3   OH224223   4.286   2.711   0.787 -0.4795 -0.2886  0.4894
  863TIP3    H124224   4.198   2.749   0.794 -0.1860  0.2616  1.3232
  863TIP3    H224225   4.342   2.785   0.766 -0.1944 -0.6155  0.1033
  864TIP3   OH224226   3.904   1.032   4.761  0.4659  0.0316 -0.0074
  864TIP3    H124227   3.955   1.106   4.795  0.2544  0.2258 -0.1182
  864TIP3    H224228   3.813   1.058   4.772  0.3926  0.1336 -0.8039
  865TIP3   OH224229   3.423   5.965   3.157  0.0760  0.1547  0.5111
  865TIP3    H124230   3.379   5.887   3.189  0.5489  0.3515  1.7097
  865TIP3    H224231   3.516   5.943   3.158  0.1624  0.4630  0.0636
  866TIP3   OH224232   5.837   2.329   2.583 -0.3616 -0.0490 -0.4908
  866TIP3    H124233   5.920   2.320   2.537 -0.5552  2.7434 -1.5427
  866TIP3    H224234   5.854   2.395   2.651 -1.9520  1.4255 -1.4537
  867TIP3   OH224235   4.306   1.341   2.215 -0.4853 -0.5034 -0.1701
  867TIP3    H124236   4.229   1.285   2.201 -1.4415 -0.2807  3.3099
  867TIP3    H224237   4.342   1.311   2.299  1.7370  1.1236 -0.4585
  868TIP3   OH224238   2.189   2.245   3.253  0.2225  0.2154 -0.5150
  868TIP3    H124239   2.158   2.315   3.195  0.3284 -0.1956 -1.0796
  868TIP3    H224240   2.148   2.263   3.337  1.1094  1.5980 -0.3415
  869TIP3   OH224241   5.301   2.805   3.598 -0.6040 -0.0314 -0.3156
  869TIP3    H124242   5.242   2.749   3.546 -1.4667  0.1354  0.4629
  869TIP3    H224243   5.258   2.813   3.683  0.2288  0.6379  0.0554
  870TIP3   OH224244   5.479   0.377   1.578  0.3492  0.3049  0.0679
  870TIP3    H124245   5.466   0.461   1.534 -0.8302  0.5041  0.7270
  870TIP3    H224246   5.419   0.380   1.653  0.3267 -1.1013  0.1407
  871TIP3   OH224247   2.490   5.557   4.040 -0.2793 -0.1737 -0.3360
  871TIP3    H124248   2.510   5.532   4.131  0.1114  2.0752  0.2431
  871TIP3    H224249   2.576   5.567   3.999 -0.3849  0.9837 -0.3027
  872TIP3   OH224250   3.445   1.829   1.725 -0.4904  0.2474 -0.2973
  872TIP3    H124251   3.541   1.822   1.731 -0.5927 -0.0573  1.7006
  872TIP3    H224252   3.426   1.820   1.632  1.2446 -2.3566 -0.4978
  873TIP3   OH224253   1.215   6.719   4.477  0.5038  0.5239 -0.5287
  873TIP3    H124254   1.192   6.702   4.568  2.9814  1.4521  0.3587
  873TIP3    H224255   1.137   6.759   4.439 -0.8736 -0.6650  0.9167
  874TIP3   OH224256   1.347   6.639   3.276 -0.0156 -0.4530 -0.7845
  874TIP3    H124257   1.388   6.683   3.351 -1.2561  1.3052 -1.0581
  874TIP3    H224258   1.405   6.566   3.257  3.1061  1.9030 -1.2317
  875TIP3   OH224259   0.138   2.237   1.065  0.0192 -0.0219  0.0351
  875TIP3    H124260   0.075   2.309   1.070  1.9836  1.7266  2.7113
  875TIP3    H224261   0.208   2.270   1.009 -1.1002 -1.8469 -2.6922
  876TIP3   OH224262   1.878   6.498   1.205 -0.3053  0.1199  0.2598
  876TIP3    H124263   1.910   6.589   1.200  0.0101 -0.0667 -1.9814
  876TIP3    H224264   1.885   6.465   1.116 -0.5934 -2.0826  0.9923
  877TIP3   OH224265   6.396   5.549   4.114  0.6618 -0.6845 -0.2911
  877TIP3    H124266   6.314   5.523   4.155  0.1577 -0.9083 -1.4210
  877TIP3    H224267   6.452   5.472   4.121  0.9160 -0.4292  0.7643
  878TIP3   OH224268   0.426   6.686   3.182 -0.6053  0.4054  0.6488
  878TIP3    H124269   0.348   6.692   3.127  0.0834  2.4985 -0.1643
  878TIP3    H224270   0.398   6.722   3.266 -0.8627 -0.1450  0.8100
  879TIP3   OH224271   5.952   2.878   0.790 -0.0572 -0.0625  0.0113
  879TIP3    H124272   5.867   2.874   0.746  0.8176 -1.6034 -1.7047
  879TIP3    H224273   5.954   2.965   0.830 -2.4522 -0.0181  0.1872
  880TIP3   OH224274   3.165   6.094   1.395 -0.3481 -0.8095 -0.0099
  880TIP3    H124275   3.140   6.098   1.303  1.7382  1.1996 -0.5758
  880TIP3    H224276   3.168   6.186   1.423  3.1265 -1.0147  0.7851
  881TIP3   OH224277   2.701   0.813   4.854  0.7597 -0.0338  0.6244
  881TIP3    H124278   2.781   0.828   4.904  1.5828  0.2880 -0.7186
  881TIP3    H224279   2.684   0.897   4.811  0.4101 -0.4567 -0.0746
  882TIP3   OH224280   0.638   5.132   1.192 -0.5429 -0.1170  0.0605
  882TIP3    H124281   0.604   5.130   1.282 -0.6727  0.1333  0.0208
  882TIP3    H224282   0.656   5.225   1.176  0.5522 -0.2938  0.2193
  883TIP3   OH224283   5.568   3.529   4.735  0.4808 -0.1883 -0.0836
  883TIP3    H124284   5.539   3.546   4.645  2.3177 -1.8940 -1.0884
  883TIP3    H224285   5.504   3.467   4.770  0.3680 -0.3756 -0.6182
  884TIP3   OH224286   2.873   5.225   1.004  0.3181  0.2231 -0.1171
  884TIP3    H124287   2.931   5.298   1.022  0.1180  0.2896  0.2687
  884TIP3    H224288   2.926   5.165   0.951  0.2615  0.9549 -1.0180
  885TIP3   OH224289   5.156   5.867   3.012  0.2725 -0.1139 -0.0820
  885TIP3    H124290   5.169   5.920   3.090  1.7134 -0.2110 -0.2348
  885TIP3    H224291   5.113   5.788   3.044 -0.8846  0.6455  0.3061
  886TIP3   OH224292   4.903   5.727   4.759 -0.1749 -0.0911 -0.1436
  886TIP3    H124293   4.890   5.801   4.700 -0.3687  0.3776  0.4801
  886TIP3    H224294   4.951   5.764   4.834  3.4985 -1.3747 -1.6133
  887TIP3   OH224295   1.957   6.253   5.201 -0.2343  0.0807 -0.7536
  887TIP3    H124296   1.967   6.176   5.147 -0.2982 -0.5345  0.0861
  887TIP3    H224297   2.042   6.296   5.200  0.2246 -0.7898 -0.0710
  888TIP3   OH224298   1.495   2.692   3.813 -0.5187  0.1511  0.4581
  888TIP3    H124299   1.580   2.657   3.838  0.0694  1.5306  0.4390
  888TIP3    H224300   1.459   2.626   3.752 -0.0170 -1.0211  1.4010
  889TIP3   OH224301   1.482   1.371   4.462 -0.2280  0.0329 -0.1346
  889TIP3    H124302   1.489   1.381   4.367  2.1586 -0.4043 -0.0480
  889TIP3    H224303   1.405   1.423   4.485 -0.3231  0.9093 -2.1765
  890TIP3   OH224304   0.069   0.471   1.081 -0.6716 -0.2354 -0.0883
  890TIP3    H124305   0.004   0.439   1.144  0.9858 -3.3020  0.2467
  890TIP3    H224306   0.131   0.520   1.134 -0.4074 -1.0136  0.3329
  891TIP3   OH224307   2.166   1.117   4.355  0.7082  0.2072  0.0263
  891TIP3    H124308   2.135   1.057   4.423 -0.6202 -0.1175 -0.8225
  891TIP3    H224309   2.125   1.201   4.375  1.2412  0.4123  0.2724
  892TIP3   OH224310   6.342   4.972   1.594  0.2734 -0.1105  0.5107
  892TIP3    H124311   6.315   4.922   1.671 -0.3422 -0.0122  0.3635
  892TIP3    H224312   6.311   5.061   1.611  0.3947 -0.0218  0.2746
  893TIP3   OH224313   5.586   0.533   4.205 -0.1645 -0.1004 -0.1732
  893TIP3    H124314   5.628   0.619   4.204 -0.3675  0.0162  0.5124
  893TIP3    H224315   5.649   0.475   4.163 -0.7546  0.6783 -2.2848
  894TIP3   OH224316   5.083   1.395   5.583  0.3248 -0.3436  0.3771
  894TIP3    H124317   5.122   1.482   5.573  0.8437 -0.5178  0.8107
  894TIP3    H224318   5.153   1.335   5.557  0.0319 -0.6360  0.2587
  895TIP3   OH224319   5.598   1.286   2.842  0.0158 -0.6979  0.2093
  895TIP3    H124320   5.650   1.325   2.913 -1.2446  0.2091  0.6754
  895TIP3    H224321   5.538   1.227   2.887 -1.1992  0.3273 -0.0004
  896TIP3   OH224322   1.641   1.831   2.536  0.8963  0.7574  0.3141
  896TIP3    H124323   1.661   1.849   2.628 -0.8583  1.4106  0.6167
  896TIP3    H224324   1.665   1.740   2.523 -0.6482  0.0410  2.0095
  897TIP3   OH224325   4.858   2.278   5.486  0.0379  0.4426 -0.0073
  897TIP3    H124326   4.783   2.272   5.427  0.9019  0.4329 -1.1261
  897TIP3    H224327   4.869   2.189   5.520 -0.8043  0.5649  0.6395
  898TIP3   OH224328   3.140   3.734   0.830 -0.2411  0.0133 -0.1921
  898TIP3    H124329   3.186   3.758   0.749  1.0996  0.5335  0.6834
  898TIP3    H224330   3.205   3.684   0.879 -1.4834 -1.4682  0.0115
  899TIP3   OH224331   0.658   3.542   4.760  0.0850 -0.9012  0.0267
  899TIP3    H124332   0.576   3.528   4.807  0.5881  0.2189  1.2738
  899TIP3    H224333   0.713   3.592   4.820  1.3403 -0.7944 -1.1548
  900TIP3   OH224334   2.462   5.182   2.126  0.4497 -0.0880 -0.1448
  900TIP3    H124335   2.482   5.099   2.083 -2.5401 -2.5131  2.6163
  900TIP3    H224336   2.547   5.223   2.139  2.3696 -3.7604  0.2285
  901TIP3   OH224337   2.377   0.764   3.064  0.1024  0.4344  0.1453
  901TIP3    H124338   2.414   0.713   3.136  0.4453  3.2945  2.1407
  901TIP3    H224339   2.448   0.819   3.034 -0.4603  0.3456 -1.4422
  902TIP3   OH224340   5.095   3.269   1.871  0.0254 -0.2486  0.2428
  902TIP3    H124341   5.104   3.192   1.815  0.7157 -0.4985  0.6942
  902TIP3    H224342   5.000   3.285   1.873 -0.3617 -2.2348  1.6687
  903TIP3   OH224343   4.332   3.957   3.530 -0.8941  0.0317 -0.2535
  903TIP3    H124344   4.358   4.030   3.586 -2.3919 -0.8220  1.6746
  903TIP3    H224345   4.256   3.989   3.482 -2.6553 -0.6720  1.8712
  904TIP3   OH224346   6.002   3.119   2.152  0.2882 -0.2302  0.3808
  904TIP3    H124347   5.991   3.130   2.247 -1.1898 -0.6075  0.2853
  904TIP3    H224348   5.921   3.154   2.115  1.0774  0.4157 -0.8026
  905TIP3   OH224349   4.246   2.852   4.794  0.1746  0.4924  1.0875
  905TIP3    H124350   4.242   2.757   4.799 -1.0921  0.5538  1.7360
  905TIP3    H224351   4.274   2.870   4.704  1.7464 -0.4824  1.3410
  906TIP3   OH224352   6.268   0.922   4.315  0.4328 -0.7397 -0.0010
  906TIP3    H124353   6.281   0.969   4.232  0.1031 -0.9634 -0.1829
  906TIP3    H224354   6.261   0.830   4.289 -1.4240 -0.6548  0.0751
  907TIP3   OH224355   6.170   3.974   1.488  0.3779 -0.6921 -0.0210
  907TIP3    H124356   6.190   3.881   1.493 -1.1622 -1.0381  0.2960
  907TIP3    H224357   6.234   4.010   1.426  1.8660 -1.6812  0.8894
  908TIP3   OH224358   0.248   0.975   2.683  0.2744 -0.0065 -0.2099
  908TIP3    H124359   0.187   1.041   2.651 -0.0068 -0.7780 -1.3446
  908TIP3    H224360   0.197   0.894   2.687  1.6218 -1.1768 -3.2734
  909TIP3   OH224361   2.515   1.389   4.907 -0.0349 -0.3854 -0.4076
  909TIP3    H124362   2.501   1.413   4.999 -1.1378 -2.2835 -0.0130
  909TIP3    H224363   2.609   1.399   4.893 -0.0142  1.0158  0.5824
  910TIP3   OH224364   2.457   1.207   3.691  0.1931  0.0980  0.8242
  910TIP3    H124365   2.495   1.270   3.629  1.2293 -1.5796 -0.3020
  910TIP3    H224366   2.508   1.218   3.771  1.0538 -0.0344  0.2989
  911TIP3   OH224367   4.424   5.100   2.467 -0.1579  0.2717 -0.4362
  911TIP3    H124368   4.405   5.150   2.546 -2.2760 -1.3892  0.2020
  911TIP3    H224369   4.385   5.151   2.396  0.9037  1.2841 -0.3177
  912TIP3   OH224370   4.973   2.199   2.670 -0.3951  0.3465  0.0210
  912TIP3    H124371   5.067   2.210   2.684 -0.6674  0.2179  2.4053
  912TIP3    H224372   4.965   2.114   2.626  0.6772  1.2776 -2.0702
  913TIP3   OH224373   4.053   5.227   5.032  0.3954 -0.6624  0.1183
  913TIP3    H124374   3.963   5.195   5.030  0.5439 -1.1273  0.6467
  913TIP3    H224375   4.067   5.253   5.123 -0.0538  1.9263 -0.4606
  914TIP3   OH224376   6.465   6.602   4.035 -0.1507 -0.4468 -0.2870
  914TIP3    H124377   6.492   6.688   4.001 -2.3123  0.5370  0.3123
  914TIP3    H224378   6.393   6.576   3.978  0.9998 -2.3208 -0.9820
  915TIP3   OH224379   1.433   6.084   4.972 -0.5759  0.2770  0.2368
  915TIP3    H124380   1.349   6.038   4.982 -0.2592 -0.1667  0.8835
  915TIP3    H224381   1.479   6.068   5.054  0.4819 -0.1694 -0.4309
  916TIP3   OH224382   3.390   2.150   3.862 -0.2487 -0.6231  0.5113
  916TIP3    H124383   3.419   2.213   3.796  1.4832 -0.2838  1.5340
  916TIP3    H224384   3.418   2.065   3.828 -0.0748 -0.5325  0.4254
  917TIP3   OH224385   5.814   2.077   1.126 -0.3806  0.1599 -0.2136
  917TIP3    H124386   5.764   2.146   1.170  0.3967  1.0271 -0.6636
  917TIP3    H224387   5.894   2.120   1.096  1.1676 -1.4008  1.3831
  918TIP3   OH224388   2.552   0.449   2.903  0.2499 -0.1114 -0.4952
  918TIP3    H124389   2.595   0.409   2.827  0.2010 -0.9654 -0.0859
  918TIP3    H224390   2.625   0.476   2.959  0.2979  0.8614 -0.9927
  919TIP3   OH224391   2.465   1.202   1.074  0.0991 -0.2472  0.4607
  919TIP3    H124392   2.535   1.177   1.014 -0.4111 -0.7192  0.0506
  919TIP3    H224393   2.508   1.208   1.159  0.7110 -0.1620  0.1551
  920TIP3   OH224394   3.413   4.757   3.645  0.2703  0.3944  0.3851
  920TIP3    H124395   3.423   4.668   3.679  0.4910  0.0528 -0.5246
  920TIP3    H224396   3.331   4.754   3.595  1.3551  0.0475 -1.4973
  921TIP3   OH224397   5.707   5.724   3.552  0.0768  1.3315  0.0865
  921TIP3    H124398   5.626   5.752   3.594 -0.4888  0.5693 -0.4600
  921TIP3    H224399   5.696   5.629   3.540  0.2784  1.4934 -1.6056
  922TIP3   OH224400   1.332   1.286   1.522  0.4917 -0.1553  0.2655
  922TIP3    H124401   1.296   1.200   1.547 -0.9624  0.1235 -0.7472
  922TIP3    H224402   1.256   1.344   1.521  1.1199  0.6781 -1.0609
  923TIP3   OH224403   3.559   1.632   4.629  0.0583  0.1778 -0.9618
  923TIP3    H124404   3.543   1.726   4.637 -0.9372 -0.0774  0.4549
  923TIP3    H224405   3.620   1.624   4.556  0.2027  1.9240 -1.0702
  924TIP3   OH224406   3.281   2.548   4.438 -0.0178  0.6609  0.0542
  924TIP3    H124407   3.315   2.594   4.514 -1.6161  1.0648  0.5806
  924TIP3    H224408   3.314   2.598   4.363  0.3155  1.1789  0.5363
  925TIP3   OH224409   1.585   0.463   1.839 -0.0116  0.0337 -0.3137
  925TIP3    H124410   1.545   0.546   1.863 -0.9401 -0.5485  0.2148
  925TIP3    H224411   1.641   0.483   1.764 -0.2272  1.1226 -0.1932
  926TIP3   OH224412   3.083   6.339   1.789  0.3929 -0.2025  0.3809
  926TIP3    H124413   3.143   6.279   1.833  0.1298 -2.6252 -2.2873
  926TIP3    H224414   2.996   6.308   1.813  0.2522 -0.9762 -1.0407
  927TIP3   OH224415   6.672   4.090   1.044  0.4433  0.1903 -0.4481
  927TIP3    H124416   6.603   4.144   1.082  0.7495 -1.3068  2.5316
  927TIP3    H224417   6.742   4.151   1.021 -0.7675  1.4254 -0.9868
  928TIP3   OH224418   3.348   6.430   3.906 -0.1880 -0.0197  0.0741
  928TIP3    H124419   3.357   6.521   3.878  0.1329 -0.0290  0.1376
  928TIP3    H224420   3.260   6.405   3.880 -0.0006  0.0620 -0.6761
  929TIP3   OH224421   3.467   4.798   2.596  0.0197  0.1723  0.0123
  929TIP3    H124422   3.463   4.749   2.678  1.1390  1.0337  0.6116
  929TIP3    H224423   3.438   4.886   2.620 -1.4949 -0.0315 -0.9418
  930TIP3   OH224424   1.268   3.372   3.714 -0.1954 -0.0111 -0.1642
  930TIP3    H124425   1.295   3.393   3.803  0.0668 -0.8479 -0.0329
  930TIP3    H224426   1.260   3.456   3.670  0.8364  0.3589  0.3218
  931TIP3   OH224427   0.062   2.965   1.730  0.8318  0.7251  0.2115
  931TIP3    H124428   0.101   2.946   1.645  0.6180 -0.2348  0.3133
  931TIP3    H224429   0.119   2.923   1.794  0.4613  0.6009  0.4696
  932TIP3   OH224430   2.397   5.230   2.407  0.4666  0.3063 -0.7117
  932TIP3    H124431   2.410   5.218   2.313 -2.5403  0.9898 -1.3253
  932TIP3    H224432   2.302   5.233   2.417  0.7320  1.5410  2.2089
  933TIP3   OH224433   2.079   0.192   3.036 -0.1682  0.2240  0.2365
  933TIP3    H124434   2.069   0.200   3.131 -0.8560 -1.8307  0.3815
  933TIP3    H224435   2.170   0.218   3.019  0.1733 -0.0517  1.5483
  934TIP3   OH224436   6.632   1.161   1.000  0.0791  0.1579 -0.2536
  934TIP3    H124437   6.601   1.247   1.030 -0.3167  0.3580 -1.2087
  934TIP3    H224438   6.665   1.177   0.912  2.1049 -0.2277  0.3885
  935TIP3   OH224439   5.567   0.360   1.193 -0.1456  0.0860  0.0546
  935TIP3    H124440   5.563   0.299   1.267 -2.5849  0.7372  0.5510
  935TIP3    H224441   5.510   0.321   1.127  0.9984  0.1564 -1.0101
  936TIP3   OH224442   4.056   5.105   3.271  0.5136  0.1049 -0.1256
  936TIP3    H124443   4.085   5.090   3.181 -0.8589  0.0722 -0.5945
  936TIP3    H224444   3.960   5.099   3.266  0.4176  0.0804  1.3452
  937TIP3   OH224445   0.410   2.723   2.258  0.2952 -0.6595 -0.5082
  937TIP3    H124446   0.470   2.663   2.304  0.6848  0.9304  1.1508
  937TIP3    H224447   0.351   2.755   2.326  0.1275  0.8770 -1.3362
  938TIP3   OH224448   4.578   1.000   2.227  0.0107 -0.3636 -0.2254
  938TIP3    H124449   4.616   0.913   2.224 -0.6106 -0.7377  1.7797
  938TIP3    H224450   4.642   1.053   2.275  0.1717  0.1991 -1.0310
  939TIP3   OH224451   0.682   6.069   3.223  0.0581 -0.0551  0.5513
  939TIP3    H124452   0.762   6.092   3.271 -0.5796  0.3699  1.4452
  939TIP3    H224453   0.666   6.142   3.165  1.2152 -0.8756 -0.8564
  940TIP3   OH224454   4.567   0.730   2.557  0.2052 -0.3078 -0.2225
  940TIP3    H124455   4.619   0.664   2.513  0.5708  0.0076 -0.2694
  940TIP3    H224456   4.594   0.813   2.517  1.4261  0.1268  1.3806
  941TIP3   OH224457   5.976   0.427   3.791 -0.3457 -0.4107 -0.3500
  941TIP3    H124458   5.900   0.461   3.744 -0.7484  0.0083  0.5687
  941TIP3    H224459   5.942   0.405   3.878  1.0916  2.3170  1.0322
  942TIP3   OH224460   5.892   0.480   1.304  0.1364 -0.0680 -0.2659
  942TIP3    H124461   5.899   0.393   1.265 -0.2448 -0.2273  0.0301
  942TIP3    H224462   5.943   0.475   1.385 -1.3348 -0.5301  0.6553
  943TIP3   OH224463   0.783   0.477   2.551  0.0992  0.2761  0.2439
  943TIP3    H124464   0.688   0.468   2.546  0.1204  0.5156 -1.1284
  943TIP3    H224465   0.814   0.392   2.582 -0.4593 -0.4686 -1.1418
  944TIP3   OH224466   4.112   0.660   4.650  0.1522 -0.1925  0.1889
  944TIP3    H124467   4.035   0.626   4.604  0.3849 -0.8245  0.2650
  944TIP3    H224468   4.179   0.665   4.582  0.4895 -1.1017  0.4509
  945TIP3   OH224469   0.570   6.398   1.798 -0.4943  0.2262 -0.0985
  945TIP3    H124470   0.642   6.335   1.795  0.4482  1.2313  0.6338
  945TIP3    H224471   0.601   6.468   1.855 -2.1514  0.5853  0.4236
  946TIP3   OH224472   1.614   2.255   2.062 -0.2548 -0.2204  0.4179
  946TIP3    H124473   1.658   2.199   2.126  0.6537  1.0147  0.9127
  946TIP3    H224474   1.544   2.297   2.112  0.2512  0.4947  0.5474
  947TIP3   OH224475   1.570   5.443   0.388 -0.1809 -0.3643 -0.2039
  947TIP3    H124476   1.651   5.405   0.355 -0.7131 -1.2973 -0.4826
  947TIP3    H224477   1.569   5.532   0.353  3.1467  1.6102  3.8142
  948TIP3   OH224478   1.373   3.613   4.664  0.0631  0.1907 -0.0512
  948TIP3    H124479   1.291   3.573   4.634 -0.3692 -0.9675  2.4132
  948TIP3    H224480   1.354   3.706   4.668 -1.1668 -0.0640  0.4802
  949TIP3   OH224481   3.121   3.347   3.195  0.1987 -0.3142  0.6826
  949TIP3    H124482   3.112   3.432   3.238  1.0062  0.0832  0.1141
  949TIP3    H224483   3.066   3.354   3.117  2.1421  0.6422 -0.6854
  950TIP3   OH224484   1.519   3.192   3.379 -0.5532  0.2105 -0.7340
  950TIP3    H124485   1.569   3.230   3.451 -0.7905  0.4853 -0.7121
  950TIP3    H224486   1.489   3.108   3.413 -2.7823  1.3859  0.4394
  951TIP3   OH224487   1.839   4.959   3.076 -0.0997  0.1543 -0.5915
  951TIP3    H124488   1.819   5.031   3.136 -1.3452  0.4450 -1.3219
  951TIP3    H224489   1.855   5.001   2.992  1.2558 -0.2825 -0.5840
  952TIP3   OH224490   2.580   6.577   2.109  0.1231 -0.2154  0.5253
  952TIP3    H124491   2.588   6.671   2.125  1.7782 -0.3189  0.5089
  952TIP3    H224492   2.573   6.569   2.014  0.0071 -0.1093  0.5249
  953TIP3   OH224493   4.187   6.448   2.967  0.8099 -0.5958 -0.0650
  953TIP3    H124494   4.243   6.408   2.900 -0.7728 -1.1070 -1.1542
  953TIP3    H224495   4.121   6.382   2.986 -0.4547  0.5970 -0.1170
  954TIP3   OH224496   6.018   2.096   4.318  1.2142 -0.1353 -0.3018
  954TIP3    H124497   5.969   2.028   4.272  0.4622 -1.6980  2.5727
  954TIP3    H224498   6.106   2.060   4.328  0.6288 -1.1888  1.8746
  955TIP3   OH224499   5.236   4.454   1.826 -0.2913  0.5819 -0.4354
  955TIP3    H124500   5.290   4.377   1.810 -1.3173 -0.1811 -0.2777
  955TIP3    H224501   5.300   4.525   1.837  0.6509 -0.1288 -1.0883
  956TIP3   OH224502   4.035   5.840   3.024  0.4271 -0.0673 -0.0173
  956TIP3    H124503   4.106   5.895   2.991 -0.6155  1.7090  0.5430
  956TIP3    H224504   4.045   5.844   3.119  0.7620 -1.4916  0.0267
  957TIP3   OH224505   6.590   4.890   2.609  0.2832 -0.5614  0.0236
  957TIP3    H124506   6.641   4.955   2.562 -0.2230 -0.3949 -0.2991
  957TIP3    H224507   6.500   4.924   2.609  0.0670 -1.1114  0.1035
  958TIP3   OH224508   2.710   1.344   1.955  0.0039 -0.0360  0.2196
  958TIP3    H124509   2.696   1.252   1.933  0.5083 -0.4820  1.6149
  958TIP3    H224510   2.783   1.342   2.017  1.8930  1.5665 -1.8163
  959TIP3   OH224511   0.240   5.172   1.472  0.2100  0.4167  0.0061
  959TIP3    H124512   0.260   5.102   1.411  0.4073  0.9014 -0.4905
  959TIP3    H224513   0.280   5.144   1.555  1.2908  0.4750 -0.4774
  960TIP3   OH224514   0.454   0.354   3.715 -0.3701  0.0416  0.3346
  960TIP3    H124515   0.433   0.410   3.640 -0.4416 -0.2020  0.1710
  960TIP3    H224516   0.385   0.288   3.715 -0.1401 -0.1975  0.3739
  961TIP3   OH224517   5.370   4.677   4.274  0.1240  0.6172 -0.3909
  961TIP3    H124518   5.396   4.733   4.347  1.3033  1.4358 -1.4052
  961TIP3    H224519   5.373   4.588   4.310 -0.7012  1.0935  0.9264
  962TIP3   OH224520   6.621   3.591   4.244 -0.4726  0.2658 -0.6534
  962TIP3    H124521   6.606   3.551   4.330  0.1181 -0.1030 -0.7142
  962TIP3    H224522   6.606   3.685   4.258  1.6608  0.5223  0.3805
  963TIP3   OH224523   0.559   5.055   3.624 -0.1348 -0.6855  0.1724
  963TIP3    H124524   0.494   5.126   3.625 -0.2564 -0.8003  0.3473
  963TIP3    H224525   0.643   5.100   3.625 -0.1644 -0.5669  3.0817
  964TIP3   OH224526   1.148   6.562   4.177 -0.4566 -0.5388 -0.1853
  964TIP3    H124527   1.131   6.606   4.093  0.4385  0.2421  0.0304
  964TIP3    H224528   1.240   6.580   4.195 -0.5551 -0.9857  0.8117
  965TIP3   OH224529   2.795   1.909   4.378  0.6172  0.2659  0.2924
  965TIP3    H124530   2.862   1.960   4.424  0.3297  0.1541  0.8437
  965TIP3    H224531   2.778   1.959   4.298  1.2774  0.3521  0.1978
  966TIP3   OH224532   1.222   0.886   2.741  0.1483  0.5615  0.0344
  966TIP3    H124533   1.175   0.849   2.816  2.1472 -2.1944  0.0634
  966TIP3    H224534   1.261   0.966   2.776  1.0841 -0.6926  2.0424
  967TIP3   OH224535   5.365   3.414   4.205 -0.4004 -0.2877  0.0751
  967TIP3    H124536   5.407   3.499   4.191 -1.4466  0.1909 -0.3075
  967TIP3    H224537   5.437   3.352   4.213  0.3836  0.6521  0.4474
  968TIP3   OH224538   1.916   0.131   5.336 -0.3497 -0.0145 -0.3300
  968TIP3    H124539   1.909   0.222   5.307 -1.0359 -0.0815 -0.4079
  968TIP3    H224540   1.900   0.136   5.431 -0.3103 -0.0402 -0.3224
  969TIP3   OH224541   3.207   0.363   1.404  0.8574  0.2216  0.2325
  969TIP3    H124542   3.272   0.360   1.334  2.3264  1.5607  1.4734
  969TIP3    H224543   3.224   0.445   1.450  0.0302 -0.6436  2.2220
  970TIP3   OH224544   3.523   5.653   3.600  0.6922  0.2035 -0.2066
  970TIP3    H124545   3.507   5.726   3.540 -0.8824 -0.7346 -0.9913
  970TIP3    H224546   3.437   5.631   3.635  1.3738 -0.2637  1.2452
  971TIP3   OH224547   4.507   3.199   3.654  0.0937 -0.2715 -0.0051
  971TIP3    H124548   4.468   3.273   3.702 -0.3319 -1.5443  1.7171
  971TIP3    H224549   4.456   3.123   3.681  0.8480 -1.2872 -1.3296
  972TIP3   OH224550   1.933   0.349   2.012 -0.5067 -0.5137  0.0590
  972TIP3    H124551   1.909   0.436   1.981 -0.2765 -0.4898 -0.0545
  972TIP3    H224552   1.877   0.334   2.088 -1.7630 -0.9593 -0.9047
  973TIP3   OH224553   1.005   2.868   0.262  0.5197  0.0721  0.0162
  973TIP3    H124554   1.053   2.814   0.199 -0.3349  0.3448 -0.8925
  973TIP3    H224555   0.915   2.837   0.257  0.6255 -0.7156  1.9987
  974TIP3   OH224556   0.702   5.372   5.162 -0.3450  0.8413  0.1802
  974TIP3    H124557   0.684   5.464   5.143 -1.6677  0.4847 -0.4938
  974TIP3    H224558   0.615   5.332   5.167  0.2166 -0.5002 -0.2475
  975TIP3   OH224559   2.435   0.814   3.764  0.4564  0.4051 -0.3856
  975TIP3    H124560   2.447   0.818   3.859 -1.9635 -0.7277  0.0738
  975TIP3    H224561   2.467   0.727   3.740  0.8105  0.5845 -0.5685
  976TIP3   OH224562   0.798   6.204   1.006  0.1941 -0.0241  0.4586
  976TIP3    H124563   0.756   6.155   0.935 -0.8949  0.2040  0.9317
  976TIP3    H224564   0.887   6.221   0.974  0.0604 -0.8713 -0.3922
  977TIP3   OH224565   5.873   5.201   4.039 -0.0958 -0.4743  0.6932
  977TIP3    H124566   5.958   5.232   4.006 -0.4603  1.2311  1.2357
  977TIP3    H224567   5.894   5.152   4.118  0.3555  0.6495  1.2936
  978TIP3   OH224568   6.284   0.708   0.632  0.1061  0.1148 -0.3663
  978TIP3    H124569   6.236   0.771   0.578  0.1311 -0.5616 -1.2178
  978TIP3    H224570   6.231   0.698   0.711  0.5384  1.8277  0.1786
  979TIP3   OH224571   6.759   5.337   5.305  0.1890  0.0890  0.1844
  979TIP3    H124572   6.708   5.283   5.244 -0.0419 -1.5144  1.7215
  979TIP3    H224573   6.772   5.420   5.259 -0.4378 -0.8667 -1.8109
  980TIP3   OH224574   0.462   3.223   4.725  0.0898 -0.5009 -0.0905
  980TIP3    H124575   0.402   3.262   4.662  0.0879  0.8882  0.7299
  980TIP3    H224576   0.434   3.258   4.810  2.4491  0.7801  0.2446
  981TIP3   OH224577   4.242   4.077   2.921  0.1221  0.1258  0.3794
  981TIP3    H124578   4.149   4.064   2.903  0.7648 -1.2548 -2.5509
  981TIP3    H224579   4.257   4.170   2.905 -0.4591  0.0085 -0.9398
  982TIP3   OH224580   6.456   6.071   4.830 -0.5173 -0.4984  0.6744
  982TIP3    H124581   6.395   6.127   4.877  1.8434  1.9909  1.0337
  982TIP3    H224582   6.516   6.039   4.898  2.4130  2.4485 -0.2721
  983TIP3   OH224583   3.286   3.718   2.871 -0.2225  0.1214 -0.0485
  983TIP3    H124584   3.319   3.643   2.821 -0.5698  0.3908 -0.6944
  983TIP3    H224585   3.313   3.701   2.961  1.5556  0.2605 -0.5271
  984TIP3   OH224586   2.364   2.838   4.499  0.4881 -0.7973  0.0702
  984TIP3    H124587   2.300   2.800   4.438  1.0180 -0.1980 -0.8828
  984TIP3    H224588   2.349   2.792   4.581 -0.7275 -1.1231 -0.3190
  985TIP3   OH224589   0.599   0.046   2.852 -0.1198  0.4321  0.0815
  985TIP3    H124590   0.609   0.132   2.892 -1.2835  0.4058  0.4868
  985TIP3    H224591   0.504   0.032   2.848  0.0470 -1.0462  0.5147
  986TIP3   OH224592   2.008   1.794   2.614 -0.6543 -0.4773  0.2438
  986TIP3    H124593   1.962   1.791   2.698  1.1878 -0.7387  1.2942
  986TIP3    H224594   2.100   1.800   2.637 -0.1428  0.3033 -1.7890
  987TIP3   OH224595   2.696   4.098   2.459 -0.5172 -0.4410  0.1960
  987TIP3    H124596   2.650   4.053   2.387 -1.1959  0.9112 -0.2407
  987TIP3    H224597   2.777   4.130   2.419 -0.8258  0.1833  0.0619
  988TIP3   OH224598   4.379   3.044   4.958  0.0886  0.1363 -0.2444
  988TIP3    H124599   4.327   2.988   4.901  0.2836 -0.1036 -0.1877
  988TIP3    H224600   4.404   3.118   4.903 -0.3917  0.3034 -0.2447
  989TIP3   OH224601   3.840   6.723   3.260  0.2050  0.1891 -0.2489
  989TIP3    H124602   3.908   6.679   3.310 -0.7888 -1.8785 -0.6197
  989TIP3    H224603   3.837   6.812   3.296  2.7536  0.2076  0.0674
  990TIP3   OH224604   3.900   6.439   3.573  0.0183 -0.1869 -0.3265
  990TIP3    H124605   3.962   6.402   3.635 -0.8925 -0.8303  0.2342
  990TIP3    H224606   3.825   6.465   3.627 -0.5916 -0.3130 -1.0937
  991TIP3   OH224607   2.536   5.094   1.464  0.5164  0.3415  0.1538
  991TIP3    H124608   2.476   5.041   1.412  2.0173 -0.3171 -0.9778
  991TIP3    H224609   2.500   5.182   1.461  0.8866  0.4859 -2.6254
  992TIP3   OH224610   5.242   0.283   4.382 -0.1741  0.0952  0.3915
  992TIP3    H124611   5.258   0.193   4.352 -0.1851  0.4074 -0.5739
  992TIP3    H224612   5.260   0.338   4.306 -1.3087  0.8343  0.6298
  993TIP3   OH224613   5.912   2.080   4.601 -0.5936  0.3735 -1.1283
  993TIP3    H124614   5.984   2.104   4.542 -0.2893 -0.3333 -1.0629
  993TIP3    H224615   5.956   2.043   4.678 -0.9932  1.1270 -0.5326
  994TIP3   OH224616   5.485   1.580   1.291  0.1513 -0.4951  0.2334
  994TIP3    H124617   5.508   1.586   1.199 -1.9576 -0.2629 -0.3293
  994TIP3    H224618   5.410   1.639   1.301  2.0338  1.7330  2.7271
  995TIP3   OH224619   1.284   5.379   2.008  0.6973  0.2931  0.0731
  995TIP3    H124620   1.277   5.422   2.093 -0.1054 -2.0382  1.2744
  995TIP3    H224621   1.329   5.296   2.026 -0.8707 -0.9886 -1.4389
  996TIP3   OH224622   1.225   3.003   0.863 -0.0361  0.1578 -0.4822
  996TIP3    H124623   1.294   2.952   0.906 -0.5740 -0.9664 -0.9042
  996TIP3    H224624   1.260   3.092   0.857 -0.8207  1.0746  4.4708
  997TIP3   OH224625   0.686   5.823   1.643 -0.5206 -0.2522 -0.3914
  997TIP3    H124626   0.644   5.740   1.667 -0.8889 -0.5018 -1.8071
  997TIP3    H224627   0.676   5.828   1.548  0.2560  1.0142 -0.4251
  998TIP3   OH224628   4.341   1.355   3.666  0.0232  0.1280 -0.6281
  998TIP3    H124629   4.407   1.424   3.676  0.4423 -0.4093  0.5182
  998TIP3    H224630   4.391   1.273   3.673 -0.5135 -0.2988 -1.6369
  999TIP3   OH224631   0.208   2.894   3.878  0.3843 -0.7733 -0.0584
  999TIP3    H124632   0.151   2.844   3.820  1.4426 -1.0510 -0.9037
  999TIP3    H224633   0.163   2.895   3.962 -1.0855 -0.5468 -0.8219
 1000TIP3   OH224634   5.430   0.970   4.100 -0.1922 -0.8140  0.7972
 1000TIP3    H124635   5.450   1.009   4.015  0.0625 -1.3050  0.6279
 1000TIP3    H224636   5.375   1.035   4.144 -0.1789 -0.4811  0.3289
 1001TIP3   OH224637   6.336   1.062   4.850  0.2043  0.1665  0.0546
 1001TIP3    H124638   6.332   1.038   4.758  0.9442  0.0395  0.0484
 1001TIP3    H224639   6.421   1.029   4.880  0.3146  0.8981  0.5814
 1002TIP3   OH224640   5.462   2.787   1.730  0.5443  0.4053  0.1084
 1002TIP3    H124641   5.501   2.700   1.727  0.6744  0.4296  0.7778
 1002TIP3    H224642   5.370   2.774   1.708  0.5840  0.1131  0.1179
 1003TIP3   OH224643   6.702   0.453   4.576 -0.1174 -0.1801  0.4266
 1003TIP3    H124644   6.618   0.441   4.621  0.4000 -0.4888  1.3464
 1003TIP3    H224645   6.747   0.520   4.627  0.8328 -1.1503  0.9057
 1004TIP3   OH224646   4.122   5.764   5.404  0.5174 -0.5083 -0.4097
 1004TIP3    H124647   4.090   5.681   5.370 -0.0787 -0.0556 -0.9920
 1004TIP3    H224648   4.045   5.821   5.404  0.8907  0.0130  0.0914
 1005TIP3   OH224649   2.051   5.856   5.187  0.4477 -0.2575 -0.1822
 1005TIP3    H124650   1.968   5.875   5.144  1.2696  0.3285 -1.6160
 1005TIP3    H224651   2.116   5.860   5.116  1.7509 -0.2833  0.9574
 1006TIP3   OH224652   4.100   0.698   2.695  0.0798  0.1936 -0.4855
 1006TIP3    H124653   4.133   0.657   2.616  1.5360 -0.6850  0.5308
 1006TIP3    H224654   4.178   0.716   2.748 -0.6772  2.5572 -0.0616
 1007TIP3   OH224655   4.396   2.303   0.541 -0.2247 -0.1445 -0.7782
 1007TIP3    H124656   4.326   2.237   0.546 -0.8213  0.4120 -1.6205
 1007TIP3    H224657   4.394   2.346   0.627  0.5346 -1.5645 -0.0075
 1008TIP3   OH224658   1.390   4.163   1.657 -0.4793  0.6504  0.3676
 1008TIP3    H124659   1.394   4.090   1.719  1.0793 -0.1658 -0.6536
 1008TIP3    H224660   1.389   4.241   1.712 -1.0183 -0.0966  1.4505
 1009TIP3   OH224661   6.412   2.531   2.089 -0.2837  0.1450  0.0541
 1009TIP3    H124662   6.443   2.477   2.162 -0.9776 -0.0585  0.2039
 1009TIP3    H224663   6.400   2.468   2.017  0.4419  0.3513 -0.2571
 1010TIP3   OH224664   5.484   3.106   0.459 -0.3841 -0.3092  0.0112
 1010TIP3    H124665   5.577   3.127   0.463 -0.2172 -1.1744  0.7736
 1010TIP3    H224666   5.481   3.011   0.448 -1.1643 -0.1677 -1.1501
 1011TIP3   OH224667   5.429   2.193   1.104 -0.0752  0.4371 -0.2857
 1011TIP3    H124668   5.384   2.273   1.130 -0.9749  0.2488 -1.2292
 1011TIP3    H224669   5.515   2.199   1.148 -0.9513  0.8293  1.4758
 1012TIP3   OH224670   0.035   4.625   5.236  0.6264 -0.1728 -0.4133
 1012TIP3    H124671   0.112   4.676   5.261 -0.5872  1.8073 -0.5651
 1012TIP3    H224672  -0.028   4.638   5.307  0.4896 -2.0434 -0.1177
 1013TIP3   OH224673   2.011   0.246   2.302  0.1173 -0.8751  0.4114
 1013TIP3    H124674   2.104   0.251   2.279  0.8908 -1.1130  3.1241
 1013TIP3    H224675   1.994   0.327   2.350 -1.4231 -0.3302 -0.9429
 1014TIP3   OH224676   0.983   3.580   0.746 -0.0895  0.2255 -0.1655
 1014TIP3    H124677   0.909   3.555   0.691 -0.7809  0.3646  0.6749
 1014TIP3    H224678   1.049   3.512   0.731 -0.2860  0.2325 -1.1076
 1015TIP3   OH224679   5.803   5.609   4.381  0.4429  0.0967  0.3822
 1015TIP3    H124680   5.837   5.626   4.293 -0.4668  1.5572  0.2818
 1015TIP3    H224681   5.709   5.622   4.373  0.4345  1.0007  1.7335
 1016TIP3   OH224682   5.563   4.354   4.065  0.1226  0.1733  0.3198
 1016TIP3    H124683   5.486   4.395   4.104  0.6625  2.0217 -0.4267
 1016TIP3    H224684   5.530   4.311   3.986 -0.3751 -0.4637  0.8614
 1017TIP3   OH224685   4.496   5.690   1.401 -0.0392 -0.5172 -0.1632
 1017TIP3    H124686   4.574   5.679   1.346  0.1824 -0.7229  0.1879
 1017TIP3    H224687   4.488   5.607   1.448 -0.5121 -0.5232 -0.2462
 1018TIP3   OH224688   4.354   0.761   5.041  0.1666 -0.8101 -0.7213
 1018TIP3    H124689   4.389   0.845   5.068 -1.8206 -0.2630  0.3795
 1018TIP3    H224690   4.279   0.783   4.984  1.6591 -1.9077 -3.3077
 1019TIP3   OH224691   4.674   1.315   3.847  0.1210 -0.2859  0.1626
 1019TIP3    H124692   4.620   1.390   3.872 -0.6959 -0.6877 -0.3324
 1019TIP3    H224693   4.652   1.248   3.911 -0.0857 -0.4936 -0.1204
 1020TIP3   OH224694   4.152   3.842   4.667 -0.2834  0.4741 -0.1698
 1020TIP3    H124695   4.079   3.803   4.716  0.3373  0.3902  0.6911
 1020TIP3    H224696   4.201   3.891   4.731  1.6021 -1.1417 -0.2873
 1021TIP3   OH224697   3.210   3.458   4.352  0.1886  0.1474  0.2652
 1021TIP3    H124698   3.278   3.520   4.323 -0.4825 -0.0728 -2.0055
 1021TIP3    H224699   3.154   3.509   4.410  1.7498  0.5764  1.4792
 1022TIP3   OH224700   6.203   2.445   4.230 -0.6216  0.2612  0.5442
 1022TIP3    H124701   6.200   2.415   4.321  3.9781  0.8657  1.1659
 1022TIP3    H224702   6.213   2.540   4.237 -3.6451  0.7749 -0.8633
 1023TIP3   OH224703   1.327   3.503   1.615  0.0767  0.7722 -0.1255
 1023TIP3    H124704   1.265   3.484   1.685 -1.4635 -1.5177 -1.9453
 1023TIP3    H224705   1.392   3.433   1.621 -0.7732 -0.1977 -1.6694
 1024TIP3   OH224706   2.713   5.212   3.617  0.2519 -0.2001 -0.0640
 1024TIP3    H124707   2.691   5.302   3.641 -3.1559 -0.5993 -1.1746
 1024TIP3    H224708   2.704   5.162   3.698 -0.6351  0.0788  0.0256
 1025TIP3   OH224709   2.307   6.045   2.843  0.6501 -0.1110 -0.0853
 1025TIP3    H124710   2.251   5.970   2.823  0.1321  0.4818 -0.9555
 1025TIP3    H224711   2.377   6.010   2.898 -0.7885 -0.7964  1.3801
 1026TIP3   OH224712   5.615   2.350   1.993  0.0184 -0.1921 -0.1839
 1026TIP3    H124713   5.695   2.401   1.985  0.6611 -0.6169  2.5664
 1026TIP3    H224714   5.586   2.364   2.083 -2.2021 -1.2279 -0.6719
 1027TIP3   OH224715   6.662   1.829   2.901  0.1436  0.0105  0.3027
 1027TIP3    H124716   6.746   1.799   2.865 -0.2137  0.1491 -0.6826
 1027TIP3    H224717   6.649   1.777   2.980  1.4777  0.4532  0.8425
 1028TIP3   OH224718   3.956   3.999   4.361 -0.0516  0.1205 -0.1303
 1028TIP3    H124719   3.989   4.053   4.433 -0.9061  1.1075 -0.4450
 1028TIP3    H224720   4.012   3.921   4.361 -0.4630 -0.2395  2.0393
 1029TIP3   OH224721   4.549   4.655   3.822  0.1127  0.3206 -0.5866
 1029TIP3    H124722   4.631   4.640   3.775  0.1147  0.9689 -0.7983
 1029TIP3    H224723   4.551   4.747   3.846  0.2914 -0.0720  1.0605
 1030TIP3   OH224724   4.548   3.662   5.379 -0.8995  0.0432  0.2251
 1030TIP3    H124725   4.534   3.571   5.353  0.3199  0.3179 -1.5883
 1030TIP3    H224726   4.460   3.699   5.388 -1.4067 -0.8333 -0.9274
 1031TIP3   OH224727   4.329   4.545   5.409  0.4142 -0.0788  1.0584
 1031TIP3    H124728   4.329   4.626   5.460  0.4511  0.6170 -0.0107
 1031TIP3    H224729   4.265   4.489   5.452 -1.5591  1.5000  0.3529
 1032TIP3   OH224730   0.377   4.701   3.355  0.0268  0.0211  0.1209
 1032TIP3    H124731   0.430   4.654   3.419 -0.9192 -0.3286  0.6557
 1032TIP3    H224732   0.316   4.753   3.408  0.1899  0.8502 -0.4809
 1033TIP3   OH224733   3.379   5.567   4.284 -0.0003 -0.3152  0.0114
 1033TIP3    H124734   3.448   5.628   4.258  0.1402  0.0729  1.2441
 1033TIP3    H224735   3.300   5.599   4.239  0.4412 -0.3134 -0.7910
 1034TIP3   OH224736   5.098   0.806   1.531 -0.5643  0.2814  0.5901
 1034TIP3    H124737   5.143   0.793   1.615 -0.8876 -0.1884  0.6974
 1034TIP3    H224738   5.144   0.749   1.470 -0.8416 -0.0019  0.6405
 1035TIP3   OH224739   4.530   4.388   1.739 -0.1471  0.2045  0.1901
 1035TIP3    H124740   4.540   4.479   1.767 -0.6427  0.3938 -0.2404
 1035TIP3    H224741   4.506   4.393   1.647 -1.0762 -0.3321  0.3891
 1036TIP3   OH224742   4.279   6.195   1.990  0.2697 -0.5447 -0.9431
 1036TIP3    H124743   4.226   6.123   1.957  0.5643 -0.8084 -0.8402
 1036TIP3    H224744   4.237   6.273   1.954  0.3665 -0.8057 -1.6322
 1037TIP3   OH224745   2.322   0.121   3.835 -0.0650  0.2210 -0.2443
 1037TIP3    H124746   2.295   0.097   3.746 -1.2792  0.7344 -0.0356
 1037TIP3    H224747   2.288   0.209   3.848  2.2666  1.1822 -0.1390
 1038TIP3   OH224748   3.583   4.660   3.409 -0.5271 -0.3670 -0.1009
 1038TIP3    H124749   3.640   4.593   3.446 -2.6996 -1.7609  0.9895
 1038TIP3    H224750   3.538   4.697   3.486 -1.3166  0.4428 -0.9308
 1039TIP3   OH224751   4.152   4.104   5.155 -0.5343 -0.2388 -0.0102
 1039TIP3    H124752   4.090   4.078   5.223 -1.6716 -0.9048 -1.2506
 1039TIP3    H224753   4.126   4.194   5.133  0.4022  0.3017  1.0266
 1040TIP3   OH224754   1.984   3.683   2.666  0.1517  0.8174 -0.3179
 1040TIP3    H124755   2.034   3.743   2.611 -1.0752  2.6480  0.4806
 1040TIP3    H224756   2.023   3.692   2.753 -0.6635  1.2083  0.0141
 1041TIP3   OH224757   5.105   3.328   1.165 -0.2712 -0.1463 -0.3174
 1041TIP3    H124758   5.082   3.398   1.104  0.2480 -0.2421 -0.6255
 1041TIP3    H224759   5.067   3.249   1.125  0.7003 -0.3330 -0.9158
 1042TIP3   OH224760   3.396   5.249   1.556 -0.1998 -0.1282  0.9033
 1042TIP3    H124761   3.437   5.175   1.601 -0.1825  0.5644  2.0661
 1042TIP3    H224762   3.464   5.316   1.555  0.1344 -0.4518 -1.0588
 1043TIP3   OH224763   3.755   4.566   3.030  0.5167 -0.1219 -0.2901
 1043TIP3    H124764   3.826   4.621   3.064 -0.0434  1.1397 -1.0864
 1043TIP3    H224765   3.778   4.550   2.939 -0.5550  0.9186 -0.7692
 1044TIP3   OH224766   5.663   5.684   0.548 -0.2092  0.0601 -0.3968
 1044TIP3    H124767   5.698   5.607   0.502  1.0844 -0.3210  1.1568
 1044TIP3    H224768   5.739   5.722   0.592 -0.3811  3.4188 -2.6374
 1045TIP3   OH224769   3.073   3.036   2.382 -0.0351 -0.4727 -0.3889
 1045TIP3    H124770   3.054   3.008   2.471 -0.1569  0.3689 -0.1388
 1045TIP3    H224771   2.997   3.089   2.357  0.4222  0.0735 -0.6454
 1046TIP3   OH224772   2.964   5.727   3.363  0.6350  0.7360  0.2645
 1046TIP3    H124773   2.941   5.801   3.420  0.6793 -0.8790  2.5084
 1046TIP3    H224774   2.974   5.653   3.423  0.4471 -1.1454 -1.9034
 1047TIP3   OH224775   6.624   3.229   2.556  0.2787 -0.0243 -0.3070
 1047TIP3    H124776   6.567   3.200   2.627  3.3686 -3.3253  1.1037
 1047TIP3    H224777   6.649   3.148   2.511  1.4728  1.5976 -2.7711
 1048TIP3   OH224778   5.624   1.007   2.307  0.7406 -0.0945  0.4139
 1048TIP3    H124779   5.718   1.013   2.286  1.0891  0.5361  1.9460
 1048TIP3    H224780   5.591   1.095   2.290  0.2441 -0.5111 -0.8370
 1049TIP3   OH224781   1.676   6.462   3.918 -0.1333  0.2706  0.6224
 1049TIP3    H124782   1.707   6.372   3.912  1.5965  0.9249 -2.2361
 1049TIP3    H224783   1.695   6.489   4.008  1.2480 -1.5660  0.9237
 1050TIP3   OH224784   5.742   4.803   2.710 -0.1493 -0.1368 -0.0885
 1050TIP3    H124785   5.663   4.780   2.760  0.3999  0.0999  0.9209
 1050TIP3    H224786   5.716   4.879   2.658 -1.2840 -1.5031 -1.6393
 1051TIP3   OH224787   6.252   0.838   3.130  0.8122  0.2841  0.1325
 1051TIP3    H124788   6.258   0.853   3.224  1.5667  0.1872  0.1098
 1051TIP3    H224789   6.243   0.925   3.092  1.9496  0.4504  0.2090
 1052TIP3   OH224790   3.921   1.572   1.855  0.3949 -0.0917 -0.1197
 1052TIP3    H124791   3.982   1.590   1.926  1.1739  0.4936 -0.9237
 1052TIP3    H224792   3.893   1.482   1.870  0.6475 -0.0230  0.8448
 1053TIP3   OH224793   2.431   0.357   4.727  0.8505 -0.9550 -0.1644
 1053TIP3    H124794   2.471   0.441   4.705 -1.1229 -0.3387 -1.6702
 1053TIP3    H224795   2.450   0.346   4.820  0.8680  1.3504  0.1765
 1054TIP3   OH224796   1.051   6.252   2.116 -0.2973 -0.3598  0.4716
 1054TIP3    H124797   1.032   6.253   2.210 -1.4152 -0.5872  0.2614
 1054TIP3    H224798   1.125   6.311   2.106 -1.6522  1.5774  1.2172
 1055TIP3   OH224799   1.419   0.232   4.198  0.1392 -0.0361  0.1333
 1055TIP3    H124800   1.480   0.213   4.127  1.8634 -1.4572  1.8833
 1055TIP3    H224801   1.358   0.158   4.198 -0.2726  0.2989 -0.2645
 1056TIP3   OH224802   6.607   0.238   4.170  0.6296 -0.4497 -0.7677
 1056TIP3    H124803   6.614   0.163   4.229  0.5365 -0.1718 -0.3964
 1056TIP3    H224804   6.545   0.297   4.213  1.5213  0.3270 -0.5145
 1057TIP3   OH224805   5.024   5.043   5.453 -0.0916  0.4654 -0.2186
 1057TIP3    H124806   5.039   5.134   5.478  0.7489  0.6463 -1.2913
 1057TIP3    H224807   5.109   5.001   5.464 -0.8919 -0.6998  2.1409
 1058TIP3   OH224808   1.014   2.032   4.005  0.1405  0.6917  0.1781
 1058TIP3    H124809   0.936   1.977   4.002 -0.6590  1.8020 -0.3094
 1058TIP3    H224810   0.984   2.113   4.046  0.6125  1.7295 -1.4293
 1059TIP3   OH224811   6.203   0.604   1.661 -0.2133  0.0963 -0.0490
 1059TIP3    H124812   6.189   0.610   1.566 -1.7914  0.3173  0.1784
 1059TIP3    H224813   6.118   0.626   1.700  0.1478 -0.9215  1.4033
 1060TIP3   OH224814   4.924   4.876   4.334  0.7517 -0.2016 -0.4462
 1060TIP3    H124815   4.840   4.875   4.288 -0.6733  2.3501  1.7476
 1060TIP3    H224816   4.974   4.805   4.296 -1.6081 -0.4937 -3.3316
 1061TIP3   OH224817   2.961   3.884   2.443  0.9542  0.0562  0.4700
 1061TIP3    H124818   3.017   3.831   2.500  1.0453  1.3918  1.6915
 1061TIP3    H224819   2.912   3.940   2.503 -0.3370  0.2124 -0.6856
 1062TIP3   OH224820   0.239   4.451   4.694  0.1084  0.5810 -0.4818
 1062TIP3    H124821   0.259   4.519   4.757 -0.4596  0.1664  0.1607
 1062TIP3    H224822   0.314   4.391   4.698 -1.0243 -0.8161  1.7068
 1063TIP3   OH224823   6.489   4.222   3.989  0.1837  0.4525  0.1899
 1063TIP3    H124824   6.405   4.192   3.952 -0.3206  2.1707 -0.1624
 1063TIP3    H224825   6.466   4.301   4.038  1.4693  0.3957  0.9093
 1064TIP3   OH224826   0.219   1.350   1.291 -0.8987 -0.0725 -0.5246
 1064TIP3    H124827   0.239   1.345   1.198 -0.9836  0.3293 -0.5652
 1064TIP3    H224828   0.271   1.424   1.323  0.5272 -1.3161  0.1187
 1065TIP3   OH224829   4.700   3.943   1.702  0.2605  0.0191 -0.7531
 1065TIP3    H124830   4.775   3.924   1.645  1.5688  1.1981  0.5005
 1065TIP3    H224831   4.722   4.027   1.743 -1.0360 -0.3891  0.8538
 1066TIP3   OH224832   5.774   3.692   3.416  0.4511 -0.2640 -0.4542
 1066TIP3    H124833   5.682   3.665   3.412  0.4684 -0.5092  0.5361
 1066TIP3    H224834   5.771   3.782   3.449  0.6112 -0.8604  1.3421
 1067TIP3   OH224835   5.579   1.739   1.929 -0.1369  0.4698 -0.4304
 1067TIP3    H124836   5.525   1.677   1.879 -1.7724  0.6676  0.9799
 1067TIP3    H224837   5.635   1.683   1.983  1.2762  0.2612 -2.0316
 1068TIP3   OH224838   4.718   0.459   4.225 -0.4797 -0.1109 -0.7468
 1068TIP3    H124839   4.812   0.443   4.223 -0.6168 -0.9625 -0.8006
 1068TIP3    H224840   4.679   0.380   4.189 -1.1909  0.4955 -1.3654
 1069TIP3   OH224841   3.024   0.791   4.254 -0.5573  0.2800  0.1894
 1069TIP3    H124842   3.119   0.798   4.244 -0.4309 -0.2047  0.9493
 1069TIP3    H224843   2.989   0.866   4.207  0.2573  0.9365  0.6054
 1070TIP3   OH224844   5.713   1.361   4.426 -0.0018  0.1334 -0.1528
 1070TIP3    H124845   5.739   1.312   4.348  0.2400  0.2643 -0.1550
 1070TIP3    H224846   5.630   1.322   4.452  0.8616 -1.2815  0.6889
 1071TIP3   OH224847   4.172   4.107   1.905  0.2389 -0.7878 -0.0437
 1071TIP3    H124848   4.154   4.023   1.948 -3.0447 -0.4849 -0.5509
 1071TIP3    H224849   4.164   4.172   1.975 -1.9821 -0.5779 -0.4014
 1072TIP3   OH224850   5.999   0.372   1.533  0.6113  0.2384  0.2983
 1072TIP3    H124851   5.974   0.453   1.577  3.1696  0.5064  1.4904
 1072TIP3    H224852   6.082   0.347   1.575  0.6584 -2.2009 -1.0525
 1073TIP3   OH224853   3.762   4.343   4.107  0.0514  0.3082 -0.3188
 1073TIP3    H124854   3.709   4.278   4.062  0.8191 -1.6046  1.3903
 1073TIP3    H224855   3.702   4.415   4.125 -1.6788 -1.2617  0.4567
 1074TIP3   OH224856   6.730   5.446   4.241 -0.0034 -0.4513 -0.1622
 1074TIP3    H124857   6.645   5.408   4.216 -1.2254  1.8905  0.2053
 1074TIP3    H224858   6.787   5.426   4.167 -1.2707 -0.8196 -1.0747
 1075TIP3   OH224859   2.964   5.800   5.011  0.1553  0.3452  0.0390
 1075TIP3    H124860   2.945   5.715   4.972 -0.6834  0.6656 -0.2566
 1075TIP3    H224861   2.924   5.863   4.952 -1.5541  0.8262  1.6421
 1076TIP3   OH224862   4.629   2.823   2.769  0.4753 -0.4860 -0.3799
 1076TIP3    H124863   4.549   2.872   2.748  1.7695  1.1015 -1.9320
 1076TIP3    H224864   4.615   2.792   2.858 -1.2869  0.9537 -0.0871
 1077TIP3   OH224865   1.185   1.628   3.128 -0.3285 -0.2411  0.0818
 1077TIP3    H124866   1.161   1.673   3.209  0.2993 -0.7892  0.5886
 1077TIP3    H224867   1.144   1.542   3.136 -0.4433 -0.2219 -0.2863
 1078TIP3   OH224868   4.714   4.622   3.269  0.0631 -0.4311 -0.5113
 1078TIP3    H124869   4.724   4.716   3.283 -1.3283 -0.1726 -1.0757
 1078TIP3    H224870   4.781   4.582   3.325 -0.5991  0.8014  1.2421
 1079TIP3   OH224871   4.131   5.491   4.435 -0.2201  0.3703  0.0567
 1079TIP3    H124872   4.173   5.543   4.504 -2.3513  1.0223  0.9441
 1079TIP3    H224873   4.100   5.556   4.372 -0.8420  0.0047 -0.0179
 1080TIP3   OH224874   5.026   2.538   1.566  0.1725  0.1911  0.5244
 1080TIP3    H124875   4.953   2.496   1.522 -0.9508  1.2615  1.3161
 1080TIP3    H224876   5.029   2.499   1.653 -0.3190  1.0904  0.9571
 1081TIP3   OH224877   4.551   1.823   3.715 -0.2407  0.9076  0.3280
 1081TIP3    H124878   4.542   1.891   3.782  2.7774  0.1759  1.6658
 1081TIP3    H224879   4.546   1.871   3.632 -0.4593  2.4169  1.1632
 1082TIP3   OH224880   1.732   6.526   4.184  0.1835  0.2556 -0.1584
 1082TIP3    H124881   1.826   6.545   4.193  0.1013  0.5789  0.0510
 1082TIP3    H224882   1.691   6.613   4.178  0.0452  0.1048 -1.8509
 1083TIP3   OH224883   6.046   2.229   4.831  0.3115 -0.1069  0.2013
 1083TIP3    H124884   6.025   2.231   4.738  0.1579  0.6260  0.2495
 1083TIP3    H224885   6.119   2.291   4.841 -0.8012  1.1440  0.8348
 1084TIP3   OH224886   1.122   4.048   1.522  0.1119 -0.6519 -0.1976
 1084TIP3    H124887   1.073   4.079   1.598 -0.0571 -0.3006 -0.4480
 1084TIP3    H224888   1.203   4.100   1.523  0.1546 -0.7184 -0.1988
 1085TIP3   OH224889   3.233   0.391   4.844  0.1797 -0.2064  0.4677
 1085TIP3    H124890   3.322   0.422   4.829 -0.4949  1.6739  0.1257
 1085TIP3    H224891   3.210   0.424   4.931 -0.4152 -0.1273  0.2818
 1086TIP3   OH224892   5.550   2.751   2.486 -0.0513  0.0581  0.5226
 1086TIP3    H124893   5.559   2.740   2.581  0.5008 -0.4086  0.4277
 1086TIP3    H224894   5.626   2.705   2.450 -0.2064  0.3119 -0.1426
 1087TIP3   OH224895   3.768   1.347   4.690 -0.3444 -0.3407 -0.2793
 1087TIP3    H124896   3.852   1.336   4.735  0.7173  0.2153 -2.0209
 1087TIP3    H224897   3.747   1.260   4.656 -1.1958 -0.7835  1.2939
 1088TIP3   OH224898   1.465   6.099   1.514  0.7047 -0.1268 -0.1524
 1088TIP3    H124899   1.375   6.067   1.513  0.6690 -0.0286 -0.1479
 1088TIP3    H224900   1.485   6.121   1.423  0.1731  1.3562  0.0552
 1089TIP3   OH224901   5.454   0.918   1.867 -0.1837  0.4209 -0.0395
 1089TIP3    H124902   5.368   0.952   1.893 -1.0204 -2.2121  0.9802
 1089TIP3    H224903   5.505   0.918   1.948  0.6959  1.6070 -0.5663
 1090TIP3   OH224904   3.118   3.967   1.727 -0.5102 -0.6087 -0.0122
 1090TIP3    H124905   3.025   3.971   1.703 -0.3965 -0.9580 -0.5448
 1090TIP3    H224906   3.122   3.898   1.794 -0.7128 -0.2078  0.4171
 1091TIP3   OH224907   6.732   5.031   2.412  0.0385 -0.2175 -0.1339
 1091TIP3    H124908   6.725   5.010   2.319  1.6094 -1.1092 -0.0870
 1091TIP3    H224909   6.736   5.127   2.415 -2.6928 -0.0062 -0.7229
 1092TIP3   OH224910   6.256   1.779   4.170  0.1984  0.2934 -0.4408
 1092TIP3    H124911   6.244   1.721   4.245  0.2073  0.8423 -0.0144
 1092TIP3    H224912   6.169   1.785   4.130 -0.1645  1.2682  0.4597
 1093TIP3   OH224913   2.250   5.503   3.875 -0.6199  0.4340 -0.6288
 1093TIP3    H124914   2.329   5.519   3.927 -1.3775  1.5180  0.2572
 1093TIP3    H224915   2.249   5.409   3.860 -1.1077 -0.1891  2.6202
 1094TIP3   OH224916   1.429   1.078   4.351 -0.0544  0.1382 -0.1633
 1094TIP3    H124917   1.347   1.126   4.342  1.1502  2.0618 -1.6247
 1094TIP3    H224918   1.452   1.086   4.444 -2.1783 -1.6978  0.6051
 1095TIP3   OH224919   5.070   1.153   4.682  0.3147 -0.2945  0.3541
 1095TIP3    H124920   5.148   1.104   4.659  0.3009 -0.1763  0.0552
 1095TIP3    H224921   5.024   1.097   4.745 -1.3909 -2.2386 -2.3852
 1096TIP3   OH224922   2.602   0.983   3.585  0.2847  0.0837 -0.3234
 1096TIP3    H124923   2.531   0.935   3.626  0.9083 -0.4100  0.2026
 1096TIP3    H224924   2.656   1.013   3.658  1.3845 -0.7643 -0.7642
 1097TIP3   OH224925   0.345   4.885   3.591  0.2284  0.1706  0.2900
 1097TIP3    H124926   0.427   4.918   3.626 -0.3762  3.1605 -0.8624
 1097TIP3    H224927   0.277   4.921   3.648 -0.4347  0.2716 -0.5427
 1098TIP3   OH224928   0.255   4.439   5.657  0.3946  0.0537  0.0236
 1098TIP3    H124929   0.164   4.414   5.676  0.2273 -0.9473 -1.8155
 1098TIP3    H224930   0.250   4.483   5.572  1.7442 -0.8818 -0.5653
 1099TIP3   OH224931   1.170   4.583   2.469  0.0392  0.4803 -0.0394
 1099TIP3    H124932   1.112   4.632   2.526 -0.9917 -0.3636 -0.3154
 1099TIP3    H224933   1.165   4.628   2.385  1.1532  1.4212  0.3901
 1100TIP3   OH224934   0.183   0.231   0.108  0.1560 -0.0787 -0.1634
 1100TIP3    H124935   0.140   0.213   0.192  0.3072 -1.5856 -0.3798
 1100TIP3    H224936   0.259   0.173   0.107 -0.6891 -1.2799 -1.9671
 1101TIP3   OH224937   2.544   2.969   5.084 -0.1826  0.1985  0.2467
 1101TIP3    H124938   2.602   3.035   5.122 -1.1942 -0.5361  3.3534
 1101TIP3    H224939   2.527   2.908   5.156 -2.3109 -1.3389 -1.4377
 1102TIP3   OH224940   5.220   5.529   4.307 -0.5287  0.1252 -0.3103
 1102TIP3    H124941   5.289   5.487   4.255 -1.5469 -1.1347 -0.6760
 1102TIP3    H224942   5.218   5.478   4.388  0.4194  1.5081  0.6227
 1103TIP3   OH224943   2.647   5.895   1.362  0.1528 -0.3049  0.2190
 1103TIP3    H124944   2.730   5.851   1.380  0.6848  0.7627  0.4793
 1103TIP3    H224945   2.667   5.989   1.373 -0.6046  0.1059 -1.5913
 1104TIP3   OH224946   2.092   4.204   4.294 -0.1549 -0.6940 -0.0418
 1104TIP3    H124947   2.101   4.283   4.241  1.4899 -1.0149 -0.3054
 1104TIP3    H224948   2.078   4.237   4.383  2.6509  0.0206  0.2359
 1105TIP3   OH224949   0.680   5.641   5.120  0.4134 -0.0641  0.3572
 1105TIP3    H124950   0.609   5.700   5.145 -1.0968 -0.2281 -3.0263
 1105TIP3    H224951   0.743   5.698   5.076 -0.7366 -0.7262 -2.3303
 1106TIP3   OH224952   3.454   0.489   3.482  0.0530 -0.4478 -0.0350
 1106TIP3    H124953   3.409   0.525   3.558  2.2317 -0.2994  1.2963
 1106TIP3    H224954   3.387   0.441   3.434 -1.8687  1.2895  0.7709
 1107TIP3   OH224955   2.287   2.292   2.390 -0.3117  0.1316 -0.1368
 1107TIP3    H124956   2.350   2.308   2.460 -1.2773  0.4781  0.6669
 1107TIP3    H224957   2.294   2.369   2.334  0.3786 -0.0925 -0.3722
 1108TIP3   OH224958   3.810   4.630   0.288  0.6697 -0.3562  0.2961
 1108TIP3    H124959   3.732   4.575   0.289  0.6177 -0.4097 -1.8676
 1108TIP3    H224960   3.881   4.570   0.263  1.0761  0.0597  0.4375
 1109TIP3   OH224961   2.094   2.936   0.813  0.0861 -0.2587  0.5423
 1109TIP3    H124962   2.112   2.870   0.746 -0.9328 -0.8325  0.8122
 1109TIP3    H224963   2.162   3.002   0.801  0.8728 -1.1457 -0.0119
 1110TIP3   OH224964   4.497   0.739   4.145  0.0825  0.4145 -0.0747
 1110TIP3    H124965   4.475   0.793   4.221 -0.6546 -2.2813  1.7860
 1110TIP3    H224966   4.418   0.688   4.129  0.8465 -0.3715 -1.5396
 1111TIP3   OH224967   4.314   1.684   3.872  0.3482 -0.2643 -0.3246
 1111TIP3    H124968   4.312   1.711   3.780  0.1184 -1.1108 -0.5677
 1111TIP3    H224969   4.232   1.638   3.886 -0.3638  1.2110  0.7392
 1112TIP3   OH224970   4.906   3.627   5.091 -0.1106 -0.0569 -0.1153
 1112TIP3    H124971   4.999   3.639   5.071 -0.2153 -1.4021 -1.5830
 1112TIP3    H224972   4.905   3.609   5.185  0.9683  1.1582  0.1623
 1113TIP3   OH224973   4.340   0.400   1.687  0.5437  0.3828 -0.2581
 1113TIP3    H124974   4.282   0.440   1.623  0.8405 -0.1990 -0.9013
 1113TIP3    H224975   4.420   0.452   1.684 -0.0669  1.4676  0.9537
 1114TIP3   OH224976   6.285   2.868   4.993 -0.7075  0.0184 -0.0786
 1114TIP3    H124977   6.304   2.776   4.977 -0.3423 -0.0288  0.5922
 1114TIP3    H224978   6.202   2.868   5.042 -0.4216  0.0138  0.4089
 1115TIP3   OH224979   3.348   1.294   3.234 -0.0743 -0.1416 -0.3784
 1115TIP3    H124980   3.435   1.323   3.205 -0.9190  1.8505 -1.0378
 1115TIP3    H224981   3.365   1.250   3.318  1.5525  0.2790 -0.4438
 1116TIP3   OH224982   0.028   4.728   2.114  0.0915 -0.1439 -0.0875
 1116TIP3    H124983  -0.049   4.783   2.131  1.0786  1.4454 -0.6168
 1116TIP3    H224984   0.004   4.677   2.037  0.5230  2.3800 -2.0130
 1117TIP3   OH224985   2.256   5.504   2.454 -0.3626  0.0703 -0.4772
 1117TIP3    H124986   2.207   5.453   2.390 -3.1632  0.4212  1.2336
 1117TIP3    H224987   2.205   5.584   2.465 -0.2101 -0.1203  2.3834
 1118TIP3   OH224988   1.707   4.982   0.360  0.3301 -0.6333  0.1013
 1118TIP3    H124989   1.749   5.023   0.285  0.3358 -0.0520  0.4161
 1118TIP3    H224990   1.728   5.039   0.434 -1.5766  0.0662  0.1522
 1119TIP3   OH224991   4.544   1.881   3.440 -0.1620  0.0542 -0.6575
 1119TIP3    H124992   4.479   1.821   3.403  0.4447 -1.5834  0.7935
 1119TIP3    H224993   4.523   1.966   3.401 -1.3832 -0.9796 -2.3910
 1120TIP3   OH224994   3.625   4.445   0.918  0.4830  0.3682 -0.5946
 1120TIP3    H124995   3.590   4.356   0.923 -2.3978  1.2536 -2.4021
 1120TIP3    H224996   3.640   4.470   1.009  1.4080 -1.9288 -0.0487
 1121TIP3   OH224997   3.494   2.102   3.421 -0.1639  0.4241  0.2545
 1121TIP3    H124998   3.554   2.136   3.355  1.1468 -1.6169  0.3189
 1121TIP3    H224999   3.432   2.048   3.371  0.4205 -0.5753  0.5882
 1122TIP3   OH225000   1.298   5.989   2.872  0.1472 -0.0308  0.1268
 1122TIP3    H125001   1.324   5.897   2.884 -2.4748 -0.6301  2.2787
 1122TIP3    H225002   1.264   5.993   2.783  3.4671 -0.1689 -1.2890
 1123TIP3   OH225003   6.430   0.659   3.552  0.1617  0.1433  0.2770
 1123TIP3    H125004   6.402   0.723   3.487  0.8235  1.0179  0.8288
 1123TIP3    H225005   6.351   0.640   3.604 -0.1301  0.1940 -0.1466
 1124TIP3   OH225006   0.582   4.407   1.820 -0.3651  0.1846  0.6465
 1124TIP3    H125007   0.573   4.314   1.799  0.4082  0.0448  0.9121
 1124TIP3    H225008   0.610   4.409   1.911  1.8295  0.5824  0.0181
 1125TIP3   OH225009   6.029   6.043   2.986 -0.1775  0.2459  0.2468
 1125TIP3    H125010   6.051   5.988   2.910  2.7991  0.7830  0.5816
 1125TIP3    H225011   5.958   5.997   3.030 -0.2845 -1.3753 -1.5014
 1126TIP3   OH225012   4.208   3.438   1.185 -0.3501  0.2348  0.0515
 1126TIP3    H125013   4.131   3.394   1.150 -0.3258 -0.3992  0.7688
 1126TIP3    H225014   4.212   3.410   1.277  0.5542  0.5017  0.1020
 1127TIP3   OH225015   5.626   0.381   2.017  0.1486  0.7555  0.1796
 1127TIP3    H125016   5.620   0.294   2.058  1.9264  0.2526 -0.5108
 1127TIP3    H225017   5.553   0.430   2.054 -0.6349 -0.8902  0.9468
 1128TIP3   OH225018   0.444   6.029   1.458  0.0116  0.3999 -0.4867
 1128TIP3    H125019   0.415   6.077   1.380  1.2520  1.6139 -0.2441
 1128TIP3    H225020   0.410   5.940   1.446 -0.7705  0.8614 -1.8618
 1129TIP3   OH225021   4.928   5.318   4.372  0.2306 -0.2355 -0.2424
 1129TIP3    H125022   4.979   5.251   4.326 -1.3393 -1.6350 -0.0514
 1129TIP3    H225023   4.915   5.387   4.307  0.8134 -0.7014 -0.8736
 1130TIP3   OH225024   5.593   2.626   3.447 -0.6345 -0.5113  0.1806
 1130TIP3    H125025   5.549   2.709   3.429 -0.4187 -0.1609  1.1978
 1130TIP3    H225026   5.648   2.611   3.370  0.2912  0.9348  0.5196
 1131TIP3   OH225027   6.361   4.213   1.930  0.8679  0.2067 -0.2368
 1131TIP3    H125028   6.282   4.172   1.894  0.0119 -0.2636  2.0175
 1131TIP3    H225029   6.329   4.288   1.980  1.7129 -0.4412  1.3637
 1132TIP3   OH225030   6.460   3.237   1.173 -0.3354 -0.1734  0.5532
 1132TIP3    H125031   6.366   3.255   1.178 -0.1318  2.1273 -1.7575
 1132TIP3    H225032   6.487   3.227   1.264 -2.3451  2.1468  1.5183
 1133TIP3   OH225033   5.244   4.604   1.392  0.6341 -0.1063  0.1026
 1133TIP3    H125034   5.240   4.596   1.297  0.7230 -1.9009  0.2255
 1133TIP3    H225035   5.229   4.516   1.425  2.6162  0.0605  1.6967
 1134TIP3   OH225036   0.464   5.583   0.467  0.3297 -0.2480 -0.2205
 1134TIP3    H125037   0.385   5.614   0.510  1.2162  0.8800  0.6551
 1134TIP3    H225038   0.513   5.663   0.446 -0.3907 -0.6406 -4.1186
 1135TIP3   OH225039   3.516   0.383   5.078 -0.1379 -0.5290 -0.2358
 1135TIP3    H125040   3.579   0.451   5.101  1.4311 -1.2418 -2.0723
 1135TIP3    H225041   3.496   0.339   5.160  2.5515 -0.8717  0.3198
 1136TIP3   OH225042   4.641   6.403   2.321  0.4096 -0.6693 -0.2273
 1136TIP3    H125043   4.714   6.361   2.276  0.0495 -0.2813 -1.2064
 1136TIP3    H225044   4.570   6.402   2.257 -0.0442  0.1021  0.2528
 1137TIP3   OH225045   3.998   6.383   4.056 -0.1047  0.3347  0.6239
 1137TIP3    H125046   4.060   6.405   3.986 -1.6531  1.1932 -0.5437
 1137TIP3    H225047   4.048   6.326   4.115  1.1350 -0.8439 -1.4151
 1138TIP3   OH225048   0.483   1.009   3.823  0.0372 -0.1087  0.7788
 1138TIP3    H125049   0.541   1.059   3.881 -1.2695  0.4245  1.6761
 1138TIP3    H225050   0.410   1.068   3.805 -0.1103 -0.6526 -0.5773
 1139TIP3   OH225051   5.370   6.255   2.782  0.3420 -0.1983 -0.5456
 1139TIP3    H125052   5.289   6.208   2.764  0.5008 -0.7651  0.1634
 1139TIP3    H225053   5.367   6.273   2.876  1.9420 -2.0559 -0.0699
 1140TIP3   OH225054   5.386   3.062   0.848  0.1054  0.1263 -0.8701
 1140TIP3    H125055   5.463   3.107   0.812  0.1945 -1.1326 -2.3538
 1140TIP3    H225056   5.396   2.972   0.820 -0.3758 -0.7484  1.5188
 1141TIP3   OH225057   2.074   4.640   1.779 -0.0518 -0.0986  0.0623
 1141TIP3    H125058   2.088   4.602   1.866 -1.1894  0.6706  0.6010
 1141TIP3    H225059   2.162   4.660   1.748  0.3951 -0.6553  0.9098
 1142TIP3   OH225060   2.810   1.642   3.622  0.3967 -0.4887 -0.3891
 1142TIP3    H125061   2.891   1.596   3.644  0.0076 -0.9438  0.1267
 1142TIP3    H225062   2.833   1.735   3.625  0.7816 -0.6026  0.2391
 1143TIP3   OH225063   2.532   3.148   1.450 -0.7856  0.1941 -0.2223
 1143TIP3    H125064   2.502   3.230   1.411  1.4414  2.3337  2.1905
 1143TIP3    H225065   2.458   3.117   1.502 -1.4492  0.9678 -0.6887
 1144TIP3   OH225066   1.010   4.985   4.996  0.6652  0.1907 -0.1533
 1144TIP3    H125067   0.936   4.991   4.935  0.4762  0.8374  0.1279
 1144TIP3    H225068   1.036   5.076   5.011  1.3173 -0.0177 -0.0014
 1145TIP3   OH225069   3.252   0.289   1.115 -0.3186 -0.1445  0.3369
 1145TIP3    H125070   3.221   0.374   1.085  0.0325 -0.3271 -0.5536
 1145TIP3    H225071   3.343   0.285   1.088 -0.6425 -1.2755 -0.6737
 1146TIP3   OH225072   3.824   3.086   2.701  0.2719  0.1083 -0.4032
 1146TIP3    H125073   3.875   3.167   2.707  0.2499  0.0477  1.2048
 1146TIP3    H225074   3.849   3.036   2.779 -1.6715 -0.2491  0.0647
 1147TIP3   OH225075   5.853   5.201   4.766 -0.0382 -0.3024  0.5309
 1147TIP3    H125076   5.839   5.241   4.681  3.4620  2.0942  0.8788
 1147TIP3    H225077   5.798   5.251   4.826  0.7361  0.9397  0.2403
 1148TIP3   OH225078   5.296   4.188   3.118 -0.4509 -0.5208 -0.1465
 1148TIP3    H125079   5.327   4.279   3.112  2.5395 -1.4656 -0.9911
 1148TIP3    H225080   5.323   4.160   3.206 -2.2093 -0.3776  0.4749
 1149TIP3   OH225081   2.868   5.108   0.451 -0.4851  0.4059 -0.2551
 1149TIP3    H125082   2.844   5.031   0.502 -0.7460  0.5056 -0.2260
 1149TIP3    H225083   2.932   5.154   0.505 -0.1535  0.0928 -0.3721
 1150TIP3   OH225084   1.039   2.836   3.853 -0.0471 -0.3170 -0.0944
 1150TIP3    H125085   1.120   2.791   3.830  0.8063  1.4109 -0.6596
 1150TIP3    H225086   1.037   2.913   3.795 -3.5277 -1.7149 -2.1653
 1151TIP3   OH225087   6.427   2.217   1.486  0.1063  0.8710  0.0495
 1151TIP3    H125088   6.431   2.196   1.393 -2.4081  1.8444 -0.3403
 1151TIP3    H225089   6.514   2.252   1.506  1.3664 -1.2065 -1.4062
 1152TIP3   OH225090   4.564   5.579   4.235 -0.8813  0.6642 -0.1434
 1152TIP3    H125091   4.627   5.636   4.191  2.7568 -3.4658 -0.9457
 1152TIP3    H225092   4.533   5.520   4.167 -0.3256 -1.6483  1.5138
 1153TIP3   OH225093   1.331   3.548   5.067 -0.6349 -0.3469 -0.0824
 1153TIP3    H125094   1.395   3.605   5.109 -0.1252  0.0581 -1.3608
 1153TIP3    H225095   1.275   3.517   5.139 -1.6774  2.6541  0.5456
 1154TIP3   OH225096   0.485   4.399   3.095 -0.4739 -0.0148  0.2898
 1154TIP3    H125097   0.522   4.484   3.070 -1.2806  0.5011  0.7861
 1154TIP3    H225098   0.415   4.385   3.031  0.6994 -1.1138 -0.8184
 1155TIP3   OH225099   1.832   6.399   3.295  0.0923  0.5724 -0.0348
 1155TIP3    H125100   1.926   6.384   3.286 -0.0870 -0.4592 -0.2957
 1155TIP3    H225101   1.824   6.459   3.369  0.8681 -0.5906  1.0194
 1156TIP3   OH225102   3.120   2.177   2.050  1.4035 -0.2111  0.1680
 1156TIP3    H125103   3.029   2.150   2.041  1.0266  0.5837  1.3678
 1156TIP3    H225104   3.133   2.241   1.979  0.5315  0.8588  0.9289
 1157TIP3   OH225105   5.689   3.410   2.292 -0.0425  0.3469 -0.2567
 1157TIP3    H125106   5.630   3.437   2.362 -0.4877  0.3101 -0.6125
 1157TIP3    H225107   5.772   3.455   2.311  0.0332 -0.1595  0.6382
 1158TIP3   OH225108   1.284   2.351   1.202 -0.0025 -0.6565 -0.1122
 1158TIP3    H125109   1.371   2.359   1.162 -0.7415 -0.7381 -1.8266
 1158TIP3    H225110   1.249   2.269   1.168 -1.8406  0.7138 -1.7780
 1159TIP3   OH225111   2.181   3.643   1.604 -0.5936 -0.0532 -0.0378
 1159TIP3    H125112   2.193   3.611   1.693 -0.8424  3.1559  1.2757
 1159TIP3    H225113   2.088   3.664   1.599 -0.4588  0.3895 -0.8134
 1160TIP3   OH225114   5.453   2.273   2.901 -0.4337 -0.4210  0.0077
 1160TIP3    H125115   5.454   2.369   2.908 -0.8709 -0.3436 -0.8632
 1160TIP3    H225116   5.389   2.246   2.967 -1.2443 -0.0187 -0.5968
 1161TIP3   OH225117   3.762   5.691   1.715  0.3392 -0.1822  0.2203
 1161TIP3    H125118   3.737   5.605   1.749 -0.3132 -0.0811  0.0103
 1161TIP3    H225119   3.684   5.722   1.668  0.7256  0.3227 -0.0987
 1162TIP3   OH225120   0.461   3.742   0.945  0.3141  0.1942 -0.0537
 1162TIP3    H125121   0.463   3.652   0.914  0.1699  0.6705 -1.4852
 1162TIP3    H225122   0.377   3.776   0.914  0.2546  0.7585  0.6951
 1163TIP3   OH225123   1.252   2.105   1.028  0.6039 -0.1217  0.3133
 1163TIP3    H125124   1.239   2.021   0.985  2.8436 -0.8544  0.9426
 1163TIP3    H225125   1.221   2.170   0.965  1.4287 -1.2784 -1.3403
 1164TIP3   OH225126   2.003   4.722   3.552  0.4784 -0.1301  0.1390
 1164TIP3    H125127   2.013   4.800   3.607  0.4717 -0.6772  0.9386
 1164TIP3    H225128   1.977   4.756   3.466 -2.0667  0.6380  1.1107
 1165TIP3   OH225129   2.320   3.129   0.768  0.7330 -0.7873 -0.0154
 1165TIP3    H125130   2.302   3.150   0.676 -0.6873 -0.7123  0.2539
 1165TIP3    H225131   2.342   3.214   0.807  1.0027 -0.7659 -0.2076
 1166TIP3   OH225132   4.017   0.343   1.582 -0.2116  0.4223 -0.0540
 1166TIP3    H125133   4.044   0.434   1.568  2.3044 -0.3034 -0.5214
 1166TIP3    H225134   4.075   0.292   1.525 -1.4290 -1.4969  0.3331
 1167TIP3   OH225135   3.914   5.869   3.773 -0.1724 -0.3282 -0.1114
 1167TIP3    H125136   3.936   5.785   3.733  0.6105  0.7226 -2.0061
 1167TIP3    H225137   3.963   5.934   3.722 -2.2231  1.4664  0.0439
 1168TIP3   OH225138   6.460   1.851   3.623  0.4987  0.5792 -0.2393
 1168TIP3    H125139   6.505   1.839   3.707  0.5415 -0.2798 -0.3719
 1168TIP3    H225140   6.435   1.943   3.622  0.6118  0.6325  0.6623
 1169TIP3   OH225141   6.061   2.323   4.566 -0.0106  0.5527  0.2427
 1169TIP3    H125142   5.988   2.313   4.504  1.5855  0.6010 -1.7715
 1169TIP3    H225143   6.090   2.413   4.552 -0.4360  1.0117  2.0993
 1170TIP3   OH225144   2.068   6.664   0.386  0.0251 -0.1525 -0.8008
 1170TIP3    H125145   2.133   6.727   0.354  0.3111  1.3335  2.3279
 1170TIP3    H225146   1.990   6.716   0.405 -0.6789 -1.2126 -0.6629
 1171TIP3   OH225147   3.087   1.160   2.784 -0.2532  0.6278 -0.3756
 1171TIP3    H125148   3.161   1.102   2.802 -0.3488  0.4374 -0.5871
 1171TIP3    H225149   3.054   1.131   2.699  1.1278  2.4862 -1.6150
 1172TIP3   OH225150   0.295   4.578   5.422 -0.6004 -0.2513  0.1270
 1172TIP3    H125151   0.262   4.661   5.387  0.8838  0.0579 -0.6102
 1172TIP3    H225152   0.390   4.590   5.426 -0.5599 -0.8834  2.7338
 1173TIP3   OH225153   3.910   0.281   4.616 -0.3307 -0.0503 -0.0645
 1173TIP3    H125154   3.821   0.246   4.610 -0.5584  0.3681  0.7206
 1173TIP3    H225155   3.944   0.248   4.699  0.1802 -0.0392 -0.2623
 1174TIP3   OH225156   6.412   4.601   0.312 -0.0099 -0.1761  0.1007
 1174TIP3    H125157   6.423   4.566   0.224  0.5518 -0.5810  0.3237
 1174TIP3    H225158   6.318   4.615   0.321 -0.0251  0.2716 -0.7113
 1175TIP3   OH225159   2.385   3.337   4.033 -0.4357  0.3856 -0.0228
 1175TIP3    H125160   2.365   3.287   4.112  1.4436 -0.2117  0.1382
 1175TIP3    H225161   2.323   3.306   3.968 -0.4108 -0.9190  0.5486
 1176TIP3   OH225162   3.747   5.440   1.825 -0.1847  0.1821  0.3662
 1176TIP3    H125163   3.792   5.441   1.909  0.8144  2.3214 -0.1258
 1176TIP3    H225164   3.808   5.395   1.766 -0.8069 -1.1565  0.7129
 1177TIP3   OH225165   3.616   3.597   0.982 -0.0563 -0.8793  0.0381
 1177TIP3    H125166   3.599   3.643   1.064 -2.0612 -2.7934  0.7835
 1177TIP3    H225167   3.687   3.647   0.941 -1.1817  2.0606  1.3660
 1178TIP3   OH225168   1.407   5.683   4.280  0.3626 -0.1964 -0.5950
 1178TIP3    H125169   1.315   5.703   4.296  0.1338 -1.1816 -0.6193
 1178TIP3    H225170   1.455   5.759   4.313 -0.4392  0.1391 -0.2005
 1179TIP3   OH225171   6.037   6.120   5.593 -0.8113  0.5332  0.1739
 1179TIP3    H125172   6.000   6.035   5.573 -2.0605  1.3061 -0.9660
 1179TIP3    H225173   5.962   6.179   5.599 -0.0078  1.5183  1.2184
 1180TIP3   OH225174   3.772   5.393   4.808 -0.3314  0.3993  0.0418
 1180TIP3    H125175   3.837   5.364   4.744  0.5679  0.7414  0.7752
 1180TIP3    H225176   3.705   5.325   4.807 -0.1863  0.2631 -1.0466
 1181TIP3   OH225177   1.026   4.832   5.223 -0.0474 -0.0835 -0.2530
 1181TIP3    H125178   1.009   4.899   5.156  2.1307 -0.3847 -1.1990
 1181TIP3    H225179   0.998   4.872   5.305  1.2489  2.0364 -0.7787
 1182TIP3   OH225180   0.384   1.229   4.508  0.1420  0.0640  0.8084
 1182TIP3    H125181   0.362   1.141   4.540 -1.2726  0.2713  0.4591
 1182TIP3    H225182   0.362   1.287   4.580 -0.0904  0.2510  0.5850
 1183TIP3   OH225183   6.128   2.194   3.272  0.0621 -0.5185  0.4759
 1183TIP3    H125184   6.155   2.284   3.254 -0.0897 -0.9092 -1.9797
 1183TIP3    H225185   6.138   2.185   3.367  1.9023  1.4931  0.5540
 1184TIP3   OH225186   4.505   4.306   3.545  0.0797 -0.0964 -0.3480
 1184TIP3    H125187   4.490   4.400   3.534 -0.2102 -0.3441 -2.6812
 1184TIP3    H225188   4.561   4.283   3.471 -2.2976 -2.2503 -1.6386
 1185TIP3   OH225189   2.906   1.567   5.050 -0.0934 -0.3923  0.4494
 1185TIP3    H125190   2.893   1.519   5.131  0.6956  0.6149  1.1986
 1185TIP3    H225191   2.860   1.649   5.063  1.0227  0.2742  0.3676
 1186TIP3   OH225192   2.880   4.876   2.082 -0.4693 -0.0008  0.1816
 1186TIP3    H125193   2.922   4.898   2.166 -1.3732  0.6203  0.4797
 1186TIP3    H225194   2.953   4.871   2.020  0.2575 -0.8387  1.0663
 1187TIP3   OH225195   4.883   2.004   5.549  0.1592  0.0624 -0.1192
 1187TIP3    H125196   4.884   1.975   5.640  0.7697  1.1330  0.2278
 1187TIP3    H225197   4.790   2.004   5.525  0.0139 -0.4373  0.4299
 1188TIP3   OH225198   4.767   4.733   2.412 -0.2336  0.0359 -0.2882
 1188TIP3    H125199   4.832   4.760   2.346  0.6462 -0.6838  0.2707
 1188TIP3    H225200   4.741   4.815   2.454  1.7719  0.1800  0.7964
 1189TIP3   OH225201   0.532   4.860   4.689  0.0422 -0.5531  0.1039
 1189TIP3    H125202   0.599   4.889   4.628 -1.2441  0.0549 -1.0787
 1189TIP3    H225203   0.497   4.941   4.727 -0.1390 -0.8507  0.5865
 1190TIP3   OH225204   4.803   3.239   3.933  0.1742  0.9019  0.5541
 1190TIP3    H125205   4.716   3.235   3.973 -0.7494  0.5126 -1.3488
 1190TIP3    H225206   4.804   3.322   3.887  0.7551  0.8331  0.4372
 1191TIP3   OH225207   6.168   0.218   3.924 -0.2065 -0.2754  0.5688
 1191TIP3    H125208   6.211   0.256   3.848 -0.2366  0.0659  0.7234
 1191TIP3    H225209   6.239   0.188   3.980 -0.1394  1.0564  1.2230
 1192TIP3   OH225210   2.566   6.389   2.784  0.5430  0.1462  0.1432
 1192TIP3    H125211   2.587   6.367   2.693 -1.1102 -0.3320 -0.1487
 1192TIP3    H225212   2.485   6.438   2.779  1.3279  1.6257  1.2524
 1193TIP3   OH225213   5.396   2.962   2.093  0.1921  0.0450  0.2879
 1193TIP3    H125214   5.375   2.888   2.150 -1.2778  1.0915  1.1735
 1193TIP3    H225215   5.465   3.009   2.140  0.7819 -0.4790 -0.0413
 1194TIP3   OH225216   1.549   4.006   0.362 -0.0287  0.0285 -0.3271
 1194TIP3    H125217   1.489   4.053   0.304  0.4137  1.1748  0.1320
 1194TIP3    H225218   1.623   4.065   0.373 -0.7935  0.5781  2.7247
 1195TIP3   OH225219   4.320   6.405   1.671 -0.6952 -0.1332 -0.0081
 1195TIP3    H125220   4.265   6.466   1.721  0.9926  1.5806 -0.1176
 1195TIP3    H225221   4.402   6.400   1.720  0.1012 -0.3486 -1.2981
 1196TIP3   OH225222   6.668   0.601   2.167 -0.2372 -0.0433 -1.1019
 1196TIP3    H125223   6.763   0.611   2.161 -0.2346 -0.1184 -1.1843
 1196TIP3    H225224   6.633   0.690   2.158 -0.1063  0.1735  0.2765
 1197TIP3   OH225225   2.130   1.588   4.138 -0.1834  0.2306 -0.5134
 1197TIP3    H125226   2.045   1.561   4.174  0.9821 -2.4507  0.5008
 1197TIP3    H225227   2.193   1.561   4.205  1.5575  1.2566 -1.6815
 1198TIP3   OH225228   1.538   1.160   3.793  0.3406  0.6194 -0.2693
 1198TIP3    H125229   1.518   1.169   3.886  1.5891 -1.1756  0.2291
 1198TIP3    H225230   1.634   1.169   3.788  0.2306  1.3454 -1.4824
 1199TIP3   OH225231   0.320   0.507   3.543  0.4487  0.4157  0.1275
 1199TIP3    H125232   0.353   0.597   3.545  2.3454 -0.2477  1.4526
 1199TIP3    H225233   0.257   0.503   3.614  0.3298  0.7007  0.0401
 1200TIP3   OH225234   2.790   1.794   3.960  0.0371  0.5994 -0.5210
 1200TIP3    H125235   2.740   1.728   4.007 -0.0473  0.8957 -0.1857
 1200TIP3    H225236   2.787   1.871   4.017  2.3680  0.1045  0.3908
 1201TIP3   OH225237   4.608   3.952   2.057  0.1250 -0.1658  0.3638
 1201TIP3    H125238   4.614   3.988   1.969 -0.8893  0.2273  0.4471
 1201TIP3    H225239   4.687   3.985   2.102  0.1778  0.3774 -0.1203
 1202TIP3   OH225240   3.825   0.901   3.595 -0.2933  0.1422  0.4256
 1202TIP3    H125241   3.908   0.948   3.601 -0.0812 -0.1261 -0.3102
 1202TIP3    H225242   3.770   0.957   3.540 -1.3682  1.3847  2.6380
 1203TIP3   OH225243   2.544   0.798   1.231 -0.1499 -0.1924  0.3577
 1203TIP3    H125244   2.453   0.769   1.226 -0.1786 -0.0328 -0.0486
 1203TIP3    H225245   2.592   0.720   1.260 -0.6867  0.2754  2.7361
 1204TIP3   OH225246   3.118   3.917   3.348  0.0243 -0.1484  0.0312
 1204TIP3    H125247   3.071   3.868   3.416 -0.9347 -0.1392 -0.6095
 1204TIP3    H225248   3.084   4.006   3.355  0.1980 -0.0631 -0.2185
 1205TIP3   OH225249   3.419   6.358   4.172 -0.1350 -0.1867 -0.0916
 1205TIP3    H125250   3.369   6.398   4.101 -0.0924  1.7620  0.9194
 1205TIP3    H225251   3.356   6.349   4.243  0.2656 -0.3689  0.2450
 1206TIP3   OH225252   0.599   1.852   3.837 -0.8606  0.1371 -0.2368
 1206TIP3    H125253   0.655   1.915   3.792 -0.6578 -0.6184 -1.0772
 1206TIP3    H225254   0.547   1.812   3.768 -1.1547 -0.4463  0.3075
 1207TIP3   OH225255   1.894   0.401   5.263  0.5164  0.2013  0.0345
 1207TIP3    H125256   1.830   0.444   5.207  1.2406  1.6613  0.2678
 1207TIP3    H225257   1.963   0.467   5.276  2.1066 -1.3181 -0.2745
 1208TIP3   OH225258   1.914   2.286   5.279 -0.2369  0.2489  0.0347
 1208TIP3    H125259   1.981   2.241   5.228  0.1459  0.5861  0.2367
 1208TIP3    H225260   1.900   2.369   5.233 -0.3622  0.2724  0.1145
 1209TIP3   OH225261   5.518   4.778   2.892 -0.1503 -0.0931  0.2228
 1209TIP3    H125262   5.508   4.770   2.987 -0.2042 -0.5149  0.1840
 1209TIP3    H225263   5.443   4.830   2.864  0.1996  0.5644  0.4851
 1210TIP3   OH225264   3.891   4.749   3.651 -0.1342 -0.0442 -0.5118
 1210TIP3    H125265   3.873   4.676   3.710  1.3028 -1.6815 -2.0308
 1210TIP3    H225266   3.948   4.807   3.702 -1.2807  0.0643  0.7004
 1211TIP3   OH225267   0.996   4.532   4.558 -0.3070 -0.1961  0.4866
 1211TIP3    H125268   0.977   4.561   4.647 -2.5225 -1.2794  0.4395
 1211TIP3    H225269   0.947   4.593   4.502 -0.1140 -0.4062  0.0850
 1212TIP3   OH225270   0.905   2.986   1.546  0.5219  0.7726  0.4274
 1212TIP3    H125271   0.964   2.939   1.487 -1.1468 -1.5824  0.4693
 1212TIP3    H225272   0.953   2.991   1.629  1.8507  1.7688 -0.3561
 1213TIP3   OH225273   0.521   1.375   1.103  0.4155 -0.0932 -1.0612
 1213TIP3    H125274   0.580   1.300   1.095 -1.6041 -1.8744 -0.3592
 1213TIP3    H225275   0.439   1.346   1.062 -0.6095  1.5118 -0.2890
 1214TIP3   OH225276   0.476   5.341   2.721  0.5468 -0.6810 -0.3109
 1214TIP3    H125277   0.448   5.308   2.635 -2.0739 -1.4275  0.7091
 1214TIP3    H225278   0.563   5.304   2.733  1.6838  0.6926 -3.2308
 1215TIP3   OH225279   4.338   4.593   1.202 -0.8987 -0.0606  0.2785
 1215TIP3    H125280   4.383   4.677   1.196 -0.5747 -0.2626 -0.2567
 1215TIP3    H225281   4.342   4.569   1.294 -1.3850  0.7187  0.5128
 1216TIP3   OH225282   4.712   5.172   3.353  0.4242  0.2158 -0.5361
 1216TIP3    H125283   4.721   5.240   3.420 -2.1434  1.9722 -1.7949
 1216TIP3    H225284   4.735   5.216   3.271 -1.0300 -0.4737 -1.3508
 1217TIP3   OH225285   1.185   4.048   4.093  0.3460  0.2690  0.5051
 1217TIP3    H125286   1.196   4.143   4.099 -0.1836  0.4151 -0.6630
 1217TIP3    H225287   1.133   4.026   4.170  0.6080  0.8935  0.8773
 1218TIP3   OH225288   4.597   2.380   2.165  0.2256 -0.5574 -0.1870
 1218TIP3    H125289   4.655   2.312   2.198 -0.3621 -1.2723 -0.6047
 1218TIP3    H225290   4.607   2.378   2.070  0.8631  0.5515 -0.1676
 1219TIP3   OH225291   3.757   5.258   3.359  0.0496  0.6402 -0.2386
 1219TIP3    H125292   3.723   5.174   3.390  1.1721 -0.1589 -1.1079
 1219TIP3    H225293   3.788   5.302   3.438  2.2339 -1.0668 -0.0547
 1220TIP3   OH225294   6.704   0.206   2.195 -0.2185  1.0232  0.0986
 1220TIP3    H125295   6.784   0.240   2.236  0.4203  1.2472 -1.2904
 1220TIP3    H225296   6.635   0.226   2.258  0.5841  2.2656  0.6228
 1221TIP3   OH225297   5.966   0.737   4.271 -0.1574  0.6428  0.5330
 1221TIP3    H125298   5.970   0.649   4.234 -0.8634  0.6018  0.5255
 1221TIP3    H225299   5.903   0.784   4.215 -0.0951  1.0262  0.7781
 1222TIP3   OH225300   4.570   1.441   3.479  0.3087 -0.2180 -0.1505
 1222TIP3    H125301   4.546   1.350   3.465  1.0410 -0.3499 -0.6273
 1222TIP3    H225302   4.531   1.489   3.406 -0.9625  0.0300  0.6550
 1223TIP3   OH225303   3.633   2.073   3.675  0.0904  0.2756 -0.2456
 1223TIP3    H125304   3.684   2.149   3.646 -0.2418  0.1928 -1.0669
 1223TIP3    H225305   3.576   2.052   3.601 -0.5571 -0.1406  0.3553
 1224TIP3   OH225306   1.374   3.841   0.842 -0.7518 -0.1708  0.0142
 1224TIP3    H125307   1.286   3.830   0.805 -0.2486  2.3688 -2.3276
 1224TIP3    H225308   1.361   3.892   0.921 -1.5734 -2.8915  1.7929
 1225TIP3   OH225309   1.333   3.767   2.677 -0.0224  0.1212 -0.1588
 1225TIP3    H125310   1.409   3.709   2.682 -0.7185 -0.7916  0.1187
 1225TIP3    H225311   1.317   3.793   2.767 -1.8220 -2.1132  0.2721
 1226TIP3   OH225312   3.360   2.991   4.560 -0.2133 -0.3702  0.0830
 1226TIP3    H125313   3.346   3.006   4.653 -0.3291  0.0434 -0.0008
 1226TIP3    H225314   3.327   3.070   4.517 -1.2681 -1.0624 -0.3962
 1227TIP3   OH225315   4.041   2.829   0.807 -0.2867 -0.4084  0.2864
 1227TIP3    H125316   3.973   2.763   0.821  0.0180 -0.4759  1.4973
 1227TIP3    H225317   4.009   2.881   0.733 -0.7074 -1.6643 -0.4405
 1228TIP3   OH225318   6.221   4.905   2.955  0.0467  0.3247 -0.1937
 1228TIP3    H125319   6.188   4.872   3.039 -0.5622  1.1019 -0.1159
 1228TIP3    H225320   6.183   4.847   2.889  1.8531 -1.3362  0.1361
 1229TIP3   OH225321   4.026   6.071   0.784  0.0857 -0.5071 -0.3559
 1229TIP3    H125322   3.985   6.063   0.698 -0.5248 -1.4775  0.0052
 1229TIP3    H225323   4.105   6.017   0.779  0.0109 -0.6238 -0.2883
 1230TIP3   OH225324   0.754   5.042   3.022 -0.5482  0.3342  0.1902
 1230TIP3    H125325   0.732   4.979   2.953 -0.0602  1.2236 -0.7915
 1230TIP3    H225326   0.684   5.107   3.018  2.7072  4.1787 -4.1436
 1231TIP3   OH225327   3.350   4.147   1.351 -0.3509 -0.3431  0.4066
 1231TIP3    H125328   3.443   4.146   1.326 -0.3367  0.9175  0.3695
 1231TIP3    H225329   3.314   4.223   1.306 -1.2845 -0.5002  0.8732
 1232TIP3   OH225330   3.753   1.522   2.224  0.4336 -0.2694 -0.4888
 1232TIP3    H125331   3.776   1.609   2.191  0.1174 -0.0672 -0.1874
 1232TIP3    H225332   3.825   1.499   2.283 -0.6074  0.8117  1.2676
 1233TIP3   OH225333   3.375   0.279   4.095  0.5898 -0.4416  0.5609
 1233TIP3    H125334   3.291   0.242   4.123 -0.3032  1.1784  0.1218
 1233TIP3    H225335   3.377   0.366   4.133  0.7658  0.6411 -1.7438
 1234TIP3   OH225336   5.801   1.423   4.715 -0.6213  0.3380  0.3391
 1234TIP3    H125337   5.891   1.441   4.687 -0.5088 -1.1449 -0.3671
 1234TIP3    H225338   5.754   1.405   4.633 -1.7760  1.8590  0.6195
 1235TIP3   OH225339   0.568   1.282   2.153 -0.6568  0.2973 -0.1608
 1235TIP3    H125340   0.520   1.218   2.205 -0.4160 -0.1096 -0.4396
 1235TIP3    H225341   0.543   1.367   2.191 -0.6428  0.0175  0.4821
 1236TIP3   OH225342   0.000   5.418   3.044  0.2846  0.1633 -0.1949
 1236TIP3    H125343  -0.031   5.508   3.058  0.8489  0.0947  1.8047
 1236TIP3    H225344   0.087   5.429   3.005 -0.1507  0.4487 -1.1033
 1237TIP3   OH225345   5.481   0.677   5.314  0.7189  0.4826 -0.8789
 1237TIP3    H125346   5.395   0.685   5.274  0.0976 -0.8871  0.1133
 1237TIP3    H225347   5.527   0.611   5.261 -0.1691 -1.4690  0.6566
 1238TIP3   OH225348   2.477   6.599   1.832  0.4733  0.1001  0.4340
 1238TIP3    H125349   2.519   6.606   1.746 -2.0167  2.0153 -0.7552
 1238TIP3    H225350   2.420   6.523   1.825 -0.7015  1.0085 -0.1161
 1239TIP3   OH225351   1.309   0.535   3.760 -0.2593 -0.1514 -0.0953
 1239TIP3    H125352   1.236   0.507   3.704  0.9402 -0.4285 -1.5679
 1239TIP3    H225353   1.296   0.487   3.842 -0.7793 -1.5033 -0.9390
 1240TIP3   OH225354   4.128   3.347   3.030 -0.4307  0.1773 -0.2440
 1240TIP3    H125355   4.190   3.392   2.972  0.5532 -0.5793  0.1958
 1240TIP3    H225356   4.079   3.418   3.072  1.2143  0.8876  0.5710
 1241TIP3   OH225357   1.809   2.103   2.944  0.7689  0.1579 -0.1936
 1241TIP3    H125358   1.760   2.021   2.940 -0.7413  0.9822  0.3537
 1241TIP3    H225359   1.870   2.092   3.016  1.9216 -1.1517 -1.3287
 1242TIP3   OH225360   5.333   5.138   2.015 -0.0895  0.3053  0.3625
 1242TIP3    H125361   5.403   5.073   2.010  0.6009  0.8210  2.5312
 1242TIP3    H225362   5.284   5.126   1.934  2.1676 -0.4436 -0.9959
 1243TIP3   OH225363   4.513   2.651   3.420 -0.6048 -0.1856 -0.4063
 1243TIP3    H125364   4.577   2.586   3.392 -0.3909 -0.2382  0.1842
 1243TIP3    H225365   4.562   2.710   3.477 -1.1934 -0.5358  0.4781
 1244TIP3   OH225366   3.217   1.058   1.753  0.2653 -0.0771 -0.1663
 1244TIP3    H125367   3.190   0.993   1.818 -0.9047  0.0467 -0.5064
 1244TIP3    H225368   3.187   1.023   1.669  2.6393 -0.7221 -0.8165
 1245TIP3   OH225369   3.919   0.272   1.865 -0.8131 -0.2572  0.1078
 1245TIP3    H125370   3.953   0.282   1.777 -0.8355 -1.3173 -0.0398
 1245TIP3    H225371   3.903   0.361   1.896 -0.9827  0.1157 -1.0224
 1246TIP3   OH225372   2.662   2.535   4.161  0.1208 -0.7137  0.5754
 1246TIP3    H125373   2.729   2.510   4.225  1.0693 -0.8152 -0.4174
 1246TIP3    H225374   2.651   2.629   4.173  0.6504 -0.6470  0.5716
 1247TIP3   OH225375   1.049   3.208   2.221  0.9384 -0.0154  0.0822
 1247TIP3    H125376   1.116   3.194   2.287  1.3481 -0.5949 -0.4452
 1247TIP3    H225377   1.093   3.258   2.152  0.3652  1.0762  0.4794
 1248TIP3   OH225378   3.740   5.559   0.613  0.1316  0.6517  0.1618
 1248TIP3    H125379   3.660   5.606   0.635 -0.5822 -0.2407 -0.4714
 1248TIP3    H225380   3.751   5.571   0.519  1.7269  2.2254  0.4825
 1249TIP3   OH225381   2.146   4.693   2.931  0.6166 -0.3277 -0.0759
 1249TIP3    H125382   2.224   4.748   2.945 -1.2615  2.9492 -1.2629
 1249TIP3    H225383   2.140   4.683   2.836 -1.0650  0.6330 -0.1044
 1250TIP3   OH225384   5.968   3.990   1.057 -0.1992  0.2095 -0.6809
 1250TIP3    H125385   5.968   4.077   1.097  0.2629 -0.0075 -0.2024
 1250TIP3    H225386   6.040   3.944   1.099 -1.9294 -1.2460  0.8809
 1251TIP3   OH225387   3.216   5.792   4.632  0.0402  0.1610 -0.3918
 1251TIP3    H125388   3.121   5.798   4.619  0.3111  0.1825 -2.8007
 1251TIP3    H225389   3.227   5.798   4.727 -2.3795 -0.2086 -0.0084
 1252TIP3   OH225390   4.513   0.390   1.977 -0.3230 -0.2166 -0.6468
 1252TIP3    H125391   4.584   0.454   1.982  0.7234 -1.3791 -0.1356
 1252TIP3    H225392   4.540   0.329   1.908 -0.5918 -0.9304 -0.1294
 1253TIP3   OH225393   0.176   5.138   2.213 -0.0922  0.0631  0.2122
 1253TIP3    H125394   0.226   5.126   2.133 -0.2991  1.7199 -0.2168
 1253TIP3    H225395   0.232   5.104   2.283  1.5915  1.6424 -0.2773
 1254TIP3   OH225396   2.603   6.295   5.529  0.4369  0.1271  0.1330
 1254TIP3    H125397   2.531   6.235   5.508  1.3644 -0.9196 -0.2194
 1254TIP3    H225398   2.636   6.323   5.443 -1.0510  2.5472  0.2762
 1255TIP3   OH225399   5.514   0.679   3.881 -0.2531 -0.0793 -0.0734
 1255TIP3    H125400   5.444   0.727   3.925 -0.3080 -0.3914  0.1887
 1255TIP3    H225401   5.472   0.599   3.849  0.3156 -1.0979  1.5843
 1256TIP3   OH225402   2.402   1.092   3.375 -0.1129 -0.3111 -0.6908
 1256TIP3    H125403   2.480   1.094   3.430  0.0207  2.2784 -0.8310
 1256TIP3    H225404   2.331   1.119   3.433 -0.9944 -2.6849 -0.5531
 1257TIP3   OH225405   2.879   4.700   3.532  0.2093 -0.2608 -0.3029
 1257TIP3    H125406   2.809   4.635   3.543  1.6397 -1.6363  1.0416
 1257TIP3    H225407   2.834   4.784   3.543 -0.8833 -1.1421  3.3365
 1258TIP3   OH225408   1.387   2.243   2.439  0.2449  0.1922  0.6718
 1258TIP3    H125409   1.455   2.301   2.404 -0.0769  0.3478  0.2955
 1258TIP3    H225410   1.322   2.238   2.369 -0.1441  0.0649  1.0420
 1259TIP3   OH225411   3.965   1.393   3.330 -0.5276 -0.0678 -0.2442
 1259TIP3    H125412   3.885   1.445   3.338 -0.5038  0.3869 -2.4276
 1259TIP3    H225413   3.939   1.318   3.277  0.1412 -0.7841  0.4097
 1260TIP3   OH225414   5.661   3.235   4.203  0.3212  0.5167 -0.2573
 1260TIP3    H125415   5.733   3.245   4.142 -0.0357  1.0882 -0.6018
 1260TIP3    H225416   5.636   3.143   4.197  0.9447  0.3403 -0.2143
 1261TIP3   OH225417   0.884   4.747   3.914 -0.2370  0.1588 -0.4146
 1261TIP3    H125418   0.828   4.786   3.847  2.4113  4.5342 -0.5064
 1261TIP3    H225419   0.866   4.798   3.993  1.3662 -0.4147  0.3725
 1262TIP3   OH225420   0.726   2.689   1.715  0.3697 -0.9243  0.0255
 1262TIP3    H125421   0.662   2.651   1.654  1.5248 -2.1229 -0.4710
 1262TIP3    H225422   0.675   2.753   1.765 -0.5327  0.4813 -2.4943
 1263TIP3   OH225423   0.167   1.428   1.714  0.4812  0.2587 -0.0216
 1263TIP3    H125424   0.106   1.392   1.650  1.2003 -0.3968 -0.3585
 1263TIP3    H225425   0.117   1.493   1.762  0.1871  1.4886 -1.9154
 1264TIP3   OH225426   1.549   1.696   1.958 -0.1594 -0.4941 -0.1084
 1264TIP3    H125427   1.597   1.645   2.024  0.2718 -0.5037 -0.4302
 1264TIP3    H225428   1.457   1.688   1.985  0.1311  0.8890  1.4659
 1265TIP3   OH225429   1.800   2.636   1.134  0.2911 -0.1527  0.2895
 1265TIP3    H125430   1.793   2.665   1.043 -2.8263  1.8029  1.0182
 1265TIP3    H225431   1.893   2.642   1.154  0.7327  2.0618 -1.9492
 1266TIP3   OH225432   2.227   1.604   1.239  0.4607 -0.0675 -0.8051
 1266TIP3    H125433   2.201   1.550   1.314  0.4208  1.9509  0.7462
 1266TIP3    H225434   2.154   1.596   1.177  0.5041 -1.8063 -0.6590
 1267TIP3   OH225435   1.785   3.843   2.807 -0.6249  0.0320 -0.2863
 1267TIP3    H125436   1.808   3.936   2.805 -1.2670  0.2393  1.1266
 1267TIP3    H225437   1.810   3.811   2.720  2.8702  0.7368  0.3020
 1268TIP3   OH225438   1.480   4.443   3.535  0.2491  0.0278 -0.0652
 1268TIP3    H125439   1.438   4.379   3.593  3.3941 -0.3273  2.0308
 1268TIP3    H225440   1.443   4.527   3.562  1.9201 -0.0596  2.9836
 1269TIP3   OH225441   0.501   0.097   4.017 -0.4734  0.1889 -0.0996
 1269TIP3    H125442   0.412   0.106   3.985 -0.1261 -0.2392 -1.2434
 1269TIP3    H225443   0.519   0.003   4.013  0.3871  0.3617 -0.9804
 1270TIP3   OH225444   1.957   0.425   4.551  0.8167  0.3117 -0.2083
 1270TIP3    H125445   1.984   0.357   4.488 -0.7563 -0.7974  0.2495
 1270TIP3    H225446   2.035   0.479   4.562  1.6122 -0.3911 -1.9083
 1271TIP3   OH225447   1.854   5.507   4.844  0.0610  0.0518 -0.7156
 1271TIP3    H125448   1.783   5.463   4.891 -1.3309  0.7603 -2.0574
 1271TIP3    H225449   1.925   5.443   4.842 -1.0491 -1.2244 -0.5481
 1272TIP3   OH225450   4.350   3.527   2.543 -0.0370 -0.0266  0.6977
 1272TIP3    H125451   4.405   3.605   2.552  0.8213 -0.6825  1.3151
 1272TIP3    H225452   4.268   3.560   2.507  0.3106  1.1609  0.9381
 1273TIP3   OH225453   6.665   3.739   1.941  0.0248  0.7482 -0.5743
 1273TIP3    H125454   6.636   3.811   1.999 -0.6851 -0.5867  0.8098
 1273TIP3    H225455   6.722   3.686   1.996 -1.0924 -0.8594 -0.9165
 1274TIP3   OH225456   0.893   3.496   2.266  0.1513 -0.3924 -0.4607
 1274TIP3    H125457   0.929   3.409   2.284  0.1262 -0.6695 -1.6936
 1274TIP3    H225458   0.970   3.553   2.257  0.1522  0.0169  1.6390
 1275TIP3   OH225459   4.276   3.040   3.633 -0.2511  0.2729  0.0244
 1275TIP3    H125460   4.321   3.049   3.549 -2.4786  3.5688 -1.0243
 1275TIP3    H225461   4.185   3.023   3.610 -0.6200 -0.4676  1.8529
 1276TIP3   OH225462   2.639   1.052   4.744 -0.1578 -0.1401 -0.3765
 1276TIP3    H125463   2.545   1.067   4.749 -0.0949  0.4112 -0.7101
 1276TIP3    H225464   2.663   1.082   4.656  0.0382 -1.9288 -0.9625
 1277TIP3   OH225465   0.582   3.196   3.888  0.2595  0.0148 -0.0751
 1277TIP3    H125466   0.612   3.246   3.964  0.4893  0.0911 -0.2156
 1277TIP3    H225467   0.515   3.138   3.923  1.3232 -0.9320  0.4641
 1278TIP3   OH225468   6.738   1.572   4.810 -0.1831 -0.1775 -0.4063
 1278TIP3    H125469   6.708   1.487   4.841  0.3546  0.1114  0.9926
 1278TIP3    H225470   6.763   1.557   4.718 -0.6597 -1.3696 -0.3587
 1279TIP3   OH225471   3.321   6.048   3.778  0.3017  0.4773  0.0087
 1279TIP3    H125472   3.393   6.110   3.772  0.3063  0.7101  1.8054
 1279TIP3    H225473   3.265   6.084   3.847 -2.1292  0.8829 -2.0336
 1280TIP3   OH225474   0.139   6.430   4.952  0.2166 -0.4788 -0.7006
 1280TIP3    H125475   0.076   6.362   4.973  1.7052 -1.7705 -0.1513
 1280TIP3    H225476   0.097   6.511   4.980 -0.6636 -1.4265  0.9291
 1281TIP3   OH225477   3.714   6.211   2.656 -0.3239  0.1310  0.4464
 1281TIP3    H125478   3.662   6.135   2.631  1.2690 -1.1714  0.9224
 1281TIP3    H225479   3.707   6.215   2.751  0.4051 -0.0499  0.5167
 1282TIP3   OH225480   0.607   3.472   3.348 -0.3210 -0.3957 -0.1623
 1282TIP3    H125481   0.628   3.473   3.442 -1.0112 -1.6029  0.0260
 1282TIP3    H225482   0.591   3.380   3.328  1.9148 -0.4645 -1.9774
 1283TIP3   OH225483   1.997   0.653   5.334 -0.2316 -0.2201 -0.1762
 1283TIP3    H125484   2.013   0.658   5.239  1.0232  0.1213  0.0401
 1283TIP3    H225485   1.981   0.744   5.360 -0.8528 -0.3496 -0.1024
 1284TIP3   OH225486   4.768   5.922   0.532  0.0861 -0.0366 -0.4285
 1284TIP3    H125487   4.757   5.829   0.515  1.1979 -0.7103  2.0383
 1284TIP3    H225488   4.863   5.935   0.536  0.0865  1.8103 -3.2796
 1285TIP3   OH225489   6.342   2.140   2.175  0.0480  0.7821 -0.3518
 1285TIP3    H125490   6.259   2.186   2.182 -0.5467 -0.3200  0.0724
 1285TIP3    H225491   6.406   2.200   2.213 -0.5663  1.5711 -0.5238
 1286TIP3   OH225492   2.402   5.279   3.316  0.3001 -0.1009  0.1326
 1286TIP3    H125493   2.376   5.229   3.393  1.8038 -2.4965 -0.7917
 1286TIP3    H225494   2.322   5.321   3.285 -0.6418 -0.4084  2.0455
 1287TIP3   OH225495   4.374   4.594   2.968  0.4204 -0.6683  0.3707
 1287TIP3    H125496   4.447   4.647   2.934  0.5874 -0.9353  0.3079
 1287TIP3    H225497   4.345   4.641   3.046  1.4274 -1.1739  1.0628
 1288TIP3   OH225498   0.353   0.467   3.261 -0.1957 -0.3459 -0.0807
 1288TIP3    H125499   0.340   0.553   3.222 -2.3695 -1.0133 -0.9834
 1288TIP3    H225500   0.339   0.481   3.355  0.4570  0.4264 -0.0809
 1289TIP3   OH225501   2.018   5.923   1.235 -0.3767  0.2041  0.1655
 1289TIP3    H125502   2.009   6.017   1.220  1.9426  0.9922  2.7717
 1289TIP3    H225503   1.952   5.903   1.301  0.3111  0.4532  0.9488
 1290TIP3   OH225504   3.942   4.410   1.905  0.0610 -0.4941 -0.4743
 1290TIP3    H125505   3.904   4.493   1.933  0.3381 -0.3894 -0.4012
 1290TIP3    H225506   3.872   4.346   1.919 -0.2556 -0.2268 -0.8163
 1291TIP3   OH225507   1.852   6.458   0.542  0.4443 -0.2734  0.6298
 1291TIP3    H125508   1.877   6.543   0.504 -2.4122  0.3976  0.0693
 1291TIP3    H225509   1.828   6.404   0.466 -0.5506 -0.5986  1.1663
 1292TIP3   OH225510   0.490   2.800   0.556 -0.4532  0.0495 -1.1229
 1292TIP3    H125511   0.399   2.771   0.558 -0.4236 -1.0017 -5.1784
 1292TIP3    H225512   0.533   2.750   0.626 -2.8884  0.5972  0.8909
 1293TIP3   OH225513   3.116   2.971   2.029 -0.0563  0.3713  0.1309
 1293TIP3    H125514   3.195   2.919   2.011  1.4546  2.7386 -0.4804
 1293TIP3    H225515   3.071   2.922   2.098  2.6473 -0.4017  1.5101
 1294TIP3   OH225516   2.326   3.815   4.119  0.2713  0.1350 -0.2334
 1294TIP3    H125517   2.260   3.826   4.187  0.4359  0.5361 -0.1313
 1294TIP3    H225518   2.307   3.730   4.080 -0.1910  0.1673 -0.0832
 1295TIP3   OH225519   0.996   4.302   3.803 -0.1253 -0.6368  0.0858
 1295TIP3    H125520   1.059   4.230   3.793 -0.3453 -0.6207 -1.6711
 1295TIP3    H225521   0.911   4.261   3.792 -0.2943 -0.2422 -0.0942
 1296TIP3   OH225522   0.041   6.030   0.499 -0.7916 -0.4140  0.6606
 1296TIP3    H125523   0.027   5.974   0.424 -0.2069  1.2702 -0.7712
 1296TIP3    H225524   0.136   6.040   0.506 -0.7459 -1.5699  2.4570
 1297TIP3   OH225525   1.231   1.515   4.433 -0.2119  0.7564  0.4306
 1297TIP3    H125526   1.231   1.540   4.340  0.6204 -0.8514 -0.0453
 1297TIP3    H225527   1.143   1.537   4.463 -0.0090  2.7780 -0.2906
 1298TIP3   OH225528   6.340   3.353   1.911 -0.0789  0.2058  0.4679
 1298TIP3    H125529   6.329   3.448   1.922  3.0825  0.6993  0.2259
 1298TIP3    H225530   6.433   3.342   1.893 -0.5023 -2.9149 -0.3011
 1299TIP3   OH225531   3.113   3.314   1.568  0.1281 -0.6597  0.4806
 1299TIP3    H125532   3.207   3.328   1.573 -0.0711  1.4699 -0.5417
 1299TIP3    H225533   3.081   3.331   1.656  0.5635 -0.0479  0.5282
 1300TIP3   OH225534   3.613   3.209   1.438 -0.1733  0.0097  0.1920
 1300TIP3    H125535   3.624   3.254   1.522 -1.0755  1.3936 -0.3916
 1300TIP3    H225536   3.630   3.277   1.373  2.0299 -1.4150 -0.8017
 1301TIP3   OH225537   3.188   3.493   0.223  0.3410  0.1203 -0.0924
 1301TIP3    H125538   3.174   3.466   0.314  0.2599  2.0299  0.5133
 1301TIP3    H225539   3.099   3.503   0.188  0.2832  1.9381  0.4721
 1302TIP3   OH225540   1.603   6.635   0.701  0.1100 -0.5391 -0.3502
 1302TIP3    H125541   1.623   6.544   0.723  0.9379 -0.8992 -2.3631
 1302TIP3    H225542   1.552   6.629   0.620 -0.8239  0.7714  0.1097
 1303TIP3   OH225543   4.578   0.985   4.449  0.2488 -0.1981  0.2086
 1303TIP3    H125544   4.495   1.018   4.415  0.4890  0.2649  0.0603
 1303TIP3    H225545   4.604   1.050   4.515  1.0373  0.2595 -0.5289
 1304TIP3   OH225546   3.652   1.146   5.141 -0.4149 -0.0760  0.6082
 1304TIP3    H125547   3.628   1.217   5.201  1.2692 -0.1682  1.4447
 1304TIP3    H225548   3.573   1.131   5.089 -1.4465  1.0395  1.7785
 1305TIP3   OH225549   1.356   6.136   4.342  0.0034  0.3825  0.1793
 1305TIP3    H125550   1.423   6.153   4.408  0.9961 -1.2154 -0.3638
 1305TIP3    H225551   1.310   6.219   4.333  0.6776  0.9877  1.9439
 1306TIP3   OH225552   3.590   4.824   2.364  0.2208 -0.0204  0.6544
 1306TIP3    H125553   3.570   4.789   2.450 -0.3620 -1.4612 -0.0324
 1306TIP3    H225554   3.680   4.796   2.346  0.4415  0.5173  0.8925
 1307TIP3   OH225555   6.645   1.042   3.601  0.7552 -0.2567  0.0464
 1307TIP3    H125556   6.593   1.078   3.529  0.1234 -2.2448 -0.5507
 1307TIP3    H225557   6.582   0.994   3.655  1.4973 -0.1651  1.0161
 1308TIP3   OH225558   2.423   5.787   3.920  0.0394  0.0082  0.1687
 1308TIP3    H125559   2.374   5.744   3.850 -0.1574 -2.4371  1.6908
 1308TIP3    H225560   2.463   5.715   3.969  3.2021  1.7869  0.4585
 1309TIP3   OH225561   1.358   5.785   5.436  0.5144 -0.1523 -0.4547
 1309TIP3    H125562   1.435   5.769   5.491  0.2379 -1.4026 -0.4019
 1309TIP3    H225563   1.284   5.755   5.489  0.1972 -0.9038 -1.2867
 1310TIP3   OH225564   1.935   5.340   4.021  0.5409  0.0723 -0.7971
 1310TIP3    H125565   1.950   5.363   4.113  1.1299  1.1874 -1.1470
 1310TIP3    H225566   1.841   5.355   4.008  0.5345  0.3137 -0.4824
 1311TIP3   OH225567   6.664   2.270   2.514  0.2332  0.5130  0.2120
 1311TIP3    H125568   6.696   2.235   2.432  0.0326 -0.1012  0.3951
 1311TIP3    H225569   6.720   2.346   2.531  0.4475  0.4839 -0.3501
 1312TIP3   OH225570   0.747   1.834   1.987 -0.0301  0.6421  0.3610
 1312TIP3    H125571   0.832   1.863   1.953 -0.6801  0.2463 -1.7707
 1312TIP3    H225572   0.684   1.864   1.922 -1.2775 -1.1084  0.6802
 1313TIP3   OH225573   2.704   4.748   4.908 -0.0366  0.0675  0.0215
 1313TIP3    H125574   2.723   4.832   4.950 -1.2861  0.1932  0.3780
 1313TIP3    H225575   2.767   4.687   4.947  1.1864  0.9171 -0.5808
 1314TIP3   OH225576   1.371   3.845   1.479  0.2950 -0.1116  0.1040
 1314TIP3    H125577   1.308   3.822   1.412  1.1703  0.0002 -0.7862
 1314TIP3    H225578   1.399   3.934   1.456 -0.3731  0.4549  1.3947
 1315TIP3   OH225579   5.098   2.371   4.019 -0.0180  0.6885  0.2763
 1315TIP3    H125580   5.150   2.310   3.965  0.9995  2.3679 -0.7113
 1315TIP3    H225581   5.139   2.368   4.105 -0.9771 -1.1914  0.7241
 1316TIP3   OH225582   4.027   1.621   3.908 -0.3843 -0.5800  0.3222
 1316TIP3    H125583   3.988   1.544   3.948 -0.3775 -0.8591 -0.1946
 1316TIP3    H225584   3.995   1.619   3.817  0.1978 -0.3795  0.1086
 1317TIP3   OH225585   6.329   2.188   4.093 -0.3580  0.6447  0.1795
 1317TIP3    H125586   6.250   2.224   4.134 -1.5827  0.2166 -1.6763
 1317TIP3    H225587   6.364   2.259   4.040  0.3263  0.7274  0.7303
 1318TIP3   OH225588   4.106   3.013   2.541  0.7354 -0.7124 -0.0335
 1318TIP3    H125589   4.050   3.081   2.504  0.0756 -0.9519  0.5101
 1318TIP3    H225590   4.140   3.052   2.622  2.6067  0.0185 -1.0967
 1319TIP3   OH225591   2.879   5.174   1.318  0.0440 -0.3005  0.0904
 1319TIP3    H125592   2.951   5.236   1.314 -0.6319  0.4570 -1.6168
 1319TIP3    H225593   2.805   5.222   1.280 -0.6943 -1.8864 -0.5559
 1320TIP3   OH225594   2.542   0.348   0.472 -0.3011 -0.4150  0.1291
 1320TIP3    H125595   2.598   0.411   0.425  0.9222 -2.4398 -1.2634
 1320TIP3    H225596   2.560   0.264   0.431  0.5331 -2.3352  3.9178
 1321TIP3   OH225597   4.738   5.545   4.512 -0.3031 -0.1521  0.6767
 1321TIP3    H125598   4.723   5.602   4.437  0.3444 -0.4444  0.3148
 1321TIP3    H225599   4.829   5.563   4.537 -0.5875  0.1258  1.5540
 1322TIP3   OH225600   5.416   1.478   4.543  0.1096 -0.0375  0.8194
 1322TIP3    H125601   5.451   1.441   4.625 -0.2033 -0.9632  0.5537
 1322TIP3    H225602   5.426   1.407   4.480  0.5349  0.7406 -0.0054
 1323TIP3   OH225603   5.501   2.033   3.642  0.0652  0.2130  0.4316
 1323TIP3    H125604   5.418   2.080   3.633  0.2939  0.3117 -1.5047
 1323TIP3    H225605   5.483   1.946   3.608  0.4113 -0.2034  1.2954
 1324TIP3   OH225606   3.862   6.074   1.701 -0.2649 -0.1623 -0.2915
 1324TIP3    H125607   3.827   6.005   1.757  1.0281 -0.8420 -0.2810
 1324TIP3    H225608   3.911   6.131   1.760 -1.2987  0.7740 -0.3034
 1325TIP3   OH225609   6.647   1.665   1.206 -0.0699 -0.4102 -0.2489
 1325TIP3    H125610   6.627   1.718   1.283 -1.2767 -0.9159 -0.1879
 1325TIP3    H225611   6.742   1.661   1.204 -0.0099 -0.6137  1.3780
 1326TIP3   OH225612   6.250   4.203   0.619 -0.6098  0.2711  0.4157
 1326TIP3    H125613   6.270   4.111   0.600  0.5145  0.9047 -1.6843
 1326TIP3    H225614   6.289   4.218   0.705 -0.4055 -1.0902  0.5880
 1327TIP3   OH225615   0.224   4.783   4.352  0.6740  0.1847  0.0912
 1327TIP3    H125616   0.242   4.731   4.431  2.3319 -1.5422 -1.3417
 1327TIP3    H225617   0.310   4.799   4.314 -0.1522 -0.0337 -2.0007
 1328TIP3   OH225618   1.896   5.788   4.910  1.3880  0.6149  0.0145
 1328TIP3    H125619   1.884   5.694   4.893  1.7357  0.3495  1.1096
 1328TIP3    H225620   1.868   5.831   4.830 -0.7784 -0.3144  0.2117
 1329TIP3   OH225621   2.515   0.889   2.663 -0.3557  0.0585  0.2910
 1329TIP3    H125622   2.456   0.923   2.730 -0.1174  0.6772  0.1968
 1329TIP3    H225623   2.461   0.830   2.610 -0.4854 -0.6477  1.1791
 1330TIP3   OH225624   5.563   3.489   0.667 -0.0253 -0.8671  0.3892
 1330TIP3    H125625   5.586   3.578   0.693 -1.1880 -0.9334  1.7904
 1330TIP3    H225626   5.468   3.485   0.675 -0.2961 -1.4603 -2.3665
 1331TIP3   OH225627   1.641   3.707   0.863 -0.0312 -0.2112 -0.2891
 1331TIP3    H125628   1.566   3.755   0.828 -1.1709 -2.1444 -0.6484
 1331TIP3    H225629   1.676   3.657   0.788  1.4397  0.4049 -0.0539
 1332TIP3   OH225630   3.902   5.353   0.647  0.1861  0.2700 -0.3367
 1332TIP3    H125631   3.959   5.341   0.723  2.2197  1.1324 -1.6572
 1332TIP3    H225632   3.878   5.446   0.650 -1.3596 -0.1078  0.2813
 1333TIP3   OH225633   6.558   1.805   3.878 -0.2114 -0.1290  0.7970
 1333TIP3    H125634   6.510   1.724   3.891 -0.0802 -0.1659  1.0548
 1333TIP3    H225635   6.547   1.854   3.960  0.8520 -0.4902  1.1808
 1334TIP3   OH225636   0.576   5.556   2.395 -0.7203  0.1586 -0.6486
 1334TIP3    H125637   0.559   5.616   2.468 -1.9568 -0.5260 -0.3445
 1334TIP3    H225638   0.493   5.552   2.347 -0.5833 -1.0516 -0.8323
 1335TIP3   OH225639   3.473   6.366   3.454  0.1532 -0.9609 -0.3829
 1335TIP3    H125640   3.534   6.437   3.435 -0.7596 -0.0875 -0.1394
 1335TIP3    H225641   3.440   6.339   3.369 -1.2600  0.5300 -0.3540
 1336TIP3   OH225642   3.392   4.174   3.262  0.2653 -0.7180 -0.5465
 1336TIP3    H125643   3.424   4.100   3.314  0.7390  0.6079  1.1101
 1336TIP3    H225644   3.451   4.246   3.282 -2.1846  1.1048  0.6426
 1337TIP3   OH225645   3.040   1.455   1.970  0.5482 -0.3026 -0.1882
 1337TIP3    H125646   3.074   1.418   1.888 -1.3526  0.7263 -1.5059
 1337TIP3    H225647   3.091   1.534   1.984 -1.5024  1.5594 -2.4771
 1338TIP3   OH225648   1.501   4.022   3.740  0.1389  0.0721  0.1872
 1338TIP3    H125649   1.440   3.981   3.679  0.2191  0.9123 -0.4661
 1338TIP3    H225650   1.588   3.998   3.706  0.1878 -0.4808  0.6806
 1339TIP3   OH225651   3.416   6.459   4.507  0.0161 -0.0403  0.0258
 1339TIP3    H125652   3.384   6.470   4.596  1.5087  2.3058  0.3703
 1339TIP3    H225653   3.348   6.409   4.463  0.2204 -3.2615  2.9707
 1340TIP3   OH225654   2.897   0.334   1.023  0.1871  0.1153  0.0846
 1340TIP3    H125655   2.852   0.393   1.084 -1.4504 -0.9273 -0.0734
 1340TIP3    H225656   2.923   0.260   1.077  1.0255  0.3371  0.0021
 1341TIP3   OH225657   5.060   4.147   6.221 -0.3555  0.4778 -0.3420
 1341TIP3    H125658   5.056   4.218   6.158  1.3580  1.2659  0.3912
 1341TIP3    H225659   5.062   4.190   6.306 -0.2107 -0.4761  0.1548
 1342TIP3   OH225660   5.218   5.877   2.173  0.1705 -0.6026 -0.0248
 1342TIP3    H125661   5.219   5.899   2.267 -1.6501 -0.4030 -0.0223
 1342TIP3    H225662   5.253   5.788   2.169 -0.7575 -1.0323  0.9823
 1343TIP3   OH225663   1.686   1.208   4.792 -0.1506  0.5312  0.0004
 1343TIP3    H125664   1.688   1.226   4.886  0.0982 -1.3672  0.3892
 1343TIP3    H225665   1.752   1.140   4.779  0.3089  1.2353 -1.6742
 1344TIP3   OH225666   2.298   3.751   3.475  0.0773  0.0124 -0.6232
 1344TIP3    H125667   2.247   3.793   3.405 -0.4376 -2.5786 -1.9454
 1344TIP3    H225668   2.382   3.730   3.434  1.2942  1.9206  0.7688
 1345TIP3   OH225669   4.017   4.502   4.157 -0.4741 -0.0807  0.0391
 1345TIP3    H125670   3.943   4.442   4.154  0.0747 -0.7309 -2.1287
 1345TIP3    H225671   3.992   4.573   4.096  1.0103 -0.7766 -1.4444
 1346TIP3   OH225672   2.452   4.521   3.645  0.1073 -0.1282  0.5117
 1346TIP3    H125673   2.446   4.426   3.656  0.3670 -0.0789  1.1623
 1346TIP3    H225674   2.361   4.551   3.648 -0.0645 -0.4542 -0.8041
 1347TIP3   OH225675   6.283   1.335   4.784 -0.0022 -0.1768 -0.3716
 1347TIP3    H125676   6.366   1.333   4.737 -0.0060 -3.1000 -0.4270
 1347TIP3    H225677   6.292   1.267   4.851 -2.5347 -0.9603 -0.7440
 1348TIP3   OH225678   3.099   0.142   4.832 -0.0629  0.3103  0.0707
 1348TIP3    H125679   3.180   0.130   4.782  0.2176 -0.3363  0.6718
 1348TIP3    H225680   3.070   0.231   4.808  1.8988  1.3880  1.3952
 1349TIP3   OH225681   0.388   5.370   1.732  0.2322  0.4263  0.0450
 1349TIP3    H125682   0.345   5.410   1.656  1.5613  0.4114 -0.7619
 1349TIP3    H225683   0.320   5.317   1.773 -0.4840  0.3070 -1.2370
 1350TIP3   OH225684   0.545   0.078   2.091 -0.1736  0.2610 -0.1179
 1350TIP3    H125685   0.516   0.165   2.063 -0.8491 -0.1015 -0.5564
 1350TIP3    H225686   0.506   0.066   2.178  0.3475  0.5994  0.1709
 1351TIP3   OH225687   0.125   5.702   3.634 -0.2828 -0.1266 -0.0629
 1351TIP3    H125688   0.087   5.637   3.694  1.3818 -1.1158 -0.0117
 1351TIP3    H225689   0.054   5.764   3.618 -1.0707 -0.3348  2.2183
 1352TIP3   OH225690   0.190   1.560   3.461 -0.2361  0.0875 -0.5110
 1352TIP3    H125691   0.242   1.568   3.382  1.3573 -2.3276  0.1926
 1352TIP3    H225692   0.125   1.492   3.441 -0.4672  0.1702 -0.0662
 1353TIP3   OH225693   0.103   0.398   1.766 -0.3670 -0.4778 -0.0583
 1353TIP3    H125694   0.196   0.416   1.750 -0.4869  1.7250  1.2456
 1353TIP3    H225695   0.071   0.476   1.812 -2.6316 -1.6161  0.4619
 1354TIP3   OH225696   1.378   3.708   0.550 -0.6722 -0.0970 -0.1383
 1354TIP3    H125697   1.441   3.748   0.609  0.4575 -0.2546 -1.1990
 1354TIP3    H225698   1.298   3.760   0.561  0.1067  1.0815  0.1026
 1355TIP3   OH225699   3.941   0.061   3.721  0.1301  0.3049 -0.4027
 1355TIP3    H125700   3.947  -0.001   3.793  0.0430  0.6788 -0.0706
 1355TIP3    H225701   4.014   0.122   3.736  0.6192 -0.0940 -1.0909
 1356TIP3   OH225702   6.483   4.036   4.227  0.4726 -0.4303 -0.0119
 1356TIP3    H125703   6.523   4.068   4.308 -0.8896  1.5901 -0.0803
 1356TIP3    H225704   6.438   4.112   4.190  0.4000 -1.5064 -2.2818
 1357TIP3   OH225705   3.007   1.551   2.559  0.1748  0.4323 -0.0371
 1357TIP3    H125706   3.023   1.518   2.647  2.8526 -1.5785 -1.1541
 1357TIP3    H225707   3.065   1.627   2.551  0.9623 -0.2142 -0.5040
 1358TIP3   OH225708   0.511   2.230   2.167 -0.1528  0.1309  0.4828
 1358TIP3    H125709   0.566   2.309   2.173 -0.5532  0.3835  0.9105
 1358TIP3    H225710   0.500   2.217   2.073  0.9095 -0.1199  0.3744
 1359TIP3   OH225711   3.526   3.216   4.524  0.1494 -0.0515  0.5463
 1359TIP3    H125712   3.542   3.274   4.599  1.1276  2.9227 -1.7679
 1359TIP3    H225713   3.440   3.241   4.493  0.3182 -0.2968 -0.1280
 1360TIP3   OH225714   2.000   4.282   4.546 -0.0055 -0.1995 -0.0996
 1360TIP3    H125715   2.053   4.252   4.620 -2.0998  1.2059  2.1199
 1360TIP3    H225716   1.927   4.220   4.542 -0.2870  0.1534 -0.5276
 1361TIP3   OH225717   3.724   1.377   4.983  0.0965 -0.2021  0.0171
 1361TIP3    H125718   3.802   1.370   5.038 -0.7933  0.9776  1.5199
 1361TIP3    H225719   3.663   1.312   5.019 -0.1988 -0.0019 -0.1150
 1362TIP3   OH225720   3.630   5.900   3.893  0.9007  0.2160  0.3506
 1362TIP3    H125721   3.694   5.858   3.835  1.2859 -0.0829  0.9799
 1362TIP3    H225722   3.650   5.993   3.885 -1.4174  0.6009 -2.8002
 1363TIP3   OH225723   5.335   0.586   1.479 -0.8195  0.3308  0.0115
 1363TIP3    H125724   5.397   0.656   1.460 -1.3321  0.5207 -1.0563
 1363TIP3    H225725   5.327   0.538   1.396 -2.2372  0.4345  0.0611
 1364TIP3   OH225726   3.236   5.730   3.647 -0.0586 -0.2847 -0.2854
 1364TIP3    H125727   3.143   5.723   3.666  0.0807 -1.3636  0.0527
 1364TIP3    H225728   3.241   5.797   3.578 -0.8781  1.1607  0.9940
 1365TIP3   OH225729   2.503   0.233   5.248  0.3155 -0.3066  0.1324
 1365TIP3    H125730   2.560   0.200   5.316 -0.5922 -1.6415  0.2886
 1365TIP3    H225731   2.429   0.272   5.295 -0.2386 -1.0961 -0.0570
 1366TIP3   OH225732   5.386   0.145   0.816  0.0642 -0.3523 -0.5191
 1366TIP3    H125733   5.423   0.059   0.832  0.3745 -0.1945 -0.3857
 1366TIP3    H225734   5.324   0.132   0.744  2.1446 -0.1800 -2.4216
 1367TIP3   OH225735   3.872   0.164   2.567 -0.2465  0.3281 -0.6850
 1367TIP3    H125736   3.935   0.091   2.568  1.4334  1.6659 -2.1283
 1367TIP3    H225737   3.793   0.125   2.529  0.2065 -1.0148 -0.3370
 1368TIP3   OH225738   0.194   4.271   2.032  0.0581  0.5455 -0.3307
 1368TIP3    H125739   0.219   4.179   2.039 -1.8537  0.0387  0.6522
 1368TIP3    H225740   0.108   4.269   1.989 -2.2241  1.4191  3.7318
 1369TIP3   OH225741   1.673   5.552   1.094 -0.4541 -0.6399 -0.1463
 1369TIP3    H125742   1.765   5.562   1.119 -0.1962 -0.0780 -1.2852
 1369TIP3    H225743   1.626   5.555   1.177  0.0960  4.1607  0.3125
 1370TIP3   OH225744   3.411   2.289   3.580 -0.0969  0.5720 -0.0098
 1370TIP3    H125745   3.438   2.230   3.510 -2.3139 -0.5218 -0.0122
 1370TIP3    H225746   3.387   2.371   3.536 -0.1221  0.3807 -0.3476
 1371TIP3   OH225747   3.472   3.348   0.360 -0.5521  0.2191 -0.6857
 1371TIP3    H125748   3.430   3.276   0.312  0.7634  0.5727 -2.4715
 1371TIP3    H225749   3.545   3.374   0.304  0.8806  0.9075  1.4055
 1372TIP3   OH225750   3.184   0.456   2.734 -0.0962 -0.2271  0.0398
 1372TIP3    H125751   3.263   0.420   2.695  0.0001 -0.5923  0.5574
 1372TIP3    H225752   3.210   0.543   2.766  0.3270 -0.6727  0.9458
 1373TIP3   OH225753   6.563   5.355   3.818  0.0931  0.4380  0.2002
 1373TIP3    H125754   6.489   5.326   3.871 -0.4138  0.3097 -0.5494
 1373TIP3    H225755   6.538   5.332   3.728 -0.6348  3.6484 -0.5450
 1374TIP3   OH225756   3.364   6.437   2.290  0.1466  0.2105 -0.0268
 1374TIP3    H125757   3.428   6.486   2.238 -0.2545  0.4747 -0.2782
 1374TIP3    H225758   3.311   6.392   2.225 -0.0123  0.1033  0.1783
 1375TIP3   OH225759   5.420   0.249   2.545  0.5710 -0.1489  0.3815
 1375TIP3    H125760   5.339   0.230   2.592  0.8952  0.2753  1.1251
 1375TIP3    H225761   5.400   0.228   2.454 -0.0876 -0.9311  0.6895
 1376TIP3   OH225762   6.101   3.763   4.149  0.0408  0.2429  0.0707
 1376TIP3    H125763   6.056   3.681   4.131 -0.7055  0.4322  0.9893
 1376TIP3    H225764   6.086   3.816   4.071  2.0177 -1.0624 -1.3096
 1377TIP3   OH225765   0.981   1.903   1.308  0.0741 -0.1226  0.2768
 1377TIP3    H125766   1.069   1.881   1.277  0.5086 -0.1889  1.4985
 1377TIP3    H225767   0.945   1.959   1.240  1.9092  1.7614  0.7429
 1378TIP3   OH225768   4.852   5.733   4.225 -0.5247 -0.7318 -0.1439
 1378TIP3    H125769   4.810   5.751   4.309 -1.2534 -1.5574 -0.3130
 1378TIP3    H225770   4.811   5.793   4.163  0.4224  0.2882  0.1714
 1379TIP3   OH225771   5.138   3.843   4.830 -0.2494  0.4406 -0.5707
 1379TIP3    H125772   5.089   3.893   4.896 -0.0004  0.3780 -0.3340
 1379TIP3    H225773   5.133   3.897   4.751 -0.0602  0.8055 -0.3413
 1380TIP3   OH225774   0.473   5.679   2.980  0.3135 -0.6587  0.0541
 1380TIP3    H125775   0.512   5.702   3.064 -0.3256  0.2346  0.1251
 1380TIP3    H225776   0.432   5.761   2.949 -0.4758 -1.2633 -0.5543
 1381TIP3   OH225777   5.008   3.785   1.358 -0.3685  0.1733  0.5718
 1381TIP3    H125778   5.037   3.765   1.269 -0.2488  1.5204  0.2727
 1381TIP3    H225779   5.074   3.744   1.414 -0.1928 -0.3097  0.0271
 1382TIP3   OH225780   2.489   5.941   4.177 -0.3951  0.3450 -0.2900
 1382TIP3    H125781   2.428   5.914   4.108 -0.5068  1.6617 -0.7359
 1382TIP3    H225782   2.570   5.894   4.158 -0.5210  0.4542 -1.1441
 1383TIP3   OH225783   6.406   5.339   2.485  0.1604  0.2771 -0.2964
 1383TIP3    H125784   6.356   5.272   2.531 -0.2549 -0.6338 -1.9696
 1383TIP3    H225785   6.366   5.422   2.511 -0.3675 -0.2379  0.5718
 1384TIP3   OH225786   0.935   5.565   4.429 -0.0894 -0.2808  0.0474
 1384TIP3    H125787   0.955   5.471   4.426 -2.4706 -0.8306 -1.8581
 1384TIP3    H225788   0.886   5.576   4.510  0.0213 -0.7260  0.1799
 1385TIP3   OH225789   4.159   6.675   3.134  0.3656  0.4183  0.4554
 1385TIP3    H125790   4.104   6.663   3.212  1.6058 -0.0442  1.2945
 1385TIP3    H225791   4.154   6.592   3.087  1.0985  0.0153  1.0562
 1386TIP3   OH225792   3.082   4.024   1.133 -0.4806 -0.0688 -0.7147
 1386TIP3    H125793   3.096   4.031   1.227 -2.7974  0.6556 -0.3634
 1386TIP3    H225794   3.162   4.060   1.094  1.5268 -2.4068  0.8654
 1387TIP3   OH225795   0.749   3.818   3.534  0.4382  0.0330 -0.0676
 1387TIP3    H125796   0.703   3.849   3.456  1.2748  0.3928 -0.4239
 1387TIP3    H225797   0.695   3.746   3.566 -0.7678  0.9002 -0.0638
 1388TIP3   OH225798   0.173   1.965   2.108 -0.2044 -0.2599  0.1076
 1388TIP3    H125799   0.257   1.946   2.066 -0.7677 -1.0952 -0.6852
 1388TIP3    H225800   0.194   2.025   2.179  1.3507 -1.8808  1.1099
 1389TIP3   OH225801   0.854   3.680   2.503 -0.2506  0.4102  0.1542
 1389TIP3    H125802   0.944   3.668   2.535 -1.1201 -1.4621  2.1575
 1389TIP3    H225803   0.842   3.610   2.439 -0.5060  0.1770  0.4532
 1390TIP3   OH225804   3.610   4.138   2.670  0.3527 -0.0062  0.2712
 1390TIP3    H125805   3.687   4.165   2.621  0.9034  0.8932  1.5763
 1390TIP3    H225806   3.610   4.193   2.748 -2.3844  1.0045 -0.3091
 1391TIP3   OH225807   1.951   0.902   1.806  0.7309  0.5834 -0.5068
 1391TIP3    H125808   1.901   0.964   1.754  1.0280  0.8740 -0.4434
 1391TIP3    H225809   1.971   0.830   1.746 -0.8350 -0.1410 -0.2215
 1392TIP3   OH225810   2.758   1.539   1.679 -0.2652  0.2520 -0.1523
 1392TIP3    H125811   2.717   1.470   1.732 -0.5608  1.3171  1.0669
 1392TIP3    H225812   2.812   1.492   1.616  1.3657 -1.1121  2.0976
 1393TIP3   OH225813   6.103   4.343   4.469  0.2074  0.5933 -0.3593
 1393TIP3    H125814   6.037   4.354   4.537 -1.4222 -0.4656 -1.7063
 1393TIP3    H225815   6.152   4.264   4.496 -0.3931  0.2088 -0.3899
 1394TIP3   OH225816   5.584   0.164   1.400  0.3485 -0.1113 -0.2758
 1394TIP3    H125817   5.557   0.229   1.465  0.8280 -0.2957  0.1229
 1394TIP3    H225818   5.669   0.133   1.432  0.8750  0.2181 -1.3117
 1395TIP3   OH225819   3.103   3.169   1.326 -0.1880 -0.0643  0.0989
 1395TIP3    H125820   3.099   3.082   1.365 -0.2951 -0.0251  0.1747
 1395TIP3    H225821   3.088   3.229   1.399 -0.9382 -0.0097 -0.0938
 1396TIP3   OH225822   4.350   2.698   2.587  0.0158 -0.0329 -0.1581
 1396TIP3    H125823   4.284   2.707   2.518 -0.7692  0.4666  0.6356
 1396TIP3    H225824   4.426   2.661   2.543 -0.9796 -1.1627 -0.9904
 1397TIP3   OH225825   5.877   2.346   3.696 -0.3798 -0.1005  0.0736
 1397TIP3    H125826   5.914   2.381   3.615  0.0329  2.1114  1.1514
 1397TIP3    H225827   5.950   2.300   3.738 -0.5923 -1.2463 -0.7722
 1398TIP3   OH225828   0.959   1.379   2.813 -0.2969 -0.2405 -0.0953
 1398TIP3    H125829   0.945   1.304   2.870  0.2645  0.2923  0.7745
 1398TIP3    H225830   0.944   1.346   2.725  1.2829 -1.7222  0.1439
 1399TIP3   OH225831   4.077   3.711   1.218 -0.0509 -0.1056  0.0849
 1399TIP3    H125832   4.110   3.630   1.179 -0.1397  0.3315 -0.9204
 1399TIP3    H225833   4.156   3.756   1.249  0.5504  1.4604 -3.2950
 1400TIP3   OH225834   4.431   2.776   3.147 -0.2132 -0.2988  0.0596
 1400TIP3    H125835   4.476   2.796   3.229 -1.1888  2.2298  0.0417
 1400TIP3    H225836   4.457   2.845   3.087  1.5061 -2.7904 -2.2867
 1401TIP3   OH225837   0.366   4.533   1.211 -0.3015  0.4271  0.0843
 1401TIP3    H125838   0.450   4.566   1.180 -0.2863  2.0869  1.7362
 1401TIP3    H225839   0.386   4.494   1.296 -0.6874 -2.1516 -0.9183
 1402TIP3   OH225840   0.807   0.243   1.593  0.2028  0.4231  0.1822
 1402TIP3    H125841   0.788   0.190   1.516 -1.1196  0.0124  0.7609
 1402TIP3    H225842   0.816   0.180   1.664 -1.4372  0.9371  0.8945
 1403TIP3   OH225843   1.613   6.040   3.502 -0.0770  0.3445 -0.3934
 1403TIP3    H125844   1.681   6.050   3.569 -1.7077  0.3174  1.3537
 1403TIP3    H225845   1.618   5.948   3.476  0.8536  0.4596 -0.6432
 1404TIP3   OH225846   6.487   2.541   3.679 -0.1913 -0.3025  0.3911
 1404TIP3    H125847   6.467   2.604   3.748 -0.5389  0.6762 -0.5629
 1404TIP3    H225848   6.579   2.519   3.692 -0.4084 -0.6136  1.5192
 1405TIP3   OH225849   3.464   3.106   4.063  0.4562  0.2054  0.1740
 1405TIP3    H125850   3.412   3.057   4.127  0.1163  1.3488  0.8081
 1405TIP3    H225851   3.446   3.198   4.083  2.4877  0.6401  0.2221
 1406TIP3   OH225852   0.286   4.389   2.881  0.4907 -0.0970 -0.5503
 1406TIP3    H125853   0.244   4.320   2.830  0.7634 -2.7407  2.5019
 1406TIP3    H225854   0.220   4.457   2.889 -0.3409 -0.6223 -2.3698
 1407TIP3   OH225855   1.446   2.203   3.794 -0.4063 -0.3605  0.6356
 1407TIP3    H125856   1.432   2.197   3.889  1.1470 -0.6033  0.8881
 1407TIP3    H225857   1.541   2.214   3.785 -0.3262 -1.8898 -0.9504
 1408TIP3   OH225858   5.895   3.733   2.065  0.1917  0.0729 -0.0982
 1408TIP3    H125859   5.849   3.652   2.045 -1.8809  1.6241 -2.2641
 1408TIP3    H225860   5.961   3.741   1.996 -0.6815  0.9280 -0.8733
 1409TIP3   OH225861   6.514   0.752   4.969  0.8686 -0.0499 -0.9575
 1409TIP3    H125862   6.453   0.690   5.009  0.9117 -0.6992 -1.8768
 1409TIP3    H225863   6.502   0.833   5.019 -1.1221 -0.0072 -1.4328
 1410TIP3   OH225864   6.198   1.408   3.546 -0.8933 -0.1056  0.0373
 1410TIP3    H125865   6.228   1.490   3.584 -0.7409 -0.0644 -0.1691
 1410TIP3    H225866   6.139   1.434   3.475 -1.0822 -0.1797  0.1668
 1411TIP3   OH225867   3.262   3.024   1.766  0.1630  0.0001 -0.3366
 1411TIP3    H125868   3.184   3.049   1.814 -1.2776  0.3035 -2.6573
 1411TIP3    H225869   3.315   3.104   1.762  1.0336 -0.3930  1.8675
 1412TIP3   OH225870   2.474   2.165   4.558 -0.5921 -0.1725 -0.4574
 1412TIP3    H125871   2.395   2.202   4.596 -0.0022  0.4928  0.1536
 1412TIP3    H225872   2.443   2.109   4.487 -1.6795 -0.8663  0.5299
 1413TIP3   OH225873   3.265   6.687   3.374 -0.3524  0.1768  0.5055
 1413TIP3    H125874   3.270   6.782   3.361  1.9934  0.1703  0.9835
 1413TIP3    H225875   3.307   6.672   3.458 -3.6872 -1.0376  2.1146
 1414TIP3   OH225876   6.385   5.346   1.577  0.4254  1.0274  0.3405
 1414TIP3    H125877   6.371   5.439   1.559 -0.1473  1.2954  1.9524
 1414TIP3    H225878   6.445   5.317   1.508  0.5230  2.5600 -0.2676
 1415TIP3   OH225879   3.290   5.544   4.562  0.0022  0.3064  0.2947
 1415TIP3    H125880   3.244   5.626   4.575  3.2263  2.0413  2.0719
 1415TIP3    H225881   3.361   5.566   4.501  1.6258 -0.7747  1.6993
 1416TIP3   OH225882   6.654   4.762   3.536  0.2648  0.1306  0.7815
 1416TIP3    H125883   6.721   4.725   3.593  0.7182  0.4141  0.4397
 1416TIP3    H225884   6.701   4.825   3.482 -0.0893 -0.3501 -0.1133
 1417TIP3   OH225885   5.783   5.080   3.180  0.5770  0.2523 -0.4040
 1417TIP3    H125886   5.856   5.096   3.120  0.4370  0.2755 -0.5682
 1417TIP3    H225887   5.820   5.096   3.267  1.1551 -1.0818 -0.3714
 1418TIP3   OH225888   4.012   0.413   2.623 -0.6306  0.4480 -0.1515
 1418TIP3    H125889   3.973   0.327   2.640 -1.4280  1.0529  1.2261
 1418TIP3    H225890   4.102   0.405   2.653 -0.6654  0.0528 -0.1494
 1419TIP3   OH225891   1.192   3.414   5.608  0.0525 -0.9422 -0.1925
 1419TIP3    H125892   1.260   3.366   5.561  1.7476  1.4651 -0.3828
 1419TIP3    H225893   1.140   3.455   5.539 -0.1882 -0.9232 -0.0034
 1420TIP3   OH225894   4.827   0.396   2.588 -0.2616  0.1200 -0.4148
 1420TIP3    H125895   4.809   0.440   2.671 -0.0091  1.1661 -0.9029
 1420TIP3    H225896   4.877   0.318   2.613 -0.3840  0.3046  0.4315
 1421TIP3   OH225897   2.203   0.189   5.403  0.2641 -0.4906 -0.2945
 1421TIP3    H125898   2.164   0.133   5.470 -0.3151 -1.0315 -1.0584
 1421TIP3    H225899   2.221   0.130   5.330  1.9032 -0.1169 -0.2291
 1422TIP3   OH225900   3.866   1.882   3.661  0.0229 -0.5911  0.4627
 1422TIP3    H125901   3.789   1.934   3.637  0.7063  1.3341  2.1363
 1422TIP3    H225902   3.830   1.801   3.697 -1.1210 -0.7879 -1.0241
 1423TIP3   OH225903   1.199   3.406   4.554 -0.0225  0.1611  0.3010
 1423TIP3    H125904   1.216   3.329   4.608  0.0817  0.1544  0.2594
 1423TIP3    H225905   1.263   3.401   4.483  0.9523  1.0375  1.0852
 1424TIP3   OH225906   1.800   4.365   2.847  0.0378  0.5417 -0.2638
 1424TIP3    H125907   1.764   4.451   2.867 -1.2011  0.3905 -1.6914
 1424TIP3    H225908   1.878   4.358   2.903  0.2680  2.6402 -0.2565
 1425TIP3   OH225909   4.641   5.267   4.235  0.0614  0.0184 -0.0697
 1425TIP3    H125910   4.577   5.313   4.290  0.7939  0.0363  0.7849
 1425TIP3    H225911   4.710   5.331   4.220  0.2747 -0.2663 -0.3067
 1426TIP3   OH225912   5.566   5.605   1.448  0.3799 -0.4414 -0.3176
 1426TIP3    H125913   5.573   5.510   1.455 -1.1621 -0.5716 -0.1863
 1426TIP3    H225914   5.601   5.626   1.362  1.0110 -1.0841 -0.2247
 1427TIP3   OH225915   5.758   1.597   1.380 -0.3176 -0.2693 -0.5203
 1427TIP3    H125916   5.663   1.610   1.383 -0.0350  1.9116  1.0567
 1427TIP3    H225917   5.791   1.668   1.325  0.4861 -0.3225 -0.1273
 1428TIP3   OH225918   4.405   2.702   1.726 -0.4054 -0.2427 -0.2605
 1428TIP3    H125919   4.394   2.616   1.768 -1.8392 -0.2996 -0.7099
 1428TIP3    H225920   4.424   2.761   1.799  1.4225 -1.0408 -0.0266
 1429TIP3   OH225921   6.512   0.970   1.947 -0.1937 -0.1879 -0.5814
 1429TIP3    H125922   6.451   1.039   1.922 -1.8583 -1.2891  0.1825
 1429TIP3    H225923   6.559   0.948   1.867 -1.9792 -0.3843 -1.6445
 1430TIP3   OH225924   1.289   3.057   4.222  0.1345 -0.3330  0.0642
 1430TIP3    H125925   1.197   3.031   4.219  0.7945 -3.0083 -2.3635
 1430TIP3    H225926   1.326   3.006   4.294  0.0624 -0.8314 -0.2411
 1431TIP3   OH225927   0.367   1.959   0.800  0.1176 -0.8124  0.5171
 1431TIP3    H125928   0.442   1.961   0.741  0.8999 -3.0153  1.3510
 1431TIP3    H225929   0.397   2.004   0.879 -0.9361  2.1543 -0.6321
 1432TIP3   OH225930   0.537   5.598   3.746  0.1724  0.2240  0.4742
 1432TIP3    H125931   0.468   5.565   3.689  0.9489 -0.3646 -0.1550
 1432TIP3    H225932   0.611   5.539   3.730  0.8929  0.9765  0.9612
 1433TIP3   OH225933   1.936   6.470   2.633  0.6305  0.1376  0.1207
 1433TIP3    H125934   2.012   6.445   2.580 -0.4926 -0.0274 -1.4962
 1433TIP3    H225935   1.872   6.401   2.616 -0.1572  0.6790  0.8291
 1434TIP3   OH225936   3.556   2.272   1.283 -0.4997 -0.2051 -0.1395
 1434TIP3    H125937   3.486   2.335   1.300 -1.4867 -1.2198 -0.3850
 1434TIP3    H225938   3.521   2.213   1.217 -0.2928 -2.0763  1.3196
 1435TIP3   OH225939   3.977   5.395   1.981  0.3151 -0.4613  0.6384
 1435TIP3    H125940   3.992   5.410   2.075  0.8906  1.9614  0.2206
 1435TIP3    H225941   4.065   5.382   1.945  0.2050 -0.2125  0.2746
 1436TIP3   OH225942   5.394   2.555   3.021 -0.2790 -0.3396  0.4210
 1436TIP3    H125943   5.342   2.567   3.101 -0.6254 -1.1349  0.3227
 1436TIP3    H225944   5.333   2.570   2.950  0.4189  2.1245  0.2457
 1437TIP3   OH225945   5.966   4.770   2.364 -0.3191  0.4920 -0.3146
 1437TIP3    H125946   5.897   4.832   2.390 -0.0945  0.8942 -0.6589
 1437TIP3    H225947   6.003   4.808   2.284  1.4402  1.1642  0.7619
 1438TIP3   OH225948   5.486   4.848   2.095  0.5434  0.6115 -0.4693
 1438TIP3    H125949   5.444   4.772   2.053 -1.7681  1.3884  0.2445
 1438TIP3    H225950   5.437   4.860   2.176  2.1610  1.7019  0.3939
 1439TIP3   OH225951   3.429   5.307   4.296  0.0743  0.2033 -0.2746
 1439TIP3    H125952   3.425   5.402   4.281  1.6996  0.0978 -1.6678
 1439TIP3    H225953   3.432   5.269   4.208 -1.5265 -1.2410  0.2323
 1440TIP3   OH225954   6.437   4.915   0.818  0.0716 -0.4612 -0.2058
 1440TIP3    H125955   6.421   5.006   0.843 -0.3977 -0.5784 -0.0731
 1440TIP3    H225956   6.441   4.867   0.900 -0.8549 -0.7464 -0.3135
 1441TIP3   OH225957   3.485   0.603   2.708  0.3242  0.4830  0.2298
 1441TIP3    H125958   3.580   0.594   2.699  0.3166 -2.7929  1.7990
 1441TIP3    H225959   3.473   0.654   2.788  1.0070 -2.6130  2.5228
 1442TIP3   OH225960   0.588   6.248   4.165 -0.0331  0.1920 -0.5247
 1442TIP3    H125961   0.580   6.309   4.239 -1.8418 -1.4655  0.7792
 1442TIP3    H225962   0.664   6.194   4.187 -0.0160  0.2913 -0.3330
 1443TIP3   OH225963   6.315   4.995   2.645  0.2473 -0.5564  0.1348
 1443TIP3    H125964   6.266   4.938   2.586  0.2601 -0.0359 -0.3841
 1443TIP3    H225965   6.309   4.952   2.730 -1.3524 -0.3422  0.1508
 1444TIP3   OH225966   0.125   1.342   2.423 -0.1009  0.5518 -0.3378
 1444TIP3    H125967   0.115   1.397   2.501  1.0016 -0.3945  0.5088
 1444TIP3    H225968   0.098   1.255   2.451 -0.4814  0.3562 -1.2665
 1445TIP3   OH225969   6.602   2.150   2.004  0.0391  0.7508  0.0167
 1445TIP3    H125970   6.628   2.241   1.997 -2.0620  1.4187  0.3570
 1445TIP3    H225971   6.568   2.141   2.093 -1.9269  0.2660 -0.7265
 1446TIP3   OH225972   1.896   4.983   4.462 -0.4466 -0.3142  0.1965
 1446TIP3    H125973   1.919   5.066   4.503 -0.5488 -0.4804  0.5889
 1446TIP3    H225974   1.838   5.008   4.390  0.4020  0.0498 -0.3799
 1447TIP3   OH225975   1.811   1.577   3.259  0.2812 -0.4656  0.0458
 1447TIP3    H125976   1.836   1.495   3.216  0.3516 -0.5019  0.1560
 1447TIP3    H225977   1.748   1.552   3.326  2.7781 -0.8928  2.3823
 1448TIP3   OH225978   5.277   1.008   4.562 -0.2036  0.2149 -0.1401
 1448TIP3    H125979   5.369   1.006   4.535 -0.5030  0.6683 -1.2395
 1448TIP3    H225980   5.233   0.952   4.498 -0.5837 -0.6080  0.8361
 1449TIP3   OH225981   2.296   4.768   2.179 -0.3635  0.7471  0.5780
 1449TIP3    H125982   2.314   4.736   2.268 -0.8742  0.7896  0.6999
 1449TIP3    H225983   2.369   4.826   2.160  0.6542 -0.5668  0.3047
 1450TIP3   OH225984   5.549   2.570   5.354 -0.1456 -0.2460  0.1340
 1450TIP3    H125985   5.470   2.610   5.317  1.0482  0.6072 -1.5995
 1450TIP3    H225986   5.613   2.641   5.356  1.3385 -1.5071 -0.8839
 1451TIP3   OH225987   3.806   1.762   0.057  0.3243 -0.1403  0.0142
 1451TIP3    H125988   3.796   1.747  -0.037  1.3259  1.2736 -0.3534
 1451TIP3    H225989   3.740   1.706   0.098 -0.5976 -0.2496 -1.5654
 1452TIP3   OH225990   0.550   3.610   3.592 -0.2927 -0.7318 -0.2904
 1452TIP3    H125991   0.492   3.669   3.543 -0.7161 -0.9147 -0.0192
 1452TIP3    H225992   0.495   3.578   3.664  0.1301 -0.9599 -0.0690
 1453TIP3   OH225993   5.680   4.168   2.922  0.0823  0.1229 -0.2788
 1453TIP3    H125994   5.694   4.250   2.875 -0.5073  1.0737  1.1233
 1453TIP3    H225995   5.766   4.126   2.923  0.1721  0.2160 -1.8853
 1454TIP3   OH225996   6.318   2.785   0.509 -0.0838 -0.7107  0.2858
 1454TIP3    H125997   6.277   2.869   0.489 -1.0956 -1.2434  0.0609
 1454TIP3    H225998   6.410   2.797   0.486  0.7040  1.5838  3.8515
 1455TIP3   OH225999   5.554   0.216   3.082 -0.5645 -0.0531  0.2754
 1455TIP3    H126000   5.512   0.131   3.065 -1.1536  0.2462  0.2195
 1455TIP3    H226001   5.501   0.279   3.033 -0.9862  0.5341  1.4677
 1456TIP3   OH226002   0.318   3.552   1.774  0.4029  0.1545  0.0384
 1456TIP3    H126003   0.381   3.564   1.845 -0.1769  0.4060  0.5164
 1456TIP3    H226004   0.276   3.638   1.764  2.5845  1.0599 -2.6750
 1457TIP3   OH226005   0.596   4.047   4.150 -0.3659 -0.4140  0.1390
 1457TIP3    H126006   0.668   3.988   4.129 -1.5366 -2.1513  0.7862
 1457TIP3    H226007   0.624   4.132   4.116  1.1679 -1.4284 -1.3002
 1458TIP3   OH226008   4.180   3.678   2.309 -0.5817 -0.4578 -0.0926
 1458TIP3    H126009   4.232   3.757   2.324 -0.8259 -0.2778 -0.1876
 1458TIP3    H226010   4.238   3.619   2.261  0.1109 -0.9223  1.2699
 1459TIP3   OH226011   6.661   5.418   2.698 -0.1391  0.0520  0.2143
 1459TIP3    H126012   6.739   5.375   2.732  1.5842  1.6528 -1.4398
 1459TIP3    H226013   6.637   5.481   2.766  1.8263  1.5663 -0.3969
 1460TIP3   OH226014   4.075   4.908   5.127  0.3238  0.4018  0.3442
 1460TIP3    H126015   4.126   4.830   5.150  0.3837  0.4857  0.4949
 1460TIP3    H226016   4.096   4.972   5.195 -1.4353 -0.2006  1.5206
 1461TIP3   OH226017   3.889   2.860   4.527  0.1536  0.0485  0.1376
 1461TIP3    H126018   3.872   2.830   4.616  0.5413  1.4717  0.7306
 1461TIP3    H226019   3.808   2.904   4.501 -0.1699 -0.8739 -0.4551
 1462TIP3   OH226020   0.406   4.076   4.798  0.0920  0.0725  0.3272
 1462TIP3    H126021   0.375   4.095   4.709  4.1142  0.9266 -1.1193
 1462TIP3    H226022   0.412   4.162   4.840  0.5211 -0.0652  0.5478
 1463TIP3   OH226023   3.014   3.516   2.135 -0.7357  0.3514  0.3920
 1463TIP3    H126024   3.075   3.478   2.072 -1.0170  1.4825 -0.5849
 1463TIP3    H226025   3.028   3.465   2.215  0.2815 -0.5044 -0.3029
 1464TIP3   OH226026   3.314   4.628   3.329 -0.1521 -0.3859  0.2973
 1464TIP3    H126027   3.409   4.627   3.319 -0.2377 -1.1848 -0.6331
 1464TIP3    H226028   3.296   4.562   3.395 -0.0207  0.2361  0.9601
 1465TIP3   OH226029   4.851   1.601   5.618  0.3069 -0.7919 -0.4012
 1465TIP3    H126030   4.842   1.508   5.640  1.0774 -0.6064  0.8226
 1465TIP3    H226031   4.944   1.612   5.599  0.0062 -0.5117 -1.8101
 1466TIP3   OH226032   5.998   2.430   3.447 -0.5903 -0.2476 -0.2241
 1466TIP3    H126033   5.912   2.465   3.420 -0.9251 -1.6775 -1.0966
 1466TIP3    H226034   6.039   2.402   3.366  0.1152 -0.9095  0.3467
 1467TIP3   OH226035   4.477   4.137   2.232  0.4463  0.3245  0.3564
 1467TIP3    H126036   4.553   4.120   2.176 -0.8188 -0.8985 -1.0938
 1467TIP3    H226037   4.402   4.131   2.172 -1.3645 -4.5388  2.6093
 1468TIP3   OH226038   3.384   4.688   0.805  0.2353 -0.5359  0.2095
 1468TIP3    H126039   3.434   4.766   0.830 -0.0102  0.0446 -1.0491
 1468TIP3    H226040   3.447   4.633   0.758  0.8069 -1.8133  2.3421
 1469TIP3   OH226041   2.660   0.617   1.609  0.1375 -0.0378 -0.8783
 1469TIP3    H126042   2.649   0.523   1.592  0.0079 -0.9239  3.0762
 1469TIP3    H226043   2.749   0.636   1.580 -0.4005 -0.8843 -3.3183
 1470TIP3   OH226044   3.101   2.935   3.291 -0.2721 -0.4076 -0.1725
 1470TIP3    H126045   3.031   2.963   3.349 -0.5949  0.6046 -1.0292
 1470TIP3    H226046   3.165   3.006   3.292  0.0748 -0.7017 -0.4849
 1471TIP3   OH226047   1.972   3.281   4.477 -0.4549  0.2475 -0.9111
 1471TIP3    H126048   2.010   3.193   4.486  0.5896  0.7177 -0.5381
 1471TIP3    H226049   1.880   3.265   4.455 -0.6252 -0.9454  0.5184
 1472TIP3   OH226050   1.272   4.310   2.105  0.4783  0.2081  0.4509
 1472TIP3    H126051   1.223   4.228   2.100  1.8824 -0.7673  1.6939
 1472TIP3    H226052   1.205   4.378   2.117 -0.6378 -0.8706  0.4870
 1473TIP3   OH226053   1.645   4.418   4.918 -0.1513  0.3970 -0.4122
 1473TIP3    H126054   1.611   4.480   4.982  0.8763  0.9941 -0.4279
 1473TIP3    H226055   1.710   4.468   4.868 -1.2120  0.0796 -2.2065
 1474TIP3   OH226056   3.461   5.080   1.906 -0.1206 -0.0193  0.0170
 1474TIP3    H126057   3.440   4.996   1.945  1.3362 -0.2269  0.4193
 1474TIP3    H226058   3.492   5.059   1.818  1.2928 -0.0387  0.4934
 1475TIP3   OH226059   5.045   3.840   1.876  0.5822 -0.1018  0.3661
 1475TIP3    H126060   4.999   3.825   1.958 -2.7342  1.3548 -1.0359
 1475TIP3    H226061   5.029   3.761   1.824 -0.0754  0.2252  0.0446
 1476TIP3   OH226062   4.327   3.834   2.546  0.7511 -0.2540 -0.4589
 1476TIP3    H126063   4.373   3.796   2.622  0.0976 -0.1010  0.0215
 1476TIP3    H226064   4.387   3.901   2.513  1.5099 -1.0526 -0.7431
 1477TIP3   OH226065   3.306   5.309   2.711 -0.1343 -0.1136  0.6451
 1477TIP3    H126066   3.265   5.238   2.662  0.9123 -1.1274  1.2153
 1477TIP3    H226067   3.340   5.268   2.790 -0.4882  1.2294  1.5246
 1478TIP3   OH226068   5.431   5.948   4.434  0.0180 -0.1029  0.2246
 1478TIP3    H126069   5.438   5.878   4.499 -1.8423 -1.5897 -1.0617
 1478TIP3    H226070   5.490   5.923   4.364 -2.1694 -1.6112 -1.1949
 1479TIP3   OH226071   4.990   6.292   3.067 -0.3112 -0.0197  0.0229
 1479TIP3    H126072   4.930   6.223   3.039  0.8207 -0.6189 -0.9685
 1479TIP3    H226073   5.061   6.247   3.111  0.9164  0.3932 -1.4562
 1480TIP3   OH226074   1.460   2.264   4.077 -0.5355  0.3185 -0.1469
 1480TIP3    H126075   1.421   2.347   4.049 -1.0961  0.4128  0.8533
 1480TIP3    H226076   1.386   2.203   4.081 -0.0368 -0.3908 -1.4168
 1481TIP3   OH226077   5.822   4.564   1.766  0.2663 -0.1111 -0.2777
 1481TIP3    H126078   5.898   4.547   1.711  0.1716 -0.9872 -0.1538
 1481TIP3    H226079   5.835   4.509   1.843 -1.2170 -1.5010 -0.9463
 1482TIP3   OH226080   1.380   2.299   3.067  0.1603 -0.4424  0.3043
 1482TIP3    H126081   1.336   2.215   3.079 -0.6594  0.0792  1.1113
 1482TIP3    H226082   1.363   2.347   3.149  0.5245  0.5379 -0.1792
 1483TIP3   OH226083   1.582   4.788   3.026 -0.1169  0.8394  0.7197
 1483TIP3    H126084   1.652   4.840   3.066  1.0752 -0.5064  0.4597
 1483TIP3    H226085   1.550   4.732   3.096  0.2125  0.2973  0.4495
 1484TIP3   OH226086   1.187   3.590   3.229  0.6764  0.3289  0.6902
 1484TIP3    H126087   1.150   3.666   3.275  0.9380  0.3839  0.8074
 1484TIP3    H226088   1.252   3.627   3.170 -1.6041  0.5985 -1.8499
 1485TIP3   OH226089   2.156   6.307   0.945  0.7487  0.3989  0.1728
 1485TIP3    H126090   2.113   6.222   0.959  1.2649  0.3224  1.5123
 1485TIP3    H226091   2.102   6.351   0.880 -0.8484 -0.0626  1.1215
 1486TIP3   OH226092   3.839   2.258   5.057  0.2688 -0.3159  0.4923
 1486TIP3    H126093   3.787   2.223   4.985 -1.5141  0.4855  1.3334
 1486TIP3    H226094   3.902   2.188   5.077 -0.6096 -1.4160 -0.4169
 1487TIP3   OH226095   1.441   0.771   3.751 -0.2066 -0.2555 -0.0295
 1487TIP3    H126096   1.432   0.783   3.845 -1.1908  0.6494 -0.2153
 1487TIP3    H226097   1.391   0.691   3.732 -1.4194  0.4566  0.0237
 1488TIP3   OH226098   1.022   5.018   2.010 -0.4942  0.2497  0.4029
 1488TIP3    H126099   1.040   5.049   1.921 -0.7413 -1.2216 -0.1875
 1488TIP3    H226100   1.089   4.952   2.026 -0.5945  0.3471  1.2318
 1489TIP3   OH226101   2.695   0.380   3.825 -0.0050 -0.1984 -0.3318
 1489TIP3    H126102   2.661   0.339   3.905  0.4289  0.9433  0.4675
 1489TIP3    H226103   2.678   0.316   3.756 -0.1531 -1.3332  0.7188
 1490TIP3   OH226104   2.659   5.411   1.536 -0.1563  0.0487  0.5378
 1490TIP3    H126105   2.659   5.506   1.551 -0.9073 -0.0513  1.2721
 1490TIP3    H226106   2.675   5.374   1.623  1.4092 -0.4936  0.0420
 1491TIP3   OH226107   2.876   1.152   2.980  0.0436  0.4907  0.1123
 1491TIP3    H126108   2.968   1.147   2.955  0.6568  2.1257  1.8052
 1491TIP3    H226109   2.830   1.174   2.899  1.6376  3.2072 -0.1839
 1492TIP3   OH226110   3.402   6.359   5.155 -0.2442 -0.6557  0.5593
 1492TIP3    H126111   3.359   6.288   5.107 -0.1194 -0.8656  0.7562
 1492TIP3    H226112   3.333   6.422   5.172  0.1855  0.7173 -2.2413
 1493TIP3   OH226113   2.917   5.313   2.799  0.0137 -0.1701  0.7327
 1493TIP3    H126114   2.926   5.402   2.767 -0.2125 -0.8603 -1.3986
 1493TIP3    H226115   2.827   5.306   2.829 -0.5679 -0.2097 -0.9450
 1494TIP3   OH226116   3.157   5.095   2.440 -0.2530 -0.3541  0.3269
 1494TIP3    H126117   3.136   5.152   2.366 -0.9002 -1.0308 -0.0144
 1494TIP3    H226118   3.253   5.096   2.444 -0.1612 -1.0937 -1.1397
 1495TIP3   OH226119   5.307   0.306   3.597  0.3546 -0.7835  0.6879
 1495TIP3    H126120   5.308   0.373   3.529 -1.0240 -1.9464 -0.5647
 1495TIP3    H226121   5.230   0.327   3.649  0.8330 -0.4821  1.2774
 1496TIP3   OH226122   1.224   3.059   2.618 -0.3740 -0.2051  0.2032
 1496TIP3    H126123   1.275   3.031   2.541 -0.6764  0.9232 -0.4260
 1496TIP3    H226124   1.283   3.043   2.692 -0.2770 -1.8119 -0.1799
 1497TIP3   OH226125   4.438   0.777   5.478 -0.5561  0.0816  0.1909
 1497TIP3    H126126   4.527   0.743   5.488 -0.5330  0.4476  1.3211
 1497TIP3    H226127   4.391   0.708   5.432 -0.1504 -0.8912  1.2107
 1498TIP3   OH226128   5.035   0.647   3.469 -0.5688  0.2594  0.7922
 1498TIP3    H126129   5.116   0.673   3.425 -0.8281 -0.5071 -0.1480
 1498TIP3    H226130   5.049   0.674   3.560  0.9449 -0.2804  0.7564
 1499TIP3   OH226131   2.392   4.678   1.821 -0.7183 -0.0818  0.1203
 1499TIP3    H126132   2.477   4.634   1.812 -0.7446 -0.4373  1.4773
 1499TIP3    H226133   2.414   4.766   1.852 -0.8258  0.0285 -0.1063
 1500TIP3   OH226134   6.761   6.533   3.840  0.2527 -0.0960 -0.5278
 1500TIP3    H126135   6.779   6.461   3.901  0.1987 -1.2655 -1.8472
 1500TIP3    H226136   6.822   6.602   3.865 -0.4001 -0.1582  1.4391
 1501TIP3   OH226137   5.961   4.152   3.331  0.0694  0.0951 -0.4875
 1501TIP3    H126138   5.979   4.209   3.406  0.7601 -2.3870  1.3501
 1501TIP3    H226139   5.873   4.177   3.303  0.3065  1.9813  0.2669
 1502TIP3   OH226140   6.410   6.481   2.264  0.1696  0.8250  0.2996
 1502TIP3    H126141   6.324   6.472   2.222 -0.1758 -1.2859  1.3050
 1502TIP3    H226142   6.421   6.575   2.277 -0.4408  1.4736 -2.9061
 1503TIP3   OH226143   0.756   3.271   0.513 -0.5970  0.3855  0.1038
 1503TIP3    H126144   0.832   3.326   0.499 -2.7980  3.7416  0.2584
 1503TIP3    H226145   0.791   3.190   0.550  2.8128  1.8476  0.4172
 1504TIP3   OH226146   0.957   3.488   4.506  0.0697 -0.3753  0.1023
 1504TIP3    H126147   0.939   3.467   4.415 -0.8622 -3.0759  0.8355
 1504TIP3    H226148   1.042   3.448   4.524  1.1127  1.6529  0.0212
 1505TIP3   OH226149   6.593   5.628   2.873  0.5735 -0.3120  0.3823
 1505TIP3    H126150   6.512   5.592   2.909  0.6338 -1.4007 -0.5209
 1505TIP3    H226151   6.632   5.677   2.946 -0.6916 -0.0853  0.9378
 1506TIP3   OH226152   5.493   3.768   4.855  0.3806 -0.1954  0.5477
 1506TIP3    H126153   5.523   3.691   4.807  2.4622  0.7953  0.1442
 1506TIP3    H226154   5.475   3.833   4.787 -2.4529 -0.5982  0.8080
 1507TIP3   OH226155   3.584   5.346   5.064  0.0541  0.3967 -0.8002
 1507TIP3    H126156   3.564   5.355   4.971  0.6910  1.5818 -0.8436
 1507TIP3    H226157   3.498   5.341   5.106 -0.2871 -2.6996 -1.6088
 1508TIP3   OH226158   3.428   4.841   2.048 -0.7074  0.1025  0.6647
 1508TIP3    H126159   3.479   4.761   2.059  1.5407  1.1737 -1.0706
 1508TIP3    H226160   3.416   4.874   2.138 -0.0109 -1.2001  1.2614
 1509TIP3   OH226161   4.161   3.346   5.673  0.1624 -0.4093  0.0190
 1509TIP3    H126162   4.250   3.325   5.701  0.6436 -0.3893 -1.3897
 1509TIP3    H226163   4.111   3.266   5.685  1.1014 -1.3418 -1.8972
 1510TIP3   OH226164   0.971   6.117   3.292 -0.4207  0.3165 -0.3271
 1510TIP3    H126165   1.017   6.085   3.214 -0.0995 -0.4438  0.1685
 1510TIP3    H226166   1.030   6.099   3.364 -0.3643  1.7713  0.0196
 1511TIP3   OH226167   6.729   3.705   5.731  0.1984  0.5908 -0.2811
 1511TIP3    H126168   6.775   3.655   5.664  0.2420 -0.4649  0.5242
 1511TIP3    H226169   6.776   3.687   5.812 -0.2602  1.3206  0.1623
 1512TIP3   OH226170   5.950   3.584   4.983  0.5779 -0.4412 -0.5010
 1512TIP3    H126171   5.923   3.494   4.963  1.3811 -0.5849 -1.0164
 1512TIP3    H226172   5.944   3.590   5.078 -2.2881 -0.1002 -0.6150
 1513TIP3   OH226173   4.442   3.321   1.143  0.2719 -0.3101  0.4763
 1513TIP3    H126174   4.365   3.351   1.192 -0.0727 -0.3660 -0.0278
 1513TIP3    H226175   4.441   3.373   1.062  0.2669 -0.9408  0.0699
 1514TIP3   OH226176   5.152   4.347   3.644 -0.4604  0.7569  0.0426
 1514TIP3    H126177   5.168   4.256   3.669 -1.1472  0.3824 -0.8151
 1514TIP3    H226178   5.057   4.357   3.648 -0.5677  0.8323 -1.7621
 1515TIP3   OH226179   4.353   6.344   4.354  0.1841 -0.1627 -0.2183
 1515TIP3    H126180   4.371   6.342   4.259 -0.1954  0.4222 -0.3015
 1515TIP3    H226181   4.431   6.384   4.392  0.3766 -0.4813 -0.2691
 1516TIP3   OH226182   0.279   6.237   3.333  0.9232 -0.3292  0.3241
 1516TIP3    H126183   0.262   6.323   3.296 -0.0630  0.1007  1.6730
 1516TIP3    H226184   0.260   6.247   3.427  1.2157 -1.9041  0.5896
 1517TIP3   OH226185   0.145   3.650   5.373 -0.0508 -0.2084 -0.0568
 1517TIP3    H126186   0.086   3.719   5.402 -0.3810 -0.6528  0.3365
 1517TIP3    H226187   0.174   3.678   5.286  0.5722  0.9068  0.4849
 1518TIP3   OH226188   1.045   1.973   0.490 -0.2440  0.1449 -0.2278
 1518TIP3    H126189   1.131   1.941   0.516 -1.6982 -1.9596  2.6622
 1518TIP3    H226190   1.027   2.043   0.552  0.0479  1.8900 -2.0209
 1519TIP3   OH226191   2.973   0.637   1.782 -0.5126  0.4175 -0.2711
 1519TIP3    H126192   2.880   0.658   1.791 -0.9027 -1.0241 -0.7101
 1519TIP3    H226193   2.989   0.636   1.688 -0.3691 -0.5901 -0.2479
 1520TIP3   OH226194   3.949   1.363   4.242  0.1185  0.0528 -0.4832
 1520TIP3    H126195   3.866   1.330   4.277  1.1351 -1.1482  0.9341
 1520TIP3    H226196   3.930   1.387   4.151 -1.5763 -0.9289 -0.4135
 1521TIP3   OH226197   6.055   5.708   3.112  0.2305 -0.3623 -0.2983
 1521TIP3    H126198   5.992   5.661   3.166 -0.3157 -1.5404 -1.8844
 1521TIP3    H226199   6.012   5.716   3.026  1.3702  0.7342 -0.8052
 1522TIP3   OH226200   2.387   0.387   2.241  0.0456 -0.2151 -0.1074
 1522TIP3    H126201   2.318   0.332   2.203 -0.2966 -0.0192  0.2246
 1522TIP3    H226202   2.376   0.378   2.335  0.4405 -0.1337 -0.0522
 1523TIP3   OH226203   2.939   6.180   4.333  0.4302  0.2254  0.3318
 1523TIP3    H126204   2.904   6.185   4.244  0.9124 -0.8626  0.0667
 1523TIP3    H226205   2.893   6.249   4.380 -2.4213 -1.3745  0.1176
 1524TIP3   OH226206   3.135   5.822   1.309  0.4293 -0.1557 -0.1610
 1524TIP3    H126207   3.119   5.889   1.243 -1.0751 -0.2283  0.0852
 1524TIP3    H226208   3.221   5.842   1.344  0.6134  0.7732 -1.1041
 1525TIP3   OH226209   4.912   1.025   4.875  0.2582  0.2425 -0.0620
 1525TIP3    H126210   4.887   0.933   4.874  0.5970  0.1521 -0.4808
 1525TIP3    H226211   4.829   1.072   4.870  0.0880 -0.0411  0.0594
 1526TIP3   OH226212   3.036   5.039   0.862 -0.6235  0.1774  0.5172
 1526TIP3    H126213   3.007   5.009   0.776 -0.1825 -0.5483  0.6132
 1526TIP3    H226214   3.129   5.060   0.851 -0.6977  0.6094  0.6847
 1527TIP3   OH226215   0.482   3.193   5.703  0.0513  0.1891 -0.0123
 1527TIP3    H126216   0.569   3.201   5.741 -0.4867  1.9018  0.9520
 1527TIP3    H226217   0.472   3.099   5.685  2.1534 -0.0066 -0.3596
 1528TIP3   OH226218   0.718   4.789   3.347  0.1033 -0.3094 -0.1442
 1528TIP3    H126219   0.679   4.702   3.338 -0.6850  0.1797 -1.8224
 1528TIP3    H226220   0.773   4.800   3.270  0.4291  0.5587  0.1942
 1529TIP3   OH226221   0.633   4.756   1.390 -0.5021  0.2163  0.1196
 1529TIP3    H126222   0.580   4.722   1.318 -0.2142  0.5141 -0.2361
 1529TIP3    H226223   0.683   4.827   1.351 -1.6819  1.6044  1.0322
 1530TIP3   OH226224   1.090   3.400   3.942 -0.7629  0.2619 -0.4367
 1530TIP3    H126225   1.142   3.478   3.958  2.2181 -1.5166 -0.7144
 1530TIP3    H226226   1.053   3.414   3.855  0.1833  1.1489 -0.7169
 1531TIP3   OH226227   2.289   3.895   0.352 -0.6048 -0.1392  0.6785
 1531TIP3    H126228   2.196   3.902   0.373 -0.8771  2.6415 -0.9967
 1531TIP3    H226229   2.325   3.981   0.375  1.7792 -1.3922  2.0328
 1532TIP3   OH226230   2.397   4.174   2.322 -0.3361 -0.5807  0.0265
 1532TIP3    H126231   2.322   4.188   2.379  0.5448 -1.2646  1.4009
 1532TIP3    H226232   2.456   4.247   2.343 -0.0449 -0.7909 -0.0614
 1533TIP3   OH226233   6.730   4.783   2.842  0.6587 -0.4637 -0.0150
 1533TIP3    H126234   6.710   4.859   2.897 -0.2726  0.0971 -1.0853
 1533TIP3    H226235   6.690   4.804   2.757  0.2242 -2.2286 -0.2792
 1534TIP3   OH226236   4.861   5.035   1.399  0.2755 -0.6211 -0.4892
 1534TIP3    H126237   4.807   5.094   1.347 -0.4444 -1.0115 -0.2062
 1534TIP3    H226238   4.831   4.948   1.376  0.2122 -0.8132  0.2774
 1535TIP3   OH226239   1.740   1.864   2.804 -0.6694 -0.0654 -0.3073
 1535TIP3    H126240   1.658   1.876   2.852  0.3035  0.7039  1.2849
 1535TIP3    H226241   1.802   1.833   2.870  0.1442 -1.4368 -1.6471
 1536TIP3   OH226242   6.284   4.338   0.356  0.2649 -0.6473  0.4239
 1536TIP3    H126243   6.334   4.257   0.365  3.8241  1.4865  2.6033
 1536TIP3    H226244   6.342   4.397   0.308 -1.8668  0.9068 -0.4138
 1537TIP3   OH226245   6.229   5.401   2.904 -0.6163 -0.1388  0.0759
 1537TIP3    H126246   6.254   5.449   2.982  0.2840  0.0497 -0.3191
 1537TIP3    H226247   6.137   5.377   2.919 -0.6913  0.5790  0.8321
 1538TIP3   OH226248   2.555   0.089   4.490 -0.0720  0.2238 -0.5667
 1538TIP3    H126249   2.563   0.040   4.408  1.3283 -1.6599  0.6249
 1538TIP3    H226250   2.466   0.071   4.520 -0.3246  0.2820 -1.2508
 1539TIP3   OH226251   0.632   0.337   3.947 -0.3328 -0.5247 -0.0944
 1539TIP3    H126252   0.588   0.353   3.864 -0.7182 -1.9053 -0.1672
 1539TIP3    H226253   0.596   0.254   3.979  0.4360 -0.4519  1.0333
 1540TIP3   OH226254   1.153   4.214   0.446 -0.1452  0.0406  0.3185
 1540TIP3    H126255   1.226   4.194   0.388 -0.5901 -1.3739  0.2206
 1540TIP3    H226256   1.081   4.160   0.413 -0.1562 -1.5626  2.7492
 1541TIP3   OH226257   3.029   3.341   0.876  0.1722 -0.4315 -0.0969
 1541TIP3    H126258   3.006   3.274   0.939 -1.2397 -0.1354 -0.2631
 1541TIP3    H226259   3.124   3.354   0.888  0.3739 -2.0434  0.2946
 1542TIP3   OH226260   2.757   2.066   3.008  0.0964 -0.3095  0.4927
 1542TIP3    H126261   2.717   2.071   2.922 -1.8342 -3.1946  1.0614
 1542TIP3    H226262   2.844   2.105   2.997 -0.9715  1.6011 -2.0789
 1543TIP3   OH226263   2.714   3.743   2.587  0.5112 -0.1166 -0.3786
 1543TIP3    H126264   2.792   3.751   2.533  0.1159  1.8123 -0.7394
 1543TIP3    H226265   2.642   3.772   2.530 -0.1462  0.2939  0.6199
 1544TIP3   OH226266   0.319   5.769   3.961 -0.1328 -0.2183  0.1185
 1544TIP3    H126267   0.258   5.826   3.913 -0.3088 -1.4119 -1.1193
 1544TIP3    H226268   0.330   5.693   3.905  1.5639 -0.5793  0.8933
 1545TIP3   OH226269   2.283   4.324   3.097  0.0439 -0.5173 -0.2417
 1545TIP3    H126270   2.199   4.364   3.117 -0.4944 -2.2297  1.1491
 1545TIP3    H226271   2.342   4.358   3.164 -0.9575 -3.6213  2.4557
 1546TIP3   OH226272   0.719   4.542   2.558 -0.1108 -1.5138  0.2561
 1546TIP3    H126273   0.689   4.595   2.484  1.3748 -0.6449  0.2269
 1546TIP3    H226274   0.639   4.511   2.600 -0.9966 -1.3689 -1.2435
 1547TIP3   OH226275   4.131   2.814   3.167 -0.4396  0.3328 -0.2059
 1547TIP3    H126276   4.221   2.821   3.135 -0.9618  1.6778 -1.4550
 1547TIP3    H226277   4.126   2.877   3.238 -0.3152  0.0286  0.0751
 1548TIP3   OH226278   1.345   4.357   1.839  0.1214 -0.3326  0.6070
 1548TIP3    H126279   1.322   4.318   1.924  2.9863 -2.3052  0.6435
 1548TIP3    H226280   1.392   4.437   1.861 -1.3119  0.5198  0.7163
 1549TIP3   OH226281   3.454   3.207   1.754 -0.3009  0.2187  0.2364
 1549TIP3    H126282   3.505   3.252   1.687 -0.4203  0.1837  0.1210
 1549TIP3    H226283   3.498   3.229   1.837 -1.2448  1.8081  0.3599
 1550TIP3   OH226284   5.331   3.922   0.707  0.5944 -0.4366  0.5436
 1550TIP3    H126285   5.240   3.892   0.697  0.8041 -0.6218 -1.0183
 1550TIP3    H226286   5.326   4.016   0.692  0.7121 -0.5108  0.0187
 1551TIP3   OH226287   5.715   2.269   3.122 -0.2038 -0.7364 -0.6890
 1551TIP3    H126288   5.781   2.330   3.154  0.4893 -3.3160  3.6677
 1551TIP3    H226289   5.764   2.196   3.086 -0.4598 -2.4711  2.1700
 1552TIP3   OH226290   0.965   6.578   0.849 -0.2522 -0.0423 -0.1273
 1552TIP3    H126291   1.015   6.640   0.796 -1.0417  0.9301  0.2316
 1552TIP3    H226292   1.027   6.544   0.913 -0.2025  1.7326  0.8247
 1553TIP3   OH226293   2.115   2.408   0.616  0.3091 -0.0230  0.3140
 1553TIP3    H126294   2.050   2.349   0.655 -1.4653  1.0233 -0.9319
 1553TIP3    H226295   2.199   2.378   0.652 -0.5974 -2.7271  0.4115
 1554TIP3   OH226296   0.063   3.136   2.308 -0.1678 -0.2744  0.9888
 1554TIP3    H126297   0.041   3.229   2.318  0.0295 -0.1622  0.3854
 1554TIP3    H226298  -0.020   3.095   2.283 -0.3833 -0.3586  1.8007
 1555TIP3   OH226299   4.557   2.137   4.473 -0.0577  0.5013 -0.5357
 1555TIP3    H126300   4.612   2.170   4.545  0.0992 -0.0145 -0.4097
 1555TIP3    H226301   4.483   2.096   4.517  0.3583 -0.3901 -0.6261
 1556TIP3   OH226302   1.731   4.376   5.221 -0.4176 -0.1196 -0.2767
 1556TIP3    H126303   1.738   4.382   5.316  0.5834 -0.0052 -0.3390
 1556TIP3    H226304   1.690   4.458   5.195  2.9717  1.7652 -0.2277
 1557TIP3   OH226305   0.242   2.692   0.572  0.0827 -0.5693 -0.2309
 1557TIP3    H126306   0.195   2.741   0.641  0.9305  0.5103 -0.3838
 1557TIP3    H226307   0.234   2.601   0.598 -0.3488 -0.2449  0.8540
 1558TIP3   OH226308   6.265   5.813   0.552 -0.5680 -0.7928 -0.5463
 1558TIP3    H126309   6.340   5.810   0.493 -2.0827 -0.3397 -2.6377
 1558TIP3    H226310   6.300   5.788   0.637  2.1170  0.3168 -1.2205
 1559TIP3   OH226311   6.448   0.965   0.803 -0.1519  0.3178  0.4318
 1559TIP3    H126312   6.393   0.892   0.775  0.7778 -0.6949  1.1633
 1559TIP3    H226313   6.389   1.041   0.803 -1.1176 -0.4047 -0.4182
 1560TIP3   OH226314   0.944   4.811   3.597 -0.2626 -0.3569  0.5159
 1560TIP3    H126315   0.983   4.803   3.510  0.4740 -1.1365  0.9021
 1560TIP3    H226316   0.849   4.813   3.581 -0.1105  0.2631 -0.3453
 1561TIP3   OH226317   0.857   2.774   3.156  0.3573  0.1066 -0.3237
 1561TIP3    H126318   0.873   2.680   3.164  1.3302  0.2267 -0.6787
 1561TIP3    H226319   0.824   2.785   3.066 -0.4214  0.0239 -0.0501
 1562TIP3   OH226320   6.433   1.446   1.457 -0.5585  0.3303 -0.3244
 1562TIP3    H126321   6.493   1.372   1.463 -1.3574 -0.3202 -0.2501
 1562TIP3    H226322   6.397   1.455   1.545 -2.8383 -1.2253 -1.0268
 1563TIP3   OH226323   1.733   3.195   0.527  0.0201  0.1018 -0.5423
 1563TIP3    H126324   1.828   3.183   0.529  0.1819 -0.6250 -4.3082
 1563TIP3    H226325   1.721   3.276   0.477 -1.3910  1.0526  1.2322
 1564TIP3   OH226326   0.210   4.898   2.843  0.5508 -0.9358 -0.2498
 1564TIP3    H126327   0.265   4.845   2.902 -0.7230 -1.0761  0.8750
 1564TIP3    H226328   0.132   4.844   2.829  0.5778 -0.6362 -1.5998
 1565TIP3   OH226329   3.446   0.359   5.339  0.0183  0.5931  0.3958
 1565TIP3    H126330   3.520   0.413   5.367  0.4182 -0.3578  1.2404
 1565TIP3    H226331   3.404   0.331   5.420  0.4817 -1.2461  0.0428
 1566TIP3   OH226332   5.679   2.148   4.756 -0.3395  0.2689 -0.5272
 1566TIP3    H126333   5.727   2.129   4.676  0.5526  2.5581 -0.6006
 1566TIP3    H226334   5.598   2.191   4.726 -0.8201 -0.4159 -0.2474
 1567TIP3   OH226335   4.053   2.229   4.245  0.6918 -0.3012 -0.1814
 1567TIP3    H126336   3.998   2.307   4.234 -0.1171 -0.5296  1.8106
 1567TIP3    H226337   4.136   2.262   4.279 -0.1042 -0.3425  1.9613
 1568TIP3   OH226338   3.891   5.863   2.412  0.2557  0.4681 -0.3952
 1568TIP3    H126339   3.815   5.885   2.358 -0.3074  0.7775  0.5044
 1568TIP3    H226340   3.871   5.776   2.447 -0.7744  1.4566  1.6537
 1569TIP3   OH226341   3.914   1.826   0.300 -0.4448 -1.0931  0.1910
 1569TIP3    H126342   3.999   1.785   0.284  0.5981  1.1917 -0.4670
 1569TIP3    H226343   3.867   1.819   0.217 -0.8993 -2.2450  0.5198
 1570TIP3   OH226344   0.808   1.296   3.800  0.3695  0.2413 -0.7093
 1570TIP3    H126345   0.838   1.230   3.863 -0.0895  0.2857 -0.4421
 1570TIP3    H226346   0.804   1.377   3.850 -2.6519 -0.2044  0.0135
 1571TIP3   OH226347   5.088   4.876   1.258  0.1282  0.0783 -0.1274
 1571TIP3    H126348   5.135   4.829   1.189 -0.4467 -1.3506  0.4362
 1571TIP3    H226349   4.999   4.886   1.224  0.1458  0.4185 -0.0754
 1572TIP3   OH226350   5.766   5.463   3.838  0.0841 -0.3431 -0.3522
 1572TIP3    H126351   5.677   5.445   3.809 -0.1316  1.0985 -0.6766
 1572TIP3    H226352   5.770   5.558   3.847  1.1074 -0.4942  1.2701
 1573TIP3   OH226353   0.198   2.869   1.947 -0.2707  0.1466 -0.9028
 1573TIP3    H126354   0.113   2.845   1.986 -0.4460 -0.8776 -1.8742
 1573TIP3    H226355   0.263   2.831   2.006 -0.4643  0.8348 -0.2157
 1574TIP3   OH226356   6.141   4.653   0.329 -0.2237  0.1945 -0.2715
 1574TIP3    H126357   6.112   4.742   0.348  0.1189  0.5489 -1.3121
 1574TIP3    H226358   6.066   4.612   0.287 -0.8948 -0.5054  1.5426
 1575TIP3   OH226359   6.068   1.403   4.607  0.2294 -0.1073 -0.6726
 1575TIP3    H126360   6.158   1.385   4.634  0.3252 -1.7697 -1.9578
 1575TIP3    H226361   6.031   1.317   4.586 -1.5227  0.5889 -0.6187
 1576TIP3   OH226362   5.887   4.607   2.590 -0.7222 -0.2545  0.6681
 1576TIP3    H126363   5.924   4.637   2.506 -0.6449 -1.1394  0.3813
 1576TIP3    H226364   5.827   4.677   2.615 -0.2822  0.3154  0.1880
 1577TIP3   OH226365   0.864   0.772   1.423 -0.2702 -0.2584  0.6568
 1577TIP3    H126366   0.857   0.678   1.440  0.0371 -0.4956 -0.4180
 1577TIP3    H226367   0.931   0.803   1.483 -1.0425 -0.5390  1.6826
 1578TIP3   OH226368   3.882   1.209   3.802  0.0205 -0.2106 -0.6024
 1578TIP3    H126369   3.841   1.161   3.875  0.3092 -0.6462 -0.7262
 1578TIP3    H226370   3.943   1.146   3.763 -1.7209 -0.7592 -2.6171
 1579TIP3   OH226371   4.455   4.309   5.322 -1.0296 -0.4922  0.1715
 1579TIP3    H126372   4.546   4.332   5.302 -0.8748 -0.7587  0.5760
 1579TIP3    H226373   4.414   4.393   5.343 -0.4517 -0.5716  1.6840
 1580TIP3   OH226374   3.406   5.274   4.021  0.4986 -0.0411  0.0234
 1580TIP3    H126375   3.462   5.349   4.045 -0.4237  1.0941 -1.1671
 1580TIP3    H226376   3.420   5.265   3.927  0.1451 -1.0035  0.0627
 1581TIP3   OH226377   0.392   4.494   0.297  0.4555  0.8192 -0.0237
 1581TIP3    H126378   0.340   4.466   0.373  1.2003  2.4210  1.1473
 1581TIP3    H226379   0.477   4.453   0.311 -0.7751 -3.2974 -2.8699
 1582TIP3   OH226380   4.733   6.383   1.066  0.2549 -1.2090  0.2665
 1582TIP3    H126381   4.762   6.472   1.046 -1.9168 -0.9009 -2.1400
 1582TIP3    H226382   4.721   6.382   1.161 -3.8960  2.6453  0.1378
 1583TIP3   OH226383   4.908   1.905   4.205 -0.2234  0.0068 -0.3196
 1583TIP3    H126384   4.836   1.852   4.169 -0.3465 -0.4047  0.5042
 1583TIP3    H226385   4.864   1.980   4.245 -0.1624 -0.0269 -0.1894
 1584TIP3   OH226386   2.715   1.282   0.677  0.2240 -0.1872 -0.4086
 1584TIP3    H126387   2.620   1.278   0.666 -0.0094  2.1710  0.2303
 1584TIP3    H226388   2.747   1.331   0.601  0.8105 -0.1758 -0.1619
 1585TIP3   OH226389   3.113   0.239   4.194  0.3975 -0.1314  0.3538
 1585TIP3    H126390   3.074   0.324   4.172  0.3384 -0.7521 -2.1590
 1585TIP3    H226391   3.073   0.216   4.278 -1.9405  0.9078 -0.4079
 1586TIP3   OH226392   4.218   6.489   1.961  0.3731  0.4526  0.2207
 1586TIP3    H126393   4.143   6.544   1.938 -0.7902 -0.9627  0.4530
 1586TIP3    H226394   4.218   6.486   2.056 -0.8685 -1.5641  0.2079
 1587TIP3   OH226395   1.988   1.317   4.425 -0.2660 -0.2755 -0.2279
 1587TIP3    H126396   1.934   1.261   4.481  0.9122 -2.3228 -1.0296
 1587TIP3    H226397   1.935   1.396   4.413 -2.7758 -1.8454 -0.3769
 1588TIP3   OH226398   4.601   3.883   3.471 -0.2248 -0.6167  0.5478
 1588TIP3    H126399   4.604   3.795   3.509 -1.9239 -0.8746  0.1603
 1588TIP3    H226400   4.508   3.899   3.456  0.2396  0.2231 -1.7696
 1589TIP3   OH226401   2.661   6.112   3.638 -0.1459  0.2058  0.0482
 1589TIP3    H126402   2.668   6.198   3.679 -3.9665  0.4831  0.4132
 1589TIP3    H226403   2.657   6.050   3.710  0.5209 -0.0951 -0.1623
 1590TIP3   OH226404   6.127   5.129   4.798 -0.0117  0.1702  0.7388
 1590TIP3    H126405   6.135   5.038   4.827 -2.0495 -0.8870 -1.6224
 1590TIP3    H226406   6.033   5.146   4.798 -0.0311  0.8188 -2.6821
 1591TIP3   OH226407   2.394   4.920   1.961 -0.1028  0.1091  0.5159
 1591TIP3    H126408   2.462   4.986   1.949  0.4898 -0.5831 -0.1064
 1591TIP3    H226409   2.320   4.950   1.908  0.9420 -0.7655 -1.5842
 1592TIP3   OH226410   1.353   2.474   1.714  0.6129  0.1480  0.1611
 1592TIP3    H126411   1.437   2.499   1.676 -0.3713  0.1597 -2.1619
 1592TIP3    H226412   1.300   2.449   1.639 -1.4836  0.1924  1.5633
 1593TIP3   OH226413   5.638   0.609   2.368 -0.0354  0.6499  0.0341
 1593TIP3    H126414   5.690   0.653   2.301  0.2997 -1.7495 -1.3827
 1593TIP3    H226415   5.696   0.540   2.401 -1.3018 -0.1976  0.5435
 1594TIP3   OH226416   3.384   2.509   3.407 -0.1150 -0.3863 -0.1734
 1594TIP3    H126417   3.412   2.508   3.315  1.2117 -0.4031  0.2126
 1594TIP3    H226418   3.309   2.569   3.409 -0.0610 -0.2710 -1.2341
 1595TIP3   OH226419   5.725   3.991   0.891 -0.0486  0.1791 -0.0180
 1595TIP3    H126420   5.801   3.979   0.948  0.6097  0.6026 -0.7968
 1595TIP3    H226421   5.760   3.987   0.802 -1.2755 -2.1238 -0.4836
 1596TIP3   OH226422   0.992   4.395   0.636 -0.0426  0.0325  0.2204
 1596TIP3    H126423   0.968   4.487   0.651  0.0648  0.0047  0.5529
 1596TIP3    H226424   0.912   4.346   0.655  0.0736  0.0034  0.6280
 1597TIP3   OH226425   1.636   4.358   3.925 -0.0107  0.0642  0.2182
 1597TIP3    H126426   1.660   4.266   3.934  1.8866  0.5846  1.1304
 1597TIP3    H226427   1.716   4.401   3.894 -1.0572  1.3195 -0.9054
 1598TIP3   OH226428   1.428   2.093   2.664  0.0603 -0.4489  0.0094
 1598TIP3    H126429   1.512   2.129   2.694  0.0236  0.0188 -0.4186
 1598TIP3    H226430   1.417   2.131   2.577 -0.8187 -0.1537  0.2468
 1599TIP3   OH226431   4.010   1.839   1.787  0.3704  0.3375  0.0900
 1599TIP3    H126432   3.996   1.753   1.827  0.6346  0.0169 -0.4973
 1599TIP3    H226433   3.932   1.852   1.734  0.2515  0.5397  0.3144
 1600TIP3   OH226434   5.843   4.890   3.952  0.3311  0.3620 -0.2806
 1600TIP3    H126435   5.890   4.965   3.915  0.3417  0.5452  0.1013
 1600TIP3    H226436   5.885   4.874   4.036  0.0604  0.1854 -0.1772
 1601TIP3   OH226437   3.742   1.773   2.148  0.0421  0.5564 -0.4100
 1601TIP3    H126438   3.783   1.858   2.161 -3.8213  2.4007  1.2254
 1601TIP3    H226439   3.665   1.791   2.095 -1.3815 -1.7162  0.7317
 1602TIP3   OH226440   4.323   3.128   2.944 -0.1230 -0.0703 -0.7367
 1602TIP3    H126441   4.284   3.096   2.863 -0.5381  0.7820 -0.8848
 1602TIP3    H226442   4.252   3.175   2.988  0.3344  0.2122 -0.2919
 1603TIP3   OH226443   5.249   0.447   4.132  0.2629 -0.4775  0.2223
 1603TIP3    H126444   5.268   0.541   4.136 -1.0250 -0.2302  1.3219
 1603TIP3    H226445   5.278   0.420   4.045 -1.8331  1.5179 -1.2119
 1604TIP3   OH226446   5.307   2.122   2.111 -0.5557  0.5157  0.0285
 1604TIP3    H126447   5.226   2.072   2.106  1.1546 -2.4197 -1.3710
 1604TIP3    H226448   5.361   2.087   2.039  1.4310  3.3472 -0.0320
 1605TIP3   OH226449   1.731   0.588   2.578 -0.3098  0.1084 -0.0607
 1605TIP3    H126450   1.656   0.646   2.566 -0.0436  0.2376 -1.1345
 1605TIP3    H226451   1.779   0.625   2.652 -1.0938  0.2377  0.3946
 1606TIP3   OH226452   2.691   3.124   3.008  0.0551 -0.4625 -0.6973
 1606TIP3    H126453   2.657   3.069   2.937  1.5571 -3.3814  0.6696
 1606TIP3    H226454   2.664   3.079   3.088  0.5197  1.3842  0.5549
 1607TIP3   OH226455   3.876   4.054   2.083 -0.4579 -0.2159  0.2381
 1607TIP3    H126456   3.859   3.977   2.137  1.4508 -1.2074 -0.5018
 1607TIP3    H226457   3.965   4.080   2.104 -1.4532  2.6622  1.4306
 1608TIP3   OH226458   2.070   3.402   4.131 -0.0754 -0.1022  0.7717
 1608TIP3    H126459   2.086   3.452   4.211 -0.1794 -0.4254  0.9926
 1608TIP3    H226460   1.977   3.381   4.133 -0.0110 -0.4003  0.7322
 1609TIP3   OH226461   6.577   3.195   3.413  0.3573  0.1872  0.0622
 1609TIP3    H126462   6.482   3.182   3.420  0.2869 -1.0500 -2.2010
 1609TIP3    H226463   6.606   3.210   3.503 -1.5665 -2.4369  1.2658
 1610TIP3   OH226464   3.282   1.604   1.771  0.0084 -0.1107 -0.2783
 1610TIP3    H126465   3.261   1.637   1.858 -0.4401 -0.7783 -0.1182
 1610TIP3    H226466   3.374   1.625   1.758 -0.1366  0.7376  0.0133
 1611TIP3   OH226467   0.636   4.575   4.702 -0.2922  0.1228 -0.3319
 1611TIP3    H126468   0.724   4.608   4.722  0.1156  0.4831 -2.4228
 1611TIP3    H226469   0.583   4.654   4.690 -0.8039 -0.0910  0.4686
 1612TIP3   OH226470   4.352   0.858   1.047 -0.0930 -0.2686  0.3019
 1612TIP3    H126471   4.354   0.924   0.977 -1.9319  0.3520  0.7829
 1612TIP3    H226472   4.419   0.888   1.110  0.1261  0.3077 -0.1916
 1613TIP3   OH226473   5.532   5.257   3.414 -0.2690 -0.1072 -0.3855
 1613TIP3    H126474   5.531   5.192   3.484 -1.3662 -0.5026 -0.7421
 1613TIP3    H226475   5.516   5.206   3.334 -1.4958  0.6219 -0.6347
 1614TIP3   OH226476   3.016   0.411   5.410 -0.1077  0.2267 -0.6350
 1614TIP3    H126477   3.048   0.370   5.490 -2.7183 -0.1838  0.2869
 1614TIP3    H226478   2.973   0.340   5.362 -0.1531  0.8416 -1.5349
 1615TIP3   OH226479   6.343   6.401   3.252 -0.6861  0.6779 -0.0143
 1615TIP3    H126480   6.420   6.391   3.196  0.5707 -1.0309  1.8815
 1615TIP3    H226481   6.270   6.378   3.194  0.5802 -1.3695 -0.9333
 1616TIP3   OH226482   5.379   0.919   3.677  0.0109 -0.2634  0.4524
 1616TIP3    H126483   5.284   0.906   3.672  0.0913 -0.4302 -1.7098
 1616TIP3    H226484   5.391   0.975   3.753 -1.6848 -1.3027  1.5687
 1617TIP3   OH226485   1.992   1.177   2.550  0.1689  0.5813 -0.5002
 1617TIP3    H126486   1.972   1.234   2.477 -1.2616  1.2313  0.3554
 1617TIP3    H226487   2.038   1.103   2.511 -1.3349  0.4784 -2.1909
 1618TIP3   OH226488   3.808   6.662   2.057  0.3444  0.0208  0.1392
 1618TIP3    H126489   3.786   6.710   1.977 -1.2378 -1.9240 -0.6803
 1618TIP3    H226490   3.892   6.620   2.038 -0.6274 -1.4879 -1.0812
 1619TIP3   OH226491   4.819   6.268   4.377  0.4516 -0.4102 -0.4554
 1619TIP3    H126492   4.758   6.202   4.343  0.4031  0.1316 -1.4495
 1619TIP3    H226493   4.905   6.235   4.353  0.4821 -0.5717 -0.1267
 1620TIP3   OH226494   0.822   3.741   2.904 -0.4708 -0.3060  0.1812
 1620TIP3    H126495   0.783   3.703   2.825 -0.4576  0.1152 -0.0324
 1620TIP3    H226496   0.895   3.683   2.925 -1.7640 -1.6554  1.1385
 1621TIP3   OH226497   3.979   2.237   1.504  0.3698 -0.0421  0.2015
 1621TIP3    H126498   3.940   2.280   1.580  0.1333  0.9583 -0.4717
 1621TIP3    H226499   3.935   2.276   1.429  1.6458  0.0507 -0.5189
 1622TIP3   OH226500   5.886   3.876   2.617  0.2586 -0.2296 -0.1758
 1622TIP3    H126501   5.877   3.851   2.525 -0.3255  2.2426 -0.8685
 1622TIP3    H226502   5.796   3.881   2.649  0.4237 -0.2666  0.2936
 1623TIP3   OH226503   2.337   2.317   1.500 -1.0483 -0.6534  0.5411
 1623TIP3    H126504   2.309   2.405   1.475  0.1697 -0.4259 -0.0855
 1623TIP3    H226505   2.431   2.324   1.514 -0.8514 -1.9513  0.0254
 1624TIP3   OH226506   4.293   0.365   1.053  0.2528 -0.0205  0.1182
 1624TIP3    H126507   4.329   0.391   0.969  0.5021 -0.2539  0.1512
 1624TIP3    H226508   4.321   0.275   1.065  0.5936  0.1493  0.6545
 1625TIP3   OH226509   3.096   1.644   3.657  0.6527 -0.0786 -0.1863
 1625TIP3    H126510   3.110   1.643   3.751 -1.5413 -0.6310  0.1877
 1625TIP3    H226511   3.182   1.623   3.619  1.7784  1.0767  1.6242
 1626TIP3   OH226512   5.925   2.229   1.468 -0.4750  0.3527 -0.1624
 1626TIP3    H126513   5.956   2.178   1.542 -1.2907  2.2709  1.6003
 1626TIP3    H226514   5.834   2.202   1.456 -0.4304  0.2492 -0.2643
 1627TIP3   OH226515   5.977   3.144   3.690 -0.0530  0.0227 -0.5885
 1627TIP3    H126516   6.063   3.184   3.706 -0.4650  0.7289 -0.0709
 1627TIP3    H226517   5.968   3.078   3.759 -0.7474  1.3174  0.6101
 1628TIP3   OH226518   3.587   1.640   3.686  0.0673 -0.1647  0.0480
 1628TIP3    H126519   3.508   1.690   3.668 -0.5238 -1.0506  0.1136
 1628TIP3    H226520   3.593   1.578   3.614  0.2467 -0.6503  0.4770
 1629TIP3   OH226521   3.312   2.242   1.638 -0.3141 -0.1173 -0.1826
 1629TIP3    H126522   3.235   2.287   1.673 -0.9047 -1.7155  0.7051
 1629TIP3    H226523   3.366   2.224   1.715 -0.8747 -2.2746 -0.2048
 1630TIP3   OH226524   4.997   6.141   2.156  0.6291 -0.9483 -0.1081
 1630TIP3    H126525   5.078   6.191   2.157  0.9207 -1.3274  2.6782
 1630TIP3    H226526   5.002   6.085   2.233 -2.0448 -1.3549 -0.1264
 1631TIP3   OH226527   4.332   2.236   0.813  0.6973 -0.7351 -0.2350
 1631TIP3    H126528   4.375   2.181   0.748 -0.3769 -0.7358 -0.9716
 1631TIP3    H226529   4.370   2.209   0.897  3.9110  0.9491 -1.0145
 1632TIP3   OH226530   1.593   5.356   1.547 -0.3581 -0.4117 -0.1159
 1632TIP3    H126531   1.522   5.378   1.606  0.9306  2.0397  0.6313
 1632TIP3    H226532   1.664   5.326   1.604 -0.0346 -0.7317 -0.6697
 1633TIP3   OH226533   5.457   1.713   3.550 -0.4560 -0.3462  0.3433
 1633TIP3    H126534   5.364   1.721   3.570 -0.8942 -0.3578 -1.4711
 1633TIP3    H226535   5.468   1.621   3.525 -0.4229  0.0647 -1.3224
 1634TIP3   OH226536   0.113   3.568   3.674 -0.3879 -0.4588 -0.0748
 1634TIP3    H126537   0.027   3.604   3.652 -0.6528 -1.6455 -1.1675
 1634TIP3    H226538   0.165   3.582   3.595  0.4840  0.3642  0.6247
 1635TIP3   OH226539   4.616   2.046   2.987 -0.4132 -0.2473 -0.7124
 1635TIP3    H126540   4.637   2.124   2.937  0.9993 -0.2606 -0.1993
 1635TIP3    H226541   4.676   1.979   2.954  1.9176  0.2049  2.0802
 1636TIP3   OH226542   3.675   4.203   2.926 -0.2759  0.4284  0.2793
 1636TIP3    H126543   3.750   4.260   2.937 -0.1220  0.1376  0.7744
 1636TIP3    H226544   3.679   4.143   3.000 -0.5262 -0.1188 -0.1386
 1637TIP3   OH226545   2.725   0.401   2.414  0.0864 -0.4334  0.1049
 1637TIP3    H126546   2.699   0.383   2.505  1.6116  0.4447  0.7571
 1637TIP3    H226547   2.670   0.475   2.388  0.1411 -0.2180  0.5788
 1638TIP3   OH226548   4.698   4.118   4.221  0.3234  0.2050  0.0203
 1638TIP3    H126549   4.716   4.030   4.253 -0.9507  0.1236  0.5660
 1638TIP3    H226550   4.681   4.169   4.300 -1.9338  0.2276 -0.4218
 1639TIP3   OH226551   3.962   5.996   2.718 -0.2724  0.2487 -0.1050
 1639TIP3    H126552   4.051   5.965   2.703 -1.2092 -2.4036 -0.6778
 1639TIP3    H226553   3.947   6.061   2.649  0.4634 -0.9706 -1.4572
 1640TIP3   OH226554   4.828   3.716   2.399  0.7192  0.2053  0.0370
 1640TIP3    H126555   4.812   3.676   2.313 -3.3443  0.5611  0.4219
 1640TIP3    H226556   4.923   3.722   2.405  1.2456 -1.2402 -3.7591
 1641TIP3   OH226557   6.358   2.051   2.516 -0.3516  0.2961  0.4558
 1641TIP3    H126558   6.263   2.054   2.506 -0.3391  1.0512  0.5384
 1641TIP3    H226559   6.373   2.074   2.608 -0.2010 -2.0462  1.1059
 1642TIP3   OH226560   0.481   0.183   4.297 -0.7942  0.0623 -0.3389
 1642TIP3    H126561   0.526   0.149   4.220 -1.5042 -0.6672 -0.4498
 1642TIP3    H226562   0.544   0.243   4.338 -0.4569  0.5716 -1.5534
 1643TIP3   OH226563   3.325   1.613   3.511 -0.2028  0.0588  0.1789
 1643TIP3    H126564   3.388   1.542   3.498  0.3293  0.6856 -0.8313
 1643TIP3    H226565   3.271   1.611   3.432 -0.3743  0.5956  0.2825
 1644TIP3   OH226566   5.017   1.418   4.216 -0.5191  0.3779  0.0311
 1644TIP3    H126567   5.018   1.343   4.156  2.2305  0.7049 -0.4686
 1644TIP3    H226568   5.013   1.379   4.303  1.3137 -0.4479 -0.2008
 1645TIP3   OH226569   0.298   4.243   4.173 -0.3225 -0.0679 -0.2451
 1645TIP3    H126570   0.302   4.161   4.223 -1.0491 -2.6064 -3.8990
 1645TIP3    H226571   0.338   4.308   4.231 -1.2023 -2.5544  3.5831
 1646TIP3   OH226572   6.740   3.501   2.116  0.7052  0.6599  0.1592
 1646TIP3    H126573   6.736   3.476   2.208  2.1685  0.9539  0.3324
 1646TIP3    H226574   6.829   3.479   2.089  0.1470  0.1016 -1.3437
 1647TIP3   OH226575   3.563   4.186   0.987 -0.1965  0.2061 -0.3233
 1647TIP3    H126576   3.558   4.093   0.964  1.2934  0.2045 -0.7499
 1647TIP3    H226577   3.648   4.195   1.031 -1.1188  1.0367  1.4144
 1648TIP3   OH226578   1.646   4.429   0.758 -0.1362  0.3175  0.1734
 1648TIP3    H126579   1.664   4.401   0.847 -1.1197 -1.8109 -0.2376
 1648TIP3    H226580   1.689   4.363   0.703 -2.3267 -0.3648 -0.8519
 1649TIP3   OH226581   1.485   4.226   0.523  0.4773  0.4435  0.0741
 1649TIP3    H126582   1.421   4.161   0.552  2.0242 -0.2124  2.2131
 1649TIP3    H226583   1.568   4.197   0.559  1.5213  2.7752 -0.2467
 1650TIP3   OH226584   2.129   5.874   4.160 -0.0666  0.1944  0.0357
 1650TIP3    H126585   2.168   5.917   4.084  1.5403 -0.6055  0.3658
 1650TIP3    H226586   2.074   5.941   4.200  0.9325  1.3704 -0.5051
 1651TIP3   OH226587   3.752   3.009   2.021  0.2679  0.4884  0.0889
 1651TIP3    H126588   3.702   3.091   2.022  0.2118  0.4735 -0.7168
 1651TIP3    H226589   3.822   3.025   1.957 -0.2629 -0.3872 -0.7319
 1652TIP3   OH226590   4.756   3.770   4.688  0.2282 -0.0848  0.0268
 1652TIP3    H126591   4.830   3.818   4.651  1.3596 -0.9909  1.0327
 1652TIP3    H226592   4.765   3.681   4.654 -1.4115  0.1469 -1.1990
 1653TIP3   OH226593   6.129   0.584   2.020  0.0078  0.1145 -0.1779
 1653TIP3    H126594   6.108   0.535   1.940 -0.7249  2.7664 -1.7387
 1653TIP3    H226595   6.173   0.663   1.989  1.2170  0.4727  2.2072
 1654TIP3   OH226596   1.816   6.360   0.980  0.1626 -0.3129 -0.0098
 1654TIP3    H126597   1.851   6.315   0.903 -0.6015  0.3718 -0.7761
 1654TIP3    H226598   1.761   6.295   1.023 -0.5675 -0.2712 -0.8549
 1655TIP3   OH226599   3.892   3.254   1.927 -0.2607 -0.0082  0.0577
 1655TIP3    H126600   3.881   3.199   1.849 -2.6126 -0.8919  0.9386
 1655TIP3    H226601   3.807   3.295   1.940  0.0385  0.0326  2.2195
 1656TIP3   OH226602   3.563   1.266   2.170 -0.1871  0.5894  0.0024
 1656TIP3    H126603   3.656   1.288   2.171 -0.2346  0.8453 -0.6669
 1656TIP3    H226604   3.557   1.184   2.220  0.5508 -0.0062 -0.8502
 1657TIP3   OH226605   3.976   6.725   1.279  0.4178 -0.2998  0.7075
 1657TIP3    H126606   3.985   6.649   1.336  0.2186 -0.4810  0.4969
 1657TIP3    H226607   4.063   6.764   1.278  0.0892  0.5927  2.3666
 1658TIP3   OH226608   5.421   1.742   2.162  0.1091  0.5546 -0.6819
 1658TIP3    H126609   5.485   1.761   2.093  2.3166 -0.9679  0.8102
 1658TIP3    H226610   5.444   1.803   2.233  0.5096 -0.5981  0.1984
 1659TIP3   OH226611   6.317   0.716   3.865  0.1689 -0.2383  0.6999
 1659TIP3    H126612   6.270   0.650   3.814  1.6110 -2.2308  1.7954
 1659TIP3    H226613   6.353   0.668   3.939  2.7732  1.4434  0.6433
 1660TIP3   OH226614   3.019   3.597   2.730  0.8546  0.3984  0.5012
 1660TIP3    H126615   2.981   3.569   2.647  0.1938  1.3772  0.4574
 1660TIP3    H226616   3.072   3.674   2.708 -0.1262  1.2746  1.1180
 1661TIP3   OH226617   4.101   6.357   3.769  0.9422 -0.6003 -0.4655
 1661TIP3    H126618   4.172   6.293   3.765  0.5705 -1.0135 -0.4707
 1661TIP3    H226619   4.143   6.436   3.804  1.4908 -0.7173 -0.8347
 1662TIP3   OH226620   2.629   6.690   3.467 -0.2428  0.1689 -0.0204
 1662TIP3    H126621   2.706   6.747   3.477 -1.6515  2.0191  0.8897
 1662TIP3    H226622   2.641   6.650   3.381  0.7086  2.0626 -0.8489
 1663TIP3   OH226623   0.339   4.549   3.837 -0.4209 -0.2724 -0.2255
 1663TIP3    H126624   0.407   4.612   3.860  0.5758 -1.4848  0.3105
 1663TIP3    H226625   0.385   4.483   3.785 -1.7067  0.0809 -1.8862
 1664TIP3   OH226626   6.535   5.154   0.467  0.4338 -0.9541  0.3958
 1664TIP3    H126627   6.484   5.235   0.472  1.5369 -0.2521  0.4945
 1664TIP3    H226628   6.475   5.087   0.499 -1.3467 -0.6130 -1.9925
 1665TIP3   OH226629   0.385   4.479   2.545  0.0749  0.0944 -0.7627
 1665TIP3    H126630   0.426   4.438   2.620  0.8997  1.0170 -0.6845
 1665TIP3    H226631   0.304   4.430   2.531 -0.1988  0.0483  0.8531
 1666TIP3   OH226632   1.994   1.769   1.018 -0.4555 -0.3061 -0.1701
 1666TIP3    H126633   1.986   1.687   0.968  0.0832 -0.9794  0.7991
 1666TIP3    H226634   2.026   1.833   0.955 -1.0087 -0.8175 -0.9795
 1667TIP3   OH226635   2.460   2.545   1.179  0.1216 -0.0298 -0.3155
 1667TIP3    H126636   2.390   2.581   1.125  0.0934 -1.7205 -1.4912
 1667TIP3    H226637   2.443   2.579   1.266 -2.7995 -1.1633 -0.3252
 1668TIP3   OH226638   6.666   2.159   3.899  0.1465  0.1325 -0.2639
 1668TIP3    H126639   6.635   2.081   3.945  2.1927 -0.7402 -0.2667
 1668TIP3    H226640   6.622   2.155   3.814  0.9624 -1.6141 -0.6570
 1669TIP3   OH226641   3.309   2.178   4.136 -0.8126  0.2657 -0.0501
 1669TIP3    H126642   3.333   2.171   4.044  1.3027  0.7795  0.4084
 1669TIP3    H226643   3.390   2.161   4.184 -1.4961  1.4995  1.6821
 1670TIP3   OH226644   6.246   3.875   3.041 -0.2125  0.2698 -0.5743
 1670TIP3    H126645   6.298   3.904   3.116 -0.4007  0.2881 -0.4499
 1670TIP3    H226646   6.175   3.939   3.035 -0.1956  0.2706 -0.7699
 1671TIP3   OH226647   0.477   4.834   1.167  0.2535  0.2143 -0.4988
 1671TIP3    H126648   0.499   4.912   1.117 -1.3531  2.9901  2.6887
 1671TIP3    H226649   0.402   4.860   1.221  1.3581 -2.5786  2.7846
 1672TIP3   OH226650   5.572   4.283   5.215 -0.3173  0.1006  0.2067
 1672TIP3    H126651   5.584   4.377   5.232 -0.1114 -0.3241  2.8092
 1672TIP3    H226652   5.483   4.264   5.244 -0.5110 -0.4719 -0.7062
 1673TIP3   OH226653   4.790   1.488   2.345  0.5728  0.1720 -0.6291
 1673TIP3    H126654   4.722   1.441   2.298  0.3440  0.6070 -0.7348
 1673TIP3    H226655   4.779   1.462   2.437  1.5814 -1.3763 -0.9054
 1674TIP3   OH226656   1.116   2.678   0.090  0.0303 -0.3906  0.3297
 1674TIP3    H126657   1.203   2.686   0.052 -0.4637  3.6523 -0.4063
 1674TIP3    H226658   1.093   2.586   0.078  2.6946 -0.8274 -2.9022
 1675TIP3   OH226659   3.980   4.416   0.179 -0.6770 -0.4844  0.3930
 1675TIP3    H126660   3.981   4.327   0.142  1.8047  0.0452 -0.9960
 1675TIP3    H226661   4.068   4.429   0.214 -1.0527  1.3890  0.7365
 1676TIP3   OH226662   1.484   0.708   2.659  0.5179  0.0310 -0.1271
 1676TIP3    H126663   1.474   0.652   2.736 -0.1013 -0.0452 -0.2594
 1676TIP3    H226664   1.396   0.716   2.624  0.2230  2.6408  0.9722
 1677TIP3   OH226665   6.044   4.620   3.972  0.3801 -0.9068  0.1648
 1677TIP3    H126666   6.047   4.664   4.057  0.2687  0.5976 -0.5622
 1677TIP3    H226667   5.951   4.619   3.948  0.4578 -0.8641 -0.1529
 1678TIP3   OH226668   5.797   4.330   0.882  0.4631  0.4457 -0.1438
 1678TIP3    H126669   5.797   4.237   0.907  1.5435  0.4551 -0.0975
 1678TIP3    H226670   5.867   4.338   0.818 -0.0692  1.1094 -0.6537
 1679TIP3   OH226671   4.802   3.266   2.171 -0.3490 -0.2917  0.3069
 1679TIP3    H126672   4.859   3.189   2.162 -0.2749 -0.0940 -1.0785
 1679TIP3    H226673   4.783   3.270   2.265  0.5090 -1.3756  0.5545
 1680TIP3   OH226674   4.825   4.195   1.177  0.2110 -0.2437  0.6578
 1680TIP3    H126675   4.830   4.111   1.132  1.2068  0.9023 -1.5202
 1680TIP3    H226676   4.909   4.237   1.160 -0.3371  1.2955  1.4850
 1681TIP3   OH226677   6.295   1.941   3.235 -0.4685  0.0727  0.1634
 1681TIP3    H126678   6.215   1.904   3.198  0.1063 -0.9443 -0.1147
 1681TIP3    H226679   6.270   2.028   3.264 -1.3958  0.1987 -0.9387
 1682TIP3   OH226680   6.210   3.243   4.059 -0.8559 -0.3135  0.2454
 1682TIP3    H126681   6.288   3.294   4.039 -0.8145  0.4491  2.1858
 1682TIP3    H226682   6.182   3.208   3.974 -0.0466  1.7050 -0.9112
 1683TIP3   OH226683   6.231   2.700   4.152  0.1405  0.8303  0.0303
 1683TIP3    H126684   6.294   2.726   4.085  0.4103  1.4996  0.5283
 1683TIP3    H226685   6.266   2.738   4.233 -0.6484  0.7949  0.3940
 1684TIP3   OH226686   1.762   6.328   0.324 -0.8376 -0.1096 -0.2058
 1684TIP3    H126687   1.777   6.237   0.349 -0.4143 -0.1423 -0.5604
 1684TIP3    H226688   1.682   6.325   0.270 -1.2859 -0.1500  0.4474
 1685TIP3   OH226689   5.037   6.724   5.557 -0.4584  0.2909 -0.1561
 1685TIP3    H126690   5.058   6.634   5.533 -0.8115  0.3167 -0.5821
 1685TIP3    H226691   5.113   6.754   5.607 -0.1719 -0.1171 -0.3400
 1686TIP3   OH226692   0.914   1.333   4.583 -0.0178  0.4179 -0.1229
 1686TIP3    H126693   0.991   1.325   4.639 -0.2190  0.1754  0.1217
 1686TIP3    H226694   0.872   1.247   4.587 -0.1586  0.4687 -0.4637
 1687TIP3   OH226695   2.295   0.370   0.268 -0.0176  0.1985  0.3514
 1687TIP3    H126696   2.243   0.442   0.232  0.6546  1.0333  0.9987
 1687TIP3    H226697   2.371   0.413   0.308  0.7850 -0.9363  0.0903
 1688TIP3   OH226698   6.107   6.748   3.242 -0.1148  0.3181 -0.0913
 1688TIP3    H126699   6.051   6.787   3.309  0.4140 -0.5385  0.8721
 1688TIP3    H226700   6.176   6.704   3.290 -0.3392 -1.2746 -1.1338
 1689TIP3   OH226701   0.169   4.750   1.108 -0.1211  0.2019  0.1820
 1689TIP3    H126702   0.214   4.669   1.133 -1.0282 -1.3998 -2.9318
 1689TIP3    H226703   0.100   4.760   1.174 -0.3115 -1.8833  0.3780
 1690TIP3   OH226704   1.233   3.160   1.970 -0.0509  0.3928  0.9507
 1690TIP3    H126705   1.230   3.104   1.893 -0.0076  1.6959 -0.0315
 1690TIP3    H226706   1.307   3.126   2.021  0.4694  0.0362 -0.0093
 1691TIP3   OH226707   2.415   6.641   0.830 -0.5104  0.2078 -0.3820
 1691TIP3    H126708   2.509   6.645   0.812 -0.1909 -0.5740  0.9865
 1691TIP3    H226709   2.406   6.573   0.896 -2.0385  0.3337 -0.4294
 1692TIP3   OH226710   5.180   4.763   5.066 -0.1257  1.0145 -0.0415
 1692TIP3    H126711   5.218   4.679   5.092  0.6922  0.8034 -1.8156
 1692TIP3    H226712   5.250   4.827   5.083 -1.6603  1.9476  4.0937
 1693TIP3   OH226713   1.721   6.125   4.957  0.0881 -0.6899  0.1698
 1693TIP3    H126714   1.672   6.104   5.036 -1.4821 -1.0826 -0.8499
 1693TIP3    H226715   1.679   6.204   4.923  1.0069 -0.2902 -0.0600
 1694TIP3   OH226716   0.020   1.907   2.524  0.0141  0.6841 -0.3636
 1694TIP3    H126717  -0.055   1.931   2.469 -0.0179  1.4963  0.0272
 1694TIP3    H226718   0.003   1.816   2.548 -0.3695  0.5655 -1.0473
 1695TIP3   OH226719   0.332   2.802   3.158 -0.0847 -0.9211  0.0335
 1695TIP3    H126720   0.310   2.865   3.227  0.1953 -0.2540 -0.4797
 1695TIP3    H226721   0.254   2.745   3.153 -1.2989  0.7606 -1.0320
 1696TIP3   OH226722   4.295   4.433   1.426  0.5734 -0.3034 -0.1343
 1696TIP3    H126723   4.208   4.459   1.457  0.3030 -0.8834 -0.4027
 1696TIP3    H226724   4.290   4.339   1.414  1.0294 -0.2502 -0.8231
 1697TIP3   OH226725   0.478   6.186   2.163 -0.4884  0.3540 -0.5722
 1697TIP3    H126726   0.526   6.168   2.082  1.8415  0.5263  0.6829
 1697TIP3    H226727   0.530   6.142   2.231 -1.4101  1.6720  1.0415
 1698TIP3   OH226728   3.553   0.658   4.652  0.3592  0.5512 -0.0242
 1698TIP3    H126729   3.621   0.725   4.650  0.6356  0.3660  1.6867
 1698TIP3    H226730   3.586   0.589   4.594 -0.0325  1.9479 -1.9706
 1699TIP3   OH226731   2.308   6.558   2.289  0.5238  0.4290 -0.1518
 1699TIP3    H126732   2.270   6.645   2.274  0.1092  0.3878  0.6440
 1699TIP3    H226733   2.385   6.555   2.231  0.9526  1.5862  0.3408
 1700TIP3   OH226734   4.648   1.175   4.630 -0.0507 -0.6079  0.2125
 1700TIP3    H126735   4.561   1.207   4.655 -1.6195 -2.6988 -1.9731
 1700TIP3    H226736   4.688   1.249   4.585  0.3993  1.1858  3.3099
 1701TIP3   OH226737   1.144   5.492   2.264  0.3758  0.5261 -0.1102
 1701TIP3    H126738   1.125   5.555   2.334 -0.0028  0.1555  0.1267
 1701TIP3    H226739   1.099   5.528   2.188  2.4900  2.0282 -0.7389
 1702TIP3   OH226740   6.579   6.332   1.138 -0.0972 -0.2082 -0.3913
 1702TIP3    H126741   6.656   6.276   1.150 -0.8179 -0.7646  2.5569
 1702TIP3    H226742   6.585   6.396   1.209 -1.6466  0.5722 -0.9346
 1703TIP3   OH226743   1.886   4.423   1.935 -0.9197  0.0633  0.0932
 1703TIP3    H126744   1.857   4.358   1.998 -2.7909  0.9513  0.2162
 1703TIP3    H226745   1.918   4.372   1.860  0.2347 -0.9750  1.2506
 1704TIP3   OH226746   0.850   1.111   4.324  0.3181  0.1875  0.3804
 1704TIP3    H126747   0.808   1.196   4.339  0.2210 -0.0112  1.3007
 1704TIP3    H226748   0.944   1.130   4.325  0.2951  0.2945  0.5463
 1705TIP3   OH226749   1.425   2.863   0.970 -0.2846  0.8423 -0.0117
 1705TIP3    H126750   1.431   2.790   0.908  0.0150  0.5386  0.3705
 1705TIP3    H226751   1.510   2.865   1.014 -0.6285  0.7970  0.6761
 1706TIP3   OH226752   6.647   3.614   4.871 -0.5351 -0.2756  0.9781
 1706TIP3    H126753   6.657   3.647   4.960 -0.0788 -2.5263  1.8163
 1706TIP3    H226754   6.683   3.526   4.873 -2.2596 -1.1210 -0.9778
 1707TIP3   OH226755   4.583   0.517   1.697 -0.1300  0.8046 -0.1869
 1707TIP3    H126756   4.657   0.549   1.645 -0.2511 -0.1783 -0.9952
 1707TIP3    H226757   4.573   0.582   1.766  0.0403  2.1568 -1.3928
 1708TIP3   OH226758   3.323   5.962   2.886  0.6103  0.0022 -0.4492
 1708TIP3    H126759   3.267   6.038   2.877 -0.4419 -0.6801  0.1212
 1708TIP3    H226760   3.338   5.953   2.980  2.9659  1.0451 -0.6455
 1709TIP3   OH226761   5.718   4.097   4.434  0.7103  0.4787 -0.1070
 1709TIP3    H126762   5.729   4.036   4.506 -0.0253 -1.1205 -1.2889
 1709TIP3    H226763   5.672   4.047   4.366 -0.6046  2.5470 -0.8636
 1710TIP3   OH226764   2.448   1.498   3.622 -0.1165  0.5326  0.3601
 1710TIP3    H126765   2.369   1.487   3.570  0.2464 -0.8121  0.0347
 1710TIP3    H226766   2.425   1.463   3.708  0.6202 -1.6882 -0.2623
 1711TIP3   OH226767   2.858   6.259   3.783 -0.2535  0.3726  0.3896
 1711TIP3    H126768   2.781   6.315   3.774 -0.5986 -0.0733  0.4723
 1711TIP3    H226769   2.834   6.197   3.853 -1.0305 -1.7029 -1.5771
 1712TIP3   OH226770   1.075   3.083   3.396 -0.0063  0.4789 -0.0045
 1712TIP3    H126771   1.099   3.121   3.481  0.4456 -0.8074  0.4644
 1712TIP3    H226772   1.126   3.134   3.332  3.0501 -1.2652  0.8374
 1713TIP3   OH226773   3.321   3.638   1.270 -0.4741 -0.3002  0.3920
 1713TIP3    H126774   3.266   3.559   1.269 -1.4447  0.3620  0.4704
 1713TIP3    H226775   3.277   3.698   1.210  0.4858  0.0443  0.0168
 1714TIP3   OH226776   3.667   5.858   0.669 -0.0684  0.3946 -0.2254
 1714TIP3    H126777   3.744   5.909   0.645  1.8723 -2.0801  0.3417
 1714TIP3    H226778   3.619   5.846   0.587 -0.5060  2.8467 -0.4073
 1715TIP3   OH226779   1.042   3.343   0.566  0.1087 -0.2272  0.0578
 1715TIP3    H126780   1.096   3.413   0.529  0.6954 -0.4739  0.4260
 1715TIP3    H226781   1.072   3.337   0.657 -0.8660 -0.0594  0.3936
 1716TIP3   OH226782   3.474   5.248   3.696  0.1433 -0.3663 -0.2175
 1716TIP3    H126783   3.550   5.291   3.736  0.6344  0.7689 -2.2074
 1716TIP3    H226784   3.509   5.167   3.659  0.3634  0.0719 -0.9826
 1717TIP3   OH226785   3.573   4.234   3.815  0.3214  0.0216  0.3537
 1717TIP3    H126786   3.548   4.203   3.902  0.1772  0.1657  0.3637
 1717TIP3    H226787   3.498   4.212   3.760  0.3564  0.0538  0.2938
 1718TIP3   OH226788   0.289   0.168   1.205  0.4600 -0.2922  0.0289
 1718TIP3    H126789   0.356   0.194   1.268  0.2056  0.1375  0.1332
 1718TIP3    H226790   0.206   0.181   1.252  0.3444 -2.4576  0.5036
 1719TIP3   OH226791   6.566   0.152   0.982  0.1280 -0.1951 -0.0184
 1719TIP3    H126792   6.576   0.072   0.931 -2.3933  0.1236 -1.1618
 1719TIP3    H226793   6.490   0.136   1.038 -2.1502  2.1714 -2.1392
 1720TIP3   OH226794   0.656   4.170   4.375  0.0678  0.0651  0.7867
 1720TIP3    H126795   0.712   4.219   4.316  0.3846  0.5814  1.4947
 1720TIP3    H226796   0.629   4.093   4.325 -0.5326  1.0151 -0.3767
 1721TIP3   OH226797   4.985   0.431   4.241 -0.3869  0.3316  0.1995
 1721TIP3    H126798   5.056   0.399   4.185 -1.7394 -0.2801 -1.2194
 1721TIP3    H226799   5.027   0.445   4.326  1.6765  0.9914 -0.8449
 1722TIP3   OH226800   3.210   5.413   3.245 -0.0609  0.5402 -0.3583
 1722TIP3    H126801   3.186   5.329   3.286  0.6312 -0.0625 -1.1446
 1722TIP3    H226802   3.245   5.466   3.317  3.0258 -1.2020 -0.4138
 1723TIP3   OH226803   4.204   6.556   3.914 -0.0412 -0.0151 -0.3494
 1723TIP3    H126804   4.279   6.555   3.855 -0.9738 -0.4172 -1.5599
 1723TIP3    H226805   4.203   6.644   3.950  1.3041 -0.1582  0.0789
 1724TIP3   OH226806   0.986   1.727   3.304 -0.2478 -0.2157  0.0705
 1724TIP3    H126807   0.948   1.811   3.278 -1.3997 -1.0031 -0.9010
 1724TIP3    H226808   0.931   1.698   3.377 -0.5072 -0.6042 -0.2763
 1725TIP3   OH226809   6.386   2.249   0.448 -0.2904 -0.1163 -0.3715
 1725TIP3    H126810   6.315   2.309   0.468  0.2265  0.4514 -0.1911
 1725TIP3    H226811   6.349   2.161   0.460 -0.9869  0.1703 -0.4195
 1726TIP3   OH226812   4.342   3.764   1.892  0.3570 -0.0537  0.5028
 1726TIP3    H126813   4.251   3.733   1.893  0.8173 -1.8198 -2.1238
 1726TIP3    H226814   4.394   3.685   1.903  1.6346  1.0021  2.5009
 1727TIP3   OH226815   5.504   6.415   3.530  0.1487  0.1258 -0.0287
 1727TIP3    H126816   5.512   6.490   3.588 -1.9244  0.7744 -0.4977
 1727TIP3    H226817   5.482   6.342   3.588  1.7707 -0.0649  0.3804
 1728TIP3   OH226818   5.639   6.320   3.995  0.3950 -0.0195  0.0824
 1728TIP3    H126819   5.710   6.353   3.940  2.5965 -2.5929  1.1541
 1728TIP3    H226820   5.644   6.225   3.986 -1.0107 -0.3992  2.5112
 1729TIP3   OH226821   5.479   1.266   1.154  0.1030 -0.4614  0.1680
 1729TIP3    H126822   5.490   1.277   1.060  1.5635  0.1712  0.3771
 1729TIP3    H226823   5.401   1.317   1.176 -0.2379 -0.6068 -0.6829
 1730TIP3   OH226824   0.928   0.933   5.445  0.4567  0.1226  0.4492
 1730TIP3    H126825   0.958   0.845   5.420  0.6530  0.9764 -2.7594
 1730TIP3    H226826   0.972   0.950   5.528 -0.5250 -3.2163  1.8602
 1731TIP3   OH226827   4.023   2.269   3.154  0.0436 -0.3483 -0.4694
 1731TIP3    H126828   4.003   2.296   3.064  1.4949  0.4782 -0.5777
 1731TIP3    H226829   3.945   2.293   3.204 -0.1223  0.7802 -1.2194
 1732TIP3   OH226830   4.461   2.957   2.108 -0.4731  0.3165 -0.1527
 1732TIP3    H126831   4.524   2.909   2.055 -0.0989 -0.0066  0.5731
 1732TIP3    H226832   4.399   2.890   2.137 -0.2325  0.3580  0.4552
 1733TIP3   OH226833   1.131   0.221   5.328  0.3355 -0.1807  0.2597
 1733TIP3    H126834   1.119   0.271   5.409 -0.2942 -0.2319  0.2055
 1733TIP3    H226835   1.087   0.274   5.261  1.6861  0.3521 -0.2421
 1734TIP3   OH226836   4.959   4.232   4.117 -0.1414  0.2135 -0.4577
 1734TIP3    H126837   4.950   4.318   4.158 -0.1423  0.4029 -0.8457
 1734TIP3    H226838   4.879   4.185   4.142  0.3331 -0.0508  0.6167
 1735TIP3   OH226839   6.077   0.779   4.747  0.4636  0.4079  0.3122
 1735TIP3    H126840   6.043   0.763   4.659 -3.5809  3.3744  1.0079
 1735TIP3    H226841   6.148   0.842   4.734  0.2889  0.3841 -0.9085
 1736TIP3   OH226842   6.537   3.206   2.837  0.5149 -0.0603 -0.3093
 1736TIP3    H126843   6.525   3.112   2.853  2.0829 -1.0313 -3.7897
 1736TIP3    H226844   6.631   3.219   2.839  0.2994  2.2343  3.0599
 1737TIP3   OH226845   5.660   1.914   3.850 -0.1500 -1.0893 -0.4107
 1737TIP3    H126846   5.709   1.845   3.805 -0.1461 -0.6176 -1.1463
 1737TIP3    H226847   5.632   1.973   3.780  0.1477 -0.1552  0.2401
 1738TIP3   OH226848   5.600   3.173   3.062  0.1244  0.1634  0.2906
 1738TIP3    H126849   5.518   3.130   3.085  0.4119 -1.3541 -1.2866
 1738TIP3    H226850   5.643   3.112   3.002  1.0786  2.2020 -1.2345
 1739TIP3   OH226851   1.354   1.860   3.306 -0.2340 -0.2542 -0.2953
 1739TIP3    H126852   1.392   1.788   3.255  4.1194  1.2991  0.3199
 1739TIP3    H226853   1.367   1.835   3.397  0.2659  0.7621 -0.0706
 1740TIP3   OH226854   6.429   1.957   1.706  0.3662  0.2952 -0.1033
 1740TIP3    H126855   6.346   1.975   1.662 -0.7507  0.2022  1.8524
 1740TIP3    H226856   6.495   1.998   1.650 -0.9395  0.0911 -1.8787
 1741TIP3   OH226857   1.558   6.413   1.402  0.0471 -0.0125 -0.4205
 1741TIP3    H126858   1.512   6.476   1.346  0.5938  1.5598  0.8042
 1741TIP3    H226859   1.506   6.411   1.482  0.7240 -0.1351  0.0265
 1742TIP3   OH226860   5.142   5.369   4.536 -0.1873 -0.3817 -0.0544
 1742TIP3    H126861   5.113   5.412   4.616 -0.3710  0.8995 -0.7795
 1742TIP3    H226862   5.066   5.319   4.506 -0.6145  0.3445 -0.2080
 1743TIP3   OH226863   2.368   4.046   3.533  0.3037  0.6969 -0.1183
 1743TIP3    H126864   2.333   3.958   3.542  0.5082  0.8375  3.2529
 1743TIP3    H226865   2.442   4.037   3.472  0.1593 -1.4038 -0.0464
 1744TIP3   OH226866   2.429   2.390   2.599 -0.4663  0.0854  0.3220
 1744TIP3    H126867   2.523   2.403   2.608  0.0202 -1.0514 -2.3943
 1744TIP3    H226868   2.407   2.330   2.670  0.6441  1.0213  1.5169
 1745TIP3   OH226869   3.359   5.782   3.879  1.0689 -0.6223 -0.3535
 1745TIP3    H126870   3.412   5.862   3.887 -0.8606  0.6378  0.5393
 1745TIP3    H226871   3.320   5.788   3.792  1.1650 -0.7548 -0.4057
 1746TIP3   OH226872   3.182   3.807   0.380 -0.1523 -0.1409  0.6491
 1746TIP3    H126873   3.214   3.754   0.453 -0.8791 -1.3657  0.1092
 1746TIP3    H226874   3.205   3.897   0.404  1.4533 -0.7244  1.4050
 1747TIP3   OH226875   5.315   0.736   5.105 -0.4219 -0.1311  0.2421
 1747TIP3    H126876   5.331   0.771   5.017  1.7512  0.2883  0.7598
 1747TIP3    H226877   5.226   0.699   5.100 -0.0855 -0.7726 -2.3111
 1748TIP3   OH226878   5.522   5.025   2.652 -0.2843 -0.2262 -0.1189
 1748TIP3    H126879   5.474   5.064   2.579  0.4418 -0.3593 -0.6862
 1748TIP3    H226880   5.499   5.079   2.728  0.0266  0.7906 -0.7185
 1749TIP3   OH226881   3.014   6.719   3.186 -0.6465  0.2440 -0.1786
 1749TIP3    H126882   2.968   6.673   3.256 -0.6792  0.7236  0.1254
 1749TIP3    H226883   3.093   6.667   3.171 -0.9234 -0.1793 -0.1900
 1750TIP3   OH226884   3.298   0.383   1.767  0.1780 -0.1972  0.1653
 1750TIP3    H126885   3.302   0.453   1.702  0.0499 -1.1786 -0.9501
 1750TIP3    H226886   3.247   0.314   1.724 -0.4977 -0.6080  1.5856
 1751TIP3   OH226887   6.125   5.562   4.642 -0.4529 -0.2857  0.0381
 1751TIP3    H126888   6.168   5.613   4.573  0.7723 -0.6527  0.5177
 1751TIP3    H226889   6.034   5.591   4.639  0.3871  2.8643  1.0541
 1752TIP3   OH226890   5.510   4.838   0.999  0.5169  0.3505  0.2068
 1752TIP3    H126891   5.586   4.895   1.011  0.8454  0.0772 -0.5028
 1752TIP3    H226892   5.543   4.764   0.949 -0.2111  0.2221 -0.1018
 1753TIP3   OH226893   3.490   5.581   2.114 -0.3704  0.1423  0.3509
 1753TIP3    H126894   3.492   5.511   2.049  0.3226 -0.1016  0.6241
 1753TIP3    H226895   3.399   5.611   2.115 -0.6600 -0.7072  0.1863
 1754TIP3   OH226896   2.068   3.010   3.419 -0.3080  0.1343  0.4076
 1754TIP3    H126897   1.984   3.030   3.378 -0.2710  0.5500  0.5349
 1754TIP3    H226898   2.133   3.030   3.352 -0.3496 -1.0458 -0.0140
 1755TIP3   OH226899   3.669   1.838   3.405  0.1249 -0.0092 -0.3170
 1755TIP3    H126900   3.585   1.841   3.451 -1.2331  1.3818 -2.6637
 1755TIP3    H226901   3.678   1.746   3.378 -0.9297 -0.0605 -0.5334
 1756TIP3   OH226902   0.116   0.910   3.132  0.0241 -0.0329 -0.4240
 1756TIP3    H126903   0.138   1.001   3.113 -0.4562  0.1714 -0.0165
 1756TIP3    H226904   0.022   0.911   3.150  0.4855 -0.0926  2.5001
 1757TIP3   OH226905   0.691   4.994   1.659  0.4015 -0.1691  0.2391
 1757TIP3    H126906   0.601   4.972   1.634 -0.1078  2.0826 -0.1820
 1757TIP3    H226907   0.681   5.073   1.713  2.0921 -0.2810  0.7603
 1758TIP3   OH226908   6.330   1.525   2.550 -0.0266 -0.2211  0.0552
 1758TIP3    H126909   6.399   1.530   2.484  0.9574  0.7423  1.0931
 1758TIP3    H226910   6.375   1.547   2.632 -1.6736  0.9430  0.6954
 1759TIP3   OH226911   6.480   1.963   4.096 -0.3028  0.7713 -0.2441
 1759TIP3    H126912   6.409   1.915   4.138 -0.0017  2.1218  1.9866
 1759TIP3    H226913   6.439   2.041   4.059 -0.2775  0.5239 -0.8033
 1760TIP3   OH226914   3.393   4.433   5.391  0.0208  0.2735  0.7306
 1760TIP3    H126915   3.354   4.352   5.426 -0.6724  0.6422  0.8331
 1760TIP3    H226916   3.477   4.405   5.355 -1.2613 -0.9825 -1.5302
 1761TIP3   OH226917   4.880   6.125   3.641  0.4027 -0.7442 -0.0874
 1761TIP3    H126918   4.900   6.131   3.735  0.1457  1.7558 -0.1089
 1761TIP3    H226919   4.950   6.175   3.599 -0.7861  0.2552 -0.9666
 1762TIP3   OH226920   0.005   2.672   2.750 -0.1786 -0.7684  0.1112
 1762TIP3    H126921   0.077   2.719   2.792  0.2853 -1.1253 -0.2777
 1762TIP3    H226922   0.047   2.598   2.706 -1.0098 -2.1850  1.6072
 1763TIP3   OH226923   4.511   4.973   0.945 -0.3967 -0.4828 -0.0400
 1763TIP3    H126924   4.452   5.036   0.903 -0.9334 -1.4687 -0.7936
 1763TIP3    H226925   4.573   5.028   0.994 -1.9084  0.5872  0.7764
 1764TIP3   OH226926   6.471   3.825   2.872 -0.1407 -0.0057  0.0335
 1764TIP3    H126927   6.512   3.911   2.863 -0.4679  0.0423 -1.3207
 1764TIP3    H226928   6.392   3.842   2.923  1.1240  0.0047  2.1059
 1765TIP3   OH226929   4.504   4.862   4.514 -0.3453  0.3043  0.3700
 1765TIP3    H126930   4.540   4.903   4.593 -0.4660  1.1760 -0.0154
 1765TIP3    H226931   4.411   4.881   4.518 -0.3378  0.4260 -0.0293
 1766TIP3   OH226932   1.839   1.564   3.759 -0.3002 -0.1999 -0.1964
 1766TIP3    H126933   1.906   1.620   3.722  0.3406 -0.6339  0.2970
 1766TIP3    H226934   1.760   1.584   3.708  0.1631  0.4124 -0.6790
 1767TIP3   OH226935   0.883   3.487   5.059  0.4821  0.1439 -0.0355
 1767TIP3    H126936   0.883   3.489   4.964  3.5754 -0.0533 -0.1318
 1767TIP3    H226937   0.852   3.399   5.081  0.3897 -0.0411 -0.8694
 1768TIP3   OH226938   2.661   4.686   4.640 -0.2847  0.1101 -0.2060
 1768TIP3    H126939   2.744   4.654   4.603  0.0324 -0.0829  0.6521
 1768TIP3    H226940   2.683   4.711   4.729 -0.9082  1.1372 -0.3235
 1769TIP3   OH226941   0.733   3.634   0.145 -0.4326  0.4194  0.0849
 1769TIP3    H126942   0.672   3.562   0.158 -0.5403 -0.6457 -4.5858
 1769TIP3    H226943   0.817   3.592   0.128  0.0997  1.5345 -0.1503
 1770TIP3   OH226944   4.107   1.303   3.549 -0.1002 -0.2403  0.6416
 1770TIP3    H126945   4.187   1.348   3.576 -1.0573  1.0898  1.3736
 1770TIP3    H226946   4.069   1.358   3.481 -0.1039 -1.1713 -0.1309
 1771TIP3   OH226947   4.456   1.749   4.341 -0.3103  0.1342  0.3754
 1771TIP3    H126948   4.551   1.744   4.353  0.1051  2.2091 -1.5001
 1771TIP3    H226949   4.444   1.786   4.254 -2.9370 -2.9075 -0.7488
 1772TIP3   OH226950   2.326   0.439   3.196 -0.1239  0.1320  0.3211
 1772TIP3    H126951   2.402   0.453   3.253 -0.1489 -0.2555  0.4508
 1772TIP3    H226952   2.363   0.402   3.116  0.3892  3.8312 -1.3689
 1773TIP3   OH226953   4.263   3.990   4.859 -0.1460  0.2361 -0.7905
 1773TIP3    H126954   4.319   4.045   4.804 -0.5318  0.4024 -1.0204
 1773TIP3    H226955   4.307   3.989   4.944 -0.4049  1.3355 -0.6312
 1774TIP3   OH226956   3.812   4.651   1.202  0.4331  0.4486  0.3728
 1774TIP3    H126957   3.850   4.617   1.121  0.5567  0.3713  0.4640
 1774TIP3    H226958   3.886   4.690   1.249  0.1802  1.4828 -0.0558
 1775TIP3   OH226959   4.822   4.106   3.487 -0.0608  0.3843  0.4044
 1775TIP3    H126960   4.745   4.054   3.512 -0.4844 -0.0269 -1.5489
 1775TIP3    H226961   4.892   4.042   3.476 -0.0567  0.4612 -0.0516
 1776TIP3   OH226962   3.256   1.379   2.973 -0.1513 -0.4107 -0.2196
 1776TIP3    H126963   3.351   1.383   2.969 -0.2199  2.3443 -2.4396
 1776TIP3    H226964   3.237   1.316   3.042  3.2610 -0.8041  0.5146
 1777TIP3   OH226965   3.416   2.377   5.222 -0.0970  0.0057  0.4324
 1777TIP3    H126966   3.422   2.438   5.149 -3.4198  1.2496  1.0274
 1777TIP3    H226967   3.467   2.419   5.292  0.0655  0.6329 -0.0504
 1778TIP3   OH226968   2.100   4.066   0.817 -0.2160 -0.4810 -0.1064
 1778TIP3    H126969   2.053   4.126   0.875  1.1628  0.2990  0.2616
 1778TIP3    H226970   2.045   4.061   0.739 -1.2983 -0.2516  0.6118
 1779TIP3   OH226971   0.669   3.842   2.387 -0.1797  0.1947  0.3733
 1779TIP3    H126972   0.592   3.848   2.444 -0.1286  0.7765  0.3848
 1779TIP3    H226973   0.734   3.794   2.439 -0.5679 -0.3988  0.3217
 1780TIP3   OH226974   6.010   6.756   4.047  0.0460  0.0460  0.4275
 1780TIP3    H126975   6.037   6.817   4.116  1.2031 -1.6184  1.5182
 1780TIP3    H226976   6.033   6.801   3.966 -0.1273  1.5110  1.1530
 1781TIP3   OH226977   1.065   5.367   1.581 -0.7359 -0.8610 -0.3952
 1781TIP3    H126978   1.012   5.349   1.503 -0.4455 -1.2544 -0.5056
 1781TIP3    H226979   1.124   5.292   1.587 -1.6664 -1.5347  0.9929
 1782TIP3   OH226980   6.574   4.187   4.438 -0.4622 -0.1160 -0.3039
 1782TIP3    H126981   6.604   4.137   4.514 -1.7186 -3.3272 -1.7118
 1782TIP3    H226982   6.647   4.245   4.417  0.3282  0.1360  2.6772
 1783TIP3   OH226983   6.539   2.411   4.008 -0.0782  0.0619  0.1735
 1783TIP3    H126984   6.559   2.502   4.028  0.4018  0.1657 -0.7365
 1783TIP3    H226985   6.624   2.367   4.011 -0.1852 -0.1778 -0.3005
 1784TIP3   OH226986   1.571   2.971   1.788 -0.3093  0.4013 -0.3054
 1784TIP3    H126987   1.634   2.901   1.773 -0.2589  0.4249 -0.2051
 1784TIP3    H226988   1.618   3.035   1.841 -0.4390  0.3853 -0.1693
 1785TIP3   OH226989   0.874   5.844   0.981  0.0348  0.0053  0.1696
 1785TIP3    H126990   0.906   5.905   0.915 -1.3096  0.4615 -0.0772
 1785TIP3    H226991   0.780   5.860   0.986 -0.0482 -0.7217  1.4771
 1786TIP3   OH226992   4.715   6.065   0.752 -0.3993 -0.5002 -0.8514
 1786TIP3    H126993   4.808   6.069   0.773 -0.6691  0.1245  0.3474
 1786TIP3    H226994   4.711   6.022   0.667  1.0111 -0.0139 -1.1858
 1787TIP3   OH226995   4.681   0.167   1.275  0.3004  0.4915 -0.1513
 1787TIP3    H126996   4.595   0.141   1.243  0.7566 -2.8382  0.9170
 1787TIP3    H226997   4.736   0.173   1.197 -0.5796  1.3370 -0.7155
 1788TIP3   OH226998   6.707   2.075   4.724 -0.1993 -0.7625  0.4710
 1788TIP3    H126999   6.779   2.013   4.723  0.3141 -0.2743  2.2536
 1788TIP3    H227000   6.685   2.085   4.817 -0.1259  1.8420  0.2976
 1789TIP3   OH227001   3.839   4.993   4.305  0.0703  0.5631  0.4362
 1789TIP3    H127002   3.797   5.037   4.379 -2.3851  0.2961 -0.7132
 1789TIP3    H227003   3.861   4.906   4.339 -2.9566 -0.3320  0.3908
 1790TIP3   OH227004   3.897   2.952   3.837 -0.0846  0.5968 -0.2054
 1790TIP3    H127005   3.942   3.003   3.905  0.8984  1.8335 -1.7167
 1790TIP3    H227006   3.810   2.991   3.832 -0.0613  0.6987  0.1219
 1791TIP3   OH227007   6.166   5.482   1.753 -0.3063 -0.3638 -0.2056
 1791TIP3    H127008   6.132   5.393   1.742  0.8953 -0.8857  0.1670
 1791TIP3    H227009   6.229   5.492   1.682  1.2906 -0.6870  1.1072
 1792TIP3   OH227010   0.068   5.143   2.783 -0.2708 -0.0280 -0.3039
 1792TIP3    H127011   0.145   5.087   2.797 -0.0619  0.0510 -1.0716
 1792TIP3    H227012   0.006   5.115   2.850 -0.7649 -2.2596 -1.5867
 1793TIP3   OH227013   3.621   0.573   1.198  0.2301  0.5742 -0.2298
 1793TIP3    H127014   3.696   0.533   1.241  0.0988 -0.5809 -1.0174
 1793TIP3    H227015   3.641   0.568   1.104 -0.7514  0.3714 -0.4470
 1794TIP3   OH227016   0.594   5.434   3.203  0.3017  0.0153 -0.2260
 1794TIP3    H127017   0.525   5.368   3.213 -1.1138  1.2466 -1.4228
 1794TIP3    H227018   0.628   5.420   3.115  1.6265 -0.5744  0.3472
 1795TIP3   OH227019   3.616   1.543   4.177  0.3245  0.3639 -0.1710
 1795TIP3    H127020   3.532   1.515   4.212 -0.0090  0.6095 -0.7568
 1795TIP3    H227021   3.624   1.496   4.094 -0.9699  3.0366 -1.9845
 1796TIP3   OH227022   1.035   2.825   1.386 -0.1629 -0.1171  0.3096
 1796TIP3    H127023   1.030   2.733   1.411  1.0301  0.3184  2.4006
 1796TIP3    H227024   1.069   2.824   1.296 -0.3125 -1.7032  0.2496
 1797TIP3   OH227025   5.079   2.034   4.478  0.4156  0.4401  0.4410
 1797TIP3    H127026   5.089   1.971   4.549  1.7714  1.3925  1.1279
 1797TIP3    H227027   4.986   2.031   4.456  0.1760 -0.6415  1.5282
 1798TIP3   OH227028   5.324   4.596   2.125 -1.0029  0.0516  0.1195
 1798TIP3    H127029   5.313   4.501   2.132 -2.7070  0.2348  0.1711
 1798TIP3    H227030   5.237   4.632   2.138 -0.2661  1.6858  0.8583
 1799TIP3   OH227031   2.198   5.419   3.589  0.0042 -0.2223 -0.1732
 1799TIP3    H127032   2.206   5.330   3.555  1.7461 -0.4360  0.7087
 1799TIP3    H227033   2.107   5.444   3.570  0.2557 -1.0939 -3.0467
 1800TIP3   OH227034   6.695   4.449   3.862  0.2880 -0.2604  0.0076
 1800TIP3    H127035   6.766   4.466   3.925 -0.1634  0.6274  0.2970
 1800TIP3    H227036   6.616   4.446   3.916 -0.2380  1.4939 -0.5980
 1801TIP3   OH227037   2.178   2.381   1.762 -0.3806 -0.0851  0.8217
 1801TIP3    H127038   2.132   2.341   1.836  0.1670  2.2359  2.5123
 1801TIP3    H227039   2.263   2.336   1.759 -0.3702 -0.1332  1.6850
 1802TIP3   OH227040   2.651   1.610   4.118  0.6099  0.1145 -0.0032
 1802TIP3    H127041   2.625   1.518   4.107  2.4898 -0.1846 -2.9977
 1802TIP3    H227042   2.685   1.614   4.207 -1.1267 -1.6187  0.8223
 1803TIP3   OH227043   2.801   3.549   3.298 -0.5265 -0.3924  0.2582
 1803TIP3    H127044   2.761   3.633   3.320 -1.3240 -0.6724 -0.0498
 1803TIP3    H227045   2.875   3.572   3.242 -2.3905  0.0497 -2.2657
 1804TIP3   OH227046   3.600   3.701   4.864  0.2554 -0.2078 -0.3224
 1804TIP3    H127047   3.588   3.607   4.879  0.0165  0.1037  1.7559
 1804TIP3    H227048   3.613   3.738   4.952 -1.2564  1.9122 -0.8941
 1805TIP3   OH227049   3.809   0.683   3.254  0.1693  0.5511  0.4907
 1805TIP3    H127050   3.729   0.637   3.230  1.3940 -0.7113 -1.4089
 1805TIP3    H227051   3.822   0.661   3.346 -0.3209 -1.3450  0.1494
 1806TIP3   OH227052   4.423   2.427   3.157 -0.6279  0.0150 -0.1165
 1806TIP3    H127053   4.332   2.455   3.148 -1.2190 -1.6275  0.2835
 1806TIP3    H227054   4.424   2.372   3.235  1.0708  1.2738  0.8300
 1807TIP3   OH227055   1.969   0.700   4.998 -0.4009 -0.1482 -0.0473
 1807TIP3    H127056   2.052   0.659   5.022 -0.7101 -0.6863  0.1091
 1807TIP3    H227057   1.920   0.631   4.953 -1.5774 -0.4659  1.6234
 1808TIP3   OH227058   1.959   5.179   3.759 -0.1365 -0.7290 -0.4887
 1808TIP3    H127059   1.994   5.264   3.787 -1.9067 -0.3229  0.6925
 1808TIP3    H227060   1.883   5.201   3.705 -1.1358 -1.5243  0.5473
 1809TIP3   OH227061   5.456   0.736   2.519  0.3213  0.3020 -0.1364
 1809TIP3    H127062   5.420   0.803   2.461 -0.3097 -0.4311 -0.6123
 1809TIP3    H227063   5.518   0.688   2.464  0.2039  0.0128 -0.0149
 1810TIP3   OH227064   5.077   3.084   4.310 -0.2765 -0.2727 -0.1563
 1810TIP3    H127065   5.089   3.164   4.260 -0.6637 -1.4901 -2.3458
 1810TIP3    H227066   5.161   3.039   4.305 -0.6695 -0.9641 -0.8062
 1811TIP3   OH227067   5.060   6.609   2.456  0.2888  0.0008 -0.1936
 1811TIP3    H127068   5.017   6.694   2.448 -1.3265 -0.5410  1.9445
 1811TIP3    H227069   5.083   6.586   2.366 -0.3233  2.1182 -0.9660
 1812TIP3   OH227070   0.382   0.171   3.437 -0.6623 -0.0326  0.0726
 1812TIP3    H127071   0.306   0.165   3.379 -1.5052  1.5999  0.9355
 1812TIP3    H227072   0.347   0.205   3.519  0.6274 -1.5758  1.3406
 1813TIP3   OH227073   3.981   3.802   5.348  0.1639  0.3403 -0.0970
 1813TIP3    H127074   4.002   3.861   5.421  0.1031  0.9123 -0.5349
 1813TIP3    H227075   3.934   3.857   5.286 -3.1765 -0.9344  1.0354
 1814TIP3   OH227076   0.856   4.887   4.742 -0.2836 -0.3228  0.2002
 1814TIP3    H127077   0.812   4.894   4.657 -0.3989  0.4174  0.3176
 1814TIP3    H227078   0.869   4.793   4.754 -0.1410 -0.4284 -0.7036
 1815TIP3   OH227079   2.218   3.079   1.209 -0.2461  0.0166  0.0035
 1815TIP3    H127080   2.176   2.996   1.186  0.0951  0.1178 -1.0094
 1815TIP3    H227081   2.190   3.095   1.300 -0.6038 -1.0162  0.0900
 1816TIP3   OH227082   4.851   1.024   3.103  0.9379 -0.3120  0.1440
 1816TIP3    H127083   4.808   1.048   3.020  1.9647  1.6926  0.1437
 1816TIP3    H227084   4.780   1.019   3.166  0.0354 -2.5401 -0.9202
 1817TIP3   OH227085   4.682   5.266   2.091 -0.0733 -0.6705 -0.1934
 1817TIP3    H127086   4.598   5.240   2.053  0.7311 -2.2898 -0.9983
 1817TIP3    H227087   4.743   5.262   2.017  0.4315  2.2575 -0.0393
 1818TIP3   OH227088   0.593   5.165   1.961 -0.3266 -0.1356 -0.1829
 1818TIP3    H127089   0.645   5.087   1.984  1.9149  0.0529 -3.8587
 1818TIP3    H227090   0.652   5.238   1.979 -1.3508  0.5444  0.5076
 1819TIP3   OH227091   0.948   0.680   4.632 -0.0431 -0.2217 -0.2696
 1819TIP3    H127092   0.932   0.722   4.548  1.9220  1.0314 -0.0834
 1819TIP3    H227093   0.897   0.732   4.695 -0.8988 -0.6966 -0.5437
 1820TIP3   OH227094   4.197   4.905   4.867 -0.3700  0.1300 -0.6464
 1820TIP3    H127095   4.159   4.897   4.954 -1.4020  0.1826 -1.0816
 1820TIP3    H227096   4.247   4.986   4.870  0.0953 -0.1704  0.0657
 1821TIP3   OH227097   4.672   1.930   2.239  0.1824  0.4978 -0.2160
 1821TIP3    H127098   4.632   1.961   2.159 -0.5823 -1.4264 -0.6393
 1821TIP3    H227099   4.764   1.914   2.216  0.0141  0.1594 -0.6471
 1822TIP3   OH227100   2.340   2.693   4.710 -0.2952 -0.7478  0.4835
 1822TIP3    H127101   2.308   2.722   4.796  1.6016  0.2203  0.9165
 1822TIP3    H227102   2.288   2.615   4.691 -2.3210  0.2887  1.4525
 1823TIP3   OH227103   1.780   5.974   3.143  0.0176 -0.1517 -0.3059
 1823TIP3    H127104   1.865   6.006   3.174  0.6706  0.2529 -2.3330
 1823TIP3    H227105   1.785   5.982   3.048 -2.0717 -0.7358 -0.5154
 1824TIP3   OH227106   2.003   2.697   2.829 -0.1727  0.1895 -0.0686
 1824TIP3    H127107   2.046   2.706   2.914 -1.7751 -0.3125  0.8314
 1824TIP3    H227108   2.031   2.612   2.797  0.6424  0.4895 -0.1787
 1825TIP3   OH227109   1.397   6.510   2.991  0.4481  0.0033  0.0178
 1825TIP3    H127110   1.425   6.504   3.082  1.4652  0.0104 -0.2822
 1825TIP3    H227111   1.368   6.422   2.968 -0.1618  0.0866  0.4532
 1826TIP3   OH227112   0.476   4.293   3.576  0.5993 -0.0854  0.1748
 1826TIP3    H127113   0.526   4.374   3.588  0.9771  0.3344 -3.2263
 1826TIP3    H227114   0.386   4.322   3.559  0.2968 -0.5130  1.0307
 1827TIP3   OH227115   5.635   3.166   4.747 -0.1814  0.1659  0.5630
 1827TIP3    H127116   5.593   3.082   4.767 -1.6637  0.7910  0.2166
 1827TIP3    H227117   5.569   3.231   4.769 -1.0893  1.0730 -3.9139
 1828TIP3   OH227118   3.168   5.587   2.405 -0.3706 -0.1677 -0.3566
 1828TIP3    H127119   3.081   5.625   2.417  0.3930  1.5315  0.1306
 1828TIP3    H227120   3.224   5.639   2.463  1.0800 -0.8187 -1.1425
 1829TIP3   OH227121   2.037   4.963   2.710 -0.1796  0.0493 -0.3045
 1829TIP3    H127122   1.972   4.919   2.655 -0.5726  1.9772 -1.4894
 1829TIP3    H227123   1.987   5.028   2.759  0.7731  1.2620 -0.8940
 1830TIP3   OH227124   5.477   3.581   1.310  0.2449  0.5277  0.1621
 1830TIP3    H127125   5.454   3.674   1.306  0.3409  0.5175 -0.6788
 1830TIP3    H227126   5.424   3.540   1.242  1.2351  0.1888 -0.4318
 1831TIP3   OH227127   3.316   0.960   3.504  1.1370 -0.6518  0.8777
 1831TIP3    H127128   3.341   1.050   3.484 -1.2031  0.0553  0.8489
 1831TIP3    H227129   3.352   0.908   3.431 -0.8072  0.8445 -1.2992
 1832TIP3   OH227130   4.678   1.618   2.070 -0.1087  0.2308  0.3025
 1832TIP3    H127131   4.644   1.604   2.158 -2.5800  1.5872 -0.3459
 1832TIP3    H227132   4.668   1.533   2.027 -0.1147 -0.0929  0.9358
 1833TIP3   OH227133   5.361   6.471   1.642 -0.9606 -0.3070 -0.2581
 1833TIP3    H127134   5.273   6.497   1.615 -1.0445 -1.7418 -1.5457
 1833TIP3    H227135   5.352   6.379   1.667 -0.0794 -0.0856  0.9487
 1834TIP3   OH227136   2.794   1.083   1.959 -0.3855  0.1927  0.1224
 1834TIP3    H127137   2.763   0.993   1.949  1.1780 -0.4218  0.4746
 1834TIP3    H227138   2.858   1.078   2.030  0.7008  1.3320 -0.7443
 1835TIP3   OH227139   4.754   0.038   3.124 -0.0869  0.2106 -0.7090
 1835TIP3    H127140   4.848   0.045   3.107  0.0984 -1.8261 -0.7156
 1835TIP3    H227141   4.734  -0.054   3.112 -1.8746  0.3917  0.4987
 1836TIP3   OH227142   2.641   5.023   1.971 -0.5219  0.2605  0.3615
 1836TIP3    H127143   2.684   5.095   1.924  2.0176  0.0781  2.2172
 1836TIP3    H227144   2.712   4.981   2.020 -2.0437 -3.0568 -0.0190
 1837TIP3   OH227145   2.293   3.485   3.223 -0.4509  0.2814 -0.2623
 1837TIP3    H127146   2.282   3.559   3.164 -0.4216  1.0884  0.7141
 1837TIP3    H227147   2.383   3.455   3.209  0.2499  1.7602  0.7826
 1838TIP3   OH227148   4.736   5.905   4.030  0.6115  0.1025 -0.3471
 1838TIP3    H127149   4.793   5.934   3.959 -0.3841  1.1871 -0.7447
 1838TIP3    H227150   4.675   5.844   3.989 -0.9123  1.8532 -0.8167
 1839TIP3   OH227151   0.993   2.354   2.037 -0.2192 -0.0695 -0.4829
 1839TIP3    H127152   0.939   2.276   2.025  0.6975 -1.4935  3.1470
 1839TIP3    H227153   0.971   2.384   2.126  4.0289 -0.1302  0.8128
 1840TIP3   OH227154   0.234   3.968   2.032  0.0829 -0.0030 -0.1553
 1840TIP3    H127155   0.200   3.942   2.118  0.2472 -2.2516 -0.7105
 1840TIP3    H227156   0.293   3.897   2.007  0.5816  0.9423 -1.8456
 1841TIP3   OH227157   3.869   6.597   5.079 -0.1345 -0.0839 -0.0105
 1841TIP3    H127158   3.930   6.631   5.013  2.3218  0.1651  2.2085
 1841TIP3    H227159   3.819   6.674   5.106  1.0402  0.5102  0.5699
 1842TIP3   OH227160   4.983   1.138   4.127 -0.0427 -0.0818  0.3204
 1842TIP3    H127161   4.944   1.158   4.042  1.0921  0.6251 -0.0627
 1842TIP3    H227162   5.046   1.069   4.109 -0.9020 -1.0503  0.8909
 1843TIP3   OH227163   6.046   4.238   4.185  0.2851  0.0631 -0.6141
 1843TIP3    H127164   5.969   4.278   4.225 -0.4204  1.0714 -2.8451
 1843TIP3    H227165   6.062   4.159   4.237 -1.4328  0.5321  0.7051
 1844TIP3   OH227166   5.969   2.501   0.903 -0.5126 -0.1475 -0.4649
 1844TIP3    H127167   6.022   2.427   0.873 -0.7280  0.2743 -1.9545
 1844TIP3    H227168   5.940   2.544   0.823  0.5498  2.2546  0.3510
 1845TIP3   OH227169   3.671   1.567   0.198  0.5296 -0.3648  0.1016
 1845TIP3    H127170   3.681   1.603   0.286  2.0215 -0.6721  0.0723
 1845TIP3    H227171   3.576   1.565   0.184  0.2260 -1.0801  2.0016
 1846TIP3   OH227172   0.404   4.782   2.686 -0.3676 -0.2674  0.2746
 1846TIP3    H127173   0.323   4.833   2.683  0.2918  0.8886  1.1778
 1846TIP3    H227174   0.382   4.699   2.643 -1.5437  0.6879 -1.0816
 1847TIP3   OH227175   5.077   6.267   4.260  0.5299 -0.0427 -0.6965
 1847TIP3    H127176   5.074   6.346   4.207 -0.4392  0.6744  0.3727
 1847TIP3    H227177   5.170   6.255   4.281  0.9390 -0.4094 -2.6054
 1848TIP3   OH227178   4.658   4.265   3.742  0.3382  0.3312  0.0799
 1848TIP3    H127179   4.582   4.282   3.685 -0.2293 -2.2443 -0.0585
 1848TIP3    H227180   4.727   4.321   3.707 -1.0342  1.5507 -0.8081
 1849TIP3   OH227181   3.191   0.574   3.637  0.2243  0.0387 -0.1189
 1849TIP3    H127182   3.143   0.493   3.650  0.6164 -0.3947 -1.2715
 1849TIP3    H227183   3.153   0.613   3.559  1.4661 -0.1241 -0.8377
 1850TIP3   OH227184   4.349   0.956   1.378  0.3274  0.5255 -0.7695
 1850TIP3    H127185   4.349   1.017   1.451  1.3184 -0.5506  0.1644
 1850TIP3    H227186   4.327   0.871   1.417 -2.2517  0.4048 -2.2057
 1851TIP3   OH227187   0.029   0.233   4.469 -0.0797 -0.4775  0.3033
 1851TIP3    H127188  -0.040   0.171   4.493 -0.7212  0.0682 -0.1106
 1851TIP3    H227189   0.004   0.314   4.513  0.1351 -0.1947 -0.0933
 1852TIP3   OH227190   6.623   3.028   5.026  0.0722  0.7036  0.5893
 1852TIP3    H127191   6.718   3.041   5.019 -0.0431  0.6620 -1.6211
 1852TIP3    H227192   6.611   2.990   5.114  2.2375 -0.4802  0.4573
 1853TIP3   OH227193   6.429   3.931   1.668  0.2405  0.3256 -0.2261
 1853TIP3    H127194   6.483   3.858   1.637  0.8070  0.0293  1.3363
 1853TIP3    H227195   6.396   3.973   1.589  1.1811 -0.6856 -1.1808
 1854TIP3   OH227196   4.245   1.496   2.874  0.0773 -0.1705  0.2848
 1854TIP3    H127197   4.304   1.571   2.875 -2.0507  1.6101  1.9275
 1854TIP3    H227198   4.168   1.526   2.825 -0.7961 -1.3086  0.8939
 1855TIP3   OH227199   5.484   2.243   1.776  0.1173  0.2502  0.0534
 1855TIP3    H127200   5.444   2.156   1.782  0.5213  0.1085  1.0346
 1855TIP3    H227201   5.544   2.246   1.851 -0.1126  1.4865  0.2081
 1856TIP3   OH227202   2.616   3.318   2.830  0.6027 -0.0602 -0.6549
 1856TIP3    H127203   2.635   3.270   2.911 -0.2757 -0.2963 -0.5741
 1856TIP3    H227204   2.582   3.402   2.860  0.9937  0.1451 -0.7873
 1857TIP3   OH227205   1.481   1.962   4.146  0.1492  0.1428  0.2207
 1857TIP3    H127206   1.398   2.007   4.164 -0.0657 -0.0685 -0.2191
 1857TIP3    H227207   1.469   1.926   4.058  0.9367  0.6122 -0.0841
 1858TIP3   OH227208   2.722   4.262   4.311  0.1140 -0.3435  0.0741
 1858TIP3    H127209   2.689   4.295   4.227  0.7212 -0.9215 -0.4009
 1858TIP3    H227210   2.782   4.330   4.342 -0.1685 -0.0959  0.0817
 1859TIP3   OH227211   0.076   4.013   3.128  0.3092  0.0715  0.0493
 1859TIP3    H127212   0.166   4.009   3.161  0.9415 -0.7389 -1.6378
 1859TIP3    H227213   0.068   4.102   3.094  0.7313 -0.0697 -0.4366
 1860TIP3   OH227214   4.347   4.748   4.225  0.2408  0.2724  0.4969
 1860TIP3    H127215   4.268   4.765   4.276 -0.2505  1.4192 -0.5840
 1860TIP3    H227216   4.340   4.807   4.150  1.0775 -1.1527 -0.7512
 1861TIP3   OH227217   0.829   0.528   1.574 -0.3335 -0.1108 -0.4626
 1861TIP3    H127218   0.834   0.552   1.667 -0.7766 -0.7647 -0.2675
 1861TIP3    H227219   0.817   0.433   1.574 -1.7952  0.0463 -1.1503
 1862TIP3   OH227220   5.442   1.557   2.697  0.3856  0.4255  0.2927
 1862TIP3    H127221   5.373   1.498   2.667  0.8589  0.1265 -0.2263
 1862TIP3    H227222   5.511   1.550   2.631  0.4385  1.6028  0.1921
 1863TIP3   OH227223   0.441   3.958   3.828  0.6601 -0.0739 -0.5247
 1863TIP3    H127224   0.535   3.952   3.814  1.1002 -0.5253  2.1316
 1863TIP3    H227225   0.413   3.868   3.842  0.6263  0.3220  2.6424
 1864TIP3   OH227226   1.017   6.388   3.295 -0.5331  0.3053  0.6660
 1864TIP3    H127227   1.089   6.376   3.356  1.2055  0.0836 -1.3375
 1864TIP3    H227228   0.984   6.300   3.278  4.2478 -1.0134 -4.6400
 1865TIP3   OH227229   4.345   5.211   3.395 -0.3259  0.2188 -0.1590
 1865TIP3    H127230   4.273   5.168   3.442 -0.7379  1.6436  0.5846
 1865TIP3    H227231   4.412   5.223   3.462 -0.0393  0.3333 -0.4670
 1866TIP3   OH227232   1.685   0.160   4.383  0.4206 -0.0828 -0.1139
 1866TIP3    H127233   1.769   0.164   4.337  0.5488 -1.7297 -0.0708
 1866TIP3    H227234   1.700   0.207   4.465  0.8495  0.9059 -0.7354
 1867TIP3   OH227235   4.135   4.902   1.171 -0.2501 -0.4072 -0.0149
 1867TIP3    H127236   4.127   4.988   1.213  0.6107  0.2857 -1.1913
 1867TIP3    H227237   4.229   4.886   1.167 -0.3024 -0.4864 -1.5557
 1868TIP3   OH227238   4.943   2.744   4.532  0.7724 -0.3478 -0.2291
 1868TIP3    H127239   4.890   2.776   4.459  1.0077 -1.7212 -1.0263
 1868TIP3    H227240   4.886   2.683   4.578  1.0314 -0.4029  0.0198
 1869TIP3   OH227241   4.567   5.368   2.334  0.1090 -0.7884  0.4608
 1869TIP3    H127242   4.605   5.345   2.250  2.2300 -2.6755  1.8005
 1869TIP3    H227243   4.581   5.463   2.342  1.8507 -0.9444 -0.4088
 1870TIP3   OH227244   0.972   5.704   1.612 -0.0863  0.3939  0.0632
 1870TIP3    H127245   1.025   5.774   1.651 -0.9698  0.9867  0.2106
 1870TIP3    H227246   0.967   5.728   1.519 -0.1659  0.3848  0.0654
 1871TIP3   OH227247   1.414   6.148   3.900 -0.6941 -0.0605  0.5983
 1871TIP3    H127248   1.338   6.201   3.923 -0.4010 -0.0282  1.5386
 1871TIP3    H227249   1.439   6.178   3.813  0.4934  2.5766  1.7331
 1872TIP3   OH227250   5.655   0.248   1.775 -0.4653 -0.4766  0.1844
 1872TIP3    H127251   5.663   0.284   1.863 -0.8251  1.9015 -0.6608
 1872TIP3    H227252   5.611   0.317   1.725  0.4359 -1.4080 -2.0408
 1873TIP3   OH227253   0.647   1.912   4.534  0.3089 -0.1576  0.0480
 1873TIP3    H127254   0.728   1.946   4.496  1.5843 -1.6212  1.3755
 1873TIP3    H227255   0.598   1.991   4.559  0.4523  0.7950 -2.3870
 1874TIP3   OH227256   1.057   1.278   4.948  0.4706  0.3166 -0.4541
 1874TIP3    H127257   1.068   1.199   4.895  1.5150 -0.3237  0.6536
 1874TIP3    H227258   0.978   1.263   4.998 -0.6591  1.0278 -1.9460
 1875TIP3   OH227259   0.544   3.593   5.170 -0.0156  0.5073  0.5158
 1875TIP3    H127260   0.463   3.632   5.138  0.5091  1.1285 -0.1116
 1875TIP3    H227261   0.516   3.518   5.222 -0.9913  0.7866  0.4169
 1876TIP3   OH227262   5.137   2.105   5.395 -0.3192  0.1273 -0.0106
 1876TIP3    H127263   5.058   2.111   5.449 -0.1747  0.1956  0.1953
 1876TIP3    H227264   5.113   2.045   5.324 -0.0058 -1.2406  1.0028
 1877TIP3   OH227265   1.348   4.805   2.855  0.3181  0.3318 -0.2169
 1877TIP3    H127266   1.408   4.785   2.927  0.9470 -0.8564 -1.0478
 1877TIP3    H227267   1.406   4.829   2.782 -0.2548  0.0742 -0.7629
 1878TIP3   OH227268   3.281   1.225   1.037 -0.0001  0.6509 -0.0891
 1878TIP3    H127269   3.232   1.285   0.980  1.6587  1.2184 -1.0063
 1878TIP3    H227270   3.331   1.170   0.976 -0.0604 -0.4041  0.7911
 1879TIP3   OH227271   5.223   4.878   0.566 -0.1730  0.0043 -0.1422
 1879TIP3    H127272   5.176   4.891   0.648 -0.6923  2.3685 -0.7396
 1879TIP3    H227273   5.290   4.946   0.565 -0.3936  0.2429 -1.8169
 1880TIP3   OH227274   6.598   0.153   2.876  0.5913  0.0602 -0.6997
 1880TIP3    H127275   6.567   0.062   2.871 -0.5740  0.3840  0.3516
 1880TIP3    H227276   6.547   0.192   2.947  0.6529  1.7209 -1.5378
 1881TIP3   OH227277   0.189   4.781   0.749  0.0318  0.1428  0.2361
 1881TIP3    H127278   0.140   4.722   0.691  1.3478 -0.8338  0.0737
 1881TIP3    H227279   0.237   4.838   0.689  1.2739 -0.7668  0.3244
 1882TIP3   OH227280   4.414   6.047   4.453  0.5278 -0.5309 -0.3289
 1882TIP3    H127281   4.403   5.975   4.391 -1.2570 -0.0714 -0.5943
 1882TIP3    H227282   4.366   6.120   4.415  0.2087  0.0583  1.1213
 1883TIP3   OH227283   5.941   1.960   5.069 -0.4482 -0.6767 -0.3649
 1883TIP3    H127284   5.965   1.922   5.153 -2.2666  0.4897  0.7732
 1883TIP3    H227285   6.004   2.031   5.056  0.3995 -1.4334 -0.4581
 1884TIP3   OH227286   4.288   6.128   2.704 -0.0772 -0.4730  0.3863
 1884TIP3    H127287   4.338   6.062   2.655 -0.8682 -0.9218  0.1756
 1884TIP3    H227288   4.261   6.191   2.637  0.6500  0.0625  0.5824
 1885TIP3   OH227289   5.486   3.814   1.559  0.3389 -0.7053 -0.1465
 1885TIP3    H127290   5.511   3.724   1.577 -1.6703 -1.1572  0.6635
 1885TIP3    H227291   5.428   3.838   1.632  0.7102  1.1887 -0.4214
 1886TIP3   OH227292   2.401   2.982   4.145 -0.3215 -0.3555 -0.0722
 1886TIP3    H127293   2.309   2.979   4.118  0.0026  0.0846 -1.2904
 1886TIP3    H227294   2.402   3.042   4.220 -1.0255 -0.3370 -0.0742
 1887TIP3   OH227295   1.863   4.470   3.852 -0.4534  0.4940 -0.0073
 1887TIP3    H127296   1.932   4.404   3.843 -1.5955 -0.8972  1.0191
 1887TIP3    H227297   1.834   4.486   3.762  0.1795 -0.0283 -0.3155
 1888TIP3   OH227298   2.998   6.061   0.493  0.8093  0.0183  0.3274
 1888TIP3    H127299   3.014   5.989   0.432  0.1738  0.4485 -0.3733
 1888TIP3    H227300   3.066   6.125   0.474 -1.2506  1.6372 -2.3158
 1889TIP3   OH227301   0.481   5.632   1.895 -0.0797  0.0092  0.2746
 1889TIP3    H127302   0.489   5.562   1.960  0.6774 -1.8965 -1.7548
 1889TIP3    H227303   0.486   5.588   1.811 -0.7503  2.4126 -1.1292
 1890TIP3   OH227304   0.675   2.445   2.220 -0.6201  0.1284  0.1980
 1890TIP3    H127305   0.759   2.490   2.209 -1.5661  1.9289 -0.0400
 1890TIP3    H227306   0.652   2.459   2.312 -0.9645  0.2360  0.0985
 1891TIP3   OH227307   1.069   4.763   3.358 -0.1246  0.2137 -0.0665
 1891TIP3    H127308   1.066   4.671   3.386 -0.1470  0.2225 -0.0406
 1891TIP3    H227309   1.006   4.769   3.287 -2.1758  0.8111  1.7007
 1892TIP3   OH227310   5.562   0.668   3.505  0.2171 -0.6578  0.6813
 1892TIP3    H127311   5.500   0.678   3.577  1.1233  0.0935  1.3817
 1892TIP3    H227312   5.534   0.733   3.440  0.8283  0.3601  1.4141
 1893TIP3   OH227313   5.506   5.645   4.308  0.1217  0.0971 -0.3784
 1893TIP3    H127314   5.423   5.647   4.354  0.3398 -0.5088  0.0568
 1893TIP3    H227315   5.518   5.553   4.284  0.6240  0.1912 -0.5111
 1894TIP3   OH227316   0.847   0.480   3.299  0.1682 -0.0633 -1.0935
 1894TIP3    H127317   0.938   0.492   3.272  2.1182 -1.6734  3.6480
 1894TIP3    H227318   0.838   0.385   3.309 -0.7057  0.2411  1.9281
 1895TIP3   OH227319   2.345   4.357   1.687  0.0899  0.4505 -0.6433
 1895TIP3    H127320   2.353   4.447   1.655 -3.4116  1.3482  0.5713
 1895TIP3    H227321   2.279   4.317   1.630 -0.1517 -0.5671  0.3237
 1896TIP3   OH227322   4.986   2.649   2.706  0.1237 -0.3830 -0.1864
 1896TIP3    H127323   4.940   2.715   2.655 -1.2764  0.2711  1.8218
 1896TIP3    H227324   4.923   2.578   2.718  0.6104 -0.7666  0.1883
 1897TIP3   OH227325   1.775   5.157   1.342 -0.5415  0.0867  0.0171
 1897TIP3    H127326   1.682   5.179   1.335 -0.7191 -0.8831 -0.9072
 1897TIP3    H227327   1.779   5.089   1.408 -0.1787  1.7045  1.7424
 1898TIP3   OH227328   0.274   5.582   2.568 -0.2222 -0.6243 -0.2085
 1898TIP3    H127329   0.279   5.496   2.611 -0.6167 -0.5683 -0.0489
 1898TIP3    H227330   0.233   5.639   2.634 -0.0701 -0.3409 -0.3584
 1899TIP3   OH227331   2.909   4.079   1.903  0.4733  0.2331 -0.1945
 1899TIP3    H127332   2.965   4.154   1.884 -1.5191  1.4134 -1.8686
 1899TIP3    H227333   2.880   4.091   1.993  1.1408  0.7939 -0.0513
 1900TIP3   OH227334   6.061   5.266   1.486 -0.3079  0.4751 -0.4898
 1900TIP3    H127335   6.113   5.313   1.421  1.4478 -1.9222 -0.9988
 1900TIP3    H227336   5.990   5.226   1.436 -0.4708  0.7414 -0.4695
 1901TIP3   OH227337   2.659   2.414   5.176  0.0654  0.0547 -0.3991
 1901TIP3    H127338   2.712   2.359   5.234  0.5831 -0.8457 -1.6889
 1901TIP3    H227339   2.685   2.389   5.088 -1.0590  1.0492 -1.0513
 1902TIP3   OH227340   2.900   0.645   1.493  0.0067  0.1897 -0.3549
 1902TIP3    H127341   2.888   0.737   1.516 -3.0772 -0.0588 -0.5545
 1902TIP3    H227342   2.911   0.646   1.398 -0.2425  0.3275 -0.3829
 1903TIP3   OH227343   2.082   5.847   3.794  0.2675 -0.8674 -0.2013
 1903TIP3    H127344   2.013   5.879   3.736 -1.1804  1.9278  2.7427
 1903TIP3    H227345   2.113   5.926   3.839  3.3609 -2.4770  0.7587
 1904TIP3   OH227346   1.153   1.816   4.609  0.2994 -0.0891 -0.4317
 1904TIP3    H127347   1.237   1.841   4.648 -0.7938 -0.8213  2.7094
 1904TIP3    H227348   1.162   1.837   4.516  2.6924  3.1457  0.3688
 1905TIP3   OH227349   3.828   3.950   3.699  0.1000 -0.1294 -0.0620
 1905TIP3    H127350   3.894   3.911   3.755  0.6351  0.5345 -0.2085
 1905TIP3    H227351   3.869   3.954   3.612  0.4825  1.6467  0.1438
 1906TIP3   OH227352   6.296   2.397   3.885  0.2534 -0.0102  0.0632
 1906TIP3    H127353   6.317   2.365   3.798  0.6812 -1.4431  0.6563
 1906TIP3    H227354   6.380   2.426   3.921 -0.2281  2.6249 -0.7310
 1907TIP3   OH227355   2.906   2.996   3.787  0.4587 -0.3137 -0.1764
 1907TIP3    H127356   2.960   3.029   3.859 -0.8992 -0.4506  0.9484
 1907TIP3    H227357   2.854   2.926   3.826  1.2052 -1.8805 -1.8347
 1908TIP3   OH227358   4.910   5.375   1.923  0.5046  0.0467 -0.6095
 1908TIP3    H127359   4.964   5.325   1.985  1.3502 -2.0605 -2.8364
 1908TIP3    H227360   4.856   5.431   1.977  0.1133 -2.7004  2.1301
 1909TIP3   OH227361   6.291   0.944   4.600 -0.2037 -0.6261 -0.0642
 1909TIP3    H127362   6.355   0.889   4.644  0.4025 -0.5902 -0.8670
 1909TIP3    H227363   6.289   0.912   4.510 -1.7879 -1.0252  0.0840
 1910TIP3   OH227364   3.917   2.432   3.921 -0.3692 -0.7756 -0.1396
 1910TIP3    H127365   3.931   2.485   4.000  0.9045 -0.3896 -0.5985
 1910TIP3    H227366   3.961   2.350   3.940  1.6690  0.0193 -1.1501
 1911TIP3   OH227367   1.827   4.148   4.266 -0.0296 -0.4804  0.0199
 1911TIP3    H127368   1.814   4.231   4.312 -1.0322 -0.0903 -0.9154
 1911TIP3    H227369   1.922   4.138   4.260  0.1067  0.1853  0.8458
 1912TIP3   OH227370   2.785   4.190   1.686 -0.3081 -0.2329  0.1278
 1912TIP3    H127371   2.816   4.139   1.761  0.0566 -1.1290 -0.6112
 1912TIP3    H227372   2.690   4.196   1.698 -0.1025  0.8615  1.3924
 1913TIP3   OH227373   4.729   2.856   4.353  0.6909 -0.1499 -0.0901
 1913TIP3    H127374   4.639   2.824   4.348 -0.0202  1.5487  1.0890
 1913TIP3    H227375   4.720   2.948   4.377  2.7879 -0.1754  0.9319
 1914TIP3   OH227376   2.521   6.445   3.224  0.1196  0.1203 -0.2446
 1914TIP3    H127377   2.451   6.509   3.234  2.5382  2.7422  1.9043
 1914TIP3    H227378   2.570   6.475   3.148 -0.4384 -1.0988 -1.1193
 1915TIP3   OH227379   5.928   4.472   4.670 -0.1305 -0.2383  0.4555
 1915TIP3    H127380   5.941   4.466   4.765  0.5175 -0.6790  0.3456
 1915TIP3    H227381   5.888   4.557   4.657 -3.7119 -1.5791  1.4879
 1916TIP3   OH227382   1.839   1.321   1.591  0.1326 -0.2919 -0.4946
 1916TIP3    H127383   1.801   1.324   1.503 -2.9175 -0.0832  0.6895
 1916TIP3    H227384   1.852   1.413   1.615 -1.5408 -0.1667  0.1417
 1917TIP3   OH227385   1.449   3.130   4.442 -0.2038  0.3906  0.1559
 1917TIP3    H127386   1.381   3.161   4.502 -1.2091 -1.4827  0.0496
 1917TIP3    H227387   1.450   3.035   4.454  2.3396  0.3326  0.0743
 1918TIP3   OH227388   0.173   4.743   1.582 -0.4448  0.6783 -0.2210
 1918TIP3    H127389   0.104   4.676   1.584 -0.9375  1.1106 -1.5375
 1918TIP3    H227390   0.232   4.719   1.654 -0.9370 -0.8144 -0.2739
 1919TIP3   OH227391   6.563   2.808   4.871 -0.6442 -0.1744 -0.2370
 1919TIP3    H127392   6.486   2.763   4.905 -1.8232  1.6601 -0.3342
 1919TIP3    H227393   6.581   2.877   4.935 -0.3442  0.6809 -1.2025
 1920TIP3   OH227394   3.903   4.929   2.826  0.1644  0.0812  0.2882
 1920TIP3    H127395   3.823   4.942   2.877  0.7020  1.7459  0.7685
 1920TIP3    H227396   3.877   4.871   2.754 -0.8169 -1.6512  1.9357
 1921TIP3   OH227397   3.219   1.779   4.963 -0.4784  0.1686 -0.0204
 1921TIP3    H127398   3.183   1.784   5.052  2.0435  0.4049  1.0814
 1921TIP3    H227399   3.189   1.694   4.930 -2.1488  0.4320  0.6942
 1922TIP3   OH227400   2.928   4.723   0.937  0.2508  0.3456  0.3189
 1922TIP3    H127401   2.845   4.678   0.924 -0.1280  0.4394  2.1104
 1922TIP3    H227402   2.921   4.762   1.025  1.7234  1.3563  0.0372
 1923TIP3   OH227403   3.445   5.697   2.809 -0.2837 -0.6707  0.3974
 1923TIP3    H127404   3.398   5.780   2.817 -0.8567 -1.0010  0.4707
 1923TIP3    H227405   3.446   5.661   2.897 -0.9394 -1.2310  0.1777
 1924TIP3   OH227406   4.856   3.354   5.137  0.1635 -0.1676  0.1853
 1924TIP3    H127407   4.823   3.437   5.104  0.9223  0.2284  0.3885
 1924TIP3    H227408   4.847   3.360   5.232  2.2398  0.6289  0.3982
 1925TIP3   OH227409   4.196   3.198   2.698  0.0548  0.2278 -0.0334
 1925TIP3    H127410   4.261   3.258   2.736  0.5378  0.7470 -1.6161
 1925TIP3    H227411   4.125   3.255   2.670 -0.0420 -0.0841 -0.4237
 1926TIP3   OH227412   3.041   6.666   2.046  0.2579  0.0550 -0.0947
 1926TIP3    H127413   3.030   6.571   2.053 -1.0833  0.2101  0.2486
 1926TIP3    H227414   3.097   6.690   2.120  2.1574 -0.6720 -1.2412
 1927TIP3   OH227415   3.639   6.679   4.583  0.1965  0.0929 -0.0086
 1927TIP3    H127416   3.687   6.623   4.644 -0.7114  0.4009  1.0135
 1927TIP3    H227417   3.577   6.619   4.541  0.8718 -0.1339 -0.7116
 1928TIP3   OH227418   6.077   6.294   4.766 -0.6590  0.3019 -0.0728
 1928TIP3    H127419   6.082   6.201   4.742  1.4844  0.6779 -1.3490
 1928TIP3    H227420   6.096   6.295   4.860  0.5837 -0.4803 -0.2888
 1929TIP3   OH227421   2.237   6.330   4.042  0.3943  0.1914  0.2243
 1929TIP3    H127422   2.154   6.370   4.067  0.0017 -0.0953 -0.5800
 1929TIP3    H227423   2.264   6.279   4.119 -0.7847 -0.6834  0.0766
 1930TIP3   OH227424   2.241   6.552   4.344 -0.4932  0.4146 -0.1259
 1930TIP3    H127425   2.271   6.638   4.373  1.1985 -0.0301 -0.4472
 1930TIP3    H227426   2.296   6.489   4.391 -1.4074 -0.4868 -0.2109
 1931TIP3   OH227427   6.345   4.105   1.129 -0.0849  0.2414 -0.1307
 1931TIP3    H127428   6.300   4.174   1.177  1.1069  0.9419  0.0390
 1931TIP3    H227429   6.367   4.039   1.195  0.1730  0.4646  0.0101
 1932TIP3   OH227430   4.123   1.341   1.423  0.1391  0.6357  0.8143
 1932TIP3    H127431   4.050   1.385   1.466  0.1240  0.5987  0.8264
 1932TIP3    H227432   4.154   1.404   1.358 -0.5661  0.2465  0.0934
 1933TIP3   OH227433   0.346   0.892   1.264 -0.3811  0.1701  0.1142
 1933TIP3    H127434   0.309   0.941   1.190  0.9422  0.4118 -0.4126
 1933TIP3    H227435   0.371   0.960   1.327  2.5270  0.3828 -1.0968
 1934TIP3   OH227436   2.942   2.196   3.310  0.5025  0.1960 -0.1289
 1934TIP3    H127437   2.871   2.231   3.257  0.6000 -0.1502 -0.4935
 1934TIP3    H227438   2.915   2.212   3.400 -0.7836 -1.3316 -0.1957
 1935TIP3   OH227439   1.723   3.130   3.078  0.1444  0.2274 -0.1431
 1935TIP3    H127440   1.699   3.218   3.048  2.2450  0.6720 -0.6830
 1935TIP3    H227441   1.699   3.073   3.006 -0.3726  0.4792 -0.1762
 1936TIP3   OH227442   0.963   3.910   1.344  0.1938  0.2807 -0.0122
 1936TIP3    H127443   0.931   3.819   1.342  0.1700  0.2929 -0.1851
 1936TIP3    H227444   1.058   3.901   1.344  0.1954  0.2426  0.5642
 1937TIP3   OH227445   0.376   2.999   5.214 -0.1891 -0.7253 -0.2864
 1937TIP3    H127446   0.392   2.916   5.258  0.0767 -0.2227  0.5941
 1937TIP3    H227447   0.391   2.981   5.122  1.0718 -1.3552  0.0262
 1938TIP3   OH227448   0.850   3.658   1.333 -0.0571  0.1107  0.0552
 1938TIP3    H127449   0.856   3.643   1.428 -1.3318 -0.1075  0.1126
 1938TIP3    H227450   0.772   3.712   1.322  0.7649  1.1835 -0.7749
 1939TIP3   OH227451   2.444   5.710   1.978 -0.1854 -0.7628 -0.2101
 1939TIP3    H127452   2.419   5.626   1.940 -0.0290 -1.1773  0.5951
 1939TIP3    H227453   2.383   5.773   1.939  0.2620 -1.0991 -1.4951
 1940TIP3   OH227454   1.667   1.448   4.645 -0.1622 -0.2096  0.4968
 1940TIP3    H127455   1.595   1.425   4.586  0.4192 -0.8947  0.0448
 1940TIP3    H227456   1.675   1.373   4.703 -0.8170  0.5174  1.5617
 1941TIP3   OH227457   4.358   4.151   4.631 -0.1410  0.1052  0.4291
 1941TIP3    H127458   4.431   4.091   4.646 -0.4792 -0.2989  0.4723
 1941TIP3    H227459   4.393   4.238   4.650  0.0688 -0.1730  1.3517
 1942TIP3   OH227460   4.542   5.766   3.286 -0.4831 -0.3047  0.5323
 1942TIP3    H127461   4.583   5.751   3.201  2.1941  2.0029  1.2552
 1942TIP3    H227462   4.569   5.691   3.340  1.8170  0.4688  0.5766
 1943TIP3   OH227463   4.203   1.439   4.995  0.0872  0.1604 -0.3840
 1943TIP3    H127464   4.141   1.368   4.981  0.6454  0.0698 -2.8382
 1943TIP3    H227465   4.287   1.396   5.010  0.3803  0.2666 -1.6301
 1944TIP3   OH227466   5.447   5.926   0.779  0.0326  0.1695  0.1959
 1944TIP3    H127467   5.368   5.972   0.751  1.5973  1.7281 -2.0268
 1944TIP3    H227468   5.453   5.851   0.720  1.1399  1.1202 -0.9660
 1945TIP3   OH227469   5.499   4.738   1.773  0.2892  0.4427  0.0595
 1945TIP3    H127470   5.470   4.828   1.764 -1.0131 -0.0911 -1.5053
 1945TIP3    H227471   5.548   4.720   1.693 -0.8084 -0.6953 -0.3785
 1946TIP3   OH227472   2.551   4.370   0.767 -0.0089 -0.2578 -0.1232
 1946TIP3    H127473   2.576   4.434   0.701 -0.8800  1.2157  0.9169
 1946TIP3    H227474   2.559   4.285   0.723  1.1272  0.5572 -1.5459
 1947TIP3   OH227475   4.840   0.977   3.631 -0.3666 -0.3413  0.0730
 1947TIP3    H127476   4.793   0.905   3.587 -1.7042  0.7201 -0.3178
 1947TIP3    H227477   4.837   0.953   3.724 -0.6876 -0.8636 -0.0608
 1948TIP3   OH227478   2.357   3.581   1.257 -0.1329 -0.5012  0.7552
 1948TIP3    H127479   2.451   3.598   1.256 -0.3949  1.1444 -0.2618
 1948TIP3    H227480   2.331   3.585   1.165 -1.3761  0.2993  1.1165
 1949TIP3   OH227481   2.547   3.166   3.543  0.0135  0.4224  0.2586
 1949TIP3    H127482   2.557   3.244   3.489 -1.6890  0.9576  0.6574
 1949TIP3    H227483   2.580   3.193   3.629  0.2873  0.4037  0.1603
 1950TIP3   OH227484   6.413   3.750   0.947 -0.3726  0.5324  0.5005
 1950TIP3    H127485   6.452   3.664   0.961  4.1176  2.4019  1.3727
 1950TIP3    H227486   6.403   3.787   1.035 -1.2336  1.2761  0.1075
 1951TIP3   OH227487   0.035   0.525   4.310 -0.2512 -0.1871 -0.1908
 1951TIP3    H127488   0.035   0.469   4.388  1.0610 -2.8005 -1.9134
 1951TIP3    H227489   0.119   0.508   4.269  0.9149  4.3529 -0.1058
 1952TIP3   OH227490   4.130   0.646   3.913 -0.4627 -0.4883  0.2102
 1952TIP3    H127491   4.037   0.649   3.888 -0.3338  0.5303 -0.2062
 1952TIP3    H227492   4.146   0.731   3.954  0.8426  0.3074 -1.8246
 1953TIP3   OH227493   1.908   6.625   1.612 -0.0934 -0.0065  0.1724
 1953TIP3    H127494   1.864   6.542   1.628  0.3715 -0.6643 -1.6753
 1953TIP3    H227495   1.982   6.602   1.556  0.8695  1.4824  0.7850
 1954TIP3   OH227496   3.257   1.983   1.498 -0.4215 -0.1772  0.2405
 1954TIP3    H127497   3.162   1.974   1.503 -0.3008 -2.2394 -0.4993
 1954TIP3    H227498   3.281   2.027   1.580 -1.8706 -0.9187  1.0962
 1955TIP3   OH227499   0.499   5.677   0.773  0.1575  0.1286 -0.3343
 1955TIP3    H127500   0.425   5.725   0.811 -0.8208 -1.3135 -0.3431
 1955TIP3    H227501   0.522   5.728   0.695 -1.9650 -0.2720 -1.2991
 1956TIP3   OH227502   2.320   2.720   2.737  0.0603  0.2117  0.3323
 1956TIP3    H127503   2.346   2.799   2.689  2.1792 -0.8538 -0.4077
 1956TIP3    H227504   2.301   2.656   2.669 -2.8074  0.3293  0.8992
 1957TIP3   OH227505   4.958   3.311   3.119 -0.3926 -0.3955  0.2006
 1957TIP3    H127506   4.893   3.370   3.158  0.5469  0.2343  0.8362
 1957TIP3    H227507   4.977   3.247   3.187  1.5807  0.9677  1.0283
 1958TIP3   OH227508   4.874   0.596   3.954  0.5660  0.1865 -0.3418
 1958TIP3    H127509   4.864   0.504   3.977 -0.2737  0.0172 -1.2863
 1958TIP3    H227510   4.801   0.640   3.997  0.7146  0.3398 -0.2459
 1959TIP3   OH227511   4.243   2.281   2.389  0.0183  0.1837  0.1605
 1959TIP3    H127512   4.322   2.229   2.400 -0.5531 -1.1259 -1.6227
 1959TIP3    H227513   4.270   2.354   2.333  0.1967  0.3299  0.4343
 1960TIP3   OH227514   0.943   2.548   2.551 -0.8716 -0.2842 -0.1924
 1960TIP3    H127515   1.011   2.550   2.619  0.0192 -0.7520 -1.0461
 1960TIP3    H227516   0.928   2.640   2.530 -1.8676 -0.0724  1.3007
 1961TIP3   OH227517   6.412   5.898   4.308 -0.3080  0.1677 -1.2647
 1961TIP3    H127518   6.494   5.851   4.289 -0.2640 -0.0543 -0.5730
 1961TIP3    H227519   6.360   5.835   4.358  0.8804  1.6932  2.2072
 1962TIP3   OH227520   2.435   2.746   2.985 -0.2787  0.0923  0.3621
 1962TIP3    H127521   2.382   2.742   2.906  2.8737  1.0465 -2.0079
 1962TIP3    H227522   2.401   2.820   3.035 -0.6341  1.2441 -1.5196
 1963TIP3   OH227523   6.304   5.640   1.227 -0.5318  0.1443  0.0093
 1963TIP3    H127524   6.245   5.694   1.175 -0.1059 -0.6787 -1.3855
 1963TIP3    H227525   6.249   5.570   1.261 -1.0117  1.2137  1.5273
 1964TIP3   OH227526   4.629   3.183   2.731 -0.7499 -0.3654 -0.7254
 1964TIP3    H127527   4.709   3.164   2.780 -1.1951  1.8048  1.0482
 1964TIP3    H227528   4.598   3.098   2.701  2.2452 -1.2714 -1.5674
 1965TIP3   OH227529   1.083   0.661   1.088  0.2255 -0.3557  0.1660
 1965TIP3    H127530   1.028   0.639   1.013 -1.8539  2.1368  0.8076
 1965TIP3    H227531   1.155   0.711   1.051  0.3558 -0.9260 -0.3628
 1966TIP3   OH227532   1.209   4.835   2.051 -0.0080 -0.2250  0.0306
 1966TIP3    H127533   1.287   4.785   2.073 -0.5697 -0.9654  0.4167
 1966TIP3    H227534   1.153   4.773   2.005  0.7746  1.0537 -2.8681
 1967TIP3   OH227535   4.465   4.926   3.885 -0.4290 -0.1270 -0.3232
 1967TIP3    H127536   4.539   4.970   3.927 -0.1655  1.0925 -1.9458
 1967TIP3    H227537   4.388   4.973   3.916 -0.7449 -2.1936  2.3675
 1968TIP3   OH227538   0.644   1.758   1.516  0.2145 -0.2556  0.3816
 1968TIP3    H127539   0.608   1.712   1.592  0.8492 -1.8647 -0.2714
 1968TIP3    H227540   0.569   1.771   1.458 -0.0443 -0.0817  0.7510
 1969TIP3   OH227541   1.781   1.686   4.012  0.2278 -0.5682 -0.2459
 1969TIP3    H127542   1.797   1.659   3.922 -1.2679  0.3246 -0.8138
 1969TIP3    H227543   1.699   1.642   4.036 -0.5602  0.9305 -0.1040
 1970TIP3   OH227544   3.003   1.873   1.079  0.1846  0.2027 -0.4133
 1970TIP3    H127545   3.062   1.928   1.130  0.8187  0.0068 -0.9212
 1970TIP3    H227546   2.989   1.796   1.133  3.0444 -1.2870 -1.6154
 1971TIP3   OH227547   4.109   4.721   4.327  0.3168 -0.1410  0.5059
 1971TIP3    H127548   4.096   4.671   4.247 -0.1024  1.0292 -0.1889
 1971TIP3    H227549   4.021   4.744   4.356  0.5061  0.6440  0.5008
 1972TIP3   OH227550   1.617   6.764   4.182 -0.0548  0.2311  0.0778
 1972TIP3    H127551   1.620   6.820   4.104  1.6125 -1.1931 -0.9662
 1972TIP3    H227552   1.653   6.818   4.252  1.5894  0.5265 -0.9248
 1973TIP3   OH227553   2.767   1.334   5.000  0.7683  0.7829 -0.5588
 1973TIP3    H127554   2.847   1.387   4.995  1.1314  0.3658  0.5737
 1973TIP3    H227555   2.787   1.256   4.948 -0.1312  2.1292 -3.1010
 1974TIP3   OH227556   2.431   3.196   1.079 -0.4687 -0.1119 -0.3715
 1974TIP3    H127557   2.381   3.172   1.157 -1.2601 -0.0164 -0.8397
 1974TIP3    H227558   2.370   3.184   1.007  0.1470  0.1483 -0.9422
 1975TIP3   OH227559   3.035   3.723   3.572  0.7624 -0.5744  0.3526
 1975TIP3    H127560   3.093   3.688   3.640  3.1280 -0.7887 -1.6492
 1975TIP3    H227561   2.981   3.648   3.546  0.2043 -0.6233  1.5574
 1976TIP3   OH227562   5.678   2.837   0.676  0.1647 -0.1654 -0.0832
 1976TIP3    H127563   5.619   2.842   0.600  0.9780  1.0479 -0.6674
 1976TIP3    H227564   5.621   2.809   0.748 -1.6822  2.9838 -0.1171
 1977TIP3   OH227565   4.289   1.672   5.155 -0.2986 -0.2715 -0.6266
 1977TIP3    H127566   4.271   1.587   5.195  1.1904 -1.8353 -3.0207
 1977TIP3    H227567   4.356   1.654   5.090 -0.2054  2.7153 -1.5070
 1978TIP3   OH227568   3.613   1.464   3.885  0.2645 -0.0181  0.0259
 1978TIP3    H127569   3.622   1.530   3.817  0.2625 -0.3829 -0.3269
 1978TIP3    H227570   3.520   1.468   3.910  0.3702  0.4515  0.3491
 1979TIP3   OH227571   0.830   1.568   1.962 -0.2531  0.2129  0.6439
 1979TIP3    H127572   0.789   1.652   1.981  1.3481  0.8268  1.6504
 1979TIP3    H227573   0.870   1.541   2.045  1.1182 -0.4475 -0.1809
 1980TIP3   OH227574   6.663   6.422   2.468 -0.4572  0.2222 -0.0953
 1980TIP3    H127575   6.679   6.420   2.374 -1.2638  0.8307 -0.2528
 1980TIP3    H227576   6.750   6.436   2.507 -0.0411 -0.6037 -0.7121
 1981TIP3   OH227577   3.902   6.359   5.270 -0.3283  0.2122  0.2081
 1981TIP3    H127578   3.878   6.399   5.186 -0.1781 -1.0348 -0.4433
 1981TIP3    H227579   3.938   6.274   5.247  1.7118  0.6847  1.3902
 1982TIP3   OH227580   3.032   1.691   3.063 -0.1898 -0.1942  0.6769
 1982TIP3    H127581   3.007   1.707   3.154 -0.7948 -0.4937  0.5633
 1982TIP3    H227582   2.966   1.631   3.029  0.0962 -0.1786  0.0693
 1983TIP3   OH227583   2.882   4.261   2.325 -0.6434  0.4297  0.0929
 1983TIP3    H127584   2.977   4.252   2.337 -0.9248 -1.0908  1.6136
 1983TIP3    H227585   2.857   4.328   2.388 -0.4217  1.9527 -1.3744
 1984TIP3   OH227586   6.219   5.700   5.005 -0.2758 -0.1070 -0.4151
 1984TIP3    H127587   6.128   5.724   4.990 -0.2843 -0.4441 -0.9254
 1984TIP3    H227588   6.221   5.666   5.094 -0.2263  1.9430  0.4223
 1985TIP3   OH227589   1.894   1.307   3.207  0.1818  0.1041  0.1105
 1985TIP3    H127590   1.904   1.269   3.294 -3.5660  1.4146  1.3191
 1985TIP3    H227591   1.837   1.246   3.160  0.3399  0.5096 -0.6293
 1986TIP3   OH227592   0.906   5.945   5.290  0.4778  0.0179  0.1457
 1986TIP3    H127593   0.941   5.979   5.208  1.2976  2.4551  1.4051
 1986TIP3    H227594   0.818   5.980   5.296  0.4776 -0.0141  0.3676
 1987TIP3   OH227595   5.886   0.762   1.127  0.0873  0.1918  0.1459
 1987TIP3    H127596   5.916   0.824   1.193 -1.1050  0.8307  0.1213
 1987TIP3    H227597   5.848   0.689   1.176  1.9363 -0.7967  0.1835
 1988TIP3   OH227598   0.079   1.710   2.175  0.3499 -0.1861  0.2129
 1988TIP3    H127599   0.095   1.803   2.162  0.3663 -0.4078 -1.4896
 1988TIP3    H227600  -0.016   1.702   2.176  0.3486 -0.2512 -0.4217
 1989TIP3   OH227601   2.495   1.680   0.354 -0.6717 -0.0140 -0.0893
 1989TIP3    H127602   2.451   1.765   0.347 -0.1984  0.2924  0.5472
 1989TIP3    H227603   2.429   1.616   0.327 -1.4325  0.4585  0.6232
 1990TIP3   OH227604   4.557   6.157   1.825 -0.1317 -0.7990 -0.5884
 1990TIP3    H127605   4.649   6.135   1.837 -0.6873 -2.8383  0.4302
 1990TIP3    H227606   4.556   6.252   1.810  1.8854 -0.1566  2.4676
 1991TIP3   OH227607   4.048   1.975   4.572  0.0171 -0.2757 -0.1057
 1991TIP3    H127608   4.060   2.070   4.566  1.9258 -0.4802 -0.1493
 1991TIP3    H227609   4.064   1.955   4.664 -0.4554 -0.5432 -0.0842
 1992TIP3   OH227610   0.526   0.495   1.270 -0.2510  0.4208  0.2291
 1992TIP3    H127611   0.498   0.416   1.316  0.5155 -1.0790 -1.7598
 1992TIP3    H227612   0.523   0.563   1.337  0.8463 -1.6139  2.5313
 1993TIP3   OH227613   1.942   1.393   4.970  0.0105 -0.0258  0.0010
 1993TIP3    H127614   1.894   1.460   4.922 -0.5107  1.5945  2.6084
 1993TIP3    H227615   1.875   1.347   5.021  0.7517 -0.3903  0.6654
 1994TIP3   OH227616   4.330   2.621   4.928  0.3225  0.2971  0.6396
 1994TIP3    H127617   4.425   2.623   4.918  0.3946  1.6778  1.3265
 1994TIP3    H227618   4.314   2.662   5.013 -0.9098  0.4714  0.3450
 1995TIP3   OH227619   5.167   1.578   1.835  0.1979 -0.1216  0.0792
 1995TIP3    H127620   5.098   1.546   1.894 -0.2505 -2.0755 -1.3704
 1995TIP3    H227621   5.128   1.569   1.747  1.1386  1.8963 -0.6013
 1996TIP3   OH227622   4.697   1.054   4.225 -0.2645  0.3128  0.4670
 1996TIP3    H127623   4.785   1.065   4.261 -0.0801 -2.4092  1.0817
 1996TIP3    H227624   4.642   1.034   4.301 -0.5104 -2.2360 -0.2697
 1997TIP3   OH227625   5.098   5.135   1.426 -0.0488  0.0121 -0.5495
 1997TIP3    H127626   5.006   5.109   1.425  0.1011 -0.5206 -1.9820
 1997TIP3    H227627   5.146   5.053   1.413  0.6322  0.3334 -0.1349
 1998TIP3   OH227628   0.927   0.418   3.861 -0.0634  0.2413 -0.8858
 1998TIP3    H127629   0.861   0.449   3.798 -0.7261 -0.2639 -0.4641
 1998TIP3    H227630   0.879   0.411   3.944  0.5395 -0.0850 -0.5596
 1999TIP3   OH227631   2.793   3.629   2.918 -0.1855 -0.2688  0.2549
 1999TIP3    H127632   2.845   3.627   2.837  1.2847  1.5852  1.0795
 1999TIP3    H227633   2.711   3.672   2.894  0.3596  0.5255 -0.2091
 2000TIP3   OH227634   4.535   5.595   2.131  0.1650 -0.1869  0.1760
 2000TIP3    H127635   4.627   5.613   2.109  0.4028 -1.1660  0.3253
 2000TIP3    H227636   4.506   5.674   2.177  0.8440  0.2480 -0.1137
 2001TIP3   OH227637   6.436   5.146   2.966  0.2276  0.1520  0.2264
 2001TIP3    H127638   6.383   5.069   2.944  1.6749 -0.4165 -1.5586
 2001TIP3    H227639   6.383   5.220   2.937  0.9615 -0.4782 -3.2452
 2002TIP3   OH227640   2.540   4.653   1.332 -0.3166  0.2188 -0.1577
 2002TIP3    H127641   2.581   4.736   1.310  0.6716 -0.0686  0.5302
 2002TIP3    H227642   2.498   4.625   1.250  0.4702  0.7466 -0.7587
 2003TIP3   OH227643   1.971   3.261   2.880 -0.1836 -0.1678  0.4337
 2003TIP3    H127644   2.006   3.187   2.830 -0.5293  0.2848 -0.5129
 2003TIP3    H227645   1.890   3.229   2.919 -0.5223 -0.1912 -0.2744
 2004TIP3   OH227646   1.232   2.727   1.601  0.1120 -0.1690  0.7835
 2004TIP3    H127647   1.299   2.697   1.662 -0.3050 -2.7917  0.0588
 2004TIP3    H227648   1.279   2.736   1.518 -0.1360 -0.5257  0.6062
 2005TIP3   OH227649   1.722   1.066   4.490 -0.0760 -0.5176  0.7212
 2005TIP3    H127650   1.687   1.007   4.423 -0.5747  1.5445 -0.9414
 2005TIP3    H227651   1.645   1.089   4.543 -0.2454  0.0089  0.2561
 2006TIP3   OH227652   1.083   5.208   2.227  0.6170 -0.7238 -0.1680
 2006TIP3    H127653   1.069   5.197   2.133 -2.4439 -1.7321  0.3049
 2006TIP3    H227654   1.093   5.302   2.239 -1.1379 -0.3569 -1.3020
 2007TIP3   OH227655   4.485   4.805   2.762 -0.2183 -0.9050  0.0003
 2007TIP3    H127656   4.558   4.744   2.757 -1.9063 -2.9603 -1.8245
 2007TIP3    H227657   4.460   4.821   2.670 -0.0410  2.3928  0.4047
 2008TIP3   OH227658   0.661   4.439   2.103 -0.2803  0.8632  0.1862
 2008TIP3    H127659   0.741   4.408   2.145 -1.1616  0.0153  1.2972
 2008TIP3    H227660   0.590   4.404   2.156 -1.3940  2.4228 -0.1744
 2009TIP3   OH227661   2.223   1.955   1.681 -0.0546 -0.0867 -0.1573
 2009TIP3    H127662   2.227   1.881   1.741  0.7105  1.4182  1.7552
 2009TIP3    H227663   2.143   2.002   1.705  1.2559  1.6167  1.1224
 2010TIP3   OH227664   3.020   5.593   3.995 -0.7276  0.3144  0.2309
 2010TIP3    H127665   3.113   5.609   4.015 -0.1298 -1.2286 -1.1065
 2010TIP3    H227666   2.993   5.528   4.060 -0.8267  0.6171  0.4957
 2011TIP3   OH227667   2.086   2.683   2.001 -0.2573 -0.8236  0.0047
 2011TIP3    H127668   2.023   2.630   2.050 -2.2789  1.4213 -0.0345
 2011TIP3    H227669   2.166   2.678   2.053 -1.8165  0.0791  2.6775
 2012TIP3   OH227670   6.395   3.115   4.522  1.1334 -0.4916 -0.1192
 2012TIP3    H127671   6.414   3.201   4.485  1.9391 -0.4545  0.3715
 2012TIP3    H227672   6.478   3.068   4.519  0.2954 -1.9972 -2.2491
 2013TIP3   OH227673   3.243   2.719   1.365 -0.1353 -0.6786 -0.2210
 2013TIP3    H127674   3.307   2.699   1.296  1.4736  0.0218  1.0027
 2013TIP3    H227675   3.262   2.655   1.434 -2.0152 -1.6584 -0.5349
 2014TIP3   OH227676   2.069   2.964   1.778 -0.5110 -0.2556  0.8415
 2014TIP3    H127677   2.162   2.939   1.774 -0.1091  1.3274 -1.4752
 2014TIP3    H227678   2.051   2.972   1.872  1.1534 -2.3450  1.4452
 2015TIP3   OH227679   6.051   4.636   2.048  0.2306  0.2016  0.0809
 2015TIP3    H127680   6.090   4.596   2.126 -0.3347  2.2077  1.4503
 2015TIP3    H227681   6.040   4.728   2.071 -0.4885  0.7375 -2.1847
 2016TIP3   OH227682   5.481   5.916   3.242 -0.2164  0.5212 -0.4212
 2016TIP3    H127683   5.563   5.884   3.277 -1.4452 -2.9042 -0.3385
 2016TIP3    H227684   5.437   5.958   3.316  0.1910 -0.3305  0.3090
 2017TIP3   OH227685   1.236   2.045   4.969 -0.6940  0.3007 -0.0863
 2017TIP3    H127686   1.187   2.032   5.050 -2.4290  1.2668 -0.8933
 2017TIP3    H227687   1.328   2.035   4.993 -1.0874  1.6370  2.2295
 2018TIP3   OH227688   6.327   3.857   3.324  0.3543  0.1904  0.2316
 2018TIP3    H127689   6.254   3.918   3.315  0.6180  0.3355 -1.0864
 2018TIP3    H227690   6.389   3.902   3.380  0.3668  0.9591 -0.3987
 2019TIP3   OH227691   6.565   3.975   3.850 -0.4032 -0.1667  0.1022
 2019TIP3    H127692   6.561   3.993   3.944 -1.5094 -1.6351  0.3735
 2019TIP3    H227693   6.473   3.969   3.823 -0.1041  0.3871 -1.1273
 2020TIP3   OH227694   4.865   0.271   3.903 -0.4431  0.2192  0.2064
 2020TIP3    H127695   4.879   0.182   3.871  0.0469  1.2829 -2.9653
 2020TIP3    H227696   4.833   0.261   3.992  1.0298 -3.0484  0.4724
 2021TIP3   OH227697   5.884   6.101   1.597  0.1587  0.3388 -0.0994
 2021TIP3    H127698   5.873   6.196   1.591  0.0174  0.3268 -0.0327
 2021TIP3    H227699   5.969   6.084   1.555  0.7965  0.6346  1.0342
 2022TIP3   OH227700   4.285   0.772   3.263 -0.1596  0.0254 -0.1608
 2022TIP3    H127701   4.282   0.678   3.248 -1.6293  0.1605 -0.9672
 2022TIP3    H227702   4.378   0.794   3.266  0.2504 -1.7181  2.0175
 2023TIP3   OH227703   3.504   6.138   2.242  0.3859 -0.1133  0.1250
 2023TIP3    H127704   3.446   6.179   2.307  1.5346 -0.9218  1.7303
 2023TIP3    H227705   3.535   6.211   2.188 -2.4735  0.2825 -1.1412
 2024TIP3   OH227706   3.904   3.256   5.073 -0.0697 -0.4092 -0.4648
 2024TIP3    H127707   3.933   3.290   4.988  0.2061  1.0747  0.1815
 2024TIP3    H227708   3.838   3.319   5.102  1.2302  0.2217  1.2738
 2025TIP3   OH227709   0.252   4.295   3.230  1.1802 -0.7981  0.2024
 2025TIP3    H127710   0.263   4.316   3.322  0.4454  2.2895 -0.3017
 2025TIP3    H227711   0.325   4.338   3.186  0.5852 -0.7588 -0.8018
 2026TIP3   OH227712   1.624   5.067   2.449  0.1861  0.6596 -0.3187
 2026TIP3    H127713   1.684   4.999   2.419 -1.7151 -1.2042 -0.1705
 2026TIP3    H227714   1.569   5.086   2.373 -1.9841 -1.1127  0.6529
 2027TIP3   OH227715   5.094   5.767   3.957 -0.2140  0.3910  0.0488
 2027TIP3    H127716   5.157   5.838   3.944  0.6469 -0.1476  1.1308
 2027TIP3    H227717   5.102   5.745   4.049 -2.6294  0.8705  0.4196
 2028TIP3   OH227718   1.227   0.016   1.149  0.2984  0.0689  0.5874
 2028TIP3    H127719   1.265   0.050   1.068  0.5322 -1.4328  0.0430
 2028TIP3    H227720   1.133   0.031   1.140  0.3952  0.5506  0.3579
 2029TIP3   OH227721   5.003   4.633   2.756 -0.5142 -0.3339 -0.8259
 2029TIP3    H127722   4.973   4.651   2.845  0.0819 -2.0859 -0.2383
 2029TIP3    H227723   4.969   4.706   2.705 -1.7167  0.2051  0.6497
 2030TIP3   OH227724   1.871   2.891   3.181 -0.0842  0.3288  0.0612
 2030TIP3    H127725   1.798   2.829   3.174  1.1222 -1.0092 -1.5876
 2030TIP3    H227726   1.841   2.969   3.136 -1.1970  0.5457  1.1321
 2031TIP3   OH227727   5.501   0.123   4.808  0.2405 -0.3652 -0.4675
 2031TIP3    H127728   5.460   0.167   4.734 -1.0805  0.9708  0.9609
 2031TIP3    H227729   5.552   0.192   4.851  0.6617 -1.0131  0.1022
 2032TIP3   OH227730   5.610   6.345   3.297  0.2101 -0.2269 -0.0347
 2032TIP3    H127731   5.563   6.363   3.378 -0.0668 -2.5798  0.4201
 2032TIP3    H227732   5.687   6.402   3.300 -0.0050  0.0142  1.6977
 2033TIP3   OH227733   4.290   5.324   2.323 -0.4511  0.4081 -0.1484
 2033TIP3    H127734   4.380   5.351   2.303  0.5230 -0.9103  2.0266
 2033TIP3    H227735   4.254   5.396   2.375 -0.6358  0.8803 -0.9121
 2034TIP3   OH227736   4.819   4.819   0.646 -0.1877  0.0976  0.2020
 2034TIP3    H127737   4.839   4.749   0.583  1.0368 -0.4625  1.1729
 2034TIP3    H227738   4.904   4.852   0.673 -0.7306  1.2265  0.5928
 2035TIP3   OH227739   4.844   0.745   1.055  0.5254  0.4960  0.5392
 2035TIP3    H127740   4.910   0.701   1.001 -0.2415 -0.8155  0.6216
 2035TIP3    H227741   4.871   0.837   1.055  1.7081  0.1841 -0.3553
 2036TIP3   OH227742   0.640   2.827   5.084  0.0781  0.2453 -0.2636
 2036TIP3    H127743   0.714   2.883   5.108  1.3281 -0.1053 -3.0045
 2036TIP3    H227744   0.658   2.744   5.127  0.7244  0.4878 -0.0542
 2037TIP3   OH227745   0.443   2.655   1.123  0.5010  0.3602  0.7774
 2037TIP3    H127746   0.500   2.579   1.115  0.7990  0.5351  1.2019
 2037TIP3    H227747   0.502   2.727   1.148  0.0897  0.5259  1.2887
 2038TIP3   OH227748   4.449   2.974   4.548  0.7085  0.4615  0.2010
 2038TIP3    H127749   4.464   2.920   4.471  1.0795  1.4823 -0.4662
 2038TIP3    H227750   4.356   2.995   4.546  0.7369  0.5668 -0.0283
 2039TIP3   OH227751   5.058   1.292   2.649 -0.3851  0.4359  0.2428
 2039TIP3    H127752   5.088   1.337   2.570  1.1010  2.4795  1.8351
 2039TIP3    H227753   4.963   1.291   2.642 -0.4778  3.3862 -0.2230
 2040TIP3   OH227754   5.527   3.006   3.735  0.2912 -0.0534 -0.9199
 2040TIP3    H127755   5.535   3.066   3.808  1.6447 -2.0864  0.7301
 2040TIP3    H227756   5.438   2.971   3.742 -0.0791  0.8295 -1.1531
 2041TIP3   OH227757   4.722   1.311   3.197 -0.5689 -0.0184  0.6136
 2041TIP3    H127758   4.708   1.317   3.102 -0.3932  0.4394  0.6138
 2041TIP3    H227759   4.639   1.277   3.231 -0.7576  0.1536  0.3320
 2042TIP3   OH227760   6.350   1.495   1.724 -0.3476  0.3152 -0.8282
 2042TIP3    H127761   6.407   1.471   1.797 -0.1010  0.8761 -0.8347
 2042TIP3    H227762   6.292   1.562   1.759  0.3336  1.2038 -1.3746
 2043TIP3   OH227763   0.920   3.554   1.588 -0.7658  0.3919  0.2267
 2043TIP3    H127764   0.962   3.637   1.607 -1.3061  1.0032 -1.0712
 2043TIP3    H227765   0.939   3.498   1.664  1.0388  1.1246  0.3571
 2044TIP3   OH227766   0.574   6.729   3.493 -0.6158  0.3920  0.4703
 2044TIP3    H127767   0.597   6.723   3.585  0.1547  1.2382  0.3488
 2044TIP3    H227768   0.510   6.800   3.488 -0.5239  0.4672  0.3399
 2045TIP3   OH227769   5.378   6.128   1.086 -0.6400 -1.0610  0.2852
 2045TIP3    H127770   5.294   6.114   1.042  0.2001 -2.1945 -1.0097
 2045TIP3    H227771   5.376   6.067   1.160 -0.2920 -2.3729 -0.7398
 2046TIP3   OH227772   6.420   1.573   3.954 -0.9272  0.6190 -0.7439
 2046TIP3    H127773   6.328   1.555   3.974 -0.8248 -0.6255 -1.2607
 2046TIP3    H227774   6.447   1.499   3.898 -0.2569  2.1267 -2.5086
 2047TIP3   OH227775   1.438   5.161   5.224 -0.0888  0.0804 -0.1888
 2047TIP3    H127776   1.384   5.194   5.152  1.3709 -1.5473 -2.1655
 2047TIP3    H227777   1.482   5.238   5.259 -0.8885  0.9345 -1.0223
 2048TIP3   OH227778   1.234   3.503   0.442 -0.2339 -0.1381  0.7139
 2048TIP3    H127779   1.318   3.542   0.466  0.4511 -0.1914 -1.3943
 2048TIP3    H227780   1.184   3.576   0.404 -0.1857 -0.5949 -0.2632
 2049TIP3   OH227781   4.691   4.379   4.056 -0.1947  0.3309 -0.2521
 2049TIP3    H127782   4.648   4.359   3.973 -1.1605  0.9641  0.0798
 2049TIP3    H227783   4.691   4.296   4.103 -0.9101  0.2769 -0.3295
 2050TIP3   OH227784   2.279   1.193   1.845  0.0528 -0.2099  0.0852
 2050TIP3    H127785   2.206   1.238   1.802  0.3783  0.5647  0.3356
 2050TIP3    H227786   2.326   1.151   1.773  0.7489  1.2976 -0.3888
 2051TIP3   OH227787   3.048   1.137   2.090 -0.4179 -0.6052 -0.3587
 2051TIP3    H127788   3.031   1.167   2.179  0.2311 -2.5364  0.4885
 2051TIP3    H227789   3.110   1.201   2.054 -1.7850  0.9887  0.0217
 2052TIP3   OH227790   5.274   5.875   2.440  0.3253  0.2606 -0.4204
 2052TIP3    H127791   5.336   5.876   2.513  0.5190  0.8181 -0.5922
 2052TIP3    H227792   5.241   5.785   2.439  0.9101  0.0367 -0.1464
 2053TIP3   OH227793   4.355   3.647   4.679  0.4749  0.1748  0.3479
 2053TIP3    H127794   4.279   3.703   4.676  0.6994  0.4770  0.2936
 2053TIP3    H227795   4.421   3.692   4.626  0.5095 -0.3578 -0.0741
 2054TIP3   OH227796   3.034   0.197   5.602  0.5742 -0.1553 -0.9611
 2054TIP3    H127797   2.970   0.160   5.541 -0.4865  0.2417 -0.1190
 2054TIP3    H227798   3.008   0.165   5.688  0.4659  1.3877 -0.3867
 2055TIP3   OH227799   0.567   2.388   3.054 -0.3876  0.4309  0.4271
 2055TIP3    H127800   0.516   2.400   2.974 -0.7720 -1.3900  0.3622
 2055TIP3    H227801   0.503   2.359   3.119  0.3252 -0.6359  0.6841
 2056TIP3   OH227802   1.982   5.383   2.594  0.6350  0.3140 -0.1054
 2056TIP3    H127803   2.014   5.470   2.569 -0.4084  1.4993  2.2831
 2056TIP3    H227804   1.970   5.389   2.689 -1.9695 -1.5956 -0.2129
 2057TIP3   OH227805   1.369   3.961   1.063  0.7756 -0.3009  0.2697
 2057TIP3    H127806   1.304   4.011   1.113 -0.7762 -1.9492  0.0054
 2057TIP3    H227807   1.442   3.949   1.123  1.4353  2.5835  0.2169
 2058TIP3   OH227808   6.407   4.098   0.326  0.3979 -0.2585 -0.3526
 2058TIP3    H127809   6.492   4.115   0.286  0.2856 -1.1672 -0.9997
 2058TIP3    H227810   6.426   4.033   0.394 -0.0441 -1.9218 -1.7640
 2059TIP3   OH227811   3.342   3.355   4.097  0.9909  0.0520  0.4701
 2059TIP3    H127812   3.263   3.371   4.045  1.6662  0.4002 -0.4647
 2059TIP3    H227813   3.345   3.429   4.158 -0.8863 -1.3600  2.4381
 2060TIP3   OH227814   3.602   6.553   5.156 -0.1635 -0.0910 -0.1264
 2060TIP3    H127815   3.553   6.473   5.140 -1.5556  0.8697 -0.9091
 2060TIP3    H227816   3.690   6.535   5.121 -0.8080 -0.8727 -1.4238
 2061TIP3   OH227817   0.242   3.836   1.079  0.0209 -0.0828  0.0278
 2061TIP3    H127818   0.333   3.807   1.080 -0.4488 -1.8044 -1.2697
 2061TIP3    H227819   0.221   3.847   0.986 -0.9876  0.6250  0.3242
 2062TIP3   OH227820   6.178   6.390   4.039  0.0913  0.4083  0.0889
 2062TIP3    H127821   6.218   6.418   4.121  1.7898  0.6079 -0.7773
 2062TIP3    H227822   6.198   6.461   3.978  0.0494 -0.3873 -0.8590
 2063TIP3   OH227823   0.865   3.255   1.636 -0.1953 -0.3141 -0.2278
 2063TIP3    H127824   0.872   3.173   1.588 -2.0905 -0.7204  0.1184
 2063TIP3    H227825   0.818   3.232   1.716 -0.8224  1.1129 -0.1563
 2064TIP3   OH227826   5.313   3.772   4.344  0.4490  0.4144 -0.0276
 2064TIP3    H127827   5.315   3.713   4.420  1.7702  1.4550  0.8063
 2064TIP3    H227828   5.397   3.756   4.301  0.3227  0.8814 -0.4414
 2065TIP3   OH227829   4.707   3.722   3.939 -0.4100 -0.0616  0.5518
 2065TIP3    H127830   4.708   3.655   4.007 -0.4430  0.0280  0.6417
 2065TIP3    H227831   4.617   3.721   3.906 -0.1037 -0.9095 -0.2987
 2066TIP3   OH227832   6.690   4.313   3.611 -0.3184  0.1678  0.4048
 2066TIP3    H127833   6.699   4.351   3.698 -1.4281  1.1847  0.0966
 2066TIP3    H227834   6.687   4.218   3.626  0.9998  0.2547  1.3136
 2067TIP3   OH227835   2.223   3.602   4.872 -0.1607 -0.8749  0.0975
 2067TIP3    H127836   2.158   3.554   4.820 -1.5683  1.2390 -0.2420
 2067TIP3    H227837   2.198   3.587   4.963 -0.9196 -0.4073 -0.0226
 2068TIP3   OH227838   3.287   4.019   2.799  0.5128 -0.0111  0.6339
 2068TIP3    H127839   3.247   4.047   2.882 -0.2153 -1.8244  0.9337
 2068TIP3    H227840   3.376   3.994   2.824  0.9715  1.3549  0.4692
 2069TIP3   OH227841   2.966   2.506   0.966 -0.1408 -0.7846  0.1762
 2069TIP3    H127842   2.927   2.525   1.051  0.1596  0.5557  0.0373
 2069TIP3    H227843   2.915   2.559   0.904  1.7436  0.9133 -0.0244
 2070TIP3   OH227844   0.004   5.516   4.567  0.0626  0.1777 -0.3503
 2070TIP3    H127845  -0.023   5.447   4.506 -2.0376  0.9856 -0.4235
 2070TIP3    H227846   0.044   5.583   4.512  1.7649 -0.7580 -0.3219
 2071TIP3   OH227847   1.828   5.183   4.768 -0.1009  0.5460 -0.7276
 2071TIP3    H127848   1.850   5.215   4.680  2.3338  1.8756  0.2650
 2071TIP3    H227849   1.754   5.123   4.754  0.2846  0.6048 -3.6745
 2072TIP3   OH227850   2.206   4.437   4.135 -0.8286 -0.4817 -0.1090
 2072TIP3    H127851   2.217   4.407   4.044 -0.6076  0.4110 -0.3888
 2072TIP3    H227852   2.294   4.463   4.162 -0.4982 -2.5777  1.0687
 2073TIP3   OH227853   2.529   3.559   2.448 -0.1053 -0.3791  0.4471
 2073TIP3    H127854   2.564   3.592   2.365 -0.0842 -0.8805  0.2511
 2073TIP3    H227855   2.436   3.544   2.430 -0.5193  1.2089  1.0439
 2074TIP3   OH227856   3.014   2.434   3.494  0.7982 -0.1642 -0.1366
 2074TIP3    H127857   3.056   2.362   3.541 -1.2998 -1.8149 -0.5741
 2074TIP3    H227858   2.937   2.455   3.547  1.0240  1.3520 -0.3657
 2075TIP3   OH227859   5.811   2.607   3.295  0.1783 -0.0551 -0.0108
 2075TIP3    H127860   5.852   2.692   3.287  2.8880 -1.3432 -0.8152
 2075TIP3    H227861   5.813   2.570   3.207  1.3235 -1.9000  0.7311
 2076TIP3   OH227862   5.300   1.514   2.447  0.5650  0.4741 -0.2086
 2076TIP3    H127863   5.328   1.599   2.482  0.0951  0.0784  1.1845
 2076TIP3    H227864   5.208   1.527   2.425  0.1281 -0.0156  1.2323
 2077TIP3   OH227865   2.230   1.874   1.197 -0.0405 -0.1975  0.1192
 2077TIP3    H127866   2.281   1.904   1.272  0.9637  0.3989 -0.7649
 2077TIP3    H227867   2.244   1.779   1.194 -0.8769 -0.3673  1.2381
 2078TIP3   OH227868   4.533   3.525   4.833  0.3128 -0.3306 -0.5963
 2078TIP3    H127869   4.464   3.552   4.773  0.7933  0.8491 -0.6314
 2078TIP3    H227870   4.600   3.486   4.776  0.3351 -0.1114 -0.7192
 2079TIP3   OH227871   6.351   3.566   4.059 -1.0671  0.1005  0.3290
 2079TIP3    H127872   6.333   3.537   3.970 -1.1305  1.4107 -0.1064
 2079TIP3    H227873   6.419   3.506   4.091  1.0144  1.2836 -1.5994
 2080TIP3   OH227874   3.206   6.763   4.126 -0.3547  0.3122 -0.2004
 2080TIP3    H127875   3.179   6.853   4.147 -0.7534  0.0669  0.3372
 2080TIP3    H227876   3.287   6.750   4.176  0.1033  0.6083 -0.8353
 2081TIP3   OH227877   4.211   4.806   0.799  0.4045 -0.2758 -0.3180
 2081TIP3    H127878   4.202   4.901   0.801  0.2935 -0.2700 -0.9204
 2081TIP3    H227879   4.159   4.776   0.874  0.8551  0.1605  0.1821
 2082TIP3   OH227880   2.457   1.984   3.925 -0.0917  0.1555 -0.7398
 2082TIP3    H127881   2.467   1.940   4.010 -2.6335  0.0385 -0.4317
 2082TIP3    H227882   2.426   2.072   3.947  2.6669  1.4298 -1.4665
 2083TIP3   OH227883   0.701   6.752   3.156 -0.5243 -0.7074 -0.5793
 2083TIP3    H127884   0.613   6.716   3.166 -0.3203 -0.6344  2.3768
 2083TIP3    H227885   0.691   6.845   3.174  0.0154 -0.4934 -1.3260
 2084TIP3   OH227886   3.588   0.142   4.418  0.3326  0.1572  0.1014
 2084TIP3    H127887   3.637   0.073   4.463 -0.9299 -1.7584 -1.2897
 2084TIP3    H227888   3.543   0.189   4.489  0.3850 -1.1392  1.0379
 2085TIP3   OH227889   6.041   2.427   2.220 -0.4854 -0.0844 -0.2893
 2085TIP3    H127890   6.074   2.429   2.310  2.0135 -1.1270 -1.1014
 2085TIP3    H227891   6.053   2.517   2.188  0.1339 -0.0870 -0.0759
 2086TIP3   OH227892   4.511   6.423   1.906  0.4382  0.7375 -0.2478
 2086TIP3    H127893   4.569   6.399   1.978  0.9569  0.4983 -0.7396
 2086TIP3    H227894   4.424   6.431   1.946  0.2797 -1.6224  0.0173
 2087TIP3   OH227895   4.276   6.177   3.851  0.4173  0.4028 -0.2502
 2087TIP3    H127896   4.238   6.097   3.886 -1.3187  0.7604 -1.1724
 2087TIP3    H227897   4.365   6.153   3.827 -0.0205 -1.2161 -0.3706
 2088TIP3   OH227898   1.351   6.265   2.900  0.6019 -0.2345  0.2316
 2088TIP3    H127899   1.270   6.295   2.940  0.7015  0.8283 -0.3172
 2088TIP3    H227900   1.351   6.170   2.912  1.0378  0.0735  3.4394
 2089TIP3   OH227901   6.434   3.942   0.552 -0.2310 -0.1672  0.3461
 2089TIP3    H127902   6.482   3.861   0.534  0.3248  0.3755 -0.7640
 2089TIP3    H227903   6.469   3.974   0.635 -1.3342 -1.6807  1.4377
 2090TIP3   OH227904   5.687   3.276   3.376 -0.3674 -0.0877  0.2858
 2090TIP3    H127905   5.703   3.330   3.454  2.1479  0.6982 -0.6958
 2090TIP3    H227906   5.718   3.189   3.400 -2.1572 -0.5656  1.0345
 2091TIP3   OH227907   3.542   2.949   1.369 -0.4324 -0.3713  0.2193
 2091TIP3    H127908   3.515   2.911   1.453 -1.3491  0.7969  0.4893
 2091TIP3    H227909   3.557   3.042   1.389 -2.6186  0.3937 -1.2374
 2092TIP3   OH227910   1.725   5.442   3.065  0.5641  0.4088 -0.0856
 2092TIP3    H127911   1.690   5.531   3.072  0.5840  0.3157  1.7360
 2092TIP3    H227912   1.791   5.447   2.996 -2.0794  0.8890 -2.7680
 2093TIP3   OH227913   3.283   3.785   1.490  0.1734 -0.1463  0.2622
 2093TIP3    H127914   3.367   3.831   1.485 -0.2675  0.6163 -0.3295
 2093TIP3    H227915   3.277   3.738   1.407 -0.7547  1.2056 -0.4834
 2094TIP3   OH227916   4.776   4.542   1.957 -0.3959 -0.0165  0.3288
 2094TIP3    H127917   4.684   4.551   1.934 -0.5986 -0.2299  1.0348
 2094TIP3    H227918   4.823   4.565   1.877 -1.0466  0.6294  0.1163
 2095TIP3   OH227919   2.829   0.948   3.194 -0.0251  0.1614  0.9228
 2095TIP3    H127920   2.898   0.885   3.172  0.1262  0.3062  0.9854
 2095TIP3    H227921   2.842   1.020   3.133 -0.8595 -0.3361  0.1314
 2096TIP3   OH227922   3.849   4.766   2.387 -0.1431 -0.0265  0.6197
 2096TIP3    H127923   3.875   4.852   2.353  0.1653 -1.1531 -2.2314
 2096TIP3    H227924   3.932   4.723   2.407 -0.2767 -0.0038  1.2702
 2097TIP3   OH227925   4.150   1.763   1.109 -0.4136 -0.0603  0.0563
 2097TIP3    H127926   4.233   1.808   1.092 -0.4326 -0.0534 -0.0149
 2097TIP3    H227927   4.138   1.704   1.035  0.1094 -0.9047  0.6253
 2098TIP3   OH227928   4.986   0.107   4.203 -0.4403 -0.1763 -0.0905
 2098TIP3    H127929   4.989   0.112   4.299  2.0112 -1.0239 -0.0703
 2098TIP3    H227930   4.893   0.118   4.182 -1.1085 -0.4209  2.4062
 2099TIP3   OH227931   3.864   0.220   3.320  0.4595 -0.3488 -0.2669
 2099TIP3    H127932   3.929   0.212   3.390  0.2069 -0.9422 -0.0956
 2099TIP3    H227933   3.837   0.311   3.322  1.7198  0.0566 -0.7236
 2100TIP3   OH227934   4.319   1.719   4.600  0.4104 -0.4337  0.9079
 2100TIP3    H127935   4.348   1.788   4.660  1.0709 -1.1884  1.4788
 2100TIP3    H227936   4.328   1.758   4.513  0.7284  0.2187  1.2251
 2101TIP3   OH227937   4.259   0.472   3.737 -0.1917  0.2707 -0.0605
 2101TIP3    H127938   4.310   0.532   3.684 -0.5758  0.7270  0.0710
 2101TIP3    H227939   4.209   0.529   3.796  1.7022 -0.2571  2.1877
 2102TIP3   OH227940   3.124   2.217   3.679  0.8376  0.0257 -0.1586
 2102TIP3    H127941   3.217   2.214   3.699  0.8626 -0.2638 -0.3001
 2102TIP3    H227942   3.085   2.269   3.749  0.8531 -1.3106  0.8936
 2103TIP3   OH227943   1.158   4.787   3.998 -0.1729 -0.7991  0.5858
 2103TIP3    H127944   1.214   4.790   3.920  0.1992  0.1871  0.8688
 2103TIP3    H227945   1.070   4.773   3.964 -0.0727  0.0628 -0.0571
 2104TIP3   OH227946   0.267   4.511   5.108  0.5542 -0.2669 -0.1780
 2104TIP3    H127947   0.191   4.485   5.160 -0.2176  1.9237 -0.1127
 2104TIP3    H227948   0.335   4.530   5.173  0.5100 -0.2696 -0.1308
 2105TIP3   OH227949   1.434   0.680   2.007  0.1503  0.2763  0.0156
 2105TIP3    H127950   1.475   0.765   1.990 -0.2325  0.1760 -1.5185
 2105TIP3    H227951   1.471   0.652   2.091  2.2958  0.7568 -0.7075
 2106TIP3   OH227952   4.786   4.093   4.943 -0.2837  0.2044  0.3253
 2106TIP3    H127953   4.850   4.021   4.938 -1.0903 -0.5505  0.5044
 2106TIP3    H227954   4.702   4.049   4.961 -0.9213  1.1383 -0.2747
 2107TIP3   OH227955   3.009   6.407   4.932  0.6105  0.5832  0.5781
 2107TIP3    H127956   3.011   6.500   4.906  0.2337  1.0180  2.0157
 2107TIP3    H227957   2.963   6.407   5.016  0.6078 -0.9211  0.5958
 2108TIP3   OH227958   1.845   2.680   4.230  0.4708  0.3011 -0.4569
 2108TIP3    H127959   1.814   2.721   4.311 -1.2472 -2.1358  0.2319
 2108TIP3    H227960   1.810   2.736   4.161 -2.0419 -0.0373  0.4220
 2109TIP3   OH227961   2.215   5.739   1.350  0.0773  0.2239 -0.0566
 2109TIP3    H127962   2.158   5.816   1.341  0.7606  0.8788  0.9371
 2109TIP3    H227963   2.292   5.760   1.296 -0.3578 -0.4009 -0.9289
 2110TIP3   OH227964   4.257   0.984   5.481  0.2645 -0.5277 -0.2003
 2110TIP3    H127965   4.302   1.049   5.535 -2.5606  0.1272  1.5623
 2110TIP3    H227966   4.319   0.911   5.474  1.6447  0.3602  1.9570
 2111TIP3   OH227967   2.200   0.562   1.716 -0.9572  0.2824  0.3321
 2111TIP3    H127968   2.169   0.472   1.723  2.1171 -0.9070  0.2706
 2111TIP3    H227969   2.177   0.602   1.801 -0.7395 -1.1454  1.0901
 2112TIP3   OH227970   6.449   2.120   3.124 -0.2506 -0.0616 -0.0608
 2112TIP3    H127971   6.538   2.151   3.140 -0.8329  0.8019  1.7749
 2112TIP3    H227972   6.436   2.050   3.189 -1.1879  0.4205  0.2891
 2113TIP3   OH227973   0.926   2.624   1.945 -0.0910 -0.6929 -0.1859
 2113TIP3    H127974   0.934   2.536   1.981 -2.3601 -0.7269  0.4217
 2113TIP3    H227975   0.874   2.613   1.866  1.5335 -0.1184 -1.3965
 2114TIP3   OH227976   3.437   6.227   4.888  0.6071  0.2234 -0.0406
 2114TIP3    H127977   3.374   6.205   4.819  2.7822 -0.8356 -1.8012
 2114TIP3    H227978   3.426   6.159   4.954  1.2592 -1.1510 -1.3006
 2115TIP3   OH227979   4.083   1.578   5.393  0.6311  0.2621  0.5700
 2115TIP3    H127980   4.144   1.517   5.352  0.0353 -1.0750  1.5982
 2115TIP3    H227981   4.063   1.538   5.478 -4.7203 -1.5330 -1.1588
 2116TIP3   OH227982   3.549   3.957   5.830  0.2324  0.3637 -0.6445
 2116TIP3    H127983   3.633   3.924   5.798 -0.1360 -0.4418 -0.8018
 2116TIP3    H227984   3.573   4.024   5.894  1.0262 -0.9971  0.5455
 2117TIP3   OH227985   0.469   3.637   0.604 -0.5019 -0.1094 -0.5248
 2117TIP3    H127986   0.414   3.609   0.531 -0.4897 -0.2475 -0.4824
 2117TIP3    H227987   0.447   3.729   0.618  1.2188  0.6488 -2.2937
 2118TIP3   OH227988   2.695   4.705   1.962 -0.0587 -0.4965  0.1732
 2118TIP3    H127989   2.626   4.771   1.958 -0.5473 -1.0521 -0.9142
 2118TIP3    H227990   2.770   4.751   1.999 -0.2046  0.8213 -1.1015
 2119TIP3   OH227991   5.076   0.381   2.968  0.2356 -0.1495  0.0415
 2119TIP3    H127992   5.100   0.449   3.031 -1.3209  0.3653  0.1316
 2119TIP3    H227993   4.983   0.396   2.951  0.2108 -1.3560 -1.0697
 2120TIP3   OH227994   5.154   3.155   2.924 -0.2213  0.7716 -0.1240
 2120TIP3    H127995   5.132   3.063   2.909 -0.3541  0.8338 -0.3175
 2120TIP3    H227996   5.168   3.161   3.018 -1.1656  0.7512  0.0296
 2121TIP3   OH227997   0.443   3.024   4.237 -0.3351  0.4772 -0.4255
 2121TIP3    H127998   0.447   2.968   4.314 -0.7970  0.3008 -0.5325
 2121TIP3    H227999   0.357   3.066   4.241 -0.5822  0.0527 -1.1391
 2122TIP3   OH228000   0.052   4.083   5.163 -0.6094 -0.1051 -1.0215
 2122TIP3    H128001   0.019   4.160   5.209 -0.3235  0.2971 -1.4782
 2122TIP3    H228002   0.123   4.051   5.219 -1.9171 -1.1557  0.1176
 2123TIP3   OH228003   2.842   6.406   4.138 -0.0107  0.4219 -0.0924
 2123TIP3    H128004   2.921   6.456   4.155  0.7623 -0.8923  0.3470
 2123TIP3    H228005   2.771   6.458   4.177  0.7161  1.2890  0.0972
 2124TIP3   OH228006   6.291   4.436   3.379  0.2015  0.3249 -0.0183
 2124TIP3    H128007   6.290   4.352   3.426  1.2004 -0.6871 -1.7345
 2124TIP3    H228008   6.355   4.488   3.427 -0.6520  0.2624  1.2562
 2125TIP3   OH228009   5.158   5.424   1.364  0.0650 -0.2238 -0.6293
 2125TIP3    H128010   5.201   5.360   1.421  2.1579  1.6355  0.0163
 2125TIP3    H228011   5.213   5.427   1.286  0.2394  1.0680 -0.4719
 2126TIP3   OH228012   6.444   3.604   5.306 -0.5539  0.1898 -0.7205
 2126TIP3    H128013   6.450   3.654   5.388  0.7960 -1.1445  0.0662
 2126TIP3    H228014   6.356   3.566   5.307 -0.2061 -0.6636  0.6885
 2127TIP3   OH228015   1.919   5.999   4.700 -0.1573 -0.4242  0.2339
 2127TIP3    H128016   1.912   6.082   4.653  0.0379 -1.4635 -1.7357
 2127TIP3    H228017   1.878   5.935   4.642 -1.7260 -1.5097  2.3963
 2128TIP3   OH228018   5.933   1.927   1.360 -0.4819  0.0130 -0.1732
 2128TIP3    H128019   5.974   1.902   1.277  0.2287  1.2339 -0.2159
 2128TIP3    H228020   5.869   1.994   1.335 -1.2332 -0.5831  0.1169
 2129TIP3   OH228021   3.980   6.482   1.407 -0.0448  0.5576  0.0138
 2129TIP3    H128022   3.926   6.403   1.413  1.3035 -0.5179 -1.3138
 2129TIP3    H228023   4.064   6.456   1.444  0.4636  1.3356 -0.5557
 2130TIP3   OH228024   5.022   5.720   3.372  0.5014 -0.5132 -1.0047
 2130TIP3    H128025   4.962   5.787   3.405  0.7960 -0.8657  0.3215
 2130TIP3    H228026   5.017   5.728   3.277  1.4288  2.2525 -0.9463
 2131TIP3   OH228027   1.604   0.315   3.357  0.1448 -0.0910 -0.3600
 2131TIP3    H128028   1.698   0.331   3.360  0.1699 -0.3197  0.2251
 2131TIP3    H228029   1.570   0.356   3.437 -0.1210 -0.8286 -0.0881
 2132TIP3   OH228030   4.648   4.584   2.741  0.6523  0.2965 -0.2117
 2132TIP3    H128031   4.730   4.537   2.754  0.2537 -0.2439  0.3927
 2132TIP3    H228032   4.626   4.569   2.649 -0.7529 -2.8806  0.5018
 2133TIP3   OH228033   1.552   3.951   2.103 -0.0214 -0.0328 -0.0337
 2133TIP3    H128034   1.631   3.963   2.050 -0.5000 -0.4850 -0.8634
 2133TIP3    H228035   1.539   3.856   2.104 -0.8209  0.0710 -0.3029
 2134TIP3   OH228036   2.262   3.234   4.487 -0.3069 -0.1848  0.1823
 2134TIP3    H128037   2.204   3.188   4.426 -0.1397 -0.0939 -0.0502
 2134TIP3    H228038   2.346   3.239   4.440  0.0426 -0.7857  0.7307
 2135TIP3   OH228039   4.380   1.085   3.658  0.4463  0.0782  0.1052
 2135TIP3    H128040   4.399   1.036   3.738 -1.4273 -1.4706 -0.3188
 2135TIP3    H228041   4.443   1.051   3.594  1.0342  0.3091  0.5557
 2136TIP3   OH228042   2.338   6.290   1.317 -0.4149  0.1158  0.1704
 2136TIP3    H128043   2.409   6.313   1.378  1.4915  1.0455 -2.2111
 2136TIP3    H228044   2.258   6.306   1.366  1.0056  0.3891  2.5531
 2137TIP3   OH228045   3.120   1.975   0.301  0.1993  0.3210  0.3685
 2137TIP3    H128046   3.150   2.053   0.347 -1.2748  1.1422  0.0037
 2137TIP3    H228047   3.066   2.009   0.229  1.2589 -0.9723 -1.1155
 2138TIP3   OH228048   2.830   5.742   2.182 -0.1569  0.4799 -0.4592
 2138TIP3    H128049   2.766   5.693   2.130 -0.1696  1.2220 -1.1605
 2138TIP3    H228050   2.858   5.681   2.250 -2.1773  0.3726  0.3355
 2139TIP3   OH228051   6.434   6.255   3.530  0.3906 -0.4330 -0.5127
 2139TIP3    H128052   6.430   6.179   3.473  2.0667 -1.4974  0.6995
 2139TIP3    H228053   6.515   6.300   3.506  0.6035 -0.3388  0.3258
 2140TIP3   OH228054   0.469   3.619   1.418 -0.2915 -0.2797  0.5072
 2140TIP3    H128055   0.422   3.667   1.487  0.2857  0.2158  0.5607
 2140TIP3    H228056   0.539   3.574   1.464 -0.7643 -1.1027  0.4398
 2141TIP3   OH228057   2.387   3.357   4.853  0.0726 -0.1076  0.3348
 2141TIP3    H128058   2.477   3.326   4.860  0.1481  0.0066 -0.1287
 2141TIP3    H228059   2.365   3.388   4.941  1.2576  1.9908 -0.0535
 2142TIP3   OH228060   0.338   6.421   2.272  0.2837  0.1645  0.4769
 2142TIP3    H128061   0.373   6.333   2.290 -0.7442 -0.3794 -0.1224
 2142TIP3    H228062   0.359   6.436   2.180  1.5405  1.0806  0.8807
 2143TIP3   OH228063   5.441   1.657   0.961  0.0401 -0.4681 -0.1827
 2143TIP3    H128064   5.413   1.748   0.974 -0.6272 -0.4068 -1.7943
 2143TIP3    H228065   5.360   1.609   0.946  0.4333 -1.2501  0.1563
 2144TIP3   OH228066   1.842   2.538   1.792 -0.0420  0.0275 -0.2100
 2144TIP3    H128067   1.772   2.476   1.772  0.0146  0.0155 -0.3759
 2144TIP3    H228068   1.904   2.528   1.720  0.4676 -0.4509  0.2888
 2145TIP3   OH228069   2.056   1.733   2.078  0.0205 -0.2831 -0.2582
 2145TIP3    H128070   2.047   1.827   2.064 -2.2057 -0.5795 -1.2999
 2145TIP3    H228071   2.016   1.717   2.163  0.0771 -0.3465 -0.2431
 2146TIP3   OH228072   0.676   3.454   2.927  0.0885  0.1018 -0.1971
 2146TIP3    H128073   0.655   3.406   2.847  0.3708 -1.2319  0.5023
 2146TIP3    H228074   0.723   3.391   2.981 -0.9885  0.6477  1.4515
 2147TIP3   OH228075   6.155   5.549   4.282 -0.3876  0.1484  0.3988
 2147TIP3    H128076   6.143   5.500   4.364  0.0021 -0.4234  0.1206
 2147TIP3    H228077   6.069   5.546   4.241 -0.3628 -0.3369  0.3719
 2148TIP3   OH228078   6.197   1.312   2.121  0.0609  0.1722 -0.1127
 2148TIP3    H128079   6.272   1.365   2.147 -0.1327  0.9199 -1.0247
 2148TIP3    H228080   6.124   1.373   2.118 -0.2364 -0.2070 -0.8546
 2149TIP3   OH228081   5.626   0.851   5.457  0.1411 -0.5014  0.7549
 2149TIP3    H128082   5.572   0.794   5.402 -0.5080  0.6091  0.1983
 2149TIP3    H228083   5.567   0.923   5.482  1.3956  0.8712 -0.0466
 2150TIP3   OH228084   1.221   4.200   2.725 -0.6724 -0.1306 -0.0842
 2150TIP3    H128085   1.277   4.235   2.655  0.8405  0.1934  1.2354
 2150TIP3    H228086   1.223   4.267   2.792 -1.0623 -0.9821  0.7965
 2151TIP3   OH228087   4.220   5.561   3.199  0.4200  0.0620  0.6317
 2151TIP3    H128088   4.298   5.540   3.251  1.9733  1.5593 -0.9656
 2151TIP3    H228089   4.229   5.506   3.121  2.3939  3.3402 -1.6846
 2152TIP3   OH228090   0.865   3.733   4.499  0.0380 -0.3682  0.0065
 2152TIP3    H128091   0.904   3.647   4.511  0.6123 -0.1014  0.0781
 2152TIP3    H228092   0.828   3.755   4.585 -0.6818 -0.8160 -0.1804
 2153TIP3   OH228093   3.998   5.705   0.888  0.4494  0.1881  0.0412
 2153TIP3    H128094   3.905   5.723   0.902  0.5896  2.5691 -1.6697
 2153TIP3    H228095   4.010   5.616   0.923 -1.7957  0.8791  3.0025
 2154TIP3   OH228096   5.211   5.178   1.735  0.4937  0.3391 -0.0031
 2154TIP3    H128097   5.200   5.267   1.771 -0.3123  0.5123 -0.6602
 2154TIP3    H228098   5.195   5.188   1.641  0.0441 -0.5669 -0.0298
 2155TIP3   OH228099   5.144   2.997   3.790 -0.2324  0.4618 -0.0519
 2155TIP3    H128100   5.166   3.081   3.831  0.2338 -0.0375  0.7470
 2155TIP3    H228101   5.102   2.947   3.860 -1.0408  0.2395 -0.6870
 2156TIP3   OH228102   2.329   6.609   3.176  0.3138 -0.3304 -0.6957
 2156TIP3    H128103   2.241   6.588   3.147  0.0390  0.0349 -0.1277
 2156TIP3    H228104   2.331   6.704   3.184  0.3649 -0.4180  0.5172
 2157TIP3   OH228105   4.957   2.734   2.287  0.4996  0.9240 -0.0617
 2157TIP3    H128106   5.039   2.761   2.328  0.3364  0.1551  0.8118
 2157TIP3    H228107   4.889   2.762   2.348  0.1697  0.8685 -0.4004
 2158TIP3   OH228108   6.166   2.780   3.255 -0.3429  0.4963  0.0279
 2158TIP3    H128109   6.214   2.804   3.335 -1.0388  1.5907  0.1404
 2158TIP3    H228110   6.074   2.785   3.280 -0.5506 -0.4676 -0.4949
 2159TIP3   OH228111   0.744   1.345   2.543 -0.6448 -0.0135 -0.5777
 2159TIP3    H128112   0.758   1.424   2.492 -0.9508 -0.0886 -0.7843
 2159TIP3    H228113   0.651   1.324   2.529 -0.9620  0.4477  0.6917
 2160TIP3   OH228114   6.398   5.925   3.794  0.4542  0.1433  0.1980
 2160TIP3    H128115   6.348   6.006   3.799 -2.4267 -1.3553 -1.3476
 2160TIP3    H228116   6.386   5.884   3.879 -1.0439 -0.1618 -0.1248
 2161TIP3   OH228117   0.780   3.566   5.331  0.2977  0.4470 -0.5345
 2161TIP3    H128118   0.839   3.541   5.260 -0.7258  0.3209 -1.3751
 2161TIP3    H228119   0.699   3.593   5.286 -0.5957 -0.2464  0.6066
 2162TIP3   OH228120   0.477   6.490   3.819 -0.0982 -0.5230 -0.2912
 2162TIP3    H128121   0.434   6.419   3.867  1.4768 -1.1404  0.2903
 2162TIP3    H228122   0.561   6.501   3.864  1.2839 -0.8287 -2.6331
 2163TIP3   OH228123   3.405   3.966   3.417  0.6069  0.0699 -0.8033
 2163TIP3    H128124   3.313   3.992   3.409  1.1636  1.8295 -2.3814
 2163TIP3    H228125   3.402   3.879   3.456 -1.7654 -0.2610 -1.5419
 2164TIP3   OH228126   5.151   5.472   1.842 -0.1549  0.5012 -0.6410
 2164TIP3    H128127   5.062   5.446   1.866  1.0809 -1.8554  1.9542
 2164TIP3    H228128   5.142   5.563   1.814 -3.2302  0.6871  0.5497
 2165TIP3   OH228129   1.839   0.718   3.818  0.1485  0.2023  0.0062
 2165TIP3    H128130   1.922   0.741   3.859 -0.2339  0.3499  0.7070
 2165TIP3    H228131   1.772   0.742   3.882 -0.4553  0.3173 -0.6510
 2166TIP3   OH228132   0.613   4.577   1.119  0.9079 -0.0312 -0.4763
 2166TIP3    H128133   0.663   4.530   1.053  1.1354  1.6448 -1.5658
 2166TIP3    H228134   0.626   4.669   1.098 -2.2441  0.5156 -0.5423
 2167TIP3   OH228135   5.926   4.528   4.325  0.0365  0.2172 -0.7844
 2167TIP3    H128136   6.009   4.480   4.328  0.8081  1.5068 -0.5426
 2167TIP3    H228137   5.860   4.461   4.309  0.9009 -1.1127  0.9031
 2168TIP3   OH228138   4.973   4.980   2.159  0.6911 -0.1812  0.3061
 2168TIP3    H128139   5.014   4.894   2.146  0.5085  0.0193 -2.0220
 2168TIP3    H228140   4.880   4.966   2.139  0.4223  0.3240  1.1268
 2169TIP3   OH228141   0.940   3.825   5.086  0.0570 -0.4910  0.1675
 2169TIP3    H128142   1.017   3.840   5.142 -0.8087  0.9885  1.0266
 2169TIP3    H228143   0.976   3.785   5.007  1.3980 -2.1350  1.5330
 2170TIP3   OH228144   6.615   4.306   1.466 -0.4002 -0.9687 -0.0847
 2170TIP3    H128145   6.641   4.331   1.377 -0.7199 -1.4380 -0.3140
 2170TIP3    H228146   6.609   4.389   1.514  0.5204 -0.7689 -0.2952
 2171TIP3   OH228147   5.822   3.463   2.726  0.2681 -0.5265  0.1345
 2171TIP3    H128148   5.751   3.527   2.733 -0.2130 -0.8761 -1.2259
 2171TIP3    H228149   5.902   3.513   2.746 -0.0198  0.6856 -1.5323
 2172TIP3   OH228150   3.547   0.436   2.394  0.3820 -0.1698  0.0009
 2172TIP3    H128151   3.635   0.460   2.424 -0.8487  1.5963  2.5697
 2172TIP3    H228152   3.505   0.398   2.471 -1.6111  0.5353 -0.6777
 2173TIP3   OH228153   5.718   2.994   5.016 -0.4961 -0.0595 -0.6628
 2173TIP3    H128154   5.640   2.950   5.048 -0.1109 -0.8797 -0.8203
 2173TIP3    H228155   5.770   3.011   5.095  0.3679 -1.9146 -0.7714
 2174TIP3   OH228156   3.431   2.536   2.575 -0.1588 -0.0319 -0.6764
 2174TIP3    H128157   3.484   2.558   2.652  0.1054  1.1722 -1.1848
 2174TIP3    H228158   3.473   2.583   2.503  1.1207 -3.0692 -2.1146
 2175TIP3   OH228159   2.939   3.935   0.816 -0.6306  0.1594  0.4221
 2175TIP3    H128160   2.982   3.855   0.845 -1.4478 -0.3613  0.2314
 2175TIP3    H228161   3.003   3.978   0.759  0.0262 -0.0631  0.9730
 2176TIP3   OH228162   3.360   0.458   4.423 -0.1607  0.3447 -0.1145
 2176TIP3    H128163   3.365   0.403   4.501  0.5335 -0.3641 -0.6388
 2176TIP3    H228164   3.279   0.508   4.434  0.8597  1.6500  1.9470
 2177TIP3   OH228165   4.150   3.356   2.345 -0.0971  0.1552 -0.2549
 2177TIP3    H128166   4.151   3.410   2.265 -2.0573 -0.5313 -0.7913
 2177TIP3    H228167   4.218   3.290   2.329  0.2896  0.6788 -0.8653
 2178TIP3   OH228168   5.639   1.160   5.304 -0.3657  0.0586 -0.0741
 2178TIP3    H128169   5.686   1.078   5.293  0.4507  0.6186 -0.9554
 2178TIP3    H228170   5.588   1.149   5.384  0.4673 -0.9487  0.3281
 2179TIP3   OH228171   0.585   3.828   2.063 -0.1092 -0.5485  0.5178
 2179TIP3    H128172   0.648   3.765   2.028 -0.9087 -0.7040 -0.7090
 2179TIP3    H228173   0.638   3.904   2.087  0.4625 -0.2583 -1.4858
 2180TIP3   OH228174   4.058   4.558   2.399  0.0646 -0.2298 -0.2283
 2180TIP3    H128175   4.115   4.574   2.324  1.0952  0.5393  0.6860
 2180TIP3    H228176   4.117   4.527   2.468 -0.2020  2.4461  1.3721
 2181TIP3   OH228177   6.569   5.268   1.390  0.1832  0.3846 -0.2894
 2181TIP3    H128178   6.522   5.232   1.315  1.6331 -0.9157 -0.6351
 2181TIP3    H228179   6.661   5.264   1.364  0.7296 -0.1860  1.5729
 2182TIP3   OH228180   3.834   4.864   3.173  0.6736 -0.1799 -0.0467
 2182TIP3    H128181   3.904   4.846   3.111  0.8653 -1.3090  0.4660
 2182TIP3    H228182   3.767   4.910   3.122  1.0853 -0.5404 -0.9296
 2183TIP3   OH228183   3.622   2.550   2.154  0.4304 -0.2618  0.0215
 2183TIP3    H128184   3.640   2.601   2.075  0.3674 -0.4486 -0.1139
 2183TIP3    H228185   3.568   2.476   2.124 -1.8088  1.0363  0.6402
 2184TIP3   OH228186   4.360   2.750   3.750 -0.1747 -0.1270 -0.0896
 2184TIP3    H128187   4.451   2.725   3.764 -0.5772 -0.3562  2.7017
 2184TIP3    H228188   4.362   2.845   3.741  0.2781 -0.0174  0.9978
 2185TIP3   OH228189   1.691   0.737   1.764  0.0743 -0.0924  0.6995
 2185TIP3    H128190   1.686   0.791   1.843 -1.6909 -1.1413  1.3519
 2185TIP3    H228191   1.784   0.713   1.758  0.6816  1.9393  1.0712
 2186TIP3   OH228192   2.552   0.315   2.658 -0.2073  0.4191  0.6271
 2186TIP3    H128193   2.456   0.316   2.654 -0.2481 -1.2612 -2.4479
 2186TIP3    H228194   2.573   0.225   2.682  0.5535  0.4198 -0.0029
 2187TIP3   OH228195   3.017   2.721   3.160 -0.4467 -0.2183  0.3339
 2187TIP3    H128196   3.010   2.747   3.068 -1.0636 -0.3276  0.3446
 2187TIP3    H228197   3.035   2.803   3.206  0.3455 -0.2343  0.0699
 2188TIP3   OH228198   0.715   1.521   3.924  0.0382 -0.3012 -0.4007
 2188TIP3    H128199   0.646   1.559   3.870 -0.1478  1.9992  1.3031
 2188TIP3    H228200   0.672   1.497   4.006  0.8618 -0.8482 -0.1096
 2189TIP3   OH228201   4.640   3.987   3.727 -0.0449  0.6656 -0.2717
 2189TIP3    H128202   4.620   3.993   3.634  0.1251  0.9620 -0.2893
 2189TIP3    H228203   4.657   4.077   3.754  2.8850  0.2943 -0.6151
 2190TIP3   OH228204   6.006   1.102   2.677  0.0814 -0.4578 -0.1696
 2190TIP3    H128205   6.047   1.016   2.685  0.1670 -0.4304 -0.3310
 2190TIP3    H228206   6.077   1.161   2.651 -0.4142 -0.7564 -2.3997
 2191TIP3   OH228207   3.821   4.182   1.063  0.2491 -0.0824  0.1686
 2191TIP3    H128208   3.863   4.240   1.126  0.9973 -0.7123  0.2729
 2191TIP3    H228209   3.829   4.095   1.102  0.8184 -0.4999 -0.8272
 2192TIP3   OH228210   1.372   2.486   3.604 -0.3417 -0.2510 -0.0129
 2192TIP3    H128211   1.315   2.443   3.540  0.0360  0.5577 -0.9218
 2192TIP3    H228212   1.458   2.448   3.589 -0.0663  0.5837 -0.6193
 2193TIP3   OH228213   0.949   1.151   2.524  0.1708  0.3232 -0.2764
 2193TIP3    H128214   0.862   1.182   2.547  0.2941 -0.6547  1.7897
 2193TIP3    H228215   0.934   1.070   2.476 -0.0595  1.6298 -2.5625
 2194TIP3   OH228216   0.922   1.418   5.721 -0.1007 -0.3237  0.3189
 2194TIP3    H128217   0.851   1.356   5.707  0.2925 -0.6282 -0.3234
 2194TIP3    H228218   0.975   1.379   5.791  0.4519 -0.9822 -0.4588
 2195TIP3   OH228219   5.670   2.108   2.814 -0.2669  0.3940 -0.0014
 2195TIP3    H128220   5.720   2.190   2.809 -1.5129  1.2042  0.4318
 2195TIP3    H228221   5.581   2.135   2.835 -0.3676 -1.1963  1.9438
 2196TIP3   OH228222   5.120   0.581   3.151 -0.5697  0.1280  0.3015
 2196TIP3    H128223   5.029   0.611   3.147 -0.0783  1.7969  0.7755
 2196TIP3    H228224   5.168   0.656   3.186  0.8949 -0.9627  0.7058
 2197TIP3   OH228225   5.591   1.171   1.774 -0.0412 -0.5000  0.4255
 2197TIP3    H128226   5.575   1.089   1.821  1.0516 -1.6893 -1.1613
 2197TIP3    H228227   5.577   1.149   1.682  4.1192 -0.0930 -0.5158
 2198TIP3   OH228228   2.335   1.331   1.467  0.1538 -0.0785 -0.2636
 2198TIP3    H128229   2.402   1.355   1.403  0.5860 -1.6688 -0.4627
 2198TIP3    H228230   2.327   1.407   1.524 -1.4969  2.1114 -3.1564
 2199TIP3   OH228231   3.491   1.857   2.102 -0.4415 -0.2459  0.3409
 2199TIP3    H128232   3.481   1.933   2.159  0.0893 -0.2366  0.4230
 2199TIP3    H228233   3.418   1.865   2.039 -0.7816 -0.0352  0.7541
 2200TIP3   OH228234   3.425   1.795   1.412  0.0670  0.0135  0.4847
 2200TIP3    H128235   3.391   1.729   1.352 -1.7863 -1.6467  3.0944
 2200TIP3    H228236   3.374   1.874   1.393  0.2306 -0.1527 -0.7185
 2201TIP3   OH228237   6.145   1.519   3.991  0.1870 -0.1015  0.2782
 2201TIP3    H128238   6.074   1.455   3.997  0.3164 -0.2698  0.0223
 2201TIP3    H228239   6.106   1.596   3.949  0.6984 -0.9995 -1.9728
 2202TIP3   OH228240   3.722   3.082   1.652 -0.0055  0.5188  0.1377
 2202TIP3    H128241   3.750   2.990   1.653  0.7035  0.6546 -2.1258
 2202TIP3    H228242   3.716   3.104   1.559  0.3775  2.9368  0.6283
 2203TIP3   OH228243   3.301   1.772   4.496 -0.5014 -0.1997  0.0815
 2203TIP3    H128244   3.325   1.841   4.434  1.0713  0.2616  1.1572
 2203TIP3    H228245   3.251   1.816   4.564  0.3428 -0.1293  0.6724
 2204TIP3   OH228246   4.575   6.652   1.162 -0.1407 -0.2163 -0.1656
 2204TIP3    H128247   4.667   6.635   1.143 -0.5434 -4.6403  0.8091
 2204TIP3    H228248   4.554   6.593   1.234 -3.4717  1.6533  0.6281
 2205TIP3   OH228249   5.753   5.723   3.892  0.3681  0.5180 -0.1762
 2205TIP3    H128250   5.782   5.807   3.855 -0.4650  0.9496  0.1195
 2205TIP3    H228251   5.690   5.747   3.960 -0.0585 -0.3589 -0.2444
 2206TIP3   OH228252   2.247   0.290   1.098  0.3906  0.0107 -0.1108
 2206TIP3    H128253   2.239   0.275   1.004  1.8958  0.6646 -0.3726
 2206TIP3    H228254   2.328   0.245   1.123 -0.2873 -0.6430  0.9991
 2207TIP3   OH228255   2.656   3.009   1.704  0.3925 -0.6125 -0.1254
 2207TIP3    H128256   2.589   2.965   1.652  0.3439 -1.9204  0.9540
 2207TIP3    H228257   2.714   3.050   1.641 -1.2978  0.3567 -1.0867
 2208TIP3   OH228258   2.442   3.577   0.333  0.2693  0.0342 -0.5549
 2208TIP3    H128259   2.458   3.510   0.266 -1.7449 -0.4282 -0.6187
 2208TIP3    H228260   2.522   3.630   0.333  0.8382 -0.7537 -2.3684
 2209TIP3   OH228261   1.402   4.716   3.578 -0.2502 -0.1262  0.0893
 2209TIP3    H128262   1.368   4.805   3.570  0.7645  0.1246 -4.6223
 2209TIP3    H228263   1.463   4.720   3.651 -2.7107  2.0283  2.2195
 2210TIP3   OH228264   5.654   0.557   1.381 -0.2885  0.2566  0.0788
 2210TIP3    H128265   5.748   0.538   1.377  0.1246  1.8124  1.1891
 2210TIP3    H228266   5.617   0.514   1.305  1.4713  0.2851 -0.8388
 2211TIP3   OH228267   4.347   1.320   4.144  1.1077 -0.4205  0.4604
 2211TIP3    H128268   4.291   1.366   4.081  0.3978 -1.2300  0.4816
 2211TIP3    H228269   4.396   1.257   4.090  0.2165 -1.3839  0.7369
 2212TIP3   OH228270   5.446   3.678   2.016 -0.4577  0.0433  0.1228
 2212TIP3    H128271   5.530   3.721   2.003  0.4052 -1.7123 -0.4711
 2212TIP3    H228272   5.462   3.614   2.085 -1.1393 -0.6888 -0.3776
 2213TIP3   OH228273   0.836   6.621   2.413  0.5051  0.3059 -0.8460
 2213TIP3    H128274   0.914   6.643   2.463 -0.4442  1.1374  0.3249
 2213TIP3    H228275   0.779   6.697   2.422 -1.1885 -0.9691 -0.1201
 2214TIP3   OH228276   6.081   1.863   1.586 -0.0049 -0.2299 -0.3595
 2214TIP3    H128277   6.070   1.929   1.654  0.9594 -0.4633  0.0461
 2214TIP3    H228278   6.020   1.888   1.517 -0.8506  0.1363  0.4977
 2215TIP3   OH228279   4.534   4.866   2.053  0.1332 -1.0768 -0.4665
 2215TIP3    H128280   4.514   4.948   2.007  1.6312  0.0185  0.7244
 2215TIP3    H228281   4.623   4.878   2.086 -1.3594 -0.9810  4.2260
 2216TIP3   OH228282   3.608   0.265   3.205 -0.2178  0.6039  0.2702
 2216TIP3    H128283   3.637   0.236   3.292  0.5164  2.0114  0.5289
 2216TIP3    H228284   3.598   0.184   3.155  1.7037 -0.1227  0.9549
 2217TIP3   OH228285   2.718   1.603   0.587 -0.4842  0.2641  0.2745
 2217TIP3    H128286   2.631   1.585   0.552 -0.2184  2.4506 -1.8579
 2217TIP3    H228287   2.777   1.550   0.533 -0.3944 -0.0148  0.6481
 2218TIP3   OH228288   4.205   5.827   2.641  0.0983  0.6789 -0.0603
 2218TIP3    H128289   4.279   5.772   2.613 -0.5882 -1.9750  2.7664
 2218TIP3    H228290   4.132   5.765   2.651 -1.7200  2.7301  0.0534
 2219TIP3   OH228291   4.107   3.224   0.623 -0.4753  0.0741 -0.6792
 2219TIP3    H128292   4.057   3.143   0.633  1.8168 -1.6511 -2.1878
 2219TIP3    H228293   4.186   3.210   0.675  0.7756  0.5493 -2.3730
 2220TIP3   OH228294   4.756   1.398   2.597 -0.2165  0.0074  0.0135
 2220TIP3    H128295   4.672   1.393   2.642  0.1289 -0.3215  0.6259
 2220TIP3    H228296   4.800   1.473   2.637  0.1224 -0.3331  0.2899
 2221TIP3   OH228297   4.401   5.449   4.046 -0.3757 -0.0459 -0.2155
 2221TIP3    H128298   4.447   5.460   3.963 -0.8087 -0.4606 -0.5105
 2221TIP3    H228299   4.349   5.369   4.035  1.3182 -1.4426  1.2508
 2222TIP3   OH228300   1.075   0.760   4.284  0.4616 -0.1849 -0.3843
 2222TIP3    H128301   1.013   0.754   4.211  0.2328  1.1545 -0.3300
 2222TIP3    H228302   1.031   0.815   4.348  2.1567  1.8456 -0.8540
 2223TIP3   OH228303   2.960   3.086   3.083  0.1702  0.3046 -0.1465
 2223TIP3    H128304   2.870   3.119   3.074  0.3450  0.6447 -0.7346
 2223TIP3    H228305   3.007   3.157   3.127 -0.2737 -0.6489  1.9823
 2224TIP3   OH228306   5.205   1.250   1.617  0.0098 -0.1118 -0.1912
 2224TIP3    H128307   5.162   1.179   1.571 -0.3803  0.1241 -0.1967
 2224TIP3    H228308   5.250   1.300   1.549 -0.6834  0.3191 -0.3411
 2225TIP3   OH228309   1.980   5.554   1.732  0.4836  0.6492 -0.0648
 2225TIP3    H128310   1.932   5.636   1.736  0.4588  0.6062  0.6029
 2225TIP3    H228311   2.053   5.572   1.672  0.1733  0.9864 -0.3493
 2226TIP3   OH228312   4.743   5.710   1.273  0.1518  0.6319 -0.0044
 2226TIP3    H128313   4.767   5.803   1.280  0.3180  0.4661  2.1874
 2226TIP3    H228314   4.798   5.666   1.337  2.3663 -1.5203 -3.1401
 2227TIP3   OH228315   3.362   0.258   2.004 -0.0717  0.1287  0.0633
 2227TIP3    H128316   3.297   0.190   1.990 -0.6477  0.4379  1.1346
 2227TIP3    H228317   3.350   0.318   1.930  0.2128 -0.7361 -0.6995
 2228TIP3   OH228318   2.046   5.541   3.202 -0.1197 -0.0454 -0.2056
 2228TIP3    H128319   2.020   5.509   3.115  1.4037 -0.7926 -0.4177
 2228TIP3    H228320   1.977   5.602   3.226 -0.0033  1.0875 -2.4646
 2229TIP3   OH228321   1.281   0.363   0.687 -0.1671 -0.0393 -0.1357
 2229TIP3    H128322   1.281   0.274   0.652 -0.7772 -1.3792  2.9588
 2229TIP3    H228323   1.192   0.395   0.671 -0.4521 -0.6374  0.2346
 2230TIP3   OH228324   5.550   1.876   1.269  0.2436 -0.0782 -0.0957
 2230TIP3    H128325   5.512   1.873   1.356 -1.1953 -0.9067 -0.7163
 2230TIP3    H228326   5.641   1.904   1.283 -0.4220  1.4613  1.4883
 2231TIP3   OH228327   2.191   4.083   2.854  0.4959  0.6623 -0.4933
 2231TIP3    H128328   2.246   4.093   2.777  0.5568 -4.0501 -1.3515
 2231TIP3    H228329   2.253   4.066   2.926  0.3423 -1.1135 -0.7448
 2232TIP3   OH228330   5.000   0.852   2.921 -0.1880 -0.0492  0.4970
 2232TIP3    H128331   4.991   0.936   2.875  1.8791  0.4482  0.9106
 2232TIP3    H228332   4.975   0.872   3.011  1.6094  0.4947  0.9027
 2233TIP3   OH228333   0.870   1.168   0.768  0.2460 -0.1406 -0.2688
 2233TIP3    H128334   0.928   1.125   0.830  0.8595 -0.0519 -0.7747
 2233TIP3    H228335   0.902   1.142   0.682 -0.2450  0.1970 -0.5623
 2234TIP3   OH228336   4.133   1.673   4.834 -0.1279  0.4702  0.3618
 2234TIP3    H128337   4.207   1.672   4.773 -1.0404 -3.0352 -0.9466
 2234TIP3    H228338   4.166   1.633   4.914 -0.2547  0.2729  0.3143
 2235TIP3   OH228339   2.017   1.322   1.166  0.0411  0.1771 -0.1757
 2235TIP3    H128340   1.981   1.410   1.160  0.3104  0.3110  0.1340
 2235TIP3    H228341   1.946   1.269   1.200 -0.1329  0.2675 -0.3944
 2236TIP3   OH228342   0.429   6.259   3.952 -0.5589  0.2058 -0.1414
 2236TIP3    H128343   0.493   6.287   4.018 -1.9861  0.7583  1.0568
 2236TIP3    H228344   0.451   6.168   3.935  0.3725  0.3017  0.4707
 2237TIP3   OH228345   3.900   2.759   2.013 -0.1390  0.5511  0.2921
 2237TIP3    H128346   3.910   2.834   1.954 -1.3561 -0.7989 -1.7684
 2237TIP3    H228347   3.865   2.796   2.094 -1.6200  2.1153 -0.9936
 2238TIP3   OH228348   2.093   6.160   2.365  0.7124  0.2704 -0.3411
 2238TIP3    H128349   2.056   6.131   2.449 -0.3800  0.5471 -0.7127
 2238TIP3    H228350   2.187   6.164   2.381  0.5744 -0.2076  0.7140
 2239TIP3   OH228351   0.611   2.176   2.456 -0.1645  0.1652 -0.3143
 2239TIP3    H128352   0.702   2.205   2.468  0.2478 -1.0448 -0.3599
 2239TIP3    H228353   0.583   2.216   2.375  0.0785  1.1498  0.0764
 2240TIP3   OH228354   6.440   4.473   4.046  0.1802 -0.1098  0.7629
 2240TIP3    H128355   6.349   4.447   4.027  0.7704 -1.1139 -0.9236
 2240TIP3    H228356   6.447   4.561   4.008 -0.5136  0.6782  2.3639
 2241TIP3   OH228357   3.419   0.121   2.299 -0.0327 -0.2465 -0.2168
 2241TIP3    H128358   3.337   0.076   2.320  0.5688 -0.7406  1.1991
 2241TIP3    H228359   3.483   0.082   2.359  0.8450  1.3901 -0.0388
 2242TIP3   OH228360   6.409   5.245   2.229 -0.0413 -0.1496  0.1789
 2242TIP3    H128361   6.322   5.205   2.232 -0.5331  0.8945  0.3163
 2242TIP3    H228362   6.420   5.284   2.315 -0.7092  2.2595 -0.7329
 2243TIP3   OH228363   1.957   0.247   0.997  0.4033  0.1898  0.1569
 2243TIP3    H128364   1.928   0.328   1.039  1.8711  0.5453  0.5501
 2243TIP3    H228365   2.014   0.276   0.926  0.6939 -0.4899  0.1058
 2244TIP3   OH228366   5.248   4.795   1.048 -0.2155 -0.0968  0.5181
 2244TIP3    H128367   5.340   4.818   1.036 -0.4648  0.3369 -0.7324
 2244TIP3    H228368   5.248   4.699   1.055  0.1771 -0.2666 -1.3118
 2245TIP3   OH228369   3.556   0.428   1.493 -0.1550 -0.0104  0.0199
 2245TIP3    H128370   3.464   0.446   1.513 -0.2681 -1.1348  0.6005
 2245TIP3    H228371   3.603   0.456   1.572 -0.1594 -0.7049  0.2760
 2246TIP3   OH228372   6.625   6.247   3.921  0.1363  0.3934 -0.1393
 2246TIP3    H128373   6.620   6.178   3.986 -0.6190  1.5303  1.0681
 2246TIP3    H228374   6.574   6.319   3.959  2.1283  2.1552 -0.6601
 2247TIP3   OH228375   5.185   6.622   0.797  0.3679 -0.6496  0.4931
 2247TIP3    H128376   5.224   6.667   0.722  0.3082 -1.4691 -0.0438
 2247TIP3    H228377   5.114   6.680   0.826 -0.2771 -0.7839 -0.7403
 2248TIP3   OH228378   4.399   6.243   2.231  0.0284 -0.3909  0.6326
 2248TIP3    H128379   4.365   6.213   2.146  2.0952  0.8797 -0.7157
 2248TIP3    H228380   4.320   6.262   2.282 -1.3092 -0.3587 -1.3135
 2249TIP3   OH228381   0.602   5.546   4.326 -0.1294 -0.2242 -0.1388
 2249TIP3    H128382   0.632   5.458   4.303  1.3650  0.3456 -0.4910
 2249TIP3    H228383   0.529   5.563   4.266  1.2009 -0.2688 -1.8367
 2250TIP3   OH228384   3.174   4.749   2.819  0.6019  0.1505  0.3285
 2250TIP3    H128385   3.120   4.698   2.879  1.6214 -2.0813 -0.5483
 2250TIP3    H228386   3.232   4.685   2.778  0.4907  1.6833 -2.4685
 2251TIP3   OH228387   6.683   2.765   1.953  0.1130  0.0804  0.0284
 2251TIP3    H128388   6.600   2.809   1.969  0.2892  0.7662 -0.8427
 2251TIP3    H228389   6.660   2.685   1.906 -0.1096 -0.1385  0.5017
 2252TIP3   OH228390   0.814   0.299   1.247 -0.0218  0.1660  0.3709
 2252TIP3    H128391   0.754   0.374   1.253  0.7899  1.0294 -1.6481
 2252TIP3    H228392   0.890   0.326   1.298  0.1067  0.5571 -0.0231
 2253TIP3   OH228393   5.899   1.881   4.175 -0.6000  0.1255  0.3424
 2253TIP3    H128394   5.905   1.811   4.241  0.3240  0.1861  0.3340
 2253TIP3    H228395   5.805   1.891   4.160 -0.7906 -0.4258  1.0817
 2254TIP3   OH228396   3.534   4.733   0.458 -0.5030 -0.2078 -0.6405
 2254TIP3    H128397   3.590   4.671   0.411  1.4440  0.6580  0.4091
 2254TIP3    H228398   3.519   4.692   0.543 -1.1588 -0.2707 -0.7880
 2255TIP3   OH228399   2.904   1.396   1.515 -0.7209 -0.5838 -0.2563
 2255TIP3    H128400   2.903   1.308   1.552 -0.0812 -0.8354 -0.8032
 2255TIP3    H228401   2.996   1.423   1.520 -1.1166  0.6104  1.1590
 2256TIP3   OH228402   4.221   4.915   4.529  0.0339  0.6685  0.1613
 2256TIP3    H128403   4.126   4.902   4.532  0.0236  0.8651  0.8492
 2256TIP3    H228404   4.233   5.008   4.546  0.2653  1.0855 -1.9550
 2257TIP3   OH228405   5.944   5.334   3.342  0.2804  0.0603 -0.0753
 2257TIP3    H128406   5.889   5.371   3.410 -0.1119 -0.4203 -0.1222
 2257TIP3    H228407   6.030   5.373   3.356 -0.0936  0.8877 -0.0579
 2258TIP3   OH228408   2.677   4.255   3.503 -0.0487 -0.0320  0.0969
 2258TIP3    H128409   2.622   4.252   3.581  0.7524  1.2411  0.7356
 2258TIP3    H228410   2.766   4.270   3.536  0.1669  1.4819 -1.0805
 2259TIP3   OH228411   1.058   3.613   2.961  0.2804 -0.4790 -0.0640
 2259TIP3    H128412   1.114   3.583   2.888  0.6210 -2.6212  0.9889
 2259TIP3    H228413   1.120   3.635   3.030 -0.0961 -0.1114  0.1535
 2260TIP3   OH228414   3.840   3.276   4.393 -0.3962 -0.0566  0.2337
 2260TIP3    H128415   3.805   3.190   4.420 -1.7116  0.9316  1.8855
 2260TIP3    H228416   3.932   3.260   4.376 -0.9277 -2.1228 -1.0210
 2261TIP3   OH228417   0.902   5.660   5.331  0.1162 -0.0172 -0.4518
 2261TIP3    H128418   0.877   5.750   5.312  1.5772  0.5094  0.0121
 2261TIP3    H228419   0.819   5.616   5.352 -0.6803  1.0595 -1.2293
 2262TIP3   OH228420   6.651   2.263   0.535 -0.0582 -0.4191 -0.8127
 2262TIP3    H128421   6.685   2.180   0.503  0.8125  0.3958 -2.0651
 2262TIP3    H228422   6.558   2.260   0.517  0.0186 -0.9973 -1.1175
 2263TIP3   OH228423   5.182   3.370   1.485 -0.2003  0.0993 -0.0108
 2263TIP3    H128424   5.120   3.320   1.538 -0.6423  1.6500  1.0075
 2263TIP3    H228425   5.176   3.331   1.398 -0.8976 -1.2555  0.6023
 2264TIP3   OH228426   6.447   1.493   5.422  0.1312 -0.0679  0.6793
 2264TIP3    H128427   6.485   1.572   5.460  0.8984 -0.5757  0.9910
 2264TIP3    H228428   6.523   1.441   5.394 -0.3235 -1.2244  1.5410
 2265TIP3   OH228429   3.726   0.060   1.221 -0.2873 -0.7011 -0.3223
 2265TIP3    H128430   3.811   0.016   1.218 -0.5637 -1.4010  1.0960
 2265TIP3    H228431   3.729   0.113   1.301 -0.4778  0.8316 -1.2789
 2266TIP3   OH228432   6.698   6.419   3.173 -0.7363  0.9907 -0.5881
 2266TIP3    H128433   6.616   6.405   3.126  0.3397  1.5706 -2.7593
 2266TIP3    H228434   6.760   6.450   3.106  1.7119 -0.9352  0.6141
 2267TIP3   OH228435   6.397   3.338   3.053  0.3870 -0.8954 -0.3368
 2267TIP3    H128436   6.449   3.285   2.993 -1.5094 -1.9854 -1.1095
 2267TIP3    H228437   6.311   3.297   3.053 -0.4816  0.7824  0.9389
 2268TIP3   OH228438   6.278   5.738   2.832  0.2849  0.5327 -0.0930
 2268TIP3    H128439   6.332   5.669   2.793 -0.3263 -0.6289  1.0271
 2268TIP3    H228440   6.306   5.741   2.923  0.4250  1.9299 -0.1604
 2269TIP3   OH228441   6.291   6.154   4.194  0.2914 -0.4263 -0.2594
 2269TIP3    H128442   6.268   6.127   4.283  0.0745 -0.9975 -0.4868
 2269TIP3    H228443   6.348   6.230   4.207  1.7968 -1.6098  0.4330
 2270TIP3   OH228444   3.023   3.842   4.264 -0.4123  0.0436  0.4229
 2270TIP3    H128445   3.062   3.923   4.231 -1.9484  0.5694 -0.1880
 2270TIP3    H228446   3.033   3.848   4.359  0.3448  0.4881  0.3217
 2271TIP3   OH228447   2.079   0.825   2.292 -0.4610 -0.2596  0.0684
 2271TIP3    H128448   2.087   0.844   2.385 -0.9387  0.4634 -0.0359
 2271TIP3    H228449   2.108   0.904   2.248 -2.8140  0.4410 -0.3568
 2272TIP3   OH228450   0.266   6.052   2.070 -0.5656  0.0720  0.1920
 2272TIP3    H128451   0.177   6.085   2.081  0.2697  3.6421 -2.1939
 2272TIP3    H228452   0.322   6.120   2.108  1.2423 -1.1513 -0.1310
 2273TIP3   OH228453   3.835   1.112   1.209 -0.3561  0.3606 -0.1457
 2273TIP3    H128454   3.920   1.094   1.249  0.1351 -0.2153 -1.3851
 2273TIP3    H228455   3.775   1.051   1.252  0.2508 -0.5584 -0.5655
 2274TIP3   OH228456   4.303   6.633   1.054  0.1213 -0.0350  0.2120
 2274TIP3    H128457   4.254   6.560   1.092 -0.1299  0.7760  1.5229
 2274TIP3    H228458   4.394   6.616   1.078  0.1300 -0.1725  0.0827
 2275TIP3   OH228459   4.354   3.060   3.365  0.1178 -0.2416 -0.0852
 2275TIP3    H128460   4.269   3.017   3.354 -0.0067  0.0395 -0.2569
 2275TIP3    H228461   4.374   3.094   3.277  0.1846  0.0956  0.0599
 2276TIP3   OH228462   0.534   2.625   1.544  0.6267  0.3160 -0.3431
 2276TIP3    H128463   0.462   2.684   1.567  0.7618  0.1958  0.4359
 2276TIP3    H228464   0.493   2.553   1.497  0.5356  1.2999 -1.8154
 2277TIP3   OH228465   2.355   6.110   3.738  0.1170 -0.8593  0.7179
 2277TIP3    H128466   2.437   6.153   3.762 -0.7951  2.2608 -1.2167
 2277TIP3    H228467   2.376   6.063   3.657  0.2480 -1.0088  0.8375
 2278TIP3   OH228468   0.756   6.200   1.890 -0.1771 -0.3053 -0.2200
 2278TIP3    H128469   0.747   6.129   1.954 -0.3088 -0.5605 -0.5187
 2278TIP3    H228470   0.815   6.165   1.823  0.1877  0.0639 -0.0953
 2279TIP3   OH228471   5.910   1.058   5.404  0.2033  0.5782 -0.3127
 2279TIP3    H128472   5.827   1.057   5.452  0.8377  1.0709  0.8362
 2279TIP3    H228473   5.953   0.976   5.431 -0.2471 -0.0981 -1.5630
 2280TIP3   OH228474   6.283   5.509   3.148  0.6311 -0.5402  0.0155
 2280TIP3    H128475   6.274   5.439   3.212 -0.0749  0.2460  0.8096
 2280TIP3    H228476   6.210   5.568   3.166  1.2575  0.4499 -0.5514
 2281TIP3   OH228477   4.907   3.387   3.386  0.6868 -0.0084  0.3978
 2281TIP3    H128478   4.824   3.341   3.401  0.0474  1.1719  0.6112
 2281TIP3    H228479   4.885   3.480   3.399  2.0950  0.2993  0.6989
 2282TIP3   OH228480   6.147   3.482   1.309  0.3070 -0.1232 -0.4853
 2282TIP3    H128481   6.087   3.508   1.380  1.1101 -1.0651  0.5751
 2282TIP3    H228482   6.228   3.527   1.329  1.1911 -2.0015  0.4142
 2283TIP3   OH228483   5.223   2.244   4.544  0.6378 -0.2040  0.5603
 2283TIP3    H128484   5.166   2.300   4.490 -0.0674 -1.1529  0.2999
 2283TIP3    H228485   5.180   2.159   4.545  1.2016 -0.4980  1.7534
 2284TIP3   OH228486   1.063   4.361   5.284  0.1023 -0.1872 -0.4758
 2284TIP3    H128487   0.994   4.321   5.338  0.3839  0.0905  0.0902
 2284TIP3    H228488   1.141   4.359   5.338  0.3456  0.2772 -0.8022
 2285TIP3   OH228489   5.252   4.898   5.449  0.3659  0.2851  0.4691
 2285TIP3    H128490   5.259   4.803   5.446 -2.3008 -0.0806  2.5847
 2285TIP3    H228491   5.336   4.929   5.415  2.0922 -2.8337  1.5001
 2286TIP3   OH228492   0.945   6.739   1.346  0.0790 -0.6769  0.0400
 2286TIP3    H128493   1.009   6.762   1.414 -0.4665 -0.9607  0.6619
 2286TIP3    H228494   0.885   6.678   1.389  0.9946 -2.6293 -1.3247
 2287TIP3   OH228495   6.413   5.601   2.605  0.6293  0.2094  0.2701
 2287TIP3    H128496   6.476   5.542   2.647 -0.0364 -0.0671  0.9128
 2287TIP3    H228497   6.466   5.658   2.550  1.5735  0.7338  1.6743
 2288TIP3   OH228498   4.201   2.442   2.116 -0.6316 -0.2802  0.1990
 2288TIP3    H128499   4.190   2.512   2.052 -1.2055 -0.4548  0.1070
 2288TIP3    H228500   4.174   2.362   2.070 -1.6746 -0.3155  0.8568
 2289TIP3   OH228501   0.205   4.387   3.496  0.2896  0.0945 -0.0529
 2289TIP3    H128502   0.197   4.465   3.551  0.5799 -0.5835  0.9809
 2289TIP3    H228503   0.121   4.342   3.506  0.8850 -0.7976  1.0529
 2290TIP3   OH228504   2.649   5.232   4.889 -0.0426 -0.1117 -0.8296
 2290TIP3    H128505   2.735   5.224   4.848  0.4929 -1.8964  0.5252
 2290TIP3    H228506   2.639   5.326   4.906  1.4383  0.1693 -1.3836
 2291TIP3   OH228507   0.311   6.209   1.818  0.3205  0.6296 -0.5334
 2291TIP3    H128508   0.218   6.204   1.837  0.5530 -1.5777  0.4210
 2291TIP3    H228509   0.344   6.279   1.874 -0.3481 -0.4347  1.2765
 2292TIP3   OH228510   2.104   2.144   4.184 -0.6763 -0.6095  0.7409
 2292TIP3    H128511   2.037   2.120   4.248  0.7350 -2.0978  1.7396
 2292TIP3    H228512   2.143   2.060   4.157  0.8478  0.2092  0.2839
 2293TIP3   OH228513   2.873   6.652   4.335  0.1803  0.5419  0.1070
 2293TIP3    H128514   2.816   6.636   4.410  0.7882 -1.0381  0.2725
 2293TIP3    H228515   2.868   6.746   4.320 -1.9886  0.5383  0.4952
 2294TIP3   OH228516   1.950   3.666   4.089 -0.4925  0.3808 -0.1957
 2294TIP3    H128517   2.009   3.713   4.148 -0.5652  0.7388 -0.4020
 2294TIP3    H228518   1.900   3.607   4.146  1.7856 -1.7856 -0.2869
 2295TIP3   OH228519   2.687   1.014   2.518  0.2840 -0.0458 -0.8788
 2295TIP3    H128520   2.631   0.968   2.580 -0.2032  1.0475 -0.4796
 2295TIP3    H228521   2.769   1.027   2.565  0.1418  0.2026 -0.6976
 2296TIP3   OH228522   5.237   6.362   1.964 -0.1686 -0.3770  0.3454
 2296TIP3    H128523   5.306   6.423   1.938 -0.5316 -0.1524 -0.1075
 2296TIP3    H228524   5.161   6.418   1.982 -0.8642 -0.7518 -1.2302
 2297TIP3   OH228525   3.106   5.386   4.370  0.0963  0.6692 -0.0277
 2297TIP3    H128526   3.191   5.430   4.366  0.3498  0.0650 -1.5129
 2297TIP3    H228527   3.095   5.345   4.285 -1.1251 -0.3385  0.5782
 2298TIP3   OH228528   1.039   4.895   0.931 -0.5334 -0.1635 -0.1490
 2298TIP3    H128529   1.130   4.923   0.941 -0.2208 -1.4675  0.9053
 2298TIP3    H228530   0.996   4.969   0.888  0.9715  0.5574 -0.4745
 2299TIP3   OH228531   3.986   3.995   2.884  0.1679  0.3428  0.6496
 2299TIP3    H128532   3.896   4.010   2.914  0.4760  2.7676  0.5815
 2299TIP3    H228533   3.982   4.010   2.790  0.3587 -1.2060  0.3747
 2300TIP3   OH228534   1.043   6.294   0.623  0.3242 -0.2966  0.6878
 2300TIP3    H128535   0.990   6.274   0.700 -0.3331 -0.6679  0.1595
 2300TIP3    H228536   1.133   6.278   0.651  0.0203 -1.4551  1.0842
 2301TIP3   OH228537   4.881   6.680   5.348  0.1253  0.4917  0.1411
 2301TIP3    H128538   4.858   6.589   5.367  1.0230  0.6035  1.9695
 2301TIP3    H228539   4.913   6.715   5.431  0.9343  2.1433 -0.8024
 2302TIP3   OH228540   5.761   0.667   3.767  0.2998  0.2530 -0.5535
 2302TIP3    H128541   5.669   0.665   3.793 -0.1082 -1.0160 -1.8738
 2302TIP3    H228542   5.760   0.632   3.677  2.0623  0.2509 -0.6009
 2303TIP3   OH228543   4.215   4.951   1.797 -0.2844  0.0305  0.5055
 2303TIP3    H128544   4.280   5.004   1.751  0.5264 -0.5194  0.9844
 2303TIP3    H228545   4.196   4.879   1.737 -0.3112  0.0882  0.4444
 2304TIP3   OH228546   1.947   4.846   1.590 -0.4685 -0.2354 -0.0698
 2304TIP3    H128547   2.030   4.816   1.627  1.5860  1.7993 -2.6211
 2304TIP3    H228548   1.930   4.930   1.633 -0.5343 -0.0925 -0.3642
 2305TIP3   OH228549   4.624   2.679   4.992 -0.9069 -0.0674 -0.8028
 2305TIP3    H128550   4.667   2.701   5.075 -1.0644 -0.5058 -0.5994
 2305TIP3    H228551   4.610   2.763   4.950  0.6414  0.0635 -1.1305
 2306TIP3   OH228552   3.998   5.531   5.285 -0.4949 -0.9413  0.3767
 2306TIP3    H128553   4.032   5.442   5.276 -1.9541 -1.5923  0.9900
 2306TIP3    H228554   3.931   5.539   5.217  0.1029 -0.0638 -0.1237
 2307TIP3   OH228555   0.613   3.229   1.814 -0.7053 -0.0312  0.3696
 2307TIP3    H128556   0.523   3.247   1.784 -1.2779 -1.7704  0.9521
 2307TIP3    H228557   0.607   3.229   1.909 -0.0324  0.0602  0.4160
 2308TIP3   OH228558   2.047   6.562   5.030 -0.1974  0.5622 -0.2466
 2308TIP3    H128559   2.119   6.502   5.010 -0.8654 -0.7851  1.1045
 2308TIP3    H228560   1.969   6.517   4.997 -1.2564 -1.4378  4.2185
 2309TIP3   OH228561   2.957   2.053   2.709  0.0266 -0.1876  0.1419
 2309TIP3    H128562   2.992   2.134   2.744 -0.1230 -0.2559  0.4510
 2309TIP3    H228563   3.033   2.007   2.673  0.0375  0.3176 -0.4988
 2310TIP3   OH228564   3.510   4.981   3.582 -0.7210 -0.3602 -0.5133
 2310TIP3    H128565   3.426   4.984   3.535 -0.3771 -0.4881 -1.1439
 2310TIP3    H228566   3.510   4.897   3.627 -1.4213  0.1215  0.4171
 2311TIP3   OH228567   2.185   0.812   3.653  0.2933 -0.4312 -0.4023
 2311TIP3    H128568   2.175   0.723   3.687 -0.2376 -0.0756  0.3897
 2311TIP3    H228569   2.273   0.839   3.680  0.7844 -1.0065 -1.3638
 2312TIP3   OH228570   4.551   0.337   4.530  0.3416  0.3807 -0.6671
 2312TIP3    H128571   4.487   0.376   4.469 -1.0441  1.1213  1.1513
 2312TIP3    H228572   4.618   0.404   4.540  0.6345  0.2114 -1.4434
 2313TIP3   OH228573   0.894   6.341   3.875 -0.0655  0.4351  0.0714
 2313TIP3    H128574   0.918   6.253   3.902 -2.0831 -0.3922 -0.5720
 2313TIP3    H228575   0.885   6.391   3.956  0.6991 -0.0677  0.4641
 2314TIP3   OH228576   6.454   0.332   3.023  0.1077  0.5649 -0.1127
 2314TIP3    H128577   6.510   0.407   3.003 -0.7349  1.3418  0.3982
 2314TIP3    H228578   6.378   0.343   2.966  0.3829 -0.4203 -0.7125
 2315TIP3   OH228579   0.438   1.684   1.676  0.3721 -0.2181  0.1497
 2315TIP3    H128580   0.434   1.619   1.746 -0.3710 -0.0376  0.2906
 2315TIP3    H228581   0.346   1.706   1.659  0.3129 -2.2571 -2.7958
 2316TIP3   OH228582   2.314   2.942   1.902  0.2938 -0.6558 -0.2512
 2316TIP3    H128583   2.309   3.002   1.976  0.2163  0.1879 -0.9306
 2316TIP3    H228584   2.341   2.859   1.941 -1.5193 -0.7167  0.9704
 2317TIP3   OH228585   5.839   2.301   4.977  0.6663 -0.2593  0.5307
 2317TIP3    H128586   5.928   2.272   4.958  1.8479  3.3740 -0.1614
 2317TIP3    H228587   5.791   2.286   4.895  1.9728  2.0262 -0.7567
 2318TIP3   OH228588   3.710   3.039   4.187  0.2480  0.0564 -0.0980
 2318TIP3    H128589   3.666   2.999   4.262 -1.2582  0.3879 -0.7676
 2318TIP3    H228590   3.641   3.087   4.141  1.0461 -0.3981 -1.8793
 2319TIP3   OH228591   5.886   1.545   1.810  0.0966 -0.0487  0.2746
 2319TIP3    H128592   5.954   1.495   1.766  0.2429  0.1533  0.2731
 2319TIP3    H228593   5.821   1.479   1.835  0.6070 -0.3367  0.8711
 2320TIP3   OH228594   1.271   1.956   2.856 -0.0758 -0.2145  0.2331
 2320TIP3    H128595   1.328   1.986   2.786 -0.9186 -0.8198 -0.7374
 2320TIP3    H228596   1.283   1.861   2.858 -0.0120 -0.1980  0.9574
 2321TIP3   OH228597   5.744   4.067   2.242  0.2081  0.0464 -0.3012
 2321TIP3    H128598   5.763   4.053   2.335 -0.5590  0.0354 -0.1435
 2321TIP3    H228599   5.824   4.109   2.208  1.0640 -1.2610  0.0309
 2322TIP3   OH228600   6.698   5.323   2.437  0.4327 -0.4517 -0.5801
 2322TIP3    H128601   6.666   5.334   2.527  2.1161 -1.3279  0.1681
 2322TIP3    H228602   6.665   5.400   2.391  0.1628  0.4065  0.9633
 2323TIP3   OH228603   2.052   2.457   3.110  0.5421 -0.3577  0.0068
 2323TIP3    H128604   2.095   2.482   3.028 -0.6744  0.2578 -0.4709
 2323TIP3    H228605   1.962   2.488   3.101  0.4304 -0.0906  1.6732
 2324TIP3   OH228606   3.297   3.675   1.743 -0.3720 -0.7907  0.1615
 2324TIP3    H128607   3.253   3.726   1.675 -2.0542 -1.5302  0.6497
 2324TIP3    H228608   3.366   3.628   1.697  0.0837  0.5504 -0.5941
 2325TIP3   OH228609   0.234   0.636   2.613 -0.0174 -0.0985 -0.7710
 2325TIP3    H128610   0.286   0.670   2.540 -0.5152 -0.4711 -1.3113
 2325TIP3    H228611   0.170   0.578   2.572  0.0615 -0.7679  0.0193
 2326TIP3   OH228612   1.502   6.164   4.562 -0.6989  0.1862  0.0732
 2326TIP3    H128613   1.433   6.206   4.613  2.3629  0.4636  4.4876
 2326TIP3    H228614   1.531   6.091   4.616  1.7582 -0.5928 -2.0804
 2327TIP3   OH228615   5.928   5.863   5.547 -0.2780 -0.0171 -0.2307
 2327TIP3    H128616   5.983   5.787   5.526 -1.4485 -1.1006  0.4587
 2327TIP3    H228617   5.886   5.886   5.464 -0.3541 -0.4802 -0.3222
 2328TIP3   OH228618   4.330   1.311   3.072 -0.2866 -0.3572 -0.2182
 2328TIP3    H128619   4.281   1.357   3.004 -0.2902 -0.0750 -0.0222
 2328TIP3    H228620   4.400   1.266   3.024 -0.5774 -0.5469 -0.4647
 2329TIP3   OH228621   6.512   2.874   3.428 -0.3324  0.1915  0.0342
 2329TIP3    H128622   6.587   2.819   3.448 -1.4812 -0.9695  1.3846
 2329TIP3    H228623   6.545   2.964   3.435  0.9025 -0.3000  0.6923
 2330TIP3   OH228624   6.196   6.242   4.482  0.4347 -0.0735 -0.1316
 2330TIP3    H128625   6.147   6.284   4.553  1.1073  0.1924  0.1844
 2330TIP3    H228626   6.208   6.151   4.512  0.9713  0.1140  0.2365
 2331TIP3   OH228627   6.476   0.582   2.376  0.2929  0.2448  0.2832
 2331TIP3    H128628   6.544   0.574   2.309  0.0042 -0.7352  0.0979
 2331TIP3    H228629   6.458   0.676   2.379  2.8511  0.7934  1.5581
 2332TIP3   OH228630   2.554   6.295   1.908  0.8299  0.2287  0.1975
 2332TIP3    H128631   2.543   6.389   1.926  0.9890  0.5949 -1.3923
 2332TIP3    H228632   2.465   6.259   1.914  0.2560  1.0804 -1.9982
 2333TIP3   OH228633   0.806   0.967   4.108  0.4315 -0.5364  0.0593
 2333TIP3    H128634   0.736   1.018   4.067  2.9101  0.8012 -2.9614
 2333TIP3    H228635   0.826   1.015   4.189 -1.4721 -0.4537  0.5345
 2334TIP3   OH228636   2.192   5.127   5.013 -0.8049 -0.0122 -0.3393
 2334TIP3    H128637   2.160   5.049   4.968  2.1426 -1.0702 -0.8021
 2334TIP3    H228638   2.236   5.094   5.091  0.1272  1.2006 -0.3175
 2335TIP3   OH228639   2.960   4.876   3.855  0.2669  0.0152  0.6091
 2335TIP3    H128640   2.992   4.939   3.790 -1.4395 -1.0763 -1.4356
 2335TIP3    H228641   3.007   4.795   3.835 -1.7483 -0.9019 -0.7627
 2336TIP3   OH228642   1.594   6.203   1.224 -0.0761  0.4464  0.2165
 2336TIP3    H128643   1.588   6.269   1.292 -0.2726  0.2165  0.4243
 2336TIP3    H228644   1.513   6.213   1.173 -1.2602 -1.1522  1.6464
 2337TIP3   OH228645   5.668   0.745   4.687 -0.1708  0.4781  0.5799
 2337TIP3    H128646   5.606   0.673   4.693  1.5264 -1.0564  0.6603
 2337TIP3    H228647   5.695   0.761   4.777  0.4509  0.2734  0.4382
 2338TIP3   OH228648   2.635   3.642   1.279 -0.2651  0.2266  0.7251
 2338TIP3    H128649   2.648   3.649   1.185 -0.9773 -0.3689  0.5725
 2338TIP3    H228650   2.697   3.703   1.317 -0.3327  0.8528 -0.1567
 2339TIP3   OH228651   2.592   3.528   3.992  0.2407 -0.2550 -0.2137
 2339TIP3    H128652   2.507   3.484   4.001  0.3298 -0.9946 -2.4009
 2339TIP3    H228653   2.573   3.620   4.014 -0.8348 -0.6148  0.4898
 2340TIP3   OH228654   6.198   5.947   1.576  0.1117 -0.1085  0.1749
 2340TIP3    H128655   6.267   5.904   1.626  0.2111  0.4960  0.5631
 2340TIP3    H228656   6.128   5.882   1.572 -0.4467  0.3030  2.2680
 2341TIP3   OH228657   3.967   3.194   3.166  0.2788  0.1323 -0.3807
 2341TIP3    H128658   3.880   3.234   3.171  0.7467  1.3039 -1.0012
 2341TIP3    H228659   4.017   3.254   3.110  1.9509  0.3678  1.2618
 2342TIP3   OH228660   1.317   3.192   4.693  0.0550  1.2778 -0.6056
 2342TIP3    H128661   1.252   3.143   4.745 -1.1339  1.2318 -2.0745
 2342TIP3    H228662   1.347   3.261   4.752  1.0379 -0.5587  1.1853
 2343TIP3   OH228663   1.160   0.249   4.524 -0.4362  0.6024 -0.3085
 2343TIP3    H128664   1.207   0.296   4.455 -2.1141  0.7481 -1.3925
 2343TIP3    H228665   1.208   0.166   4.533 -0.3329  0.4568 -1.8618
 2344TIP3   OH228666   4.534   2.011   3.916  0.0332  0.3493 -0.0169
 2344TIP3    H128667   4.487   1.968   3.988  0.4993  0.0302  0.1010
 2344TIP3    H228668   4.520   2.104   3.931 -3.3256  0.2631 -1.8065
 2345TIP3   OH228669   0.164   1.926   4.756  0.5345  0.1906 -0.3298
 2345TIP3    H128670   0.215   1.969   4.824 -0.6958  1.4451 -0.1470
 2345TIP3    H228671   0.223   1.860   4.719  2.1660  1.3856  0.0331
 2346TIP3   OH228672   6.023   5.109   1.917 -0.2999  0.2768 -0.2481
 2346TIP3    H128673   5.969   5.086   1.841 -0.4445  0.7930 -0.3008
 2346TIP3    H228674   6.103   5.144   1.879  0.3939 -1.1456 -0.1852
 2347TIP3   OH228675   0.459   4.820   1.636 -0.0632  0.7221 -0.2223
 2347TIP3    H128676   0.527   4.799   1.572  1.4121  0.9799  1.1738
 2347TIP3    H228677   0.435   4.735   1.674 -2.7398  0.2086 -2.6841
 2348TIP3   OH228678   2.966   2.010   4.638 -0.6883  0.3278  0.1701
 2348TIP3    H128679   3.053   1.981   4.664 -1.3180 -1.1919  0.7014
 2348TIP3    H228680   2.954   2.094   4.684  0.5401  0.6450 -0.0512
 2349TIP3   OH228681   6.316   1.596   3.143  0.1624  0.1127  0.1924
 2349TIP3    H128682   6.263   1.606   3.063 -0.2599 -1.4294  0.2431
 2349TIP3    H228683   6.303   1.677   3.191 -0.5663  0.5664 -0.7420
 2350TIP3   OH228684   4.937   4.886   5.243  0.2605  0.1739  0.0446
 2350TIP3    H128685   4.989   4.806   5.249  0.2150  0.0902 -0.5606
 2350TIP3    H228686   4.954   4.932   5.325 -0.6932 -1.0362  0.9678
 2351TIP3   OH228687   2.346   2.026   3.399 -0.4144 -0.8079 -0.1232
 2351TIP3    H128688   2.268   2.039   3.345  0.5472 -2.4068 -2.0122
 2351TIP3    H228689   2.343   2.097   3.463 -2.3527  0.3459 -1.3988
 2352TIP3   OH228690   3.730   2.391   1.546  0.9074  0.2591 -0.4489
 2352TIP3    H128691   3.688   2.306   1.536  1.4253  0.0372 -0.7687
 2352TIP3    H228692   3.766   2.411   1.459  0.1023  1.1770 -0.5904
 2353TIP3   OH228693   5.160   4.841   0.305 -0.8226 -0.0289 -0.5145
 2353TIP3    H128694   5.065   4.837   0.313 -1.1090  1.9074 -2.1411
 2353TIP3    H228695   5.191   4.864   0.393 -1.7404 -1.5832  0.2545
 2354TIP3   OH228696   6.495   5.103   1.933  0.6265 -0.4633  0.5583
 2354TIP3    H128697   6.533   5.135   2.015  0.3349 -1.2263  0.9968
 2354TIP3    H228698   6.542   5.151   1.865  0.6158  0.4613  1.1763
 2355TIP3   OH228699   0.902   4.844   3.136 -0.2899 -0.3118 -0.0465
 2355TIP3    H128700   0.872   4.933   3.115  1.1563  0.2709  0.2157
 2355TIP3    H228701   0.931   4.808   3.053 -0.8210 -0.5255 -0.1428
 2356TIP3   OH228702   1.942   0.128   3.272 -0.0952  0.0518  0.8118
 2356TIP3    H128703   1.861   0.077   3.278 -0.6034  0.6164 -0.6640
 2356TIP3    H228704   1.936   0.192   3.342 -2.3153  1.8992 -0.9173
 2357TIP3   OH228705   3.704   6.381   4.395 -0.5438 -0.4853  0.4389
 2357TIP3    H128706   3.637   6.416   4.452 -0.4391 -0.9383  0.8468
 2357TIP3    H228707   3.742   6.307   4.444 -0.6804 -1.0878 -0.3418
 2358TIP3   OH228708   1.857   4.497   4.745 -0.3081  0.1246 -0.3255
 2358TIP3    H128709   1.906   4.431   4.696  3.9790  1.6540  1.4907
 2358TIP3    H228710   1.820   4.554   4.677 -0.1791 -1.4708 -1.8063
 2359TIP3   OH228711   5.263   3.268   0.538  0.8437 -0.0145 -0.7239
 2359TIP3    H128712   5.337   3.225   0.495  0.0947 -0.3921 -1.6789
 2359TIP3    H228713   5.291   3.280   0.629  1.8091 -0.7670 -0.9103
 2360TIP3   OH228714   3.186   6.083   1.910  0.0730 -0.5979 -0.3520
 2360TIP3    H128715   3.184   6.043   1.824  1.9548 -0.9961 -0.2613
 2360TIP3    H228716   3.107   6.052   1.954 -1.3914  0.3218 -2.1977
 2361TIP3   OH228717   0.657   2.908   1.181  0.4104 -0.4698  0.1542
 2361TIP3    H128718   0.722   2.838   1.176  0.7638 -0.1192 -0.3916
 2361TIP3    H228719   0.702   2.979   1.228 -0.1884 -0.8536  1.3456
 2362TIP3   OH228720   0.218   3.593   2.320 -0.0966 -0.2109  0.1148
 2362TIP3    H128721   0.261   3.532   2.380 -1.5071  0.2104  1.6190
 2362TIP3    H228722   0.236   3.557   2.233  0.6696 -1.7306  0.8575
 2363TIP3   OH228723   5.886   0.576   1.691  0.6028 -0.0569  0.5425
 2363TIP3    H128724   5.843   0.547   1.772 -1.2311 -1.5607 -0.8874
 2363TIP3    H228725   5.864   0.669   1.685 -0.8157 -0.3438  0.8769
 2364TIP3   OH228726   0.224   1.060   5.028  0.3676 -0.6238  0.1510
 2364TIP3    H128727   0.244   0.978   4.983  1.4483 -0.7780  0.8798
 2364TIP3    H228728   0.298   1.074   5.087  0.7347  1.4119 -0.7031
 2365TIP3   OH228729   1.483   0.302   3.117 -0.8585  0.1380 -0.3386
 2365TIP3    H128730   1.492   0.316   3.212 -1.6768 -1.0277 -0.0580
 2365TIP3    H228731   1.523   0.216   3.102 -1.8910 -0.2746 -0.8174
 2366TIP3   OH228732   4.531   0.720   1.847 -0.6299  0.1492  0.6206
 2366TIP3    H128733   4.439   0.709   1.869 -0.7044  1.6075  1.1692
 2366TIP3    H228734   4.535   0.802   1.797  0.3825  0.2372  0.8112
 2367TIP3   OH228735   1.188   1.839   2.223 -0.3543 -0.2160 -0.2670
 2367TIP3    H128736   1.230   1.894   2.157  0.3816 -0.7363 -0.2348
 2367TIP3    H228737   1.215   1.877   2.307 -2.1055  1.0732 -0.2264
 2368TIP3   OH228738   3.478   3.241   1.168 -0.2147  0.3122 -0.1015
 2368TIP3    H128739   3.478   3.156   1.124 -1.0594  0.2034  0.0845
 2368TIP3    H228740   3.557   3.284   1.137 -0.1074 -0.2920 -0.6976
 2369TIP3   OH228741   2.546   6.458   4.244  0.7081  0.0346 -0.4381
 2369TIP3    H128742   2.496   6.513   4.183 -0.2834 -1.3521 -0.9249
 2369TIP3    H228743   2.520   6.489   4.331 -1.3457 -0.9062 -0.6716
 2370TIP3   OH228744   1.905   2.575   3.338  0.1579 -0.4891 -0.8714
 2370TIP3    H128745   1.959   2.510   3.293  1.1120 -1.1118  1.0831
 2370TIP3    H228746   1.839   2.600   3.273  1.3634 -1.4476 -2.5372
 2371TIP3   OH228747   3.674   0.497   5.434  0.3570  0.0466  0.3028
 2371TIP3    H128748   3.694   0.556   5.361  1.8408  0.7544  1.2502
 2371TIP3    H228749   3.635   0.554   5.500  1.2795 -0.1257  1.0063
 2372TIP3   OH228750   3.923   4.935   0.831 -0.5165  0.2906 -0.4294
 2372TIP3    H128751   3.993   4.888   0.878  0.1916  0.4952 -1.2516
 2372TIP3    H228752   3.969   5.003   0.782 -1.1255 -0.3737 -1.9927
 2373TIP3   OH228753   3.945   3.642   2.418 -0.3614 -0.0534  0.2051
 2373TIP3    H128754   3.969   3.646   2.510  0.6961  0.7665 -0.0749
 2373TIP3    H228755   4.029   3.650   2.372 -0.7583 -1.5729 -0.8210
 2374TIP3   OH228756   5.344   3.487   1.041  0.3678 -0.4124  0.3294
 2374TIP3    H128757   5.252   3.463   1.053 -0.5865  2.5296 -0.4647
 2374TIP3    H228758   5.348   3.526   0.954  1.8347  1.7386  1.2905
 2375TIP3   OH228759   1.079   3.158   3.658  0.5970 -0.0689  0.2508
 2375TIP3    H128760   1.122   3.243   3.665  0.4526  0.0194  0.0729
 2375TIP3    H228761   0.988   3.174   3.682  0.4287 -0.0467 -0.3840
 2376TIP3   OH228762   2.836   2.145   1.597  0.8119 -0.2033  0.2602
 2376TIP3    H128763   2.774   2.175   1.664  0.3582 -1.1928  0.3050
 2376TIP3    H228764   2.872   2.226   1.560 -1.1514  0.4515 -0.3688
 2377TIP3   OH228765   3.574   1.891   1.019 -0.1177 -0.0234  0.0576
 2377TIP3    H128766   3.602   1.949   0.949 -0.2721 -0.2608 -0.2057
 2377TIP3    H228767   3.625   1.918   1.095  0.0319  0.2540 -0.1404
 2378TIP3   OH228768   4.265   2.261   1.585  0.1559  0.0012 -0.3749
 2378TIP3    H128769   4.180   2.221   1.606  1.0620 -2.1577 -0.5491
 2378TIP3    H228770   4.252   2.299   1.498 -1.4194  2.2954  0.7674
 2379TIP3   OH228771   4.578   6.476   4.405  0.3135  0.1033 -0.1941
 2379TIP3    H128772   4.659   6.479   4.454 -0.1925 -1.1495  0.7757
 2379TIP3    H228773   4.573   6.561   4.361  2.7230 -0.2428 -1.2643
 2380TIP3   OH228774   1.122   6.746   0.680  0.1137  0.2954  0.0844
 2380TIP3    H128775   1.060   6.803   0.634 -2.4718 -2.3364  0.0185
 2380TIP3    H228776   1.164   6.696   0.610 -0.5617 -0.6153  0.3162
 2381TIP3   OH228777   0.180   4.281   1.388 -0.2386  0.0915 -0.2217
 2381TIP3    H128778   0.209   4.199   1.348  1.9329  0.9840 -0.6546
 2381TIP3    H228779   0.107   4.310   1.334  0.2713 -0.5792 -1.3074
 2382TIP3   OH228780   0.203   3.100   3.089  0.2903 -0.3723  0.6361
 2382TIP3    H128781   0.273   3.163   3.071  1.9756 -2.4839 -0.6813
 2382TIP3    H228782   0.176   3.068   3.003 -1.2959 -0.6843  1.2155
 2383TIP3   OH228783   1.182   6.529   0.986 -0.3544 -0.4939 -0.0042
 2383TIP3    H128784   1.191   6.621   1.013  0.8741 -1.1435  2.0771
 2383TIP3    H228785   1.245   6.520   0.914 -2.0492  0.7558 -1.7423
 2384TIP3   OH228786   3.461   0.704   0.652  0.4973  0.5451  0.1541
 2384TIP3    H128787   3.516   0.738   0.581 -1.9590  2.9700 -0.7624
 2384TIP3    H228788   3.433   0.618   0.621 -0.9104  1.7474 -2.1542
 2385TIP3   OH228789   2.219   0.551   3.759 -0.0789  0.2597 -0.2289
 2385TIP3    H128790   2.197   0.479   3.817  1.5494  0.3903  0.6189
 2385TIP3    H228791   2.294   0.520   3.708  1.2305  1.5786  0.7686
 2386TIP3   OH228792   0.736   0.924   1.921 -0.2687 -0.2314 -0.1449
 2386TIP3    H128793   0.698   0.982   1.854 -0.0747 -0.3313 -0.3406
 2386TIP3    H228794   0.791   0.863   1.872  1.8748  1.2186  0.3126
 2387TIP3   OH228795   1.771   1.158   2.978  0.1805  0.2533  0.2720
 2387TIP3    H128796   1.704   1.224   3.000 -0.2451 -0.6190  1.7689
 2387TIP3    H228797   1.727   1.074   2.992  1.0087 -0.3518 -0.6662
 2388TIP3   OH228798   1.632   3.329   3.614 -0.0683 -0.0619  0.7902
 2388TIP3    H128799   1.693   3.376   3.671  0.3154 -0.0473  0.3661
 2388TIP3    H228800   1.569   3.290   3.675  0.2534  0.0701  1.2166
 2389TIP3   OH228801   1.637   1.690   0.884  0.4870  0.9914  0.0729
 2389TIP3    H128802   1.719   1.668   0.929  0.8562  1.8508 -0.1472
 2389TIP3    H228803   1.607   1.608   0.846  0.8339  0.5114  0.8297
 2390TIP3   OH228804   3.700   0.967   4.110  0.2492 -0.6254 -0.1762
 2390TIP3    H128805   3.670   1.025   4.040 -0.6367 -1.2751 -0.3652
 2390TIP3    H228806   3.688   0.879   4.074  1.2244 -0.9365  0.2350
 2391TIP3   OH228807   6.664   1.378   5.305  0.4850  0.1935 -0.6566
 2391TIP3    H128808   6.617   1.364   5.223 -0.1988 -1.8164  0.0227
 2391TIP3    H228809   6.739   1.318   5.300 -0.2978 -0.9704  0.6992
 2392TIP3   OH228810   6.310   6.229   1.207 -0.6744 -0.3514 -0.2292
 2392TIP3    H128811   6.385   6.286   1.191  0.2233 -1.5048 -0.2387
 2392TIP3    H228812   6.236   6.275   1.167  0.3719 -0.1395 -2.0375
 2393TIP3   OH228813   3.341   2.975   4.268  0.1714 -0.3116 -0.0558
 2393TIP3    H128814   3.259   2.976   4.316 -0.5038  1.1085 -1.1608
 2393TIP3    H228815   3.362   2.882   4.257 -1.3710 -0.7049  0.1136
 2394TIP3   OH228816   5.886   1.394   3.879 -0.4268  0.7324  0.4621
 2394TIP3    H128817   5.959   1.418   3.822 -0.0796 -0.9184  0.1590
 2394TIP3    H228818   5.812   1.383   3.819 -0.3379  0.1220  0.4547
 2395TIP3   OH228819   0.796   1.928   3.213  0.7912  0.7696 -0.6507
 2395TIP3    H128820   0.823   1.891   3.130 -0.2734  0.1121 -0.7258
 2395TIP3    H228821   0.813   2.022   3.205  1.4028  0.6015 -1.3168
 2396TIP3   OH228822   6.328   0.632   2.955  0.6184  0.1908 -0.1693
 2396TIP3    H128823   6.259   0.570   2.978  0.8334 -0.2230 -0.6313
 2396TIP3    H228824   6.322   0.700   3.023  1.1748 -0.9336  1.0489
 2397TIP3   OH228825   1.210   6.338   3.472  0.1698 -0.2864 -0.4873
 2397TIP3    H128826   1.198   6.259   3.523  1.3108 -0.0587  0.1592
 2397TIP3    H228827   1.302   6.361   3.483  0.0464  0.7037 -1.2896
 2398TIP3   OH228828   2.742   2.836   2.334 -0.7790 -0.3513  0.1730
 2398TIP3    H128829   2.823   2.784   2.331 -1.0358 -0.8012  0.8288
 2398TIP3    H228830   2.706   2.828   2.245  0.4379  0.7492 -0.4457
 2399TIP3   OH228831   6.250   4.759   5.175 -0.2089  0.3421  0.6760
 2399TIP3    H128832   6.244   4.704   5.097  3.1366 -1.4717  1.5223
 2399TIP3    H228833   6.262   4.847   5.142  2.5014 -0.5596 -0.9844
 2400TIP3   OH228834   6.402   5.257   3.616  0.1845 -0.4969  0.1003
 2400TIP3    H128835   6.354   5.175   3.606  1.9666 -1.7213  1.0799
 2400TIP3    H228836   6.489   5.239   3.580  1.9331 -0.3943  3.7670
 2401TIP3   OH228837   0.027   5.175   0.381  0.1748  0.0472  0.4244
 2401TIP3    H128838  -0.061   5.181   0.419  0.7993  2.8839  1.6698
 2401TIP3    H228839   0.054   5.266   0.368  2.6275 -0.7569 -0.6818
 2402TIP3   OH228840   4.272   5.581   1.632 -0.0021  0.5395 -0.1413
 2402TIP3    H128841   4.292   5.620   1.717 -0.7939 -1.3395  0.9575
 2402TIP3    H228842   4.184   5.612   1.612  0.0122  0.6268 -0.0706
 2403TIP3   OH228843   4.221   5.706   2.303  0.1106  0.0425 -0.4680
 2403TIP3    H128844   4.293   5.703   2.366  0.3980  0.2699 -0.7773
 2403TIP3    H228845   4.247   5.775   2.241 -0.4737  0.2725 -0.4590
 2404TIP3   OH228846   6.103   3.893   0.644 -0.4012 -0.1695 -0.5784
 2404TIP3    H128847   6.140   3.937   0.721 -2.1418  1.3577 -0.5442
 2404TIP3    H228848   6.160   3.918   0.572  0.8237 -1.0089  0.0734
 2405TIP3   OH228849   5.110   2.542   5.299 -0.3881 -0.7409  0.0496
 2405TIP3    H128850   5.160   2.622   5.317  0.4127 -1.3634  0.6694
 2405TIP3    H228851   5.084   2.510   5.386 -2.7989  0.1060 -0.2638
 2406TIP3   OH228852   1.235   2.086   4.159 -0.6673  0.3957 -0.1140
 2406TIP3    H128853   1.176   2.135   4.216 -0.8607  1.4884 -1.2189
 2406TIP3    H228854   1.189   2.080   4.075  0.3524  0.3841 -0.6912
 2407TIP3   OH228855   6.037   1.102   5.669 -0.3146  0.0577 -0.3630
 2407TIP3    H128856   6.054   1.010   5.693  2.2229  0.2308 -1.1610
 2407TIP3    H228857   5.962   1.098   5.610 -0.9209 -1.3824  0.4616
 2408TIP3   OH228858   4.993   5.628   4.464  0.6235  0.1099  0.0643
 2408TIP3    H128859   5.039   5.706   4.494 -0.4519  1.9207 -2.5694
 2408TIP3    H228860   5.058   5.579   4.414  0.7770  0.4473 -0.0704
 2409TIP3   OH228861   1.701   2.290   1.795  0.1065  0.4102  0.2807
 2409TIP3    H128862   1.664   2.253   1.875  1.7813  0.7600  1.2491
 2409TIP3    H228863   1.624   2.311   1.741 -1.0952  0.8627  2.0893
 2410TIP3   OH228864   1.137   2.486   3.804  0.0845 -0.1632 -0.2372
 2410TIP3    H128865   1.138   2.393   3.827  0.8776  0.2252  1.4485
 2410TIP3    H228866   1.225   2.502   3.768 -0.2201 -0.1507 -1.0038
 2411TIP3   OH228867   4.935   1.486   1.986  0.5629  0.5525  0.3647
 2411TIP3    H128868   4.861   1.545   2.002 -0.1050 -0.4110  0.8886
 2411TIP3    H228869   4.907   1.432   1.912  0.5742 -0.0957  0.8312
 2412TIP3   OH228870   5.792   1.561   3.496 -0.6956 -0.2895 -0.6033
 2412TIP3    H128871   5.717   1.575   3.439 -1.0672 -0.1254 -0.0818
 2412TIP3    H228872   5.859   1.524   3.439 -1.8240 -2.3432 -0.6930
 2413TIP3   OH228873   2.144   4.375   2.831  0.1963 -0.1084 -0.0082
 2413TIP3    H128874   2.160   4.282   2.847  1.2756  0.0846  0.0540
 2413TIP3    H228875   2.104   4.406   2.913  0.4476 -0.3736  0.2197
 2414TIP3   OH228876   0.325   0.895   4.332 -0.1829 -0.1097 -0.1188
 2414TIP3    H128877   0.323   0.974   4.278 -0.0795 -1.3293 -1.9942
 2414TIP3    H228878   0.385   0.836   4.286 -0.8031 -1.5568  0.8576
 2415TIP3   OH228879   1.116   5.739   5.558 -0.0204  0.1558 -0.2643
 2415TIP3    H128880   1.061   5.665   5.584 -0.0029  1.2091  3.3544
 2415TIP3    H228881   1.055   5.802   5.519 -0.3599 -0.8592 -1.4634
 2416TIP3   OH228882   3.549   5.244   2.848 -0.3906  0.5245  0.1969
 2416TIP3    H128883   3.561   5.315   2.911  3.3505 -0.4519  0.8721
 2416TIP3    H228884   3.574   5.282   2.764 -0.2350  0.5006  0.2317
 2417TIP3   OH228885   3.952   6.052   1.183  0.3761 -0.1201  0.1869
 2417TIP3    H128886   4.026   6.003   1.147  0.2790 -0.3093  0.2390
 2417TIP3    H228887   3.949   6.026   1.276 -0.3838 -0.9221 -0.0423
 2418TIP3   OH228888   3.479   1.797   0.743  0.4028 -0.2838  0.4286
 2418TIP3    H128889   3.536   1.866   0.708  0.1919 -0.7614 -0.9462
 2418TIP3    H228890   3.391   1.835   0.740  0.4379 -0.1563  0.9238
 2419TIP3   OH228891   6.203   2.690   2.150  0.3725  0.4488 -0.4537
 2419TIP3    H128892   6.269   2.622   2.132 -0.3851 -0.1760 -0.9521
 2419TIP3    H228893   6.208   2.749   2.075  0.4616  0.4831 -0.4211
 2420TIP3   OH228894   3.918   0.034   4.148  0.0470 -0.9343 -0.1182
 2420TIP3    H128895   3.888  -0.057   4.148 -2.0260 -0.3128  0.9374
 2420TIP3    H228896   3.935   0.053   4.240  0.9038 -0.3682 -0.3832
 2421TIP3   OH228897   2.558   6.218   4.101  0.1340  0.4660  0.5347
 2421TIP3    H128898   2.551   6.306   4.137 -1.4375  0.2239  0.8755
 2421TIP3    H228899   2.495   6.166   4.151 -0.3531 -0.4106 -0.9218
 2422TIP3   OH228900   5.112   1.106   0.912 -0.0840  0.2775  0.0543
 2422TIP3    H128901   5.149   1.154   0.838 -1.6004  0.9329 -0.3135
 2422TIP3    H228902   5.139   1.156   0.989 -2.1701  2.1835 -0.3557
 2423TIP3   OH228903   6.567   0.004   0.717  0.3113  0.5051 -0.0502
 2423TIP3    H128904   6.635   0.016   0.652 -0.8240 -0.2680 -1.4584
 2423TIP3    H228905   6.527  -0.081   0.695 -0.5442  0.5253  1.2530
 2424TIP3   OH228906   0.659   6.385   2.784 -0.2625 -0.2622 -0.2141
 2424TIP3    H128907   0.642   6.472   2.821 -0.7631  0.5164 -2.1217
 2424TIP3    H228908   0.753   6.385   2.764 -0.2127 -0.2603  0.0183
 2425TIP3   OH228909   3.537   2.854   3.467 -0.6999 -0.0513 -0.6580
 2425TIP3    H128910   3.473   2.892   3.527 -0.5562  0.5519 -0.8808
 2425TIP3    H228911   3.596   2.803   3.523 -0.3243  0.8352 -0.2302
 2426TIP3   OH228912   1.023   5.953   4.541  0.0262 -0.1938  0.2733
 2426TIP3    H128913   1.024   5.911   4.627  0.6312 -0.3988  0.1710
 2426TIP3    H228914   1.069   6.035   4.554 -0.3736  0.0341  0.2678
 2427TIP3   OH228915   0.025   3.108   3.602  0.8414 -0.5529  0.4533
 2427TIP3    H128916   0.114   3.127   3.629  0.4900  0.7138  0.7933
 2427TIP3    H228917   0.022   3.133   3.509  1.0429 -1.3332  0.2332
 2428TIP3   OH228918   6.733   4.731   4.268 -0.0118  0.2566  0.0988
 2428TIP3    H128919   6.821   4.739   4.305 -0.3111  2.0427  0.5067
 2428TIP3    H228920   6.674   4.744   4.343 -0.6468 -1.3656 -0.0823
 2429TIP3   OH228921   2.006   3.540   3.822 -0.2184  0.5268  0.4106
 2429TIP3    H128922   2.002   3.446   3.841  1.7237  0.5693  1.2804
 2429TIP3    H228923   2.002   3.582   3.908  0.3204  1.1613  0.1339
 2430TIP3   OH228924   1.082   4.986   3.724  0.0750  0.3744 -0.1534
 2430TIP3    H128925   1.032   4.915   3.683  0.2742 -1.0586  1.9149
 2430TIP3    H228926   1.041   4.998   3.810  1.2227  1.4565  0.2809
 2431TIP3   OH228927   0.704   6.234   3.734  0.3384  0.0916 -0.3947
 2431TIP3    H128928   0.714   6.236   3.639  0.4948 -0.0950 -0.3832
 2431TIP3    H228929   0.774   6.290   3.768  1.3069 -1.1092 -0.3198
 2432TIP3   OH228930   5.253   6.600   1.250  0.3695 -0.3496 -0.0868
 2432TIP3    H128931   5.187   6.628   1.187  0.5233 -0.3702 -0.2604
 2432TIP3    H228932   5.205   6.583   1.331  0.0910 -0.8921 -0.3666
 2433TIP3   OH228933   0.808   4.178   1.827  0.1224  0.5883  0.4622
 2433TIP3    H128934   0.788   4.152   1.917 -1.7088 -2.2619 -0.6189
 2433TIP3    H228935   0.903   4.186   1.825  0.4151 -1.4783  2.1821
 2434TIP3   OH228936   1.272   5.218   2.780 -0.0134  0.6195  0.6361
 2434TIP3    H128937   1.309   5.161   2.712 -0.1052  0.1492  0.9738
 2434TIP3    H228938   1.263   5.161   2.857  0.7472  1.3226  1.2629
 2435TIP3   OH228939   6.155   6.589   4.545  0.1053 -0.4453 -0.5655
 2435TIP3    H128940   6.141   6.563   4.636 -1.0511  1.3965 -0.1619
 2435TIP3    H228941   6.169   6.684   4.549  0.6019 -0.4159 -2.2536
 2436TIP3   OH228942   3.522   0.262   1.181  0.2543  0.0413  0.1174
 2436TIP3    H128943   3.609   0.224   1.189  0.9454  1.5815  0.4358
 2436TIP3    H228944   3.539   0.356   1.166 -1.3406  0.2824 -0.3394
 2437TIP3   OH228945   5.290   4.029   3.584  0.4066 -0.0416 -0.3760
 2437TIP3    H128946   5.341   4.055   3.661 -0.6763  0.1700  0.3016
 2437TIP3    H228947   5.327   4.080   3.512  1.4372 -0.2402 -0.0029
 2438TIP3   OH228948   2.873   4.460   4.381 -0.5396 -0.1467  0.2606
 2438TIP3    H128949   2.960   4.450   4.420 -0.5346 -2.0544 -0.1285
 2438TIP3    H228950   2.864   4.554   4.367  1.7583  0.0521 -0.3441
 2439TIP3   OH228951   0.737   2.347   4.040  0.0890 -0.3872  0.2271
 2439TIP3    H128952   0.735   2.324   3.948 -3.9649 -1.0226  0.3221
 2439TIP3    H228953   0.717   2.441   4.041  1.0250 -0.1725  0.4962
 2440TIP3   OH228954   2.177   4.261   1.479  0.2491 -0.0097  0.5014
 2440TIP3    H128955   2.201   4.168   1.487  0.0390  0.0879  2.6635
 2440TIP3    H228956   2.091   4.260   1.437  0.9239 -0.6793 -0.9573
 2441TIP3   OH228957   5.259   2.408   1.030  0.5177  0.1789  0.8517
 2441TIP3    H128958   5.291   2.478   0.973  0.1717  1.2543  1.9380
 2441TIP3    H228959   5.171   2.389   0.997  0.8412 -0.1827  0.1758
 2442TIP3   OH228960   2.866   3.341   4.574 -0.0137 -0.2653 -0.1887
 2442TIP3    H128961   2.870   3.361   4.667  1.4751 -1.2323 -0.0203
 2442TIP3    H228962   2.916   3.411   4.532 -1.2405  0.5450 -0.3610
 2443TIP3   OH228963   5.587   4.977   4.718 -0.2923 -0.1858  0.0796
 2443TIP3    H128964   5.572   5.024   4.800 -1.0469 -1.1577  0.5337
 2443TIP3    H228965   5.518   5.009   4.660  0.3874  0.6767 -0.2653
 2444TIP3   OH228966   3.789   6.261   1.345 -0.9845  0.0898 -0.2860
 2444TIP3    H128967   3.713   6.296   1.391 -0.7374  0.3826 -0.0944
 2444TIP3    H228968   3.835   6.209   1.411  0.2929  1.8748  0.3335
 2445TIP3   OH228969   4.706   5.265   2.568 -0.1136  0.2994  0.0665
 2445TIP3    H128970   4.794   5.302   2.568  0.3006 -0.6227  0.7611
 2445TIP3    H228971   4.650   5.334   2.532  0.8543  0.9795 -0.1703
 2446TIP3   OH228972   6.032   6.532   2.406  0.3303 -0.2681  0.0484
 2446TIP3    H128973   5.985   6.448   2.404  1.0014 -0.6607 -2.1349
 2446TIP3    H228974   6.085   6.531   2.326  3.6859  0.3654  2.0949
 2447TIP3   OH228975   5.682   6.734   1.197  0.5964  0.0646 -0.2811
 2447TIP3    H128976   5.648   6.818   1.227  0.9976  0.4410 -0.8544
 2447TIP3    H228977   5.611   6.697   1.144  0.7428  0.4562 -0.7633
 2448TIP3   OH228978   6.662   5.554   1.469  0.2959  0.2345  0.0061
 2448TIP3    H128979   6.669   5.532   1.562 -0.2993 -1.8206 -0.3748
 2448TIP3    H228980   6.673   5.470   1.424  0.4738  1.1699 -1.7874
 2449TIP3   OH228981   1.946   0.889   2.945 -0.1729 -0.5907 -0.1849
 2449TIP3    H128982   1.995   0.892   3.027  0.8392 -0.5484 -0.7863
 2449TIP3    H228983   1.934   0.981   2.921  1.2027 -0.6119 -1.0540
 2450TIP3   OH228984   3.522   5.472   3.337 -0.3543  0.4546  0.2757
 2450TIP3    H128985   3.593   5.535   3.350 -1.0178  1.8703 -2.2782
 2450TIP3    H228986   3.566   5.394   3.303  0.1705  0.6051  0.5922
 2451TIP3   OH228987   6.533   1.684   5.115  0.0833 -0.2782  0.1853
 2451TIP3    H128988   6.580   1.731   5.184 -0.2888 -1.1087  1.0252
 2451TIP3    H228989   6.443   1.676   5.148 -0.4085  0.4011 -0.9563
 2452TIP3   OH228990   6.665   1.682   5.569  0.1860 -0.4999 -0.5254
 2452TIP3    H128991   6.750   1.640   5.560  0.4293 -0.1036 -0.1265
 2452TIP3    H228992   6.669   1.727   5.653 -0.6246 -0.9351 -0.2448
 2453TIP3   OH228993   5.784   1.907   4.869 -0.1441 -0.0044  0.4143
 2453TIP3    H128994   5.760   1.994   4.839 -0.3477  0.2759  1.3475
 2453TIP3    H228995   5.840   1.923   4.945  0.3501 -0.6808  0.1951
 2454TIP3   OH228996   5.883   0.734   2.234 -0.6679 -0.0322 -0.1191
 2454TIP3    H128997   5.972   0.710   2.206 -1.3580  0.4381 -2.9944
 2454TIP3    H228998   5.876   0.827   2.214 -2.4705 -0.5131 -2.1118
 2455TIP3   OH228999   4.289   1.376   0.587 -0.2173  0.4708  0.3045
 2455TIP3    H129000   4.205   1.332   0.578 -0.6272  0.9880  1.4079
 2455TIP3    H229001   4.353   1.304   0.595 -0.4913  0.0757 -0.8571
 2456TIP3   OH229002   2.335   5.427   0.570  0.0005 -0.0418  0.3011
 2456TIP3    H129003   2.316   5.351   0.516  0.2347 -0.4457  0.7856
 2456TIP3    H229004   2.414   5.465   0.532 -0.4944  0.3638 -0.3573
 2457TIP3   OH229005   3.172   5.522   2.061  0.0295 -0.5153 -0.7938
 2457TIP3    H129006   3.159   5.610   2.027  0.4876  0.0462  0.4358
 2457TIP3    H229007   3.165   5.531   2.156  2.2095 -1.3879 -0.4815
 2458TIP3   OH229008   2.634   0.547   0.318 -0.1846  0.2229  0.1347
 2458TIP3    H129009   2.685   0.584   0.390  0.6337 -3.1742  1.5105
 2458TIP3    H229010   2.688   0.562   0.241  0.4154  1.1944  0.7144
 2459TIP3   OH229011   6.134   3.729   2.246  0.3120  0.5428  0.2216
 2459TIP3    H129012   6.210   3.698   2.196 -1.0567 -1.7023 -0.5958
 2459TIP3    H229013   6.079   3.774   2.182 -0.2052 -0.0026  0.2812
 2460TIP3   OH229014   0.834   2.115   2.034 -0.1633  0.1666  0.0676
 2460TIP3    H129015   0.850   2.119   2.128 -0.2447 -1.2404  0.1596
 2460TIP3    H229016   0.765   2.050   2.023 -1.1372  1.2852 -0.8778
 2461TIP3   OH229017   2.712   3.450   1.756 -0.3536  0.6273  0.1428
 2461TIP3    H129018   2.662   3.370   1.772 -0.8420  1.0012  0.5105
 2461TIP3    H229019   2.655   3.504   1.702  1.0853 -0.4307 -2.6176
 2462TIP3   OH229020   1.981   4.514   4.993 -0.3979  0.5674 -0.2725
 2462TIP3    H129021   2.043   4.578   4.959 -0.3210  0.6396 -0.0030
 2462TIP3    H229022   1.937   4.479   4.916  0.0238  0.4719 -0.4773
 2463TIP3   OH229023   3.311   1.684   1.156 -0.4832  0.6648 -0.7358
 2463TIP3    H129024   3.217   1.704   1.159 -0.2871  1.4981 -0.0302
 2463TIP3    H229025   3.316   1.590   1.173 -1.1248  0.7973  0.2426
 2464TIP3   OH229026   0.639   2.905   1.476  0.0391 -0.2679 -0.0189
 2464TIP3    H129027   0.663   2.814   1.490 -0.5900 -0.5117 -0.4530
 2464TIP3    H229028   0.720   2.954   1.489  0.5831 -0.9732 -0.6496
 2465TIP3   OH229029   3.396   0.675   5.178 -0.0828 -0.2775 -0.2567
 2465TIP3    H129030   3.354   0.614   5.117  0.5321 -0.3497 -0.6233
 2465TIP3    H229031   3.490   0.659   5.166  0.0368 -1.2790  1.7057
 2466TIP3   OH229032   4.480   3.958   2.905 -0.2157 -0.0693 -0.2046
 2466TIP3    H129033   4.519   4.001   2.982 -1.6944  0.2760  0.3924
 2466TIP3    H229034   4.393   3.997   2.898 -0.0763 -0.0238 -2.1410
 2467TIP3   OH229035   4.421   0.150   1.548 -0.2085  0.0099  0.1110
 2467TIP3    H129036   4.436   0.107   1.632  0.0008  1.5987  0.9260
 2467TIP3    H229037   4.396   0.239   1.571 -1.4646  0.1098 -1.4951
 2468TIP3   OH229038   3.510   5.366   1.937 -0.3646 -0.8946 -0.0311
 2468TIP3    H129039   3.504   5.271   1.927 -1.1854 -0.8712  0.1897
 2468TIP3    H229040   3.593   5.389   1.895 -0.9936 -1.4986 -1.6683
 2469TIP3   OH229041   0.970   0.616   2.421 -0.0549  0.2565  0.3499
 2469TIP3    H129042   1.051   0.585   2.461  0.5022  3.2902  1.8795
 2469TIP3    H229043   0.901   0.581   2.476  0.1551 -1.7787 -0.5642
 2470TIP3   OH229044   4.096   0.268   3.866 -0.1378 -0.6459 -0.6028
 2470TIP3    H129045   4.157   0.330   3.825 -0.7978 -0.0408 -0.7021
 2470TIP3    H229046   4.010   0.309   3.856 -0.6027 -1.6171 -0.7244
 2471TIP3   OH229047   4.852   0.899   0.573  0.3615  0.0532  0.2110
 2471TIP3    H129048   4.882   0.920   0.662  2.6883  0.1019 -0.5088
 2471TIP3    H229049   4.809   0.815   0.581  0.1112  0.2813  1.4665
 2472TIP3   OH229050   5.592   2.140   4.444 -0.4601  0.9325 -0.6307
 2472TIP3    H129051   5.519   2.196   4.471 -0.2375  1.2784 -0.7479
 2472TIP3    H229052   5.644   2.195   4.386 -1.0193  0.1524 -1.9240
 2473TIP3   OH229053   2.835   5.408   3.229  0.4310 -0.2568 -0.1064
 2473TIP3    H129054   2.852   5.389   3.137  0.2838  0.1462 -0.2176
 2473TIP3    H229055   2.827   5.503   3.233  2.7314 -0.0161  0.6898
 2474TIP3   OH229056   1.224   0.517   3.069 -0.4614  0.0852  0.5912
 2474TIP3    H129057   1.182   0.600   3.092 -0.6453 -0.1103  0.9837
 2474TIP3    H229058   1.301   0.513   3.125  0.1324  0.4744 -0.1764
 2475TIP3   OH229059   5.587   1.487   0.792  0.4236 -0.0821 -0.0486
 2475TIP3    H129060   5.537   1.562   0.826  0.8698 -0.6807  2.0886
 2475TIP3    H229061   5.655   1.526   0.738  0.0419  1.0055  0.2235
 2476TIP3   OH229062   5.130   3.682   3.853 -0.3751  0.2806 -0.2484
 2476TIP3    H129063   5.165   3.654   3.769 -0.1586 -2.0840  0.5537
 2476TIP3    H229064   5.045   3.721   3.833  0.9172  2.4911 -1.8074
 2477TIP3   OH229065   3.887   0.268   2.258 -0.6953 -0.1494  0.5959
 2477TIP3    H129066   3.962   0.233   2.210 -0.7892  0.1342  0.2353
 2477TIP3    H229067   3.902   0.242   2.349  0.4949  0.9734  0.7576
 2478TIP3   OH229068   6.504   6.492   1.942  0.0583 -0.3289 -0.1811
 2478TIP3    H129069   6.587   6.495   1.894 -0.5191 -0.4532 -1.2177
 2478TIP3    H229070   6.437   6.485   1.874 -0.7451 -1.4050  0.6865
 2479TIP3   OH229071   0.083   4.888   4.634 -0.1742 -0.0070 -0.3866
 2479TIP3    H129072   0.093   4.794   4.618  1.9653  0.2884 -1.1298
 2479TIP3    H229073   0.144   4.908   4.704 -1.0318  0.7699  0.1762
 2480TIP3   OH229074   4.539   5.900   2.899  0.2015  0.7451  0.9095
 2480TIP3    H129075   4.463   5.851   2.932  0.2559  0.6274  0.8611
 2480TIP3    H229076   4.506   5.943   2.820  0.4302 -0.0477  0.3680
 2481TIP3   OH229077   5.873   2.587   1.448  0.6942 -0.0791 -0.3203
 2481TIP3    H129078   5.964   2.558   1.452  0.7620  0.0408 -0.9009
 2481TIP3    H229079   5.836   2.541   1.372  0.0227 -0.8185  0.4370
 2482TIP3   OH229080   0.364   3.398   4.331 -0.1220  0.2224 -0.1303
 2482TIP3    H129081   0.300   3.420   4.264 -0.5478  1.0009  0.5099
 2482TIP3    H229082   0.429   3.469   4.327  0.5271 -0.3838 -0.5503
 2483TIP3   OH229083   0.952   5.347   2.988 -0.1478  0.1692 -0.1458
 2483TIP3    H129084   0.947   5.269   2.933 -0.1756  0.6391 -0.8198
 2483TIP3    H229085   0.861   5.374   2.998 -0.1224  0.2290 -0.0772
 2484TIP3   OH229086   6.392   2.513   2.545 -0.1095 -0.0470  0.2840
 2484TIP3    H129087   6.382   2.608   2.548  0.5929  0.0374  0.0937
 2484TIP3    H229088   6.418   2.488   2.633 -0.3126 -0.0683  0.3389
 2485TIP3   OH229089   2.599   1.728   2.868 -0.0118  0.5741 -0.2651
 2485TIP3    H129090   2.641   1.781   2.801  0.7269 -1.5115 -1.5450
 2485TIP3    H229091   2.669   1.672   2.902 -0.9657 -0.3340  0.2695
 2486TIP3   OH229092   3.973   5.397   3.954 -0.8049  0.4274  0.4691
 2486TIP3    H129093   3.939   5.329   4.012 -0.4519 -1.5331 -1.4731
 2486TIP3    H229094   4.051   5.357   3.913 -0.4370  2.0902 -0.5425
 2487TIP3   OH229095   6.409   6.509   3.621  0.4843 -0.2018  0.2242
 2487TIP3    H129096   6.400   6.422   3.582  1.5573  0.4863 -1.7163
 2487TIP3    H229097   6.472   6.498   3.691  0.0884 -1.1174  0.4434
 2488TIP3   OH229098   6.185   3.566   4.822  0.1121 -0.1672  0.1635
 2488TIP3    H129099   6.119   3.593   4.885 -1.0589 -1.8937 -0.2719
 2488TIP3    H229100   6.252   3.522   4.875  0.4084  0.6455  0.4784
 2489TIP3   OH229101   1.351   0.071   5.327 -0.6005  0.0581  0.1324
 2489TIP3    H129102   1.409   0.114   5.390 -0.4952 -0.3801  0.3321
 2489TIP3    H229103   1.265   0.110   5.343 -0.8304 -0.9141  1.3750
 2490TIP3   OH229104   3.270   4.411   2.513  0.1186  0.5538 -0.3632
 2490TIP3    H129105   3.251   4.323   2.546 -0.2562  1.2316  1.3387
 2490TIP3    H229106   3.361   4.428   2.539 -0.0722  0.9706  0.0540
 2491TIP3   OH229107   0.006   4.128   4.052 -0.4685 -0.2681  0.1573
 2491TIP3    H129108   0.071   4.198   4.056  0.5634 -1.2077  3.4145
 2491TIP3    H229109  -0.065   4.164   4.000  1.7430  1.5802 -1.8460
 2492TIP3   OH229110   6.424   0.397   4.302  0.4813 -0.0006 -0.3381
 2492TIP3    H129111   6.458   0.486   4.313  0.0020  0.5438 -2.7791
 2492TIP3    H229112   6.357   0.389   4.370  1.5111  0.9323  0.8581
 2493TIP3   OH229113   0.811   0.089   2.094  0.0117 -0.0048 -0.3476
 2493TIP3    H129114   0.856   0.010   2.123 -1.3445 -0.2905  1.1114
 2493TIP3    H229115   0.723   0.060   2.069  0.3176  0.6534 -2.4338
 2494TIP3   OH229116   5.900   3.289   4.669  0.4657  0.0863 -0.4044
 2494TIP3    H129117   5.971   3.347   4.642  0.0625  1.2641  0.9710
 2494TIP3    H229118   5.842   3.287   4.593  0.3855  1.6681 -0.4185
 2495TIP3   OH229119   5.044   3.931   3.518 -0.5229  0.1352 -0.5847
 2495TIP3    H129120   5.131   3.963   3.542 -1.1185  0.9541  0.6330
 2495TIP3    H229121   5.053   3.902   3.427  1.3812 -1.2250 -0.0361
 2496TIP3   OH229122   6.301   3.389   5.040 -0.1156 -0.2898  0.1180
 2496TIP3    H129123   6.256   3.322   5.092 -0.6103 -2.0070 -2.3453
 2496TIP3    H229124   6.393   3.383   5.067 -0.5583 -0.0411  1.8263
 2497TIP3   OH229125   3.265   4.224   3.720  0.3659 -0.0328  0.1487
 2497TIP3    H129126   3.305   4.146   3.757  2.8851  1.7776  1.5482
 2497TIP3    H229127   3.232   4.272   3.796  0.2320  0.9759 -0.5250
 2498TIP3   OH229128   2.990   5.207   4.597  0.3281 -0.2514  0.5019
 2498TIP3    H129129   3.061   5.270   4.584  0.4638 -0.5247 -0.1046
 2498TIP3    H229130   3.022   5.126   4.559 -0.5625 -0.2063 -0.3900
 2499TIP3   OH229131   6.506   1.289   5.622 -0.7314  0.1996  0.3767
 2499TIP3    H129132   6.460   1.350   5.565 -0.7912 -1.5794 -1.6241
 2499TIP3    H229133   6.587   1.269   5.575  0.0609  0.0052  1.7829
 2500TIP3   OH229134   0.379   2.049   1.674 -0.2691  0.3106 -0.6084
 2500TIP3    H129135   0.290   2.013   1.682  0.2956 -1.3277 -1.2248
 2500TIP3    H229136   0.392   2.061   1.580  0.9950 -1.8866 -0.7973
 2501TIP3   OH229137   6.613   2.423   0.778 -0.1803 -0.2782  0.5971
 2501TIP3    H129138   6.653   2.392   0.696 -0.3776 -0.6200  0.6281
 2501TIP3    H229139   6.524   2.448   0.753  0.1681  0.8490  0.4510
 2502TIP3   OH229140   5.012   4.973   1.826 -0.2264  0.1229 -0.2758
 2502TIP3    H129141   4.995   4.879   1.821 -0.7994  0.1565  0.6965
 2502TIP3    H229142   5.082   4.989   1.763  0.1793 -1.0266 -0.1349
 2503TIP3   OH229143   4.010   3.010   3.596 -0.0370  0.1791 -0.2608
 2503TIP3    H129144   3.955   2.963   3.658  0.3595  1.3758  1.0505
 2503TIP3    H229145   4.028   3.094   3.639  1.8590  0.2763 -1.1624
 2504TIP3   OH229146   6.129   3.934   2.039  0.5557 -0.0580 -0.1331
 2504TIP3    H129147   6.126   3.988   1.960 -0.6680 -1.4822 -1.0875
 2504TIP3    H229148   6.196   3.869   2.021 -2.0961 -2.6070 -1.5636
 2505TIP3   OH229149   2.945   4.456   1.699 -0.0732 -0.2592  0.7274
 2505TIP3    H129150   2.879   4.442   1.767 -0.2375  0.7988  0.8001
 2505TIP3    H229151   2.912   4.406   1.624 -0.5786 -0.3406  0.9973
 2506TIP3   OH229152   6.153   0.082   1.508  0.5872  0.1091 -0.2240
 2506TIP3    H129153   6.232   0.029   1.517 -0.8608 -2.0134  1.3754
 2506TIP3    H229154   6.154   0.140   1.583 -0.9047 -2.3550  1.8992
 2507TIP3   OH229155   6.444   5.409   0.780  0.1369  0.4062 -0.1877
 2507TIP3    H129156   6.396   5.490   0.795 -0.2581  0.0577  0.4180
 2507TIP3    H229157   6.381   5.339   0.795  0.4326 -0.0176 -0.8604
 2508TIP3   OH229158   2.703   5.630   1.188  0.1736 -0.1828  0.4542
 2508TIP3    H129159   2.722   5.709   1.240 -0.1940 -0.2447  0.6896
 2508TIP3    H229160   2.734   5.651   1.100 -2.9422  1.5823 -0.3846
 2509TIP3   OH229161   4.329   1.923   5.046  0.1596 -0.0838 -0.2589
 2509TIP3    H129162   4.353   1.985   5.115 -2.3965  1.2525 -0.4911
 2509TIP3    H229163   4.306   1.843   5.093  2.4161 -0.5960  0.1035
 2510TIP3   OH229164   6.098   6.040   3.699  1.0020  0.3505  0.2639
 2510TIP3    H129165   6.131   6.042   3.789  0.4269  0.6592  0.4716
 2510TIP3    H229166   6.118   5.951   3.668 -0.8330 -0.5359  1.4709
 2511TIP3   OH229167   4.464   3.960   4.108  1.1107 -0.1153  0.1949
 2511TIP3    H129168   4.442   4.027   4.043  0.3105  1.7298  2.2290
 2511TIP3    H229169   4.544   3.992   4.149  0.2977  0.0556  1.7266
 2512TIP3   OH229170   0.313   5.037   1.710 -0.5362  0.3855  0.1869
 2512TIP3    H129171   0.243   4.981   1.744  0.3354 -0.0016  1.4100
 2512TIP3    H229172   0.383   4.975   1.689 -0.5990  0.7539 -1.1663
 2513TIP3   OH229173   4.631   1.014   3.307  0.2383 -0.2042 -0.1197
 2513TIP3    H129174   4.607   0.922   3.301 -0.3321 -0.0065 -0.9703
 2513TIP3    H229175   4.548   1.061   3.310  0.5116  0.3487 -0.8858
 2514TIP3   OH229176   3.278   0.115   1.500  0.1492  0.0612  0.0300
 2514TIP3    H129177   3.193   0.104   1.540  0.1598 -1.1694 -0.2636
 2514TIP3    H229178   3.265   0.185   1.435 -0.4385  0.3896  0.4910
 2515TIP3   OH229179   5.799   6.039   4.218 -0.5303 -0.4952  0.0834
 2515TIP3    H129180   5.712   6.001   4.219  0.5404 -3.1793  1.6720
 2515TIP3    H229181   5.844   5.994   4.146  0.0002 -0.2867  0.2766
 2516TIP3   OH229182   0.962   4.659   1.396 -0.3160 -0.0548  0.0712
 2516TIP3    H129183   0.919   4.726   1.342 -2.3753  0.2665  1.9568
 2516TIP3    H229184   0.917   4.663   1.480  1.1767 -2.1514  1.0786
 2517TIP3   OH229185   1.270   3.274   2.392 -0.0779  0.2177  0.4676
 2517TIP3    H129186   1.221   3.313   2.463 -0.0528  0.0153  0.5950
 2517TIP3    H229187   1.362   3.287   2.416 -0.0669  0.4233  0.3231
 2518TIP3   OH229188   6.497   3.764   4.421  0.5699  0.7410 -0.6706
 2518TIP3    H129189   6.534   3.845   4.385  0.4117  1.7673  1.3423
 2518TIP3    H229190   6.501   3.776   4.516 -0.3129 -1.2414 -0.3387
 2519TIP3   OH229191   5.284   4.596   4.576 -0.4001  0.4857  0.0632
 2519TIP3    H129192   5.316   4.638   4.655  1.0697  0.8598 -0.6866
 2519TIP3    H229193   5.346   4.525   4.560  0.3475  1.4631 -1.6554
 2520TIP3   OH229194   6.578   0.077   4.615  0.4337  0.4552  0.3273
 2520TIP3    H129195   6.599   0.024   4.692  0.0057  0.4316  0.4318
 2520TIP3    H229196   6.529   0.152   4.650 -1.7938 -0.6881 -0.1187
 2521TIP3   OH229197   3.040   0.461   2.007  0.3716  0.1625  0.2527
 2521TIP3    H129198   3.041   0.517   1.929  0.9007 -0.3224 -0.0967
 2521TIP3    H229199   2.984   0.507   2.068 -0.0306  0.5683 -0.4050
 2522TIP3   OH229200   3.845   5.022   3.905  0.1258  0.3110 -0.5158
 2522TIP3    H129201   3.889   5.096   3.862  0.1303  0.7926  0.3044
 2522TIP3    H229202   3.753   5.046   3.905  0.2505  0.8511  0.7590
 2523TIP3   OH229203   0.664   0.066   2.494 -0.9913  0.3758  0.1709
 2523TIP3    H129204   0.608   0.115   2.555 -1.1530  0.6747 -0.2087
 2523TIP3    H229205   0.748   0.112   2.497 -0.7978 -0.0116  0.6651
 2524TIP3   OH229206   4.209   0.870   4.037 -0.2996 -0.5177 -0.4647
 2524TIP3    H129207   4.136   0.932   4.030 -1.8587 -1.8903  2.2700
 2524TIP3    H229208   4.231   0.870   4.130  1.2639 -2.3387 -0.7864
 2525TIP3   OH229209   1.399   6.395   2.179  0.6566  0.5426 -0.0511
 2525TIP3    H129210   1.482   6.431   2.210  0.6718  0.3678  0.1061
 2525TIP3    H229211   1.413   6.301   2.174  1.1445  0.6698 -2.0197
 2526TIP3   OH229212   0.889   2.827   9.026  0.5609  0.5438 -0.1187
 2526TIP3    H129213   0.973   2.780   9.029  0.2705  0.0399  0.7577
 2526TIP3    H229214   0.826   2.762   9.058 -0.0590  1.1213 -0.1736
 2527TIP3   OH229215   1.566   0.161   3.967  0.3559  0.2886  0.7519
 2527TIP3    H129216   1.625   0.203   3.904  1.2828 -1.3263  0.4631
 2527TIP3    H229217   1.489   0.138   3.916  0.2211  0.8283  0.7071
 2528TIP3   OH229218   3.296   4.961   3.413 -0.1784  0.1338  0.1185
 2528TIP3    H129219   3.263   5.028   3.353 -0.9765  0.4094  0.8566
 2528TIP3    H229220   3.229   4.893   3.412 -0.9650  0.8189  1.8269
 2529TIP3   OH229221   2.481   3.213   4.334 -0.4838  0.1510  0.0701
 2529TIP3    H129222   2.535   3.160   4.392 -0.2987 -1.5075 -1.5238
 2529TIP3    H229223   2.536   3.288   4.311 -0.2306  0.3547  1.2874
 2530TIP3   OH229224   2.674   4.384   4.704 -0.5635  0.8846 -0.3001
 2530TIP3    H129225   2.639   4.467   4.670  0.1439  0.1917 -2.8979
 2530TIP3    H229226   2.753   4.410   4.752 -0.0193  1.7090 -1.5722
 2531TIP3   OH229227   1.614   6.693   1.099  0.2882  0.1487 -0.1315
 2531TIP3    H129228   1.707   6.689   1.119  0.6638  2.7991 -0.9728
 2531TIP3    H229229   1.572   6.647   1.171  2.0680  1.8275  2.1018
 2532TIP3   OH229230   0.811   3.073   3.279 -0.1833 -0.0022 -0.3348
 2532TIP3    H129231   0.883   3.032   3.327 -1.0034 -1.1135 -0.0073
 2532TIP3    H229232   0.848   3.154   3.245  0.5311  0.6902  1.9022
 2533TIP3   OH229233   1.596   0.909   5.347 -0.1703  0.3557  0.1879
 2533TIP3    H129234   1.533   0.979   5.364 -0.0159  0.3185  0.9180
 2533TIP3    H229235   1.631   0.886   5.433  1.8925  1.3477 -0.3111
 2534TIP3   OH229236   4.359   5.659   5.464 -0.4293  0.1030 -0.1534
 2534TIP3    H129237   4.415   5.700   5.398  0.2538 -1.0958 -0.3419
 2534TIP3    H229238   4.273   5.699   5.451  0.0208  0.8590 -0.8689
 2535TIP3   OH229239   4.961   6.765   5.087 -0.0473 -0.3106 -0.5037
 2535TIP3    H129240   4.940   6.751   5.179  0.0452  0.5926 -0.3386
 2535TIP3    H229241   4.891   6.721   5.039 -0.0952 -0.7789 -0.0051
 2536TIP3   OH229242   5.686   3.413   3.145 -0.5428 -0.3973 -0.6794
 2536TIP3    H129243   5.666   3.396   3.237 -1.4978 -0.2465 -0.8441
 2536TIP3    H229244   5.654   3.336   3.099  0.4734 -0.7347 -0.8316
 2537TIP3   OH229245   1.442   3.272   2.695 -0.1341 -0.3851  0.0895
 2537TIP3    H129246   1.443   3.199   2.633 -1.4435 -0.2988 -0.0622
 2537TIP3    H229247   1.398   3.237   2.772  0.8766 -0.2869  0.7194
 2538TIP3   OH229248   1.640   4.047   0.827 -0.1402  0.0468  0.8063
 2538TIP3    H129249   1.633   3.969   0.772  0.9324 -0.5773  1.5063
 2538TIP3    H229250   1.698   4.106   0.778  1.9439 -1.0578  1.7752
 2539TIP3   OH229251   4.637   2.915   4.829  0.1959 -0.3474  0.6463
 2539TIP3    H129252   4.675   2.944   4.746  1.8462 -1.5742  0.9197
 2539TIP3    H229253   4.556   2.964   4.837 -0.2324 -0.5144 -1.9061
 2540TIP3   OH229254   6.106   1.150   4.474  0.0130 -0.6137 -0.1200
 2540TIP3    H129255   6.145   1.188   4.396 -0.9446 -1.9729 -1.3096
 2540TIP3    H229256   6.155   1.070   4.490 -0.8760 -1.2154 -0.3439
 2541TIP3   OH229257   3.183   3.539   0.518  0.0583 -0.2198  0.1910
 2541TIP3    H129258   3.184   3.445   0.533  3.4300 -0.8159 -2.6727
 2541TIP3    H229259   3.267   3.570   0.551  1.0166  0.9030 -2.9961
 2542TIP3   OH229260   3.528   0.682   2.963  0.0663  0.6434 -0.5437
 2542TIP3    H129261   3.447   0.639   2.989 -0.7313  2.8600  0.9454
 2542TIP3    H229262   3.597   0.624   2.996 -0.9076 -0.4610 -0.3820
 2543TIP3   OH229263   0.782   0.480   3.656  0.3146 -0.7142  0.1640
 2543TIP3    H129264   0.810   0.563   3.619  2.0505 -0.8216  1.1288
 2543TIP3    H229265   0.686   0.483   3.653  0.3273  1.5197  0.6640
 2544TIP3   OH229266   3.047   2.804   2.225  0.0515 -0.1878 -0.4513
 2544TIP3    H129267   3.129   2.767   2.260  0.6053  0.7507 -0.7240
 2544TIP3    H229268   3.036   2.886   2.274  0.3164  0.6600 -1.7778
 2545TIP3   OH229269   4.029   5.534   1.440  0.3205 -0.6322  0.0265
 2545TIP3    H129270   4.001   5.462   1.496 -2.3862  0.5414  0.3203
 2545TIP3    H229271   4.062   5.491   1.361 -1.0792 -2.2092  0.2437
 2546TIP3   OH229272   2.779   2.680   0.771 -0.3521  0.4628 -0.4279
 2546TIP3    H129273   2.766   2.740   0.843  2.8771 -0.1487  0.8628
 2546TIP3    H229274   2.702   2.624   0.771 -2.6385  3.3985 -0.5830
 2547TIP3   OH229275   6.119   0.659   3.443  0.2240 -0.0658  0.0034
 2547TIP3    H129276   6.027   0.655   3.470  0.0553 -0.4550 -0.5969
 2547TIP3    H229277   6.127   0.742   3.397 -0.4561 -1.0779 -2.0703
 2548TIP3   OH229278   6.643   3.931   1.289 -0.2905  0.3140  0.2472
 2548TIP3    H129279   6.714   3.962   1.346 -1.1469 -0.2957  1.7252
 2548TIP3    H229280   6.675   3.945   1.200  1.3008  0.8920  0.8735
 2549TIP3   OH229281   1.551   0.156   3.663 -0.3591 -0.1425  0.7856
 2549TIP3    H129282   1.470   0.194   3.697  0.3535 -0.1587  2.6440
 2549TIP3    H229283   1.523   0.091   3.598 -1.7865  0.2676  0.9691
 2550TIP3   OH229284   0.268   5.484   3.946  0.1088  0.3557  0.2984
 2550TIP3    H129285   0.199   5.478   3.880  1.2462 -1.3917 -0.8229
 2550TIP3    H229286   0.247   5.415   4.009  0.5340  0.1648  0.2337
 2551TIP3   OH229287   1.056   5.199   1.144 -0.3596  0.1128 -0.4489
 2551TIP3    H129288   1.145   5.177   1.117  0.2401  1.7474  0.0952
 2551TIP3    H229289   1.003   5.181   1.067  0.4765 -0.5940 -0.8800
 2552TIP3   OH229290   2.680   2.928   1.371  0.2867  0.2909  0.2164
 2552TIP3    H129291   2.639   2.881   1.299  0.7741  0.7177 -0.3486
 2552TIP3    H229292   2.619   2.999   1.391 -0.6206 -0.7443  1.3019
 2553TIP3   OH229293   3.376   5.655   3.081  0.0508  0.7211  0.6227
 2553TIP3    H129294   3.355   5.661   3.175  0.8345 -1.1875  0.9488
 2553TIP3    H229295   3.293   5.676   3.037 -1.2720 -1.5737  1.8166
 2554TIP3   OH229296   5.938   0.705   2.970 -0.4762  0.0974 -0.3782
 2554TIP3    H129297   5.974   0.627   3.012 -1.6801 -0.5249 -0.4662
 2554TIP3    H229298   6.013   0.764   2.962  0.2063 -0.5704  0.7672
 2555TIP3   OH229299   6.692   1.929   4.268  0.1474 -0.6030 -0.0602
 2555TIP3    H129300   6.689   1.839   4.302 -0.5744  0.1149  1.8890
 2555TIP3    H229301   6.624   1.931   4.201 -2.0374 -0.7172  2.0596
 2556TIP3   OH229302   2.960   1.731   3.329 -0.4902  0.0407  0.7780
 2556TIP3    H129303   2.890   1.796   3.340 -0.5866  0.1088 -0.1741
 2556TIP3    H229304   3.000   1.725   3.416 -1.8802 -0.2417  1.4286
 2557TIP3   OH229305   4.054   2.834   4.281  0.2910  1.0091 -0.5554
 2557TIP3    H129306   3.995   2.825   4.356  0.9553 -0.9811 -0.2045
 2557TIP3    H229307   4.092   2.921   4.290 -1.6877  1.8750 -0.1357
 2558TIP3   OH229308   6.504   3.538   3.558  0.3803 -0.0218  0.0296
 2558TIP3    H129309   6.577   3.519   3.499  0.1474 -1.2801  0.1241
 2558TIP3    H229310   6.546   3.571   3.637  0.8994 -1.2357  0.2806
 2559TIP3   OH229311   3.207   5.310   2.290  0.3111 -0.2255  0.0451
 2559TIP3    H129312   3.266   5.327   2.217 -0.9973  2.8495 -0.4262
 2559TIP3    H229313   3.193   5.396   2.331 -1.0991 -1.4134  2.2706
 2560TIP3   OH229314   6.408   4.791   4.196  0.3602 -0.3768  0.7613
 2560TIP3    H129315   6.456   4.750   4.268  0.6109 -1.6365 -0.0890
 2560TIP3    H229316   6.437   4.743   4.118 -0.0521  0.8184 -0.1597
 2561TIP3   OH229317   2.124   2.086   5.178 -0.3164 -0.8151 -0.6705
 2561TIP3    H129318   2.088   1.997   5.175 -0.2506 -0.8103 -1.7389
 2561TIP3    H229319   2.212   2.075   5.213 -0.9773 -0.9358  1.0674
 2562TIP3   OH229320   4.890   6.676   3.385 -0.0482  0.0323  0.3771
 2562TIP3    H129321   4.944   6.633   3.319 -1.7506 -1.0818 -0.3533
 2562TIP3    H229322   4.948   6.742   3.425  1.4499 -0.2875 -1.1830
 2563TIP3   OH229323   4.987   3.242   2.719  0.6393 -0.4857  0.1619
 2563TIP3    H129324   4.948   3.155   2.709  0.8949 -0.4013 -2.0028
 2563TIP3    H229325   5.055   3.229   2.785  1.0991 -2.1005 -0.5669
 2564TIP3   OH229326   2.897   5.470   1.373  0.1885  0.3710  0.5063
 2564TIP3    H129327   2.817   5.501   1.331 -0.0128  0.4606  0.9587
 2564TIP3    H229328   2.867   5.414   1.444  0.4765  1.6972  1.7156
 2565TIP3   OH229329   2.357   2.349   0.723  0.0736 -0.2520 -0.2281
 2565TIP3    H129330   2.408   2.320   0.799 -0.7846  0.9756  0.8573
 2565TIP3    H229331   2.419   2.400   0.671  0.5937 -0.8582 -0.2180
 2566TIP3   OH229332   1.770   2.551   3.068  0.2270  0.0581  0.0374
 2566TIP3    H129333   1.775   2.547   2.973 -0.6254 -1.6581  0.0174
 2566TIP3    H229334   1.695   2.608   3.086 -0.8331 -1.1573 -0.3911
 2567TIP3   OH229335   3.176   4.475   2.926  0.2902  0.1720  0.0712
 2567TIP3    H129336   3.176   4.535   3.000 -0.1907 -0.3946  0.5378
 2567TIP3    H229337   3.243   4.411   2.947 -0.5238 -0.5528  0.4865
 2568TIP3   OH229338   5.795   4.401   3.928  0.4421 -0.5095 -0.4292
 2568TIP3    H129339   5.863   4.409   3.995  1.7361 -0.6806 -1.6666
 2568TIP3    H229340   5.714   4.387   3.977  1.0836  0.9801  1.1428
 2569TIP3   OH229341   6.495   6.072   2.995  0.4316  0.2464 -0.8723
 2569TIP3    H129342   6.446   6.044   3.073  0.1681 -0.6503 -1.3544
 2569TIP3    H229343   6.586   6.077   3.025  0.5117 -1.2873 -0.8004
 2570TIP3   OH229344   1.351   4.041   2.376  0.5589 -0.0976 -0.1107
 2570TIP3    H129345   1.442   4.069   2.366  1.0332 -1.5598 -0.2317
 2570TIP3    H229346   1.309   4.111   2.425  2.2797 -0.3362  1.8596
 2571TIP3   OH229347   2.918   2.870   2.890  0.2095 -0.2817 -0.1884
 2571TIP3    H129348   2.904   2.930   2.817  0.4752 -1.6582 -1.4110
 2571TIP3    H229349   2.930   2.928   2.966 -1.8335  1.1593 -0.8761
 2572TIP3   OH229350   1.950   3.034   4.646 -0.1283 -0.1595  0.4286
 2572TIP3    H129351   1.952   2.959   4.706 -2.0238  0.0989  0.8769
 2572TIP3    H229352   1.922   3.108   4.700 -0.0653  0.4741 -0.3859
 2573TIP3   OH229353   0.737   0.335   2.250 -0.3631  0.0462 -0.1758
 2573TIP3    H129354   0.830   0.335   2.272 -0.8626  0.4077  2.1786
 2573TIP3    H229355   0.721   0.247   2.215  0.8657  0.0452 -0.8004
 2574TIP3   OH229356   4.614   4.305   5.755 -0.5883  0.4937  0.1782
 2574TIP3    H129357   4.562   4.238   5.799 -1.4742 -0.2483 -1.8345
 2574TIP3    H229358   4.555   4.341   5.689  0.7824  1.1866 -0.7296
 2575TIP3   OH229359   1.589   5.756   2.282  0.3977  0.0515  0.0832
 2575TIP3    H129360   1.562   5.753   2.374 -0.9515  1.1615 -0.2345
 2575TIP3    H229361   1.629   5.842   2.272  0.2920  0.0423 -0.4313
 2576TIP3   OH229362   5.899   2.435   1.173 -0.4212 -0.1825  0.2384
 2576TIP3    H129363   5.964   2.372   1.204  1.1025  1.2611  0.1438
 2576TIP3    H229364   5.919   2.445   1.080 -1.9247 -0.9736 -0.2074
 2577TIP3   OH229365   3.963   1.300   1.762 -0.4219  0.0537  0.3469
 2577TIP3    H129366   3.892   1.284   1.824 -1.2009 -0.5435 -0.6496
 2577TIP3    H229367   3.996   1.212   1.741 -0.8419  0.1458 -0.8042
 2578TIP3   OH229368   2.722   6.668   1.615  0.1751 -0.0199 -0.1908
 2578TIP3    H129369   2.735   6.716   1.696 -0.7885  0.4229 -0.2856
 2578TIP3    H229370   2.796   6.607   1.611 -0.7006 -1.3751  1.9636
 2579TIP3   OH229371   2.674   0.741   5.624  1.1605  0.1394  0.7132
 2579TIP3    H129372   2.610   0.782   5.682 -1.0580 -1.2534 -0.6022
 2579TIP3    H229373   2.729   0.689   5.682 -0.4230 -0.5047  1.7322
 2580TIP3   OH229374   6.367   3.860   4.033 -0.1527 -0.0999  0.4712
 2580TIP3    H129375   6.380   3.930   4.098  0.2732  1.5302 -1.2554
 2580TIP3    H229376   6.403   3.782   4.074  0.2786  0.9079  2.1179
 2581TIP3   OH229377   3.895   6.131   2.148  0.0759  0.0383 -0.1742
 2581TIP3    H129378   3.840   6.095   2.217 -1.3833  0.4084 -1.1170
 2581TIP3    H229379   3.906   6.059   2.086  0.8243 -0.0839  0.0817
 2582TIP3   OH229380   5.717   5.368   3.010 -0.2280  0.5521 -0.4231
 2582TIP3    H129381   5.799   5.318   3.001  0.6561  1.9258 -0.2682
 2582TIP3    H229382   5.720   5.403   3.099 -0.7668  0.9885 -0.5728
 2583TIP3   OH229383   3.279   6.089   4.533  0.3425 -0.7052 -0.3379
 2583TIP3    H129384   3.221   6.045   4.472 -0.7887 -0.5389  0.5847
 2583TIP3    H229385   3.222   6.118   4.604  1.7926 -2.3286  1.6333
 2584TIP3   OH229386   3.766   4.954   1.840 -0.5977  0.0343  0.2009
 2584TIP3    H129387   3.671   4.948   1.837 -0.5414 -1.3824  0.5938
 2584TIP3    H229388   3.788   4.946   1.932 -0.1143  0.9048  0.1715
 2585TIP3   OH229389   4.102   1.846   3.260  0.1873  0.0889  0.2645
 2585TIP3    H129390   4.118   1.852   3.354 -1.5206  0.0722  0.5892
 2585TIP3    H229391   4.158   1.914   3.222  0.8850  0.1057  1.2808
 2586TIP3   OH229392   2.489   5.982   2.014  0.0950 -0.5179 -0.0140
 2586TIP3    H129393   2.403   6.009   2.046 -0.9831 -0.4225 -2.7044
 2586TIP3    H229394   2.495   5.889   2.036 -0.9017 -0.6321 -0.1778
 2587TIP3   OH229395   4.949   5.233   3.580  0.4079 -0.1581 -0.0508
 2587TIP3    H129396   5.038   5.203   3.563  0.7332  1.3806 -1.2969
 2587TIP3    H229397   4.950   5.325   3.554 -1.8629 -0.4088 -1.2483
 2588TIP3   OH229398   2.566   4.103   2.682  0.7495 -0.3634 -0.3608
 2588TIP3    H129399   2.611   4.087   2.599  2.3226  0.0230  0.3779
 2588TIP3    H229400   2.601   4.186   2.713  1.0004 -1.0158  1.1891
 2589TIP3   OH229401   5.574   2.219   2.513  0.6664 -0.2124  0.1289
 2589TIP3    H129402   5.556   2.141   2.567  1.1335  0.0264  0.6431
 2589TIP3    H229403   5.657   2.252   2.547  0.9267 -0.0007 -0.6905
 2590TIP3   OH229404   2.033   3.981   2.551 -0.2552 -0.2809  0.1129
 2590TIP3    H129405   2.119   4.017   2.572 -0.5733  0.8144 -0.3666
 2590TIP3    H229406   1.971   4.041   2.592 -0.8027 -1.4004  0.9728
 2591TIP3   OH229407   4.153   3.201   1.769  0.3507  0.1831 -0.4298
 2591TIP3    H129408   4.110   3.221   1.851  0.9214  0.3317 -0.1586
 2591TIP3    H229409   4.240   3.242   1.776 -0.5166  2.5400 -2.1810
 2592TIP3   OH229410   2.966   2.379   2.543 -0.4633 -0.0076 -0.2495
 2592TIP3    H129411   2.983   2.473   2.536 -0.3017 -0.0564 -0.5156
 2592TIP3    H229412   3.027   2.348   2.610 -0.8562  0.1603  0.1992
 2593TIP3   OH229413   6.441   6.728   3.092 -0.2410  0.4330 -0.1924
 2593TIP3    H129414   6.382   6.785   3.142 -0.1544  0.1519  0.2395
 2593TIP3    H229415   6.501   6.693   3.158 -0.8550 -0.8728 -0.2845
 2594TIP3   OH229416   1.726   6.574   5.062 -0.3754  0.0774  0.2290
 2594TIP3    H129417   1.705   6.513   5.133 -1.1949  0.7121  0.5551
 2594TIP3    H229418   1.640   6.601   5.029 -0.0170 -0.9021 -1.6341
 2595TIP3   OH229419   1.655   0.616   2.189  0.3243 -0.2339  0.8624
 2595TIP3    H129420   1.592   0.672   2.234 -0.5512 -1.0248  0.6432
 2595TIP3    H229421   1.740   0.658   2.204 -0.3765  1.4779  0.1983
 2596TIP3   OH229422   6.192   5.442   2.235  0.0859 -0.3375  0.0886
 2596TIP3    H129423   6.273   5.459   2.186  0.9100  2.6804  2.2176
 2596TIP3    H229424   6.128   5.503   2.198  0.0439  0.2932  1.1741
 2597TIP3   OH229425   1.814   1.034   1.569 -0.0918  0.1538  0.7785
 2597TIP3    H129426   1.830   1.123   1.599 -1.6414  1.3430 -1.6159
 2597TIP3    H229427   1.726   1.036   1.531  1.2370 -1.3353 -2.8499
 2598TIP3   OH229428   5.694   5.966   2.150 -0.0147 -0.2279 -0.1208
 2598TIP3    H129429   5.665   5.947   2.239  1.8655 -1.1986  0.3247
 2598TIP3    H229430   5.755   6.039   2.159 -1.0725  0.7851 -0.8504
 2599TIP3   OH229431   3.358   3.281   0.723 -0.0584  0.2158  0.4465
 2599TIP3    H129432   3.284   3.291   0.664  0.0534 -0.2877  0.2148
 2599TIP3    H229433   3.334   3.332   0.800  0.5380  2.3465 -0.6946
 2600TIP3   OH229434   3.607   6.499   1.904 -0.3121  0.3348 -0.3421
 2600TIP3    H129435   3.529   6.495   1.849 -1.1364 -1.3933  0.8417
 2600TIP3    H229436   3.633   6.591   1.903 -0.5551  0.4502 -3.1743
 2601TIP3   OH229437   0.739   2.889   0.390  0.0659 -0.4114  0.0967
 2601TIP3    H129438   0.644   2.887   0.393 -0.0606  1.2538 -1.3015
 2601TIP3    H229439   0.765   2.947   0.461  0.0898 -1.0985  0.6683
 2602TIP3   OH229440   1.131   3.758   1.942  0.1383 -0.0595  0.4083
 2602TIP3    H129441   1.190   3.750   1.867 -1.5912  0.9980 -1.1462
 2602TIP3    H229442   1.044   3.758   1.903 -0.7704  3.9288  2.0367
 2603TIP3   OH229443   6.486   2.886   5.196 -0.2144 -0.4317  0.3167
 2603TIP3    H129444   6.466   2.851   5.282 -1.2084  0.6795  0.5673
 2603TIP3    H229445   6.401   2.912   5.160  0.2080 -0.6735 -0.9120
 2604TIP3   OH229446   6.688   3.149   3.984 -0.5096 -0.0947 -0.3407
 2604TIP3    H129447   6.679   3.207   3.908 -2.4214  1.3503  0.8665
 2604TIP3    H229448   6.731   3.203   4.050 -3.1854  0.4049  1.1317
 2605TIP3   OH229449   0.318   2.448   0.805  0.4336 -0.3993 -0.2226
 2605TIP3    H129450   0.284   2.369   0.764 -0.1675 -0.5928  0.6153
 2605TIP3    H229451   0.250   2.474   0.867  1.1352  0.1147  0.3466
 2606TIP3   OH229452   1.097   6.653   3.174  0.0772  0.5137  0.1790
 2606TIP3    H129453   1.189   6.641   3.198  0.1990 -2.4175 -1.2744
 2606TIP3    H229454   1.100   6.704   3.093  0.6876 -1.3553 -1.0620
 2607TIP3   OH229455   2.393   2.684   1.404 -0.2008  0.0707 -0.0010
 2607TIP3    H129456   2.411   2.774   1.430 -1.2162  0.3289 -0.1726
 2607TIP3    H229457   2.298   2.675   1.410 -0.2751 -0.5150 -1.4936
 2608TIP3   OH229458   6.299   3.887   3.761  0.2711  0.6159 -0.7229
 2608TIP3    H129459   6.233   3.820   3.741  2.9302 -1.5020 -3.0904
 2608TIP3    H229460   6.306   3.885   3.856  0.2395 -2.5815 -0.6689
 2609TIP3   OH229461   1.383   1.325   0.990  0.0302 -1.0866 -0.5279
 2609TIP3    H129462   1.422   1.384   0.926 -0.4283 -2.8986 -2.6111
 2609TIP3    H229463   1.456   1.297   1.045  0.5345  0.1061 -0.5495
 2610TIP3   OH229464   1.135   5.750   4.368  0.4866 -0.6078  0.0372
 2610TIP3    H129465   1.116   5.819   4.431  1.0004 -2.2212  2.0505
 2610TIP3    H229466   1.061   5.689   4.376 -1.2507  0.7623 -3.4709
 2611TIP3   OH229467   4.018   2.177   3.569 -0.1617 -0.0172 -0.1977
 2611TIP3    H129468   4.045   2.085   3.568 -0.7360 -0.2239  0.9568
 2611TIP3    H229469   4.069   2.218   3.499 -1.0379 -1.5189 -1.8141
 2612TIP3   OH229470   3.691   2.319   4.440 -0.3404  0.0289  0.2779
 2612TIP3    H129471   3.682   2.377   4.364  1.1937 -0.5777 -0.4197
 2612TIP3    H229472   3.750   2.250   4.410  0.5666 -0.0580  2.1130
 2613TIP3   OH229473   6.162   3.334   2.512  0.2704 -0.2829  0.2679
 2613TIP3    H129474   6.187   3.281   2.588  1.2596  1.2735  1.0815
 2613TIP3    H229475   6.160   3.423   2.546  0.1492  0.3776 -1.4255
 2614TIP3   OH229476   0.798   5.338   0.325  0.6297 -0.2486  0.1593
 2614TIP3    H129477   0.826   5.272   0.262 -2.1326 -1.9069  0.4978
 2614TIP3    H229478   0.725   5.383   0.282 -0.0940 -0.1645  1.4076
 2615TIP3   OH229479   5.675   4.182   1.251  0.4784  0.3610 -0.9353
 2615TIP3    H129480   5.630   4.257   1.290  2.3897  1.0376  0.1026
 2615TIP3    H229481   5.756   4.218   1.216  2.3259 -1.4123  1.1722
 2616TIP3   OH229482   6.747   6.131   3.713 -0.4488  0.6952 -0.4797
 2616TIP3    H129483   6.747   6.197   3.643  1.1193  0.8714 -0.3589
 2616TIP3    H229484   6.719   6.178   3.791 -1.2246  0.7411 -0.7785
 2617TIP3   OH229485   5.148   5.511   3.828  0.6805 -0.0085 -0.0867
 2617TIP3    H129486   5.174   5.601   3.847  0.0640 -0.2448  2.0990
 2617TIP3    H229487   5.230   5.468   3.804  1.6277  0.3482  2.2560
 2618TIP3   OH229488   4.504   4.682   5.189 -0.4704  0.4100  0.2193
 2618TIP3    H129489   4.573   4.730   5.143  0.3644 -0.5009  0.4734
 2618TIP3    H229490   4.548   4.645   5.266 -0.9180 -1.2156 -0.2716
 2619TIP3   OH229491   1.946   3.274   3.851 -0.0663  0.1534 -0.3194
 2619TIP3    H129492   1.903   3.211   3.909  0.7852 -0.1865 -0.0390
 2619TIP3    H229493   1.920   3.247   3.763 -0.4335 -0.0373 -0.1552
 2620TIP3   OH229494   2.226   6.600   3.447 -0.1273 -0.5902 -0.4127
 2620TIP3    H129495   2.278   6.585   3.369  0.2143  2.2999 -0.8582
 2620TIP3    H229496   2.284   6.576   3.520 -0.4121 -3.1820 -0.9416
 2621TIP3   OH229497   3.242   2.507   2.864  0.1627 -0.5300 -0.0803
 2621TIP3    H129498   3.190   2.431   2.839 -0.1578 -0.7036  1.0558
 2621TIP3    H229499   3.333   2.479   2.851  0.0086 -0.6882 -0.8070
 2622TIP3   OH229500   2.677   1.799   1.632 -0.1398 -0.7610  0.4096
 2622TIP3    H129501   2.648   1.785   1.542  0.0283 -2.0664  0.5388
 2622TIP3    H229502   2.704   1.712   1.662  0.2312 -0.2603  1.5717
 2623TIP3   OH229503   3.902   3.295   0.859 -0.0833  0.4940 -0.1915
 2623TIP3    H129504   3.961   3.220   0.858  0.0200  0.5730 -0.0811
 2623TIP3    H229505   3.925   3.346   0.781  0.8988  1.2184  0.5548
 2624TIP3   OH229506   1.187   0.380   3.977 -0.4853 -0.3157 -0.3464
 2624TIP3    H129507   1.091   0.375   3.974 -0.5477  0.7498 -0.8559
 2624TIP3    H229508   1.205   0.440   4.049 -0.2866  0.6626 -1.1730
 2625TIP3   OH229509   1.266   2.717   5.144 -0.7254 -0.2358 -0.3608
 2625TIP3    H129510   1.357   2.716   5.113 -0.5146  0.7096  0.1854
 2625TIP3    H229511   1.263   2.790   5.205 -2.0023  0.0739 -0.7752
 2626TIP3   OH229512   3.141   6.478   5.206  0.1767 -0.4950 -0.2522
 2626TIP3    H129513   3.082   6.416   5.248  0.2806 -0.6510 -0.3362
 2626TIP3    H229514   3.119   6.562   5.245 -0.2017 -0.5298 -0.3837
 2627TIP3   OH229515   5.718   3.942   3.540 -0.0184  0.0768  0.1274
 2627TIP3    H129516   5.685   4.031   3.556  1.1466  0.3921  0.9077
 2627TIP3    H229517   5.771   3.922   3.617  0.3553 -0.9967 -0.3910
 2628TIP3   OH229518   5.197   4.388   4.231 -0.3174  0.4737  0.4238
 2628TIP3    H129519   5.243   4.350   4.306  0.7272  1.9956  0.6012
 2628TIP3    H229520   5.115   4.421   4.268  0.0932  1.0170  0.8665
 2629TIP3   OH229521   4.599   5.045   3.031  0.2201 -0.5477 -0.1312
 2629TIP3    H129522   4.622   5.075   3.119  0.7858 -1.3690  0.0116
 2629TIP3    H229523   4.633   5.113   2.973 -1.1069  0.5344  0.3258
 2630TIP3   OH229524   1.525   6.552   4.854  0.0253 -0.1947 -0.3052
 2630TIP3    H129525   1.457   6.589   4.912 -0.0527  0.7769 -0.9927
 2630TIP3    H229526   1.541   6.621   4.790  2.6738  0.1697  0.6340
 2631TIP3   OH229527   2.147   4.521   1.088 -0.0467 -0.5844  0.6216
 2631TIP3    H129528   2.172   4.520   1.180  0.7223  0.1625  0.4297
 2631TIP3    H229529   2.121   4.611   1.071 -0.1684 -0.7122  0.0984
 2632TIP3   OH229530   6.221   6.323   2.836 -0.0395 -0.1608 -0.1275
 2632TIP3    H129531   6.230   6.239   2.791 -2.3549 -0.2054 -0.6334
 2632TIP3    H229532   6.225   6.388   2.766 -1.1957 -0.0681 -0.1223
 2633TIP3   OH229533   4.862   2.476   3.947 -0.2462 -0.1693 -0.4415
 2633TIP3    H129534   4.936   2.425   3.979 -0.3500 -0.1123 -0.1112
 2633TIP3    H229535   4.809   2.494   4.025 -1.4992 -1.6359 -0.9060
 2634TIP3   OH229536   2.210   4.589   3.325  0.3861  0.0284 -0.1396
 2634TIP3    H129537   2.246   4.649   3.390  0.5978 -0.1224 -0.1153
 2634TIP3    H229538   2.174   4.646   3.257  2.4133  0.2153 -1.1315
 2635TIP3   OH229539   1.768   1.944   3.880 -0.3693 -0.5816  0.4297
 2635TIP3    H129540   1.782   1.851   3.899  2.2073 -0.2900  0.3357
 2635TIP3    H229541   1.811   1.990   3.952  0.0428  0.5214 -0.4881
 2636TIP3   OH229542   0.239   6.354   3.031  0.1714 -0.7060  0.0261
 2636TIP3    H129543   0.287   6.435   3.046 -0.4126 -0.7490  2.3531
 2636TIP3    H229544   0.159   6.381   2.985 -0.4005  0.1701  1.4852
 2637TIP3   OH229545   6.736   0.697   1.317 -0.4772 -0.1782  1.1223
 2637TIP3    H129546   6.827   0.714   1.290 -0.8730  1.6790  0.8359
 2637TIP3    H229547   6.744   0.630   1.385  0.9785 -1.1210  0.0877
 2638TIP3   OH229548   2.928   3.605   1.522 -0.0738 -0.3639 -0.0121
 2638TIP3    H129549   2.835   3.589   1.534 -0.1809  0.6577  0.6810
 2638TIP3    H229550   2.966   3.518   1.509 -1.4285 -0.6442 -2.8607
 2639TIP3   OH229551   6.382   0.603   5.193 -0.0841 -0.1356 -0.1273
 2639TIP3    H129552   6.326   0.530   5.219  0.7611 -0.9322 -0.4944
 2639TIP3    H229553   6.324   0.679   5.191 -0.8564 -0.6972  0.7870
 2640TIP3   OH229554   1.356   5.785   1.521  0.3139  0.7306  0.1940
 2640TIP3    H129555   1.309   5.727   1.461  1.1109 -0.2419  0.5001
 2640TIP3    H229556   1.286   5.835   1.564 -0.6304 -1.6967  1.7034
 2641TIP3   OH229557   2.496   4.228   3.745 -0.4530 -0.3036 -0.0540
 2641TIP3    H129558   2.527   4.182   3.823  1.2784  0.0617 -0.5015
 2641TIP3    H229559   2.459   4.159   3.690  0.7407 -0.9735 -0.0484
 2642TIP3   OH229560   0.951   3.556   1.094 -0.6588  0.0589 -0.4134
 2642TIP3    H129561   0.923   3.612   1.167 -1.3140  0.0893 -0.6743
 2642TIP3    H229562   0.886   3.486   1.092 -1.1897  0.5642 -1.5428
 2643TIP3   OH229563   3.305   3.743   3.151 -0.4378  0.5156 -0.1051
 2643TIP3    H129564   3.274   3.829   3.180 -1.4099  0.5015 -1.0076
 2643TIP3    H229565   3.267   3.682   3.214 -0.8646  0.6480 -0.2264
 2644TIP3   OH229566   4.390   3.027   5.242  0.2964 -0.0431 -0.1668
 2644TIP3    H129567   4.477   3.053   5.271  0.5374 -0.1226 -0.7892
 2644TIP3    H229568   4.403   3.001   5.151 -0.8707  2.5964 -1.1814
 2645TIP3   OH229569   2.880   1.158   4.811  0.4271 -0.0935 -0.1540
 2645TIP3    H129570   2.794   1.125   4.784 -0.0481  1.5061 -0.6703
 2645TIP3    H229571   2.926   1.080   4.842 -0.5142 -1.3257 -1.6615
 2646TIP3   OH229572   4.647   0.192   2.524  0.0269  0.0744  0.0144
 2646TIP3    H129573   4.685   0.143   2.597 -0.5313  0.0358  0.2882
 2646TIP3    H229574   4.701   0.270   2.517  0.9370 -0.5668 -0.4342
 2647TIP3   OH229575   2.682   2.280   3.309 -0.0521  0.1862 -0.0673
 2647TIP3    H129576   2.644   2.281   3.221  0.2496  3.1995 -0.2842
 2647TIP3    H229577   2.611   2.308   3.366  0.3331  0.3458  0.3361
 2648TIP3   OH229578   5.487   1.376   5.082 -0.0527  0.3526 -0.0945
 2648TIP3    H129579   5.472   1.470   5.082 -0.9570  0.2307  1.0383
 2648TIP3    H229580   5.513   1.356   5.172  0.3737 -0.4432 -0.3902
 2649TIP3   OH229581   5.745   0.064   4.016  0.0584  0.4410 -0.0090
 2649TIP3    H129582   5.691  -0.012   3.996  1.6647 -0.4451 -1.3056
 2649TIP3    H229583   5.835   0.030   4.014  0.9629  2.6821 -2.3703
 2650TIP3   OH229584   6.021   3.820   5.370 -0.4213 -0.9929 -0.7547
 2650TIP3    H129585   5.930   3.799   5.390 -0.0500 -1.2998  0.7511
 2650TIP3    H229586   6.056   3.854   5.453  0.6791 -0.3534 -1.4639
 2651TIP3   OH229587   3.210   5.779   1.979  0.7112  0.3026  0.4758
 2651TIP3    H129588   3.285   5.832   2.006  1.6671 -0.2451 -0.9647
 2651TIP3    H229589   3.197   5.801   1.886  0.0745 -0.7485  0.2903
 2652TIP3   OH229590   0.007   4.348   4.793 -0.3142 -0.3923 -0.2045
 2652TIP3    H129591  -0.012   4.387   4.878  1.0298  0.2737 -0.1847
 2652TIP3    H229592   0.082   4.397   4.760  0.6387 -2.1229 -0.7483
 2653TIP3   OH229593   0.627   5.836   3.577  0.2353  0.2349 -0.1024
 2653TIP3    H129594   0.638   5.754   3.529 -0.2853  1.3172 -2.1782
 2653TIP3    H229595   0.545   5.824   3.626 -0.1295 -0.2685 -0.8262
 2654TIP3   OH229596   4.078   2.770   1.221  0.3293 -0.0152 -0.5275
 2654TIP3    H129597   4.111   2.845   1.172  0.2974  0.5263  0.2540
 2654TIP3    H229598   3.995   2.747   1.177 -0.5139  1.4754  0.2115
 2655TIP3   OH229599   0.043   5.452   3.357 -0.1015  0.3409 -0.0628
 2655TIP3    H129600   0.041   5.547   3.344 -2.3001  0.4318  0.5945
 2655TIP3    H229601   0.051   5.416   3.269  0.0958  1.1291 -0.3737
 2656TIP3   OH229602   6.637   0.228   3.693  0.4773  0.1324 -0.1159
 2656TIP3    H129603   6.630   0.231   3.597  1.0819  1.4456 -0.1412
 2656TIP3    H229604   6.677   0.312   3.716  2.3685 -1.0602  1.1131
 2657TIP3   OH229605   0.350   1.144   4.210 -0.1199 -0.2534  0.1146
 2657TIP3    H129606   0.299   1.198   4.150  1.7511  0.7772 -0.6427
 2657TIP3    H229607   0.344   1.190   4.294 -0.8421 -0.4344  0.1701
 2658TIP3   OH229608   3.630   4.762   3.979  0.0190 -0.1416  0.0163
 2658TIP3    H129609   3.574   4.694   4.018 -1.1384 -0.3329 -1.8300
 2658TIP3    H229610   3.619   4.838   4.036  0.3194 -1.1065  1.4001
 2659TIP3   OH229611   1.065   2.319   1.596 -0.3892  0.3486  0.0571
 2659TIP3    H129612   0.988   2.268   1.572 -0.4309  1.2257 -1.8299
 2659TIP3    H229613   1.030   2.402   1.628 -0.2374  0.6287 -0.5005
 2660TIP3   OH229614   6.530   6.465   2.735 -0.4313 -0.1236 -0.4976
 2660TIP3    H129615   6.497   6.553   2.717 -1.8879 -0.6957 -0.7820
 2660TIP3    H229616   6.567   6.435   2.652  0.7262  0.4690 -0.2147
 2661TIP3   OH229617   6.260   4.854   4.760  0.2030  0.2383 -0.1345
 2661TIP3    H129618   6.327   4.890   4.702  1.3973 -2.3171 -0.4876
 2661TIP3    H229619   6.189   4.827   4.701  0.2637  0.0657 -0.1308
 2662TIP3   OH229620   0.228   5.305   3.516 -0.0457 -0.1926 -0.2246
 2662TIP3    H129621   0.258   5.390   3.549 -2.9157 -0.1262  2.6317
 2662TIP3    H229622   0.171   5.326   3.442  1.1463  0.1345 -1.0809
 2663TIP3   OH229623   5.054   4.363   5.293  0.0050 -0.3988  0.3040
 2663TIP3    H129624   4.984   4.352   5.357 -0.0381  1.0110  0.5328
 2663TIP3    H229625   5.012   4.346   5.209 -0.6860  0.6447  0.4192
 2664TIP3   OH229626   3.243   5.159   1.110 -0.0940 -0.3267 -0.6073
 2664TIP3    H129627   3.212   5.243   1.077  0.7483  0.2601  0.0347
 2664TIP3    H229628   3.230   5.164   1.205  0.3923 -0.7376 -0.5118
 2665TIP3   OH229629   0.813   4.309   2.741 -0.2636  0.2776  0.2145
 2665TIP3    H129630   0.872   4.328   2.668  0.9588 -0.0203  1.0844
 2665TIP3    H229631   0.762   4.389   2.752  1.8879  1.6043  1.1539
 2666TIP3   OH229632   3.946   3.545   1.954  0.4290 -0.6247 -0.0589
 2666TIP3    H129633   3.971   3.453   1.963  1.7474 -0.6101 -2.5266
 2666TIP3    H229634   3.930   3.556   1.860  0.5139  1.7081  0.1313
 2667TIP3   OH229635   6.489   5.487   1.074  0.8625 -0.2017  0.2907
 2667TIP3    H129636   6.438   5.435   1.012  1.3027 -0.6502  0.3035
 2667TIP3    H229637   6.423   5.524   1.133  0.4585  0.0515 -0.3026
 2668TIP3   OH229638   5.166   1.406   4.735  0.9411  0.2649  0.2432
 2668TIP3    H129639   5.124   1.326   4.703  0.2448  1.0809 -0.9908
 2668TIP3    H229640   5.254   1.403   4.697  0.3222  0.9225 -1.3372
 2669TIP3   OH229641   1.276   5.583   4.727  0.2043  0.1152 -0.3345
 2669TIP3    H129642   1.269   5.538   4.812  0.7978 -0.1209 -0.4081
 2669TIP3    H229643   1.243   5.518   4.664  2.6250 -0.9001 -0.6503
 2670TIP3   OH229644   6.114   1.208   3.728  0.2737  0.2995 -0.2792
 2670TIP3    H129645   6.030   1.175   3.698  0.0107  0.0488  0.6980
 2670TIP3    H229646   6.138   1.275   3.664 -0.7979  0.5740 -0.4125
 2671TIP3   OH229647   5.574   2.636   3.907 -0.2354  0.5826  0.3475
 2671TIP3    H129648   5.515   2.569   3.942  0.9866  0.1762  1.7392
 2671TIP3    H229649   5.594   2.605   3.818 -0.9518 -0.0398  0.3881
 2672TIP3   OH229650   5.754   3.133   1.120  0.0650  0.0013  0.6280
 2672TIP3    H129651   5.804   3.193   1.175  0.0996  0.1326  0.4553
 2672TIP3    H229652   5.691   3.188   1.075  0.7392  0.0694 -0.2777
 2673TIP3   OH229653   2.588   0.592   3.690  0.5382  0.0122 -0.0667
 2673TIP3    H129654   2.674   0.622   3.661  0.7659 -1.1176 -0.6155
 2673TIP3    H229655   2.607   0.533   3.763  0.3734 -1.5178 -1.2201
 2674TIP3   OH229656   2.369   2.078   3.072  0.1805  0.0062  0.6748
 2674TIP3    H129657   2.391   1.995   3.115  0.3845 -1.7383 -2.4637
 2674TIP3    H229658   2.280   2.064   3.039  0.8040  0.3312 -1.2887
 2675TIP3   OH229659   3.990   3.329   2.571  0.3979  0.0501  0.6749
 2675TIP3    H129660   4.046   3.338   2.494 -1.6518 -1.4825 -1.1307
 2675TIP3    H229661   3.971   3.419   2.597  0.4250  0.6419 -1.1938
 2676TIP3   OH229662   4.506   4.004   2.471 -0.1666 -0.1506  0.0645
 2676TIP3    H129663   4.491   4.048   2.387 -1.5943 -0.4429  0.1349
 2676TIP3    H229664   4.537   4.074   2.529  0.2582  0.1757 -0.5450
 2677TIP3   OH229665   0.612   4.092   2.660  0.3630 -0.0134 -0.1371
 2677TIP3    H129666   0.579   4.016   2.611  0.9473 -1.4902  1.6386
 2677TIP3    H229667   0.703   4.070   2.680 -0.2505 -0.2397  2.9014
 2678TIP3   OH229668   5.779   5.865   2.708 -0.5525 -0.2626  0.3434
 2678TIP3    H129669   5.812   5.839   2.794  0.7757 -0.6691 -0.2733
 2678TIP3    H229670   5.839   5.934   2.680  0.0800 -1.3190 -0.9929
 2679TIP3   OH229671   4.279   0.691   3.541 -0.0928  0.1376 -0.2653
 2679TIP3    H129672   4.369   0.721   3.541 -0.0201 -0.0796 -0.2066
 2679TIP3    H229673   4.238   0.736   3.467  0.2334 -0.2790 -0.7067
 2680TIP3   OH229674   3.028   0.820   4.702 -0.5782 -0.6732 -0.0141
 2680TIP3    H129675   3.105   0.857   4.658  0.5389 -2.7132  0.0965
 2680TIP3    H229676   3.032   0.856   4.791  0.0881 -0.5416 -0.0879
 2681TIP3   OH229677   4.732   2.128   3.231  0.2868 -0.8920  0.4016
 2681TIP3    H129678   4.687   2.130   3.147  0.3597 -1.9323  0.3283
 2681TIP3    H229679   4.806   2.189   3.221 -2.0438  2.3464  1.1222
 2682TIP3   OH229680   5.156   2.557   4.965 -0.0396 -0.2097 -0.0438
 2682TIP3    H129681   5.136   2.625   4.901  0.4933  0.4114  0.4391
 2682TIP3    H229682   5.132   2.475   4.921  0.9030  0.1478 -1.2882
 2683TIP3   OH229683   4.180   2.334   3.436  0.0715 -0.0233 -0.0507
 2683TIP3    H129684   4.151   2.393   3.505 -0.4988 -0.8192  0.4113
 2683TIP3    H229685   4.222   2.391   3.372  2.0429  0.5698  1.6585
 2684TIP3   OH229686   4.282   3.570   4.394 -0.2509 -0.5363  0.3243
 2684TIP3    H129687   4.372   3.548   4.418 -0.3144 -1.0188  0.1278
 2684TIP3    H229688   4.229   3.503   4.436 -0.4054 -1.0614 -0.6824
 2685TIP3   OH229689   2.861   6.705   2.487  0.1716  0.3151 -0.6086
 2685TIP3    H129690   2.773   6.693   2.522  0.3287  1.0106  0.0441
 2685TIP3    H229691   2.848   6.758   2.408  0.0116  0.4496 -0.4926
 2686TIP3   OH229692   4.395   3.101   4.266  0.0479  0.5932 -0.0064
 2686TIP3    H129693   4.330   3.161   4.228 -1.1815 -1.3718 -1.1840
 2686TIP3    H229694   4.374   3.016   4.228  1.6856 -0.6254  1.6406
 2687TIP3   OH229695   6.263   1.292   3.227  0.2526  0.1277  0.5060
 2687TIP3    H129696   6.326   1.246   3.283 -1.0051 -0.0715  1.8135
 2687TIP3    H229697   6.252   1.378   3.268  1.7782  1.2851 -1.3268
 2688TIP3   OH229698   0.324   2.835   4.642  0.1357 -0.1123  0.4118
 2688TIP3    H129699   0.359   2.747   4.632 -0.1238 -0.2058  0.3083
 2688TIP3    H229700   0.273   2.832   4.723  0.0898 -0.0702  0.3845
 2689TIP3   OH229701   4.173   2.518   2.978  0.4533  0.3132  0.3170
 2689TIP3    H129702   4.163   2.585   2.911  0.6909 -0.1339 -0.1745
 2689TIP3    H229703   4.085   2.485   2.994  0.3233  0.8071  0.6312
 2690TIP3   OH229704   1.234   5.134   1.480 -0.4412 -0.2680 -1.1011
 2690TIP3    H129705   1.170   5.068   1.507 -0.7915 -0.2706 -1.9307
 2690TIP3    H229706   1.316   5.104   1.519  0.0355 -2.7738 -3.6876
 2691TIP3   OH229707   2.175   1.813   3.197  0.1660 -0.1565  0.9145
 2691TIP3    H129708   2.149   1.746   3.134 -0.9632 -0.5298  1.7486
 2691TIP3    H229709   2.253   1.777   3.240  0.9316  0.0899 -0.2064
 2692TIP3   OH229710   2.134   1.979   3.843 -0.7844 -0.2810  0.7725
 2692TIP3    H129711   2.082   2.049   3.882 -0.7396  0.0946  0.1597
 2692TIP3    H229712   2.165   1.928   3.918 -0.8562  0.3253  1.2195
 2693TIP3   OH229713   0.253   1.704   4.309 -0.2885 -0.4140 -0.6524
 2693TIP3    H129714   0.289   1.632   4.361 -0.8567 -0.2204  0.0338
 2693TIP3    H229715   0.238   1.666   4.223 -0.3359 -1.0494 -0.3730
 2694TIP3   OH229716   0.366   1.139   1.400  0.6474  0.2063  0.0927
 2694TIP3    H129717   0.385   1.215   1.456  1.4679  1.6054 -1.9543
 2694TIP3    H229718   0.315   1.175   1.328 -0.8394 -1.6505  0.1519
 2695TIP3   OH229719   0.296   5.721   2.341  0.2318  0.1390  0.3905
 2695TIP3    H129720   0.214   5.772   2.342 -1.4025 -2.1262 -2.3300
 2695TIP3    H229721   0.297   5.676   2.425 -0.7114  1.0756  0.9335
 2696TIP3   OH229722   3.631   1.567   0.988 -0.2124 -0.3752 -0.3576
 2696TIP3    H129723   3.629   1.475   1.016 -2.2437 -0.2561  0.0335
 2696TIP3    H229724   3.701   1.606   1.039 -2.3761 -0.6746  3.1591
 2697TIP3   OH229725   4.546   6.388   1.321  0.1663 -0.1993  0.0840
 2697TIP3    H129726   4.486   6.317   1.341  0.3252 -0.4565 -0.3417
 2697TIP3    H229727   4.628   6.364   1.364  0.6688 -1.0135 -1.2642
 2698TIP3   OH229728   6.556   2.969   1.625 -1.1206 -0.3394  0.2239
 2698TIP3    H129729   6.564   3.063   1.640  1.6019 -0.2884 -0.9369
 2698TIP3    H229730   6.628   2.930   1.675 -1.4827 -1.6986 -0.2530
 2699TIP3   OH229731   6.652   0.385   2.006 -0.2282 -0.8934  0.0832
 2699TIP3    H129732   6.664   0.465   2.057 -0.2538 -0.8793  0.0671
 2699TIP3    H229733   6.657   0.314   2.071 -3.1686 -0.7426  0.6175
 2700TIP3   OH229734   0.744   3.609   0.918  0.5090  0.0462 -0.7703
 2700TIP3    H129735   0.781   3.526   0.948  0.6084  0.3907  0.0981
 2700TIP3    H229736   0.813   3.648   0.864  0.6879 -0.1599 -0.6895
 2701TIP3   OH229737   3.350   3.793   0.619  0.5939 -0.0359  0.6051
 2701TIP3    H129738   3.412   3.729   0.584  0.6209 -0.3346  1.1880
 2701TIP3    H229739   3.405   3.866   0.649  0.6108 -0.0080  0.5064
 2702TIP3   OH229740   4.992   0.233   4.966 -0.5889 -0.0514  0.8579
 2702TIP3    H129741   4.971   0.146   5.001 -1.7338  0.1835  0.8184
 2702TIP3    H229742   4.983   0.291   5.042 -2.4177  0.3672  0.3842
 2703TIP3   OH229743   0.694   0.963   5.021 -0.2787 -0.7135 -0.2155
 2703TIP3    H129744   0.746   0.884   5.037  0.2467 -0.4766 -0.6870
 2703TIP3    H229745   0.606   0.940   5.050 -0.3106 -1.7434 -1.0539
 2704TIP3   OH229746   3.460   5.505   4.844 -0.0771  0.0774  0.1909
 2704TIP3    H129747   3.389   5.441   4.838 -0.4996  0.5502  0.0529
 2704TIP3    H229748   3.446   5.563   4.769  0.2134  0.4169  0.3950
 2705TIP3   OH229749   0.070   4.330   5.305 -0.1927 -0.0943 -0.0405
 2705TIP3    H129750   0.023   4.408   5.334  1.4965  0.3591  1.6278
 2705TIP3    H229751   0.108   4.293   5.384  1.9616 -0.6202 -1.2331
 2706TIP3   OH229752   1.490   2.897   4.100 -0.0254 -0.1534  0.0575
 2706TIP3    H129753   1.413   2.952   4.092  0.1687  0.2683  0.9391
 2706TIP3    H229754   1.475   2.846   4.179  0.0712 -0.9330 -0.4158
 2707TIP3   OH229755   2.174   6.443   2.513  0.1871  0.2351  0.2256
 2707TIP3    H129756   2.226   6.393   2.576 -0.1008 -0.7869 -0.3293
 2707TIP3    H229757   2.225   6.441   2.432 -1.2209 -1.8584 -0.6996
 2708TIP3   OH229758   3.768   0.142   0.873 -0.0250  0.1067  0.0951
 2708TIP3    H129759   3.843   0.196   0.848 -1.2222  2.5452  1.3461
 2708TIP3    H229760   3.693   0.200   0.863 -1.4168 -1.3273  1.5755
 2709TIP3   OH229761   1.088   1.772   3.723 -0.2459 -0.3822 -0.4451
 2709TIP3    H129762   1.048   1.735   3.802  1.8141 -1.8188  0.0028
 2709TIP3    H229763   1.042   1.855   3.710 -0.3502  0.1369  2.5399
 2710TIP3   OH229764   1.599   0.242   1.994  0.7849 -0.5679  0.3467
 2710TIP3    H129765   1.582   0.322   1.944  1.6437 -1.1798 -1.0059
 2710TIP3    H229766   1.622   0.273   2.082 -0.4286  0.5657  0.2949
 2711TIP3   OH229767   4.556   4.834   0.708 -0.6203 -0.2015 -0.0454
 2711TIP3    H129768   4.650   4.842   0.698 -0.7142 -0.1952 -0.9924
 2711TIP3    H229769   4.536   4.881   0.789  0.0344  0.9041 -0.5007
 2712TIP3   OH229770   5.979   5.467   2.464  0.0005  0.1105 -0.0322
 2712TIP3    H129771   6.047   5.461   2.397 -0.1983 -0.4210 -0.1939
 2712TIP3    H229772   6.026   5.488   2.545  0.6930 -2.6015  0.3724
 2713TIP3   OH229773   2.056   3.587   3.326 -0.2093  0.9247 -0.1314
 2713TIP3    H129774   2.085   3.662   3.274  0.4287  1.1344  0.5191
 2713TIP3    H229775   2.135   3.536   3.341 -0.5295  0.4501 -0.0245
 2714TIP3   OH229776   4.882   1.801   2.073  0.3433  0.1423 -0.1480
 2714TIP3    H129777   4.967   1.763   2.094  0.4701  0.4340 -0.1326
 2714TIP3    H229778   4.820   1.728   2.080  0.7660 -0.3646 -1.3782
 2715TIP3   OH229779   3.674   5.566   3.838  0.3363 -0.0963  0.3287
 2715TIP3    H129780   3.682   5.570   3.743  0.3825 -1.2511  0.2676
 2715TIP3    H229781   3.636   5.650   3.863  3.1927  1.5620 -0.3839
 2716TIP3   OH229782   6.575   0.455   1.223 -0.0207  0.1761 -0.3916
 2716TIP3    H129783   6.496   0.444   1.170 -0.7819  0.1347  0.7262
 2716TIP3    H229784   6.584   0.550   1.233  0.1999  0.1896 -0.6894
 2717TIP3   OH229785   5.221   2.680   3.835  0.3821  0.0548 -0.0511
 2717TIP3    H129786   5.130   2.656   3.819  0.1025  1.5301 -0.8569
 2717TIP3    H229787   5.272   2.610   3.794 -0.3948  0.5100 -1.9366
 2718TIP3   OH229788   1.086   6.675   1.756 -0.6660  0.1632  0.6032
 2718TIP3    H129789   1.123   6.722   1.831  1.2507 -0.0615 -0.1271
 2718TIP3    H229790   1.076   6.585   1.786 -1.0689  0.3259  0.9602
 2719TIP3   OH229791   1.957   2.147   1.500 -0.1257 -0.1505  0.7154
 2719TIP3    H129792   1.938   2.134   1.593 -0.6695 -2.4637  0.3406
 2719TIP3    H229793   2.013   2.073   1.476  0.2702  0.5854 -0.7433
 2720TIP3   OH229794   5.734   6.165   2.648  0.1087  0.4392 -1.1079
 2720TIP3    H129795   5.687   6.093   2.690 -0.6174  2.0173  0.9366
 2720TIP3    H229796   5.777   6.212   2.719  0.2503  2.2538 -2.2990
 2721TIP3   OH229797   0.063   6.668   4.191 -0.0436 -0.5231 -0.0604
 2721TIP3    H129798   0.139   6.716   4.222  0.2934 -1.5306  0.7461
 2721TIP3    H229799  -0.009   6.698   4.247  0.1916 -1.0202  0.5245
 2722TIP3   OH229800   4.189   2.020   3.789  0.4192  0.4626  0.0064
 2722TIP3    H129801   4.182   2.115   3.799 -0.6587  0.3600  0.3725
 2722TIP3    H229802   4.172   1.986   3.877  2.2522 -0.0307  0.2113
 2723TIP3   OH229803   2.394   4.603   1.571  0.2542 -0.0526  0.0196
 2723TIP3    H129804   2.450   4.651   1.510  1.9797 -1.1093  0.7059
 2723TIP3    H229805   2.361   4.670   1.631  1.4131  0.4957  0.0691
 2724TIP3   OH229806   5.916   0.996   2.147 -0.3086  0.2615 -0.2671
 2724TIP3    H129807   5.987   0.999   2.084  0.3385  1.8497  0.4990
 2724TIP3    H229808   5.934   1.067   2.208 -1.3822 -0.6604  1.2117
 2725TIP3   OH229809   0.995   5.645   2.868  0.3926  0.1003 -0.3327
 2725TIP3    H129810   1.053   5.575   2.838  0.3579 -0.3561  0.6045
 2725TIP3    H229811   0.912   5.601   2.887  0.5600  0.2534  0.8662
 2726TIP3   OH229812   5.714   4.654   4.569 -0.4425 -0.6133  0.5176
 2726TIP3    H129813   5.712   4.730   4.511 -2.6469 -0.5123  0.6672
 2726TIP3    H229814   5.624   4.624   4.573  0.0017 -1.8797  2.2628
 2727TIP3   OH229815   4.981   6.410   3.971 -0.3824 -0.0906 -0.0875
 2727TIP3    H129816   4.984   6.479   4.037  0.5216 -0.5540  0.3798
 2727TIP3    H229817   4.898   6.424   3.925 -1.6268 -0.4362  1.9224
 2728TIP3   OH229818   1.672   3.978   1.653 -0.4425 -0.3723 -0.1354
 2728TIP3    H129819   1.593   3.969   1.600  0.7832  1.2355 -2.3660
 2728TIP3    H229820   1.742   3.995   1.590  1.1629  1.3707  1.9578
 2729TIP3   OH229821   3.004   4.482   2.080  0.4839  0.3249 -0.1132
 2729TIP3    H129822   3.049   4.520   2.156 -1.1960 -0.4465  1.3648
 2729TIP3    H229823   3.044   4.396   2.069  1.8040  1.0403 -1.1440
 2730TIP3   OH229824   5.760   5.293   2.374  0.4855  0.7208 -0.1588
 2730TIP3    H129825   5.778   5.286   2.280  1.0295 -0.7993  0.0231
 2730TIP3    H229826   5.830   5.350   2.407  0.3503  1.1824 -0.6610
 2731TIP3   OH229827   4.360   2.344   2.882 -0.0000  0.2475 -0.3657
 2731TIP3    H129828   4.283   2.401   2.875 -0.6574 -0.5183  0.4690
 2731TIP3    H229829   4.372   2.332   2.976 -0.6376 -1.9956 -0.5307
 2732TIP3   OH229830   2.739   2.222   4.552 -0.0004 -0.3992 -0.3903
 2732TIP3    H129831   2.663   2.165   4.542  1.2447 -1.7813 -3.1477
 2732TIP3    H229832   2.770   2.205   4.641 -0.8005 -2.6372 -0.4598
 2733TIP3   OH229833   2.020   6.046   0.937 -0.1824 -0.2567 -0.1017
 2733TIP3    H129834   1.938   6.002   0.959  0.8062 -2.1267  0.0728
 2733TIP3    H229835   2.054   5.998   0.862  1.3616 -0.3423  0.6111
 2734TIP3   OH229836   4.591   3.733   0.936  0.2806 -0.1984 -0.3398
 2734TIP3    H129837   4.612   3.820   0.901 -1.3256 -0.7908 -3.0454
 2734TIP3    H229838   4.675   3.686   0.937  0.6298  0.3464 -2.0743
 2735TIP3   OH229839   0.042   1.611   4.151  0.0110 -0.3051  0.0938
 2735TIP3    H129840  -0.035   1.589   4.099  0.0986  1.2142 -0.7337
 2735TIP3    H229841   0.009   1.675   4.215  0.7861  1.2541 -1.0228
 2736TIP3   OH229842   1.779   1.551   2.057  0.0314 -0.3762  0.0303
 2736TIP3    H129843   1.724   1.502   2.118  0.0230  0.6352  0.8661
 2736TIP3    H229844   1.781   1.640   2.093 -0.3648  0.3739 -1.7166
 2737TIP3   OH229845   3.847   4.167   2.539  0.3410  0.0695 -0.3012
 2737TIP3    H129846   3.840   4.076   2.511 -0.6252 -0.0131  0.1866
 2737TIP3    H229847   3.879   4.213   2.462  0.7223 -0.6607 -0.5892
 2738TIP3   OH229848   2.338   4.428   2.645  0.0083 -0.3541  0.1892
 2738TIP3    H129849   2.274   4.411   2.715 -0.8120 -1.2664 -0.7449
 2738TIP3    H229850   2.398   4.492   2.683 -1.7429  0.9294  0.9421
 2739TIP3   OH229851   5.546   4.858   3.416 -0.0044  0.6758 -0.2818
 2739TIP3    H129852   5.501   4.843   3.500  1.9296 -2.4270  0.3755
 2739TIP3    H229853   5.606   4.930   3.434  2.2729 -1.5682  2.0061
 2740TIP3   OH229854   1.939   1.574   1.205 -0.5807  0.3091 -0.3339
 2740TIP3    H129855   1.953   1.644   1.141 -2.1132 -1.7630 -3.1222
 2740TIP3    H229856   1.847   1.584   1.232 -1.3704 -1.5670 -2.1129
 2741TIP3   OH229857   5.256   1.209   4.222 -0.0839 -0.0923  0.1361
 2741TIP3    H129858   5.163   1.187   4.219 -0.4348  1.1279  1.1474
 2741TIP3    H229859   5.274   1.251   4.137 -0.7912  0.8516  0.4355
 2742TIP3   OH229860   4.305   4.075   3.189 -0.7680 -0.0111  0.0458
 2742TIP3    H129861   4.253   4.147   3.226 -2.6941 -1.3272  0.0410
 2742TIP3    H229862   4.281   4.073   3.096 -0.0858 -0.1325 -0.1301
 2743TIP3   OH229863   0.110   0.146   2.828 -0.3862  0.7632  0.3507
 2743TIP3    H129864   0.017   0.132   2.844 -0.3831  1.4793  1.0143
 2743TIP3    H229865   0.116   0.234   2.792 -0.1064  0.1751 -1.1221
 2744TIP3   OH229866   0.363   6.509   2.027  0.7828  0.0245  0.5876
 2744TIP3    H129867   0.418   6.566   1.974 -0.5322  0.4419 -0.4036
 2744TIP3    H229868   0.274   6.529   1.999  0.1172 -0.6963  2.0494
 2745TIP3   OH229869   5.497   4.769   3.175  0.4076  0.3908 -0.2809
 2745TIP3    H129870   5.543   4.820   3.241 -0.7891  1.8409 -0.5311
 2745TIP3    H229871   5.434   4.717   3.224 -0.6176  1.6148 -0.2719
 2746TIP3   OH229872   0.041   6.199   1.893  0.5013 -0.6257  0.3755
 2746TIP3    H129873   0.048   6.116   1.846  0.7041  0.0694 -0.8835
 2746TIP3    H229874  -0.038   6.190   1.946  1.3225 -2.1495  1.3987
 2747TIP3   OH229875   1.737   2.200   1.370  0.5211  0.2526 -0.0177
 2747TIP3    H129876   1.829   2.193   1.396  0.1239 -0.2220  1.3446
 2747TIP3    H229877   1.695   2.125   1.412 -0.2825 -0.2167 -1.6100
 2748TIP3   OH229878   0.415   4.348   4.911  0.2608 -0.1971  0.6447
 2748TIP3    H129879   0.491   4.356   4.968  0.1376  0.6547  0.6984
 2748TIP3    H229880   0.340   4.363   4.969  0.0226 -1.3385  0.6579
 2749TIP3   OH229881   1.547   0.293   2.715  0.4258 -0.0252 -0.0742
 2749TIP3    H129882   1.604   0.217   2.702 -0.0786 -0.2064 -1.4136
 2749TIP3    H229883   1.459   0.259   2.702 -0.0454  0.2297  2.0691
 2750TIP3   OH229884   3.553   5.870   3.468  0.1014  0.4945 -0.4379
 2750TIP3    H129885   3.463   5.897   3.489 -0.4326  0.4768 -2.4982
 2750TIP3    H229886   3.597   5.951   3.444  0.3667  0.3730 -0.3582
 2751TIP3   OH229887   2.891   5.518   3.749  0.4557  0.4492  0.3373
 2751TIP3    H129888   2.941   5.596   3.771  0.6179  1.0792 -1.9769
 2751TIP3    H229889   2.946   5.445   3.776  1.6020  1.1440 -0.0566
 2752TIP3   OH229890   2.987   3.400   3.498 -0.2280 -0.5026 -0.2041
 2752TIP3    H129891   2.973   3.344   3.574  0.5577 -2.7104 -1.5737
 2752TIP3    H229892   2.911   3.383   3.442  0.1521 -0.4099 -0.7515
 2753TIP3   OH229893   0.640   5.791   3.195  0.0235  0.2342  0.7721
 2753TIP3    H129894   0.720   5.758   3.235  0.5075 -0.0211 -0.3769
 2753TIP3    H229895   0.651   5.886   3.195  0.3898  0.1942  0.5010
 2754TIP3   OH229896   5.354   0.690   4.158  0.4806 -0.0211 -0.1729
 2754TIP3    H129897   5.436   0.648   4.182  0.4134  0.3698  0.7863
 2754TIP3    H229898   5.367   0.783   4.179 -0.3256 -0.0134  0.3555
 2755TIP3   OH229899   6.545   0.643   4.315 -0.1845  0.2564 -0.6110
 2755TIP3    H129900   6.559   0.718   4.257  0.4298 -0.1873 -1.0469
 2755TIP3    H229901   6.633   0.609   4.332 -0.4960 -0.7152 -0.8827
 2756TIP3   OH229902   1.563   4.881   1.229 -0.7229  0.2446 -0.0797
 2756TIP3    H129903   1.524   4.966   1.248 -1.7611 -0.4071  0.8099
 2756TIP3    H229904   1.632   4.871   1.296 -1.4473 -0.1480  0.6220
 2757TIP3   OH229905   6.236   4.007   0.898  0.4615 -0.2686  0.0287
 2757TIP3    H129906   6.212   4.062   0.972  2.0344 -0.5729  0.8127
 2757TIP3    H229907   6.330   3.995   0.906  0.1376 -3.7677  0.4393
 2758TIP3   OH229908   1.716   6.076   2.062  0.4954  0.3306  0.7930
 2758TIP3    H129909   1.809   6.081   2.085  0.3587  0.6171  1.2988
 2758TIP3    H229910   1.715   6.038   1.974  1.0938  0.4024  0.7519
 2759TIP3   OH229911   6.169   5.732   1.898  0.2002 -0.3829  0.1268
 2759TIP3    H129912   6.237   5.783   1.856 -2.0037  0.6956 -2.4036
 2759TIP3    H229913   6.191   5.641   1.877  0.6487 -0.0317 -0.9718
 2760TIP3   OH229914   3.259   3.250   4.533  0.0379  0.4258  0.6593
 2760TIP3    H129915   3.248   3.295   4.617  2.3117  1.0680  0.6918
 2760TIP3    H229916   3.247   3.318   4.467  1.3243  0.6339  0.6187
 2761TIP3   OH229917   2.667   0.256   1.364 -0.4560 -0.7473 -0.0653
 2761TIP3    H129918   2.753   0.294   1.381 -0.5990  0.0746 -1.1412
 2761TIP3    H229919   2.683   0.162   1.364 -0.0206 -0.7322  2.2176
 2762TIP3   OH229920   1.669   4.910   1.521  0.6029  0.1802 -0.0860
 2762TIP3    H129921   1.672   4.959   1.603 -0.3523 -1.3346  0.8935
 2762TIP3    H229922   1.714   4.828   1.539  2.5975  0.7999 -1.8449
 2763TIP3   OH229923   1.048   0.087   3.623 -0.0572  0.5654 -0.4856
 2763TIP3    H129924   1.013   0.057   3.539 -1.1199 -0.1138  0.1856
 2763TIP3    H229925   0.974   0.083   3.683  0.6806  1.0852  0.4888
 2764TIP3   OH229926   4.127   1.846   3.551  0.3283  0.0558  0.4203
 2764TIP3    H129927   4.033   1.860   3.544  0.6365  1.5426 -1.6572
 2764TIP3    H229928   4.154   1.901   3.625 -0.3762 -0.1247  0.8158
 2765TIP3   OH229929   0.304   0.080   1.843  0.0780  0.8681  0.2016
 2765TIP3    H129930   0.308   0.060   1.749 -0.9560  0.8674  0.1430
 2765TIP3    H229931   0.259   0.004   1.881  0.0198  1.1155  0.6218
 2766TIP3   OH229932   5.148   1.133   1.255 -0.2269  1.0831  0.5196
 2766TIP3    H129933   5.053   1.142   1.254 -0.3328  0.2312 -1.3314
 2766TIP3    H229934   5.180   1.222   1.239 -0.8387  0.9141 -2.0570
 2767TIP3   OH229935   5.833   2.697   5.044  0.4377 -0.0871 -0.0714
 2767TIP3    H129936   5.752   2.688   4.994  0.3709  1.0878 -0.1976
 2767TIP3    H229937   5.902   2.681   4.980  0.3279 -1.9659  0.2212
 2768TIP3   OH229938   2.264   1.659   5.286  0.6286  0.3254  0.3613
 2768TIP3    H129939   2.183   1.691   5.326  0.4846 -1.3153  1.4749
 2768TIP3    H229940   2.238   1.633   5.197 -0.5482 -1.8394  1.2579
 2769TIP3   OH229941   3.088   6.529   4.219  0.1783  0.7406 -0.2326
 2769TIP3    H129942   3.141   6.584   4.162  0.7454 -0.4290 -0.8674
 2769TIP3    H229943   3.019   6.587   4.250  0.3746  1.6427 -1.4009
 2770TIP3   OH229944   0.529   4.102   1.775  0.0915 -0.4460  0.3000
 2770TIP3    H129945   0.524   4.121   1.869 -3.4278 -1.0440  0.3919
 2770TIP3    H229946   0.622   4.100   1.755  0.9292  2.4843  3.1715
 2771TIP3   OH229947   0.960   1.885   1.833 -0.1283  0.1425  0.1061
 2771TIP3    H129948   0.935   1.903   1.743 -1.4654 -0.7726  0.2727
 2771TIP3    H229949   1.027   1.816   1.826 -1.3912 -1.1070 -0.1558
 2772TIP3   OH229950   2.834   0.530   2.179 -0.2053  0.5275  0.0566
 2772TIP3    H129951   2.785   0.600   2.137 -1.4855 -0.4168 -0.0928
 2772TIP3    H229952   2.811   0.536   2.272 -1.7443 -0.7374 -0.1934
 2773TIP3   OH229953   5.752   5.137   2.763 -0.7453 -0.4764  0.2115
 2773TIP3    H129954   5.665   5.147   2.802 -0.6061 -0.3967  0.5086
 2773TIP3    H229955   5.737   5.095   2.679 -1.0849 -0.3266  0.1985
 2774TIP3   OH229956   4.370   0.855   1.648  0.3410  0.8435 -0.5601
 2774TIP3    H129957   4.413   0.939   1.663  1.5833  0.1479 -0.0211
 2774TIP3    H229958   4.440   0.797   1.620 -0.3277 -0.2323 -0.0754
 2775TIP3   OH229959   6.668   4.602   1.890  0.5542 -0.3634  0.1215
 2775TIP3    H129960   6.658   4.524   1.945  0.8890 -0.6212 -0.1682
 2775TIP3    H229961   6.586   4.650   1.900  1.2578  0.5010  2.2057
 2776TIP3   OH229962   6.080   5.913   2.747  0.2839 -0.4551  0.1696
 2776TIP3    H129963   6.131   5.986   2.712 -1.3520  0.0346 -1.3453
 2776TIP3    H229964   6.144   5.842   2.758  1.8660  1.0654  1.4392
 2777TIP3   OH229965   2.159   0.196   2.691 -0.3333 -0.2625 -0.5944
 2777TIP3    H129966   2.160   0.174   2.785 -0.2324  1.3433 -0.1962
 2777TIP3    H229967   2.166   0.111   2.647 -0.6455 -1.0745  0.8428
 2778TIP3   OH229968   2.771   5.639   5.248  0.4777 -0.1505  0.1665
 2778TIP3    H129969   2.683   5.611   5.221 -0.1868  2.0692 -0.2208
 2778TIP3    H229970   2.815   5.559   5.274 -1.3240 -1.4688 -0.6224
 2779TIP3   OH229971   0.269   1.650   1.945 -0.5837  0.6860  0.0844
 2779TIP3    H129972   0.351   1.600   1.941 -0.8092  0.2805  0.4561
 2779TIP3    H229973   0.227   1.621   2.026 -1.0308  0.9979 -0.0308
 2780TIP3   OH229974   4.423   0.559   2.256 -0.4556 -0.2543  0.5384
 2780TIP3    H129975   4.467   0.484   2.217 -0.2075 -0.0653  0.4541
 2780TIP3    H229976   4.331   0.547   2.235 -0.4746 -0.7617  0.8970
 2781TIP3   OH229977   1.748   4.616   1.192  0.5629 -0.3372 -0.2275
 2781TIP3    H129978   1.832   4.620   1.236  0.6127 -0.6498 -0.2945
 2781TIP3    H229979   1.737   4.703   1.153 -0.3746  0.6527  2.0201
 2782TIP3   OH229980   5.908   0.818   4.520  0.0154 -0.0037 -0.0606
 2782TIP3    H129981   5.952   0.787   4.440  1.5108  0.0576  0.7038
 2782TIP3    H229982   5.881   0.738   4.565  0.7458 -0.1060  0.2112
 2783TIP3   OH229983   6.691   1.853   5.332 -0.2646 -0.3331 -0.0916
 2783TIP3    H129984   6.634   1.929   5.343 -0.2895 -0.5304  1.2316
 2783TIP3    H229985   6.656   1.787   5.392  1.2460 -0.5148  0.6539
 2784TIP3   OH229986   0.434   0.938   1.959 -0.2736  0.4416 -0.5928
 2784TIP3    H129987   0.419   0.856   1.912 -1.2212  0.6315 -0.6274
 2784TIP3    H229988   0.528   0.938   1.976 -0.3834 -1.1409  0.2652
 2785TIP3   OH229989   3.959   6.246   9.027  0.3114  0.4208  0.2853
 2785TIP3    H129990   4.029   6.307   9.005  0.9548 -0.8496 -1.5472
 2785TIP3    H229991   3.983   6.165   8.980 -1.4433 -0.6301  1.0940
 2786TIP3   OH229992   3.851   2.559   1.863  0.1249  0.2817 -0.5010
 2786TIP3    H129993   3.862   2.632   1.924 -1.9672 -0.4683  0.8972
 2786TIP3    H229994   3.769   2.578   1.817  0.4206 -0.3752 -1.3194
 2787TIP3   OH229995   1.258   6.754   2.801  0.2537  0.0509  0.8021
 2787TIP3    H129996   1.203   6.810   2.854 -1.3668 -0.9889  0.2845
 2787TIP3    H229997   1.303   6.698   2.865 -0.7811 -0.3982  1.1587
 2788TIP3   OH229998   5.358   5.435   4.070  0.0288  0.2458  0.1819
 2788TIP3    H129999   5.262   5.428   4.072  0.0124 -0.4857 -1.5960
 2788TIP3    H230000   5.379   5.454   3.978  1.5857  0.6718  0.5925
 2789TIP3   OH230001   3.172   2.748   2.801  0.9921 -0.3486  0.0099
 2789TIP3    H130002   3.176   2.658   2.831  2.9248 -0.7889 -1.3503
 2789TIP3    H230003   3.116   2.793   2.865  0.7546 -2.2844  1.2321
 2790TIP3   OH230004   1.916   3.131   3.614 -0.3800  0.0447 -0.1723
 2790TIP3    H130005   1.920   3.119   3.519 -0.1017 -1.3482 -0.0033
 2790TIP3    H230006   1.836   3.085   3.641  0.0945 -0.4704  0.3840
 2791TIP3   OH230007   3.268   5.838   2.554  0.2531  0.2829 -0.5909
 2791TIP3    H130008   3.231   5.901   2.617  2.1315  2.3329 -1.4107
 2791TIP3    H230009   3.253   5.878   2.469  0.8310 -0.7801 -1.2096
 2792TIP3   OH230010   0.566   3.134   3.164 -0.0757 -0.1776 -0.0128
 2792TIP3    H130011   0.658   3.113   3.177  0.5324  2.4044  0.3121
 2792TIP3    H230012   0.526   3.118   3.250  0.4992  0.6220  0.4118
 2793TIP3   OH230013   6.126   4.406   2.844 -0.9782 -0.0640  0.2529
 2793TIP3    H130014   6.214   4.377   2.868 -1.7539 -0.9443  2.2712
 2793TIP3    H230015   6.136   4.447   2.758  1.0186 -2.0655 -0.5550
 2794TIP3   OH230016   1.558   2.362   1.532 -0.6005 -0.0953 -0.0737
 2794TIP3    H130017   1.608   2.307   1.471  1.3927  1.5786 -0.0789
 2794TIP3    H230018   1.467   2.341   1.514  0.0099 -1.6263 -1.7335
 2795TIP3   OH230019   2.198   0.245   4.659 -0.5794 -0.2770 -0.7477
 2795TIP3    H130020   2.287   0.280   4.662 -1.0113  0.8657 -0.7337
 2795TIP3    H230021   2.162   0.263   4.746 -0.6898 -1.1222 -0.6101
 2796TIP3   OH230022   2.370   4.010   0.793 -0.1992 -0.0289 -0.4461
 2796TIP3    H130023   2.381   4.104   0.812 -0.3398 -0.0553 -0.2284
 2796TIP3    H230024   2.277   4.000   0.773 -0.1997 -0.1362 -0.3918
 2797TIP3   OH230025   4.388   6.363   2.812 -0.0833 -0.3869  0.4403
 2797TIP3    H130026   4.385   6.413   2.730 -0.7910  1.5556  1.5871
 2797TIP3    H230027   4.368   6.273   2.786  2.0860 -0.3057 -1.8296
 2798TIP3   OH230028   2.900   2.100   1.904 -0.2461  0.0347 -0.4111
 2798TIP3    H130029   2.847   2.054   1.969 -0.4877  0.7912 -0.0698
 2798TIP3    H230030   2.855   2.084   1.821 -1.5102  1.3665 -0.0242
 2799TIP3   OH230031   6.597   1.170   3.067 -0.3395 -0.4535  0.0908
 2799TIP3    H130032   6.580   1.153   3.159 -0.9645 -0.1372  0.0387
 2799TIP3    H230033   6.563   1.259   3.052  1.4953  0.2856  0.0065
 2800TIP3   OH230034   3.676   2.154   1.988  0.9563  0.1598 -0.1946
 2800TIP3    H130035   3.695   2.129   1.898 -0.2770 -0.0642 -0.4077
 2800TIP3    H230036   3.755   2.200   2.018  0.8611  1.4833 -1.8441
 2801TIP3   OH230037   3.387   3.485   2.761 -0.1036  0.0307 -0.7298
 2801TIP3    H130038   3.416   3.436   2.839 -2.1534  0.3621  0.2967
 2801TIP3    H230039   3.444   3.453   2.691  1.2250 -0.9332  0.7001
 2802TIP3   OH230040   5.020   6.372   4.784 -0.0504 -0.5653 -0.1331
 2802TIP3    H130041   4.933   6.410   4.771 -0.0522 -0.3303  0.5320
 2802TIP3    H230042   5.052   6.413   4.865  0.5904 -0.8076 -0.2645
 2803TIP3   OH230043   5.258   1.709   4.466  0.2266  0.5019 -0.6746
 2803TIP3    H130044   5.324   1.661   4.515 -1.5014 -0.1606  1.1746
 2803TIP3    H230045   5.243   1.657   4.387  0.8103 -0.1710 -0.3504
 2804TIP3   OH230046   2.178   0.598   4.552 -0.0641 -0.6210  0.3333
 2804TIP3    H130047   2.256   0.625   4.504 -0.3102 -1.0272 -0.3105
 2804TIP3    H230048   2.209   0.581   4.641  0.4564 -0.1558  0.2423
 2805TIP3   OH230049   0.209   2.791   2.841  0.3194 -1.0684  0.3105
 2805TIP3    H130050   0.253   2.872   2.869 -1.2170 -0.3777  0.8364
 2805TIP3    H230051   0.273   2.747   2.785  0.9035  0.9358 -0.6949
 2806TIP3   OH230052   0.097   4.294   4.422  0.1212 -0.2658 -0.0995
 2806TIP3    H130053   0.180   4.342   4.427 -0.8007  1.2802  2.7186
 2806TIP3    H230054   0.047   4.340   4.356  1.1577 -0.6676 -1.1965
 2807TIP3   OH230055   5.589   2.296   1.491  0.4311  0.1182  0.1154
 2807TIP3    H130056   5.629   2.211   1.509 -2.0307 -1.5096 -1.4740
 2807TIP3    H230057   5.544   2.319   1.572  0.0411 -0.7621  0.1587
 2808TIP3   OH230058   5.844   5.567   3.236 -0.4124 -0.1051 -0.1656
 2808TIP3    H130059   5.892   5.485   3.248  0.6585  0.6818  1.2574
 2808TIP3    H230060   5.784   5.570   3.310 -0.4902  0.3650 -0.2475
 2809TIP3   OH230061   1.253   5.451   2.911  0.8383 -0.2160  0.1008
 2809TIP3    H130062   1.309   5.449   2.988  1.0688 -1.5051 -0.0754
 2809TIP3    H230063   1.262   5.364   2.872 -0.4899 -0.1203 -0.4974
 2810TIP3   OH230064   0.366   0.671   1.885  0.3848  0.0048  0.5280
 2810TIP3    H130065   0.318   0.638   1.809 -0.0196  1.0058  0.3222
 2810TIP3    H230066   0.451   0.627   1.881  0.8979  1.0593 -1.3307
 2811TIP3   OH230067   1.182   0.509   4.244  0.7753  0.9697  0.1214
 2811TIP3    H130068   1.133   0.590   4.254 -0.9940 -0.1523  1.0670
 2811TIP3    H230069   1.265   0.525   4.289  0.1769  2.0153  0.9014
 2812TIP3   OH230070   4.574   3.298   4.050  0.1942 -0.1271 -0.1174
 2812TIP3    H130071   4.488   3.292   4.010  0.4847 -2.0873 -0.5433
 2812TIP3    H230072   4.586   3.391   4.069 -1.9732  0.1858 -0.1011
 2813TIP3   OH230073   6.226   4.698   3.788  0.1249 -0.3398  0.0884
 2813TIP3    H130074   6.167   4.669   3.857 -1.4150  1.3598 -0.4470
 2813TIP3    H230075   6.171   4.704   3.710  1.4349 -0.4849 -0.8819
 2814TIP3   OH230076   0.027   1.772   3.706 -0.4458 -0.2961 -0.0445
 2814TIP3    H130077   0.004   1.829   3.632 -1.4172  0.2575  0.6447
 2814TIP3    H230078  -0.034   1.799   3.775  0.7375 -0.4895  1.1044
 2815TIP3   OH230079   6.386   5.859   3.507 -0.0445 -0.3569  0.2955
 2815TIP3    H130080   6.402   5.852   3.601  0.4344 -0.5043  0.2042
 2815TIP3    H230081   6.357   5.950   3.494  0.9419 -0.0172  0.4343
 2816TIP3   OH230082   4.989   2.662   3.025 -0.6520  0.2974 -0.5181
 2816TIP3    H130083   4.898   2.643   3.049 -1.6126  2.9122 -1.6377
 2816TIP3    H230084   5.020   2.582   2.984 -1.9506 -1.1333  1.1487
 2817TIP3   OH230085   4.384   3.201   0.794 -0.4247  0.3973  0.1440
 2817TIP3    H130086   4.457   3.155   0.754 -1.8033 -1.2315 -0.6472
 2817TIP3    H230087   4.389   3.289   0.758  0.4668 -0.0221 -0.8237
 2818TIP3   OH230088   2.295   0.268   1.604 -0.0771  0.1270  0.3820
 2818TIP3    H130089   2.252   0.252   1.688 -1.8901 -1.9377 -0.8259
 2818TIP3    H230090   2.268   0.194   1.549  3.6222 -0.3176 -1.0859
 2819TIP3   OH230091   4.260   1.502   1.214  0.1310  0.7687 -0.2289
 2819TIP3    H130092   4.195   1.564   1.181 -1.8453 -0.4961  1.1410
 2819TIP3    H230093   4.287   1.453   1.136 -0.6542  1.1955 -0.7904
 2820TIP3   OH230094   1.153   6.366   0.197  0.4510 -0.1671 -0.4339
 2820TIP3    H130095   1.161   6.278   0.161  1.8278 -0.1581 -0.2143
 2820TIP3    H230096   1.200   6.422   0.136  0.9761  0.1617  0.2474
 2821TIP3   OH230097   0.877   0.025   2.751  0.3151  0.1627 -0.1710
 2821TIP3    H130098   0.867   0.117   2.726  0.2841 -0.2851 -1.9304
 2821TIP3    H230099   0.800   0.005   2.804 -0.9095  0.5492 -1.7367
 2822TIP3   OH230100   6.142   2.622   0.660 -0.1297 -0.0068 -0.6514
 2822TIP3    H130101   6.056   2.662   0.647  0.4888  1.5685 -0.1559
 2822TIP3    H230102   6.191   2.645   0.582 -0.1165 -0.8425 -0.8988
 2823TIP3   OH230103   4.339   5.786   4.305  0.6644  0.6094  0.2259
 2823TIP3    H130104   4.283   5.760   4.232  0.5606  0.4893  0.3476
 2823TIP3    H230105   4.408   5.719   4.307  0.0222 -0.0425  0.9617
 2824TIP3   OH230106   1.403   6.633   4.285  0.3212  0.2012 -0.2968
 2824TIP3    H130107   1.490   6.656   4.251  0.5456 -0.2737 -0.0701
 2824TIP3    H230108   1.403   6.666   4.375  0.9745 -1.3817  0.3260
 2825TIP3   OH230109   5.730   2.778   2.236  1.0643 -0.8347 -0.4773
 2825TIP3    H130110   5.784   2.797   2.160  2.2418  3.1490  1.0900
 2825TIP3    H230111   5.769   2.830   2.307 -1.3871 -2.4112  2.2499
 2826TIP3   OH230112   4.897   1.754   3.851  0.1982  0.2113  0.7491
 2826TIP3    H130113   4.873   1.688   3.786 -2.4627  1.4506  0.3509
 2826TIP3    H230114   4.966   1.806   3.810  0.2786 -0.5270 -0.0675
 2827TIP3   OH230115   2.228   4.087   1.798 -0.1061  0.3120  0.3434
 2827TIP3    H130116   2.221   4.171   1.843 -2.4589 -0.8292  2.3201
 2827TIP3    H230117   2.203   4.022   1.864 -0.2041 -1.7829 -1.6340
 2828TIP3   OH230118   2.488   5.746   3.369 -0.3023 -0.0950  0.3870
 2828TIP3    H130119   2.412   5.688   3.373  0.7196 -1.7196 -1.5824
 2828TIP3    H230120   2.524   5.732   3.281  2.4080  0.4306  1.3173
 2829TIP3   OH230121   4.523   3.324   2.139  0.5810 -0.5308  0.4485
 2829TIP3    H130122   4.475   3.278   2.207 -0.7942 -1.4964 -1.1057
 2829TIP3    H230123   4.608   3.281   2.136  1.5699  1.0479  3.0784
 2830TIP3   OH230124   5.992   3.072   4.462  0.0058  0.0308  0.6132
 2830TIP3    H130125   6.015   3.067   4.554 -0.4722 -1.8953  0.6873
 2830TIP3    H230126   5.897   3.081   4.461  0.2035  2.7562  0.2807
 2831TIP3   OH230127   1.989   1.826   2.344  0.1584  0.0644  0.3547
 2831TIP3    H130128   1.943   1.833   2.427  0.3976  1.2542  0.4132
 2831TIP3    H230129   2.082   1.837   2.367  0.2719 -0.1297 -0.0064
 2832TIP3   OH230130   4.183   1.448   2.563  0.2585 -0.1395 -0.4525
 2832TIP3    H130131   4.121   1.500   2.615  0.5748 -1.3305  1.1884
 2832TIP3    H230132   4.251   1.510   2.537  0.0281  0.5066  0.4489
 2833TIP3   OH230133   5.537   1.437   4.032 -0.2251  0.3050 -0.6537
 2833TIP3    H130134   5.515   1.514   4.084  1.2004  1.8283 -2.2073
 2833TIP3    H230135   5.611   1.398   4.078 -1.2546 -0.4752  0.4056
 2834TIP3   OH230136   4.149   4.395   5.630  0.1136  0.5065 -0.8496
 2834TIP3    H130137   4.146   4.350   5.546 -1.5283  2.5277 -1.9892
 2834TIP3    H230138   4.060   4.428   5.642  0.3377  0.3991  1.6539
 2835TIP3   OH230139   2.935   0.310   3.406 -0.3587 -0.1060 -0.0539
 2835TIP3    H130140   2.921   0.232   3.353 -0.3694  0.0126 -0.2259
 2835TIP3    H230141   3.013   0.290   3.459  0.2815  0.1765 -0.8718
 2836TIP3   OH230142   6.515   1.369   4.228 -0.5628  0.3256  0.0780
 2836TIP3    H130143   6.588   1.333   4.277 -1.8970  0.0438  1.9514
 2836TIP3    H230144   6.524   1.464   4.238 -1.7565  0.2534  2.4204
 2837TIP3   OH230145   3.674   4.997   4.547 -0.2121 -0.3108  0.1019
 2837TIP3    H130146   3.608   5.066   4.546  0.5932  0.5090  0.9607
 2837TIP3    H230147   3.688   4.979   4.640  2.5979  1.4137  0.1346
 2838TIP3   OH230148   1.620   0.884   4.848  0.6902  1.0181  0.5480
 2838TIP3    H130149   1.529   0.899   4.825  0.8371  0.4047 -0.4761
 2838TIP3    H230150   1.645   0.961   4.899 -1.2114 -0.0496  3.3511
 2839TIP3   OH230151   1.726   3.425   3.908 -0.3061 -0.7686  0.0028
 2839TIP3    H130152   1.760   3.345   3.949  0.0081  0.0558  1.3962
 2839TIP3    H230153   1.702   3.482   3.981 -0.3255  0.5076 -0.9617
 2840TIP3   OH230154   3.259   6.566   3.139 -0.3504 -0.2316  0.3658
 2840TIP3    H130155   3.261   6.602   3.228  0.7539 -0.8561  0.6120
 2840TIP3    H230156   3.351   6.547   3.118 -0.6498 -0.5897 -0.7031
 2841TIP3   OH230157   3.054   4.967   4.326 -0.1467 -0.1097 -0.1136
 2841TIP3    H130158   2.959   4.972   4.328 -0.0981  0.8082  0.0512
 2841TIP3    H230159   3.079   4.956   4.418 -0.1366 -1.4283 -0.2546
 2842TIP3   OH230160   1.403   4.502   3.935 -0.0601 -0.5814  0.4008
 2842TIP3    H130161   1.496   4.478   3.942 -0.2094 -1.2512  0.1291
 2842TIP3    H230162   1.363   4.430   3.886 -0.7730 -0.4210  0.7362
 2843TIP3   OH230163   6.281   4.913   2.197  0.1966  0.3403  0.4929
 2843TIP3    H130164   6.208   4.892   2.139  0.9266 -0.3208 -0.2255
 2843TIP3    H230165   6.245   4.973   2.262 -1.1333 -0.4674  0.5311
 2844TIP3   OH230166   3.062   5.981   2.698  0.2486  0.4540 -0.1201
 2844TIP3    H130167   3.030   6.026   2.776 -2.1019  0.8734 -1.2488
 2844TIP3    H230168   2.988   5.929   2.668  2.2261 -2.7576  0.0035
 2845TIP3   OH230169   5.629   6.078   4.569 -0.1018  0.0660 -0.1318
 2845TIP3    H130170   5.589   6.110   4.650 -1.0326 -0.7856 -0.2291
 2845TIP3    H230171   5.555   6.057   4.512  0.4038  4.1019 -2.7175
 2846TIP3   OH230172   1.400   4.610   4.195 -0.2089 -0.5893  0.4304
 2846TIP3    H130173   1.305   4.607   4.208 -0.2395 -2.1561  0.0119
 2846TIP3    H230174   1.412   4.599   4.101  0.3617  0.9571  0.2980
 2847TIP3   OH230175   2.444   0.824   2.164  0.6513 -0.6965 -0.4878
 2847TIP3    H130176   2.436   0.740   2.118  0.9887 -1.6329  1.1014
 2847TIP3    H230177   2.362   0.833   2.213  1.4549 -1.1370  0.9853
 2848TIP3   OH230178   3.092   2.351   4.641  0.4733 -0.0119 -0.2055
 2848TIP3    H130179   3.041   2.405   4.581 -0.4604  1.0714  1.4894
 2848TIP3    H230180   3.027   2.306   4.695  1.2802 -0.1704  0.6627
 2849TIP3   OH230181   1.575   4.924   2.204 -0.2821  0.3331 -0.2343
 2849TIP3    H130182   1.654   4.894   2.158  0.7802 -1.3655  2.4668
 2849TIP3    H230183   1.509   4.857   2.184  0.0998 -0.2666  0.5082
 2850TIP3   OH230184   1.308   0.166   3.848  0.0597  0.6779 -0.3806
 2850TIP3    H130185   1.278   0.231   3.911 -0.2490 -0.5978  0.8526
 2850TIP3    H230186   1.228   0.132   3.809 -0.0298 -1.0273  1.1608
 2851TIP3   OH230187   0.690   6.276   3.027 -0.5098  0.6751  0.0798
 2851TIP3    H130188   0.671   6.333   2.952 -1.0762  0.2811 -0.0853
 2851TIP3    H230189   0.744   6.206   2.990 -0.8831  0.4210  0.0178
 2852TIP3   OH230190   1.860   0.038   2.974 -0.0008 -0.3650  0.1701
 2852TIP3    H130191   1.867   0.132   2.992  0.1793  0.2243 -2.5656
 2852TIP3    H230192   1.950   0.006   2.976 -0.0985 -0.5937  1.5165
 2853TIP3   OH230193   2.073   0.224   1.325  0.1502  0.1828  0.4432
 2853TIP3    H130194   2.120   0.214   1.242  2.5567  0.6983  1.6517
 2853TIP3    H230195   2.091   0.143   1.373 -1.2834 -0.1480  0.4645
 2854TIP3   OH230196   5.374   5.014   0.223  0.3909  0.0150 -0.3271
 2854TIP3    H130197   5.309   5.081   0.244  0.5707 -0.5436  2.2852
 2854TIP3    H230198   5.328   4.931   0.237  0.7903 -0.4231 -1.4731
 2855TIP3   OH230199   0.448   2.201   3.244  0.1615  0.2499  0.1838
 2855TIP3    H130200   0.471   2.109   3.259  2.6591  0.6990 -0.5118
 2855TIP3    H230201   0.457   2.243   3.330  1.6311  0.3294  0.0047
 2856TIP3   OH230202   3.407   1.472   1.459  0.2892  0.3935  0.3859
 2856TIP3    H130203   3.360   1.555   1.454 -1.2840 -0.4734  0.2843
 2856TIP3    H230204   3.437   1.456   1.369 -1.3575 -0.2144 -0.0886
 2857TIP3   OH230205   1.009   5.281   4.719 -0.7570 -0.5493  0.0234
 2857TIP3    H130206   1.070   5.214   4.688 -0.3548 -0.7350  1.1741
 2857TIP3    H230207   1.023   5.285   4.813 -1.0450  0.8918  0.0365
 2858TIP3   OH230208   4.157   3.086   5.378  0.7161 -0.7410 -0.5789
 2858TIP3    H130209   4.154   2.999   5.337  0.0162  0.2478 -2.7742
 2858TIP3    H230210   4.232   3.129   5.337  1.5630 -0.5515  1.0956
 2859TIP3   OH230211   6.156   1.649   2.885  0.0848  0.1549 -0.0190
 2859TIP3    H130212   6.086   1.666   2.821 -0.0892 -0.4925 -0.0051
 2859TIP3    H230213   6.162   1.553   2.889 -0.4865  0.1695  1.5742
 2860TIP3   OH230214   2.672   0.542   4.169 -0.1254  1.0198 -0.1744
 2860TIP3    H130215   2.703   0.467   4.219 -2.2525 -0.5782 -1.0832
 2860TIP3    H230216   2.670   0.614   4.232  0.7642  0.0296  1.0416
 2861TIP3   OH230217   3.775   4.682   4.280  0.2595 -0.2735 -0.2695
 2861TIP3    H130218   3.707   4.645   4.224  0.1234 -2.2929  1.1244
 2861TIP3    H230219   3.781   4.622   4.354  0.8329  1.9611  1.6225
 2862TIP3   OH230220   5.998   0.246   1.930 -0.1674 -0.3077 -0.1167
 2862TIP3    H130221   6.076   0.236   1.986  1.0308  1.0545 -1.4390
 2862TIP3    H230222   5.953   0.322   1.967 -0.3535 -0.5167  0.0842
 2863TIP3   OH230223   3.946   3.963   4.017  0.1930 -0.6060 -0.1025
 2863TIP3    H130224   4.037   3.944   4.038  0.5961  1.2698  0.0060
 2863TIP3    H230225   3.914   4.015   4.091 -0.7226 -0.5591 -0.5137
 2864TIP3   OH230226   3.446   2.595   5.016 -0.1000  0.1923  0.6155
 2864TIP3    H130227   3.490   2.643   4.945 -2.1741  4.0003  1.6214
 2864TIP3    H230228   3.369   2.556   4.974 -0.1034  0.4784  0.3506
 2865TIP3   OH230229   3.041   4.459   2.695 -0.7551 -0.4459  0.2793
 2865TIP3    H130230   3.094   4.468   2.773 -1.5636  3.8722  0.5759
 2865TIP3    H230231   3.104   4.453   2.623  0.0906  0.6572  0.9100
 2866TIP3   OH230232   2.266   2.262   2.024  0.0591 -0.1584 -0.6940
 2866TIP3    H130233   2.359   2.238   2.016  0.3071  0.5187  0.0952
 2866TIP3    H230234   2.265   2.336   2.084 -0.5270  2.7215 -3.9112
 2867TIP3   OH230235   6.580   4.564   5.780 -0.6204  0.3022  0.4536
 2867TIP3    H130236   6.564   4.497   5.715 -0.3538  0.2738  0.4155
 2867TIP3    H230237   6.636   4.522   5.845 -0.6401  0.4188  0.5477
 2868TIP3   OH230238   0.555   1.926   2.570  0.2979 -0.3625  0.2296
 2868TIP3    H130239   0.591   2.002   2.524  0.5224 -0.1746  0.7104
 2868TIP3    H230240   0.460   1.942   2.571  0.4711  0.8629  1.9606
 2869TIP3   OH230241   0.641   3.443   4.513 -0.4016 -0.2510  0.9084
 2869TIP3    H130242   0.654   3.475   4.602  2.1258 -0.3715  0.6570
 2869TIP3    H230243   0.627   3.522   4.461 -1.7935 -0.1741  1.3420
 2870TIP3   OH230244   1.104   3.918   3.849 -0.7948 -0.3475 -0.2601
 2870TIP3    H130245   1.119   3.978   3.776 -0.0377 -0.0684  0.1077
 2870TIP3    H230246   1.134   3.967   3.926  1.4942 -1.7847 -0.1301
 2871TIP3   OH230247   3.858   0.529   1.941  0.0765 -0.1944  0.7282
 2871TIP3    H130248   3.827   0.560   2.026 -0.1962  1.9829 -0.1223
 2871TIP3    H230249   3.897   0.605   1.900 -0.4508 -1.0047 -1.4119
 2872TIP3   OH230250   3.852   4.241   3.363  0.2757  0.4529  0.6294
 2872TIP3    H130251   3.837   4.336   3.367 -3.0502  0.1077 -0.7308
 2872TIP3    H230252   3.802   4.206   3.437  2.0316 -0.2588  1.5270
 2873TIP3   OH230253   0.634   3.434   1.557  0.4775  0.0175 -0.0252
 2873TIP3    H130254   0.599   3.389   1.634  0.9265 -2.9062 -1.3986
 2873TIP3    H230255   0.729   3.420   1.562  0.7873  1.8971  0.0730
 2874TIP3   OH230256   3.400   2.746   0.785  0.1708  0.4019  0.3929
 2874TIP3    H130257   3.426   2.741   0.877 -0.4960  0.4193  0.5920
 2874TIP3    H230258   3.409   2.657   0.752  0.1120  0.3338  0.5605
 2875TIP3   OH230259   4.451   4.539   2.119 -0.3047 -0.4479  0.0141
 2875TIP3    H130260   4.420   4.625   2.146 -1.8287 -1.0535  0.3190
 2875TIP3    H230261   4.429   4.481   2.192  0.5887 -1.1316 -0.2301
 2876TIP3   OH230262   6.243   4.319   1.568 -0.1564  0.4483  0.3530
 2876TIP3    H130263   6.152   4.317   1.597 -0.0283  2.8052  1.1785
 2876TIP3    H230264   6.278   4.400   1.605  1.9843  0.1543 -0.8472
 2877TIP3   OH230265   2.709   4.823   3.868  0.0584  0.4366  0.5654
 2877TIP3    H130266   2.800   4.835   3.839 -0.4544  1.5803 -0.6844
 2877TIP3    H230267   2.711   4.848   3.960  0.8186  1.6246  0.2583
 2878TIP3   OH230268   2.370   2.432   5.151 -0.0442 -0.0168  0.2568
 2878TIP3    H130269   2.465   2.432   5.144  0.2548  1.9618  2.9468
 2878TIP3    H230270   2.348   2.345   5.184  1.0096  0.0155  1.0816
 2879TIP3   OH230271   4.025   3.858   0.612  0.1914 -0.6287 -0.1793
 2879TIP3    H130272   4.006   3.933   0.556  2.0904 -0.7992 -1.1400
 2879TIP3    H230273   4.089   3.890   0.675 -0.7819 -0.8488  0.9586
 2880TIP3   OH230274   4.017   6.497   1.061 -0.1899  0.1340  0.3273
 2880TIP3    H130275   3.967   6.561   1.112 -1.6222 -0.9820  0.4057
 2880TIP3    H230276   3.957   6.422   1.052  1.1355 -0.8777 -0.4295
 2881TIP3   OH230277   5.446   5.738   4.618  0.1579 -0.9512  0.1825
 2881TIP3    H130278   5.535   5.717   4.590  0.1521 -1.6117  0.6249
 2881TIP3    H230279   5.427   5.673   4.686 -0.4448 -0.4445  0.5027
 2882TIP3   OH230280   2.164   2.112   1.022 -0.4030 -0.2556 -0.7337
 2882TIP3    H130281   2.147   2.064   0.942  0.2854  0.9650 -1.6403
 2882TIP3    H230282   2.197   2.045   1.083 -0.6043 -1.1361 -1.5644
 2883TIP3   OH230283   6.012   3.606   1.510  0.3314 -0.2975  0.3005
 2883TIP3    H130284   5.950   3.538   1.535 -0.9160  1.4027  2.1116
 2883TIP3    H230285   5.958   3.680   1.484  1.5482  1.0720  1.4743
 2884TIP3   OH230286   3.983   0.994   4.024 -0.0709 -0.0196 -0.2055
 2884TIP3    H130287   4.016   1.021   4.110  1.4211 -0.9893 -0.4381
 2884TIP3    H230288   3.899   0.952   4.043  1.3710 -2.5076  1.1610
 2885TIP3   OH230289   6.278   0.845   2.203  0.2070  0.7128 -0.1610
 2885TIP3    H130290   6.327   0.769   2.236  1.2426  0.8003 -1.4089
 2885TIP3    H230291   6.214   0.864   2.272  1.7377  0.4138  1.4094
 2886TIP3   OH230292   1.806   0.281   1.347 -0.3319 -1.0003 -0.6944
 2886TIP3    H130293   1.901   0.277   1.348 -0.3330 -1.1004 -0.9659
 2886TIP3    H230294   1.777   0.191   1.359 -0.3842 -1.1044 -1.5598
 2887TIP3   OH230295   3.759   0.735   1.587 -0.0564  0.2173 -0.3276
 2887TIP3    H130296   3.756   0.710   1.495 -1.5581 -0.2288 -0.1808
 2887TIP3    H230297   3.672   0.713   1.621  0.5059  0.2575  1.2274
 2888TIP3   OH230298   6.351   2.991   2.905  0.6606  0.0015 -0.3879
 2888TIP3    H130299   6.266   2.947   2.898  0.5348  0.2321 -0.3232
 2888TIP3    H230300   6.360   3.014   2.997  1.2279 -0.8737 -0.2168
 2889TIP3   OH230301   2.359   6.573   2.840  0.2492  0.6607  0.2269
 2889TIP3    H130302   2.266   6.596   2.842  0.4372  1.3776  0.8465
 2889TIP3    H230303   2.370   6.513   2.914 -0.1350 -1.1024 -1.0819
 2890TIP3   OH230304   2.551   3.800   0.860 -0.1607  0.2876  0.0483
 2890TIP3    H130305   2.510   3.880   0.828  0.6415 -0.1188 -2.2254
 2890TIP3    H230306   2.635   3.797   0.815  0.7212 -0.8068  1.6828
 2891TIP3   OH230307   3.918   2.650   3.109  0.4283 -0.0687 -0.0383
 2891TIP3    H130308   3.993   2.710   3.108  0.9043 -0.6498  0.0525
 2891TIP3    H230309   3.896   2.642   3.202  1.7747 -1.7288  0.1891
 2892TIP3   OH230310   3.638   0.481   1.744 -0.2395  0.2314 -0.4416
 2892TIP3    H130311   3.557   0.509   1.788 -0.1446  1.4122 -0.9873
 2892TIP3    H230312   3.706   0.494   1.810 -0.1286  1.7957 -0.8182
 2893TIP3   OH230313   0.358   2.120   3.904  0.0834 -0.4224 -0.1743
 2893TIP3    H130314   0.378   2.059   3.975  0.3927 -0.7066 -0.5014
 2893TIP3    H230315   0.323   2.198   3.948  1.4634 -0.0889  0.3742
 2894TIP3   OH230316   6.726   2.990   1.167  0.4615  0.4251 -0.5985
 2894TIP3    H130317   6.756   2.985   1.076  0.1528  2.7825 -0.8849
 2894TIP3    H230318   6.772   3.065   1.204 -0.7995  0.6402  0.6410
 2895TIP3   OH230319   3.574   1.596   5.282 -0.0330  0.1140  0.4279
 2895TIP3    H130320   3.555   1.689   5.294  0.7970  0.2591  0.6850
 2895TIP3    H230321   3.638   1.576   5.350  0.5416 -0.4076 -0.2576
 2896TIP3   OH230322   5.028   0.039   4.739 -0.1829 -0.1719  0.0339
 2896TIP3    H130323   5.108   0.016   4.785  0.3854  0.5561 -0.5651
 2896TIP3    H230324   5.006   0.127   4.772 -2.1799 -1.3306  2.1167
 2897TIP3   OH230325   5.300   2.406   2.013  0.0678  0.4842 -0.1578
 2897TIP3    H130326   5.289   2.334   2.075  3.9619  1.1638  1.6377
 2897TIP3    H230327   5.379   2.382   1.963 -1.0604  1.5541 -2.6059
 2898TIP3   OH230328   6.746   1.030   4.630 -0.4230  0.0468  0.3602
 2898TIP3    H130329   6.652   1.015   4.620 -0.5868  0.6470  0.9050
 2898TIP3    H230330   6.760   1.033   4.725 -0.2425  2.0920  0.3248
 2899TIP3   OH230331   0.350   5.553   3.541 -0.3693  0.1078  0.0144
 2899TIP3    H130332   0.290   5.626   3.558  0.8182  0.5898  2.6702
 2899TIP3    H230333   0.400   5.579   3.465 -0.8351  1.4882  0.1609
 2900TIP3   OH230334   5.756   1.060   4.046 -0.3820  0.3441  0.6232
 2900TIP3    H130335   5.690   1.082   3.979 -1.5007  0.3908  1.7011
 2900TIP3    H230336   5.835   1.040   3.996 -1.0267  0.9235 -0.6880
 2901TIP3   OH230337   4.763   4.020   2.821 -0.4748 -0.3985  0.2041
 2901TIP3    H130338   4.669   4.027   2.803 -0.2426  0.2347 -0.8718
 2901TIP3    H230339   4.769   3.952   2.888 -1.9474  1.7261  2.6949
 2902TIP3   OH230340   5.620   4.837   4.152  0.6326 -0.4054 -0.3350
 2902TIP3    H130341   5.643   4.902   4.086  0.6883  0.3388  0.3998
 2902TIP3    H230342   5.578   4.766   4.103  1.5174 -0.2970 -1.2834
 2903TIP3   OH230343   6.592   3.398   5.140  0.2198 -0.0080 -0.7915
 2903TIP3    H130344   6.667   3.367   5.191  0.1706  0.7248 -0.2571
 2903TIP3    H230345   6.556   3.470   5.192 -0.5217  0.0080 -1.3139
 2904TIP3   OH230346   0.738   4.972   1.015 -0.7924 -0.2633  0.2268
 2904TIP3    H130347   0.797   5.024   0.960 -0.6508 -2.0150 -1.3759
 2904TIP3    H230348   0.699   5.036   1.075  2.6340  1.0328  1.3773
 2905TIP3   OH230349   4.888   3.921   4.492 -0.3481 -0.5415 -0.1844
 2905TIP3    H130350   4.945   3.992   4.519 -0.5035  0.1365 -1.5587
 2905TIP3    H230351   4.920   3.896   4.406 -1.2124 -1.1389 -0.3469
 2906TIP3   OH230352   4.465   2.506   0.772  0.1835  0.1908 -0.3532
 2906TIP3    H130353   4.375   2.538   0.780 -0.1918 -0.7266 -0.8559
 2906TIP3    H230354   4.477   2.449   0.848  0.6735  1.0505  0.2394
 2907TIP3   OH230355   1.897   4.648   0.822  0.0798 -0.1279  0.0567
 2907TIP3    H130356   1.991   4.653   0.805  0.6664 -1.6655  2.4022
 2907TIP3    H230357   1.886   4.569   0.875 -2.1227  1.5164  2.2891
 2908TIP3   OH230358   2.037   6.369   4.304 -0.0026  0.0160 -0.1142
 2908TIP3    H130359   2.090   6.438   4.343  1.0081 -0.4719 -0.5992
 2908TIP3    H230360   2.013   6.403   4.218 -0.0565  0.0257 -0.0956
 2909TIP3   OH230361   2.934   2.999   3.488 -0.4985  0.0202 -0.1999
 2909TIP3    H130362   2.956   2.978   3.579  0.4632  1.8700  0.0404
 2909TIP3    H230363   2.838   2.992   3.484 -0.4004 -2.3098  0.3171
 2910TIP3   OH230364   1.781   6.386   1.540 -0.3904 -0.2627 -0.1256
 2910TIP3    H130365   1.761   6.305   1.588  0.5082  0.1219  0.9413
 2910TIP3    H230366   1.721   6.384   1.465 -0.4467 -1.8735 -0.0867
 2911TIP3   OH230367   3.056   2.299   1.117 -0.0929  0.0740 -0.1520
 2911TIP3    H130368   2.999   2.370   1.086  0.8833  2.0324  2.1672
 2911TIP3    H230369   3.131   2.301   1.059 -0.4171  0.4392 -0.5660
 2912TIP3   OH230370   5.951   0.777   2.507  0.1134  0.4823 -0.1240
 2912TIP3    H130371   5.862   0.787   2.539  0.0491 -1.8529  0.6286
 2912TIP3    H230372   5.941   0.760   2.413 -0.0920  1.8304 -0.3596
 2913TIP3   OH230373   0.446   5.170   2.431 -0.1925  0.6438 -0.4689
 2913TIP3    H130374   0.523   5.125   2.397  0.6962  0.9834  1.0033
 2913TIP3    H230375   0.390   5.100   2.464  1.6251  0.4961  2.7292
 2914TIP3   OH230376   2.799   3.652   1.928 -0.1913 -0.2424 -0.4318
 2914TIP3    H130377   2.843   3.596   1.992  0.6226  0.3697 -0.4452
 2914TIP3    H230378   2.751   3.591   1.872 -0.7188 -0.8019  0.5951
 2915TIP3   OH230379   1.797   2.836   1.765  1.0334 -0.7671  0.1476
 2915TIP3    H130380   1.798   2.741   1.754 -1.5388 -0.7773 -0.6564
 2915TIP3    H230381   1.880   2.856   1.809  2.4707 -3.1486 -1.2309
 2916TIP3   OH230382   4.377   1.152   4.810 -0.0054  0.7176 -0.1446
 2916TIP3    H130383   4.364   1.064   4.775 -1.0872  0.3804  1.0459
 2916TIP3    H230384   4.425   1.138   4.892 -1.0197  1.1420  0.5373
 2917TIP3   OH230385   5.587   5.549   2.603 -0.9501 -0.1506  0.5648
 2917TIP3    H130386   5.637   5.563   2.523  0.3950  1.5500  1.6468
 2917TIP3    H230387   5.555   5.635   2.628 -0.3675 -0.4278  2.4634
 2918TIP3   OH230388   5.109   0.455   4.787  0.7314 -0.3941  0.5071
 2918TIP3    H130389   5.122   0.392   4.858 -0.4482 -1.1820  0.0488
 2918TIP3    H230390   5.052   0.409   4.725  2.3951 -0.0529 -1.3678
 2919TIP3   OH230391   6.057   0.909   4.011 -0.2807 -0.6456  0.1057
 2919TIP3    H130392   6.147   0.878   4.002 -0.3085 -0.5203 -0.6210
 2919TIP3    H230393   6.065   1.003   4.021 -0.3337 -0.6279 -0.0174
 2920TIP3   OH230394   4.821   3.133   1.301 -0.5738  0.0025  0.0155
 2920TIP3    H130395   4.904   3.125   1.253 -0.4534 -0.1672  0.2449
 2920TIP3    H230396   4.754   3.105   1.239 -0.3574 -0.8105  0.1401
 2921TIP3   OH230397   3.007   5.820   3.791 -0.3274  0.1548  0.1136
 2921TIP3    H130398   3.044   5.906   3.773 -0.7576  0.3276  0.0405
 2921TIP3    H230399   3.006   5.814   3.886  0.4880 -0.1154  0.1055
 2922TIP3   OH230400   4.839   1.353   5.707 -0.2400  0.2652 -0.2617
 2922TIP3    H130401   4.928   1.365   5.675 -0.5926  2.1982 -0.6473
 2922TIP3    H230402   4.849   1.300   5.787  1.3821  1.4389  0.3666
 2923TIP3   OH230403   5.253   3.431   3.276  0.4312  0.0320 -0.4685
 2923TIP3    H130404   5.159   3.412   3.276  0.2074  0.9946  0.8728
 2923TIP3    H230405   5.259   3.521   3.308  1.8838 -0.5300  0.9752
 2924TIP3   OH230406   2.394   2.938   1.626  0.9087 -0.1286 -0.0979
 2924TIP3    H130407   2.326   2.878   1.594 -0.5311  2.6342 -2.6874
 2924TIP3    H230408   2.370   2.954   1.718 -0.6134 -0.9474 -0.3088
 2925TIP3   OH230409   3.630   3.608   3.333 -0.4031 -0.6209 -0.2102
 2925TIP3    H130410   3.613   3.684   3.390  2.0755 -0.2170  0.0664
 2925TIP3    H230411   3.613   3.533   3.390 -3.4538 -0.4043 -0.6466
 2926TIP3   OH230412   4.102   4.758   3.042  0.2920 -0.2409  0.2909
 2926TIP3    H130413   4.152   4.771   3.122  1.6190  0.1289 -0.5531
 2926TIP3    H230414   4.092   4.846   3.006  0.5816 -0.4935 -0.4320
 2927TIP3   OH230415   0.602   2.685   3.037 -0.3886  0.7983  0.3333
 2927TIP3    H130416   0.548   2.696   3.116  2.4404  1.4357  2.3497
 2927TIP3    H230417   0.608   2.590   3.026 -1.0983  0.7091  0.6761
 2928TIP3   OH230418   4.433   1.317   5.087 -0.1253 -0.1093 -0.4289
 2928TIP3    H130419   4.483   1.390   5.050 -0.8204 -0.3229 -1.8562
 2928TIP3    H230420   4.498   1.247   5.097  0.1142  0.0196 -1.0610
 2929TIP3   OH230421   4.687   1.012   2.863 -0.0252  0.3864 -0.1766
 2929TIP3    H130422   4.687   1.002   2.768  1.4552 -1.6870 -0.0463
 2929TIP3    H230423   4.663   0.925   2.896  1.4275  0.5119  1.3426
 2930TIP3   OH230424   1.630   3.849   0.599 -0.3215  0.2939 -0.2410
 2930TIP3    H130425   1.711   3.807   0.569 -1.0987 -1.5244  0.1039
 2930TIP3    H230426   1.591   3.886   0.520 -0.3657 -0.9908 -0.8466
 2931TIP3   OH230427   1.947   3.651   1.866 -0.1016  0.0874 -0.4804
 2931TIP3    H130428   1.871   3.618   1.818 -0.8056  2.2058 -0.9393
 2931TIP3    H230429   1.916   3.660   1.956  0.1119 -0.5560 -0.3412
 2932TIP3   OH230430   5.533   3.938   3.147  0.1792 -0.4615 -0.1859
 2932TIP3    H130431   5.570   3.857   3.113 -0.6525 -1.4158  1.1054
 2932TIP3    H230432   5.532   3.997   3.071  0.8897 -1.6036 -1.1273
 2933TIP3   OH230433   1.521   4.341   4.252 -0.7726  0.2105  0.2289
 2933TIP3    H130434   1.478   4.421   4.223 -0.9959  0.3654  0.9794
 2933TIP3    H230435   1.613   4.366   4.260 -1.1197  1.0144  2.4939
 2934TIP3   OH230436   3.119   4.512   4.743 -0.3642 -0.2625 -0.2879
 2934TIP3    H130437   3.124   4.469   4.657 -2.3750 -1.0344 -0.0766
 2934TIP3    H230438   3.055   4.460   4.792 -0.0112  0.7677  1.3354
 2935TIP3   OH230439   6.606   3.676   3.793  0.3737 -0.6308 -0.5751
 2935TIP3    H130440   6.659   3.655   3.871 -0.6630 -2.0155 -0.1929
 2935TIP3    H230441   6.548   3.746   3.821  0.2767 -0.8516 -0.2220
 2936TIP3   OH230442   0.142   6.653   3.122 -0.0461  0.3087  0.3242
 2936TIP3    H130443   0.115   6.624   3.035 -0.2386  0.9807  0.1520
 2936TIP3    H230444   0.068   6.706   3.153 -0.7150 -1.2693  1.5856
 2937TIP3   OH230445   1.364   4.986   3.606  0.0446 -0.3279  0.0459
 2937TIP3    H130446   1.427   5.054   3.626  1.5024 -2.1399  2.0854
 2937TIP3    H230447   1.279   5.027   3.617  0.8409  1.5989 -0.5980
 2938TIP3   OH230448   0.760   1.095   3.083  0.5224  0.1210 -0.0992
 2938TIP3    H130449   0.695   1.123   3.019  0.5277 -0.3949 -0.3373
 2938TIP3    H230450   0.759   0.999   3.078 -0.5601 -0.0175  1.7504
 2939TIP3   OH230451   3.894   1.283   5.160  0.1782 -0.1812  0.7107
 2939TIP3    H130452   3.823   1.221   5.141  0.3211 -0.0695 -0.2545
 2939TIP3    H230453   3.933   1.251   5.241 -0.8825 -0.3235  1.1713
 2940TIP3   OH230454   5.909   5.697   1.820  0.5835  0.0642  0.1799
 2940TIP3    H130455   5.912   5.742   1.735  0.4168 -2.2506 -1.1197
 2940TIP3    H230456   6.000   5.696   1.849  0.7992 -0.0153 -0.4757
 2941TIP3   OH230457   0.510   4.930   4.215 -0.7320 -0.1235  0.2413
 2941TIP3    H130458   0.475   5.019   4.215 -1.3488 -0.3592  0.0702
 2941TIP3    H230459   0.554   4.922   4.300  2.5276  1.5454 -1.1193
 2942TIP3   OH230460   6.267   4.163   3.828  0.1481  0.4383 -0.1460
 2942TIP3    H130461   6.250   4.246   3.872 -0.9461  0.5857 -0.7974
 2942TIP3    H230462   6.221   4.098   3.882 -1.0324  0.5943 -0.9203
 2943TIP3   OH230463   0.151   3.427   3.139  0.3569  0.1110 -0.0337
 2943TIP3    H130464   0.068   3.388   3.112  1.3089 -2.2133  0.2319
 2943TIP3    H230465   0.213   3.403   3.071  0.9218  1.6212 -0.1011
 2944TIP3   OH230466   1.690   3.262   4.469  0.2449  0.2593  0.2514
 2944TIP3    H130467   1.645   3.340   4.502  0.5211  0.9935 -1.0685
 2944TIP3    H230468   1.622   3.195   4.467  0.3407 -0.0135  2.8566
 2945TIP3   OH230469   4.423   2.524   2.331  0.7490 -0.4816 -0.0475
 2945TIP3    H130470   4.366   2.557   2.262  0.4509  0.2757  0.5448
 2945TIP3    H230471   4.464   2.447   2.294  0.3861 -0.2362 -0.9738
 2946TIP3   OH230472   1.208   6.458   3.770 -0.1460 -0.3504 -0.3732
 2946TIP3    H130473   1.187   6.408   3.692  1.0592  0.2276 -1.0989
 2946TIP3    H230474   1.298   6.488   3.756  0.1492 -0.3357  1.2884
 2947TIP3   OH230475   0.808   4.318   2.308 -0.1795  0.3907 -0.7482
 2947TIP3    H130476   0.745   4.251   2.337  1.5453 -0.9855  0.0525
 2947TIP3    H230477   0.855   4.342   2.388 -0.3191  2.1071 -1.1568
 2948TIP3   OH230478   1.810   6.173   0.742  0.1766  0.1433 -0.2756
 2948TIP3    H130479   1.755   6.132   0.808 -1.1362 -0.7203 -1.8376
 2948TIP3    H230480   1.844   6.100   0.690 -0.9352  0.8819 -2.1516
 2949TIP3   OH230481   0.951   0.345   5.144  0.2174  0.1454 -0.1328
 2949TIP3    H130482   0.986   0.433   5.126 -0.7895  0.8659  1.1988
 2949TIP3    H230483   0.861   0.349   5.112  0.2041 -0.4421 -0.1648
 2950TIP3   OH230484   6.537   1.389   3.797 -0.1108  0.2958  0.1372
 2950TIP3    H130485   6.485   1.310   3.810  1.9734 -1.0822  0.4878
 2950TIP3    H230486   6.512   1.419   3.710  0.2268 -1.6961 -0.6994
 2951TIP3   OH230487   4.763   0.507   3.695 -0.8424  0.0136 -0.9319
 2951TIP3    H130488   4.711   0.429   3.678 -0.4284 -0.4544 -0.1376
 2951TIP3    H230489   4.785   0.501   3.788 -0.8008  1.0743 -0.8618
 2952TIP3   OH230490   1.671   3.757   3.406 -0.6021  0.5426 -0.0622
 2952TIP3    H130491   1.649   3.664   3.396  2.2580 -0.2603  0.3095
 2952TIP3    H230492   1.720   3.778   3.327  1.6016  0.7729  1.2927
 2953TIP3   OH230493   5.387   3.099   4.314 -0.2258 -0.0997  0.2902
 2953TIP3    H130494   5.438   3.051   4.379 -1.3576 -1.9770 -0.1005
 2953TIP3    H230495   5.425   3.072   4.230  0.3953  1.2846  0.1109
 2954TIP3   OH230496   5.122   1.852   4.680  0.1109 -0.2722 -0.2425
 2954TIP3    H130497   5.059   1.791   4.720  0.5601 -1.2898 -1.0304
 2954TIP3    H230498   5.163   1.801   4.610 -0.6681  1.4623 -2.0391
 2955TIP3   OH230499   4.696   5.010   2.495  0.0102 -0.3067  0.0190
 2955TIP3    H130500   4.708   5.090   2.545 -0.4931 -1.1941  1.6368
 2955TIP3    H230501   4.611   5.021   2.452  0.8864  0.8746 -1.5423
 2956TIP3   OH230502   1.489   6.432   0.980  0.2373  0.3740 -0.3316
 2956TIP3    H130503   1.574   6.475   0.986  0.3378  0.0577  0.7905
 2956TIP3    H230504   1.439   6.486   0.919  1.4017  0.2801 -1.3995
 2957TIP3   OH230505   5.458   1.272   3.269 -0.2772 -0.3144 -0.1272
 2957TIP3    H130506   5.448   1.236   3.181 -0.2274 -0.7910  0.0611
 2957TIP3    H230507   5.395   1.224   3.323 -0.2496 -0.0835  0.1150
 2958TIP3   OH230508   1.430   2.728   1.858  0.1389  0.2562  0.0447
 2958TIP3    H130509   1.485   2.799   1.824  0.6594 -0.0133  0.3132
 2958TIP3    H230510   1.489   2.674   1.910  0.2786 -1.6045 -1.9121
 2959TIP3   OH230511   6.177   6.309   1.888  0.3796 -0.1482  0.2590
 2959TIP3    H130512   6.252   6.253   1.871 -0.5651 -1.1002 -1.0173
 2959TIP3    H230513   6.139   6.325   1.801 -0.9466  0.2330  0.8759
 2960TIP3   OH230514   5.203   3.399   2.297 -0.7734 -0.0353  0.1922
 2960TIP3    H130515   5.124   3.452   2.291 -1.4489 -1.0709 -0.2220
 2960TIP3    H230516   5.172   3.309   2.306  0.3417 -0.3289  1.5834
 2961TIP3   OH230517   5.528   5.609   3.133  0.4074 -0.3803  0.1599
 2961TIP3    H130518   5.488   5.551   3.068  0.7160 -0.2009 -0.1897
 2961TIP3    H230519   5.616   5.625   3.100  0.9886 -1.2598  1.2402
 2962TIP3   OH230520   2.083   0.492   2.712  0.4338  0.6940 -0.1958
 2962TIP3    H130521   2.141   0.506   2.787 -1.0487  0.4331  1.0427
 2962TIP3    H230522   2.046   0.405   2.725 -0.0151  0.7306 -1.1142
 2963TIP3   OH230523   0.628   4.714   3.010  0.1120 -0.1154 -0.2127
 2963TIP3    H130524   0.597   4.749   2.927  0.7794  2.6864  0.5935
 2963TIP3    H230525   0.714   4.676   2.990 -0.7320 -1.5856 -1.1794
 2964TIP3   OH230526   0.293   1.464   4.664 -0.3464 -0.5198  0.3063
 2964TIP3    H130527   0.204   1.436   4.641 -0.3242 -0.4373  0.1166
 2964TIP3    H230528   0.302   1.443   4.757 -0.5349 -0.6061  0.3053
 2965TIP3   OH230529   2.708   6.306   4.420  0.1585 -0.3533 -0.0239
 2965TIP3    H130530   2.617   6.286   4.443  0.0450  1.6405  1.5626
 2965TIP3    H230531   2.703   6.357   4.339 -0.1509 -0.2679  0.0489
 2966TIP3   OH230532   6.546   5.766   1.328 -0.2920 -1.0501  0.3238
 2966TIP3    H130533   6.457   5.731   1.322 -0.3750 -0.9606  0.9803
 2966TIP3    H230534   6.598   5.694   1.362 -0.7804 -0.1083  3.3930
 2967TIP3   OH230535   6.703   3.800   0.733  0.1046 -0.6689 -0.7458
 2967TIP3    H130536   6.767   3.751   0.681 -0.2453 -0.6335 -1.2110
 2967TIP3    H230537   6.635   3.737   0.754  0.2280 -0.6748 -0.3521
 2968TIP3   OH230538   6.190   0.782   5.136  0.1078  0.5755 -0.4275
 2968TIP3    H130539   6.222   0.867   5.107 -1.7702  1.9498  1.2292
 2968TIP3    H230540   6.121   0.760   5.073  0.5639  0.2743 -0.8306
 2969TIP3   OH230541   3.578   4.002   2.233 -0.7520 -0.0143  0.5113
 2969TIP3    H130542   3.658   3.986   2.284  0.9587  0.9684 -1.6783
 2969TIP3    H230543   3.564   3.920   2.184 -0.7686 -0.0066  0.5032
 2970TIP3   OH230544   4.988   1.664   4.786  0.2428  0.1135  0.0275
 2970TIP3    H130545   4.910   1.609   4.789  0.4743 -0.2121  0.2206
 2970TIP3    H230546   5.060   1.602   4.772  0.5746  0.3033  0.8821
 2971TIP3   OH230547   5.329   2.478   5.535 -0.8040 -0.1716  0.5828
 2971TIP3    H130548   5.367   2.480   5.447  0.8296  0.1595  1.2554
 2971TIP3    H230549   5.342   2.566   5.570  2.7468 -1.3343  2.7482
 2972TIP3   OH230550   4.773   0.483   2.855 -0.4919  0.4605 -0.2899
 2972TIP3    H130551   4.815   0.548   2.912  1.9373  0.1100 -1.5368
 2972TIP3    H230552   4.742   0.415   2.914 -1.3694  1.8045  0.8723
 2973TIP3   OH230553   3.394   0.863   1.259  0.7984 -0.0857 -0.2487
 2973TIP3    H130554   3.324   0.920   1.228  0.8349 -0.3701 -0.8686
 2973TIP3    H230555   3.355   0.776   1.263  1.2310 -0.3334 -1.0610
 2974TIP3   OH230556   3.873   0.952   2.416 -0.0565 -0.0528  0.1570
 2974TIP3    H130557   3.965   0.932   2.396 -0.3578 -0.2210 -1.1185
 2974TIP3    H230558   3.826   0.936   2.334 -0.9083  2.1408  0.1367
 2975TIP3   OH230559   5.945   3.547   2.393 -0.1720 -0.0058  0.5133
 2975TIP3    H130560   5.997   3.553   2.473 -0.7507  1.1991  0.8309
 2975TIP3    H230561   6.002   3.582   2.324 -1.0857  3.1194  1.1668
 2976TIP3   OH230562   5.304   2.880   2.718  0.4253 -0.0929 -0.2814
 2976TIP3    H130563   5.239   2.875   2.788  2.0159  2.0904  1.4963
 2976TIP3    H230564   5.373   2.819   2.745  2.1132  2.3639  1.4424
 2977TIP3   OH230565   6.675   5.254   3.490 -0.0705  0.0310 -0.5632
 2977TIP3    H130566   6.726   5.319   3.443  1.0625 -0.9140 -0.6931
 2977TIP3    H230567   6.736   5.216   3.553 -1.2584  0.5109  0.9473
 2978TIP3   OH230568   2.590   3.780   4.149  0.3705  0.5007  0.0844
 2978TIP3    H130569   2.616   3.866   4.184 -1.6757  0.7289  1.2574
 2978TIP3    H230570   2.504   3.796   4.110  0.9333 -0.5977 -1.6797
 2979TIP3   OH230571   5.859   2.506   2.044 -0.7185 -0.6608 -0.5361
 2979TIP3    H130572   5.833   2.574   2.105  1.8117 -0.1117  0.0656
 2979TIP3    H230573   5.922   2.453   2.093  1.0990 -0.4334 -2.4777
 2980TIP3   OH230574   4.436   1.222   3.311 -0.0276 -0.3074  0.3138
 2980TIP3    H130575   4.418   1.284   3.240 -1.0444 -0.7877  0.1445
 2980TIP3    H230576   4.351   1.188   3.336  0.2016  0.5195  2.4178
 2981TIP3   OH230577   1.421   4.687   2.122 -0.0383  0.1628  0.0785
 2981TIP3    H130578   1.438   4.611   2.176 -0.2218  0.4798  0.5894
 2981TIP3    H230579   1.477   4.675   2.045 -1.5486 -1.4866 -0.8212
 2982TIP3   OH230580   0.127   5.230   1.062 -0.4308  0.5660  0.2710
 2982TIP3    H130581   0.181   5.169   1.012 -0.8944  1.0467 -0.8434
 2982TIP3    H230582   0.069   5.174   1.113  1.3306  0.0260  1.7857
 2983TIP3   OH230583   4.174   4.543   3.443  0.2750  0.2062  0.5256
 2983TIP3    H130584   4.095   4.591   3.416  0.5701  0.2418 -0.3001
 2983TIP3    H230585   4.206   4.590   3.519 -1.5192 -0.8690  2.0405
 2984TIP3   OH230586   0.487   0.751   3.387  0.4813  0.2366  0.3883
 2984TIP3    H130587   0.467   0.733   3.295 -0.3317  1.3090  0.3353
 2984TIP3    H230588   0.579   0.728   3.396  1.4290  2.8302 -1.4714
 2985TIP3   OH230589   0.924   3.433   3.738  0.1988 -0.4950  0.6704
 2985TIP3    H130590   0.893   3.438   3.648 -1.4653  1.2755  1.2703
 2985TIP3    H230591   0.845   3.433   3.792  1.1415 -1.7853  2.1544
 2986TIP3   OH230592   4.397   4.861   1.167 -0.2819  0.0283 -0.1055
 2986TIP3    H130593   4.449   4.879   1.089 -0.5797  2.2059  0.1327
 2986TIP3    H230594   4.435   4.916   1.235 -1.4709 -0.0752  0.6753
 2987TIP3   OH230595   1.496   6.429   3.239  0.1061 -0.1541 -0.1143
 2987TIP3    H130596   1.465   6.338   3.233 -0.9240  0.1476  0.3408
 2987TIP3    H230597   1.588   6.421   3.263  0.2091 -1.0824 -0.7445
 2988TIP3   OH230598   3.133   3.186   4.257  0.6807  0.1026  0.1604
 2988TIP3    H130599   3.192   3.261   4.257  0.8778 -0.0134  1.7300
 2988TIP3    H230600   3.046   3.223   4.267  0.7349  0.1657  0.4255
 2989TIP3   OH230601   3.768   4.049   4.604  0.2148  0.7917  0.7395
 2989TIP3    H130602   3.776   3.960   4.639  0.8571 -0.3140 -1.9010
 2989TIP3    H230603   3.725   4.036   4.519  1.6074  2.8261 -0.3479
 2990TIP3   OH230604   1.442   0.039   2.081  0.3230  0.5074 -0.1730
 2990TIP3    H130605   1.503   0.100   2.039  0.1205  0.8438  0.0191
 2990TIP3    H230606   1.492  -0.000   2.152  0.1455  1.2122  0.3513
 2991TIP3   OH230607   2.325   0.002   1.994  0.1138 -0.2606 -0.0531
 2991TIP3    H130608   2.241  -0.044   2.003 -1.1064  1.3995 -1.8711
 2991TIP3    H230609   2.364  -0.036   1.915  1.1525 -1.0344  0.7922
 2992TIP3   OH230610   2.601   2.896   2.564  0.1423 -0.1755  0.2738
 2992TIP3    H130611   2.654   2.889   2.485 -0.2664 -1.1881  0.0738
 2992TIP3    H230612   2.514   2.919   2.533 -0.0070 -0.5225  0.4253
 2993TIP3   OH230613   4.723   1.695   0.947 -0.1249 -0.0055  0.1505
 2993TIP3    H130614   4.803   1.748   0.952 -0.7596  0.8482  4.5103
 2993TIP3    H230615   4.660   1.750   0.902  1.0721  0.1618 -1.4032
 2994TIP3   OH230616   1.543   0.682   1.271 -0.2102  0.1636 -0.1166
 2994TIP3    H130617   1.504   0.595   1.277  0.9372 -0.3741 -0.0803
 2994TIP3    H230618   1.543   0.703   1.178  0.8275 -0.5307 -0.2952
 2995TIP3   OH230619   0.197   3.116   4.298  0.3449  0.6953 -0.1856
 2995TIP3    H130620   0.170   3.093   4.387 -0.9169 -2.3120 -1.2468
 2995TIP3    H230621   0.133   3.182   4.271 -0.2319  0.4811  0.5986
 2996TIP3   OH230622   1.617   4.718   0.839 -0.4206 -0.0489  0.3292
 2996TIP3    H130623   1.561   4.652   0.796 -1.1973 -1.2901  2.9994
 2996TIP3    H230624   1.706   4.686   0.825 -0.7388 -1.2193  0.8119
 2997TIP3   OH230625   1.687   0.043   3.331  0.1564 -0.4738  0.0848
 2997TIP3    H130626   1.651   0.130   3.348  1.7936  0.4800 -1.0092
 2997TIP3    H230627   1.634   0.009   3.259 -0.7077 -0.5317  0.7406
 2998TIP3   OH230628   4.135   1.575   3.529  0.1769 -0.1206  0.0504
 2998TIP3    H130629   4.135   1.667   3.552  0.9159 -0.5147  1.7876
 2998TIP3    H230630   4.213   1.563   3.475 -0.3116  0.3863 -0.7866
 2999TIP3   OH230631   6.456   2.354   2.320  0.3040  0.0894 -0.6216
 2999TIP3    H130632   6.423   2.437   2.354 -0.5778 -0.2701 -0.5943
 2999TIP3    H230633   6.527   2.330   2.381  1.5854  1.5387 -1.4638
 3000TIP3   OH230634   6.452   1.097   4.120  0.2819 -0.3324  0.1237
 3000TIP3    H130635   6.474   1.187   4.142  0.4775 -0.6696  1.4296
 3000TIP3    H230636   6.426   1.099   4.028  0.3080  1.0420  0.1371
 3001TIP3   OH230637   3.236   4.417   3.510 -0.3191 -0.4664  0.1566
 3001TIP3    H130638   3.165   4.390   3.451 -0.0399 -0.9795  0.0478
 3001TIP3    H230639   3.232   4.354   3.582 -0.6474  0.1477  0.6894
 3002TIP3   OH230640   2.845   0.914   1.554  0.8117 -0.6425 -0.4688
 3002TIP3    H130641   2.761   0.945   1.519  0.8992  0.7303  0.4886
 3002TIP3    H230642   2.870   0.979   1.619  1.1206 -2.6057  1.5062
 3003TIP3   OH230643   2.754   4.135   2.125 -0.5055  0.1092  1.0274
 3003TIP3    H130644   2.674   4.169   2.085 -0.2067  1.0164  1.1718
 3003TIP3    H230645   2.781   4.204   2.186  0.6995  0.0749  0.5567
 3004TIP3   OH230646   1.585   6.172   3.067  0.0834  0.4283 -0.6698
 3004TIP3    H130647   1.652   6.110   3.097  1.1579  1.9699  0.3226
 3004TIP3    H230648   1.505   6.145   3.112  0.2828 -0.8068 -1.0221
 3005TIP3   OH230649   1.582   2.648   1.278  0.3445  0.4671 -0.7487
 3005TIP3    H130650   1.629   2.641   1.196 -0.8598  0.6534 -1.4795
 3005TIP3    H230651   1.642   2.613   1.344  1.2300  0.0995 -1.7341
 3006TIP3   OH230652   5.549   2.959   4.140  0.0628  0.0799 -0.3728
 3006TIP3    H130653   5.473   2.938   4.086 -0.2265  2.3508 -0.9410
 3006TIP3    H230654   5.616   2.896   4.112 -1.0347 -0.7778 -1.1550
 3007TIP3   OH230655   1.501   0.831   3.374  0.3368 -0.2010 -0.0680
 3007TIP3    H130656   1.590   0.849   3.343  0.3098  0.7227  0.3785
 3007TIP3    H230657   1.489   0.888   3.449 -0.7654 -0.0606 -0.3334
 3008TIP3   OH230658   5.912   1.505   2.692  0.7721  0.5522 -0.0581
 3008TIP3    H130659   5.821   1.508   2.663  0.9612 -1.0876 -0.9203
 3008TIP3    H230660   5.938   1.597   2.700 -0.4596  1.0492 -1.3890
 3009TIP3   OH230661   1.895   5.723   3.354  0.1057  0.5350 -0.2505
 3009TIP3    H130662   1.855   5.693   3.435 -0.1835 -0.6106 -0.7980
 3009TIP3    H230663   1.894   5.818   3.361  0.8962  0.4494  1.4668
 3010TIP3   OH230664   1.757   3.457   4.188  0.3294  0.2397  0.3384
 3010TIP3    H130665   1.684   3.400   4.208  2.9385 -2.6232  2.6344
 3010TIP3    H230666   1.772   3.507   4.268 -1.4388  4.0004 -1.3794
 3011TIP3   OH230667   3.691   1.717   1.426  0.0975 -0.0713 -0.3500
 3011TIP3    H130668   3.741   1.780   1.478  0.7979 -0.8738 -0.0392
 3011TIP3    H230669   3.600   1.744   1.437  0.4770  2.0308 -1.7378
 3012TIP3   OH230670   1.823   2.584   3.595 -0.0627  0.5809 -0.2671
 3012TIP3    H130671   1.878   2.580   3.516 -0.1370 -0.4455 -0.2810
 3012TIP3    H230672   1.760   2.513   3.584  1.2607 -1.0159  1.6952
 3013TIP3   OH230673   2.952   0.984   2.598  0.4966 -0.2799 -0.3701
 3013TIP3    H130674   3.027   0.957   2.545  0.5275 -1.6287  0.3318
 3013TIP3    H230675   2.940   0.914   2.661  1.1240  1.7288  2.1553
 3014TIP3   OH230676   0.897   0.147   3.917 -0.4326  0.2325 -0.0702
 3014TIP3    H130677   0.876   0.151   4.010  1.3581  0.7691  0.3375
 3014TIP3    H230678   0.894   0.238   3.887  3.0682  0.6369  0.4718
 3015TIP3   OH230679   6.614   6.702   1.648  0.0307  0.3611 -0.4696
 3015TIP3    H130680   6.679   6.633   1.657 -0.5559 -0.2287 -0.6563
 3015TIP3    H230681   6.655   6.780   1.686  0.4046 -0.2723  0.4372
 3016TIP3   OH230682   0.754   0.293   1.902 -0.1684 -0.0908 -0.5519
 3016TIP3    H130683   0.842   0.329   1.908 -0.2577 -0.1274  2.5928
 3016TIP3    H230684   0.759   0.209   1.948 -2.4468  1.3679  2.7206
 3017TIP3   OH230685   3.654   0.735   0.455  0.1207 -0.2075 -0.6252
 3017TIP3    H130686   3.606   0.707   0.377  1.5534 -1.1361 -1.2253
 3017TIP3    H230687   3.710   0.806   0.424  0.3435 -0.2540 -0.3292
 3018TIP3   OH230688   5.546   1.697   4.846  0.1510  0.4836  0.3268
 3018TIP3    H130689   5.519   1.695   4.938 -2.2700 -0.2299 -0.3339
 3018TIP3    H230690   5.496   1.627   4.805 -2.0504  3.3931 -2.3440
 3019TIP3   OH230691   1.502   5.938   4.230 -0.2714 -0.3706 -0.1809
 3019TIP3    H130692   1.424   5.988   4.204  0.6244  0.0168 -2.2785
 3019TIP3    H230693   1.525   5.974   4.316 -2.2255 -0.3239  0.3919
 3020TIP3   OH230694   3.075   1.488   1.109  0.6213  0.0913  0.1940
 3020TIP3    H130695   3.044   1.558   1.165  0.4755 -0.1133  0.3728
 3020TIP3    H230696   3.105   1.420   1.169 -1.5309 -1.0435  0.1075
 3021TIP3   OH230697   6.205   6.447   4.299 -0.0871  0.4194 -0.2682
 3021TIP3    H130698   6.214   6.515   4.367 -2.5854  0.4100  0.1760
 3021TIP3    H230699   6.200   6.365   4.349  0.6023  0.1331 -0.6591
 3022TIP3   OH230700   0.991   2.636   2.847 -0.0028  0.0752  0.3229
 3022TIP3    H130701   1.023   2.579   2.916 -0.2669  0.8101  1.0739
 3022TIP3    H230702   1.062   2.699   2.833  0.6991 -1.0138 -1.2030
 3023TIP3   OH230703   1.317   1.477   1.800 -0.2303 -0.5460  0.4626
 3023TIP3    H130704   1.405   1.440   1.812 -0.0695 -0.9759 -1.6985
 3023TIP3    H230705   1.308   1.539   1.872  1.8126 -0.5476  0.7926
 3024TIP3   OH230706   2.043   2.599   3.753  0.2591  0.3649 -0.5835
 3024TIP3    H130707   1.957   2.598   3.712  0.2313  1.1120 -0.5501
 3024TIP3    H230708   2.077   2.687   3.737  0.8517  0.2077 -0.2488
 3025TIP3   OH230709   1.363   6.110   2.126 -0.3543 -0.1742  0.2941
 3025TIP3    H130710   1.348   6.027   2.170 -0.2901 -0.6373 -0.5367
 3025TIP3    H230711   1.365   6.088   2.033 -1.9894  0.9917 -0.0656
 3026TIP3   OH230712   2.973   1.232   4.471 -0.0007  0.1312  0.4938
 3026TIP3    H130713   2.997   1.273   4.554  1.8650 -0.8499  0.4793
 3026TIP3    H230714   3.048   1.247   4.413 -0.7002 -0.3806 -0.5847
 3027TIP3   OH230715   0.424   3.312   4.987 -0.2830  0.5196  0.9789
 3027TIP3    H130716   0.464   3.327   5.073  1.6570  0.3060  0.1585
 3027TIP3    H230717   0.429   3.218   4.975 -0.7944  0.5227  0.7355
 3028TIP3   OH230718   1.887   1.548   2.503  0.0079  0.0631  0.2469
 3028TIP3    H130719   1.936   1.629   2.515 -1.8027  1.2828 -0.1183
 3028TIP3    H230720   1.943   1.494   2.448  1.3820  0.9429  0.7170
 3029TIP3   OH230721   2.809   3.169   2.361 -0.0728  0.0368  0.0268
 3029TIP3    H130722   2.738   3.181   2.425 -0.3027  1.2066 -0.4126
 3029TIP3    H230723   2.785   3.091   2.312 -0.4257 -0.2847  0.7029
 3030TIP3   OH230724   6.227   1.697   5.163 -0.5224  0.3384 -0.1858
 3030TIP3    H130725   6.190   1.659   5.084 -0.4983 -0.0164 -0.0301
 3030TIP3    H230726   6.156   1.749   5.201 -0.5008  0.5940 -0.4942
 3031TIP3   OH230727   0.220   1.477   2.204  0.1238  0.0583 -0.4437
 3031TIP3    H130728   0.161   1.551   2.211 -0.6693 -0.5335 -0.7279
 3031TIP3    H230729   0.194   1.418   2.274  0.4046 -0.1952 -0.5462
 3032TIP3   OH230730   0.141   6.619   1.900  0.8538 -0.2927 -0.6446
 3032TIP3    H130731   0.065   6.665   1.935  0.2148 -0.6497 -1.5194
 3032TIP3    H230732   0.104   6.550   1.845  1.8093 -0.7742 -0.7028
 3033TIP3   OH230733   5.685   5.173   1.737 -0.5235 -0.7266  0.1229
 3033TIP3    H130734   5.724   5.259   1.752 -2.5980  0.4995 -1.0716
 3033TIP3    H230735   5.749   5.125   1.685  0.6800  0.0527  0.8588
 3034TIP3   OH230736   3.468   2.821   2.134  0.7043  0.0253 -0.1281
 3034TIP3    H130737   3.563   2.833   2.131  0.6843  0.0403 -1.6330
 3034TIP3    H230738   3.445   2.795   2.045 -0.3136 -3.0916  0.9317
 3035TIP3   OH230739   4.628   6.610   0.859  0.2302 -0.1945 -0.7416
 3035TIP3    H130740   4.681   6.571   0.789  0.3292 -0.0528 -0.7460
 3035TIP3    H230741   4.684   6.604   0.937  1.0428  1.7006 -1.1292
 3036TIP3   OH230742   6.505   4.395   5.226  0.0954  0.0811 -0.1547
 3036TIP3    H130743   6.513   4.330   5.295  0.7347  1.2994  0.9692
 3036TIP3    H230744   6.456   4.467   5.266  2.2158  1.6797 -0.2663
 3037TIP3   OH230745   0.033   6.484   2.910 -0.1729 -0.4322 -0.5335
 3037TIP3    H130746   0.053   6.437   2.829  0.3267  2.4528 -2.2523
 3037TIP3    H230747  -0.057   6.515   2.898 -0.1600 -0.1254  0.1108
 3038TIP3   OH230748   6.311   1.181   1.881 -0.5138  0.1447  0.6634
 3038TIP3    H130749   6.262   1.157   1.802  0.8028  0.1897 -0.1897
 3038TIP3    H230750   6.243   1.201   1.946 -1.6281 -1.0815 -0.0688
 3039TIP3   OH230751   0.487   2.737   2.763  0.1025 -0.4978  0.1810
 3039TIP3    H130752   0.543   2.787   2.703 -1.5876  1.0803 -0.1684
 3039TIP3    H230753   0.541   2.722   2.840  0.8784  1.3955  0.0529
 3040TIP3   OH230754   2.734   5.556   1.977  0.2437 -0.6323  0.0876
 3040TIP3    H130755   2.643   5.571   1.952  0.5074  1.8298  0.3670
 3040TIP3    H230756   2.779   5.535   1.895 -0.5756 -2.1428 -0.0144
 3041TIP3   OH230757   1.954   2.026   3.232  0.3957  0.3771 -0.6090
 3041TIP3    H130758   2.013   1.963   3.274 -0.8679  0.6281  1.7210
 3041TIP3    H230759   1.938   2.092   3.299 -0.8939  1.4280 -1.8871
 3042TIP3   OH230760   4.226   5.925   4.720  0.0945  0.2616  0.3459
 3042TIP3    H130761   4.135   5.941   4.694  0.5217  1.3519 -0.5653
 3042TIP3    H230762   4.260   6.011   4.741  1.2177  0.0128 -0.3764
 3043TIP3   OH230763   5.129   1.706   3.202  0.3993  0.2755 -0.3231
 3043TIP3    H130764   5.086   1.654   3.134 -1.7478  0.3306  0.9113
 3043TIP3    H230765   5.088   1.678   3.284  2.8900  0.2122  1.0144
 3044TIP3   OH230766   3.439   2.260   2.539  0.0242  0.1698 -0.1649
 3044TIP3    H130767   3.388   2.237   2.461  0.3757 -0.5080 -0.1996
 3044TIP3    H230768   3.438   2.356   2.540  0.1754  0.1945 -1.1050
 3045TIP3   OH230769   0.917   1.460   1.130  0.1508 -0.6636 -0.3537
 3045TIP3    H130770   0.885   1.529   1.187 -1.7979 -0.9025 -1.0744
 3045TIP3    H230771   0.854   1.388   1.142  0.7253 -1.3798 -1.4505
 3046TIP3   OH230772   3.108   2.647   2.548  0.4727 -0.4407 -0.3606
 3046TIP3    H130773   3.157   2.676   2.625  0.9305  2.1739 -1.5095
 3046TIP3    H230774   3.176   2.616   2.488  0.3629 -0.1793 -0.6185
 3047TIP3   OH230775   4.877   3.379   4.259  0.5130 -0.4770  0.6669
 3047TIP3    H130776   4.870   3.291   4.296  0.3899 -0.5133  0.5621
 3047TIP3    H230777   4.959   3.378   4.210  1.7687  0.2315  2.6420
 3048TIP3   OH230778   2.486   5.953   3.059  0.5214  0.3189 -0.3121
 3048TIP3    H130779   2.537   5.872   3.066 -0.7792 -0.3871  1.5620
 3048TIP3    H230780   2.524   6.011   3.125  0.2662  0.5856 -0.3983
 3049TIP3   OH230781   3.163   6.637   2.338  0.2057  0.6485 -0.2820
 3049TIP3    H130782   3.215   6.558   2.323 -1.7484 -0.1052 -4.3905
 3049TIP3    H230783   3.092   6.609   2.395  0.1230 -0.2964 -0.8307
 3050TIP3   OH230784   1.846   5.473   4.358 -0.0105 -0.6500 -0.3091
 3050TIP3    H130785   1.821   5.541   4.296 -0.6915 -1.1737 -0.6199
 3050TIP3    H230786   1.764   5.449   4.401  0.6157  0.5977  1.7182
 3051TIP3   OH230787   1.173   3.714   4.888  0.2384 -0.0969 -0.0015
 3051TIP3    H130788   1.221   3.757   4.817  0.8460  1.1525  1.1164
 3051TIP3    H230789   1.241   3.687   4.950 -0.3656  0.0655  0.7437
 3052TIP3   OH230790   0.190   5.070   3.176  0.8629 -0.3266 -0.6519
 3052TIP3    H130791   0.126   5.042   3.111  2.1403  0.6958 -2.4332
 3052TIP3    H230792   0.255   5.000   3.179  0.0167 -1.0894  0.7170
 3053TIP3   OH230793   2.018   4.456   2.198  0.0184  0.1214  0.4666
 3053TIP3    H130794   2.105   4.494   2.205 -0.1834  0.5158  0.8993
 3053TIP3    H230795   1.982   4.491   2.116  0.2770 -0.0689  0.2717
 3054TIP3   OH230796   4.320   5.919   3.225  0.4275 -0.3747  0.3176
 3054TIP3    H130797   4.352   6.009   3.231  0.0265 -0.0524 -1.7052
 3054TIP3    H230798   4.394   5.866   3.252  0.1696  0.5482  3.1918
 3055TIP3   OH230799   3.325   1.529   0.834  0.2315  0.1327 -0.0113
 3055TIP3    H130800   3.233   1.506   0.848 -0.0933  0.9038 -0.7758
 3055TIP3    H230801   3.361   1.454   0.788 -0.0309 -0.1423  0.2223
 3056TIP3   OH230802   6.015   4.841   4.921  0.2080  0.2849 -0.5518
 3056TIP3    H130803   6.095   4.825   4.870  0.9817 -2.2348  1.2339
 3056TIP3    H230804   5.947   4.857   4.855  1.2439 -2.2619 -2.4166
 3057TIP3   OH230805   4.579   0.440   5.409 -0.0497  0.2007  0.0800
 3057TIP3    H130806   4.623   0.508   5.461  0.2220  1.2183 -1.4222
 3057TIP3    H230807   4.646   0.374   5.393  0.9843  1.6550 -2.0349
 3058TIP3   OH230808   4.734   6.258   2.863 -0.1505 -0.3422 -0.0882
 3058TIP3    H130809   4.806   6.195   2.870  1.0207  0.5037 -2.9727
 3058TIP3    H230810   4.723   6.270   2.768 -1.7948  2.1486  0.3412
 3059TIP3   OH230811   1.609   3.098   0.738  0.6088 -0.0018 -0.0557
 3059TIP3    H130812   1.599   3.004   0.724 -0.8040  0.0426  0.5151
 3059TIP3    H230813   1.656   3.128   0.660  0.7844 -1.1173 -0.4050
 3060TIP3   OH230814   2.277   4.357   3.889 -0.0595  0.4455  0.2374
 3060TIP3    H130815   2.346   4.306   3.846 -0.7080 -0.2671  0.0274
 3060TIP3    H230816   2.196   4.328   3.848 -0.6289  0.2484  1.4548
 3061TIP3   OH230817   0.004   1.167   1.254 -0.3304 -0.1206 -0.4808
 3061TIP3    H130818  -0.034   1.190   1.169  1.4074 -0.5846 -1.4309
 3061TIP3    H230819   0.058   1.243   1.277 -0.9658  0.0989  0.3513
 3062TIP3   OH230820   6.728   6.418   1.734 -0.5484 -0.3607  0.0495
 3062TIP3    H130821   6.754   6.346   1.792 -2.8034 -1.6467 -0.4444
 3062TIP3    H230822   6.682   6.375   1.662 -1.8143  1.5607 -0.3440
 3063TIP3   OH230823   1.109   2.981   1.726 -0.2558 -0.5341  0.3518
 3063TIP3    H130824   1.183   2.990   1.666  0.4697  0.5581  1.3547
 3063TIP3    H230825   1.129   2.904   1.779  0.2927 -0.1199  0.7596
 3064TIP3   OH230826   3.034   2.766   3.686 -0.2577  0.0958  0.2469
 3064TIP3    H130827   2.975   2.744   3.759  0.0945  0.1743  0.5602
 3064TIP3    H230828   2.976   2.799   3.618 -0.4600  1.6292  1.1055
 3065TIP3   OH230829   3.319   5.963   0.219  0.6868 -0.1594 -0.0359
 3065TIP3    H130830   3.246   5.921   0.265 -1.0592  0.6265 -1.9123
 3065TIP3    H230831   3.387   5.973   0.285 -0.8729 -1.0266  1.7841
 3066TIP3   OH230832   1.834   3.870   3.943 -0.6669 -0.3386  0.4126
 3066TIP3    H130833   1.916   3.900   3.904 -0.3815 -1.3771  0.1872
 3066TIP3    H230834   1.856   3.785   3.982 -2.1808 -1.7881 -1.7120
 3067TIP3   OH230835   5.243   3.811   2.244 -0.6931 -0.2062  1.0744
 3067TIP3    H130836   5.332   3.777   2.233 -0.9621 -1.2546  1.9408
 3067TIP3    H230837   5.201   3.795   2.160 -0.0796  0.2518  0.6729
 3068TIP3   OH230838   6.611   2.649   4.105  0.3216 -0.0196 -0.1300
 3068TIP3    H130839   6.677   2.717   4.091 -0.2074  0.8838  1.4394
 3068TIP3    H230840   6.631   2.614   4.192 -0.9089 -0.1284  0.1230
 3069TIP3   OH230841   6.383   0.204   1.188  0.6266 -0.3198 -0.5164
 3069TIP3    H130842   6.424   0.233   1.269 -1.1475  1.2301 -0.1027
 3069TIP3    H230843   6.355   0.285   1.145 -0.9583 -1.2202 -1.2710
 3070TIP3   OH230844   4.421   5.240   1.132  0.6630  0.4686 -0.2242
 3070TIP3    H130845   4.509   5.203   1.136 -0.2549 -1.9991 -0.8852
 3070TIP3    H230846   4.410   5.266   1.040  1.1782  2.2235  0.1646
 3071TIP3   OH230847   4.699   2.441   3.326  0.1141 -0.2560  0.0485
 3071TIP3    H130848   4.787   2.414   3.301  0.6792  0.6590  0.9533
 3071TIP3    H230849   4.646   2.429   3.248  0.9561 -1.1855 -0.3974
 3072TIP3   OH230850   0.388   6.724   2.309 -0.2850 -0.1268  0.2319
 3072TIP3    H130851   0.428   6.713   2.395  1.1745 -0.1198 -0.4137
 3072TIP3    H230852   0.388   6.636   2.270  1.7283  0.2918 -0.8465
 3073TIP3   OH230853   4.343   3.765   1.054 -0.1130  0.1298  0.0759
 3073TIP3    H130854   4.421   3.747   1.001  0.2722  1.1313  0.2957
 3073TIP3    H230855   4.374   3.822   1.124 -1.2554  1.4538 -0.4627
 3074TIP3   OH230856   5.695   0.746   4.967  0.0235 -0.0512  0.0072
 3074TIP3    H130857   5.666   0.672   5.020 -2.1233  1.1517  0.6581
 3074TIP3    H230858   5.725   0.810   5.031 -1.5510  0.9867 -0.2225
 3075TIP3   OH230859   2.956   2.627   1.366  0.3495 -0.4395  0.1992
 3075TIP3    H130860   3.033   2.683   1.358 -0.0432  0.1890  0.7386
 3075TIP3    H230861   2.909   2.639   1.283 -1.1298  2.1688  1.2845
 3076TIP3   OH230862   1.272   3.475   2.833 -0.4281 -0.0612 -0.2386
 3076TIP3    H130863   1.278   3.392   2.882 -1.5422  0.3764  0.6724
 3076TIP3    H230864   1.364   3.499   2.818 -0.0755 -1.0394  0.2086
 3077TIP3   OH230865   4.147   2.592   4.689  0.1210 -0.3323  0.5431
 3077TIP3    H130866   4.080   2.613   4.754  0.6048 -0.3023  1.0418
 3077TIP3    H230867   4.098   2.564   4.612 -0.4772  0.4062  0.6441
 3078TIP3   OH230868   4.161   5.948   3.924  0.0804  0.6054  0.1863
 3078TIP3    H130869   4.188   5.856   3.935  0.4002  0.6495 -0.2214
 3078TIP3    H230870   4.067   5.942   3.906  0.3821  0.2184 -1.5138
 3079TIP3   OH230871   5.418   1.327   2.313  0.5115  0.5235 -0.3980
 3079TIP3    H130872   5.376   1.390   2.371  1.8551  2.3303 -1.2859
 3079TIP3    H230873   5.346   1.289   2.263 -0.6707 -0.9715  2.2312
 3080TIP3   OH230874   0.134   1.864   1.336 -0.0267 -0.1635 -0.2181
 3080TIP3    H130875   0.162   1.822   1.255  1.3400  2.1938 -1.0685
 3080TIP3    H230876   0.062   1.922   1.309  0.6346  0.8618  0.1639
 3081TIP3   OH230877   1.086   6.287   0.918 -0.1434 -0.2457  0.0453
 3081TIP3    H130878   1.120   6.359   0.972 -1.6796  2.0263 -1.8223
 3081TIP3    H230879   1.161   6.259   0.866  0.4775 -0.0292  0.7925
 3082TIP3   OH230880   2.714   5.271   1.817  0.0748  0.1498  0.5473
 3082TIP3    H130881   2.631   5.319   1.807  0.0484 -0.1807 -1.1807
 3082TIP3    H230882   2.779   5.339   1.834 -0.0705  0.7615 -1.1855
 3083TIP3   OH230883   6.620   2.988   4.638  0.1230  0.4916  0.7275
 3083TIP3    H130884   6.559   2.942   4.696 -0.9351  1.5643  0.5088
 3083TIP3    H230885   6.701   2.937   4.642 -1.2694 -1.9224 -0.2356
 3084TIP3   OH230886   3.166   0.663   3.371  0.2879  0.4110  0.3429
 3084TIP3    H130887   3.239   0.678   3.310 -0.7184  0.2754 -0.9264
 3084TIP3    H230888   3.144   0.751   3.402  1.5946  0.3603  1.4773
 3085TIP3   OH230889   5.895   2.484   5.218 -0.2114 -0.0002  0.2327
 3085TIP3    H130890   5.862   2.538   5.146  0.5539  1.0291  0.6392
 3085TIP3    H230891   5.962   2.429   5.178 -0.8898 -0.5684 -0.1511
 3086TIP3   OH230892   2.630   2.508   0.971 -0.1643  0.2679  0.0605
 3086TIP3    H130893   2.544   2.519   1.011 -0.2642 -0.5593  0.0972
 3086TIP3    H230894   2.637   2.414   0.956  0.3902  0.4229 -0.7058
 3087TIP3   OH230895   4.057   6.692   0.817  0.5448 -0.0403 -0.0562
 3087TIP3    H130896   4.107   6.640   0.755  1.6635 -0.9672  1.5242
 3087TIP3    H230897   4.034   6.631   0.887  0.5600  1.2407  1.1182
 3088TIP3   OH230898   0.096   2.010   3.540 -0.3617  0.0920 -0.6233
 3088TIP3    H130899   0.131   1.992   3.453 -0.5288  0.2001 -0.7119
 3088TIP3    H230900   0.173   2.035   3.592 -0.1481 -0.7260 -0.5364
 3089TIP3   OH230901   4.778   3.559   3.131  0.0664 -0.2215 -0.1710
 3089TIP3    H130902   4.711   3.500   3.098 -0.3461  1.5164 -2.7559
 3089TIP3    H230903   4.735   3.608   3.201 -0.0736 -1.8003  0.8893
 3090TIP3   OH230904   2.662   2.889   3.513  0.2893 -0.0494  0.2799
 3090TIP3    H130905   2.590   2.949   3.533  0.4492  0.5931 -0.9708
 3090TIP3    H230906   2.642   2.810   3.562 -1.2813  0.1183 -0.0541
 3091TIP3   OH230907   6.068   6.026   1.928 -0.2230 -0.4352 -0.5394
 3091TIP3    H130908   6.149   6.073   1.906 -0.6886 -0.5396 -2.6136
 3091TIP3    H230909   6.089   5.934   1.913 -1.2797 -0.3132 -3.1019
 3092TIP3   OH230910   6.169   2.502   1.396 -0.0048  0.2921 -0.0286
 3092TIP3    H130911   6.193   2.576   1.341  2.3112 -0.3401  0.0507
 3092TIP3    H230912   6.145   2.433   1.333  0.2148  0.3498 -0.1755
 3093TIP3   OH230913   3.533   1.922   4.658 -0.2472  0.1412  0.2393
 3093TIP3    H130914   3.550   1.982   4.585  0.0528  0.9026  0.9240
 3093TIP3    H230915   3.442   1.939   4.682  0.0293  0.7969  0.8512
 3094TIP3   OH230916   4.016   5.963   4.389 -0.1048  0.3920 -0.0327
 3094TIP3    H130917   4.044   6.054   4.379  1.1813 -0.0353 -0.4855
 3094TIP3    H230918   4.006   5.952   4.484  1.0415  0.6547  0.1403
 3095TIP3   OH230919   5.181   4.831   1.530 -0.0962  0.0470  0.4933
 3095TIP3    H130920   5.150   4.806   1.443  0.4217 -0.1094  0.3512
 3095TIP3    H230921   5.276   4.835   1.521 -0.0134 -0.3520  1.1553
 3096TIP3   OH230922   4.719   4.221   1.500 -0.0027  0.1687 -1.0310
 3096TIP3    H130923   4.730   4.139   1.548  0.7884  0.2715 -1.0234
 3096TIP3    H230924   4.682   4.195   1.416 -0.2856 -0.1318 -0.8170
 3097TIP3   OH230925   5.834   3.898   0.631  0.2398  0.5676  0.0523
 3097TIP3    H130926   5.929   3.892   0.641  0.0763  1.1286  2.5386
 3097TIP3    H230927   5.819   3.887   0.537  2.7933  1.1446 -0.4882
 3098TIP3   OH230928   5.529   6.663   3.636 -0.0474  0.4281 -0.0575
 3098TIP3    H130929   5.617   6.694   3.658  0.1832 -0.1613 -0.1281
 3098TIP3    H230930   5.505   6.712   3.557  1.2418 -1.1592 -1.5177
 3099TIP3   OH230931   0.473   0.369   5.235  0.3397  0.7099  0.3431
 3099TIP3    H130932   0.505   0.317   5.309 -0.3634 -3.8734 -2.2182
 3099TIP3    H230933   0.537   0.354   5.165 -2.8495 -1.9588 -2.3381
 3100TIP3   OH230934   5.094   0.043   4.458  0.0981 -0.3885  0.8885
 3100TIP3    H130935   5.083   0.051   4.553 -0.5772 -2.4627  1.0353
 3100TIP3    H230936   5.134  -0.043   4.446 -0.8553 -0.6481 -0.7539
 3101TIP3   OH230937   5.939   3.839   4.836 -0.1535 -0.2983 -0.4866
 3101TIP3    H130938   5.924   3.748   4.861 -0.7552 -0.8697 -2.7384
 3101TIP3    H230939   5.956   3.836   4.742 -0.5712  1.9512 -0.6905
 3102TIP3   OH230940   6.735   0.772   2.829  0.5493 -0.3203  0.3644
 3102TIP3    H130941   6.703   0.775   2.738  1.9359  0.2661 -0.1272
 3102TIP3    H230942   6.680   0.836   2.875  1.1616  0.8949 -0.5281
 3103TIP3   OH230943   3.277   2.449   4.838 -0.8761  0.2980  0.5355
 3103TIP3    H130944   3.218   2.414   4.771 -0.6106  0.7725  0.0494
 3103TIP3    H230945   3.340   2.503   4.790 -1.7996  2.1835  1.3221
 3104TIP3   OH230946   5.900   4.078   1.525  0.0930 -0.3966 -0.3452
 3104TIP3    H130947   5.891   4.110   1.435 -1.8561  0.3445  0.0629
 3104TIP3    H230948   5.994   4.063   1.536  0.4217 -0.0720 -2.3441
 3105TIP3   OH230949   3.826   3.915   2.336 -0.3438  0.0462 -0.0852
 3105TIP3    H130950   3.901   3.858   2.323 -1.0556 -0.8199 -0.4419
 3105TIP3    H230951   3.795   3.894   2.425  0.6273  1.3738  0.6113
 3106TIP3   OH230952   4.791   1.602   1.721 -0.2830  0.1196 -0.2688
 3106TIP3    H130953   4.709   1.570   1.759 -0.6351  1.1984 -0.0822
 3106TIP3    H230954   4.844   1.524   1.708 -1.3643 -0.5980 -0.4380
 3107TIP3   OH230955   5.251   4.529   5.160  0.0938 -0.1494 -0.5029
 3107TIP3    H130956   5.336   4.520   5.204  0.7451 -1.6146 -1.9490
 3107TIP3    H230957   5.191   4.476   5.213 -0.1200  1.4005  0.8877
 3108TIP3   OH230958   1.294   5.747   1.978 -0.6138 -0.3579  0.0033
 3108TIP3    H130959   1.294   5.802   2.057  0.4602  0.3738 -0.4756
 3108TIP3    H230960   1.225   5.683   1.993 -0.5904 -0.0812  1.4358
 3109TIP3   OH230961   4.079   3.729   4.926  0.0951 -0.6451 -0.3315
 3109TIP3    H130962   4.038   3.770   5.002  0.2867 -1.3319  0.1547
 3109TIP3    H230963   4.172   3.751   4.934  0.0483 -0.3374 -0.6172
 3110TIP3   OH230964   1.301   1.444   2.334 -0.0441 -0.1170  0.1925
 3110TIP3    H130965   1.223   1.395   2.309  0.0399 -1.6345  2.5496
 3110TIP3    H230966   1.362   1.432   2.261 -0.4091 -2.7679  0.2338
 3111TIP3   OH230967   0.830   1.011   1.645  0.2574 -0.7910  0.6009
 3111TIP3    H130968   0.872   1.059   1.573  1.4816 -1.5393  0.8001
 3111TIP3    H230969   0.891   0.941   1.666 -2.2975 -3.8107 -1.0641
 3112TIP3   OH230970   1.714   0.497   4.467 -0.5451  0.2115 -0.3150
 3112TIP3    H130971   1.783   0.442   4.505  0.4200  2.1583  0.9679
 3112TIP3    H230972   1.754   0.535   4.389 -0.9641 -0.3630 -0.8141
 3113TIP3   OH230973   0.541   2.976   2.952 -0.3999  0.4296 -0.3393
 3113TIP3    H130974   0.539   3.035   3.027  0.2039 -0.0263  0.0387
 3113TIP3    H230975   0.523   2.890   2.989  1.4918 -0.0505 -0.4559
 3114TIP3   OH230976   0.172   6.353   3.943 -0.2700 -0.4067 -0.7184
 3114TIP3    H130977   0.163   6.350   4.038  0.4167  0.9143 -0.5938
 3114TIP3    H230978   0.247   6.296   3.924  0.7724  0.7684 -0.2658
 3115TIP3   OH230979   3.347   3.656   4.244 -0.1711 -0.7151 -0.0739
 3115TIP3    H130980   3.386   3.715   4.179  2.7504 -2.5450 -0.1649
 3115TIP3    H230981   3.377   3.690   4.328 -1.3607 -0.1472  0.1433
 3116TIP3   OH230982   2.340   3.094   3.345 -0.7423 -0.4573 -0.4994
 3116TIP3    H130983   2.387   3.147   3.409  0.5986 -0.9021 -1.0824
 3116TIP3    H230984   2.296   3.159   3.289 -1.1784 -0.0495  0.2913
 3117TIP3   OH230985   4.639   6.027   1.276  0.3186 -0.1373 -0.3726
 3117TIP3    H130986   4.669   6.053   1.189 -1.8221 -0.3703 -1.2242
 3117TIP3    H230987   4.576   5.957   1.260  3.4734 -3.7995  1.6508
 3118TIP3   OH230988   4.773   2.018   4.899  0.2597  0.3775 -0.2015
 3118TIP3    H130989   4.769   2.047   4.990 -2.3043  2.0273 -0.7275
 3118TIP3    H230990   4.730   1.932   4.899  1.5799 -0.3191  0.3023
 3119TIP3   OH230991   3.306   3.169   3.070 -0.4324  0.0577 -0.4996
 3119TIP3    H130992   3.253   3.247   3.087  0.3384  0.4308  0.2247
 3119TIP3    H230993   3.392   3.203   3.047  0.2986 -0.5883  1.1431
 3120TIP3   OH230994   4.095   3.621   0.901  0.4384 -0.5969 -0.4949
 3120TIP3    H130995   4.175   3.599   0.947  1.7919  0.6751 -2.1195
 3120TIP3    H230996   4.111   3.708   0.865 -1.8846 -0.0886 -0.4464
 3121TIP3   OH230997   5.480   3.396   5.173 -0.7372 -0.3216 -0.4062
 3121TIP3    H130998   5.432   3.324   5.213 -0.3189  0.1782  1.0270
 3121TIP3    H230999   5.451   3.474   5.220  0.9511  0.0828  0.0373
 3122TIP3   OH231000   2.352   5.449   4.295  0.1329 -0.9163  0.1271
 3122TIP3    H131001   2.261   5.470   4.312  0.0715  0.1456 -1.3154
 3122TIP3    H231002   2.353   5.416   4.205  1.0858 -1.5274  0.3416
 3123TIP3   OH231003   5.380   3.873   2.595 -0.4385 -0.2463 -0.2245
 3123TIP3    H131004   5.426   3.796   2.627  0.1484  0.4047  0.5295
 3123TIP3    H231005   5.424   3.947   2.637 -0.0005  0.6206 -2.1046
 3124TIP3   OH231006   0.440   4.192   4.531 -0.8819 -0.6358 -0.7035
 3124TIP3    H131007   0.521   4.187   4.481 -1.1033 -1.5797 -0.9881
 3124TIP3    H231008   0.390   4.116   4.503 -1.8915 -0.0428 -0.5663
 3125TIP3   OH231009   0.869   3.823   0.582  0.1783 -0.1541  0.8333
 3125TIP3    H131010   0.847   3.731   0.564  0.2393 -0.0532  0.2242
 3125TIP3    H231011   0.876   3.863   0.496  0.0720  0.4465  1.1015
 3126TIP3   OH231012   0.369   6.099   1.028 -0.0468  0.1411  0.6312
 3126TIP3    H131013   0.402   6.083   0.939 -0.7403  2.1332 -0.0385
 3126TIP3    H231014   0.432   6.159   1.066 -2.6239  4.1769 -0.7353
 3127TIP3   OH231015   4.234   6.733   3.560 -0.0292  0.0590  0.0221
 3127TIP3    H131016   4.152   6.684   3.566  0.3699 -0.6569 -0.2885
 3127TIP3    H231017   4.298   6.678   3.605  0.9091 -0.7877 -2.2276
 3128TIP3   OH231018   4.243   6.013   2.963  0.0888  0.0588  0.1609
 3128TIP3    H131019   4.244   6.081   3.030 -0.1989 -1.2436  1.5425
 3128TIP3    H231020   4.260   6.059   2.881  1.8668  1.5365  1.2803
 3129TIP3   OH231021   1.811   6.468   3.001  0.6196 -0.0867 -0.2888
 3129TIP3    H131022   1.892   6.518   2.989  1.4179 -1.2863 -0.0405
 3129TIP3    H231023   1.796   6.468   3.095  0.8783 -0.6918 -0.2431
 3130TIP3   OH231024   2.146   3.142   2.075 -0.3308  0.7684 -0.1572
 3130TIP3    H131025   2.070   3.200   2.069  0.1006  1.4423  0.6572
 3130TIP3    H231026   2.213   3.195   2.120 -0.1533 -0.5769  1.2566
 3131TIP3   OH231027   0.770   2.314   3.770  0.3410 -0.5446  0.1624
 3131TIP3    H131028   0.842   2.365   3.732 -0.7752  0.4503 -0.7094
 3131TIP3    H231029   0.741   2.256   3.699  0.1136 -0.7516  0.4223
 3132TIP3   OH231030   1.644   3.618   3.719  0.5266 -0.4025 -0.0762
 3132TIP3    H131031   1.707   3.600   3.649  1.4505 -0.0236  0.6349
 3132TIP3    H231032   1.686   3.584   3.798  0.7366  1.5937  0.7375
 3133TIP3   OH231033   0.304   6.596   0.713  0.1805  0.0816 -0.3355
 3133TIP3    H131034   0.289   6.658   0.642  0.3945  1.1798  0.5395
 3133TIP3    H231035   0.309   6.511   0.671  0.1581  0.6938 -1.6130
 3134TIP3   OH231036   3.144   0.536   1.047 -0.1531 -0.1468  0.2844
 3134TIP3    H131037   3.106   0.623   1.043 -2.1351 -0.9446  0.3456
 3134TIP3    H231038   3.193   0.534   1.129 -0.4241  0.7880  0.4735
 3135TIP3   OH231039   4.573   3.512   2.398  0.3149  1.1328  0.7066
 3135TIP3    H131040   4.646   3.500   2.459 -0.9390  0.4487  2.1473
 3135TIP3    H231041   4.496   3.485   2.448 -0.6630 -0.5930 -1.5389
 3136TIP3   OH231042   2.998   1.897   1.548  0.3236 -0.2840 -0.0107
 3136TIP3    H131043   2.924   1.954   1.526 -0.9768 -2.1001 -0.5108
 3136TIP3    H231044   2.971   1.854   1.629  1.0991 -0.5486  0.1113
 3137TIP3   OH231045   3.166   2.437   3.154 -0.5267  0.1777 -0.3763
 3137TIP3    H131046   3.219   2.358   3.139 -0.2477  0.0772  0.9770
 3137TIP3    H231047   3.181   2.491   3.077 -1.1723 -1.3204 -1.6191
 3138TIP3   OH231048   3.776   5.202   5.176 -0.3477 -0.8639  0.3615
 3138TIP3    H131049   3.768   5.209   5.271  0.1825 -1.1574  0.4275
 3138TIP3    H231050   3.707   5.260   5.142 -0.0182 -0.1397  0.9193
 3139TIP3   OH231051   2.238   1.964   5.405  0.2505 -0.0180  0.2818
 3139TIP3    H131052   2.227   1.872   5.431  2.2084 -0.3890 -0.0106
 3139TIP3    H231053   2.157   2.007   5.432 -1.8466 -2.3221 -1.8457
 3140TIP3   OH231054   6.533   6.441   4.452 -0.4357 -0.0168 -0.1347
 3140TIP3    H131055   6.454   6.410   4.497  0.1825 -0.0418  0.9837
 3140TIP3    H231056   6.587   6.477   4.522  1.0182 -0.9915 -0.7072
 3141TIP3   OH231057   6.049   4.738   3.557 -0.3602 -0.2595  0.0811
 3141TIP3    H131058   5.980   4.683   3.521  0.5295 -0.8110 -0.8404
 3141TIP3    H231059   6.123   4.726   3.497  0.4677  0.4750  0.9215
 3142TIP3   OH231060   2.930   2.600   2.018  0.3178 -0.3310 -0.2240
 3142TIP3    H131061   2.927   2.523   2.074  1.4428  0.9358  1.7033
 3142TIP3    H231062   3.022   2.626   2.017  0.1821  0.2634 -1.9354
 3143TIP3   OH231063   1.769   4.372   1.011 -0.0859 -0.3491 -0.5968
 3143TIP3    H131064   1.770   4.444   1.074  0.7352 -0.5059 -0.4122
 3143TIP3    H231065   1.682   4.333   1.020  0.3083 -0.9218  1.1018
 3144TIP3   OH231066   2.526   2.812   3.796  0.3327  0.1034  1.0728
 3144TIP3    H131067   2.458   2.862   3.752  1.6028  1.1616  0.2163
 3144TIP3    H231068   2.488   2.726   3.810 -0.2110 -0.2653 -1.9792
 3145TIP3   OH231069   0.405   2.501   2.879 -0.4562 -0.2258 -0.1995
 3145TIP3    H131070   0.310   2.508   2.885 -0.3589  0.3429  1.3930
 3145TIP3    H231071   0.431   2.572   2.820 -0.9503  0.4640  0.3858
 3146TIP3   OH231072   0.984   1.678   3.957  0.1424  0.0710 -0.0674
 3146TIP3    H131073   0.933   1.598   3.946  0.4302 -0.0702 -0.3940
 3146TIP3    H231074   0.934   1.730   4.021  0.3103 -0.6615  0.6737
 3147TIP3   OH231075   3.515   6.244   0.858 -0.3712  0.4452  0.1945
 3147TIP3    H131076   3.521   6.332   0.894 -0.2508 -0.3582  2.3067
 3147TIP3    H231077   3.606   6.217   0.845 -0.4031  0.5931 -0.3223
 3148TIP3   OH231078   5.765   5.628   2.402  0.3261  0.3024 -0.3900
 3148TIP3    H131079   5.829   5.558   2.413 -0.1902 -0.1211 -0.0266
 3148TIP3    H231080   5.751   5.632   2.307 -0.8419 -1.2151 -0.3341
 3149TIP3   OH231081   5.058   4.861   0.799  0.0037 -0.3158 -0.9779
 3149TIP3    H131082   5.121   4.818   0.857 -0.3490  0.0086 -0.3412
 3149TIP3    H231083   5.053   4.951   0.831  0.3042  0.0564 -1.9424
 3150TIP3   OH231084   6.649   3.578   2.941 -0.6097  0.3698 -0.2378
 3150TIP3    H131085   6.557   3.554   2.930 -0.6769  0.0780  0.8219
 3150TIP3    H231086   6.647   3.663   2.985 -0.3779  0.3466 -0.1777
 3151TIP3   OH231087   1.565   1.184   3.194  0.7686  0.5123  0.3709
 3151TIP3    H131088   1.515   1.173   3.275  0.1174 -0.0704 -0.0913
 3151TIP3    H231089   1.577   1.095   3.162 -1.2755  0.8383 -1.5122
 3152TIP3   OH231090   6.752   2.803   3.769  0.0405 -0.1422  0.3264
 3152TIP3    H131091   6.726   2.892   3.795  0.1119 -0.3883  1.2797
 3152TIP3    H231092   6.727   2.797   3.677 -0.2789  0.7510  0.3430
 3153TIP3   OH231093   4.342   6.543   1.413  0.3804 -0.2948 -0.0326
 3153TIP3    H131094   4.354   6.530   1.507 -1.2392  0.1860  0.2730
 3153TIP3    H231095   4.367   6.460   1.374 -0.7088 -1.1465  1.0063
 3154TIP3   OH231096   0.129   2.561   5.068  0.0097 -0.7114 -0.8197
 3154TIP3    H131097   0.218   2.541   5.041  0.4477 -0.8014  0.6036
 3154TIP3    H231098   0.074   2.503   5.015  0.8989 -1.7388 -0.6484
 3155TIP3   OH231099   2.619   5.801   4.601  0.2811 -0.3159 -0.6120
 3155TIP3    H131100   2.685   5.867   4.580 -0.5686  0.1795 -1.8136
 3155TIP3    H231101   2.645   5.724   4.550 -0.4193  0.1006 -1.6339
 3156TIP3   OH231102   0.033   0.500   3.365  0.3675 -0.5485 -0.4920
 3156TIP3    H131103   0.036   0.588   3.402 -0.5975  0.0472 -1.7264
 3156TIP3    H231104   0.104   0.453   3.408  2.0260  1.3281 -1.0223
 3157TIP3   OH231105   1.801   5.321   0.276 -0.4501  0.5242 -0.0621
 3157TIP3    H131106   1.824   5.243   0.226  0.5343  0.9477 -0.3004
 3157TIP3    H231107   1.850   5.312   0.358 -2.0052 -0.1391  0.8320
 3158TIP3   OH231108   2.809   1.825   2.707 -0.1983  0.0353 -0.3769
 3158TIP3    H131109   2.873   1.894   2.725 -0.5600  0.5330 -0.9771
 3158TIP3    H231110   2.741   1.867   2.655 -1.1057 -0.4462  0.3735
 3159TIP3   OH231111   4.750   4.306   4.765  0.1799 -0.7233  0.7023
 3159TIP3    H131112   4.771   4.240   4.831 -0.1511 -1.6911 -0.1326
 3159TIP3    H231113   4.823   4.368   4.768 -0.9543  0.6545  3.6686
 3160TIP3   OH231114   2.041   3.014   2.792 -0.2062  0.9636 -0.4043
 3160TIP3    H131115   2.040   3.012   2.696 -1.5932  2.2738 -0.4592
 3160TIP3    H231116   2.126   2.977   2.816  0.3536  1.0266 -2.1543
 3161TIP3   OH231117   0.824   1.272   3.293  0.3774  0.7031  0.5370
 3161TIP3    H131118   0.812   1.216   3.216  2.3488  2.5032 -1.2260
 3161TIP3    H231119   0.863   1.216   3.359  0.6075 -0.4197 -0.5240
 3162TIP3   OH231120   2.451   5.045   2.862  0.4184  0.1689  0.0610
 3162TIP3    H131121   2.532   5.013   2.823 -0.1499 -0.7197 -0.4273
 3162TIP3    H231122   2.401   5.080   2.789 -1.2908 -2.8448 -0.3939
 3163TIP3   OH231123   0.212   1.342   4.929 -0.5351  0.1195 -0.1007
 3163TIP3    H131124   0.194   1.248   4.940  0.1788 -0.0998 -0.7424
 3163TIP3    H231125   0.269   1.364   5.003  1.2813 -0.5255 -1.2391
 3164TIP3   OH231126   6.260   5.709   4.457 -0.2067 -0.1488  0.5871
 3164TIP3    H131127   6.236   5.675   4.371  0.9195  2.0705 -0.6867
 3164TIP3    H231128   6.345   5.669   4.476  0.6628  1.1304 -0.4651
 3165TIP3   OH231129   4.006   3.761   2.112  0.2106 -0.4882 -0.0165
 3165TIP3    H131130   4.023   3.680   2.160 -2.0049 -1.7891 -1.2602
 3165TIP3    H231131   4.005   3.735   2.020 -0.5261  0.9545 -0.4536
 3166TIP3   OH231132   0.864   2.092   1.161 -0.0097  0.6645  0.1360
 3166TIP3    H131133   0.841   2.087   1.068 -2.6369  0.3774  0.7466
 3166TIP3    H231134   0.851   2.185   1.183 -0.8251  0.4642  0.5315
 3167TIP3   OH231135   2.756   1.582   0.240  0.1060 -0.1415  0.1027
 3167TIP3    H131136   2.800   1.535   0.311  0.9389  2.1071  1.1645
 3167TIP3    H231137   2.668   1.599   0.273  0.1684  0.0401  0.1720
 3168TIP3   OH231138   4.955   2.405   1.170 -0.4283 -0.5428 -0.3694
 3168TIP3    H131139   4.977   2.449   1.088 -1.1122  1.6193  0.5301
 3168TIP3    H231140   4.883   2.345   1.147  0.7180 -1.4612 -1.6914
 3169TIP3   OH231141   2.765   2.203   2.150 -0.5634  0.1096  0.0474
 3169TIP3    H131142   2.806   2.152   2.220  2.8575  0.8404 -1.2164
 3169TIP3    H231143   2.770   2.294   2.182  1.3447  0.4888 -1.1730
 3170TIP3   OH231144   1.396   2.616   2.141 -0.3505 -1.0747  0.1000
 3170TIP3    H131145   1.472   2.569   2.108 -0.9313 -1.6613 -0.4424
 3170TIP3    H231146   1.321   2.575   2.097 -0.8595  0.6354 -0.7321
 3171TIP3   OH231147   2.336   5.666   3.669 -0.2413  0.5886  0.4816
 3171TIP3    H131148   2.251   5.706   3.648 -0.9786  0.5691  3.1306
 3171TIP3    H231149   2.313   5.584   3.712  1.1001  0.6953  1.4526
 3172TIP3   OH231150   4.739   6.159   4.612  0.8694 -0.6802  0.1812
 3172TIP3    H131151   4.817   6.125   4.656  2.3182  2.6369  0.5056
 3172TIP3    H231152   4.773   6.222   4.548 -1.4697  1.4300  0.8409
 3173TIP3   OH231153   2.902   3.884   2.155  0.3498  0.2466 -0.0739
 3173TIP3    H131154   2.930   3.863   2.244  1.8438  3.2690  0.2956
 3173TIP3    H231155   2.845   3.960   2.165 -0.1934  0.0988 -1.6556
 3174TIP3   OH231156   2.857   5.188   3.371 -0.2028  0.2022  0.2571
 3174TIP3    H131157   2.853   5.272   3.325 -2.4673  0.5058  0.8673
 3174TIP3    H231158   2.815   5.206   3.455  0.2118 -1.3195  0.8140
 3175TIP3   OH231159   1.289   0.814   0.997  0.4040  0.4434  0.4213
 3175TIP3    H131160   1.271   0.907   0.990  0.8522  0.4258 -2.4185
 3175TIP3    H231161   1.380   0.808   1.023  0.0375  0.7348  1.8447
 3176TIP3   OH231162   5.493   1.158   2.551  0.0294 -0.5199 -0.3242
 3176TIP3    H131163   5.464   1.224   2.488  2.3702 -0.8575 -1.8910
 3176TIP3    H231164   5.579   1.187   2.580  0.6809 -2.3393 -0.2683
 3177TIP3   OH231165   2.117   3.790   2.873 -0.2984  0.9428  0.0591
 3177TIP3    H131166   2.189   3.780   2.935 -0.2822  0.5621 -0.0213
 3177TIP3    H231167   2.116   3.884   2.852 -0.6169  1.1703  1.0111
 3178TIP3   OH231168   4.097   4.485   1.697 -0.0486 -0.0039 -0.4380
 3178TIP3    H131169   4.031   4.479   1.767 -1.2381 -0.8895 -1.5797
 3178TIP3    H231170   4.050   4.458   1.618  1.8648 -1.2893 -1.1947
 3179TIP3   OH231171   5.903   2.859   3.295  0.3205 -0.2887  0.6052
 3179TIP3    H131172   5.895   2.896   3.207 -0.7439 -2.0466 -0.0855
 3179TIP3    H231173   5.913   2.936   3.352  1.3643  0.8726 -1.0449
 3180TIP3   OH231174   0.389   4.161   2.414 -0.2536 -0.3147  0.5550
 3180TIP3    H131175   0.353   4.231   2.359 -0.6190 -0.0849  1.0796
 3180TIP3    H231176   0.316   4.134   2.470  0.0968 -0.5772  0.8929
 3181TIP3   OH231177   5.981   5.940   5.250  0.2764 -0.6872  0.4476
 3181TIP3    H131178   5.970   5.856   5.206  0.1037 -0.1891 -0.4772
 3181TIP3    H231179   6.074   5.944   5.272  0.3372 -1.0007  0.2480
 3182TIP3   OH231180   2.463   2.325   3.138 -0.1636 -0.1734 -0.2911
 3182TIP3    H131181   2.448   2.232   3.122  2.4059 -0.5609 -0.9176
 3182TIP3    H231182   2.386   2.354   3.186 -2.4994 -1.8836 -2.7212
 3183TIP3   OH231183   3.532   2.127   1.497  0.1213 -0.4957 -0.0892
 3183TIP3    H131184   3.442   2.152   1.519 -0.4257 -0.5348 -2.0666
 3183TIP3    H231185   3.547   2.164   1.410  1.9028 -0.8135  0.0363
 3184TIP3   OH231186   2.114   0.766   3.965  0.6874 -0.1339 -0.2818
 3184TIP3    H131187   2.178   0.700   3.938 -0.9581 -2.6698  1.6015
 3184TIP3    H231188   2.148   0.799   4.049 -0.6075 -1.8241  0.9565
 3185TIP3   OH231189   1.916   2.416   1.498 -0.2116  0.2412 -0.5406
 3185TIP3    H131190   1.940   2.328   1.527 -0.8642  0.5704  1.0955
 3185TIP3    H231191   1.823   2.409   1.478 -0.2726  0.5733 -0.3654
 3186TIP3   OH231192   6.312   1.841   1.464 -0.0324 -0.0963 -0.1381
 3186TIP3    H131193   6.299   1.755   1.425  3.1854 -0.8606  0.1562
 3186TIP3    H231194   6.254   1.842   1.540  0.0679 -2.1720  0.0314
 3187TIP3   OH231195   2.208   0.225   2.108 -0.1666 -0.0419 -0.6507
 3187TIP3    H131196   2.168   0.269   2.033  0.1953 -0.6293 -1.1972
 3187TIP3    H231197   2.278   0.172   2.071  1.5960  1.4578  0.3403
 3188TIP3   OH231198   0.722   5.510   4.871 -0.3243 -0.1231  0.5225
 3188TIP3    H131199   0.745   5.552   4.954  1.9631 -0.8872  0.3485
 3188TIP3    H231200   0.697   5.421   4.896  1.3257 -0.6715  0.3879
 3189TIP3   OH231201   1.827   4.704   5.125  0.9252 -0.0982 -0.4336
 3189TIP3    H131202   1.897   4.647   5.092  0.5412 -1.4637  0.9495
 3189TIP3    H231203   1.751   4.646   5.134  0.5032  0.6138  0.9851
 3190TIP3   OH231204   6.759   4.106   1.901  0.1256 -0.5133  0.2356
 3190TIP3    H131205   6.692   4.065   1.845 -0.4020 -1.5687  1.5680
 3190TIP3    H231206   6.801   4.032   1.945 -0.0097  0.3083  1.8114
 3191TIP3   OH231207   4.967   0.707   1.852  0.2770  0.2165  0.1655
 3191TIP3    H131208   5.040   0.656   1.817  0.0480  0.5283 -0.7953
 3191TIP3    H231209   4.996   0.798   1.846  0.1145  0.2936  0.5161
 3192TIP3   OH231210   0.265   1.702   0.516  0.1092 -0.1012  0.2101
 3192TIP3    H131211   0.358   1.683   0.505  0.2377  0.2689  0.6121
 3192TIP3    H231212   0.220   1.628   0.475  0.5884 -0.7036  0.7510
 3193TIP3   OH231213   5.261   1.138   3.432 -0.1210  0.2893 -0.1877
 3193TIP3    H131214   5.176   1.174   3.406  0.3611  1.8684  0.2816
 3193TIP3    H231215   5.242   1.048   3.458 -1.5739  0.4814 -0.4785
 3194TIP3   OH231216   4.825   3.526   4.593  0.6099  0.2622 -0.4369
 3194TIP3    H131217   4.868   3.556   4.513  0.0976  0.7594 -0.5286
 3194TIP3    H231218   4.897   3.502   4.651  0.9905  0.0332 -0.9885
 3195TIP3   OH231219   4.471   5.304   3.140  0.1492 -0.1819  0.3673
 3195TIP3    H131220   4.385   5.314   3.099  0.9851 -2.7051 -2.3839
 3195TIP3    H231221   4.452   5.280   3.231 -2.0036  0.2787  0.0944
 3196TIP3   OH231222   4.618   1.862   5.151  0.1150  0.5097  0.5709
 3196TIP3    H131223   4.626   1.799   5.223 -0.5532 -0.8831 -0.5321
 3196TIP3    H231224   4.532   1.903   5.165 -0.3130 -0.2365  0.2324
 3197TIP3   OH231225   3.816   6.204   3.425 -0.3172 -0.1907  0.0425
 3197TIP3    H131226   3.857   6.269   3.482  1.5299 -0.4002 -0.9515
 3197TIP3    H231227   3.741   6.171   3.475 -0.2327  1.4019  1.2907
 3198TIP3   OH231228   6.240   6.399   0.890 -0.4312 -0.1201 -0.4322
 3198TIP3    H131229   6.165   6.381   0.833  0.3520 -2.1722 -0.9367
 3198TIP3    H231230   6.208   6.376   0.978 -0.7907  0.3222 -0.4420
 3199TIP3   OH231231   0.466   1.271   2.963 -0.4108  0.1785 -0.7436
 3199TIP3    H131232   0.481   1.348   2.908 -0.6644  0.8366  0.1007
 3199TIP3    H231233   0.390   1.228   2.923 -1.1226  1.1147 -0.4260
 3200TIP3   OH231234   5.691   4.109   4.763 -0.2877 -0.4842 -0.4792
 3200TIP3    H131235   5.770   4.140   4.720 -0.1170 -0.6355 -0.2809
 3200TIP3    H231236   5.685   4.161   4.844 -0.1645 -0.7550 -0.2938
 3201TIP3   OH231237   1.625   3.505   3.373  0.1140  0.5910  0.0634
 3201TIP3    H131238   1.617   3.465   3.460  1.8663 -0.3925 -0.1689
 3201TIP3    H231239   1.706   3.469   3.338  1.2994  3.6052 -0.6029
 3202TIP3   OH231240   0.619   0.600   4.957 -0.1939  0.6870 -0.0160
 3202TIP3    H131241   0.644   0.509   4.944 -0.0212  0.7946 -0.4814
 3202TIP3    H231242   0.607   0.634   4.868 -2.3547  0.5499  0.1629
 3203TIP3   OH231243   0.799   2.800   4.741  0.0864  0.1748 -0.3466
 3203TIP3    H131244   0.730   2.765   4.796  0.0505 -0.2052 -0.6317
 3203TIP3    H231245   0.855   2.850   4.801 -0.5490  0.6704 -0.1542
 3204TIP3   OH231246   1.990   2.921   4.354 -0.2444 -0.0235  0.0241
 3204TIP3    H131247   1.896   2.927   4.337 -0.2557  2.2893  0.5458
 3204TIP3    H231248   1.997   2.924   4.449  0.3330 -1.0838  0.0225
 3205TIP3   OH231249   3.551   2.107   2.234  0.4077 -0.4024  0.3572
 3205TIP3    H131250   3.558   2.131   2.141  1.3626  1.6530  0.9051
 3205TIP3    H231251   3.640   2.116   2.267  0.0928 -1.2338  1.4621
 3206TIP3   OH231252   4.897   5.708   3.763  0.0170 -0.2889 -0.3351
 3206TIP3    H131253   4.880   5.614   3.756 -1.6432 -0.4337  3.2612
 3206TIP3    H231254   4.977   5.714   3.814 -1.5768  0.0861  2.2826
 3207TIP3   OH231255   0.714   4.295   4.096 -0.5503 -0.2573  0.1660
 3207TIP3    H131256   0.789   4.339   4.058 -0.6677 -0.5641 -0.4262
 3207TIP3    H231257   0.648   4.363   4.106  0.3478  0.3818  2.2243
 3208TIP3   OH231258   0.955   6.473   0.328 -0.7147 -0.2420 -0.2733
 3208TIP3    H131259   1.019   6.429   0.272  1.0747  1.3514  0.4170
 3208TIP3    H231260   0.988   6.562   0.336 -1.9710  0.0948  1.7062
 3209TIP3   OH231261   4.515   0.708   4.539  0.3275 -0.4096 -0.4991
 3209TIP3    H131262   4.541   0.775   4.603 -0.4762  0.0165 -0.6077
 3209TIP3    H231263   4.583   0.641   4.547  1.1770  0.4265 -0.4167
 3210TIP3   OH231264   3.772   4.743   2.668  0.0773 -0.2323  0.4421
 3210TIP3    H131265   3.774   4.652   2.696 -0.5017 -0.0143  1.2060
 3210TIP3    H231266   3.779   4.738   2.572 -0.9193 -1.1202  0.3980
 3211TIP3   OH231267   4.451   4.251   2.605 -0.7681 -0.2570  0.3946
 3211TIP3    H131268   4.357   4.236   2.615 -0.6226 -0.6942  1.1219
 3211TIP3    H231269   4.483   4.266   2.694 -0.5347  2.2601 -0.0450
 3212TIP3   OH231270   5.297   3.139   5.646  0.1962  0.3340 -0.6940
 3212TIP3    H131271   5.290   3.223   5.600 -0.4142  0.8680  0.3381
 3212TIP3    H231272   5.319   3.076   5.577 -0.4983  1.1322 -1.6795
 3213TIP3   OH231273   2.435   6.450   4.507  0.2863  0.4183 -0.3934
 3213TIP3    H131274   2.380   6.501   4.566  0.2784  0.0110 -0.0406
 3213TIP3    H231275   2.448   6.367   4.553  0.6129  0.2489 -0.7886
 3214TIP3   OH231276   6.503   6.376   5.400  0.4217  0.2342  0.1217
 3214TIP3    H131277   6.536   6.302   5.450 -0.7276 -0.2181  0.2520
 3214TIP3    H231278   6.433   6.413   5.454 -0.6860 -0.1244 -1.0196
 3215TIP3   OH231279   1.625   3.517   4.600  0.3102  1.0050 -0.5875
 3215TIP3    H131280   1.660   3.529   4.689  0.2505 -1.8669 -0.0786
 3215TIP3    H231281   1.532   3.536   4.608 -0.2566 -1.7616  0.7269
 3216TIP3   OH231282   6.742   2.103   2.909 -0.4162 -0.2475 -0.1372
 3216TIP3    H131283   6.807   2.097   2.838  0.8198 -0.3981  0.9662
 3216TIP3    H231284   6.704   2.015   2.913  0.0223 -0.4413 -0.1498
 3217TIP3   OH231285   2.971   0.584   2.994  0.0719  0.2631 -0.2783
 3217TIP3    H131286   3.001   0.514   2.936  3.7771  1.5460 -0.1595
 3217TIP3    H231287   2.955   0.540   3.078  0.0550 -0.7660 -0.8046
 3218TIP3   OH231288   6.671   4.492   5.032 -0.2625  0.4540  0.2254
 3218TIP3    H131289   6.604   4.440   5.077 -0.3814  1.5979  1.4321
 3218TIP3    H231290   6.728   4.523   5.103  0.9115  0.4089 -0.6738
 3219TIP3   OH231291   4.266   4.637   4.597 -0.4467  0.4382  0.2658
 3219TIP3    H131292   4.329   4.668   4.662  0.7238  0.9871 -1.0654
 3219TIP3    H231293   4.227   4.717   4.561 -0.1209  0.2134 -0.6063
 3220TIP3   OH231294   3.217   6.259   2.786 -0.0968 -0.3292 -0.2418
 3220TIP3    H131295   3.280   6.253   2.715  2.1666  0.0679  1.6257
 3220TIP3    H231296   3.238   6.342   2.829 -0.4980 -1.1805  1.6802
 3221TIP3   OH231297   6.367   3.677   2.073  0.0404  0.2597 -0.3685
 3221TIP3    H131298   6.463   3.673   2.077  0.0556  0.7225 -0.2296
 3221TIP3    H231299   6.348   3.701   1.983  0.1358  2.1733  0.0777
 3222TIP3   OH231300   5.176   3.655   5.036  0.0598 -0.3188  0.4477
 3222TIP3    H131301   5.201   3.692   4.950 -1.7839 -0.2064 -0.0801
 3222TIP3    H231302   5.223   3.709   5.099 -1.1079  1.8179 -0.3895
 3223TIP3   OH231303   2.624   3.664   2.196 -0.3425 -0.2321 -0.5525
 3223TIP3    H131304   2.674   3.743   2.176 -0.1952 -0.0256  0.5303
 3223TIP3    H231305   2.688   3.593   2.189  0.1400  0.0320  0.8375
 3224TIP3   OH231306   1.048   4.332   4.384  0.0621  0.5421 -0.9749
 3224TIP3    H131307   1.100   4.373   4.315 -0.8664  2.0033 -0.8629
 3224TIP3    H231308   1.053   4.393   4.457 -0.6900  0.0566 -0.5053
 3225TIP3   OH231309   4.629   3.819   3.200  0.0027  0.2620  0.5086
 3225TIP3    H131310   4.620   3.903   3.154 -3.2859  0.1841  0.7619
 3225TIP3    H231311   4.637   3.844   3.292 -2.5073  0.4015  0.7627
 3226TIP3   OH231312   5.656   5.442   4.106  0.0743  0.2472 -0.0481
 3226TIP3    H131313   5.562   5.444   4.085  0.3248  0.1114 -1.2379
 3226TIP3    H231314   5.698   5.407   4.027  1.1576  0.5574  0.3694
 3227TIP3   OH231315   1.229   4.683   1.465  0.3568 -0.1098  0.0787
 3227TIP3    H131316   1.245   4.603   1.515 -0.3407 -0.2523  0.0779
 3227TIP3    H231317   1.139   4.674   1.433  0.5721  0.2753 -0.6575
 3228TIP3   OH231318   0.775   1.206   1.120  0.0966 -0.2531  0.3125
 3228TIP3    H131319   0.763   1.182   1.212  1.7945  0.9625  0.8945
 3228TIP3    H231320   0.841   1.145   1.087  0.1492 -0.1155  0.1602
 3229TIP3   OH231321   2.515   0.562   2.097 -0.1953 -0.5152 -0.3192
 3229TIP3    H131322   2.462   0.512   2.158  1.0866 -0.6379  0.7388
 3229TIP3    H231323   2.486   0.534   2.010 -2.0101 -0.3782  0.2109
 3230TIP3   OH231324   0.220   1.806   3.038 -0.0786 -0.2526  0.1342
 3230TIP3    H131325   0.250   1.777   2.952 -0.3534  0.5224 -0.2359
 3230TIP3    H231326   0.145   1.749   3.058 -1.4043  0.9435 -1.1439
 3231TIP3   OH231327   0.301   2.060   2.943 -0.4381 -0.7613 -0.2711
 3231TIP3    H131328   0.242   2.025   3.010  0.5647 -1.2553  0.3864
 3231TIP3    H231329   0.389   2.043   2.978  0.1014  1.3443 -0.4841
 3232TIP3   OH231330   2.501   1.934   2.686  0.1340  0.0551  0.1809
 3232TIP3    H131331   2.526   2.009   2.739  0.9398 -0.2055  0.1909
 3232TIP3    H231332   2.524   1.959   2.596 -0.7027  0.2763  0.0186
 3233TIP3   OH231333   2.290   0.019   4.865  0.1168 -0.2675  0.1447
 3233TIP3    H131334   2.240   0.042   4.943  1.3964 -0.8671  1.1753
 3233TIP3    H231335   2.235   0.048   4.792 -0.8396  0.8455  1.2669
 3234TIP3   OH231336   0.837   2.884   3.488  0.5051 -0.2304  0.1099
 3234TIP3    H131337   0.816   2.819   3.555  2.0847  0.6175  1.4856
 3234TIP3    H231338   0.929   2.867   3.467 -0.3631 -1.6703 -3.2654
 3235TIP3   OH231339   0.478   2.729   4.330 -0.1294 -0.0578 -0.0508
 3235TIP3    H131340   0.397   2.759   4.289 -0.5206 -0.3941  0.4467
 3235TIP3    H231341   0.450   2.654   4.383  0.2880  0.5875  1.1062
 3236TIP3   OH231342   3.194   0.747   2.240  0.1740 -0.3407  0.3093
 3236TIP3    H131343   3.245   0.675   2.278 -0.1511  0.2776  1.9895
 3236TIP3    H231344   3.134   0.773   2.310  0.2481  1.5288 -0.2869
 3237TIP3   OH231345   1.423   1.577   3.745 -0.2943  0.0197 -0.4720
 3237TIP3    H131346   1.403   1.512   3.678  1.1093  0.5707 -1.4740
 3237TIP3    H231347   1.459   1.526   3.818 -1.9237 -0.5949 -0.0559
 3238TIP3   OH231348   5.201   4.109   2.875 -0.1199  0.7439 -0.3100
 3238TIP3    H131349   5.281   4.131   2.827  0.0187 -3.1031 -2.2361
 3238TIP3    H231350   5.221   4.132   2.966  3.3370 -0.2271 -0.6507
 3239TIP3   OH231351   5.184   6.585   3.534 -0.1954 -0.0379  0.1514
 3239TIP3    H131352   5.162   6.677   3.519  1.4558  0.5712  1.2023
 3239TIP3    H231353   5.245   6.563   3.465 -0.3735 -0.2759  0.0665
 3240TIP3   OH231354   4.735   5.864   4.444 -0.2284 -0.8132 -0.2106
 3240TIP3    H131355   4.709   5.879   4.534 -2.2907 -1.0497 -0.7239
 3240TIP3    H231356   4.824   5.899   4.438 -0.4715  0.1877  1.6166
 3241TIP3   OH231357   2.150   2.727   3.358  0.1623  0.0558  0.0904
 3241TIP3    H131358   2.111   2.640   3.364  1.1280 -0.3338  1.3628
 3241TIP3    H231359   2.077   2.787   3.372 -1.0256 -0.3715 -3.3756
 3242TIP3   OH231360   5.840   1.757   3.699  0.7389 -0.1551  0.3340
 3242TIP3    H131361   5.807   1.703   3.628 -1.1306  0.7837  0.4320
 3242TIP3    H231362   5.917   1.801   3.663  0.3740 -0.4172 -0.7850
 3243TIP3   OH231363   4.690   2.373   0.901 -0.1891 -0.1061 -0.4204
 3243TIP3    H131364   4.729   2.460   0.901 -0.7102  0.1496 -1.6185
 3243TIP3    H231365   4.731   2.328   0.828  0.5160 -1.0967  0.5528
 3244TIP3   OH231366   2.685   0.701   2.362 -0.0609 -0.2428  0.0497
 3244TIP3    H131367   2.604   0.729   2.320 -0.0830 -1.4888 -0.8196
 3244TIP3    H231368   2.668   0.710   2.456 -0.7206  0.7628 -0.1535
 3245TIP3   OH231369   6.460   0.719   1.674  0.0443  0.1180  0.0200
 3245TIP3    H131370   6.365   0.707   1.667 -0.0330 -0.3789  1.5589
 3245TIP3    H231371   6.496   0.631   1.665  0.3736  0.3023 -0.5344
 3246TIP3   OH231372   0.995   2.228   4.454  0.3356 -0.4959  0.3926
 3246TIP3    H131373   1.088   2.243   4.437 -0.1513  0.5647 -1.6286
 3246TIP3    H231374   0.956   2.315   4.456 -0.5438 -0.8899  1.8957
 3247TIP3   OH231375   0.287   1.191   3.770  0.2716 -0.1518 -0.2082
 3247TIP3    H131376   0.193   1.211   3.770  0.4532  0.9205  1.4070
 3247TIP3    H231377   0.310   1.183   3.678 -1.5598 -1.2471 -0.6172
 3248TIP3   OH231378   2.583   4.748   2.377 -0.1972  0.6192  0.8704
 3248TIP3    H131379   2.531   4.814   2.422 -0.5051 -0.5730  2.3531
 3248TIP3    H231380   2.572   4.669   2.430  2.1843  0.0119  0.5900
 3249TIP3   OH231381   2.840   0.661   3.556 -0.1239 -0.2505 -0.3167
 3249TIP3    H131382   2.924   0.705   3.568 -0.2709 -0.1370  0.3462
 3249TIP3    H231383   2.784   0.727   3.516  0.7853 -1.0719 -3.1433
 3250TIP3   OH231384   2.164   1.315   2.105  0.3928  0.7489 -0.0337
 3250TIP3    H131385   2.202   1.399   2.078  1.1506  0.5476  0.3868
 3250TIP3    H231386   2.196   1.252   2.040 -0.7675  0.9013 -0.7728
 3251TIP3   OH231387   6.178   4.922   3.930 -0.0147 -0.1143  0.3803
 3251TIP3    H131388   6.107   4.955   3.875  0.6649  2.1731  0.7995
 3251TIP3    H231389   6.212   4.847   3.881 -1.7380 -0.3464 -0.5349
 3252TIP3   OH231390   3.931   4.777   4.028  0.1846 -0.2334 -0.6518
 3252TIP3    H131391   3.878   4.777   4.108  1.6094 -0.8614  0.3542
 3252TIP3    H231392   3.907   4.857   3.982 -1.1174 -0.1695  0.0959
 3253TIP3   OH231393   6.271   3.184   5.225 -0.5077 -0.4489  0.6582
 3253TIP3    H131394   6.216   3.141   5.291 -2.4500 -0.3681 -0.8185
 3253TIP3    H231395   6.302   3.112   5.169 -2.8570 -0.1767 -1.1536
 3254TIP3   OH231396   6.381   0.228   3.257  0.6157 -0.0468  0.3016
 3254TIP3    H131397   6.408   0.270   3.175 -0.3779  1.9326  0.9390
 3254TIP3    H231398   6.315   0.286   3.294 -1.8442 -2.8066  0.6354
 3255TIP3   OH231399   3.274   0.300   5.569 -0.3205 -0.2363 -0.0034
 3255TIP3    H131400   3.194   0.248   5.571 -0.8250  0.5005 -0.6094
 3255TIP3    H231401   3.246   0.389   5.591  0.3808 -0.0200  0.0517
 3256TIP3   OH231402   3.212   0.050   1.897 -0.7231 -0.8845  0.4428
 3256TIP3    H131403   3.139   0.084   1.845  0.2903 -0.6755 -0.8897
 3256TIP3    H231404   3.180  -0.035   1.928 -1.8748 -0.3930  0.6851
 3257TIP3   OH231405   6.092   1.374   2.850 -0.6148  0.1400  0.0045
 3257TIP3    H131406   6.039   1.418   2.784 -0.6155 -0.5386 -0.4596
 3257TIP3    H231407   6.028   1.335   2.910 -0.6150  1.5517  0.9732
 3258TIP3   OH231408   0.763   4.949   2.055  1.0065 -0.3027 -0.8905
 3258TIP3    H131409   0.757   4.861   2.090  2.0676 -0.0515 -0.0128
 3258TIP3    H231410   0.856   4.970   2.057  0.6028  1.8542  1.6265
 3259TIP3   OH231411   4.074   2.235   1.976 -0.1042  0.2152 -0.1487
 3259TIP3    H131412   4.033   2.209   1.893  2.2826 -1.3486 -0.9356
 3259TIP3    H231413   4.016   2.303   2.011 -1.3224  0.7599 -2.9559
 3260TIP3   OH231414   2.431   3.756   0.595 -0.2954  0.3234  0.3801
 3260TIP3    H131415   2.423   3.772   0.689  0.2822  3.2686  0.0329
 3260TIP3    H231416   2.514   3.797   0.570  0.1353 -1.3617 -1.2879
 3261TIP3   OH231417   3.865   5.990   1.434  0.3151  0.7647  0.5027
 3261TIP3    H131418   3.945   5.938   1.432 -0.8895 -1.1838 -0.1293
 3261TIP3    H231419   3.863   6.028   1.522  0.2985 -1.9664  1.7803
 3262TIP3   OH231420   3.204   0.468   5.204  0.1844  0.3665  0.1508
 3262TIP3    H131421   3.287   0.448   5.248  0.1648  1.5860  0.7695
 3262TIP3    H231422   3.140   0.473   5.274 -0.1100  0.9929 -0.1560
 3263TIP3   OH231423   5.592   6.534   5.265 -0.0327 -0.3863  0.1506
 3263TIP3    H131424   5.614   6.451   5.223 -3.5871 -0.6546 -1.5014
 3263TIP3    H231425   5.661   6.594   5.236  1.6864 -2.2969  0.0345
 3264TIP3   OH231426   2.390   3.146   2.360  0.9341 -0.6638  0.2264
 3264TIP3    H131427   2.371   3.222   2.305  1.2489  0.2083  1.2954
 3264TIP3    H231428   2.468   3.171   2.409  1.3490 -1.8871  0.2293
 3265TIP3   OH231429   2.190   6.040   3.940 -0.4454  0.0266 -0.6023
 3265TIP3    H131430   2.263   6.038   3.878  0.5100 -0.8130  0.5128
 3265TIP3    H231431   2.191   6.129   3.975 -0.7817  0.4057 -1.5119
 3266TIP3   OH231432   5.084   3.133   1.599  0.0602 -0.3033 -0.6615
 3266TIP3    H131433   5.042   3.051   1.627  0.2905 -1.2767 -2.9938
 3266TIP3    H231434   5.142   3.108   1.528  0.6227  1.8242 -1.0261
 3267TIP3   OH231435   4.460   1.741   1.953  0.1194 -0.3045  0.1921
 3267TIP3    H131436   4.413   1.660   1.973  1.9901 -1.1385  1.4477
 3267TIP3    H231437   4.553   1.718   1.958  0.7171  1.4971 -1.3001
 3268TIP3   OH231438   1.102   6.668   3.937 -0.0684 -0.4657 -0.6154
 3268TIP3    H131439   1.043   6.743   3.922  0.3627  0.3512  1.4406
 3268TIP3    H231440   1.119   6.633   3.850 -0.2259  1.8965 -1.6676
 3269TIP3   OH231441   6.680   3.094   3.055  0.1799 -0.0116 -0.3421
 3269TIP3    H131442   6.664   3.183   3.087 -0.8015 -0.6755  1.1249
 3269TIP3    H231443   6.767   3.072   3.090 -0.1481 -0.0922  0.4603
 3270TIP3   OH231444   1.275   4.675   1.756  0.2180  0.0367  0.0384
 3270TIP3    H131445   1.359   4.632   1.773  1.0157 -0.3202 -3.9622
 3270TIP3    H231446   1.298   4.754   1.708 -1.6790  0.9166  0.5092
 3271TIP3   OH231447   0.162   3.856   2.282 -0.3919  0.4518  0.3693
 3271TIP3    H131448   0.168   3.886   2.373  0.7774  1.1058  0.0983
 3271TIP3    H231449   0.173   3.761   2.287 -2.1071  0.2389  1.0464
 3272TIP3   OH231450   4.593   5.309   4.538  0.0519  0.3312 -0.3309
 3272TIP3    H131451   4.507   5.302   4.497 -0.5332  2.2369  0.4809
 3272TIP3    H231452   4.623   5.397   4.515  1.9084 -0.3634 -0.7637
 3273TIP3   OH231453   5.778   4.820   1.869 -0.0943  0.2553 -0.1170
 3273TIP3    H131454   5.788   4.737   1.823 -0.5335  0.0192  0.2098
 3273TIP3    H231455   5.700   4.809   1.924  0.2873  0.6067  0.5189
 3274TIP3   OH231456   1.987   6.068   3.288  0.1948  0.3730 -0.0446
 3274TIP3    H131457   2.076   6.062   3.322  0.1999  0.6818  0.0007
 3274TIP3    H231458   1.948   6.142   3.334 -0.7110 -0.8983  1.3223
 3275TIP3   OH231459   1.436   0.535   0.538  0.1988  0.4469  0.6412
 3275TIP3    H131460   1.413   0.488   0.458 -0.7851  2.3150 -0.2430
 3275TIP3    H231461   1.363   0.517   0.597 -0.2040  0.8579  0.2843
 3276TIP3   OH231462   3.595   2.105   2.929 -0.7845 -0.3882 -0.5533
 3276TIP3    H131463   3.690   2.101   2.917 -1.0473 -2.5541 -2.8425
 3276TIP3    H231464   3.575   2.030   2.985 -1.1853 -0.1487 -0.3713
 3277TIP3   OH231465   3.688   2.866   3.221  0.0889 -0.0511 -0.0370
 3277TIP3    H131466   3.648   2.830   3.300  2.3400  0.1663  1.2821
 3277TIP3    H231467   3.746   2.796   3.190 -0.4323  0.0330 -1.2787
 3278TIP3   OH231468   1.607   2.818   0.122  0.2233  0.4267  0.2446
 3278TIP3    H131469   1.636   2.903   0.153  0.0233  0.1786  1.1232
 3278TIP3    H231470   1.647   2.755   0.181 -2.0601  0.0683  1.5227
 3279TIP3   OH231471   1.868   0.828   4.546 -0.2336  0.0704 -0.2159
 3279TIP3    H131472   1.831   0.760   4.489 -0.7498 -2.3928  2.8000
 3279TIP3    H231473   1.811   0.904   4.533 -1.8104 -1.2165 -1.1589
 3280TIP3   OH231474   6.367   6.693   1.532  0.3662 -0.2585  0.3427
 3280TIP3    H131475   6.347   6.599   1.529 -0.9450  0.0283 -1.3371
 3280TIP3    H231476   6.455   6.697   1.570  0.9244 -2.2322 -0.5873
 3281TIP3   OH231477   3.937   3.302   5.454 -0.0554 -0.0096 -0.2719
 3281TIP3    H131478   4.001   3.271   5.518 -0.6740  1.3734  1.1081
 3281TIP3    H231479   3.888   3.224   5.429  1.5742 -0.9253 -0.6729
 3282TIP3   OH231480   5.209   2.734   1.649  0.0493 -0.0268 -0.2214
 3282TIP3    H131481   5.138   2.786   1.687  1.1386  0.5737  1.0379
 3282TIP3    H231482   5.169   2.649   1.631 -0.9204  0.1962  0.7644
 3283TIP3   OH231483   2.724   0.346   5.416 -0.3851  0.2643  0.0395
 3283TIP3    H131484   2.640   0.391   5.421  0.3842  1.7848  0.1088
 3283TIP3    H231485   2.738   0.312   5.504 -0.5603  0.7264  0.2511
 3284TIP3   OH231486   2.410   4.268   4.929 -0.3369 -0.1365 -1.0796
 3284TIP3    H131487   2.373   4.319   5.001  0.7928  0.6347 -1.0067
 3284TIP3    H231488   2.422   4.180   4.966 -1.4129 -0.2198 -0.8988
 3285TIP3   OH231489   6.249   5.390   4.823  0.3797 -0.3602  0.6460
 3285TIP3    H131490   6.194   5.449   4.772  1.2459 -0.3603 -0.3277
 3285TIP3    H231491   6.226   5.302   4.792  0.6157 -0.3888  0.5466
 3286TIP3   OH231492   4.610   1.423   0.910 -0.2711  0.2761  0.2966
 3286TIP3    H131493   4.577   1.430   0.820 -0.0697  0.5046  0.2417
 3286TIP3    H231494   4.653   1.506   0.927  0.1349  0.0427  0.4265
 3287TIP3   OH231495   6.431   0.320   4.668 -0.2720  0.1420 -0.8462
 3287TIP3    H131496   6.374   0.282   4.735 -0.1442 -2.4236 -2.0553
 3287TIP3    H231497   6.373   0.367   4.610 -0.6535  0.6256 -0.0841
 3288TIP3   OH231498   3.800   0.533   2.243  0.9771 -0.1244 -0.0637
 3288TIP3    H131499   3.811   0.553   2.336  1.2645 -0.8085  0.0501
 3288TIP3    H231500   3.849   0.452   2.229  0.6813 -0.1932 -0.7491
 3289TIP3   OH231501   4.095   2.250   4.540 -0.1021  0.4136 -0.2797
 3289TIP3    H131502   4.174   2.292   4.573  0.3954 -0.5072 -0.2566
 3289TIP3    H231503   4.032   2.321   4.531  1.0680  1.3540 -1.3608
 3290TIP3   OH231504   3.559   0.569   3.242 -0.0639  0.5075 -0.0427
 3290TIP3    H131505   3.538   0.545   3.332  1.9310  0.6227  0.4936
 3290TIP3    H231506   3.577   0.486   3.198 -0.5783  0.4874 -0.2225
 3291TIP3   OH231507   2.965   2.519   4.096 -0.3828  0.4664  0.2670
 3291TIP3    H131508   2.989   2.598   4.144 -0.3980 -0.0785  1.1942
 3291TIP3    H231509   3.009   2.447   4.143 -0.7790 -0.1319 -0.2531
 3292TIP3   OH231510   1.186   3.777   1.241  0.2190 -0.3212  0.5111
 3292TIP3    H131511   1.228   3.767   1.155 -0.6069  0.8869 -0.0675
 3292TIP3    H231512   1.190   3.690   1.280 -0.1738 -1.1139 -1.1349
 3293TIP3   OH231513   1.551   4.284   4.524 -0.3462  0.1765 -0.7291
 3293TIP3    H131514   1.609   4.359   4.512 -1.0340  1.0726  1.0308
 3293TIP3    H231515   1.500   4.279   4.443  1.0734  0.3366 -1.6645
 3294TIP3   OH231516   2.427   5.860   1.219  0.5101  0.5681 -0.3528
 3294TIP3    H131517   2.506   5.855   1.274  0.6553 -0.4621 -0.6300
 3294TIP3    H231518   2.419   5.953   1.197 -0.0320  1.1610  2.0952
 3295TIP3   OH231519   0.309   3.426   3.501  0.2102  0.4836 -0.2354
 3295TIP3    H131520   0.400   3.401   3.516 -0.0896 -0.4294  0.1754
 3295TIP3    H231521   0.310   3.522   3.498  1.3331  0.4646 -1.2826
 3296TIP3   OH231522   5.881   1.697   5.418 -0.5748 -0.2965 -0.0379
 3296TIP3    H131523   5.939   1.772   5.405 -0.7746  0.0160  0.7660
 3296TIP3    H231524   5.800   1.722   5.374 -0.9899  0.4226  1.0684
 3297TIP3   OH231525   5.618   1.862   4.126  0.1932  0.1459  0.0574
 3297TIP3    H131526   5.581   1.947   4.151 -2.3545 -0.8820  0.0173
 3297TIP3    H231527   5.612   1.860   4.031 -0.3069 -0.3297  0.1011
 3298TIP3   OH231528   0.139   4.469   4.022  0.8840  0.2113  0.2388
 3298TIP3    H131529   0.157   4.406   4.092  0.8028  0.6409  0.6474
 3298TIP3    H231530   0.226   4.491   3.987  0.9443  0.2050  0.3855
 3299TIP3   OH231531   3.280   1.340   3.720 -0.3465 -0.1163  0.0887
 3299TIP3    H131532   3.187   1.332   3.739 -0.2593 -2.3287 -0.0984
 3299TIP3    H231533   3.316   1.387   3.794 -1.7315  1.7070 -0.3191
 3300TIP3   OH231534   4.723   5.634   1.760 -0.7407  0.6125 -0.3731
 3300TIP3    H131535   4.797   5.576   1.745 -0.7420  0.6999 -0.7423
 3300TIP3    H231536   4.755   5.721   1.733 -0.8116  0.7402 -0.0471
 3301TIP3   OH231537   1.288   6.733   1.568 -0.1067 -0.6040 -0.0846
 3301TIP3    H131538   1.265   6.821   1.538  0.7337 -0.8406 -1.5052
 3301TIP3    H231539   1.206   6.697   1.601 -0.5463  0.5633  0.1278
 3302TIP3   OH231540   3.382   1.432   4.877  0.4411  0.4398  0.2827
 3302TIP3    H131541   3.292   1.465   4.876  0.4410  0.5590  1.8712
 3302TIP3    H231542   3.410   1.441   4.968  1.4347 -1.2972  0.1927
 3303TIP3   OH231543   6.506   0.525   3.987 -0.2629 -0.0303 -0.3241
 3303TIP3    H131544   6.498   0.450   4.046 -0.2131 -0.5285 -0.9423
 3303TIP3    H231545   6.592   0.563   4.007  0.4301 -1.1143 -1.1178
 3304TIP3   OH231546   1.373   5.475   0.610  0.1934 -0.0299  1.1583
 3304TIP3    H131547   1.432   5.451   0.538  0.6523 -2.2651  2.1901
 3304TIP3    H231548   1.382   5.570   0.617  1.2333  0.0802 -0.7731
 3305TIP3   OH231549   0.173   5.667   3.198 -0.0255  0.4072  0.5487
 3305TIP3    H131550   0.249   5.678   3.254  1.0186 -0.6402 -0.6023
 3305TIP3    H231551   0.198   5.598   3.137 -1.2905  1.1702 -0.8978
 3306TIP3   OH231552   3.996   6.294   2.720 -0.2089  0.2682  0.2401
 3306TIP3    H131553   3.910   6.260   2.697 -0.3251  0.4984  0.3344
 3306TIP3    H231554   4.014   6.256   2.806  0.0815 -0.3251 -0.0725
 3307TIP3   OH231555   4.207   3.864   4.115  0.2682 -0.4216 -0.5171
 3307TIP3    H131556   4.279   3.926   4.118 -0.2914  0.2145 -0.0379
 3307TIP3    H231557   4.185   3.848   4.207 -1.3570  0.7851 -0.6456
 3308TIP3   OH231558   2.409   4.008   1.154 -0.5157 -0.2829 -0.2118
 3308TIP3    H131559   2.504   4.010   1.142 -0.5123  1.5277 -0.1756
 3308TIP3    H231560   2.377   4.085   1.107 -1.8460 -0.2424  0.6816
 3309TIP3   OH231561   3.852   1.988   3.276  0.4550 -0.5228  0.3952
 3309TIP3    H131562   3.783   1.945   3.328  0.9391  0.0849  1.5712
 3309TIP3    H231563   3.918   1.919   3.263  0.1958 -0.7596  0.3116
 3310TIP3   OH231564   3.851   5.575   2.484  0.0605  0.1988  0.6258
 3310TIP3    H131565   3.777   5.551   2.429  0.5959  2.9497 -1.4888
 3310TIP3    H231566   3.811   5.596   2.569 -1.6185  1.5591 -0.4346
 3311TIP3   OH231567   4.475   2.667   0.522  0.0267  0.5761  0.3940
 3311TIP3    H131568   4.480   2.756   0.557  1.3679  0.3128  0.9567
 3311TIP3    H231569   4.479   2.611   0.599 -0.0533  0.0254 -0.0022
 3312TIP3   OH231570   0.725   5.318   2.281 -0.0978 -0.5879 -0.5903
 3312TIP3    H131571   0.734   5.351   2.191  0.4596  2.9012  0.6156
 3312TIP3    H231572   0.680   5.388   2.328  1.5814 -1.3465  2.3801
 3313TIP3   OH231573   5.744   0.838   1.737 -0.6221  0.2195  0.2988
 3313TIP3    H131574   5.667   0.784   1.756 -1.3155  1.4489  1.1140
 3313TIP3    H231575   5.751   0.898   1.811  0.6207  0.7018 -0.1748
 3314TIP3   OH231576   2.838   4.736   4.272 -0.6050 -0.0176 -0.2752
 3314TIP3    H131577   2.871   4.783   4.349 -0.6915  0.1998 -0.3680
 3314TIP3    H231578   2.775   4.797   4.232 -2.2282 -0.9897  0.6939
 3315TIP3   OH231579   3.130   3.015   1.069 -0.4396 -0.2715 -0.4083
 3315TIP3    H131580   3.107   3.070   1.144  1.6562  0.3754 -0.1799
 3315TIP3    H231581   3.225   3.021   1.063 -0.4859 -0.8618 -2.7304
 3316TIP3   OH231582   6.040   5.431   3.892  0.8836 -0.3908 -0.8340
 3316TIP3    H131583   6.074   5.521   3.888  0.0567  0.0659  1.0794
 3316TIP3    H231584   5.950   5.438   3.859  0.8276 -0.5080 -0.7081
 3317TIP3   OH231585   3.573   0.080   1.583 -0.3258 -0.3427  0.1414
 3317TIP3    H131586   3.609   0.115   1.501 -0.2440 -2.2016 -0.6534
 3317TIP3    H231587   3.481   0.104   1.581 -0.5366 -1.1790 -0.9738
 3318TIP3   OH231588   4.194   3.858   3.841 -0.4253  0.3491 -0.6543
 3318TIP3    H131589   4.170   3.949   3.823  3.7373  1.5802 -0.9290
 3318TIP3    H231590   4.183   3.849   3.936 -2.4981  0.4989 -0.8349
 3319TIP3   OH231591   0.139   4.171   2.787 -0.0268 -0.2347 -0.0655
 3319TIP3    H131592   0.180   4.090   2.816  1.3267  0.6854  0.7111
 3319TIP3    H231593   0.053   4.172   2.828  0.4303 -0.7101  0.9356
 3320TIP3   OH231594   5.937   0.328   2.767 -0.1410  0.1266 -0.0774
 3320TIP3    H131595   5.844   0.348   2.753 -0.3184  0.2171  1.1507
 3320TIP3    H231596   5.941   0.295   2.856  0.6043 -2.4323 -0.9479
 3321TIP3   OH231597   2.852   6.507   2.685 -0.0318 -0.1674 -0.0882
 3321TIP3    H131598   2.759   6.508   2.663 -0.0190 -1.5934 -0.2898
 3321TIP3    H231599   2.893   6.562   2.618 -0.7109  0.4336 -0.0246
 3322TIP3   OH231600   4.300   5.341   1.466 -0.0487  0.0809 -0.2822
 3322TIP3    H131601   4.262   5.421   1.503 -0.0003  0.7096 -1.5276
 3322TIP3    H231602   4.388   5.366   1.440  0.2783 -0.6332  0.1265
 3323TIP3   OH231603   5.881   3.030   1.567  0.4947 -0.8607  0.2258
 3323TIP3    H131604   5.902   3.057   1.656  2.0223  0.7890 -0.5719
 3323TIP3    H231605   5.928   3.092   1.511 -1.2730 -1.1638 -1.7483
 3324TIP3   OH231606   3.485   6.514   0.883 -0.2743 -0.6175  0.1035
 3324TIP3    H131607   3.505   6.570   0.959  0.5952 -0.0976 -0.4931
 3324TIP3    H231608   3.425   6.566   0.830 -0.3211 -0.6940  0.0815
 3325TIP3   OH231609   4.877   4.581   5.408  0.4567  0.1164  0.5815
 3325TIP3    H131610   4.875   4.518   5.479  0.2569 -0.2059  0.2964
 3325TIP3    H231611   4.966   4.616   5.408  1.1255 -1.4646 -0.3757
 3326TIP3   OH231612   3.765   2.461   2.578  0.2026  0.1871  0.0867
 3326TIP3    H131613   3.791   2.457   2.670  0.7667 -0.9106 -0.1011
 3326TIP3    H231614   3.751   2.554   2.560 -0.7427  0.3521  1.5012
 3327TIP3   OH231615   1.711   1.674   1.317 -0.4659 -0.2501  0.0425
 3327TIP3    H131616   1.625   1.656   1.355  0.1054  0.4158  1.7568
 3327TIP3    H231617   1.771   1.669   1.391  0.6534  1.6513 -0.6692
 3328TIP3   OH231618   6.338   5.613   1.531  0.2268 -0.3270 -0.4182
 3328TIP3    H131619   6.299   5.690   1.489  0.3703 -0.2965 -0.4957
 3328TIP3    H231620   6.388   5.648   1.604 -0.7437 -0.4493  0.3274
 3329TIP3   OH231621   2.310   2.858   0.569 -0.5409 -0.0627 -0.3971
 3329TIP3    H131622   2.273   2.790   0.512  0.0927 -2.0739  1.4477
 3329TIP3    H231623   2.361   2.914   0.510  0.8614 -2.5921 -1.7649
 3330TIP3   OH231624   4.506   5.978   2.604  0.3738  0.2665 -0.1072
 3330TIP3    H131625   4.489   5.887   2.582  1.0266  0.4112 -1.2793
 3330TIP3    H231626   4.555   6.012   2.530  0.2375  1.5482  0.3636
 3331TIP3   OH231627   2.180   0.334   5.179 -0.3699 -0.3895 -0.3066
 3331TIP3    H131628   2.196   0.311   5.271  2.1298 -0.4574 -0.6974
 3331TIP3    H231629   2.170   0.250   5.135 -0.1580 -0.4105 -0.3158
 3332TIP3   OH231630   3.037   3.858   2.991  0.5162 -0.7496  0.1166
 3332TIP3    H131631   3.083   3.819   2.917  1.3716  3.0561 -1.5870
 3332TIP3    H231632   3.105   3.901   3.042 -0.3582 -1.3915  1.9305
 3333TIP3   OH231633   1.642   5.354   3.415 -0.4722  0.1820 -0.9384
 3333TIP3    H131634   1.591   5.435   3.427  1.3151  1.1857  0.3377
 3333TIP3    H231635   1.656   5.321   3.503  2.5358  0.9237 -1.0249
 3334TIP3   OH231636   3.876   2.387   2.106 -0.3012  0.3989 -0.4179
 3334TIP3    H131637   3.830   2.466   2.079 -0.3259  1.1804  1.6985
 3334TIP3    H231638   3.850   2.375   2.198  2.6088  0.1107  0.4743
 3335TIP3   OH231639   3.041   1.690   0.167 -0.0232 -0.1461 -0.2524
 3335TIP3    H131640   3.017   1.723   0.080 -0.7907  1.5332  0.5744
 3335TIP3    H231641   2.959   1.687   0.215  0.7387  1.3799  1.2136
 3336TIP3   OH231642   0.872   2.880   1.998 -0.0557  0.4745 -0.2605
 3336TIP3    H131643   0.922   2.799   2.003 -0.9923 -0.0867  0.3277
 3336TIP3    H231644   0.822   2.873   1.916 -0.6604  0.1327  0.1302
 3337TIP3   OH231645   3.491   4.625   2.224 -0.3466 -0.5801 -0.3161
 3337TIP3    H131646   3.514   4.702   2.274 -1.8634  0.4032 -1.0386
 3337TIP3    H231647   3.400   4.607   2.249 -0.6395 -0.9551 -1.5896
 3338TIP3   OH231648   4.216   1.206   2.452  0.1537 -0.3229 -0.0294
 3338TIP3    H131649   4.207   1.279   2.513  0.4968 -0.5436  0.2919
 3338TIP3    H231650   4.217   1.128   2.508 -2.1183 -0.7311 -0.4881
 3339TIP3   OH231651   2.058   5.172   3.430  0.1306  0.6317 -0.7129
 3339TIP3    H131652   1.995   5.241   3.407  0.8437  0.8979 -1.9731
 3339TIP3    H231653   2.086   5.136   3.345 -0.5137 -1.5088 -0.0939
 3340TIP3   OH231654   2.213   5.646   1.606 -1.1054  0.1898 -0.3391
 3340TIP3    H131655   2.220   5.667   1.513  0.4555 -0.6768 -0.4438
 3340TIP3    H231656   2.246   5.557   1.613  2.4228  1.4380  1.5153
 3341TIP3   OH231657   4.678   4.159   4.534  0.2486 -0.0730 -0.1119
 3341TIP3    H131658   4.650   4.068   4.549  1.0801 -0.1437  1.1624
 3341TIP3    H231659   4.720   4.184   4.616  2.4751  0.5536 -1.3888
 3342TIP3   OH231660   1.677   4.149   2.962  0.2511  0.2301  0.1488
 3342TIP3    H131661   1.725   4.230   2.949  1.4683 -0.4897 -0.0762
 3342TIP3    H231662   1.638   4.158   3.049  2.9339 -0.1152  1.5180
 3343TIP3   OH231663   2.864   1.913   3.703 -0.6794 -0.3937 -0.3898
 3343TIP3    H131664   2.829   2.002   3.712  0.3066  0.1110 -1.3005
 3343TIP3    H231665   2.852   1.874   3.790  0.6539  1.2918  0.6217
 3344TIP3   OH231666   3.710   3.533   0.294  0.3608  0.5520 -0.4939
 3344TIP3    H131667   3.709   3.625   0.320  0.8641  0.7131 -1.0331
 3344TIP3    H231668   3.760   3.531   0.213 -0.5984 -0.0454 -1.0887
 3345TIP3   OH231669   1.526   0.973   1.571  0.1363  0.4829 -0.0400
 3345TIP3    H131670   1.518   0.897   1.514  0.3650  0.0086  0.5615
 3345TIP3    H231671   1.536   0.937   1.659 -1.0790  1.2093  0.4196
 3346TIP3   OH231672   5.796   2.775   2.663  0.4121 -0.6514  0.1184
 3346TIP3    H131673   5.710   2.818   2.652 -0.2233 -2.0264 -0.4765
 3346TIP3    H231674   5.859   2.840   2.632 -0.3862  0.4312  0.6646
 3347TIP3   OH231675   6.752   2.160   5.204  0.3829 -0.5731  0.3366
 3347TIP3    H131676   6.676   2.113   5.170 -1.2520  0.5585  2.1666
 3347TIP3    H231677   6.770   2.118   5.288 -0.5679  1.4175  1.6021
 3348TIP3   OH231678   2.569   6.322   3.833  0.2248 -0.7288  0.2000
 3348TIP3    H131679   2.570   6.292   3.924 -0.7907 -0.0647  0.4479
 3348TIP3    H231680   2.575   6.417   3.839  0.5674 -0.7063 -0.4439
 3349TIP3   OH231681   3.467   6.724   1.889  0.5595 -0.0229  0.8806
 3349TIP3    H131682   3.382   6.765   1.876  1.4826  1.6527 -0.2657
 3349TIP3    H231683   3.529   6.797   1.892  2.2617 -1.2802 -0.9482
 3350TIP3   OH231684   3.502   4.316   4.828 -0.7001 -0.1185 -0.1012
 3350TIP3    H131685   3.436   4.311   4.897 -0.9649  1.1789 -0.2281
 3350TIP3    H231686   3.574   4.260   4.858 -1.7767 -1.4322  0.1107
 3351TIP3   OH231687   3.106   6.051   2.385 -0.0642  0.3101 -0.1789
 3351TIP3    H131688   3.086   6.040   2.478 -1.6220  3.0221 -0.0646
 3351TIP3    H231689   3.187   6.102   2.384 -0.9410  1.7599 -0.1971
 3352TIP3   OH231690   5.417   3.210   3.337  1.0968  0.3919 -0.9309
 3352TIP3    H131691   5.512   3.220   3.347  0.9697  0.0993  1.0970
 3352TIP3    H231692   5.385   3.297   3.313  1.8039  0.6793 -0.8426
 3353TIP3   OH231693   4.296   5.158   4.606  0.0956  0.3649 -0.2206
 3353TIP3    H131694   4.292   5.203   4.691 -2.1974  0.5671 -0.3760
 3353TIP3    H231695   4.276   5.225   4.542  0.9255  0.0093 -0.8755
 3354TIP3   OH231696   4.564   1.238   2.945 -0.2853  0.2074  0.4274
 3354TIP3    H131697   4.592   1.307   2.884  0.0113 -0.9779 -0.8200
 3354TIP3    H231698   4.596   1.157   2.906 -0.0988 -0.6065  2.1714
 3355TIP3   OH231699   4.424   6.123   1.396  0.2982  0.0949 -0.3775
 3355TIP3    H131700   4.369   6.050   1.422 -0.5718  0.6090 -0.7069
 3355TIP3    H231701   4.504   6.083   1.362 -0.2463 -0.7076 -0.7411
 3356TIP3   OH231702   3.487   1.894   2.725  0.6252  0.0214 -0.2480
 3356TIP3    H131703   3.491   1.824   2.790  0.6295  0.3454  0.1011
 3356TIP3    H231704   3.535   1.859   2.650  1.7695  0.1436  0.3957
 3357TIP3   OH231705   2.368   2.539   3.429  0.3585 -0.3554 -0.3463
 3357TIP3    H131706   2.369   2.634   3.440  0.4304 -0.3256 -0.6184
 3357TIP3    H231707   2.353   2.525   3.336 -0.3816 -0.6186 -0.1995
 3358TIP3   OH231708   1.194   1.414   0.632  0.6940 -0.3894 -0.5015
 3358TIP3    H131709   1.202   1.437   0.724  1.3043  0.1409 -0.6737
 3358TIP3    H231710   1.273   1.362   0.613  1.3234  0.7434 -1.0682
 3359TIP3   OH231711   2.944   3.578   0.961  0.6039 -0.2044  0.3773
 3359TIP3    H131712   2.975   3.498   0.918  1.5626  0.6944 -0.6604
 3359TIP3    H231713   3.009   3.644   0.939 -0.6829  1.1085  0.3713
 3360TIP3   OH231714   0.259   4.620   2.265 -0.2053  0.1757  0.0353
 3360TIP3    H131715   0.198   4.591   2.333  0.7115  0.4885  1.0044
 3360TIP3    H231716   0.203   4.657   2.197 -1.0786  0.9156  1.1278
 3361TIP3   OH231717   1.388   2.812   1.391 -0.1861 -0.4273 -0.5762
 3361TIP3    H131718   1.446   2.744   1.357 -0.7495 -1.0486 -0.3150
 3361TIP3    H231719   1.338   2.841   1.315  0.7371  0.4094 -0.8917
 3362TIP3   OH231720   1.393   1.285   2.592 -0.5313 -0.3121  0.0459
 3362TIP3    H131721   1.486   1.308   2.601 -0.3298 -0.8008 -0.7043
 3362TIP3    H231722   1.373   1.302   2.500 -0.5918 -2.2626 -0.3578
 3363TIP3   OH231723   4.747   6.370   1.506 -0.1915 -0.3484  0.3105
 3363TIP3    H131724   4.818   6.344   1.447 -2.7807 -0.4820 -3.0236
 3363TIP3    H231725   4.749   6.465   1.506 -0.7640 -0.3143 -0.8997
 3364TIP3   OH231726   1.782   4.424   4.431 -0.5201 -0.2017  0.4053
 3364TIP3    H131727   1.790   4.478   4.353 -2.4453 -0.5478 -0.0865
 3364TIP3    H231728   1.869   4.427   4.471 -0.1330  1.9757 -0.4230
 3365TIP3   OH231729   5.258   5.058   4.891 -0.9709  0.1682 -0.0947
 3365TIP3    H131730   5.202   5.132   4.914 -1.1750  0.5171 -1.5950
 3365TIP3    H231731   5.318   5.049   4.965  0.2012  2.9345 -0.5918
 3366TIP3   OH231732   0.609   1.142   1.710 -0.2863  0.1603  0.0285
 3366TIP3    H131733   0.688   1.102   1.672  0.1296 -1.0658  2.0548
 3366TIP3    H231734   0.641   1.221   1.753 -0.1579 -0.2918  0.7770
 3367TIP3   OH231735   0.240   6.621   4.483 -0.4799  0.2856  0.4148
 3367TIP3    H131736   0.275   6.662   4.563  0.1958 -0.3683  0.4697
 3367TIP3    H231737   0.227   6.694   4.423  1.1090  0.5566  0.3620
 3368TIP3   OH231738   1.119   1.325   2.049 -0.1037 -0.0644  0.2471
 3368TIP3    H131739   1.155   1.246   2.089  0.3223  0.1240  0.2381
 3368TIP3    H231740   1.041   1.344   2.100 -0.2934 -0.5744  0.1584
 3369TIP3   OH231741   5.089   5.969   1.382  0.2878 -0.6614  0.0915
 3369TIP3    H131742   5.072   5.922   1.300 -0.2916 -1.1311  0.4793
 3369TIP3    H231743   5.030   6.044   1.379  1.9916  0.7219 -1.0495
 3370TIP3   OH231744   2.557   4.284   1.941 -0.1312  0.0551  0.0651
 3370TIP3    H131745   2.517   4.290   1.854  0.1227 -0.0847 -0.0607
 3370TIP3    H231746   2.619   4.356   1.944  2.3036 -1.8497 -1.1349
 3371TIP3   OH231747   1.726   2.143   5.442  0.2351  0.0720 -0.2576
 3371TIP3    H131748   1.790   2.201   5.400  1.8992 -0.2605  1.6554
 3371TIP3    H231749   1.667   2.117   5.372  2.8888 -0.5305 -2.4505
 3372TIP3   OH231750   2.800   2.764   3.867 -0.0999 -0.1784 -0.2093
 3372TIP3    H131751   2.714   2.788   3.832  0.0971 -1.5646 -1.8059
 3372TIP3    H231752   2.796   2.669   3.877  1.3495 -0.3044 -0.6226
 3373TIP3   OH231753   0.219   3.371   2.092  0.2544 -0.5380  0.2454
 3373TIP3    H131754   0.215   3.278   2.073  2.5839 -0.4433 -1.2098
 3373TIP3    H231755   0.313   3.393   2.085 -0.3091  2.0679 -0.4484
 3374TIP3   OH231756   5.496   1.407   4.825  0.1367  0.8030 -0.1841
 3374TIP3    H131757   5.467   1.368   4.907  0.6822  0.8344  0.0257
 3374TIP3    H231758   5.567   1.351   4.795  1.1413  1.7980  0.2756
 3375TIP3   OH231759   0.908   6.611   5.054  0.3090  0.0580 -0.1539
 3375TIP3    H131760   0.938   6.701   5.040 -2.7433  1.3561  0.8111
 3375TIP3    H231761   0.839   6.619   5.120 -0.8708 -2.8366 -0.8866
 3376TIP3   OH231762   1.156   3.128   1.224 -0.3167  0.2550 -0.0152
 3376TIP3    H131763   1.141   3.185   1.300  0.5766 -0.3512  0.6409
 3376TIP3    H231764   1.091   3.155   1.160 -1.5149  0.3409  1.2090
 3377TIP3   OH231765   1.087   1.981   3.452 -0.1299  0.4647  0.1077
 3377TIP3    H131766   1.101   1.897   3.409 -0.0821 -0.3195  1.5741
 3377TIP3    H231767   1.175   2.012   3.473 -0.1932 -0.0895  1.2917
 3378TIP3   OH231768   0.802   4.253   8.947  0.2499  0.2969  0.2395
 3378TIP3    H131769   0.711   4.280   8.937  0.5458  0.5385 -2.4271
 3378TIP3    H231770   0.799   4.183   9.012 -1.5529  1.5317  1.5726
 3379TIP3   OH231771   4.879   3.558   5.351  0.7494  0.1333 -0.5152
 3379TIP3    H131772   4.798   3.523   5.388 -0.0899  0.7783 -1.6593
 3379TIP3    H231773   4.948   3.500   5.384 -0.2912 -1.0262 -0.2960
 3380TIP3   OH231774   1.149   3.962   2.634 -1.2224 -0.7877  0.8429
 3380TIP3    H131775   1.227   3.911   2.613 -0.4875  0.9457 -1.0662
 3380TIP3    H231776   1.183   4.040   2.678 -1.8915 -0.1834  0.3082
 3381TIP3   OH231777   6.159   0.954   2.460 -0.3979  0.3084 -0.3532
 3381TIP3    H131778   6.078   0.909   2.484 -1.6850  1.8284 -1.6488
 3381TIP3    H231779   6.131   1.038   2.425  1.7980  1.1965 -0.1888
 3382TIP3   OH231780   4.051   5.806   1.529 -0.4831  0.0710 -0.6187
 3382TIP3    H131781   4.010   5.729   1.491  0.7460 -0.4993 -0.8282
 3382TIP3    H231782   4.034   5.798   1.623 -1.2579  0.1059 -0.7484
 3383TIP3   OH231783   1.941   6.425   2.328 -0.0614  0.1760 -0.3851
 3383TIP3    H131784   2.031   6.397   2.345 -0.4111 -0.4994  0.3470
 3383TIP3    H231785   1.937   6.514   2.363 -0.2646 -0.5461  1.5049
 3384TIP3   OH231786   0.332   1.067   1.740  0.0870 -0.7584 -0.6392
 3384TIP3    H131787   0.355   1.044   1.830 -0.3653 -1.5044 -0.7023
 3384TIP3    H231788   0.398   1.131   1.713 -0.9094  1.0159  0.8958
 3385TIP3   OH231789   5.516   5.615   5.033  0.2699  0.2514 -0.4167
 3385TIP3    H131790   5.530   5.522   5.051 -1.0149  0.1820  0.3325
 3385TIP3    H231791   5.468   5.616   4.950 -0.0823  0.2170 -0.2159
 3386TIP3   OH231792   5.074   4.224   1.928 -0.1819  0.2833 -0.3392
 3386TIP3    H131793   5.117   4.297   1.883  0.6773 -0.2830 -0.4566
 3386TIP3    H231794   5.144   4.182   1.978 -0.6089 -0.6227 -0.4873
 3387TIP3   OH231795   3.907   2.989   1.055  0.1092 -0.1278 -0.3367
 3387TIP3    H131796   3.836   2.942   1.098 -0.8820  0.0762 -1.7004
 3387TIP3    H231797   3.957   2.920   1.011  1.1948 -0.3514  1.1455
 3388TIP3   OH231798   4.599   5.431   3.853 -0.2838  0.4228 -0.4384
 3388TIP3    H131799   4.689   5.409   3.876  0.0656  0.1284 -1.9957
 3388TIP3    H231800   4.581   5.380   3.774 -2.1033 -0.1824  0.2952
 3389TIP3   OH231801   3.119   2.280   2.785 -0.1240 -0.0496  0.0225
 3389TIP3    H131802   3.068   2.283   2.866  0.1423  0.1097  0.1870
 3389TIP3    H231803   3.174   2.202   2.795  1.0675  0.8474  0.7108
 3390TIP3   OH231804   0.446   3.995   3.489 -0.1570 -0.5351  0.0317
 3390TIP3    H131805   0.514   4.060   3.509 -0.3874 -0.7105  1.5274
 3390TIP3    H231806   0.494   3.923   3.447  0.0293  0.7439 -2.1003
 3391TIP3   OH231807   6.163   0.375   3.393  0.0185  0.7564 -0.4191
 3391TIP3    H131808   6.160   0.470   3.395 -0.4239  0.7457 -0.5553
 3391TIP3    H231809   6.072   0.348   3.380  0.1886  0.3243 -0.7209
 3392TIP3   OH231810   1.199   0.645   1.753 -0.5775 -0.0826 -0.3683
 3392TIP3    H131811   1.231   0.567   1.798 -0.7886 -1.3050 -2.2184
 3392TIP3    H231812   1.276   0.685   1.715 -0.5199  0.4012  0.2469
 3393TIP3   OH231813   3.907   3.508   3.106 -0.4779 -0.0337 -0.4717
 3393TIP3    H131814   3.899   3.579   3.042  0.4558  1.1505  0.6561
 3393TIP3    H231815   3.836   3.523   3.168 -0.3768 -0.1797 -0.3187
 3394TIP3   OH231816   6.172   5.618   0.768  0.4555  0.1913 -0.2457
 3394TIP3    H131817   6.084   5.642   0.798  0.2679 -1.8263  0.9487
 3394TIP3    H231818   6.156   5.556   0.696  0.8383 -1.4397  1.0239
 3395TIP3   OH231819   4.363   5.731   3.009  0.4963  0.6010 -0.3433
 3395TIP3    H131820   4.322   5.813   3.035 -0.1778  0.1329  0.1015
 3395TIP3    H231821   4.314   5.664   3.056 -2.1492 -0.4979 -4.1715
 3396TIP3   OH231822   2.293   6.517   4.743 -0.2970 -0.3207 -0.0304
 3396TIP3    H131823   2.288   6.445   4.805 -1.8456 -1.9206 -1.8980
 3396TIP3    H231824   2.299   6.595   4.798  0.2640 -1.7483  2.0703
 3397TIP3   OH231825   2.005   5.245   1.165 -0.4388 -0.2811  0.0638
 3397TIP3    H131826   2.083   5.293   1.192  0.5904 -1.4147 -0.8320
 3397TIP3    H231827   1.955   5.233   1.247  0.0439  0.9177  0.5479
 3398TIP3   OH231828   1.467   6.268   3.624  0.0173  1.2282  0.4141
 3398TIP3    H131829   1.465   6.177   3.593 -0.3785  1.4230 -0.1537
 3398TIP3    H231830   1.558   6.295   3.615 -0.1314  1.3678 -0.8702
 3399TIP3   OH231831   5.817   0.943   5.114 -0.2700  0.1895  0.3239
 3399TIP3    H131832   5.856   1.019   5.070  1.5037 -0.8223  0.0275
 3399TIP3    H231833   5.883   0.916   5.178 -0.5653 -1.4936 -0.0381
 3400TIP3   OH231834   5.241   4.199   3.893 -0.8797 -0.1935  0.4681
 3400TIP3    H131835   5.146   4.206   3.883 -0.8168 -0.8252 -0.8220
 3400TIP3    H231836   5.255   4.111   3.928 -0.6826 -0.9990 -1.5065
 3401TIP3   OH231837   6.092   1.406   1.675 -0.8895 -0.7534 -0.1096
 3401TIP3    H131838   6.076   1.447   1.590 -0.9736 -1.7218 -0.5710
 3401TIP3    H231839   6.187   1.403   1.682 -0.8175 -2.9079 -1.3097
 3402TIP3   OH231840   6.615   6.083   4.187 -0.3784  0.1239  0.1771
 3402TIP3    H131841   6.611   6.179   4.190 -2.4056  0.1552 -1.5058
 3402TIP3    H231842   6.528   6.054   4.214  0.0632 -1.2505  0.2194
 3403TIP3   OH231843   5.420   4.895   5.072  0.3233 -0.2887 -0.2995
 3403TIP3    H131844   5.474   4.972   5.051  2.1819 -1.9207 -1.9316
 3403TIP3    H231845   5.476   4.841   5.128 -0.3496 -1.1755 -0.4591
 3404TIP3   OH231846   6.066   3.501   4.578 -0.5688 -0.0946  0.0510
 3404TIP3    H131847   6.129   3.541   4.519  0.8098 -0.8485  0.9290
 3404TIP3    H231848   6.097   3.526   4.666 -0.8921 -1.2955  0.5275
 3405TIP3   OH231849   6.601   4.345   2.094 -0.8826  0.3578 -0.4466
 3405TIP3    H131850   6.553   4.280   2.145  0.3242  0.7514  1.2902
 3405TIP3    H231851   6.659   4.294   2.037 -0.0036 -0.1425  0.8441
 3406TIP3   OH231852   2.679   6.604   4.563 -0.2802 -0.4088  0.5986
 3406TIP3    H131853   2.610   6.562   4.512  0.6372 -0.8935 -0.2777
 3406TIP3    H231854   2.645   6.691   4.582 -0.8223 -0.3699 -0.4824
 3407TIP3   OH231855   3.314   1.490   2.399 -0.6054 -0.2050 -0.5558
 3407TIP3    H131856   3.365   1.502   2.319 -1.1327 -0.4667 -0.9398
 3407TIP3    H231857   3.224   1.511   2.372 -0.5523  1.4438  0.3842
 3408TIP3   OH231858   2.377   1.799   4.735 -0.5110 -0.1764 -0.3048
 3408TIP3    H131859   2.447   1.850   4.775  0.3050 -3.1872  2.5728
 3408TIP3    H231860   2.298   1.852   4.747  0.9082  2.7594 -2.5514
 3409TIP3   OH231861   1.417   0.425   4.386  0.1512 -0.1830  0.0584
 3409TIP3    H131862   1.500   0.389   4.417  0.3257 -0.5381 -0.7969
 3409TIP3    H231863   1.395   0.372   4.310 -0.5548  0.3074 -0.0846
 3410TIP3   OH231864   0.450   1.784   3.593  0.4881  0.2484 -0.6858
 3410TIP3    H131865   0.525   1.758   3.539  1.7902  0.4384  0.9328
 3410TIP3    H231866   0.440   1.878   3.575 -1.0423 -0.2767 -2.8179
 3411TIP3   OH231867   4.303   1.378   5.331  0.2043 -0.2271 -0.0349
 3411TIP3    H131868   4.352   1.333   5.401  1.4682  1.3221  0.1260
 3411TIP3    H231869   4.338   1.341   5.250 -1.3962 -2.1673  0.0812
 3412TIP3   OH231870   2.093   2.945   4.044  0.1144 -0.0079  0.2953
 3412TIP3    H131871   2.047   2.877   3.994  3.7637 -2.9254  0.4855
 3412TIP3    H231872   2.062   2.934   4.134  0.2411 -1.0783  0.2206
 3413TIP3   OH231873   4.767   4.820   1.265 -0.3578 -0.3593  0.5934
 3413TIP3    H131874   4.803   4.813   1.176 -0.1665 -0.3421  0.6687
 3413TIP3    H231875   4.748   4.730   1.290  0.1791 -0.4275  0.7755
 3414TIP3   OH231876   4.889   5.415   3.880  0.0938  0.2384  0.0536
 3414TIP3    H131877   4.896   5.319   3.884 -0.9675  0.0939 -1.0628
 3414TIP3    H231878   4.973   5.443   3.845  0.1066 -0.3577 -0.4112
 3415TIP3   OH231879   4.138   1.892   2.608 -0.0055  0.6730  0.1542
 3415TIP3    H131880   4.108   1.968   2.657  0.6339  0.6925  0.5305
 3415TIP3    H231881   4.233   1.892   2.619 -0.0460 -0.5313  0.6774
 3416TIP3   OH231882   1.877   6.765   2.198  0.2709 -0.7056 -0.3290
 3416TIP3    H131883   1.936   6.837   2.220 -1.6134  1.2189 -1.1732
 3416TIP3    H231884   1.838   6.739   2.281  0.7678 -0.5811 -0.0528
 3417TIP3   OH231885   1.235   0.947   1.789  0.8224 -0.5675 -0.4633
 3417TIP3    H131886   1.303   0.960   1.855 -0.1783 -0.5165  0.6055
 3417TIP3    H231887   1.212   1.036   1.760  1.2919 -0.5922 -0.9259
 3418TIP3   OH231888   3.293   3.179   2.385 -0.0731 -0.6123  0.3329
 3418TIP3    H131889   3.217   3.128   2.360 -0.2878 -0.6789  1.1036
 3418TIP3    H231890   3.267   3.224   2.465  0.0264  0.8815 -0.4316
 3419TIP3   OH231891   6.210   0.550   1.373  0.1407  0.0448  0.4232
 3419TIP3    H131892   6.287   0.528   1.425  0.8214  2.3212  0.4884
 3419TIP3    H231893   6.232   0.523   1.284  1.7697  2.1225  0.1184
 3420TIP3   OH231894   3.025   3.725   0.079 -0.4231  0.1477 -0.2813
 3420TIP3    H131895   2.998   3.808   0.039  1.8009  1.2886  0.3652
 3420TIP3    H231896   2.945   3.688   0.114 -1.2831  3.0681  1.1933
 3421TIP3   OH231897   4.742   6.644   1.597  0.0951  0.1343 -0.4064
 3421TIP3    H131898   4.743   6.674   1.688  1.0712 -0.5845 -0.1589
 3421TIP3    H231899   4.738   6.725   1.546  1.4615  0.6682  0.2621
 3422TIP3   OH231900   3.135   4.670   3.842 -0.4866 -0.0668 -0.1380
 3422TIP3    H131901   3.091   4.632   3.919 -0.5310 -0.5944 -0.4180
 3422TIP3    H231902   3.211   4.614   3.828  0.0950  0.6351  0.1325
 3423TIP3   OH231903   2.979   3.367   1.813 -0.8049 -0.0216 -0.5091
 3423TIP3    H131904   2.895   3.405   1.788 -0.7846  0.3189 -0.0657
 3423TIP3    H231905   2.959   3.311   1.888 -0.1553  2.6870  1.8575
 3424TIP3   OH231906   1.834   3.455   2.658  0.0716 -0.0048 -0.6822
 3424TIP3    H131907   1.901   3.405   2.703  0.4619  0.1433 -1.0926
 3424TIP3    H231908   1.872   3.542   2.647 -0.6711  0.4417  0.1921
 3425TIP3   OH231909   1.205   5.029   0.361 -0.4312 -0.4155  0.5259
 3425TIP3    H131910   1.150   4.956   0.387 -1.0933  0.1580  0.7543
 3425TIP3    H231911   1.295   4.996   0.371 -0.6966 -0.8322  1.6850
 3426TIP3   OH231912   1.049   3.927   2.880 -0.5966 -0.4498 -0.0146
 3426TIP3    H131913   1.088   3.900   2.797 -0.5940  0.0817 -0.1904
 3426TIP3    H231914   0.967   3.877   2.886  0.0811 -1.5527  0.3423
 3427TIP3   OH231915   0.932   5.591   1.057 -0.6130 -0.3794  0.7235
 3427TIP3    H131916   0.886   5.663   1.015  0.2987  0.0841  0.4912
 3427TIP3    H231917   1.004   5.632   1.104  1.3512 -1.2781 -1.3220
 3428TIP3   OH231918   1.233   1.780   1.233 -0.8116  0.3315  0.0817
 3428TIP3    H131919   1.267   1.698   1.270  0.1632 -1.0393 -3.4767
 3428TIP3    H231920   1.303   1.843   1.249 -0.8464  0.0937  1.3521
 3429TIP3   OH231921   0.919   3.318   3.233  0.0667  0.3340 -0.2724
 3429TIP3    H131922   1.012   3.300   3.249 -0.6982 -2.6901  1.7306
 3429TIP3    H231923   0.891   3.370   3.308 -0.2149 -0.4498  0.1856
 3430TIP3   OH231924   3.753   2.780   4.107 -0.2509  0.3559 -0.4986
 3430TIP3    H131925   3.674   2.788   4.054 -0.8029  0.4189  0.3128
 3430TIP3    H231926   3.774   2.871   4.131  0.3818  0.3868 -1.1586
 3431TIP3   OH231927   3.158   5.587   1.491 -0.3664 -0.1984  0.6431
 3431TIP3    H131928   3.113   5.643   1.428 -1.1079 -1.2280  0.2288
 3431TIP3    H231929   3.197   5.517   1.438  0.0375 -0.4122  1.2055
 3432TIP3   OH231930   0.375   1.999   4.892 -0.0107  0.4691  0.6342
 3432TIP3    H131931   0.437   1.946   4.943 -1.0159 -0.1560  1.2389
 3432TIP3    H231932   0.421   2.081   4.876  1.0934 -0.1014  0.7889
 3433TIP3   OH231933   2.143   2.533   0.956 -0.3205 -0.3238 -0.2123
 3433TIP3    H131934   2.069   2.482   0.923 -0.5690 -0.6528  0.8128
 3433TIP3    H231935   2.220   2.495   0.913 -0.4759 -1.7250  0.6774
 3434TIP3   OH231936   0.409   1.876   4.055 -0.2181 -0.3783 -0.4489
 3434TIP3    H131937   0.448   1.904   4.138 -0.5821  0.7396 -0.6398
 3434TIP3    H231938   0.484   1.848   4.002  0.1150 -0.1462 -0.1071
 3435TIP3   OH231939   5.727   1.405   3.054  0.8937  0.5950 -0.2114
 3435TIP3    H131940   5.685   1.476   3.005 -2.8452 -1.5044 -0.4162
 3435TIP3    H231941   5.719   1.431   3.146  2.2623  1.6721 -0.3488
 3436TIP3   OH231942   0.700   5.562   3.454 -0.4764  0.5835 -0.0698
 3436TIP3    H131943   0.639   5.542   3.383  0.1942 -0.1811 -0.4570
 3436TIP3    H231944   0.777   5.599   3.409 -0.2733  0.6348  0.3177
 3437TIP3   OH231945   3.089   6.104   5.007  0.0395 -0.4848  0.4526
 3437TIP3    H131946   3.022   6.168   5.031 -0.0384 -0.1236 -0.6791
 3437TIP3    H231947   3.043   6.043   4.948  0.4666 -0.7874  0.4271
 3438TIP3   OH231948   1.956   0.166   3.986 -0.5227  0.3856 -0.3756
 3438TIP3    H131949   1.872   0.201   4.015  0.1221  0.2506  1.8644
 3438TIP3    H231950   1.942   0.141   3.895 -2.8576  0.5008 -0.1026
 3439TIP3   OH231951   5.722   4.249   4.993 -0.1779 -1.0275 -0.4326
 3439TIP3    H131952   5.666   4.272   5.066 -1.3896 -1.2370 -1.2688
 3439TIP3    H231953   5.804   4.297   5.009  0.8656 -3.4750  2.7101
 3440TIP3   OH231954   5.177   1.316   3.024  0.3375  0.3643 -0.2203
 3440TIP3    H131955   5.133   1.258   2.962 -0.0052  0.8894 -0.4765
 3440TIP3    H231956   5.250   1.264   3.058 -0.6744 -0.6340  0.4802
 3441TIP3   OH231957   3.470   5.193   4.556  0.4152  0.0653  0.0538
 3441TIP3    H131958   3.436   5.246   4.483  0.7131  1.1475  0.6833
 3441TIP3    H231959   3.394   5.145   4.588 -0.1131  0.9887  0.2037
 3442TIP3   OH231960   3.678   2.606   4.329  0.7656 -0.1070 -0.2276
 3442TIP3    H131961   3.638   2.642   4.408 -0.3680 -1.3440 -0.2077
 3442TIP3    H231962   3.696   2.682   4.274 -0.7175  0.5695  0.1881
 3443TIP3   OH231963   0.368   2.074   1.402 -0.4612 -0.3961 -0.0945
 3443TIP3    H131964   0.387   2.004   1.339  1.5394 -0.4444  0.4841
 3443TIP3    H231965   0.423   2.147   1.374 -0.4159 -0.0237  0.9155
 3444TIP3   OH231966   1.835   4.802   2.630  0.0961  0.6342 -0.0192
 3444TIP3    H131967   1.803   4.734   2.689  1.7883  0.7589  1.1380
 3444TIP3    H231968   1.788   4.788   2.548 -1.5542 -0.2142  1.0274
 3445TIP3   OH231969   6.612   4.543   0.971 -0.4665  0.4563 -0.7197
 3445TIP3    H131970   6.703   4.512   0.975 -0.0165  1.8026  1.8793
 3445TIP3    H231971   6.564   4.471   0.930  1.4238 -1.2086 -0.1822
 3446TIP3   OH231972   3.389   3.564   4.689 -0.8527 -0.0427  0.4655
 3446TIP3    H131973   3.450   3.493   4.707  0.2711  0.8244  0.1761
 3446TIP3    H231974   3.304   3.521   4.683 -0.1063 -1.4827 -0.4257
 3447TIP3   OH231975   6.326   4.471   2.495 -0.2289 -0.2512  0.1868
 3447TIP3    H131976   6.414   4.503   2.474 -0.4749 -0.0847 -0.6534
 3447TIP3    H231977   6.340   4.380   2.521  0.6188  0.7332  3.7675
 3448TIP3   OH231978   4.346   0.543   1.264  0.3849  0.2149  0.3931
 3448TIP3    H131979   4.428   0.499   1.285  0.6813  0.2913 -0.5716
 3448TIP3    H231980   4.326   0.516   1.174 -0.7765 -0.0085  0.7008
 3449TIP3   OH231981   0.380   6.702   2.616  0.2586  0.0332 -0.0851
 3449TIP3    H131982   0.403   6.794   2.626  0.7294  0.6142 -4.5858
 3449TIP3    H231983   0.455   6.655   2.654  1.4143  1.5773 -0.3434
 3450TIP3   OH231984   1.663   3.510   1.857 -0.5478  0.1077 -0.1745
 3450TIP3    H131985   1.654   3.508   1.762 -2.2057 -0.9347 -0.0427
 3450TIP3    H231986   1.640   3.421   1.885  0.5796  0.2060  1.1634
 3451TIP3   OH231987   3.846   4.054   5.367  0.0959  0.6470 -0.0615
 3451TIP3    H131988   3.780   4.039   5.298 -2.3435 -0.1921  2.2669
 3451TIP3    H231989   3.837   4.146   5.389 -0.7487  0.4146  0.6229
 3452TIP3   OH231990   4.050   3.477   0.527 -0.5291 -0.0435  0.1732
 3452TIP3    H131991   3.958   3.451   0.534 -0.3624 -0.8065 -0.3727
 3452TIP3    H231992   4.099   3.405   0.565 -0.0734 -0.4978 -1.1980
 3453TIP3   OH231993   3.459   4.387   0.621 -0.7588  0.9859  0.6681
 3453TIP3    H131994   3.510   4.403   0.701  0.1062 -0.4461  0.4438
 3453TIP3    H231995   3.414   4.304   0.638 -1.4128  1.2212  0.0842
 3454TIP3   OH231996   4.055   1.547   2.332 -0.0676 -0.6011  0.1129
 3454TIP3    H131997   4.124   1.512   2.388 -1.2277 -3.7665 -0.2068
 3454TIP3    H231998   4.024   1.625   2.377  2.5910 -0.0187  1.0760
 3455TIP3   OH231999   3.131   1.250   5.028  0.2117 -0.3143 -0.2111
 3455TIP3    H132000   3.110   1.160   5.054  0.9531 -0.2517  0.6711
 3455TIP3    H232001   3.156   1.293   5.110  0.2031  0.6006 -0.6803
 3456TIP3   OH232002   5.281   2.354   4.222  0.2896 -0.1693  0.0458
 3456TIP3    H132003   5.346   2.415   4.188  0.2768 -0.2692 -0.1565
 3456TIP3    H232004   5.332   2.295   4.278  0.5955 -1.0560 -1.1420
 3457TIP3   OH232005   5.444   1.522   1.799 -0.1697 -0.7867 -0.0777
 3457TIP3    H132006   5.444   1.527   1.704  0.9076 -2.8393 -0.2327
 3457TIP3    H232007   5.353   1.536   1.824 -0.7187 -1.5783 -1.5315
 3458TIP3   OH232008   3.962   2.995   1.440 -0.2690 -1.0008  0.4038
 3458TIP3    H132009   4.054   2.994   1.414  0.2135  0.5677  1.8286
 3458TIP3    H232010   3.917   2.947   1.371  1.7906 -3.1601  0.4504
 3459TIP3   OH232011   4.190   3.706   0.473  0.1925 -0.2982 -0.1014
 3459TIP3    H132012   4.126   3.766   0.512  0.9155  1.5286 -1.6157
 3459TIP3    H232013   4.146   3.621   0.474 -0.5655  0.0058  2.8295
 3460TIP3   OH232014   5.835   3.752   3.751 -0.5100 -0.0198 -1.0436
 3460TIP3    H132015   5.797   3.677   3.706  1.1775 -0.6705 -1.4459
 3460TIP3    H232016   5.927   3.729   3.764 -0.1165  1.6740 -0.5111
 3461TIP3   OH232017   4.994   6.573   4.187 -1.1687  0.3986 -0.5557
 3461TIP3    H132018   5.034   6.657   4.209 -2.6561  1.0261 -0.1090
 3461TIP3    H232019   4.971   6.535   4.271 -1.2949 -0.0683 -0.7971
 3462TIP3   OH232020   2.606   3.341   3.336 -0.6724 -0.3706 -0.0834
 3462TIP3    H132021   2.585   3.379   3.251  2.3656  0.0768 -0.7579
 3462TIP3    H232022   2.665   3.404   3.377 -0.8686 -1.2798  1.7091
 3463TIP3   OH232023   4.186   0.546   1.513 -0.1691 -0.1220 -0.1212
 3463TIP3    H132024   4.171   0.640   1.518  0.9299  0.0186  1.4735
 3463TIP3    H232025   4.253   0.536   1.445 -0.0692  0.2857 -0.0867
 3464TIP3   OH232026   5.708   0.443   4.502  0.1924 -0.0634  0.3460
 3464TIP3    H132027   5.668   0.395   4.575 -0.2387  1.6075  1.2554
 3464TIP3    H232028   5.655   0.420   4.426 -0.2355 -0.7169  0.8286
 3465TIP3   OH232029   6.495   1.317   2.269 -0.1618  0.0267 -0.3952
 3465TIP3    H132030   6.517   1.250   2.334 -0.7887  0.6930  0.5310
 3465TIP3    H232031   6.536   1.287   2.189  0.0536 -1.1756  0.1455
 3466TIP3   OH232032   2.646   0.603   5.088 -0.4970 -0.1973  0.2553
 3466TIP3    H132033   2.597   0.684   5.070 -0.2993  0.0742  0.9107
 3466TIP3    H232034   2.641   0.554   5.006 -1.0479  0.2558  0.0046
 3467TIP3   OH232035   0.549   6.051   3.869  0.1555  0.5822 -0.4835
 3467TIP3    H132036   0.613   5.981   3.879 -0.5079 -0.4237 -2.5708
 3467TIP3    H232037   0.599   6.125   3.836  0.4216  0.0991 -1.1978
 3468TIP3   OH232038   2.491   5.460   1.805 -0.1056  0.5416  0.3153
 3468TIP3    H132039   2.457   5.428   1.888 -0.1907 -2.2302 -0.6967
 3468TIP3    H232040   2.415   5.465   1.748  0.2770  0.2681 -0.2233
 3469TIP3   OH232041   2.056   3.492   2.263 -0.4482 -0.4290  0.4852
 3469TIP3    H132042   2.019   3.418   2.312 -0.0311  0.6227  2.5178
 3469TIP3    H232043   1.980   3.535   2.224 -0.8081 -1.2628  0.2363
 3470TIP3   OH232044   6.665   3.757   5.439  0.0929 -0.3294 -0.3421
 3470TIP3    H132045   6.723   3.816   5.489 -0.2002  1.2092 -1.7158
 3470TIP3    H232046   6.577   3.782   5.466 -0.0930  0.8624 -1.8963
 3471TIP3   OH232047   2.852   3.056   0.879  0.0507 -0.5175  0.3324
 3471TIP3    H132048   2.914   3.084   0.812 -0.2544  0.5646  0.4760
 3471TIP3    H232049   2.872   3.111   0.955 -1.4632  0.3088  0.1787
 3472TIP3   OH232050   4.340   1.855   1.702 -0.1671  0.4519 -0.7678
 3472TIP3    H132051   4.276   1.872   1.771 -0.6221 -1.0075 -0.7956
 3472TIP3    H232052   4.310   1.773   1.661  1.7596 -0.3481 -0.7002
 3473TIP3   OH232053   6.540   2.731   2.261 -0.5245 -0.1958  0.6079
 3473TIP3    H132054   6.492   2.708   2.181  0.9262 -0.8273 -0.1299
 3473TIP3    H232055   6.600   2.658   2.274  2.1674  1.7220 -0.0960
 3474TIP3   OH232056   1.694   6.229   2.817  1.0048 -0.6670  0.1312
 3474TIP3    H132057   1.622   6.225   2.879 -0.5368  1.0700 -1.4247
 3474TIP3    H232058   1.753   6.295   2.854  0.4083 -0.0921  0.0726
 3475TIP3   OH232059   1.656   0.946   2.763 -0.5001  0.2603 -0.1476
 3475TIP3    H132060   1.630   1.015   2.824  4.0640  1.4442  0.8239
 3475TIP3    H232061   1.637   0.864   2.810 -2.2755  0.9213  0.3696
 3476TIP3   OH232062   2.119   0.880   4.482 -0.4886  0.0072 -0.0756
 3476TIP3    H132063   2.163   0.796   4.470 -2.0223 -0.9528  0.6751
 3476TIP3    H232064   2.027   0.857   4.498 -0.8614  1.8006  0.6314
 3477TIP3   OH232065   3.454   4.569   2.784  0.5296  0.3508  0.1958
 3477TIP3    H132066   3.484   4.634   2.848  0.5299  0.7925 -0.2442
 3477TIP3    H232067   3.444   4.488   2.834 -0.5152  0.9463  0.9746
 3478TIP3   OH232068   1.689   0.445   4.002 -0.1038 -0.3624 -0.3322
 3478TIP3    H132069   1.693   0.399   4.085  0.2500 -1.8293 -1.1213
 3478TIP3    H232070   1.617   0.508   4.012  1.0764  0.7766  1.6722
 3479TIP3   OH232071   5.684   0.907   2.545 -0.7333 -0.1894  0.0606
 3479TIP3    H132072   5.621   0.846   2.583 -2.8291  1.2934 -0.8311
 3479TIP3    H232073   5.642   0.937   2.464  1.8854 -0.3643 -1.4716
 3480TIP3   OH232074   3.781   2.273   3.599  0.6446  0.1504  0.0389
 3480TIP3    H132075   3.760   2.317   3.517  2.4556 -1.5629 -1.4509
 3480TIP3    H232076   3.871   2.244   3.589  0.7496 -0.6111  2.4437
 3481TIP3   OH232077   0.100   2.635   1.646 -0.0754 -0.1335 -0.2577
 3481TIP3    H132078   0.189   2.620   1.679 -0.1699 -0.5564 -0.1941
 3481TIP3    H232079   0.105   2.720   1.602  0.5593 -0.5274 -0.9648
 3482TIP3   OH232080   4.419   0.123   1.139 -0.2291 -0.0792 -0.1287
 3482TIP3    H132081   4.353   0.114   1.207 -1.2938  0.6616 -1.0176
 3482TIP3    H232082   4.471   0.043   1.145 -0.0661  0.1150  1.7548
 3483TIP3   OH232083   0.654   4.877   2.774  0.2155 -0.1621  0.2791
 3483TIP3    H132084   0.696   4.898   2.690  0.8027 -0.7881  0.4073
 3483TIP3    H232085   0.565   4.851   2.751  0.2846 -0.0509 -0.1206
 3484TIP3   OH232086   2.482   3.737   1.870  0.1490 -0.5502  0.5547
 3484TIP3    H132087   2.418   3.768   1.807  1.0130  0.0862 -0.0389
 3484TIP3    H232088   2.476   3.641   1.866 -1.0160 -0.4970  0.8010
 3485TIP3   OH232089   0.740   3.374   1.060 -0.5837 -0.4635 -0.4061
 3485TIP3    H132090   0.695   3.296   1.029  1.0277 -1.8828  0.6692
 3485TIP3    H232091   0.677   3.416   1.119 -0.2828 -2.9278  1.8568
 3486TIP3   OH232092   2.859   1.458   4.633  0.0360  0.1838  0.3488
 3486TIP3    H132093   2.856   1.376   4.683 -0.4966  1.3133  2.2742
 3486TIP3    H232094   2.952   1.482   4.631  0.2020 -0.4757 -0.2848
 3487TIP3   OH232095   4.561   5.380   1.418  0.0984 -0.0152  0.7358
 3487TIP3    H132096   4.609   5.352   1.496 -0.4089  0.7158  1.3275
 3487TIP3    H232097   4.619   5.357   1.345  1.0096  0.1448  1.3803
 3488TIP3   OH232098   5.601   0.969   4.563  0.1752  0.1553  0.1052
 3488TIP3    H132099   5.649   0.889   4.584 -0.1582  0.1293  0.8069
 3488TIP3    H232100   5.617   0.983   4.470  0.1810 -0.7652 -0.0438
 3489TIP3   OH232101   3.760   3.332   3.643  0.0732  0.0595 -0.0190
 3489TIP3    H132102   3.836   3.281   3.669  1.5328  0.9902 -2.1724
 3489TIP3    H232103   3.767   3.413   3.693 -0.4242 -0.5007  0.9761
 3490TIP3   OH232104   4.481   5.232   5.080  0.4058  0.4751 -0.0762
 3490TIP3    H132105   4.457   5.215   5.171  0.0411  0.7453 -0.1209
 3490TIP3    H232106   4.573   5.207   5.075  0.6028  1.0508  0.5232
 3491TIP3   OH232107   4.447   6.645   2.889  0.0937 -0.3663 -0.8631
 3491TIP3    H132108   4.441   6.551   2.871  0.4845 -0.5509 -0.0743
 3491TIP3    H232109   4.452   6.651   2.984 -1.0937  0.5345 -0.8419
 3492TIP3   OH232110   5.195   6.511   4.466  0.1114 -0.7484 -0.0544
 3492TIP3    H132111   5.101   6.496   4.459  0.1547 -1.9973  1.4777
 3492TIP3    H232112   5.224   6.450   4.534  1.8621  0.3336  0.2321
 3493TIP3   OH232113   1.534   5.502   1.331  0.2815  0.2076 -0.0646
 3493TIP3    H132114   1.444   5.470   1.321  0.6237 -0.6890 -0.3927
 3493TIP3    H232115   1.559   5.474   1.419 -0.1079  1.3917  0.4470
 3494TIP3   OH232116   3.042   0.208   1.747  0.4558 -0.6619 -0.3339
 3494TIP3    H132117   3.000   0.234   1.665  0.2106  1.3853  0.3907
 3494TIP3    H232118   3.016   0.275   1.810  0.8117 -2.0732  1.3824
 3495TIP3   OH232119   5.505   3.511   1.615 -0.3484 -0.5745 -0.3579
 3495TIP3    H132120   5.466   3.437   1.662  0.1244 -1.2600 -1.0258
 3495TIP3    H232121   5.472   3.502   1.526  1.5440 -1.3679 -1.0297
 3496TIP3   OH232122   3.147   5.703   2.929 -0.0317 -0.0293  0.1166
 3496TIP3    H132123   3.167   5.644   2.856  0.6364  0.8960 -0.4656
 3496TIP3    H232124   3.180   5.788   2.901 -0.6908  0.5592  1.0846
 3497TIP3   OH232125   0.374   4.673   4.576 -0.2773 -0.4581  0.0382
 3497TIP3    H132126   0.341   4.663   4.665 -2.2380  0.6788 -0.5048
 3497TIP3    H232127   0.435   4.746   4.581  0.0851 -0.7919  0.5522
 3498TIP3   OH232128   5.915   3.821   3.037 -0.0933 -0.2214 -0.1512
 3498TIP3    H132129   5.944   3.775   2.959  0.7647 -1.6010  0.9284
 3498TIP3    H232130   5.957   3.907   3.031  2.0206 -1.1799 -0.0217
 3499TIP3   OH232131   6.564   0.445   1.682  0.5202  0.1424 -0.2143
 3499TIP3    H132132   6.658   0.437   1.698  0.5565  2.6660  1.3259
 3499TIP3    H232133   6.523   0.388   1.748  0.8961 -2.0489 -1.7607
 3500TIP3   OH232134   3.878   5.638   3.587 -0.5873 -0.4383 -0.0368
 3500TIP3    H132135   3.869   5.562   3.644  1.2270  0.7383  1.9737
 3500TIP3    H232136   3.959   5.621   3.538 -1.1312 -0.5835 -0.9011
 3501TIP3   OH232137   3.796   3.795   4.711 -0.4999 -0.1529 -0.2210
 3501TIP3    H132138   3.743   3.780   4.789 -2.9564 -0.8841 -1.9026
 3501TIP3    H232139   3.789   3.714   4.661  1.2729  0.1736 -1.0907
 3502TIP3   OH232140   3.127   6.227   4.725 -0.3869 -0.0022 -0.3762
 3502TIP3    H132141   3.103   6.245   4.816 -0.2151  0.6233 -0.4487
 3502TIP3    H232142   3.044   6.229   4.677 -0.4722 -0.2942 -0.2412
 3503TIP3   OH232143   3.079   4.292   0.961  0.8196 -0.1860  0.3824
 3503TIP3    H132144   3.115   4.379   0.944 -1.2242 -0.0056 -4.6086
 3503TIP3    H232145   3.151   4.232   0.943  1.0229  0.4008 -0.8694
 3504TIP3   OH232146   2.071   1.414   3.021 -0.1522 -0.1563 -0.0825
 3504TIP3    H132147   2.017   1.387   3.095  0.7281  0.6385  0.8829
 3504TIP3    H232148   2.058   1.346   2.955 -0.7383 -1.0251  0.9052
 3505TIP3   OH232149   6.171   2.686   2.630  0.5248  0.0758  0.4462
 3505TIP3    H132150   6.152   2.779   2.640  0.4746  0.1627 -0.3537
 3505TIP3    H232151   6.124   2.644   2.702 -0.0384  0.6110  0.4035
 3506TIP3   OH232152   0.573   6.562   4.620 -0.1119 -0.3119  0.2217
 3506TIP3    H132153   0.531   6.527   4.698 -1.3134 -0.0577 -0.2736
 3506TIP3    H232154   0.545   6.653   4.616  0.0242 -0.2896 -0.4368
 3507TIP3   OH232155   2.629   2.246   4.053 -0.1674  0.1959 -0.5956
 3507TIP3    H132156   2.536   2.265   4.040 -0.4260 -1.2692 -1.0862
 3507TIP3    H232157   2.655   2.304   4.125 -1.8827 -0.5480  0.7017
 3508TIP3   OH232158   2.673   1.677   1.006  0.3745 -0.5879  0.0322
 3508TIP3    H132159   2.628   1.761   1.013  0.6503 -0.4519  0.2052
 3508TIP3    H232160   2.764   1.701   0.987  0.5372 -0.8332  0.4854
 3509TIP3   OH232161   4.863   2.294   2.164  0.3237  0.2450  0.2402
 3509TIP3    H132162   4.882   2.257   2.250 -2.1834 -1.1560  0.2743
 3509TIP3    H232163   4.839   2.219   2.110  0.9845  1.2019 -1.4582
 3510TIP3   OH232164   6.259   6.615   3.840 -0.4406  0.3509 -0.2404
 3510TIP3    H132165   6.213   6.699   3.844 -1.6378 -0.3454  1.9557
 3510TIP3    H232166   6.238   6.580   3.754 -0.0748  2.1646 -1.1333
 3511TIP3   OH232167   1.027   0.161   2.322  0.2325  0.2656  0.0696
 3511TIP3    H132168   1.107   0.214   2.318  0.5002 -0.1120  0.3351
 3511TIP3    H232169   1.036   0.100   2.249 -1.1747  2.0706 -1.7507
 3512TIP3   OH232170   1.902   2.100   4.420  0.0642 -0.4429  0.0955
 3512TIP3    H132171   1.828   2.102   4.480 -1.3047 -0.8124 -1.5331
 3512TIP3    H232172   1.873   2.047   4.346  0.9149  1.6673 -1.8866
 3513TIP3   OH232173   3.739   5.896   4.326 -0.3270  0.6252 -0.2153
 3513TIP3    H132174   3.835   5.889   4.324 -0.2722  1.3696 -0.6525
 3513TIP3    H232175   3.721   5.987   4.302 -1.1618  0.3345 -0.7575
 3514TIP3   OH232176   4.394   1.601   2.525 -0.1288  0.5390  0.3522
 3514TIP3    H132177   4.423   1.565   2.609  1.0340 -0.3722 -0.4131
 3514TIP3    H232178   4.427   1.691   2.524 -1.8433  1.2458  1.6746
 3515TIP3   OH232179   6.724   4.019   3.626 -0.1902 -0.0786  0.0771
 3515TIP3    H132180   6.690   4.002   3.714 -0.4226  0.1148  0.0250
 3515TIP3    H232181   6.817   4.035   3.640 -0.3070  0.4185  0.3500
 3516TIP3   OH232182   5.388   0.393   2.975 -0.3061 -0.4227 -0.3859
 3516TIP3    H132183   5.293   0.379   2.972 -0.5990  1.3212 -0.3979
 3516TIP3    H232184   5.400   0.482   2.943  1.3971 -0.7639 -0.8037
 3517TIP3   OH232185   2.096   1.699   1.806 -0.1480  0.2719 -0.0215
 3517TIP3    H132186   2.095   1.718   1.900 -0.5051  0.3732 -0.0432
 3517TIP3    H232187   2.140   1.615   1.799 -2.2103 -0.9190  0.4775
 3518TIP3   OH232188   5.963   5.057   4.276 -0.4207  0.1745  0.7902
 3518TIP3    H132189   6.049   5.095   4.256 -0.5164  0.3747  0.7603
 3518TIP3    H232190   5.954   5.066   4.371 -0.4429  0.2241  0.7835
 3519TIP3   OH232191   2.422   2.571   3.840  0.6427  0.8913  0.1164
 3519TIP3    H132192   2.365   2.549   3.913  1.6188  0.7988  0.8718
 3519TIP3    H232193   2.366   2.565   3.763 -0.1783  0.0744  0.7594
 3520TIP3   OH232194   6.544   3.812   4.675  0.2989 -0.2100 -0.2427
 3520TIP3    H132195   6.580   3.734   4.717  0.0081 -0.9018 -1.2578
 3520TIP3    H232196   6.615   3.876   4.679  0.8749 -0.8441 -0.2742
 3521TIP3   OH232197   1.085   0.379   3.645  0.6434 -0.2972  0.1031
 3521TIP3    H132198   1.066   0.285   3.636  1.2545 -0.4161  0.0052
 3521TIP3    H232199   1.050   0.403   3.731  1.2949 -0.8290  0.5320
 3522TIP3   OH232200   2.103   4.104   3.413  0.2632  0.2188 -0.2866
 3522TIP3    H132201   2.076   4.191   3.385 -1.2922 -0.2061 -0.1550
 3522TIP3    H232202   2.190   4.118   3.452  0.0429  1.7021 -0.2749
 3523TIP3   OH232203   3.669   6.378   4.906 -0.5519 -0.3617 -0.0152
 3523TIP3    H132204   3.749   6.335   4.936 -1.0343 -1.2163  0.0722
 3523TIP3    H232205   3.600   6.314   4.922 -1.6424  1.2207  2.1852
 3524TIP3   OH232206   1.728   1.220   4.162 -0.2305 -0.3517  0.1944
 3524TIP3    H132207   1.768   1.243   4.246  0.7530 -0.2604 -0.2852
 3524TIP3    H232208   1.786   1.258   4.097 -1.2566  0.0072 -0.5268
 3525TIP3   OH232209   0.201   4.046   4.377 -0.5570 -0.1759  0.1095
 3525TIP3    H132210   0.164   4.009   4.297  0.4764  0.3114 -0.6292
 3525TIP3    H232211   0.158   4.131   4.386 -1.6922 -0.8114  0.8653
 3526TIP3   OH232212   5.480   4.315   1.649  0.1293  0.4967  0.3500
 3526TIP3    H132213   5.569   4.342   1.629  0.0805  1.0720  0.8422
 3526TIP3    H232214   5.477   4.311   1.745 -0.0913 -0.5278  0.3105
 3527TIP3   OH232215   0.647   1.661   2.619  0.2397 -0.1666  0.5636
 3527TIP3    H132216   0.621   1.750   2.644  0.8920 -0.1168  1.1084
 3527TIP3    H232217   0.674   1.668   2.528 -0.8228 -0.0500  0.2505
 3528TIP3   OH232218   3.865   6.307   1.930  0.2291 -0.0771  0.9476
 3528TIP3    H132219   3.808   6.384   1.938  0.0522 -0.2615  1.5023
 3528TIP3    H232220   3.844   6.254   2.007  1.1528 -0.1542  1.1492
 3529TIP3   OH232221   4.429   0.323   3.400  0.1371  0.2979 -0.0516
 3529TIP3    H132222   4.460   0.242   3.360  1.5688 -0.3554  2.2131
 3529TIP3    H232223   4.495   0.344   3.466 -1.2902  2.1558  0.8684
 3530TIP3   OH232224   4.945   6.354   0.814  0.7113 -0.4822  0.0051
 3530TIP3    H132225   4.963   6.264   0.786 -0.0657 -0.7833  0.4558
 3530TIP3    H232226   4.850   6.359   0.818  0.7692 -0.1475  1.6132
 3531TIP3   OH232227   3.576   2.331   0.644 -0.1921 -0.1432 -0.8555
 3531TIP3    H132228   3.567   2.399   0.578  0.3983  0.4628 -0.3262
 3531TIP3    H232229   3.487   2.297   0.655  0.0305 -1.8102 -3.5325
 3532TIP3   OH232230   0.900   2.776   4.489  0.1169 -0.3840  0.4368
 3532TIP3    H132231   0.987   2.761   4.524  0.1715  0.9949  0.9488
 3532TIP3    H232232   0.841   2.758   4.562  0.1347  0.9404  0.8029
 3533TIP3   OH232233   1.148   1.713   1.758 -0.0633  0.4864 -0.5253
 3533TIP3    H132234   1.214   1.761   1.708 -0.6512  1.4763 -0.3740
 3533TIP3    H232235   1.104   1.659   1.693 -0.0859  0.9339 -0.8865
 3534TIP3   OH232236   0.491   3.677   4.234  0.2573  0.2377  0.2690
 3534TIP3    H132237   0.449   3.748   4.185  0.2137 -0.1705 -0.2935
 3534TIP3    H232238   0.584   3.694   4.226  0.2617 -0.0125 -0.2425
 3535TIP3   OH232239   3.958   3.352   3.986 -0.6553 -0.8587 -0.2081
 3535TIP3    H132240   3.884   3.401   3.950 -0.3799  0.1530  0.5459
 3535TIP3    H232241   4.004   3.415   4.041 -0.7888 -2.2111  1.5439
 3536TIP3   OH232242   4.764   1.450   4.831 -0.6061 -0.4397 -0.2163
 3536TIP3    H132243   4.671   1.432   4.845 -0.8286  0.0927 -0.9575
 3536TIP3    H232244   4.786   1.397   4.754  0.4025 -2.7229  1.5030
 3537TIP3   OH232245   5.115   5.917   1.940 -0.1989 -0.2216  0.3452
 3537TIP3    H132246   5.156   5.924   2.026 -2.2147  0.8320  1.2971
 3537TIP3    H232247   5.118   6.006   1.904 -2.5294  0.1553  0.9358
 3538TIP3   OH232248   2.598   6.627   2.555  0.3826  0.8054 -0.4578
 3538TIP3    H132249   2.518   6.610   2.605 -0.1155  3.9969  0.0392
 3538TIP3    H232250   2.567   6.660   2.471  1.2463 -2.8185 -2.3850
 3539TIP3   OH232251   5.223   2.132   2.902 -0.1095 -0.0192  0.9629
 3539TIP3    H132252   5.232   2.152   2.809 -0.1962 -1.7737  0.5442
 3539TIP3    H232253   5.197   2.040   2.905  3.2130 -1.0659  2.8237
 3540TIP3   OH232254   2.423   4.567   4.239  0.1497 -0.2522 -0.6935
 3540TIP3    H132255   2.513   4.597   4.226  0.7804 -0.9493  1.5393
 3540TIP3    H232256   2.431   4.475   4.262 -0.7755  0.3294  2.4877
 3541TIP3   OH232257   5.517   1.913   2.331 -0.3440  0.1755  0.5545
 3541TIP3    H132258   5.542   1.999   2.296 -2.7461  0.8847  0.4197
 3541TIP3    H232259   5.591   1.888   2.386  0.6028  2.1360  0.2836
 3542TIP3   OH232260   1.518   0.078   1.656 -0.2014 -0.2858 -0.0049
 3542TIP3    H132261   1.530   0.096   1.749 -1.2494  1.8174 -0.2078
 3542TIP3    H232262   1.431   0.038   1.650  0.1348 -1.0261 -0.0333
 3543TIP3   OH232263   0.792   3.861   1.642  0.3884 -0.1870 -0.0537
 3543TIP3    H132264   0.783   3.952   1.613 -1.6258  0.1144  1.3748
 3543TIP3    H232265   0.887   3.849   1.650  0.7292  1.6018 -0.7669
 3544TIP3   OH232266   1.027   2.204   3.293  0.2316  0.3401  0.1320
 3544TIP3    H132267   1.037   2.121   3.340 -0.8500  0.1932  0.1096
 3544TIP3    H232268   1.035   2.180   3.200  3.2680  0.7482  0.1662
 3545TIP3   OH232269   2.016   1.022   3.695  0.1902 -0.2141  0.1687
 3545TIP3    H132270   2.078   0.950   3.681  0.9634  0.1855  1.3741
 3545TIP3    H232271   1.930   0.980   3.692  0.3563 -0.5547 -2.9905
 3546TIP3   OH232272   1.822   3.312   2.424  0.1176 -0.5415 -0.0189
 3546TIP3    H132273   1.798   3.353   2.507 -0.7795 -1.2847  0.1041
 3546TIP3    H232274   1.865   3.230   2.449  1.2263 -0.0720 -0.2801
 3547TIP3   OH232275   2.784   5.015   4.291  0.1805  0.3067 -0.0394
 3547TIP3    H132276   2.774   5.106   4.264 -0.9035  0.7872  1.8105
 3547TIP3    H232277   2.743   5.011   4.378  0.0903 -1.9756 -0.1324
 3548TIP3   OH232278   5.266   1.463   5.348 -0.0370 -0.4809 -0.2360
 3548TIP3    H132279   5.310   1.541   5.381  0.1130  0.3938 -2.3379
 3548TIP3    H232280   5.290   1.393   5.409  2.2583  0.4838  0.0413
 3549TIP3   OH232281   4.242   3.808   5.153  0.1196  0.8466  0.1571
 3549TIP3    H132282   4.294   3.822   5.232 -1.2742 -1.3833  1.5504
 3549TIP3    H232283   4.171   3.872   5.159 -0.2933  0.3133  0.9927
 3550TIP3   OH232284   3.427   4.366   2.993  0.1662 -0.0608 -0.3407
 3550TIP3    H132285   3.461   4.384   3.080  0.9915 -2.0089 -0.2032
 3550TIP3    H232286   3.492   4.308   2.953 -0.2767  0.6387 -2.1990
 3551TIP3   OH232287   6.456   3.664   3.169  0.4713 -0.4534  0.4204
 3551TIP3    H132288   6.423   3.733   3.227 -1.2668 -0.2740 -0.7289
 3551TIP3    H232289   6.543   3.695   3.143  1.1663 -0.3850  2.6345
 3552TIP3   OH232290   3.095   6.058   1.142 -0.0607  0.1813 -0.2915
 3552TIP3    H132291   3.014   6.029   1.099 -0.2709  1.4664 -0.8221
 3552TIP3    H232292   3.136   6.117   1.078  0.3593  0.9896  0.6898
 3553TIP3   OH232293   0.309   0.834   4.845 -0.0092  0.2449  0.7607
 3553TIP3    H132294   0.364   0.778   4.789 -1.7486 -0.8143  0.0379
 3553TIP3    H232295   0.337   0.813   4.934 -0.7421 -1.9740  0.5312
 3554TIP3   OH232296   2.436   5.079   3.136 -0.4511 -0.1342  0.0058
 3554TIP3    H132297   2.434   5.166   3.176  2.1868  0.2938 -0.5706
 3554TIP3    H232298   2.404   5.092   3.047 -1.2430 -0.0242  0.3011
 3555TIP3   OH232299   2.761   3.445   2.224  0.4486 -0.6038 -0.3235
 3555TIP3    H132300   2.848   3.453   2.187  1.0882 -0.8295  1.0584
 3555TIP3    H232301   2.736   3.354   2.207  1.1213 -0.9702  0.5723
 3556TIP3   OH232302   0.083   6.557   2.289  0.2869  0.5356  0.0420
 3556TIP3    H132303   0.166   6.510   2.292  1.0046  1.7777 -0.1372
 3556TIP3    H232304   0.082   6.609   2.369 -0.1752  0.7828 -0.1230
 3557TIP3   OH232305   5.097   2.873   2.898 -0.2765  0.5143 -0.8264
 3557TIP3    H132306   5.023   2.872   2.838 -0.2179  1.4271 -0.9252
 3557TIP3    H232307   5.074   2.810   2.966 -0.7556  0.1591 -1.3115
 3558TIP3   OH232308   2.484   1.472   5.180 -0.1565 -0.0729 -0.1906
 3558TIP3    H132309   2.422   1.405   5.209  0.0183  0.5228  1.6456
 3558TIP3    H232310   2.562   1.459   5.234  0.9835 -0.1834 -1.7894
 3559TIP3   OH232311   4.400   3.417   1.771 -0.3291  0.5197  0.9113
 3559TIP3    H132312   4.433   3.438   1.858  1.0045 -1.8549  1.0592
 3559TIP3    H232313   4.445   3.336   1.747 -2.5967 -0.3103 -0.9198
 3560TIP3   OH232314   3.323   0.999   2.056 -0.0988  0.4150  0.1592
 3560TIP3    H132315   3.403   0.947   2.051  0.3948  1.0455  1.3619
 3560TIP3    H232316   3.351   1.084   2.089 -1.0754  1.0823 -0.6676
 3561TIP3   OH232317   2.700   6.756   1.323  0.1126 -0.3345 -0.3314
 3561TIP3    H132318   2.685   6.715   1.408 -0.7231  1.1191  0.2550
 3561TIP3    H232319   2.628   6.724   1.268 -0.4657  0.2238  0.0859
 3562TIP3   OH232320   5.896   3.845   0.342 -0.3400 -0.2058 -0.0993
 3562TIP3    H132321   5.947   3.925   0.355 -0.9044  0.1928 -0.3072
 3562TIP3    H232322   5.961   3.775   0.338  0.2975  0.4596 -1.8450
 3563TIP3   OH232323   0.912   6.583   3.697 -0.9191  0.7009  0.6490
 3563TIP3    H132324   0.927   6.507   3.753 -0.5355  1.2565  1.3158
 3563TIP3    H232325   0.839   6.630   3.739 -0.1321  1.5266  1.1299
 3564TIP3   OH232326   1.762   1.359   5.338  0.5692 -0.1727 -0.0566
 3564TIP3    H132327   1.671   1.329   5.350  0.2812 -0.2749 -2.1043
 3564TIP3    H232328   1.785   1.328   5.251  1.6965  2.0626 -0.6097
 3565TIP3   OH232329   0.496   2.365   0.973 -0.2572 -0.4911 -0.3094
 3565TIP3    H132330   0.576   2.416   0.987 -0.8312  0.1898  0.5537
 3565TIP3    H232331   0.441   2.421   0.920 -0.3125 -0.8193 -0.6032
 3566TIP3   OH232332   6.531   4.642   2.487 -0.0240 -0.0610 -0.7802
 3566TIP3    H132333   6.490   4.727   2.505  3.5019  1.7241 -0.3377
 3566TIP3    H232334   6.575   4.620   2.569  0.8819 -1.2619 -1.5697
 3567TIP3   OH232335   1.776   5.214   2.643  0.1876 -0.0180 -0.1072
 3567TIP3    H132336   1.845   5.271   2.609 -0.9149  1.5124  0.1092
 3567TIP3    H232337   1.735   5.176   2.565  1.3173 -1.0202 -0.2305
 3568TIP3   OH232338   4.185   1.072   1.888 -0.8203  0.6727  0.0145
 3568TIP3    H132339   4.236   1.036   1.961 -0.7825  2.9684  1.2120
 3568TIP3    H232340   4.108   1.111   1.929 -2.2527 -0.4268 -1.5109
 3569TIP3   OH232341   1.812   1.519   4.353 -0.2530  0.2819 -0.0257
 3569TIP3    H132342   1.732   1.505   4.404 -0.1159  1.7119  0.6413
 3569TIP3    H232343   1.792   1.596   4.300  0.3021 -0.0186 -0.6797
 3570TIP3   OH232344   4.277   4.691   3.671  0.9083  0.0455  0.2979
 3570TIP3    H132345   4.228   4.610   3.686  1.4272 -0.5919 -1.1841
 3570TIP3    H232346   4.364   4.673   3.707  0.2793  0.9917  2.4652
 3571TIP3   OH232347   1.030   0.335   3.119  0.3501  0.3208 -0.4276
 3571TIP3    H132348   1.112   0.384   3.119 -0.2683  1.5248 -2.7366
 3571TIP3    H232349   1.016   0.311   3.211  1.0148  4.0124  0.8248
 3572TIP3   OH232350   2.771   4.762   1.581 -0.3515 -0.9924  0.0975
 3572TIP3    H132351   2.788   4.848   1.620 -0.9179 -1.5106  1.5739
 3572TIP3    H232352   2.838   4.752   1.513  0.5594  0.0541  0.8097
 3573TIP3   OH232353   4.636   0.034   3.752  0.0544 -0.0580 -0.6954
 3573TIP3    H132354   4.579   0.042   3.828  0.2452 -1.0526 -0.4289
 3573TIP3    H232355   4.589  -0.023   3.691  0.7715 -0.9553 -0.4377
 3574TIP3   OH232356   2.800   0.301   4.837 -0.0396  0.1915  0.0906
 3574TIP3    H132357   2.815   0.306   4.932  2.0537  0.5958 -0.2148
 3574TIP3    H232358   2.816   0.391   4.806  1.6490 -0.4111 -0.9085
 3575TIP3   OH232359   0.220   1.266   2.871 -0.6416  0.2016  0.3319
 3575TIP3    H132360   0.138   1.219   2.860 -0.5543 -0.3345  1.7452
 3575TIP3    H232361   0.222   1.329   2.799 -2.8689  1.0517  0.9357
 3576TIP3   OH232362   1.087   0.908   1.557 -0.1921 -0.1306 -0.1887
 3576TIP3    H132363   1.135   0.850   1.499  0.3730  0.5012 -0.3654
 3576TIP3    H232364   1.137   0.908   1.639 -0.6774 -0.5806  0.1166
 3577TIP3   OH232365   3.664   4.134   3.561  0.1661 -0.2751 -0.2310
 3577TIP3    H132366   3.707   4.110   3.644 -2.7253  0.2082  1.5288
 3577TIP3    H232367   3.607   4.060   3.541 -0.0151  0.1194 -1.2041
 3578TIP3   OH232368   3.448   6.680   2.739 -0.0832  0.3938  0.5509
 3578TIP3    H132369   3.372   6.734   2.719 -0.1174 -0.1837 -0.9906
 3578TIP3    H232370   3.429   6.595   2.699 -0.3012 -1.0530  3.4024
 3579TIP3   OH232371   4.899   4.450   4.271 -0.3078 -0.2758 -0.0387
 3579TIP3    H132372   4.940   4.490   4.347  0.6214 -0.7405 -0.2788
 3579TIP3    H232373   4.825   4.508   4.250 -1.5318 -0.9257  2.1024
 3580TIP3   OH232374   1.814   0.006   0.398  0.2226  0.2550 -0.1415
 3580TIP3    H132375   1.800   0.090   0.355 -0.7056 -0.3801 -1.1260
 3580TIP3    H232376   1.727  -0.034   0.400  0.4826 -0.2927  1.1630
 3581TIP3   OH232377   5.957   1.449   2.113 -0.0855  0.0099  0.4368
 3581TIP3    H132378   5.867   1.471   2.138  0.0693  0.8714  0.2763
 3581TIP3    H232379   5.947   1.393   2.035 -0.4963 -0.5900  0.9151
 3582TIP3   OH232380   4.317   2.540   5.604 -0.3174  0.2243 -0.4798
 3582TIP3    H132381   4.225   2.532   5.630 -0.1071  1.6253  0.8743
 3582TIP3    H232382   4.365   2.505   5.679  0.2777 -1.2682 -1.5164
 3583TIP3   OH232383   5.751   1.750   2.169 -0.3713 -0.3342 -0.0463
 3583TIP3    H132384   5.727   1.839   2.143  0.3397  0.2259  1.1192
 3583TIP3    H232385   5.847   1.750   2.170 -0.3566 -1.2435 -0.4368
 3584TIP3   OH232386   1.674   3.907   2.541  0.2861 -0.2266 -0.1678
 3584TIP3    H132387   1.640   3.963   2.611  0.9333  0.6524 -0.5442
 3584TIP3    H232388   1.650   3.952   2.460  1.3661 -0.1529 -0.4649
 3585TIP3   OH232389   3.648   1.085   2.915  0.6032 -0.6311 -0.4484
 3585TIP3    H132390   3.687   1.172   2.927  0.5244 -0.7669  0.8903
 3585TIP3    H232391   3.717   1.024   2.938  0.5466 -0.9283 -1.0509
 3586TIP3   OH232392   2.548   3.582   2.774  0.2618 -0.2278 -0.3600
 3586TIP3    H132393   2.518   3.665   2.809 -0.5453 -0.1386 -1.2311
 3586TIP3    H232394   2.582   3.603   2.687 -0.5165 -0.8918 -0.8356
 3587TIP3   OH232395   4.017   5.405   0.913  0.5026  0.1146  0.5246
 3587TIP3    H132396   4.033   5.315   0.941  2.3575  0.3926  0.5149
 3587TIP3    H232397   3.937   5.431   0.959  0.2815 -1.3251  1.0019
 3588TIP3   OH232398   1.897   5.688   2.716  0.2010  0.3645  0.3300
 3588TIP3    H132399   1.895   5.615   2.779 -0.2426  0.0254 -0.0732
 3588TIP3    H232400   1.952   5.754   2.758  1.1054 -0.4396  0.4440
 3589TIP3   OH232401   1.451   5.686   1.766 -0.3663  0.3328 -0.1722
 3589TIP3    H132402   1.379   5.704   1.827 -0.2904 -0.3108  0.1199
 3589TIP3    H232403   1.438   5.746   1.694  0.3122  2.1003  1.0998
 3590TIP3   OH232404   1.848   1.164   3.450 -0.9749 -0.3361  0.0886
 3590TIP3    H132405   1.903   1.132   3.521  0.4207 -0.7505 -1.1190
 3590TIP3    H232406   1.764   1.186   3.491 -0.0046  0.0509  1.9381
 3591TIP3   OH232407   4.022   1.329   0.885  0.1375 -0.1742  0.3361
 3591TIP3    H132408   4.024   1.307   0.792  1.7190 -0.6913  0.4683
 3591TIP3    H232409   4.021   1.244   0.930 -2.3433  0.0452  0.8158
 3592TIP3   OH232410   0.877   0.994   1.262  0.1844 -0.3486 -0.4040
 3592TIP3    H132411   0.878   0.909   1.307 -2.3818 -0.9971 -1.3900
 3592TIP3    H232412   0.866   1.058   1.332 -3.0592 -1.2837  0.1148
 3593TIP3   OH232413   6.300   3.902   4.697  0.0826 -0.3218 -0.0145
 3593TIP3    H132414   6.385   3.861   4.681 -0.0176 -0.5091 -0.0661
 3593TIP3    H232415   6.236   3.836   4.672 -0.0806 -0.4074  0.6107
 3594TIP3   OH232416   3.188   6.525   2.878  0.2502 -0.4145 -0.0996
 3594TIP3    H132417   3.218   6.545   2.967 -0.5214 -0.1569  0.1132
 3594TIP3    H232418   3.145   6.605   2.849 -0.9540 -1.0359 -0.0744
 3595TIP3   OH232419   0.892   4.797   1.671  0.2497  0.2860 -0.7436
 3595TIP3    H132420   0.906   4.787   1.766  0.8867  2.1248 -0.6124
 3595TIP3    H232421   0.809   4.843   1.664  0.4661  0.6324 -1.0511
 3596TIP3   OH232422   3.112   3.782   1.949  0.5053  0.3549  0.1443
 3596TIP3    H132423   3.140   3.789   2.040 -1.5639 -1.1005  0.9718
 3596TIP3    H232424   3.175   3.724   1.908  1.1402  0.5836  0.7912
 3597TIP3   OH232425   6.255   6.145   2.236  0.5461 -0.1388 -0.0012
 3597TIP3    H132426   6.292   6.096   2.163 -2.5695 -0.1899 -1.7480
 3597TIP3    H232427   6.230   6.229   2.199 -0.6018  0.0556  1.1176
 3598TIP3   OH232428   1.777   5.858   5.144  0.5319  0.1086 -0.4283
 3598TIP3    H132429   1.759   5.772   5.182 -2.0253 -0.1699 -2.0262
 3598TIP3    H232430   1.799   5.840   5.053 -1.7252  1.1210 -1.2708
 3599TIP3   OH232431   6.398   4.836   3.641 -0.0138 -0.0290 -0.2420
 3599TIP3    H132432   6.472   4.806   3.588  0.1298  1.3624 -0.8921
 3599TIP3    H232433   6.342   4.759   3.650  0.4784 -0.5806 -1.5594
 3600TIP3   OH232434   5.007   2.527   5.548  0.5049  0.0692  0.2601
 3600TIP3    H132435   4.953   2.451   5.525  0.3443  0.2606  0.0099
 3600TIP3    H232436   5.058   2.497   5.623  0.5274 -0.3286  0.0906
 3601TIP3   OH232437   3.488   2.918   1.666  0.1580  0.1617  0.4597
 3601TIP3    H132438   3.413   2.952   1.714  0.1361  1.6283 -0.5369
 3601TIP3    H232439   3.554   2.988   1.673 -0.4741  1.3117 -3.0726
 3602TIP3   OH232440   1.556   0.711   0.999 -0.2195  0.0950 -0.4557
 3602TIP3    H132441   1.636   0.712   0.947  0.8321  0.4394  1.1130
 3602TIP3    H232442   1.501   0.646   0.956  1.6554 -1.5558 -0.5158
 3603TIP3   OH232443   1.877   0.253   4.218 -0.2214 -0.6175 -0.3960
 3603TIP3    H132444   1.935   0.188   4.178  2.0744  1.7915 -1.2999
 3603TIP3    H232445   1.936   0.319   4.254 -2.3984  0.9283  0.5868
 3604TIP3   OH232446   5.817   1.344   5.541 -0.1843 -0.1318  0.3434
 3604TIP3    H132447   5.738   1.395   5.555 -0.5760 -0.7685  0.4856
 3604TIP3    H232448   5.792   1.254   5.560  0.2008 -0.5417 -0.9923
 3605TIP3   OH232449   2.169   3.379   1.825  0.1743 -0.4670  0.0619
 3605TIP3    H132450   2.082   3.350   1.850  0.2337  0.1647  1.0365
 3605TIP3    H232451   2.200   3.431   1.899  1.7055 -1.3399  0.0815
 3606TIP3   OH232452   4.334   3.507   0.663 -0.5663 -0.5534  0.2021
 3606TIP3    H132453   4.263   3.571   0.660  0.1940  0.3205  0.2708
 3606TIP3    H232454   4.389   3.528   0.587  1.0806  0.5980  1.6091
 3607TIP3   OH232455   4.375   0.210   3.106 -0.5620 -0.0282  0.1112
 3607TIP3    H132456   4.413   0.281   3.055 -0.9242 -0.6621 -1.0987
 3607TIP3    H232457   4.304   0.176   3.051 -0.4170 -1.2963  0.6565
 3608TIP3   OH232458   1.148   3.850   0.549 -0.0687 -0.0973  0.0719
 3608TIP3    H132459   1.061   3.833   0.584 -0.3265  1.3287  0.1514
 3608TIP3    H232460   1.133   3.898   0.467  0.6334  0.0196  0.0013
 3609TIP3   OH232461   6.720   1.449   3.358 -0.2403 -0.6248  0.3050
 3609TIP3    H132462   6.721   1.354   3.351 -0.4878 -0.5500 -0.9398
 3609TIP3    H232463   6.627   1.472   3.359 -0.3000 -0.1872 -3.4103
 3610TIP3   OH232464   3.038   1.418   2.330  0.0738  0.7248  0.4621
 3610TIP3    H132465   3.035   1.442   2.423  1.1523 -1.9888  1.2786
 3610TIP3    H232466   3.020   1.324   2.328 -1.5688  0.9834 -2.2931
 3611TIP3   OH232467   2.260   3.587   4.006 -0.1448 -0.2415  0.0011
 3611TIP3    H132468   2.248   3.599   3.912 -1.8758  0.7162  0.2905
 3611TIP3    H232469   2.189   3.529   4.032  1.0390 -1.4911  0.5533
 3612TIP3   OH232470   5.118   2.389   3.039 -0.1005  0.3621 -0.0347
 3612TIP3    H132471   5.167   2.361   3.116 -1.6868  1.7078  1.5558
 3612TIP3    H232472   5.166   2.352   2.965  1.1147 -1.5347  1.6033
 3613TIP3   OH232473   4.659   6.070   3.062  0.0554  0.1885 -0.3583
 3613TIP3    H132474   4.632   5.987   3.023  2.4575 -0.2769 -1.2189
 3613TIP3    H232475   4.668   6.129   2.987 -0.0030  0.7429  0.0682
 3614TIP3   OH232476   5.735   4.393   3.655 -0.2640  0.3480  0.2213
 3614TIP3    H132477   5.664   4.440   3.700 -0.2666 -0.1702  0.7695
 3614TIP3    H232478   5.807   4.395   3.718  0.3988  1.3349 -0.5450
 3615TIP3   OH232479   1.056   2.433   3.028  0.2819  0.1966  0.4730
 3615TIP3    H132480   1.091   2.356   2.983 -0.5122 -0.2472  0.5967
 3615TIP3    H232481   0.963   2.414   3.039 -0.1088  1.5265 -0.2350
 3616TIP3   OH232482   3.455   5.998   4.099  0.4657 -0.0145 -0.1409
 3616TIP3    H132483   3.531   6.029   4.049  1.9242 -1.9664  0.7441
 3616TIP3    H232484   3.466   6.037   4.185 -1.6773  2.7777 -0.9722
 3617TIP3   OH232485   3.856   5.171   1.509 -0.2770 -0.0359  0.2788
 3617TIP3    H132486   3.849   5.259   1.471 -0.6031  0.7330  2.0117
 3617TIP3    H232487   3.888   5.186   1.598 -0.2791 -1.6866  0.5818
 3618TIP3   OH232488   2.289   0.264   0.580  0.4524  0.2082 -0.6114
 3618TIP3    H132489   2.219   0.250   0.517  0.4528 -0.4791 -0.4699
 3618TIP3    H232490   2.369   0.270   0.527  0.3781  0.2493 -0.7176
 3619TIP3   OH232491   6.303   2.486   0.838 -0.7463  0.4451  0.0967
 3619TIP3    H132492   6.249   2.549   0.791 -1.5094 -0.4042 -0.1887
 3619TIP3    H232493   6.256   2.403   0.830  0.6669 -0.3549 -0.2960
 3620TIP3   OH232494   3.528   2.361   4.664  0.0326  0.6108  0.0735
 3620TIP3    H132495   3.453   2.336   4.610 -0.2383  1.9752 -0.2164
 3620TIP3    H232496   3.604   2.349   4.607 -0.0507  0.1552  0.0538
 3621TIP3   OH232497   1.965   2.256   1.145 -0.2817  0.0582  0.4762
 3621TIP3    H132498   1.996   2.291   1.061 -0.4299 -3.2160 -1.0742
 3621TIP3    H232499   2.027   2.186   1.166 -1.1396 -0.1967  2.3480
 3622TIP3   OH232500   6.070   4.089   3.050 -0.4432 -0.3324  1.0494
 3622TIP3    H132501   6.072   4.168   3.105  0.9197  0.1988  0.2890
 3622TIP3    H232502   6.040   4.120   2.965  3.8055  0.2780 -0.4550
 3623TIP3   OH232503   6.735   4.179   2.420  0.5120  1.1079 -0.0583
 3623TIP3    H132504   6.732   4.233   2.342  0.3763  0.6545 -0.3700
 3623TIP3    H232505   6.658   4.205   2.471 -0.8529 -0.3415 -1.2559
 3624TIP3   OH232506   2.689   4.415   1.457  0.0597  0.4807  0.3445
 3624TIP3    H132507   2.668   4.438   1.547 -0.1594  1.4641  0.0510
 3624TIP3    H232508   2.648   4.483   1.404 -1.4507 -1.0859 -0.6393
 3625TIP3   OH232509   5.628   2.638   4.256  0.1399 -0.3508 -0.5043
 3625TIP3    H132510   5.615   2.671   4.345 -0.7740 -1.5725 -0.1667
 3625TIP3    H232511   5.545   2.597   4.233  0.4105 -0.1606 -1.8835
 3626TIP3   OH232512   1.841   0.336   2.714  0.1204 -0.1023 -0.2077
 3626TIP3    H132513   1.752   0.354   2.684 -0.2718  0.2462  1.0936
 3626TIP3    H232514   1.848   0.382   2.797  0.6148 -2.2189  1.0163
 3627TIP3   OH232515   6.245   1.306   4.256 -0.1335 -0.1617  0.0672
 3627TIP3    H132516   6.326   1.334   4.214  0.6678 -1.5478  0.6287
 3627TIP3    H232517   6.238   1.362   4.333  0.2234  0.0552 -0.0575
 3628TIP3   OH232518   1.142   2.231   2.297 -0.2777  0.2932 -0.7977
 3628TIP3    H132519   1.132   2.263   2.208 -3.4345 -0.0253 -0.6734
 3628TIP3    H232520   1.074   2.164   2.307  1.1355 -0.9998  1.3239
 3629TIP3   OH232521   6.244   0.225   3.635 -0.0816  0.3023 -0.7191
 3629TIP3    H132522   6.316   0.162   3.630 -0.2355  0.1140 -0.5743
 3629TIP3    H232523   6.230   0.253   3.545  1.0397  1.3248 -0.6020
 3630TIP3   OH232524   5.423   6.444   4.870  0.3593  0.5949 -0.0777
 3630TIP3    H132525   5.402   6.378   4.803 -0.2356  0.5489  0.1476
 3630TIP3    H232526   5.414   6.397   4.953  0.6578  0.7702  0.0533
 3631TIP3   OH232527   3.464   3.560   0.558 -0.3112 -0.0661  0.6100
 3631TIP3    H132528   3.464   3.476   0.512 -1.2341  0.2200  0.0699
 3631TIP3    H232529   3.545   3.559   0.609 -0.0173 -1.0293  0.1481
 3632TIP3   OH232530   3.864   0.866   4.334 -0.4315  0.6547 -0.1526
 3632TIP3    H132531   3.868   0.962   4.338 -2.2252  0.7665  0.0177
 3632TIP3    H232532   3.839   0.839   4.423  2.2747 -0.1937  0.4433
 3633TIP3   OH232533   6.410   2.240   1.202  0.0920 -0.3485 -0.4238
 3633TIP3    H132534   6.396   2.187   1.124 -1.1994 -0.5168 -0.1089
 3633TIP3    H232535   6.361   2.320   1.186  1.3378  0.4166 -0.5384
 3634TIP3   OH232536   3.432   5.956   4.745  0.2261  0.2121  0.2042
 3634TIP3    H132537   3.371   5.960   4.671 -0.8902 -0.6483  1.0417
 3634TIP3    H232538   3.389   5.897   4.807  1.5158  0.3039  1.2001
 3635TIP3   OH232539   5.954   0.160   3.698  0.6486 -0.1858  0.1545
 3635TIP3    H132540   6.050   0.168   3.701  0.7585 -1.6191  1.4694
 3635TIP3    H232541   5.922   0.241   3.738  1.3059  0.2205 -0.1203
 3636TIP3   OH232542   6.680   2.305   1.500 -0.3022 -0.2187  0.1971
 3636TIP3    H132543   6.735   2.251   1.444 -2.2363 -0.9510 -1.1301
 3636TIP3    H232544   6.673   2.388   1.453  0.2092  0.1148  0.7045
 3637TIP3   OH232545   2.314   3.402   2.693 -0.0128 -0.3746 -0.5461
 3637TIP3    H132546   2.407   3.421   2.707 -0.4484  0.9211  0.8293
 3637TIP3    H232547   2.293   3.444   2.610  0.3106  0.6300 -0.1403
 3638TIP3   OH232548   4.944   5.817   2.237  0.3790  0.6424  0.5900
 3638TIP3    H132549   4.954   5.726   2.262 -0.2131  0.3512 -0.1991
 3638TIP3    H232550   5.031   5.842   2.203  0.0971 -0.1532 -0.8013
 3639TIP3   OH232551   3.434   2.977   1.092  0.0943 -0.1311 -0.2097
 3639TIP3    H132552   3.470   2.896   1.058 -1.0392 -0.0115 -1.8443
 3639TIP3    H232553   3.412   2.957   1.183  1.1207 -1.2033 -0.1725
 3640TIP3   OH232554   6.151   5.299   4.459  0.5652 -0.6710  0.6005
 3640TIP3    H132555   6.173   5.224   4.515  3.7309  0.0002  0.4523
 3640TIP3    H232556   6.231   5.352   4.457 -0.6153  1.2380 -1.6466
 3641TIP3   OH232557   5.668   3.219   1.497  0.0922  0.1542 -0.4857
 3641TIP3    H132558   5.595   3.224   1.559  0.3463  1.5752 -0.2716
 3641TIP3    H232559   5.718   3.143   1.527 -1.7216 -1.4010 -1.1647
 3642TIP3   OH232560   2.723   4.527   0.944  0.5707 -0.4311 -0.1238
 3642TIP3    H132561   2.642   4.495   0.903 -0.7358 -1.1925  2.7650
 3642TIP3    H232562   2.772   4.448   0.965  0.0192 -0.2735  1.9309
 3643TIP3   OH232563   1.018   1.077   1.009  0.4522  0.4743  0.0303
 3643TIP3    H132564   0.984   1.023   1.081  0.8914  0.0740 -0.0601
 3643TIP3    H232565   1.109   1.096   1.034  0.9907 -0.6548 -0.9709
 3644TIP3   OH232566   1.103   5.622   2.507 -0.0770  0.3162 -0.3932
 3644TIP3    H132567   1.009   5.643   2.509  0.2622  1.8765  0.7581
 3644TIP3    H232568   1.116   5.565   2.583 -0.0213  0.4532 -0.2994
 3645TIP3   OH232569   3.642   2.494   3.885  0.5461  0.4260 -0.5289
 3645TIP3    H132570   3.614   2.471   3.797  1.5651  1.0215 -1.0243
 3645TIP3    H232571   3.736   2.477   3.886  0.5224  0.2438  0.5113
 3646TIP3   OH232572   5.752   2.927   4.534  0.0740 -0.0755  0.4451
 3646TIP3    H132573   5.675   2.876   4.560  0.2952 -1.2835 -1.1312
 3646TIP3    H232574   5.715   3.004   4.490 -0.3022 -1.2226 -1.3669
 3647TIP3   OH232575   3.326   4.874   3.953 -0.3120 -0.2766  0.1541
 3647TIP3    H132576   3.246   4.927   3.944 -0.8866 -1.2055 -0.3780
 3647TIP3    H232577   3.307   4.794   3.903  1.4381  0.0268 -1.0543
 3648TIP3   OH232578   2.031   5.684   2.393 -0.7405  0.9216 -0.0094
 3648TIP3    H132579   1.970   5.662   2.463 -1.2487  0.1157 -0.6899
 3648TIP3    H232580   1.983   5.744   2.337 -1.1010 -0.0729 -0.7995
 3649TIP3   OH232581   0.849   5.634   2.449  0.5042  0.0804 -0.0118
 3649TIP3    H132582   0.804   5.571   2.504  0.6293  0.7627  0.8922
 3649TIP3    H232583   0.803   5.630   2.365 -1.8284  1.3194  1.1010
 3650TIP3   OH232584   5.512   3.005   1.310  0.4738 -0.0454  0.5568
 3650TIP3    H132585   5.439   3.055   1.273  1.4251 -0.0294 -1.4423
 3650TIP3    H232586   5.570   3.070   1.348  1.3293  0.3829 -1.3567
 3651TIP3   OH232587   4.995   2.967   2.608 -0.7957 -0.3940  0.6775
 3651TIP3    H132588   4.935   2.918   2.552  0.1103 -0.0275 -0.6553
 3651TIP3    H232589   5.074   2.912   2.611 -0.5502 -0.0288  0.9476
 3652TIP3   OH232590   3.146   0.804   1.026 -0.3008  0.1217  0.1399
 3652TIP3    H132591   3.172   0.875   1.085  0.7180  0.1255 -0.2841
 3652TIP3    H232592   3.201   0.817   0.948  0.7758 -1.8357  0.5254
 3653TIP3   OH232593   6.094   4.755   2.769 -0.4378  0.5961 -0.2846
 3653TIP3    H132594   6.144   4.751   2.688 -0.6908  0.6404 -0.4436
 3653TIP3    H232595   6.002   4.750   2.741 -0.5058 -0.0629  0.0477
 3654TIP3   OH232596   6.751   3.507   3.385 -0.1618 -0.6401 -0.3582
 3654TIP3    H132597   6.801   3.573   3.337  0.4149 -0.8110  0.0006
 3654TIP3    H232598   6.772   3.424   3.341  0.9213 -0.8959  0.6106
 3655TIP3   OH232599   0.836   3.100   1.236  0.1388 -0.4471  0.1993
 3655TIP3    H132600   0.828   3.180   1.184  1.6439 -0.3926  0.0012
 3655TIP3    H232601   0.894   3.124   1.309  1.1685 -1.4929 -0.2310
 3656TIP3   OH232602   0.715   2.847   2.640  0.2192 -0.2507 -0.1611
 3656TIP3    H132603   0.810   2.842   2.648  0.2011 -1.4416 -0.4531
 3656TIP3    H232604   0.700   2.889   2.555  0.4856 -0.5671 -0.3637
 3657TIP3   OH232605   3.595   3.074   2.560 -0.0830 -0.5391 -0.7230
 3657TIP3    H132606   3.672   3.060   2.616 -0.7577  0.9258  0.6502
 3657TIP3    H232607   3.520   3.059   2.617 -0.8258 -1.0718 -1.8082
 3658TIP3   OH232608   5.966   1.734   3.940 -0.4978 -0.0007 -0.4921
 3658TIP3    H132609   5.924   1.731   4.026 -1.6238  0.0379 -1.0333
 3658TIP3    H232610   5.897   1.712   3.878  0.1392  0.6208 -1.4478
 3659TIP3   OH232611   5.221   2.578   2.811 -0.1900  0.4659 -0.0936
 3659TIP3    H132612   5.172   2.502   2.841 -0.8678  0.5888 -0.8445
 3659TIP3    H232613   5.155   2.633   2.767  0.3252  1.3810  0.2479
 3660TIP3   OH232614   4.062   6.406   4.803  0.0243  0.1065 -0.0704
 3660TIP3    H132615   3.998   6.369   4.864 -0.5661  0.2678 -0.5742
 3660TIP3    H232616   4.146   6.374   4.834 -0.3704 -0.7518  0.1540
 3661TIP3   OH232617   1.606   4.983   0.951 -0.7234 -0.4399  0.0889
 3661TIP3    H132618   1.526   5.010   0.995 -0.0827 -0.2319  1.1755
 3661TIP3    H232619   1.595   4.889   0.936 -0.8217 -0.5759  0.9955
 3662TIP3   OH232620   0.106   5.063   4.231 -0.3422 -0.1528 -0.1329
 3662TIP3    H132621   0.138   5.077   4.320  0.2229  1.8767 -0.5913
 3662TIP3    H232622   0.122   4.971   4.213  0.3101 -0.3980  1.5555
 3663TIP3   OH232623   5.363   5.018   4.560  0.0062 -0.0109 -0.2983
 3663TIP3    H132624   5.304   4.947   4.589  2.5532 -1.6772  1.1598
 3663TIP3    H232625   5.371   5.004   4.466 -0.9595 -0.5289 -0.3182
 3664TIP3   OH232626   0.344   3.329   5.509  0.1371  0.4130 -0.4272
 3664TIP3    H132627   0.286   3.263   5.471  0.0093  1.3803 -1.9790
 3664TIP3    H232628   0.377   3.288   5.590 -0.2985 -1.3578 -1.1026
 3665TIP3   OH232629   0.067   4.583   3.673 -0.0047  0.3393 -0.3448
 3665TIP3    H132630   0.140   4.589   3.735  1.6764 -1.9397 -1.9382
 3665TIP3    H232631  -0.005   4.545   3.724  1.7122 -2.6722  0.0795
 3666TIP3   OH232632   3.940   4.311   2.906  0.0776  0.1370 -0.1304
 3666TIP3    H132633   4.033   4.291   2.918  0.5892  2.8528  1.2167
 3666TIP3    H232634   3.934   4.406   2.917 -2.9561 -0.0005  0.3598
 3667TIP3   OH232635   0.875   1.356   2.200 -0.1341  0.1434  0.5060
 3667TIP3    H132636   0.796   1.328   2.155  0.4011 -0.7339  0.0822
 3667TIP3    H232637   0.844   1.400   2.279 -1.0635  0.8748 -0.2517
 3668TIP3   OH232638   4.464   6.481   2.524 -0.2016  0.7802 -0.3148
 3668TIP3    H132639   4.520   6.435   2.462  0.5381  1.3876 -0.1143
 3668TIP3    H232640   4.384   6.427   2.529  0.4669 -0.2484 -0.3961
 3669TIP3   OH232641   5.616   0.366   3.321  0.3281  0.4127 -0.5659
 3669TIP3    H132642   5.593   0.313   3.244  0.8171  1.2888 -1.3304
 3669TIP3    H232643   5.649   0.448   3.285  1.2278  0.5760  0.5692
 3670TIP3   OH232644   2.593   3.070   5.988  0.6059 -0.1450 -0.0664
 3670TIP3    H132645   2.687   3.055   5.989  0.6755  0.1151 -1.3853
 3670TIP3    H232646   2.556   2.987   6.018  1.2168 -0.7093 -0.8397
 3671TIP3   OH232647   3.141   4.820   1.981  0.5342 -0.0592 -0.7023
 3671TIP3    H132648   3.150   4.758   1.909  1.9486  0.2350 -0.7989
 3671TIP3    H232649   3.219   4.807   2.035  0.2995  0.8498 -0.1153
 3672TIP3   OH232650   3.048   5.523   3.523  0.3604 -0.5678 -0.1574
 3672TIP3    H132651   3.135   5.497   3.552  0.1517  1.7549  3.1735
 3672TIP3    H232652   2.988   5.477   3.581 -0.4214  0.4548 -0.1108
 3673TIP3   OH232653   1.059   4.796   2.888 -0.1083  0.0803  0.2314
 3673TIP3    H132654   1.140   4.836   2.860 -0.2143  0.4798  0.4919
 3673TIP3    H232655   1.030   4.745   2.812 -0.4043  1.1611 -0.3954
 3674TIP3   OH232656   0.198   3.610   2.679  0.1914 -0.0554 -0.1168
 3674TIP3    H132657   0.283   3.654   2.673  0.6348 -0.9200 -0.3080
 3674TIP3    H232658   0.138   3.667   2.632  0.3489  1.3190  1.2645
 3675TIP3   OH232659   2.940   2.348   1.451 -0.7551  0.1299  0.2398
 3675TIP3    H132660   2.880   2.336   1.378 -1.4521  0.0877  0.8070
 3675TIP3    H232661   2.961   2.441   1.450 -0.3731  0.0447 -0.3027
 3676TIP3   OH232662   5.140   3.242   4.927  0.1514  0.1123 -0.0989
 3676TIP3    H132663   5.171   3.153   4.911 -2.4102 -1.0306  0.7109
 3676TIP3    H232664   5.125   3.246   5.021 -2.1961  0.4599 -0.4305
 3677TIP3   OH232665   0.226   0.078   4.331  0.2038 -0.3112 -0.1343
 3677TIP3    H132666   0.173   0.139   4.383  0.3349  0.7312 -1.1893
 3677TIP3    H232667   0.308   0.125   4.314  0.0924 -0.5411 -1.4300
 3678TIP3   OH232668   4.089   3.011   3.332  0.4290 -0.0597 -0.1320
 3678TIP3    H132669   4.049   3.091   3.299  1.9261  1.3863  1.3701
 3678TIP3    H232670   4.050   2.998   3.418 -0.4954 -1.5179 -0.7402
 3679TIP3   OH232671   3.904   1.525   1.506 -0.2961 -0.0864  0.0497
 3679TIP3    H132672   3.846   1.492   1.575  1.7144  1.3440  2.6268
 3679TIP3    H232673   3.879   1.617   1.495  0.3583  0.0903 -0.0303
 3680TIP3   OH232674   1.609   5.728   4.062  0.0693  0.2655  0.1727
 3680TIP3    H132675   1.616   5.817   4.028 -1.3314 -0.2126 -1.5104
 3680TIP3    H232676   1.528   5.728   4.113 -0.3237 -0.2021 -0.4330
 3681TIP3   OH232677   5.652   5.873   2.430  0.0356 -0.0010  0.2921
 3681TIP3    H132678   5.692   5.887   2.516  2.4546 -0.1411 -0.7226
 3681TIP3    H232679   5.682   5.786   2.404 -0.0976  0.3036 -0.9563
 3682TIP3   OH232680   0.006   6.136   3.074  0.2457 -0.2902 -0.2000
 3682TIP3    H132681   0.048   6.056   3.106 -0.1394  0.1132  1.4135
 3682TIP3    H232682  -0.004   6.191   3.152 -3.5563 -0.4879 -0.3803
 3683TIP3   OH232683   4.774   5.043   3.674 -0.2464 -0.2496  0.1354
 3683TIP3    H132684   4.795   5.001   3.758  0.8874  2.2519  1.1879
 3683TIP3    H232685   4.853   5.091   3.650 -1.0504  0.2726 -1.6434
 3684TIP3   OH232686   5.941   1.499   1.032  0.1632 -0.1699  0.6603
 3684TIP3    H132687   6.008   1.462   0.975 -0.7822 -1.0347  0.0737
 3684TIP3    H232688   5.885   1.425   1.055 -1.5775  0.7956 -0.2484
 3685TIP3   OH232689   5.644   2.061   2.128 -0.1988  0.0470 -0.4552
 3685TIP3    H132690   5.624   2.152   2.106  0.3601  0.2970  0.0424
 3685TIP3    H232691   5.625   2.013   2.048 -3.0414  0.2023  0.0441
 3686TIP3   OH232692   0.195   3.918   2.819  0.4811 -0.2650  0.4387
 3686TIP3    H132693   0.248   3.863   2.877  0.8664 -0.3175  0.0479
 3686TIP3    H232694   0.117   3.866   2.802  0.9458 -0.7954 -0.1063
 3687TIP3   OH232695   2.420   4.798   2.652 -0.5630  0.3218 -0.0017
 3687TIP3    H132696   2.398   4.829   2.740 -1.3170  1.6654 -0.6320
 3687TIP3    H232697   2.337   4.771   2.614 -0.3264  0.3030 -0.5186
 3688TIP3   OH232698   1.130   4.601   4.248  0.7174 -0.2628 -0.0218
 3688TIP3    H132699   1.089   4.668   4.302 -0.9699  0.3118 -1.9222
 3688TIP3    H232700   1.070   4.587   4.175  2.6477 -1.3487 -1.5320
 3689TIP3   OH232701   0.599   0.375   3.421  0.0305 -0.0439  0.0990
 3689TIP3    H132702   0.673   0.422   3.383 -0.2404  2.9737  2.8791
 3689TIP3    H232703   0.526   0.395   3.363  0.6536 -0.0078 -0.6907
 3690TIP3   OH232704   6.185   5.461   2.650 -0.2530  0.3503 -0.2975
 3690TIP3    H132705   6.258   5.522   2.638 -0.5272  0.8381  0.4581
 3690TIP3    H232706   6.187   5.439   2.744  0.0705 -1.1082 -0.6064
 3691TIP3   OH232707   3.413   1.374   5.169  0.5176 -0.1460 -0.0152
 3691TIP3    H132708   3.341   1.392   5.230 -0.4033 -0.3167 -1.0223
 3691TIP3    H232709   3.486   1.426   5.202 -0.2464  0.5080  0.6834
 3692TIP3   OH232710   4.880   1.362   3.691 -0.4946 -0.5120 -0.2661
 3692TIP3    H132711   4.837   1.436   3.648 -0.7390 -0.1070  0.6584
 3692TIP3    H232712   4.815   1.330   3.754  0.5965  0.2113  1.2737
 3693TIP3   OH232713   5.780   0.723   4.069 -0.7245  0.2934  0.2732
 3693TIP3    H132714   5.709   0.678   4.022  1.3844 -1.4389 -1.4439
 3693TIP3    H232715   5.838   0.755   4.000  1.5713 -0.7520  1.6232
 3694TIP3   OH232716   6.360   4.756   1.909  0.1849  0.1893  0.9189
 3694TIP3    H132717   6.383   4.837   1.956 -0.3265 -0.1820  1.8285
 3694TIP3    H232718   6.373   4.686   1.973  1.3288 -0.5513 -0.0811
 3695TIP3   OH232719   0.501   1.500   2.795 -0.0900 -0.3388 -0.6616
 3695TIP3    H132720   0.586   1.483   2.756  0.8386 -0.2206  1.1833
 3695TIP3    H232721   0.498   1.595   2.807  0.4068 -0.5039  1.0666
 3696TIP3   OH232722   4.451   2.186   3.338  0.7283  0.3578  0.4572
 3696TIP3    H132723   4.400   2.177   3.418  1.8826  1.3102  1.3255
 3696TIP3    H232724   4.540   2.202   3.367  1.2570  0.3018 -1.0242
 3697TIP3   OH232725   1.528   5.287   2.998  0.2030  0.4178  0.3217
 3697TIP3    H132726   1.607   5.341   3.007  0.2691  0.1216  1.7846
 3697TIP3    H232727   1.542   5.214   3.058  0.2985 -1.5027 -1.9092
 3698TIP3   OH232728   3.850   4.334   4.545 -0.2587  0.0842 -0.2594
 3698TIP3    H132729   3.937   4.318   4.509  0.0802  0.9143  0.1526
 3698TIP3    H232730   3.821   4.248   4.578  1.0628  0.0860  0.9960
 3699TIP3   OH232731   5.496   0.699   1.713 -0.3833  0.1202  0.0416
 3699TIP3    H132732   5.509   0.738   1.627 -3.7614  1.2809 -0.0861
 3699TIP3    H232733   5.461   0.770   1.767 -1.6637 -1.4168  1.3503
 3700TIP3   OH232734   3.104   4.625   1.313  0.4005  0.4577  0.7172
 3700TIP3    H132735   3.127   4.715   1.291 -0.2799  0.6485  0.7920
 3700TIP3    H232736   3.153   4.607   1.393  2.4704 -0.0584 -0.5676
 3701TIP3   OH232737   1.830   5.231   0.915  0.2650  0.3670  0.4047
 3701TIP3    H132738   1.904   5.215   0.856 -0.8000  1.4238 -1.2909
 3701TIP3    H232739   1.863   5.207   1.002  2.6257  0.9180 -0.2814
 3702TIP3   OH232740   0.984   4.729   2.326 -0.0996  1.0200  0.6245
 3702TIP3    H132741   1.013   4.820   2.340  0.2301  0.5642  3.3492
 3702TIP3    H232742   0.889   4.732   2.339 -0.1751  1.0411  0.1156
 3703TIP3   OH232743   6.335   3.434   3.787  0.0598 -0.5482  0.5200
 3703TIP3    H132744   6.339   3.338   3.786  0.6125 -0.5309  0.8047
 3703TIP3    H232745   6.378   3.461   3.706 -3.0580 -0.6072 -1.3044
 3704TIP3   OH232746   3.763   3.634   2.877  0.1918 -0.2111 -0.5725
 3704TIP3    H132747   3.742   3.722   2.846  1.3596  0.8225  1.3476
 3704TIP3    H232748   3.700   3.617   2.947  1.5572  0.2327  0.8270
 3705TIP3   OH232749   5.406   5.703   0.658  0.0123  1.1353  0.5990
 3705TIP3    H132750   5.368   5.637   0.600  2.7153 -0.8982  0.9368
 3705TIP3    H232751   5.500   5.701   0.638  0.5203  3.0858  2.4241
 3706TIP3   OH232752   0.905   1.037   2.785  0.0009 -0.4884 -0.1964
 3706TIP3    H132753   0.926   1.029   2.692 -1.2093 -0.6288 -0.4819
 3706TIP3    H232754   0.814   1.007   2.791 -0.0407 -0.1610  0.9771
 3707TIP3   OH232755   1.509   3.301   1.691 -0.1245 -0.4345  0.4197
 3707TIP3    H132756   1.573   3.284   1.622 -2.0564 -0.5343 -1.4576
 3707TIP3    H232757   1.524   3.231   1.755  0.4147 -1.5766 -0.8998
 3708TIP3   OH232758   2.917   5.949   2.023  0.2481 -0.0470 -0.1044
 3708TIP3    H132759   2.919   5.877   2.086  1.9871 -0.4905 -0.6043
 3708TIP3    H232760   2.864   6.016   2.065 -1.4015 -1.5851  0.3867
 3709TIP3   OH232761   4.301   5.406   1.863  0.3247  0.6589  0.6311
 3709TIP3    H132762   4.310   5.497   1.891  1.3339  1.1358 -1.0748
 3709TIP3    H232763   4.384   5.385   1.821  0.1360 -1.0914  1.0345
 3710TIP3   OH232764   2.386   5.914   0.801  0.5042 -0.5070  0.6778
 3710TIP3    H132765   2.292   5.930   0.795  0.7917  0.8414 -1.5611
 3710TIP3    H232766   2.399   5.828   0.761  0.3389  0.0258 -0.5874
 3711TIP3   OH232767   4.646   1.410   1.906 -0.0776  0.1487  0.0655
 3711TIP3    H132768   4.593   1.379   1.833 -0.9152 -1.3352  1.2422
 3711TIP3    H232769   4.651   1.335   1.966  1.7139  0.8810  0.9107
 3712TIP3   OH232770   4.468   2.738   4.385  0.5433 -0.5229 -0.1318
 3712TIP3    H132771   4.458   2.689   4.303  1.9268 -0.3809 -0.4149
 3712TIP3    H232772   4.505   2.674   4.446  1.2957 -0.1352 -0.1776
 3713TIP3   OH232773   0.291   1.973   2.472 -0.1128 -0.1073 -0.5856
 3713TIP3    H132774   0.203   1.946   2.500  0.0790 -0.5705 -0.4273
 3713TIP3    H232775   0.282   2.066   2.453 -0.3927  0.0872  0.4339
 3714TIP3   OH232776   3.747   0.694   2.765  0.2575 -0.7200 -0.4449
 3714TIP3    H132777   3.772   0.618   2.817  2.0281 -0.6646 -1.1393
 3714TIP3    H232778   3.709   0.755   2.828 -0.2499 -1.7610  0.2863
 3715TIP3   OH232779   0.766   0.790   3.098 -0.0874  0.2680  0.4770
 3715TIP3    H132780   0.810   0.828   3.174 -0.7723  2.7337 -0.2730
 3715TIP3    H232781   0.714   0.719   3.134 -0.0342  1.0672  2.2601
 3716TIP3   OH232782   4.774   3.480   3.776 -0.4359 -0.0696 -0.0802
 3716TIP3    H132783   4.792   3.562   3.823  1.7908 -1.1886  1.1842
 3716TIP3    H232784   4.816   3.491   3.691  0.9370 -0.3109  0.5427
 3717TIP3   OH232785   1.331   5.844   2.222  0.4690  0.0385 -0.2039
 3717TIP3    H132786   1.304   5.864   2.312 -0.3771  2.5822 -0.9359
 3717TIP3    H232787   1.415   5.800   2.232  0.6796  0.7701  1.8402
 3718TIP3   OH232788   0.008   4.723   3.989 -0.0043  0.4208  0.1923
 3718TIP3    H132789   0.084   4.665   3.991 -0.0960  0.2897  2.0271
 3718TIP3    H232790  -0.009   4.742   4.081 -1.1199  1.8765 -0.2776
 3719TIP3   OH232791   3.588   5.561   0.940 -0.6008  0.8243  0.0658
 3719TIP3    H132792   3.573   5.552   0.846  1.3924 -0.9178 -0.1734
 3719TIP3    H232793   3.503   5.544   0.980 -0.9499 -1.0425 -1.3547
 3720TIP3   OH232794   3.845   6.167   3.849  0.2685 -0.2965  0.5751
 3720TIP3    H132795   3.880   6.252   3.874  0.7625 -0.7435  1.4610
 3720TIP3    H232796   3.910   6.131   3.788  1.1126 -0.8834  1.7757
 3721TIP3   OH232797   0.906   0.631   2.135 -0.0181 -0.4044 -0.6611
 3721TIP3    H132798   0.991   0.638   2.091 -0.4920  0.2593 -1.5042
 3721TIP3    H232799   0.927   0.621   2.228  0.9660  2.4194 -0.5023
 3722TIP3   OH232800   4.968   2.772   1.417 -0.3613 -0.8416  0.0902
 3722TIP3    H132801   4.992   2.759   1.325  0.0478 -2.5690  0.4106
 3722TIP3    H232802   5.002   2.695   1.462  1.4814  1.0257  2.1261
 3723TIP3   OH232803   1.289   1.044   3.121  0.8383 -0.4211  0.1463
 3723TIP3    H132804   1.203   1.068   3.089  0.7201 -1.3655 -0.2589
 3723TIP3    H232805   1.339   1.126   3.118  0.4478 -0.2194 -1.1930
 3724TIP3   OH232806   4.804   4.629   3.702  0.2226 -0.3180 -0.3020
 3724TIP3    H132807   4.833   4.559   3.644 -1.5215 -1.9988  0.7598
 3724TIP3    H232808   4.747   4.683   3.648  0.6635 -0.3674 -0.8225
 3725TIP3   OH232809   4.583   5.916   3.521  0.1897 -0.1666  0.2460
 3725TIP3    H132810   4.676   5.912   3.542  0.1652  1.7272  0.8968
 3725TIP3    H232811   4.579   5.898   3.427  1.0145 -1.8766  0.5066
 3726TIP3   OH232812   3.147   2.560   0.732 -0.2056 -0.5211  0.1166
 3726TIP3    H132813   3.172   2.604   0.652 -0.2535  0.3056  0.5466
 3726TIP3    H232814   3.096   2.625   0.781 -0.6734 -1.1982  0.5594
 3727TIP3   OH232815   2.716   1.876   0.602 -0.3938  0.0646 -0.2338
 3727TIP3    H132816   2.810   1.880   0.585 -0.1741 -0.6149  0.7149
 3727TIP3    H232817   2.696   1.782   0.601 -1.2451  0.2381 -1.3279
 3728TIP3   OH232818   2.660   1.138   0.912  0.1167 -0.1215  0.1766
 3728TIP3    H132819   2.648   1.146   0.817 -2.9868  0.3975  0.5223
 3728TIP3    H232820   2.680   1.045   0.926 -0.0226 -0.3318 -0.9236
 3729TIP3   OH232821   2.602   3.769   3.224 -0.3863  0.2524  0.2403
 3729TIP3    H132822   2.609   3.846   3.168  0.9919  0.4016  0.5814
 3729TIP3    H232823   2.626   3.801   3.311  0.0495 -0.5312  0.4162
 3730TIP3   OH232824   6.310   1.228   2.953  0.4677  0.1337  0.1298
 3730TIP3    H132825   6.240   1.272   2.906  0.2194 -0.6690 -0.2835
 3730TIP3    H232826   6.305   1.262   3.042 -2.3338 -1.9546  0.9093
 3731TIP3   OH232827   0.611   2.242   0.507  0.3872 -0.1828  0.2720
 3731TIP3    H132828   0.687   2.289   0.472  1.4799 -1.0548  1.4118
 3731TIP3    H232829   0.621   2.247   0.602 -1.0305 -0.2677  0.4537
 3732TIP3   OH232830   6.053   0.533   5.229 -0.2349  0.5315  0.3997
 3732TIP3    H132831   6.017   0.540   5.318  1.8102  0.1826  1.3137
 3732TIP3    H232832   6.041   0.620   5.191 -0.1183  1.0160  1.4298
 3733TIP3   OH232833   2.051   6.618   3.155  0.1945  0.2773 -0.1883
 3733TIP3    H132834   2.056   6.575   3.240 -0.3478 -0.3950 -0.4822
 3733TIP3    H232835   2.033   6.710   3.175  0.0530  0.1188  0.4234
 3734TIP3   OH232836   4.898   2.442   5.127  0.1197 -0.4435 -0.2578
 3734TIP3    H132837   4.976   2.489   5.155 -0.8736 -0.1727  2.3866
 3734TIP3    H232838   4.825   2.500   5.150 -0.9453 -1.1469 -1.6408
 3735TIP3   OH232839   2.503   6.243   0.505  0.2960 -0.1660  0.0263
 3735TIP3    H132840   2.546   6.329   0.502  0.6313 -0.3527 -1.5008
 3735TIP3    H232841   2.486   6.228   0.598  3.5320 -0.0698  0.7689
 3736TIP3   OH232842   4.786   0.006   2.338 -0.6228  0.3679 -0.3875
 3736TIP3    H132843   4.736   0.061   2.398 -0.2890 -1.4243  1.6510
 3736TIP3    H232844   4.729  -0.070   2.322  1.8569 -2.7578  3.6103
 3737TIP3   OH232845   2.281   5.576   3.327  0.2913  0.1044 -0.4781
 3737TIP3    H132846   2.210   5.576   3.263  0.7998 -1.7322 -1.1271
 3737TIP3    H232847   2.240   5.552   3.410 -0.2776  1.9136 -0.2043
 3738TIP3   OH232848   1.660   4.254   1.820 -0.0485  0.1748  0.4114
 3738TIP3    H132849   1.746   4.212   1.812  0.3536  0.9711  0.5253
 3738TIP3    H232850   1.598   4.187   1.791  0.4267 -1.1468  2.2680
 3739TIP3   OH232851   1.836   6.614   5.391 -0.4272 -0.4108 -0.3418
 3739TIP3    H132852   1.892   6.620   5.468 -1.7341 -0.7372  0.6593
 3739TIP3    H232853   1.849   6.697   5.345  1.1572 -0.6412 -0.3489
 3740TIP3   OH232854   2.945   2.108   1.279  0.5705  0.4179  0.5319
 3740TIP3    H132855   2.996   2.169   1.226  0.4066  0.5057  0.4744
 3740TIP3    H232856   2.966   2.132   1.370  0.0183  0.9803  0.5184
 3741TIP3   OH232857   4.456   3.256   4.494 -0.2845 -0.4167 -0.0689
 3741TIP3    H132858   4.381   3.273   4.551  2.1748 -0.3334  3.3773
 3741TIP3    H232859   4.424   3.189   4.433 -3.0615 -0.5284  1.3336
 3742TIP3   OH232860   2.373   5.406   2.704  0.0770  0.8302  0.4194
 3742TIP3    H132861   2.334   5.448   2.627  1.0224  2.6071  0.8433
 3742TIP3    H232862   2.319   5.329   2.720  0.4711 -0.1845 -2.6299
 3743TIP3   OH232863   5.860   2.647   5.437 -0.3066 -0.0004 -0.2106
 3743TIP3    H132864   5.886   2.582   5.372  2.2973  1.0972 -0.3889
 3743TIP3    H232865   5.834   2.724   5.387  1.4029  0.7378 -0.0576
 3744TIP3   OH232866   4.008   6.657   1.878 -0.0115 -0.3161 -0.1387
 3744TIP3    H132867   3.946   6.644   1.806  0.1599 -0.0232 -0.3440
 3744TIP3    H232868   4.060   6.733   1.851 -0.8366  0.6631  0.8949
 3745TIP3   OH232869   6.285   4.280   2.243  0.1087  0.1547 -0.5235
 3745TIP3    H132870   6.350   4.216   2.215 -0.5128 -0.3937 -0.7561
 3745TIP3    H232871   6.261   4.253   2.331  0.6466  0.7279 -0.1964
 3746TIP3   OH232872   2.300   1.486   1.767 -0.2097  0.1117  0.5081
 3746TIP3    H132873   2.356   1.557   1.798  0.9997 -0.0715 -1.1489
 3746TIP3    H232874   2.334   1.408   1.810  0.3590  0.1085  0.0620
 3747TIP3   OH232875   0.420   2.157   2.705  0.2349  0.9808  0.2402
 3747TIP3    H132876   0.512   2.177   2.686 -0.0451  1.1959 -0.9714
 3747TIP3    H232877   0.415   2.155   2.801  1.9054 -0.9849  0.3500
 3748TIP3   OH232878   0.370   2.094   3.621  0.2398 -0.0400 -0.2960
 3748TIP3    H132879   0.341   2.092   3.713  2.0052 -1.2292  0.3055
 3748TIP3    H232880   0.374   2.187   3.599  0.5828  0.3222  1.1338
 3749TIP3   OH232881   1.646   3.853   3.065  0.3697  0.0824 -0.8383
 3749TIP3    H132882   1.675   3.763   3.052  1.5768 -0.2661  2.9523
 3749TIP3    H232883   1.634   3.888   2.977  0.3443 -3.5845 -2.4533
 3750TIP3   OH232884   3.737   6.050   1.035 -0.0996  0.2921 -0.2835
 3750TIP3    H132885   3.761   5.961   1.009 -1.2090  0.1429 -0.8722
 3750TIP3    H232886   3.796   6.071   1.107  0.7864 -0.5773 -0.7304
 3751TIP3   OH232887   1.264   4.550   4.608  0.2176  0.1848  0.0707
 3751TIP3    H132888   1.220   4.516   4.686 -1.1027  0.2779 -0.6132
 3751TIP3    H232889   1.196   4.555   4.542  1.1375  0.9073 -0.8573
 3752TIP3   OH232890   1.002   3.118   4.006 -0.0936  0.3420 -0.1192
 3752TIP3    H132891   1.009   3.024   4.024  0.2322  0.3949  0.0475
 3752TIP3    H232892   0.981   3.124   3.913 -1.4719  0.0627  0.1472
 3753TIP3   OH232893   3.018   6.594   1.700  0.2241 -0.5097 -0.5434
 3753TIP3    H132894   3.041   6.510   1.741  1.0492 -0.9449 -1.8232
 3753TIP3    H232895   2.953   6.632   1.758  1.3280 -1.0889  1.1564
 3754TIP3   OH232896   2.674   5.982   1.785 -0.1132 -0.2327  0.1946
 3754TIP3    H132897   2.610   6.002   1.716  1.8562  3.6927 -0.7773
 3754TIP3    H232898   2.622   5.976   1.865 -2.1648 -2.3075 -1.1419
 3755TIP3   OH232899   1.641   6.162   2.309  0.7314 -0.4315 -0.2966
 3755TIP3    H132900   1.572   6.118   2.358 -0.3852  1.3991 -0.1310
 3755TIP3    H232901   1.634   6.125   2.221 -0.3115 -0.4771 -0.2163
 3756TIP3   OH232902   4.510   2.165   2.415 -0.2508 -0.3722  0.1569
 3756TIP3    H132903   4.532   2.161   2.508 -0.9335 -0.5449  0.3152
 3756TIP3    H232904   4.575   2.110   2.373 -0.2710 -0.7369  0.5956
 3757TIP3   OH232905   0.516   5.748   2.628  0.7191  0.1386  0.0691
 3757TIP3    H132906   0.459   5.687   2.675  0.2089 -0.5970 -1.4281
 3757TIP3    H232907   0.461   5.785   2.560  1.8052  0.0451 -0.8916
 3758TIP3   OH232908   0.213   6.292   3.625  0.0751  1.0672 -0.0059
 3758TIP3    H132909   0.261   6.228   3.678 -1.9391  2.1249  3.4337
 3758TIP3    H232910   0.200   6.367   3.684 -5.4693  0.9530 -0.5305
 3759TIP3   OH232911   3.913   1.299   2.479 -0.2947  0.1084  0.0602
 3759TIP3    H132912   3.878   1.216   2.446  0.9875 -0.6756  0.6040
 3759TIP3    H232913   3.977   1.273   2.545  0.2583  1.5375  0.1086
 3760TIP3   OH232914   1.930   3.719   1.599 -0.2408  0.2179 -0.6909
 3760TIP3    H132915   1.900   3.762   1.679  0.8944 -1.4703  0.7136
 3760TIP3    H232916   1.851   3.681   1.561 -0.5151 -0.9569  0.9289
 3761TIP3   OH232917   0.755   0.205   3.555  0.0259  0.5376 -0.0967
 3761TIP3    H132918   0.769   0.272   3.622  2.8117 -0.5908  0.5697
 3761TIP3    H232919   0.668   0.225   3.520 -1.8343  0.9327  4.1076
 3762TIP3   OH232920   1.666   6.460   2.348  0.1945 -0.4898  0.1291
 3762TIP3    H132921   1.669   6.411   2.430  2.0086  0.9377  0.9808
 3762TIP3    H232922   1.745   6.433   2.301  0.4532  0.5096 -0.0381
 3763TIP3   OH232923   3.558   6.195   3.830 -0.5417 -0.1357  0.3073
 3763TIP3    H132924   3.551   6.280   3.873 -0.2141  1.3204 -2.2651
 3763TIP3    H232925   3.651   6.171   3.838 -0.4179  0.2858  0.1429
 3764TIP3   OH232926   5.316   1.664   3.955 -0.0057  0.1191 -0.0364
 3764TIP3    H132927   5.345   1.754   3.969  0.9319 -0.2164  0.2327
 3764TIP3    H232928   5.376   1.629   3.888  0.2880 -0.6106  0.5940
 3765TIP3   OH232929   1.970   4.700   1.302  0.4635  0.5673  0.4689
 3765TIP3    H132930   2.012   4.737   1.224 -0.7002 -0.1589 -0.5339
 3765TIP3    H232931   1.955   4.775   1.359  1.0132  1.1677 -0.1615
 3766TIP3   OH232932   2.239   2.507   2.905 -0.1281 -0.1374  0.7674
 3766TIP3    H132933   2.299   2.556   2.849 -1.3469 -0.2059 -0.6517
 3766TIP3    H232934   2.256   2.541   2.993 -0.6221  2.5591 -0.0895
 3767TIP3   OH232935   0.443   5.949   4.126  0.3751 -0.0723  0.0463
 3767TIP3    H132936   0.415   5.880   4.066  0.2546  0.4723 -0.5326
 3767TIP3    H232937   0.491   6.011   4.071  1.0416 -0.0119  0.6737
 3768TIP3   OH232938   3.939   0.137   3.013 -0.2898  0.8442  0.0990
 3768TIP3    H132939   3.968   0.225   3.038  1.6791 -0.2361  2.0441
 3768TIP3    H232940   3.899   0.102   3.092  0.5489 -0.5832 -0.0705
 3769TIP3   OH232941   4.491   0.029   0.419 -0.1884 -0.0579 -0.4420
 3769TIP3    H132942   4.581   0.005   0.440 -0.6131 -1.1438  0.2809
 3769TIP3    H232943   4.438  -0.026   0.477 -1.3065  0.9074 -0.5070
 3770TIP3   OH232944   0.392   3.467   1.019 -0.4840 -0.2529 -0.0377
 3770TIP3    H132945   0.449   3.459   1.096 -1.2728  1.4402  0.7848
 3770TIP3    H232946   0.312   3.422   1.044 -0.6459  0.0768  0.0451
 3771TIP3   OH232947   5.845   6.191   2.191 -0.3360 -0.4650 -0.2069
 3771TIP3    H132948   5.843   6.246   2.269 -1.3789 -0.5699 -0.1383
 3771TIP3    H232949   5.933   6.201   2.156 -0.9180  2.5087 -1.0866
 3772TIP3   OH232950   1.917   4.560   1.541  0.3607 -0.0871 -0.3478
 3772TIP3    H132951   1.936   4.617   1.467 -0.3997  0.2246 -0.3149
 3772TIP3    H232952   1.975   4.591   1.611  1.3091 -0.5891 -0.8961
 3773TIP3   OH232953   3.730   5.662   2.818 -0.2046 -0.6612 -0.2122
 3773TIP3    H132954   3.690   5.726   2.876  1.4044 -0.0305  0.2468
 3773TIP3    H232955   3.656   5.611   2.784 -1.2988 -0.2161  1.3739
 3774TIP3   OH232956   1.739   3.909   3.628  0.0849 -0.0705  0.3079
 3774TIP3    H132957   1.720   3.831   3.576 -0.2940 -0.5956  1.2050
 3774TIP3    H232958   1.774   3.876   3.711 -1.2368  0.6318  1.1903
 3775TIP3   OH232959   5.333   2.439   3.789 -0.3094 -0.1220  0.2761
 3775TIP3    H132960   5.340   2.352   3.828  2.9158  0.6320  1.7796
 3775TIP3    H232961   5.413   2.448   3.737 -0.4468  1.9688  0.3367
 3776TIP3   OH232962   2.088   5.056   2.334 -0.0326 -0.2491  0.6497
 3776TIP3    H132963   2.064   4.986   2.395  0.1440  0.0765  1.0993
 3776TIP3    H232964   2.102   5.011   2.251 -1.5391 -0.5574  0.5167
 3777TIP3   OH232965   5.178   1.777   3.622  0.3704 -0.2183 -0.4288
 3777TIP3    H132966   5.116   1.726   3.571 -1.2116  0.3930  0.7968
 3777TIP3    H232967   5.139   1.864   3.628  1.7436  0.4205 -0.2898
 3778TIP3   OH232968   4.054   0.131   1.034 -0.5549 -0.3091 -0.2632
 3778TIP3    H132969   4.080   0.062   0.972  0.6542  1.1697 -1.4875
 3778TIP3    H232970   3.969   0.101   1.068 -0.2059 -2.2523 -0.9458
 3779TIP3   OH232971   1.969   2.219   3.456  0.6244  0.4878 -0.2679
 3779TIP3    H132972   1.977   2.150   3.522  0.3750  1.1102  0.4324
 3779TIP3    H232973   2.022   2.291   3.491  0.4810  0.8268 -0.7468
 3780TIP3   OH232974   3.432   6.445   2.561  0.4654  0.0894 -1.0644
 3780TIP3    H132975   3.528   6.444   2.560  0.4834 -1.6573 -0.8169
 3780TIP3    H232976   3.407   6.447   2.469  0.7001  2.0462 -1.1206
 3781TIP3   OH232977   2.368   3.441   1.504 -0.4213  0.1833  0.1670
 3781TIP3    H132978   2.301   3.492   1.551 -0.2663  0.9408 -0.4191
 3781TIP3    H232979   2.380   3.488   1.421 -0.5026 -0.9850 -0.5308
 3782TIP3   OH232980   6.114   3.661   3.728 -0.1786 -0.3076 -0.4342
 3782TIP3    H132981   6.177   3.674   3.657  0.6515 -0.2794  0.2875
 3782TIP3    H232982   6.136   3.575   3.764 -0.2252 -0.0849  0.1415
 3783TIP3   OH232983   1.333   2.907   2.393  0.0769  0.0694 -0.3636
 3783TIP3    H132984   1.409   2.849   2.393 -0.2262 -0.3384 -0.7364
 3783TIP3    H232985   1.262   2.853   2.357  0.2359  1.2222 -2.6457
 3784TIP3   OH232986   4.442   3.146   1.728  0.0196  0.2936  0.8901
 3784TIP3    H132987   4.394   3.136   1.645 -0.7435  4.5392  0.6011
 3784TIP3    H232988   4.530   3.114   1.708 -0.7759 -1.0781 -0.7532
 3785TIP3   OH232989   0.734   2.506   5.480  0.5728 -0.0308  0.3365
 3785TIP3    H132990   0.691   2.526   5.397 -0.5306  1.5171  1.2199
 3785TIP3    H232991   0.788   2.429   5.462  0.5956  0.4491 -1.8712
 3786TIP3   OH232992   0.114   5.123   0.631  0.5976  0.0572 -0.1299
 3786TIP3    H132993   0.184   5.058   0.637 -1.0658 -2.0849 -2.1024
 3786TIP3    H232994   0.094   5.127   0.537 -1.8886  0.5758  0.3554
 3787TIP3   OH232995   4.973   0.015   2.142 -0.3246  0.2847 -0.6805
 3787TIP3    H132996   4.892   0.018   2.193 -0.0824 -1.5741 -0.1014
 3787TIP3    H232997   4.965  -0.065   2.089  0.8566  0.4273 -1.1103
 3788TIP3   OH232998   2.122   0.043   4.201 -0.0687 -0.5732 -0.3957
 3788TIP3    H132999   2.179   0.119   4.199 -1.3351  0.4187 -0.0656
 3788TIP3    H233000   2.113   0.017   4.109 -0.6930  0.5128 -0.6540
 3789TIP3   OH233001   4.392   3.913   1.656  0.3712 -0.4085 -0.2227
 3789TIP3    H133002   4.479   3.953   1.662 -0.5533  1.6300  0.5701
 3789TIP3    H233003   4.380   3.870   1.740  0.5220 -0.5054 -0.2498
 3790TIP3   OH233004   5.806   6.104   1.851 -0.8868 -0.8520  0.6067
 3790TIP3    H133005   5.880   6.067   1.899 -0.1822 -0.1147  0.1000
 3790TIP3    H233006   5.835   6.106   1.760 -0.2523  2.3221  0.7441
 3791TIP3   OH233007   2.259   0.282   4.221  0.3971  0.1093 -0.0977
 3791TIP3    H133008   2.176   0.329   4.227  0.1354 -0.4991  1.5756
 3791TIP3    H233009   2.321   0.336   4.270  0.5854 -0.2563  0.0694
 3792TIP3   OH233010   0.162   6.393   4.216 -0.2324  0.6464 -0.9890
 3792TIP3    H133011   0.168   6.375   4.310 -1.7594 -0.7635 -1.1220
 3792TIP3    H233012   0.121   6.479   4.211  2.0470  1.8464 -0.3857
 3793TIP3   OH233013   2.980   0.864   3.855  0.1882 -0.3233  0.0007
 3793TIP3    H133014   2.926   0.787   3.873  1.1926 -2.4477 -4.4742
 3793TIP3    H233015   3.070   0.832   3.860  0.7039  1.0202 -0.3087
 3794TIP3   OH233016   2.910   4.065   4.773 -0.6013  0.2199  0.2725
 3794TIP3    H133017   2.931   3.982   4.816 -0.9567  0.7088  1.4471
 3794TIP3    H233018   2.817   4.060   4.754 -0.5072  0.1290 -0.1783
 3795TIP3   OH233019   4.497   6.742   4.327 -0.3515 -0.3288  0.5844
 3795TIP3    H133020   4.418   6.794   4.316 -0.3320 -0.4429 -0.1490
 3795TIP3    H233021   4.559   6.778   4.265  1.2743  1.7622  3.2237
 3796TIP3   OH233022   1.743   3.714   1.342  0.0273  0.1872 -0.2496
 3796TIP3    H133023   1.804   3.787   1.353 -0.4183  0.5560 -0.2130
 3796TIP3    H233024   1.706   3.726   1.255 -0.6980  0.5113  0.0892
 3797TIP3   OH233025   3.415   1.005   3.175  0.2936 -0.2286  0.1664
 3797TIP3    H133026   3.360   1.082   3.161  0.0762 -0.2713  0.7659
 3797TIP3    H233027   3.503   1.034   3.152  0.4427  0.6213  1.6882
 3798TIP3   OH233028   4.607   1.580   5.039  0.0443 -0.1099 -0.4178
 3798TIP3    H133029   4.667   1.567   4.966  0.2286 -1.0510 -0.1103
 3798TIP3    H233030   4.642   1.656   5.087 -0.2710  0.7340 -1.4798
 3799TIP3   OH233031   2.547   0.565   5.374 -0.3197 -0.1545 -0.6270
 3799TIP3    H133032   2.500   0.594   5.452 -1.5485 -0.1051 -1.3592
 3799TIP3    H233033   2.486   0.580   5.302  0.1986 -1.6388 -1.4255
 3800TIP3   OH233034   5.085   4.284   2.497  0.3586 -0.5000  0.0789
 3800TIP3    H133035   5.165   4.230   2.493  0.7444  0.1142 -0.6797
 3800TIP3    H233036   5.117   4.374   2.506 -0.2198 -0.1717 -0.9647
 3801TIP3   OH233037   3.517   2.750   3.946  0.5305  0.1852 -0.5072
 3801TIP3    H133038   3.534   2.665   3.907 -1.5365 -0.1842 -0.6821
 3801TIP3    H233039   3.463   2.797   3.883 -1.7539  0.0750  1.2330
 3802TIP3   OH233040   4.192   1.467   4.327 -0.3426  0.3034 -0.0007
 3802TIP3    H133041   4.247   1.436   4.255  0.5674 -0.8212  1.1230
 3802TIP3    H233042   4.105   1.431   4.307  0.1447 -0.9306  0.0024
 3803TIP3   OH233043   6.489   4.106   2.226  0.1309 -0.3635 -0.2537
 3803TIP3    H133044   6.409   4.055   2.236  0.0729  0.1324  2.3323
 3803TIP3    H233045   6.560   4.045   2.248  0.5170 -0.7252 -2.2732
 3804TIP3   OH233046   6.751   0.826   3.889 -0.3892  0.7879  0.1967
 3804TIP3    H133047   6.814   0.763   3.924  0.1136  1.6675  0.8980
 3804TIP3    H233048   6.777   0.838   3.798 -1.7065 -1.5242 -0.5507
 3805TIP3   OH233049   1.067   1.397   3.141  0.2966  0.3233 -0.1255
 3805TIP3    H133050   0.992   1.344   3.169  0.4569  0.9273  1.5506
 3805TIP3    H233051   1.085   1.366   3.052 -1.8533  0.0748 -0.5517
 3806TIP3   OH233052   4.582   1.985   1.708  0.2199 -0.1775  0.3395
 3806TIP3    H133053   4.637   1.958   1.782 -0.3672 -2.6206 -0.0357
 3806TIP3    H233054   4.502   1.935   1.719 -0.8879  1.3131 -0.6202
 3807TIP3   OH233055   2.567   1.781   3.769 -0.6248 -0.2878  0.1938
 3807TIP3    H133056   2.517   1.847   3.817 -2.1829 -1.9045  0.9290
 3807TIP3    H233057   2.647   1.770   3.820 -1.3538 -0.5319  1.3325
 3808TIP3   OH233058   4.130   4.006   2.225 -0.0203 -0.1874 -0.2981
 3808TIP3    H133059   4.097   3.924   2.190  1.2214 -0.6038 -0.5161
 3808TIP3    H233060   4.220   3.987   2.251 -0.1788  0.7169  0.9965
 3809TIP3   OH233061   4.521   4.585   1.524 -0.4083 -0.0006  0.4827
 3809TIP3    H133062   4.592   4.599   1.462 -1.9939  0.4483 -1.3316
 3809TIP3    H233063   4.453   4.540   1.473 -2.0988  1.1134  1.6544
 3810TIP3   OH233064   4.160   4.591   0.332  0.0736  0.1112 -0.2304
 3810TIP3    H133065   4.223   4.661   0.317  0.7627 -0.9467 -2.7560
 3810TIP3    H233066   4.079   4.636   0.357  1.2571  1.5853  1.1163
 3811TIP3   OH233067   5.439   2.910   3.368 -0.7536  0.0179 -0.2264
 3811TIP3    H133068   5.403   2.892   3.455 -1.5371 -1.3089 -0.7937
 3811TIP3    H233069   5.465   3.002   3.371  0.7112 -0.4063  1.9024
 3812TIP3   OH233070   1.247   6.441   4.896  0.5778  0.4045  0.4054
 3812TIP3    H133071   1.218   6.398   4.977 -2.5322  1.5734  0.0483
 3812TIP3    H233072   1.279   6.526   4.924  0.8928  0.2531  0.5171
 3813TIP3   OH233073   4.391   4.341   3.862 -0.7072  0.2001 -0.4184
 3813TIP3    H133074   4.332   4.319   3.934  1.1224  0.3629  1.2374
 3813TIP3    H233075   4.429   4.425   3.889  1.7433 -0.8521 -0.3674
 3814TIP3   OH233076   0.077   3.866   4.097 -0.1789 -0.8860 -0.1180
 3814TIP3    H133077   0.173   3.866   4.106 -0.1256 -0.6405 -0.6439
 3814TIP3    H233078   0.055   3.957   4.080 -0.3246 -1.1942 -1.7421
 3815TIP3   OH233079   0.595   6.562   2.965 -0.4996 -0.2385  0.2466
 3815TIP3    H133080   0.620   6.653   2.947 -2.0867  0.3688  0.9121
 3815TIP3    H233081   0.526   6.569   3.031 -0.8252 -1.9225  0.1203
 3816TIP3   OH233082   0.746   1.333   1.870  0.2801 -0.7383 -0.3154
 3816TIP3    H133083   0.786   1.414   1.903 -0.2864 -0.7050  0.3223
 3816TIP3    H233084   0.799   1.263   1.907  0.5302 -0.6668 -0.5373
 3817TIP3   OH233085   0.409   1.755   2.838  0.3857 -0.1380 -0.0290
 3817TIP3    H133086   0.421   1.835   2.787  0.7083  0.4505  0.9314
 3817TIP3    H233087   0.465   1.768   2.915 -0.4018 -0.8046  0.6700
 3818TIP3   OH233088   2.735   1.812   4.706  0.9100 -0.3411 -0.0666
 3818TIP3    H133089   2.790   1.879   4.665 -0.2787  0.7989  0.1353
 3818TIP3    H233090   2.665   1.862   4.748  0.7160 -1.6467  1.2073
 3819TIP3   OH233091   2.631   1.241   1.318  0.0193  0.0431  0.4976
 3819TIP3    H133092   2.708   1.246   1.260 -0.1333  0.1443  0.3030
 3819TIP3    H233093   2.586   1.325   1.305 -0.4873 -0.2835  0.1051
 3820TIP3   OH233094   2.648   1.989   1.823  0.1805  0.2984 -0.5835
 3820TIP3    H133095   2.660   1.924   1.892 -1.3485  1.4440  0.8560
 3820TIP3    H233096   2.651   1.939   1.741 -1.2532 -1.6451  0.4616
 3821TIP3   OH233097   3.801   0.552   2.515  0.5563  0.2740 -0.1404
 3821TIP3    H133098   3.764   0.615   2.577  0.4191  0.9101 -0.8558
 3821TIP3    H233099   3.882   0.522   2.557 -0.2757 -0.4348  1.0218
 3822TIP3   OH233100   4.519   5.034   1.333  0.5999 -0.6269  0.2344
 3822TIP3    H133101   4.582   5.047   1.262 -0.0758 -0.5273 -0.3609
 3822TIP3    H233102   4.492   5.123   1.356 -0.3771 -0.7215 -0.4908
 3823TIP3   OH233103   2.367   1.924   5.031  0.0958  0.2271  0.7319
 3823TIP3    H133104   2.272   1.914   5.030  0.2303 -2.0068 -1.5650
 3823TIP3    H233105   2.393   1.903   5.121 -1.5276  0.3285  1.2495
 3824TIP3   OH233106   5.026   4.582   4.470 -0.2323 -0.1561 -0.1684
 3824TIP3    H133107   5.116   4.584   4.504 -0.1636  0.6238 -0.3728
 3824TIP3    H233108   5.009   4.673   4.444 -1.3319 -0.1412  0.5471
 3825TIP3   OH233109   3.211   1.735   2.565  0.1447  0.6930 -0.2552
 3825TIP3    H133110   3.233   1.737   2.658  0.6336  1.4705 -0.3858
 3825TIP3    H233111   3.293   1.712   2.522 -0.1458  0.0546 -0.4844
 3826TIP3   OH233112   0.368   3.303   3.023 -0.5022 -0.2056 -0.6080
 3826TIP3    H133113   0.361   3.296   2.928 -0.2775 -0.7845 -0.5861
 3826TIP3    H233114   0.445   3.250   3.045 -1.0413 -0.7619 -0.0170
 3827TIP3   OH233115   2.192   5.299   4.545  0.3720  0.0196  0.6168
 3827TIP3    H133116   2.253   5.305   4.618  0.3437  0.1031  0.6328
 3827TIP3    H233117   2.222   5.364   4.482  0.4570 -0.1221  0.5092
 3828TIP3   OH233118   4.537   0.360   3.926 -1.0100 -0.1633 -0.0409
 3828TIP3    H133119   4.571   0.306   3.855  0.7502 -0.1616  0.7608
 3828TIP3    H233120   4.587   0.333   4.003 -1.1217  1.5625  0.6848
 3829TIP3   OH233121   5.266   2.310   5.281 -0.2550  0.0113  0.2256
 3829TIP3    H133122   5.211   2.380   5.316  0.3395 -0.4464  2.2129
 3829TIP3    H233123   5.234   2.231   5.323  1.7759 -0.2862  1.3577
 3830TIP3   OH233124   5.624   3.824   4.499  0.1192  0.3372 -0.2181
 3830TIP3    H133125   5.710   3.781   4.500  0.0071 -0.0814 -2.3679
 3830TIP3    H233126   5.564   3.756   4.470 -0.4956  1.2597 -1.1809
 3831TIP3   OH233127   0.418   5.753   3.336 -0.0969 -0.5929  0.1878
 3831TIP3    H133128   0.496   5.740   3.282 -0.7405  0.6846 -1.1206
 3831TIP3    H233129   0.415   5.847   3.351 -1.5110 -0.5877 -0.0145
 3832TIP3   OH233130   1.672   2.824   3.532 -0.0955 -0.1354 -0.2230
 3832TIP3    H133131   1.674   2.875   3.613  1.0969  0.6989 -0.7381
 3832TIP3    H233132   1.746   2.764   3.540  0.6285  0.5920 -1.0435
 3833TIP3   OH233133   6.687   6.102   2.544  0.2551 -0.3165  0.0696
 3833TIP3    H133134   6.674   6.052   2.625 -1.4639  0.6000  0.4119
 3833TIP3    H233135   6.599   6.111   2.508  0.7045  1.2519 -0.7077
 3834TIP3   OH233136   1.190   4.143   1.201 -0.3234 -0.0653 -0.0344
 3834TIP3    H133137   1.191   4.239   1.199 -1.7332 -0.0310 -0.2353
 3834TIP3    H233138   1.124   4.121   1.267 -1.2972 -0.8808 -1.2437
 3835TIP3   OH233139   5.225   1.993   1.270 -0.0997 -0.6635 -0.1556
 3835TIP3    H133140   5.288   2.050   1.224  0.0296 -0.8595 -0.2252
 3835TIP3    H233141   5.162   1.968   1.202  0.8252 -2.0199 -0.5743
 3836TIP3   OH233142   6.087   2.462   2.832 -0.1987  0.2034  0.1462
 3836TIP3    H133143   6.127   2.378   2.810 -0.4406 -0.0533  0.6697
 3836TIP3    H233144   6.160   2.521   2.847 -0.0275  0.0746 -0.1679
 3837TIP3   OH233145   0.780   6.075   2.156  0.3231  0.0484 -0.0015
 3837TIP3    H133146   0.845   6.140   2.182 -0.0813  0.0093  1.1752
 3837TIP3    H233147   0.804   5.996   2.205 -0.3134 -0.1122  0.0610
 3838TIP3   OH233148   2.900   5.567   2.396  0.2468  0.2942 -0.3700
 3838TIP3    H133149   2.839   5.571   2.470 -2.7832 -1.4337 -2.5360
 3838TIP3    H233150   2.912   5.473   2.380  3.8142  0.5551  0.0584
 3839TIP3   OH233151   4.311   2.420   4.571 -0.3104 -0.1984 -0.6694
 3839TIP3    H133152   4.393   2.454   4.533 -0.5667 -0.7884 -1.8046
 3839TIP3    H233153   4.279   2.491   4.627  0.8991  0.0957 -0.3157
 3840TIP3   OH233154   4.136   4.486   1.063 -0.0463  0.0688 -0.0740
 3840TIP3    H133155   4.174   4.409   1.021  0.5234  0.9660 -1.2950
 3840TIP3    H233156   4.206   4.519   1.120 -0.0864  0.0139  0.0080
 3841TIP3   OH233157   4.825   5.116   1.694 -1.0360  0.3345 -0.2970
 3841TIP3    H133158   4.828   5.066   1.612 -0.4686 -0.1385  0.0032
 3841TIP3    H233159   4.885   5.069   1.753 -0.9317  1.0448  0.1766
 3842TIP3   OH233160   2.832   2.854   2.025 -0.0493 -0.1524  0.2958
 3842TIP3    H133161   2.877   2.888   1.948 -1.0642  1.1470  0.2404
 3842TIP3    H233162   2.880   2.774   2.047 -0.1303 -0.9585 -2.0790
 3843TIP3   OH233163   5.926   5.022   4.544 -0.0227 -0.6768 -0.0623
 3843TIP3    H133164   5.972   4.938   4.553 -0.0565 -0.6507  0.3762
 3843TIP3    H233165   5.905   5.047   4.633 -1.3792 -0.9639 -0.2662
 3844TIP3   OH233166   5.769   4.554   2.198  0.0285  0.8414 -0.1108
 3844TIP3    H133167   5.856   4.535   2.164 -0.1120  0.3545 -0.2082
 3844TIP3    H233168   5.712   4.550   2.121 -0.0923  1.0862 -0.0362
 3845TIP3   OH233169   2.845   4.956   1.135 -0.0292 -0.3321 -0.4009
 3845TIP3    H133170   2.873   5.038   1.176  1.2765 -1.2029  0.5213
 3845TIP3    H233171   2.916   4.933   1.076 -0.0775 -1.1294 -0.1602
 3846TIP3   OH233172   3.458   1.569   2.172  0.3502  0.3546  0.2363
 3846TIP3    H133173   3.467   1.658   2.137 -1.0369  0.5768  0.3975
 3846TIP3    H233174   3.542   1.552   2.215  1.3648  0.8165 -1.4755
 3847TIP3   OH233175   0.336   5.412   2.342  0.3030 -0.0901 -0.6796
 3847TIP3    H133176   0.380   5.327   2.339  2.2805  0.8061  1.0467
 3847TIP3    H233177   0.290   5.412   2.426 -0.2479  0.3055 -0.9728
 3848TIP3   OH233178   5.782   2.910   3.744 -0.5586 -0.5448 -0.0434
 3848TIP3    H133179   5.688   2.927   3.736 -0.5705 -1.1523 -1.3717
 3848TIP3    H233180   5.796   2.830   3.695  0.1578 -2.2742  2.7469
 3849TIP3   OH233181   0.156   1.885   1.781 -0.1060 -0.6517 -0.4599
 3849TIP3    H133182   0.133   1.858   1.870  1.6030 -0.1939  0.1658
 3849TIP3    H233183   0.135   1.809   1.727  0.3365 -1.5531  0.5837
 3850TIP3   OH233184   4.422   0.901   3.850 -0.7862  0.6115  0.2419
 3850TIP3    H133185   4.469   0.840   3.792 -1.5053 -0.2034  0.4926
 3850TIP3    H233186   4.356   0.847   3.894 -0.7417  1.3629  1.2781
 3851TIP3   OH233187   5.438   5.751   3.687  0.4669 -0.0593 -0.2111
 3851TIP3    H133188   5.442   5.666   3.730 -0.9605  1.5699  3.4922
 3851TIP3    H233189   5.356   5.749   3.638  0.4388 -0.7821 -0.1558
 3852TIP3   OH233190   4.339   4.769   2.209 -0.0280  0.0607  0.0659
 3852TIP3    H133191   4.266   4.825   2.184  1.4433  2.0947  0.0454
 3852TIP3    H233192   4.414   4.806   2.162  1.6223  0.1125  2.5658
 3853TIP3   OH233193   6.511   4.204   5.416 -0.2252  0.2694  0.2127
 3853TIP3    H133194   6.561   4.244   5.487  0.0847 -0.9638  0.6986
 3853TIP3    H233195   6.427   4.180   5.455 -1.1890  2.1359 -0.5491
 3854TIP3   OH233196   5.523   4.079   2.719 -0.0452  0.0183 -0.0427
 3854TIP3    H133197   5.481   4.163   2.734 -0.8182 -0.4420  0.4680
 3854TIP3    H233198   5.604   4.083   2.769 -0.2965  0.2890  0.3439
 3855TIP3   OH233199   2.406   4.068   3.038  0.2116  0.1120  0.4990
 3855TIP3    H133200   2.376   4.156   3.059  2.3975  0.9798  0.3017
 3855TIP3    H233201   2.468   4.047   3.108 -2.3689 -2.5546  2.2496
 3856TIP3   OH233202   0.181   2.876   2.273 -0.0408 -0.5170  1.3681
 3856TIP3    H133203   0.104   2.826   2.247  0.9343 -0.0075 -3.3313
 3856TIP3    H233204   0.150   2.967   2.277  0.1348 -0.3805  0.0263
 3857TIP3   OH233205   3.354   4.418   2.061  0.3381  0.2055 -0.3089
 3857TIP3    H133206   3.300   4.468   2.123 -1.1339  0.2327 -1.5455
 3857TIP3    H233207   3.366   4.333   2.103 -0.8345  0.1453 -0.0625
 3858TIP3   OH233208   1.301   2.867   3.733 -0.9007 -0.3151 -0.2071
 3858TIP3    H133209   1.343   2.952   3.742 -2.3770  0.3980  0.2712
 3858TIP3    H233210   1.369   2.804   3.757 -0.2885  0.8201  1.1615
 3859TIP3   OH233211   3.678   6.185   2.922 -0.0924  0.5275 -0.1517
 3859TIP3    H133212   3.681   6.227   3.008 -2.8223 -0.9872  0.8436
 3859TIP3    H233213   3.720   6.100   2.935  0.7146  0.8307 -0.7162
 3860TIP3   OH233214   1.067   0.728   3.383 -0.1037  0.4914  0.2801
 3860TIP3    H133215   1.068   0.639   3.418  1.4353  1.1552  2.0617
 3860TIP3    H233216   1.147   0.734   3.332  0.1635  1.0747  0.7666
 3861TIP3   OH233217   1.802   1.105   1.152 -0.5839 -0.1012  0.0073
 3861TIP3    H133218   1.712   1.083   1.127 -0.6399  0.8650 -0.6901
 3861TIP3    H233219   1.828   1.035   1.212 -1.0570 -1.5575 -1.4166
 3862TIP3   OH233220   5.622   6.080   3.849  0.1591  0.0287 -0.5792
 3862TIP3    H133221   5.686   6.038   3.790  0.6327 -0.4355  0.2498
 3862TIP3    H233222   5.563   6.009   3.874  0.2855  0.1081 -0.0584
 3863TIP3   OH233223   2.220   5.976   5.018  0.4432 -0.3330 -0.4142
 3863TIP3    H133224   2.281   6.050   5.014 -1.0109  0.9825  0.4214
 3863TIP3    H233225   2.138   6.011   4.984 -0.4245 -1.4193  0.4787
 3864TIP3   OH233226   2.468   6.634   3.675 -0.0368 -0.9573 -0.7281
 3864TIP3    H133227   2.531   6.633   3.604 -0.2666 -0.3082 -0.9487
 3864TIP3    H233228   2.520   6.649   3.754 -0.0592  1.4444 -1.1015
 3865TIP3   OH233229   2.509   0.626   4.744 -0.2163  0.0928 -0.2577
 3865TIP3    H133230   2.517   0.635   4.649 -0.7576  0.5241 -0.2673
 3865TIP3    H233231   2.576   0.685   4.779 -0.0212 -0.0611 -0.3694
 3866TIP3   OH233232   2.990   5.917   4.094  0.3189  0.2163 -0.1027
 3866TIP3    H133233   2.922   5.900   4.159  0.4675  0.9145  0.2378
 3866TIP3    H233234   2.961   5.996   4.049  0.7329  0.3178 -0.1939
 3867TIP3   OH233235   2.650   6.534   2.998 -0.7853 -0.4157  0.0537
 3867TIP3    H133236   2.742   6.510   2.988 -1.3353 -2.5746 -0.1287
 3867TIP3    H233237   2.618   6.545   2.909 -0.8963 -0.3566  0.0997
 3868TIP3   OH233238   1.132   5.295   0.361 -0.5795  0.1452  0.0413
 3868TIP3    H133239   1.172   5.207   0.366 -0.6058  0.0412 -1.2119
 3868TIP3    H233240   1.189   5.343   0.301 -0.5068  1.0343  0.8074
 3869TIP3   OH233241   6.048   3.945   3.947  0.4092  0.0704 -0.4514
 3869TIP3    H133242   5.963   3.958   3.989  0.6435  0.4465 -0.0798
 3869TIP3    H233243   6.027   3.934   3.854 -0.0280  0.4647 -0.4077
 3870TIP3   OH233244   5.541   0.006   2.860 -0.0341  0.7657  0.0635
 3870TIP3    H133245   5.588  -0.029   2.935  1.7377 -0.4209 -1.5325
 3870TIP3    H233246   5.471  -0.058   2.844 -0.8774  1.3875  1.0646
 3871TIP3   OH233247   5.978   6.211   4.030 -0.2862 -0.0889  0.0752
 3871TIP3    H133248   5.912   6.273   4.000  0.0871  0.0615 -0.4491
 3871TIP3    H233249   6.051   6.266   4.059 -0.8016 -0.2136  1.6812
 3872TIP3   OH233250   4.569   1.582   3.928 -0.3061  0.0740  0.2604
 3872TIP3    H133251   4.618   1.662   3.949  0.4981 -0.5188  0.7040
 3872TIP3    H233252   4.481   1.613   3.906  0.4220  1.2214 -1.1711
 3873TIP3   OH233253   4.777   1.397   4.542  0.3921 -0.0567  0.2358
 3873TIP3    H133254   4.855   1.357   4.504 -0.2042 -0.6961 -0.3377
 3873TIP3    H233255   4.765   1.479   4.493 -1.1136 -1.4762 -1.9522
 3874TIP3   OH233256   3.828   5.048   2.281 -0.7747  0.2985  0.0514
 3874TIP3    H133257   3.775   5.069   2.358  0.9820 -1.1803  1.8058
 3874TIP3    H233258   3.894   5.117   2.277 -0.8282  0.3416 -0.0773
 3875TIP3   OH233259   1.380   6.184   1.038  0.0917 -0.5630 -0.1566
 3875TIP3    H133260   1.326   6.159   0.963 -0.2709  1.0954 -0.4917
 3875TIP3    H233261   1.416   6.270   1.014  0.0743 -0.0543  1.4887
 3876TIP3   OH233262   2.686   3.409   4.233  0.1072  0.5447  0.3668
 3876TIP3    H133263   2.746   3.483   4.245  0.6243  0.1359  0.3348
 3876TIP3    H233264   2.653   3.420   4.144  0.1680  0.7468  0.3676
 3877TIP3   OH233265   2.479   1.823   4.182 -0.5281 -0.4036  0.6391
 3877TIP3    H133266   2.550   1.764   4.157 -1.3658 -1.5509  0.9129
 3877TIP3    H233267   2.498   1.845   4.274  1.5377  2.3650 -0.2955
 3878TIP3   OH233268   6.244   1.249   2.569 -0.5158  0.2273  0.5985
 3878TIP3    H133269   6.289   1.333   2.574  1.2165 -0.6563  0.9330
 3878TIP3    H233270   6.180   1.260   2.499  1.2659  1.1384 -0.9921
 3879TIP3   OH233271   1.975   4.314   2.603 -0.6821 -0.0589  0.3615
 3879TIP3    H133272   2.057   4.343   2.642 -0.4905  1.2580 -0.9399
 3879TIP3    H233273   1.920   4.290   2.678  0.3403  0.5200  1.3223
 3880TIP3   OH233274   2.814   6.001   4.527 -0.1306 -0.1506  0.0228
 3880TIP3    H133275   2.876   6.043   4.469  0.6934 -0.7826  0.4229
 3880TIP3    H233276   2.847   6.018   4.615  0.2774 -1.6588  0.1936
 3881TIP3   OH233277   5.698   3.253   1.860 -0.0351 -0.1046 -0.0986
 3881TIP3    H133278   5.607   3.225   1.849 -0.2307 -0.7967  2.5186
 3881TIP3    H233279   5.722   3.222   1.948  2.0923  1.7976  0.0805
 3882TIP3   OH233280   0.378   4.370   2.208 -0.2505  0.3530 -0.2798
 3882TIP3    H133281   0.324   4.322   2.144 -1.4179  1.5416 -0.2290
 3882TIP3    H233282   0.335   4.455   2.216  0.9293  0.8737  0.7424
 3883TIP3   OH233283   1.396   0.143   4.754 -0.0514 -0.0907  0.6438
 3883TIP3    H133284   1.465   0.093   4.711 -0.5587 -0.5221  0.3265
 3883TIP3    H233285   1.432   0.163   4.841  0.6642  0.1113  0.3062
 3884TIP3   OH233286   4.407   3.487   3.372  0.6845 -0.7885  0.5468
 3884TIP3    H133287   4.461   3.521   3.444 -0.2615 -0.0344  0.9208
 3884TIP3    H233288   4.333   3.446   3.416  0.2552 -0.5982 -0.0007
 3885TIP3   OH233289   6.595   5.688   4.245  0.7281 -0.3785  0.0858
 3885TIP3    H133290   6.643   5.613   4.282  1.0729 -0.0989  0.2146
 3885TIP3    H233291   6.534   5.649   4.184  0.9037 -0.7702  0.1540
 3886TIP3   OH233292   4.723   1.521   4.185 -0.0734  0.1912 -0.4410
 3886TIP3    H133293   4.666   1.489   4.115  1.3166 -1.7505 -0.7546
 3886TIP3    H233294   4.811   1.497   4.158  0.8360  2.1165  0.5683
 3887TIP3   OH233295   5.636   6.302   5.092  0.0422 -0.3224  0.1275
 3887TIP3    H133296   5.693   6.226   5.078  0.4339  0.1125 -0.7524
 3887TIP3    H233297   5.547   6.268   5.083  0.2196 -0.6580 -0.3882
 3888TIP3   OH233298   5.289   5.559   3.251  0.1611  0.6270  0.1840
 3888TIP3    H133299   5.374   5.596   3.229  0.4065 -1.0914 -2.1979
 3888TIP3    H233300   5.303   5.510   3.332  0.9170  1.9962  0.8974
 3889TIP3   OH233301   4.646   5.836   1.955  0.3758 -0.4864  1.0903
 3889TIP3    H133302   4.666   5.920   1.914  0.3903 -0.1157  1.8394
 3889TIP3    H233303   4.624   5.778   1.882  2.4206 -0.4301  0.3660
 3890TIP3   OH233304   2.167   3.863   3.263 -0.1091  0.2175 -0.2785
 3890TIP3    H133305   2.188   3.951   3.295  1.3734  0.2414 -1.2058
 3890TIP3    H233306   2.079   3.871   3.225  0.4625  1.6235 -1.4156
 3891TIP3   OH233307   3.134   1.339   1.340  0.4085 -0.0908 -0.0373
 3891TIP3    H133308   3.223   1.372   1.352  0.9944 -1.5319 -0.3089
 3891TIP3    H233309   3.118   1.283   1.416  0.4704 -1.3914 -0.9633
 3892TIP3   OH233310   0.889   4.116   3.301  0.1037 -0.2121  0.9121
 3892TIP3    H133311   0.883   4.211   3.296  1.5856 -0.1507 -0.3851
 3892TIP3    H233312   0.827   4.084   3.234 -0.5415 -0.1819  1.4854
 3893TIP3   OH233313   5.288   6.291   2.248  0.2627  0.2857  0.0683
 3893TIP3    H133314   5.325   6.312   2.334  0.8396  0.0823 -0.1191
 3893TIP3    H233315   5.267   6.376   2.210  1.7777  0.5064 -0.3417
 3894TIP3   OH233316   5.356   1.095   0.729 -0.2233  0.0032 -0.3126
 3894TIP3    H133317   5.286   1.119   0.669  0.6466  0.4448 -1.1712
 3894TIP3    H233318   5.385   1.009   0.699  0.7629  0.5819 -1.0517
 3895TIP3   OH233319   4.015   1.201   2.719  0.3876  0.6489 -0.2528
 3895TIP3    H133320   3.960   1.225   2.794 -1.5153 -1.5911 -0.8137
 3895TIP3    H233321   4.012   1.106   2.717  3.6750  0.4407 -0.8721
 3896TIP3   OH233322   5.143   3.632   1.546  0.3879  0.1900 -0.4652
 3896TIP3    H133323   5.150   3.540   1.518  0.0351  0.5839 -1.9486
 3896TIP3    H233324   5.160   3.630   1.640 -0.0551 -1.4607 -0.3851
 3897TIP3   OH233325   5.394   3.009   4.571  0.3084  0.3264 -0.4463
 3897TIP3    H133326   5.430   2.957   4.642 -1.1015  0.1790  0.1738
 3897TIP3    H233327   5.310   2.969   4.551 -0.7164  2.1966 -0.0983
 3898TIP3   OH233328   1.797   3.620   4.402 -0.1410  0.4541  0.1548
 3898TIP3    H133329   1.813   3.708   4.437  0.3816  0.1686  0.6467
 3898TIP3    H233330   1.733   3.581   4.462 -1.6774  1.0769 -1.0004
 3899TIP3   OH233331   0.148   0.194   4.039  0.2046 -0.4444 -0.4206
 3899TIP3    H133332   0.099   0.163   4.115  0.4446 -0.3813 -0.2362
 3899TIP3    H233333   0.170   0.115   3.991  1.4745 -0.6610  0.4492
 3900TIP3   OH233334   0.248   0.632   1.227  0.6884 -0.3071  0.5440
 3900TIP3    H133335   0.279   0.721   1.244  0.5149  0.0499 -0.8798
 3900TIP3    H233336   0.327   0.579   1.225  0.8194 -0.1406  1.0844
 3901TIP3   OH233337   4.367   1.368   0.999 -0.6685  0.0124 -0.1572
 3901TIP3    H133338   4.356   1.287   0.948  0.3525  0.9016 -1.8835
 3901TIP3    H233339   4.451   1.403   0.970  0.5795  0.0280  3.0317
 3902TIP3   OH233340   0.920   0.702   1.812 -0.4364 -0.5704  0.2605
 3902TIP3    H133341   0.930   0.635   1.879  0.3614 -1.0503 -0.3251
 3902TIP3    H233342   1.001   0.752   1.814 -0.4691 -0.4878 -0.2371
 3903TIP3   OH233343   3.887   0.961   2.016 -0.6864  0.5863  0.1285
 3903TIP3    H133344   3.886   1.054   1.991 -0.9735  0.7770  0.8209
 3903TIP3    H233345   3.828   0.956   2.091 -1.0413 -0.2482 -0.1990
 3904TIP3   OH233346   1.733   0.922   1.954  0.2016  0.2900  0.8711
 3904TIP3    H133347   1.756   0.967   2.036 -0.3594 -1.5269  2.0962
 3904TIP3    H233348   1.816   0.914   1.907  0.6928  0.6125  1.6559
 3905TIP3   OH233349   3.835   4.311   3.772  0.1213 -0.3614  0.4737
 3905TIP3    H133350   3.743   4.284   3.765 -0.6581  1.7451  1.6913
 3905TIP3    H233351   3.846   4.337   3.864  1.7732 -0.0481  0.2193
 3906TIP3   OH233352   3.458   1.886   5.031  0.4463 -0.5620  0.4537
 3906TIP3    H133353   3.453   1.981   5.036  2.2466 -0.3344 -0.9859
 3906TIP3    H233354   3.370   1.859   5.003  0.3317  0.8151 -0.6016
 3907TIP3   OH233355   6.663   5.941   0.708 -0.0162  0.0368 -0.2796
 3907TIP3    H133356   6.697   5.852   0.710 -0.7459 -0.2449 -0.4296
 3907TIP3    H233357   6.707   5.982   0.633 -0.4129 -0.4935 -0.8108
 3908TIP3   OH233358   2.105   6.231   3.705 -0.3153  0.1907 -0.0537
 3908TIP3    H133359   2.193   6.194   3.709 -0.7297 -0.8194 -0.1952
 3908TIP3    H233360   2.120   6.326   3.701  0.7708  0.0138 -0.4985
 3909TIP3   OH233361   1.902   0.903   1.352 -0.1174  0.0288 -0.0887
 3909TIP3    H133362   1.918   0.945   1.437 -0.0898  0.5557 -0.3577
 3909TIP3    H233363   1.874   0.814   1.376 -0.4613  0.2789  0.4891
 3910TIP3   OH233364   3.681   0.372   3.503  0.0883  0.1751  0.0874
 3910TIP3    H133365   3.588   0.389   3.518 -0.7675 -3.0695 -0.9137
 3910TIP3    H233366   3.721   0.460   3.500 -2.9746  1.6862  0.0401
 3911TIP3   OH233367   0.069   2.882   4.131  0.5105 -0.3704 -0.5962
 3911TIP3    H133368   0.063   2.881   4.227 -0.9177 -0.6407 -0.6587
 3911TIP3    H233369   0.025   2.962   4.105 -0.2706 -0.9312 -1.0626
 3912TIP3   OH233370   4.436   3.506   0.916  0.5335 -0.4596 -0.2131
 3912TIP3    H133371   4.503   3.572   0.934  0.7274 -0.9196  0.8511
 3912TIP3    H233372   4.395   3.535   0.835 -0.4992  1.8483  1.0481
 3913TIP3   OH233373   0.992   3.241   1.031  0.1592 -0.1672 -0.1869
 3913TIP3    H133374   0.913   3.296   1.026  0.8411  0.9546  0.9083
 3913TIP3    H233375   1.044   3.268   0.955  0.5410  0.8024  0.4052
 3914TIP3   OH233376   6.518   2.061   5.369  0.5240 -0.5370  0.2684
 3914TIP3    H133377   6.423   2.064   5.374  0.4172  1.4934 -1.5193
 3914TIP3    H233378   6.546   2.151   5.383  1.8902 -0.4455 -2.3283
 3915TIP3   OH233379   0.857   1.983   3.726  0.0497  0.1493  0.1299
 3915TIP3    H133380   0.793   1.966   3.657  0.5261  1.5172 -0.6862
 3915TIP3    H233381   0.853   2.078   3.740 -0.9139 -0.2164  2.8669
 3916TIP3   OH233382   2.179   4.090   4.035  0.5452 -0.2197  0.6030
 3916TIP3    H133383   2.212   4.012   4.078  0.0923 -0.3916  0.6491
 3916TIP3    H233384   2.168   4.154   4.105  0.3466 -0.3123  0.6568
 3917TIP3   OH233385   2.145   6.668   3.932  0.0002  0.3079 -0.2749
 3917TIP3    H133386   2.187   6.745   3.895  0.3049  0.4988  0.4434
 3917TIP3    H233387   2.171   6.596   3.874  2.9049  0.0858  1.1130
 3918TIP3   OH233388   6.317   3.132   3.449 -0.0103 -0.3857 -0.2456
 3918TIP3    H133389   6.297   3.115   3.541  0.0322  1.1729  0.0697
 3918TIP3    H233390   6.232   3.131   3.405 -0.2584  0.8561  0.1714
 3919TIP3   OH233391   4.752   2.529   4.200 -0.3870  0.5423 -0.4731
 3919TIP3    H133392   4.795   2.564   4.278  1.2585 -1.5944 -0.3601
 3919TIP3    H233393   4.683   2.472   4.234  0.5994 -0.7209 -0.5121
 3920TIP3   OH233394   3.637   0.059   3.680 -0.4021  0.0325  0.3613
 3920TIP3    H133395   3.732   0.058   3.666 -0.7924 -0.1418 -2.8645
 3920TIP3    H233396   3.622   0.132   3.740  1.6646  0.6064  0.2429
 3921TIP3   OH233397   3.976   4.751   1.424 -0.2422 -0.6483  0.0156
 3921TIP3    H133398   3.991   4.743   1.518 -0.7453  0.2921  0.1869
 3921TIP3    H233399   4.034   4.823   1.397 -1.2301  0.1221 -0.1003
 3922TIP3   OH233400   1.721   1.873   4.564  0.1185  0.0657  0.2744
 3922TIP3    H133401   1.657   1.865   4.635  0.7305 -1.2585  0.7023
 3922TIP3    H233402   1.790   1.811   4.587  0.2164 -0.5677 -1.5977
 3923TIP3   OH233403   6.048   6.248   5.085  0.6030 -0.4230 -0.3871
 3923TIP3    H133404   5.953   6.242   5.070  0.3189 -2.2515  1.5448
 3923TIP3    H233405   6.056   6.249   5.181  2.5662 -1.2220 -0.5086
 3924TIP3   OH233406   3.756   6.319   3.164  0.5911  0.2479  0.8939
 3924TIP3    H133407   3.760   6.282   3.252  0.4561  2.1882  1.7692
 3924TIP3    H233408   3.770   6.413   3.177  0.4647  0.5937 -1.1500
 3925TIP3   OH233409   6.159   2.735   1.268 -0.2596 -0.4644  0.1689
 3925TIP3    H133410   6.184   2.825   1.287 -0.0077 -0.4181 -0.3611
 3925TIP3    H233411   6.110   2.741   1.185  2.4837 -1.1815 -1.6283
 3926TIP3   OH233412   2.913   4.507   1.182  0.7306  0.2929 -0.0357
 3926TIP3    H133413   2.934   4.535   1.093  0.1644  0.4557 -0.1184
 3926TIP3    H233414   2.975   4.555   1.237 -0.3864  1.9613 -0.1464
 3927TIP3   OH233415   2.220   3.168   3.892 -0.4511 -0.0747 -0.2353
 3927TIP3    H133416   2.154   3.098   3.893 -1.0773  0.4992  1.8446
 3927TIP3    H233417   2.172   3.245   3.863 -1.0296  0.5828  2.2702
 3928TIP3   OH233418   3.353   1.971   2.353 -0.1741  0.0533  0.2113
 3928TIP3    H133419   3.399   1.893   2.384 -0.9398 -0.2682  0.5723
 3928TIP3    H233420   3.422   2.032   2.329  0.4968  0.5998  3.1636
 3929TIP3   OH233421   6.741   4.699   1.323 -0.1373  0.4687  0.3409
 3929TIP3    H133422   6.750   4.632   1.390 -1.9905 -0.5329 -0.3340
 3929TIP3    H233423   6.686   4.767   1.363  1.4889  1.5096  0.9196
 3930TIP3   OH233424   3.466   4.777   2.939 -0.2035 -0.5517 -0.8622
 3930TIP3    H133425   3.457   4.855   2.884  1.1318 -1.1454 -1.9904
 3930TIP3    H233426   3.512   4.808   3.017  1.8166 -0.4440 -2.0188
 3931TIP3   OH233427   5.673   3.825   2.848  0.0616  0.1395  0.5494
 3931TIP3    H133428   5.614   3.777   2.791  0.0167  1.0182 -0.1558
 3931TIP3    H233429   5.671   3.777   2.931 -0.2517 -0.8567 -0.0251
 3932TIP3   OH233430   2.120   2.009   2.047  0.2247  0.4790  0.1299
 3932TIP3    H133431   2.099   2.047   2.132 -0.1217  1.0890 -0.2246
 3932TIP3    H233432   2.149   2.082   1.994 -1.8416  0.5408 -1.0087
 3933TIP3   OH233433   0.746   4.048   1.437 -0.3163 -0.4614  0.2738
 3933TIP3    H133434   0.768   4.140   1.451 -0.7283 -0.1649 -0.8845
 3933TIP3    H233435   0.824   4.010   1.398 -1.1991  0.2198 -2.3633
 3934TIP3   OH233436   3.660   2.110   2.595 -0.3235  0.6025 -0.1868
 3934TIP3    H133437   3.611   2.066   2.663 -0.2240  0.3856 -0.2546
 3934TIP3    H233438   3.608   2.188   2.574 -1.9683 -0.8707 -2.0204
 3935TIP3   OH233439   2.026   1.407   5.397  0.1831 -0.2447  0.3917
 3935TIP3    H133440   1.930   1.400   5.392  0.3139 -2.8574  0.0699
 3935TIP3    H233441   2.046   1.394   5.489  0.2145  1.0198  0.5751
 3936TIP3   OH233442   4.756   4.484   1.316  0.9656 -0.2784  0.0171
 3936TIP3    H133443   4.688   4.417   1.313  1.7483 -1.1708  1.5716
 3936TIP3    H233444   4.836   4.439   1.288  1.9357 -0.6268  3.0822
 3937TIP3   OH233445   1.945   4.231   4.976  0.4421 -0.5761 -0.0485
 3937TIP3    H133446   1.983   4.211   4.891 -0.6276  0.4855 -0.8021
 3937TIP3    H233447   1.978   4.318   4.998 -0.6990 -0.0864 -0.2301
 3938TIP3   OH233448   5.681   1.336   1.313 -0.1530  0.7220 -0.3189
 3938TIP3    H133449   5.721   1.422   1.298 -0.4567  0.8125 -0.6309
 3938TIP3    H233450   5.627   1.321   1.235  0.2789  0.0287 -0.4973
 3939TIP3   OH233451   2.932   2.859   0.586 -0.0847 -0.0228 -0.2850
 3939TIP3    H133452   2.945   2.807   0.665  0.1798  0.5527  0.0514
 3939TIP3    H233453   3.005   2.920   0.585 -0.6498  0.6606 -0.4197
 3940TIP3   OH233454   2.137   1.523   3.862  0.2578  0.7506  0.0865
 3940TIP3    H133455   2.125   1.528   3.957  1.1500  1.7061  0.1821
 3940TIP3    H233456   2.220   1.477   3.851  0.5595  1.3412 -0.1822
 3941TIP3   OH233457   1.821   4.430   2.388  0.0627 -0.0833 -0.1871
 3941TIP3    H133458   1.870   4.396   2.463 -0.5470 -0.9252 -0.1612
 3941TIP3    H233459   1.886   4.435   2.318  0.2002 -1.2601 -0.1718
 3942TIP3   OH233460   3.851   2.154   4.804 -0.1073 -0.6077 -0.2420
 3942TIP3    H133461   3.944   2.166   4.826  0.2506 -2.5714 -0.5146
 3942TIP3    H233462   3.835   2.214   4.732  0.7839  0.1944  0.2098
 3943TIP3   OH233463   4.957   0.602   2.456  0.2878  0.4566 -0.1445
 3943TIP3    H133464   4.919   0.522   2.494 -1.7744  0.2629 -2.3378
 3943TIP3    H233465   4.969   0.660   2.531 -0.8998 -0.8673  1.1580
 3944TIP3   OH233466   1.268   2.698   2.803  0.5384  0.2220  0.0520
 3944TIP3    H133467   1.256   2.603   2.794  0.2792  0.3724 -1.4663
 3944TIP3    H233468   1.362   2.711   2.795  0.3915  0.2926 -2.7187
 3945TIP3   OH233469   2.316   2.241   2.848 -0.3525  0.2260 -0.2191
 3945TIP3    H133470   2.370   2.215   2.922  0.4381  0.7585 -0.5883
 3945TIP3    H233471   2.282   2.327   2.872 -1.9400 -0.5565  0.4674
 3946TIP3   OH233472   1.462   6.549   3.740  0.1014  0.0079  0.0497
 3946TIP3    H133473   1.481   6.456   3.726  0.4503 -0.0079  0.6047
 3946TIP3    H233474   1.513   6.572   3.817  0.4831  0.8153 -0.4346
 3947TIP3   OH233475   4.221   5.157   1.279  0.2678 -0.3400 -0.3154
 3947TIP3    H133476   4.232   5.215   1.354 -0.2361 -2.4320  1.4916
 3947TIP3    H233477   4.287   5.185   1.216  0.4404  1.7432  0.7304
 3948TIP3   OH233478   5.944   4.105   2.784 -0.4790 -0.3764 -0.0504
 3948TIP3    H133479   5.941   4.178   2.722  1.5312 -0.3590 -0.1724
 3948TIP3    H233480   5.916   4.029   2.733  3.6416 -0.8964 -1.9014
 3949TIP3   OH233481   2.721   1.589   2.540  0.4888 -0.5990 -0.2221
 3949TIP3    H133482   2.814   1.577   2.558  0.6840  0.7819 -0.1996
 3949TIP3    H233483   2.691   1.649   2.608  0.0579  0.5706 -1.4041
 3950TIP3   OH233484   2.654   0.806   3.391 -0.1959  0.8109  0.5136
 3950TIP3    H133485   2.703   0.861   3.330 -2.7208  0.0379 -2.4916
 3950TIP3    H233486   2.611   0.868   3.450 -0.2827  1.8346 -0.5932
 3951TIP3   OH233487   5.135   3.292   4.138 -0.0793  0.2864  0.3262
 3951TIP3    H133488   5.214   3.340   4.164  0.5093 -0.4902 -0.0210
 3951TIP3    H233489   5.122   3.315   4.046  0.4173 -0.4910  0.0512
 3952TIP3   OH233490   2.312   3.441   0.856 -0.6096  0.4390  0.4141
 3952TIP3    H133491   2.310   3.525   0.902  2.2859  1.6427 -1.3919
 3952TIP3    H233492   2.271   3.460   0.772 -1.0963 -0.3282  0.4760
 3953TIP3   OH233493   6.400   3.924   1.947 -0.3035  0.5390 -0.0663
 3953TIP3    H133494   6.391   3.922   1.852  1.0418 -1.0858 -0.1989
 3953TIP3    H233495   6.411   4.017   1.968  0.0013  0.8654 -1.5634
 3954TIP3   OH233496   3.552   0.320   4.807 -0.3443  0.2546  0.4023
 3954TIP3    H133497   3.615   0.247   4.801 -0.3173  0.3388 -0.4002
 3954TIP3    H233498   3.562   0.352   4.896  1.1732  0.6366  0.1229
 3955TIP3   OH233499   6.633   3.733   1.660 -0.3341  0.4621  0.0466
 3955TIP3    H133500   6.673   3.726   1.746 -0.3451 -0.3482 -0.0062
 3955TIP3    H233501   6.704   3.764   1.603  0.3234 -1.2547 -0.1098
 3956TIP3   OH233502   2.228   3.531   2.058  0.0827 -0.3536 -0.1925
 3956TIP3    H133503   2.144   3.518   2.102 -1.7618  0.5807 -3.0978
 3956TIP3    H233504   2.249   3.624   2.071 -0.4928 -0.0631 -1.2357
 3957TIP3   OH233505   6.041   3.944   3.666  0.0222 -0.2430 -0.1836
 3957TIP3    H133506   6.123   3.994   3.667 -0.6471  0.8980 -0.0879
 3957TIP3    H233507   6.040   3.903   3.580 -0.0316  1.0150 -0.8058
 3958TIP3   OH233508   3.959   2.947   1.825 -0.4464 -0.1587  0.4990
 3958TIP3    H133509   4.026   3.011   1.801  0.7626 -1.4658  0.2547
 3958TIP3    H233510   3.936   2.903   1.743 -1.1073 -0.1908  0.6945
 3959TIP3   OH233511   4.087   4.740   2.639  0.5433 -0.4016  0.7005
 3959TIP3    H133512   4.103   4.750   2.545  0.1383 -1.5272  0.4940
 3959TIP3    H233513   4.124   4.819   2.679  2.3195 -0.7375 -0.2140
 3960TIP3   OH233514   2.984   6.308   2.564 -0.1579 -0.0011  0.1605
 3960TIP3    H133515   2.926   6.364   2.616 -0.2017  0.4603 -0.3731
 3960TIP3    H233516   3.051   6.278   2.626 -0.7422 -0.2217  0.6906
 3961TIP3   OH233517   0.831   3.049   3.769  0.1402 -0.3923 -0.1002
 3961TIP3    H133518   0.799   2.997   3.695  1.2427 -0.5756 -0.4719
 3961TIP3    H233519   0.759   3.051   3.831 -1.2260  0.6478 -1.6322
 3962TIP3   OH233520   4.741   1.602   3.614 -0.2261 -0.0506  1.2546
 3962TIP3    H133521   4.685   1.550   3.556  1.1855  0.6571 -0.8606
 3962TIP3    H233522   4.681   1.657   3.663 -1.4816 -0.5906  0.3748
 3963TIP3   OH233523   0.887   6.008   1.714 -0.2200  0.4515  0.1926
 3963TIP3    H133524   0.839   5.937   1.672 -0.3860  0.9737 -0.5334
 3963TIP3    H233525   0.905   6.069   1.642 -0.0382  1.1110  0.7947
 3964TIP3   OH233526   0.835   0.013   4.690 -0.5547  0.4123  0.2180
 3964TIP3    H133527   0.812   0.037   4.780 -0.1736  0.9522  0.1736
 3964TIP3    H233528   0.885  -0.068   4.699  0.3653  1.0053  0.5864
 3965TIP3   OH233529   5.188   1.342   2.088  0.2725 -0.3558  0.3425
 3965TIP3    H133530   5.153   1.339   2.177 -1.5920 -1.0844 -0.3528
 3965TIP3    H233531   5.155   1.424   2.051 -1.0261 -1.1780 -0.4127
 3966TIP3   OH233532   1.938   0.604   2.226  0.0368  0.6325 -0.3155
 3966TIP3    H133533   1.988   0.682   2.246  0.1715 -0.1720  3.2611
 3966TIP3    H233534   1.929   0.559   2.310 -0.4651 -2.9639 -2.0848
 3967TIP3   OH233535   3.379   6.244   3.246 -0.1242 -0.2274 -0.5212
 3967TIP3    H133536   3.317   6.283   3.184 -1.8146 -1.9599 -0.0233
 3967TIP3    H233537   3.385   6.152   3.219  0.3936 -0.6347  0.8736
 3968TIP3   OH233538   0.802   5.905   3.904 -0.2563 -0.2239  0.2092
 3968TIP3    H133539   0.875   5.965   3.888 -1.2275  0.3988 -2.3508
 3968TIP3    H233540   0.834   5.820   3.875 -0.2346 -0.1227 -0.0679
 3969TIP3   OH233541   1.925   4.345   1.361 -0.0531  0.0082  0.3690
 3969TIP3    H133542   1.925   4.429   1.407  0.7994  0.0949  0.2221
 3969TIP3    H233543   1.833   4.319   1.359 -0.3433  1.0193  0.2590
 3970TIP3   OH233544   3.239   5.088   0.699  0.0738  0.0689  0.4079
 3970TIP3    H133545   3.257   5.162   0.641  1.4500 -0.2141  0.4367
 3970TIP3    H233546   3.257   5.011   0.645  1.6411 -0.1933  1.2469
 3971TIP3   OH233547   5.892   3.274   4.033 -0.1703  0.0435 -0.1666
 3971TIP3    H133548   5.934   3.190   4.052  0.3707  0.6993  1.6744
 3971TIP3    H233549   5.965   3.331   4.007 -0.6060 -0.1600 -2.0328
 3972TIP3   OH233550   5.929   0.205   4.526 -0.0879  0.3983  0.5702
 3972TIP3    H133551   5.980   0.231   4.602 -1.1584  3.1021  0.4720
 3972TIP3    H233552   5.907   0.287   4.482 -0.5948 -0.9773 -1.9745
 3973TIP3   OH233553   1.171   6.115   2.625 -0.4280  0.0910  0.2144
 3973TIP3    H133554   1.105   6.181   2.603  0.4583  1.3914  1.2616
 3973TIP3    H233555   1.128   6.059   2.689 -0.5980  0.8285  0.7634
 3974TIP3   OH233556   4.821   1.992   3.437  0.1054 -0.4132  0.2674
 3974TIP3    H133557   4.745   1.942   3.465  0.0091  0.0716  0.8952
 3974TIP3    H233558   4.787   2.053   3.371 -0.0022 -0.3618  0.3713
 3975TIP3   OH233559   1.480   4.893   4.176  0.1131 -0.1688  0.3256
 3975TIP3    H133560   1.436   4.941   4.106  0.4512 -0.3164  0.0106
 3975TIP3    H233561   1.463   4.801   4.157 -1.0335 -0.1662  1.2583
 3976TIP3   OH233562   1.623   1.969   0.823 -0.2054 -0.7539 -0.0679
 3976TIP3    H133563   1.625   1.873   0.828 -3.2760 -0.9987 -1.0391
 3976TIP3    H233564   1.630   1.988   0.729 -3.2219 -0.3662 -0.3153
 3977TIP3   OH233565   4.188   3.817   4.370  0.9698 -0.6732 -0.0129
 3977TIP3    H133566   4.217   3.726   4.370  0.9589 -0.6837  1.0034
 3977TIP3    H233567   4.202   3.847   4.460 -1.2116 -0.3813  0.3013
 3978TIP3   OH233568   1.771   0.382   4.895  0.3978  0.0649  0.4285
 3978TIP3    H133569   1.738   0.414   4.979 -0.1625 -0.4390  0.4063
 3978TIP3    H233570   1.797   0.461   4.848 -2.6695  0.7662 -0.3554
 3979TIP3   OH233571   2.815   4.434   2.531  0.1103 -0.5112 -0.5294
 3979TIP3    H133572   2.879   4.417   2.600  0.5840 -1.0285 -1.0852
 3979TIP3    H233573   2.768   4.512   2.560 -0.6852 -1.5328  1.0903
 3980TIP3   OH233574   5.886   5.498   1.179  0.2267 -0.4908 -0.6319
 3980TIP3    H133575   5.791   5.488   1.168  0.2429 -1.1237 -0.2676
 3980TIP3    H233576   5.912   5.561   1.111 -0.4555 -0.2979 -0.7163
 3981TIP3   OH233577   6.695   0.786   0.711  0.5735  0.4900  0.1968
 3981TIP3    H133578   6.780   0.744   0.698  0.8010  0.9768  0.0864
 3981TIP3    H233579   6.648   0.772   0.629  2.0482  3.6645 -1.3363
 3982TIP3   OH233580   1.761   3.105   4.017 -0.2714  0.2731 -0.0037
 3982TIP3    H133581   1.788   3.016   4.041  0.3199  0.3338 -0.4475
 3982TIP3    H233582   1.683   3.120   4.070  0.4585  0.0408  1.1752
 3983TIP3   OH233583   1.979   2.264   1.921 -0.5955 -0.2024 -0.7717
 3983TIP3    H133584   1.935   2.336   1.877  0.9338  0.3655 -1.4349
 3983TIP3    H233585   1.951   2.272   2.012 -0.5268  1.1917 -0.8446
 3984TIP3   OH233586   2.903   6.096   1.558 -0.4653 -0.1304  0.3890
 3984TIP3    H133587   2.997   6.103   1.542 -0.5345  1.1263  0.3913
 3984TIP3    H233588   2.885   6.002   1.559  0.7916 -0.3834  0.4345
 3985TIP3   OH233589   2.778   1.963   3.256  0.1267 -0.6184  0.2439
 3985TIP3    H133590   2.761   2.009   3.173 -1.4852  0.4078  1.0938
 3985TIP3    H233591   2.843   2.017   3.300  1.8684 -1.7732 -0.7820
 3986TIP3   OH233592   5.558   1.584   2.951  0.5019  0.0495  0.4780
 3986TIP3    H133593   5.510   1.646   3.005  1.9153  0.3024  1.5159
 3986TIP3    H233594   5.514   1.587   2.866 -0.4432  1.2685  0.9748
 3987TIP3   OH233595   6.052   6.067   2.424  0.5161 -0.2255 -0.2657
 3987TIP3    H133596   6.110   6.086   2.350  0.7930  0.0844  0.0260
 3987TIP3    H233597   6.055   5.972   2.433  3.1440 -0.0802  1.4367
 3988TIP3   OH233598   2.768   2.471   2.283 -0.1343 -0.5526  0.5029
 3988TIP3    H133599   2.835   2.432   2.339 -0.1788  1.2923  1.9156
 3988TIP3    H233600   2.705   2.510   2.343 -0.4569  1.0514 -0.7920
 3989TIP3   OH233601   2.175   3.153   4.231  0.2187 -0.1517 -0.1832
 3989TIP3    H133602   2.137   3.217   4.171  1.0297 -1.4465 -2.1759
 3989TIP3    H233603   2.102   3.097   4.256  0.0287 -0.1374 -0.6919
 3990TIP3   OH233604   0.399   5.252   3.719 -0.1109  0.7666 -0.1266
 3990TIP3    H133605   0.429   5.340   3.742  1.8804  1.2049 -3.6669
 3990TIP3    H233606   0.314   5.267   3.676 -1.0356  0.5903  1.5645
 3991TIP3   OH233607   2.860   4.897   0.627 -0.0646  0.3726 -0.1691
 3991TIP3    H133608   2.928   4.830   0.624 -0.2787  0.1700 -0.7886
 3991TIP3    H233609   2.779   4.847   0.642 -0.0353  0.6422  0.8886
 3992TIP3   OH233610   4.399   4.781   3.183 -0.8132 -0.3552  0.1074
 3992TIP3    H133611   4.381   4.800   3.275 -1.4275 -0.2062 -0.0389
 3992TIP3    H233612   4.468   4.843   3.159  0.2778 -1.2633  0.8108
 3993TIP3   OH233613   3.452   4.751   4.877  0.3453  0.3001  0.1301
 3993TIP3    H133614   3.430   4.707   4.960  0.1930 -1.2591 -0.7051
 3993TIP3    H233615   3.367   4.776   4.840  0.3809  0.4330  0.1366
 3994TIP3   OH233616   3.848   3.654   4.313 -0.2047 -0.2413  0.0791
 3994TIP3    H133617   3.840   3.745   4.283  2.0403 -0.0554 -0.1341
 3994TIP3    H233618   3.824   3.657   4.406 -0.8712  0.4164 -0.1028
 3995TIP3   OH233619   6.733   1.601   1.588  0.4236  0.8868 -0.1292
 3995TIP3    H133620   6.710   1.508   1.586  0.8448  0.7828 -2.1836
 3995TIP3    H233621   6.659   1.644   1.544 -0.2624  1.6919  1.7007
 3996TIP3   OH233622   5.985   3.367   4.340  0.2579  0.0362  0.1451
 3996TIP3    H133623   6.056   3.381   4.403 -0.9321  0.4660  1.4317
 3996TIP3    H233624   5.979   3.272   4.331  0.7090 -0.0131  0.3353
 3997TIP3   OH233625   0.745   1.365   4.358 -0.1348  0.1878 -0.2404
 3997TIP3    H133626   0.674   1.406   4.407  0.3563 -0.0056  0.6563
 3997TIP3    H233627   0.818   1.361   4.420  0.1498 -1.1074 -0.6302
 3998TIP3   OH233628   4.239   0.810   2.922 -0.2006 -0.6579  0.0199
 3998TIP3    H133629   4.276   0.773   3.003 -1.4632 -2.1637 -0.0499
 3998TIP3    H233630   4.202   0.894   2.949  2.7025  0.6788  0.1900
 3999TIP3   OH233631   4.240   5.354   2.991  0.4917 -0.3344 -0.4267
 3999TIP3    H133632   4.149   5.328   2.977  0.7234 -1.1526 -0.4555
 3999TIP3    H233633   4.269   5.387   2.906  0.6104 -1.2937 -0.7688
 4000TIP3   OH233634   2.819   0.105   4.632 -0.2072  0.2082 -0.4108
 4000TIP3    H133635   2.833   0.165   4.706 -2.0966  0.7001 -0.3961
 4000TIP3    H233636   2.727   0.117   4.609  0.1567 -0.4583 -2.4153
 4001TIP3   OH233637   6.612   3.713   5.115  0.2243 -0.1002 -0.2306
 4001TIP3    H133638   6.630   3.799   5.151 -0.2608 -0.3580  0.6574
 4001TIP3    H233639   6.550   3.674   5.176  1.4512 -1.5989  0.1275
 4002TIP3   OH233640   3.520   0.087   3.417 -0.6324 -0.5523 -0.1859
 4002TIP3    H133641   3.563   0.113   3.499 -0.0063  1.0431 -0.9901
 4002TIP3    H233642   3.546  -0.005   3.405 -1.2137 -1.0191  1.6790
 4003TIP3   OH233643   6.416   6.703   1.163 -0.2251  0.4196  1.0629
 4003TIP3    H133644   6.462   6.639   1.218 -0.5789 -0.5929  0.2245
 4003TIP3    H233645   6.418   6.784   1.214  1.8479  0.2328  1.3753
 4004TIP3   OH233646   5.618   2.529   4.924  0.6403 -0.3068  0.3127
 4004TIP3    H133647   5.681   2.478   4.974 -0.3405 -0.4386  1.4620
 4004TIP3    H233648   5.533   2.501   4.957 -0.0153  0.2530 -0.8232
 4005TIP3   OH233649   1.263   3.437   1.902  0.2090  0.2545  0.0480
 4005TIP3    H133650   1.336   3.450   1.963  2.0023  0.4281 -2.0131
 4005TIP3    H233651   1.264   3.344   1.882 -1.0668  0.0024  1.0669
 4006TIP3   OH233652   6.734   3.831   2.711 -0.0995  0.0965  0.0354
 4006TIP3    H133653   6.654   3.811   2.760  0.0153  0.5861  0.4330
 4006TIP3    H233654   6.737   3.766   2.641  0.7674 -1.9176  1.8486
 4007TIP3   OH233655   5.326   3.923   3.955  0.0273  0.0248 -0.4917
 4007TIP3    H133656   5.290   3.844   3.914  1.1756 -0.2502 -1.0107
 4007TIP3    H233657   5.276   3.933   4.036  1.2717 -2.4872  0.6755
 4008TIP3   OH233658   3.293   5.279   2.988 -0.3911  0.6630  0.2159
 4008TIP3    H133659   3.350   5.283   3.065 -2.0905  1.2146  1.5054
 4008TIP3    H233660   3.246   5.362   2.988 -2.2339 -0.3089  0.0708
 4009TIP3   OH233661   2.218   1.498   4.675  0.1345 -0.3416 -0.0962
 4009TIP3    H133662   2.125   1.488   4.696 -0.1812 -1.7456 -1.8938
 4009TIP3    H233663   2.221   1.566   4.607  0.1394 -1.6387 -1.4570
 4010TIP3   OH233664   1.174   0.746   1.352 -0.0589  0.3646 -0.8082
 4010TIP3    H133665   1.188   0.661   1.393 -1.4095  0.5292  0.0353
 4010TIP3    H233666   1.131   0.725   1.269  0.3006  0.1947 -0.9575
 4011TIP3   OH233667   0.846   3.042   0.642 -0.5031  0.4355  0.0420
 4011TIP3    H133668   0.819   3.010   0.728 -0.0412  0.5981  0.2508
 4011TIP3    H233669   0.924   2.990   0.620 -1.3417 -0.4880 -0.8471
 4012TIP3   OH233670   4.673   1.491   2.892 -0.0439  0.1110  0.4871
 4012TIP3    H133671   4.746   1.525   2.841  0.8275 -0.0320  1.6076
 4012TIP3    H233672   4.656   1.558   2.959  0.6359 -0.8809  1.7023
 4013TIP3   OH233673   6.132   1.058   5.054  0.1155  0.3648 -0.7044
 4013TIP3    H133674   6.198   1.075   4.987  0.8153  0.3859 -0.0149
 4013TIP3    H233675   6.055   1.107   5.024  1.0222  1.9751 -0.5133
 4014TIP3   OH233676   6.746   5.148   3.904  0.1036  0.3447 -0.1456
 4014TIP3    H133677   6.704   5.227   3.868 -1.6769 -0.3762  0.2401
 4014TIP3    H233678   6.674   5.086   3.915  1.5592 -1.6266 -1.1475
 4015TIP3   OH233679   4.142   0.740   1.241  0.3560  0.2162  0.0428
 4015TIP3    H133680   4.156   0.762   1.333  0.3113 -1.1409  0.3924
 4015TIP3    H233681   4.200   0.799   1.193  0.7347  0.6136  0.9668
 4016TIP3   OH233682   0.902   0.030   4.420 -0.3987  0.2735 -0.2602
 4016TIP3    H133683   0.891   0.124   4.401  0.8614  0.7450  1.1527
 4016TIP3    H233684   0.866   0.019   4.508  0.1475 -0.4163 -0.1193
 4017TIP3   OH233685   1.152   2.647   3.193  0.1269 -0.2911  0.0510
 4017TIP3    H133686   1.129   2.566   3.148  0.3335  0.4378 -1.4120
 4017TIP3    H233687   1.074   2.669   3.244  0.1550 -1.5124  0.6514
 4018TIP3   OH233688   1.754   2.901   2.490  0.2922  0.3334  0.6968
 4018TIP3    H133689   1.702   2.834   2.445  2.6331 -1.1714  0.0815
 4018TIP3    H233690   1.754   2.873   2.582 -0.3405  0.6126  0.7890
 4019TIP3   OH233691   3.834   5.510   1.073 -0.0547  0.0529 -0.1647
 4019TIP3    H133692   3.742   5.526   1.054 -0.7128  0.9215  3.1092
 4019TIP3    H233693   3.851   5.558   1.154  3.7262  1.1303 -1.3797
 4020TIP3   OH233694   5.484   1.923   1.541  0.2091 -0.0483 -0.3508
 4020TIP3    H133695   5.415   1.989   1.535 -0.2719 -0.4950  0.0554
 4020TIP3    H233696   5.447   1.856   1.598  1.5326  0.3875  1.1116
 4021TIP3   OH233697   1.750   5.952   1.251  0.0392  0.1829  0.4564
 4021TIP3    H133698   1.702   6.035   1.253  0.1807  0.2679  0.4058
 4021TIP3    H233699   1.693   5.890   1.295  0.5359  0.6286  1.7750
 4022TIP3   OH233700   5.500   4.453   4.739  0.3731 -0.0218 -0.1675
 4022TIP3    H133701   5.510   4.463   4.834 -0.9601 -1.6391  0.2001
 4022TIP3    H233702   5.588   4.435   4.707  0.7315 -0.1796  0.8697
 4023TIP3   OH233703   1.425   5.777   4.559  0.0189 -0.2908  0.2266
 4023TIP3    H133704   1.450   5.846   4.622  1.4777 -1.4412  0.9858
 4023TIP3    H233705   1.421   5.698   4.612 -0.2597 -1.0315 -0.8832
 4024TIP3   OH233706   3.985   3.558   4.743 -0.4843  0.3917 -0.4814
 4024TIP3    H133707   4.011   3.627   4.804  0.1605 -0.1972 -0.0746
 4024TIP3    H233708   3.903   3.589   4.704 -0.6031  1.0243  0.2630
 4025TIP3   OH233709   1.701   0.862   4.020  0.1848 -0.9991 -0.1761
 4025TIP3    H133710   1.638   0.931   4.041  1.1768  0.3587 -1.4655
 4025TIP3    H233711   1.784   0.893   4.057  0.5834 -1.5975 -0.5505
 4026TIP3   OH233712   4.557   5.953   4.673  0.1126  0.1466  0.0503
 4026TIP3    H133713   4.620   6.026   4.669  1.2239 -0.8206 -1.6237
 4026TIP3    H233714   4.501   5.966   4.596 -0.2401 -0.3029  0.2284
 4027TIP3   OH233715   5.067   4.703   4.190  0.6840  0.6079  0.7168
 4027TIP3    H133716   4.986   4.670   4.150  0.1161 -0.3499  2.5342
 4027TIP3    H233717   5.135   4.642   4.162  0.5115  0.5819  0.3468
 4028TIP3   OH233718   1.027   4.792   4.408  0.0128  0.6900 -0.1709
 4028TIP3    H133719   0.940   4.830   4.420  0.7353  2.6368 -0.7941
 4028TIP3    H233720   1.087   4.864   4.421  1.5209 -0.4693 -0.4348
 4029TIP3   OH233721   5.087   4.080   4.607  0.0299  0.1916 -0.3378
 4029TIP3    H133722   5.176   4.097   4.576 -0.2336  0.2374 -1.0811
 4029TIP3    H233723   5.063   4.159   4.656  1.0342 -0.5190  1.3872
 4030TIP3   OH233724   1.815   0.908   2.513  0.1355  0.1341 -0.0431
 4030TIP3    H133725   1.774   0.919   2.599 -1.4048 -0.5623 -0.6508
 4030TIP3    H233726   1.895   0.859   2.531 -0.9016 -1.3285  0.8768
 4031TIP3   OH233727   2.943   5.749   4.627 -0.4136 -0.2423  0.1866
 4031TIP3    H133728   2.901   5.666   4.649 -1.9042  0.5658  0.5273
 4031TIP3    H233729   2.889   5.816   4.669  0.8245  0.9063  0.0353
 4032TIP3   OH233730   0.072   3.136   2.726  0.3210  0.1406 -0.2102
 4032TIP3    H133731   0.165   3.119   2.740  0.4628  1.1945  0.2202
 4032TIP3    H233732   0.068   3.228   2.702 -0.4334 -0.3314 -2.1354
 4033TIP3   OH233733   2.468   4.863   3.729 -0.3389 -0.0717 -0.0685
 4033TIP3    H133734   2.429   4.826   3.808  0.0037 -1.0257 -0.3339
 4033TIP3    H233735   2.562   4.869   3.749 -0.6241  3.0991  0.9274
 4034TIP3   OH233736   3.803   2.218   0.510  0.1930 -0.3906  0.4874
 4034TIP3    H133737   3.856   2.296   0.494  1.3478 -1.5121 -1.4601
 4034TIP3    H233738   3.727   2.250   0.560 -0.3503  2.3232 -1.8277
 4035TIP3   OH233739   2.985   3.011   2.653 -0.2263 -0.5538  0.5379
 4035TIP3    H133740   2.953   3.100   2.641 -0.7698 -0.9702 -1.5173
 4035TIP3    H233741   3.071   3.021   2.693 -0.1254  0.9191 -0.0032
 4036TIP3   OH233742   3.676   4.016   3.163 -0.2495 -0.2995  0.7757
 4036TIP3    H133743   3.765   4.000   3.196  0.3471  0.3279 -0.4847
 4036TIP3    H233744   3.620   3.965   3.222  0.8306  0.1772  2.2849
 4037TIP3   OH233745   0.309   6.136   4.285  0.4181  0.3757  0.8131
 4037TIP3    H133746   0.232   6.171   4.240  0.4240  0.0580  0.5506
 4037TIP3    H233747   0.356   6.087   4.217  0.6662  0.2752  1.0576
 4038TIP3   OH233748   2.050   0.572   1.064 -0.1127 -0.0838  0.2724
 4038TIP3    H133749   1.958   0.565   1.090 -0.5037  0.1203 -0.9753
 4038TIP3    H233750   2.049   0.550   0.970  1.0312  0.4439  0.1324
 4039TIP3   OH233751   3.488   2.073   4.442 -0.1898  0.0191 -0.0738
 4039TIP3    H133752   3.564   2.105   4.394  0.9367 -1.5587  0.5524
 4039TIP3    H233753   3.437   2.151   4.464  1.9635  1.2837  0.6770
 4040TIP3   OH233754   2.536   4.107   3.300  0.2234  0.0284  0.5146
 4040TIP3    H133755   2.497   4.187   3.262 -0.2389  0.0499  1.0205
 4040TIP3    H233756   2.615   4.138   3.343  0.1496  0.1834  0.5416
 4041TIP3   OH233757   0.649   0.103   1.367 -0.1565 -0.0951  0.0427
 4041TIP3    H133758   0.635   0.035   1.301  2.2935 -0.7900  0.1481
 4041TIP3    H233759   0.708   0.166   1.325 -0.3304  0.6014  0.8231
 4042TIP3   OH233760   3.329   6.579   1.212  0.2179  0.0188  0.1200
 4042TIP3    H133761   3.425   6.577   1.208  0.2326 -0.5877  0.4956
 4042TIP3    H233762   3.302   6.635   1.140  0.7816 -1.3639 -1.2244
 4043TIP3   OH233763   0.823   4.299   1.411 -0.7899  0.0182  0.0971
 4043TIP3    H133764   0.909   4.320   1.376  0.1195 -1.3647  1.3752
 4043TIP3    H233765   0.789   4.382   1.443 -0.6966  0.8966 -1.9203
 4044TIP3   OH233766   3.926   2.125   3.830 -0.6574  0.2215 -0.0901
 4044TIP3    H133767   3.914   2.035   3.802 -0.7261  0.5037 -0.9946
 4044TIP3    H233768   3.939   2.175   3.749 -1.1722  1.1048  0.3492
 4045TIP3   OH233769   2.290   0.555   2.859  0.2363  0.0162  0.3276
 4045TIP3    H133770   2.374   0.537   2.818  0.3900 -0.5491  0.8752
 4045TIP3    H233771   2.309   0.619   2.928  0.5875 -1.5783  1.7744
 4046TIP3   OH233772   0.287   0.709   4.534 -0.4310 -0.3929  0.3389
 4046TIP3    H133773   0.308   0.760   4.456 -0.7567  0.8979  1.0659
 4046TIP3    H233774   0.289   0.618   4.504 -0.4921  0.0624 -1.1512
 4047TIP3   OH233775   1.611   5.432   2.726 -0.3489 -0.0745  0.3689
 4047TIP3    H133776   1.687   5.379   2.703 -0.3809  0.6928 -1.7156
 4047TIP3    H233777   1.563   5.379   2.790 -0.1500 -2.3646 -1.2617
 4048TIP3   OH233778   1.407   5.446   3.953 -0.0629 -0.0239  0.2582
 4048TIP3    H133779   1.395   5.534   3.987 -3.2631 -0.6642  1.1295
 4048TIP3    H233780   1.500   5.441   3.930  0.8990  2.5516  3.0149
 4049TIP3   OH233781   0.856   4.024   0.040  0.1001 -0.0015 -0.0291
 4049TIP3    H133782   0.936   4.074   0.057  0.4620 -0.7579  0.5343
 4049TIP3    H233783   0.842   3.973   0.119 -0.3846 -0.6334 -0.5119
 4050TIP3   OH233784   5.834   0.214   3.068 -0.1798  0.1196 -0.0590
 4050TIP3    H133785   5.845   0.123   3.096  0.6447 -0.1269 -1.1453
 4050TIP3    H233786   5.739   0.223   3.055 -0.3573 -0.3336  0.8381
 4051TIP3   OH233787   3.642   6.577   1.486  0.0346  0.2659  0.0432
 4051TIP3    H133788   3.598   6.653   1.523  1.3976  1.6006 -0.9428
 4051TIP3    H233789   3.734   6.588   1.512  0.9731  1.0021 -3.1225
 4052TIP3   OH233790   4.935   5.490   1.161 -0.0018 -0.4620  0.4142
 4052TIP3    H133791   4.955   5.583   1.175  1.6635 -0.7024 -0.1373
 4052TIP3    H233792   4.843   5.481   1.185  0.0454  1.1530  1.3171
 4053TIP3   OH233793   1.100   4.940   1.660 -0.0665 -0.2326 -0.2570
 4053TIP3    H133794   1.027   4.879   1.648  0.7300 -1.2377 -0.1281
 4053TIP3    H233795   1.178   4.885   1.653  0.7036  0.8971 -0.8455
 4054TIP3   OH233796   6.233   1.945   4.459  0.3880  0.0087 -0.0592
 4054TIP3    H133797   6.239   1.947   4.554  0.3596 -2.1210  0.0345
 4054TIP3    H233798   6.301   1.883   4.431 -0.4164 -0.3528 -1.3180
 4055TIP3   OH233799   2.609   0.890   3.008  0.0672  0.6035 -0.3690
 4055TIP3    H133800   2.655   0.924   3.085  0.3942 -0.1107 -0.2436
 4055TIP3    H233801   2.673   0.833   2.965 -0.3717  0.3884 -0.7457
 4056TIP3   OH233802   2.083   3.941   3.841 -0.0832 -0.4323  0.1320
 4056TIP3    H133803   2.150   3.971   3.902  0.0142 -0.6055  0.1126
 4056TIP3    H233804   2.119   3.861   3.803 -0.8138 -1.2019  1.0186
 4057TIP3   OH233805   5.723   5.287   2.069 -0.0240 -0.2033  0.6343
 4057TIP3    H133806   5.728   5.335   1.986 -0.2089 -0.8154  0.2621
 4057TIP3    H233807   5.813   5.261   2.087 -0.2711 -2.3566 -0.7689
 4058TIP3   OH233808   3.761   2.306   2.351  0.0051 -0.1587  0.1288
 4058TIP3    H133809   3.673   2.287   2.383  0.3484 -0.5719  0.8578
 4058TIP3    H233810   3.795   2.372   2.413  0.4181 -0.4401  0.2094
 4059TIP3   OH233811   1.176   3.796   0.174  0.1467 -0.0328  0.1513
 4059TIP3    H133812   1.101   3.766   0.122 -2.0674  0.3522  2.8763
 4059TIP3    H233813   1.251   3.750   0.137 -1.8575 -2.7690 -0.8781
 4060TIP3   OH233814   3.510   4.069   4.435  0.2781 -0.1832  0.5325
 4060TIP3    H133815   3.519   4.023   4.351 -0.9643 -1.3475  0.9855
 4060TIP3    H233816   3.515   4.162   4.412  0.4984 -0.4855 -0.7529
 4061TIP3   OH233817   6.186   5.988   4.646  0.5827  0.2665 -0.0598
 4061TIP3    H133818   6.261   5.932   4.667  0.2198  0.3058  1.4892
 4061TIP3    H233819   6.110   5.937   4.673  0.1990  1.1539  0.6042
 4062TIP3   OH233820   2.663   4.543   1.758 -0.3282  0.5396  0.2321
 4062TIP3    H133821   2.675   4.594   1.838  0.6779  0.9074 -0.1322
 4062TIP3    H233822   2.692   4.602   1.688 -1.8585  0.4791 -0.4835
 4063TIP3   OH233823   4.886   2.938   5.001 -0.0082 -0.7147 -0.4262
 4063TIP3    H133824   4.826   2.918   4.929 -1.7076  0.1740  0.6801
 4063TIP3    H233825   4.837   2.915   5.080  2.6764 -4.0497  0.5346
 4064TIP3   OH233826   4.959   3.067   1.074 -0.1544 -0.4556  0.3133
 4064TIP3    H133827   4.921   3.088   0.988  0.8740  3.0491  0.5585
 4064TIP3    H233828   5.048   3.038   1.054 -0.4278 -1.2333  0.1636
 4065TIP3   OH233829   5.858   3.049   2.756 -0.1527 -0.6110 -0.2114
 4065TIP3    H133830   5.766   3.050   2.781  0.3806  1.3677  1.9788
 4065TIP3    H233831   5.862   3.101   2.676 -0.9689 -1.0166 -0.5264
 4066TIP3   OH233832   6.046   4.763   4.538 -0.5049 -0.5742  0.2396
 4066TIP3    H133833   5.971   4.704   4.540 -0.8103 -0.1767  0.6276
 4066TIP3    H233834   6.100   4.731   4.465 -2.4883  0.9317 -2.0180
 4067TIP3   OH233835   5.583   3.947   4.191 -0.4641  0.3610  0.1045
 4067TIP3    H133836   5.493   3.979   4.182 -0.0815  1.1459 -1.3871
 4067TIP3    H233837   5.577   3.853   4.176 -1.1753  0.2311  1.1422
 4068TIP3   OH233838   2.024   5.480   1.988  0.2941  0.5998 -0.0648
 4068TIP3    H133839   2.015   5.542   1.916  0.2980  0.8837  0.1783
 4068TIP3    H233840   1.948   5.495   2.043 -0.7552 -0.9362 -0.9913
 4069TIP3   OH233841   2.939   6.701   4.920 -0.3703  0.9155 -0.0848
 4069TIP3    H133842   2.903   6.741   4.999  3.1558 -0.7019  2.6042
 4069TIP3    H233843   2.997   6.767   4.884  0.7212  0.4700  0.7968
 4070TIP3   OH233844   4.699   6.506   3.030 -0.2867  0.4425 -0.2340
 4070TIP3    H133845   4.718   6.428   2.978  0.3612 -0.1068  0.8095
 4070TIP3    H233846   4.698   6.476   3.121  2.1734  1.9946  0.4105
 4071TIP3   OH233847   1.384   0.925   1.280 -0.3486  0.0085 -0.1872
 4071TIP3    H133848   1.291   0.910   1.297 -0.7521  0.0594 -2.1094
 4071TIP3    H233849   1.424   0.838   1.289 -0.6797 -0.1198  0.0613
 4072TIP3   OH233850   1.420   1.922   4.611 -0.2105 -0.1692 -0.8750
 4072TIP3    H133851   1.489   1.903   4.675 -0.9306  0.7252  0.1991
 4072TIP3    H233852   1.380   2.003   4.642 -1.5371 -0.4943 -1.6554
 4073TIP3   OH233853   4.768   5.830   4.994 -0.4711  0.0070  0.4350
 4073TIP3    H133854   4.861   5.835   4.970 -0.2223 -2.1531  0.7612
 4073TIP3    H233855   4.752   5.737   5.008 -2.8633  0.2513 -0.2237
 4074TIP3   OH233856   5.694   0.217   2.658  0.3530 -0.4390 -0.2962
 4074TIP3    H133857   5.606   0.205   2.623 -0.4533  0.5569  1.2593
 4074TIP3    H233858   5.701   0.153   2.728  1.3766 -1.3882 -1.2351
 4075TIP3   OH233859   0.282   1.071   2.127 -0.4170  0.2479 -0.6255
 4075TIP3    H133860   0.339   1.011   2.079  1.7313  0.4117  1.5638
 4075TIP3    H233861   0.258   1.138   2.062  1.6827  0.0261 -1.7217
 4076TIP3   OH233862   6.461   1.391   3.525  0.0666  0.3527  0.5608
 4076TIP3    H133863   6.367   1.399   3.511  0.3336 -0.3222 -1.9887
 4076TIP3    H233864   6.485   1.310   3.481  1.6541 -0.2438  2.4000
 4077TIP3   OH233865   4.963   4.433   2.290  0.0335  0.0195 -0.0948
 4077TIP3    H133866   5.046   4.407   2.251 -0.7867 -1.4668 -0.9404
 4077TIP3    H233867   4.968   4.402   2.381  0.6200  0.4560  0.0261
 4078TIP3   OH233868   4.968   6.366   5.349  0.2538 -0.0581  0.1812
 4078TIP3    H133869   5.011   6.446   5.378  0.2880  0.1219 -0.3691
 4078TIP3    H233870   5.035   6.317   5.302  0.5372 -0.9106  1.3986
 4079TIP3   OH233871   0.707   6.729   3.807  0.1269  0.2793 -0.4119
 4079TIP3    H133872   0.755   6.803   3.843 -0.5562  0.9867 -0.9337
 4079TIP3    H233873   0.674   6.682   3.884 -0.3517  1.1300 -0.0883
 4080TIP3   OH233874   2.461   1.871   2.255  0.0241 -0.6619 -0.1644
 4080TIP3    H133875   2.442   1.876   2.161  0.6662  1.2756 -0.2399
 4080TIP3    H233876   2.549   1.834   2.260  0.7056  0.8385 -0.4639
 4081TIP3   OH233877   2.744   5.057   1.655 -0.2354 -0.4199  0.0784
 4081TIP3    H133878   2.670   5.068   1.595 -1.1616 -1.5548  0.9661
 4081TIP3    H233879   2.740   5.134   1.712 -1.0793 -0.7385  0.4668
 4082TIP3   OH233880   6.692   4.120   4.679  0.3292  0.6028  0.6217
 4082TIP3    H133881   6.656   4.096   4.765 -1.3785  1.6693  0.2587
 4082TIP3    H233882   6.739   4.202   4.696  0.7109  0.3650  0.7009
 4083TIP3   OH233883   2.532   5.499   0.901  0.5471  0.4165 -0.5807
 4083TIP3    H133884   2.622   5.490   0.870  0.7910 -0.4232  0.3184
 4083TIP3    H233885   2.540   5.518   0.995 -0.2125 -2.2554  0.1106
 4084TIP3   OH233886   2.634   1.379   2.379 -0.6054 -0.4100 -0.0128
 4084TIP3    H133887   2.598   1.414   2.297  0.3053  0.4692 -0.0614
 4084TIP3    H233888   2.667   1.456   2.425 -0.2689 -1.0063  0.7647
 4085TIP3   OH233889   1.935   5.042   4.052 -0.5387 -0.3486  0.3880
 4085TIP3    H133890   1.915   5.135   4.040 -0.3685 -0.2222  1.0701
 4085TIP3    H233891   1.919   5.003   3.966 -0.3869  0.3486  0.0394
 4086TIP3   OH233892   3.715   1.981   1.244  0.2235 -0.5170  0.1073
 4086TIP3    H133893   3.678   2.009   1.328  0.7943  0.0098  0.1929
 4086TIP3    H233894   3.769   1.906   1.266  2.9621  1.4864  0.8079
 4087TIP3   OH233895   3.524   0.592   2.137  0.1876  0.0081 -0.5626
 4087TIP3    H133896   3.517   0.677   2.092 -1.5590  1.2532  1.8535
 4087TIP3    H233897   3.616   0.587   2.163  0.2647  1.3506 -0.4734
 4088TIP3   OH233898   3.832   6.482   5.483  0.9270 -0.5360 -0.1004
 4088TIP3    H133899   3.744   6.460   5.514  0.8307  0.4824  0.3903
 4088TIP3    H233900   3.837   6.443   5.395 -0.0480 -0.5344 -0.1682
 4089TIP3   OH233901   0.076   3.992   0.462  0.1089  0.2328 -0.6253
 4089TIP3    H133902   0.120   3.933   0.400  1.3685 -1.2571  1.5369
 4089TIP3    H233903  -0.001   3.943   0.491  0.6408 -0.0028  0.4585
 4090TIP3   OH233904   6.044   2.657   2.370  0.1058  0.2958 -0.4491
 4090TIP3    H133905   6.103   2.674   2.444  0.7592 -0.0915 -0.8726
 4090TIP3    H233906   6.087   2.697   2.295  0.9744 -1.8808 -1.1925
 4091TIP3   OH233907   3.302   4.114   0.967  0.0756 -0.5702  0.6247
 4091TIP3    H133908   3.347   4.123   0.883 -0.4991  1.4316  0.4892
 4091TIP3    H233909   3.349   4.173   1.026 -0.5911 -0.6449  1.2468
 4092TIP3   OH233910   4.885   3.647   4.359 -0.4535  0.1585  0.2197
 4092TIP3    H133911   4.964   3.681   4.317  0.5532 -0.0841  1.8225
 4092TIP3    H233912   4.867   3.565   4.314 -1.0571  1.2184 -1.5658
 4093TIP3   OH233913   5.156   1.117   2.847 -0.3728 -0.2296 -0.7267
 4093TIP3    H133914   5.188   1.036   2.808 -2.8170 -1.8041  0.2721
 4093TIP3    H233915   5.134   1.173   2.772 -0.7121 -1.3717 -1.5090
 4094TIP3   OH233916   3.304   4.874   0.526 -0.6417 -0.0447  0.8634
 4094TIP3    H133917   3.250   4.800   0.553 -1.7935 -0.3096 -1.7907
 4094TIP3    H233918   3.379   4.834   0.481 -0.7830  0.3561  0.2520
 4095TIP3   OH233919   1.435   0.946   2.221 -0.4655  0.1926 -0.0199
 4095TIP3    H133920   1.340   0.955   2.233 -0.4857 -0.1177  0.0607
 4095TIP3    H233921   1.469   0.929   2.309 -0.3308  0.3344 -0.0439
 4096TIP3   OH233922   0.537   2.539   2.468 -0.2089 -0.2855  0.1896
 4096TIP3    H133923   0.607   2.549   2.533 -0.4007 -1.1734  0.5349
 4096TIP3    H233924   0.460   2.513   2.518 -0.7361  0.4460 -0.2216
 4097TIP3   OH233925   2.616   1.154   3.903  0.2702 -0.0132 -0.0424
 4097TIP3    H133926   2.632   1.090   3.974  0.4708 -1.5674 -1.4216
 4097TIP3    H233927   2.665   1.231   3.930  1.3499 -0.9914  0.9518
 4098TIP3   OH233928   4.790   1.358   1.464 -0.8935  0.4245  0.3103
 4098TIP3    H133929   4.722   1.317   1.518 -0.1202 -2.8190 -0.9429
 4098TIP3    H233930   4.832   1.285   1.419  1.5592  2.5673 -1.1566
 4099TIP3   OH233931   5.861   6.000   4.484 -0.8076 -0.5428  0.2728
 4099TIP3    H133932   5.774   6.020   4.520  0.0797  2.5480  1.0479
 4099TIP3    H233933   5.862   6.042   4.398  0.9536  2.6932  1.7002
 4100TIP3   OH233934   0.673   6.044   0.815 -0.1871  0.0611 -0.4570
 4100TIP3    H133935   0.578   6.038   0.817 -0.0839 -2.4179 -0.0074
 4100TIP3    H233936   0.698   6.002   0.732  0.5368  0.9526 -0.7199
 4101TIP3   OH233937   4.506   5.608   5.669  0.0627  0.0436  0.3551
 4101TIP3    H133938   4.456   5.638   5.594  1.7723  1.4780 -0.3011
 4101TIP3    H233939   4.441   5.588   5.736 -1.4389 -0.2164 -1.1375
 4102TIP3   OH233940   4.490   3.722   2.756 -0.3140  0.1638 -0.2489
 4102TIP3    H133941   4.497   3.797   2.815 -1.3004 -0.5469  0.7958
 4102TIP3    H233942   4.581   3.695   2.741  0.0336  1.4010 -0.4371
 4103TIP3   OH233943   2.345   0.377   5.577 -0.0348 -0.1530 -0.0564
 4103TIP3    H133944   2.284   0.303   5.568 -0.8025  0.4521  0.0916
 4103TIP3    H233945   2.289   0.454   5.588  0.6322  0.8502 -2.7335
 4104TIP3   OH233946   6.316   1.615   1.315  0.1954 -0.9180 -0.2527
 4104TIP3    H133947   6.297   1.578   1.228 -0.4779 -0.3835 -0.3357
 4104TIP3    H233948   6.365   1.546   1.359  1.1179 -0.9498 -1.2864
 4105TIP3   OH233949   2.825   4.258   1.031 -0.0316 -1.0770  0.2806
 4105TIP3    H133950   2.776   4.186   0.991  0.8522 -1.3652 -0.3418
 4105TIP3    H233951   2.914   4.247   0.997  0.4843 -0.6292  1.4423
 4106TIP3   OH233952   2.230   5.231   3.821 -0.2311  0.3580  0.0001
 4106TIP3    H133953   2.164   5.177   3.777  1.6223 -1.6161 -0.5763
 4106TIP3    H233954   2.312   5.208   3.777  0.6443  4.2406 -0.7194
 4107TIP3   OH233955   6.654   5.965   1.549  0.0237  0.3181 -0.2063
 4107TIP3    H133956   6.649   5.932   1.460 -1.0565  2.3121 -0.9571
 4107TIP3    H233957   6.592   5.910   1.599 -0.8512  0.4298 -1.1389
 4108TIP3   OH233958   6.752   6.656   1.076 -0.0825 -0.5887 -0.4796
 4108TIP3    H133959   6.681   6.611   1.122  2.2067 -1.8978  2.0556
 4108TIP3    H233960   6.757   6.742   1.117  0.9150 -1.1761  0.7104
 4109TIP3   OH233961   2.794   0.320   5.693  0.3373 -0.0423 -0.2301
 4109TIP3    H133962   2.746   0.320   5.775  0.3484 -1.6020 -0.2033
 4109TIP3    H233963   2.880   0.285   5.714 -0.1737 -1.9779 -1.1502
 4110TIP3   OH233964   1.686   6.177   4.345 -0.1695  0.4386 -0.3676
 4110TIP3    H133965   1.643   6.260   4.325  0.1217  0.4484 -1.0014
 4110TIP3    H233966   1.700   6.178   4.439  3.0013  2.6839 -0.7301
 4111TIP3   OH233967   2.694   6.459   1.303  0.0246 -0.0253 -0.1619
 4111TIP3    H133968   2.735   6.396   1.243  0.8708 -0.2686  0.6568
 4111TIP3    H233969   2.766   6.497   1.352 -0.6145  0.5220  0.3761
 4112TIP3   OH233970   1.882   1.551   0.852 -0.4770  0.5971 -0.1886
 4112TIP3    H133971   1.868   1.458   0.834 -0.8470  0.3927  1.0297
 4112TIP3    H233972   1.903   1.590   0.767 -2.4553 -0.1915 -1.0845
 4113TIP3   OH233973   3.122   6.319   3.842  0.3167 -0.5319  0.0892
 4113TIP3    H133974   3.032   6.288   3.830  0.0858 -0.3812  1.2521
 4113TIP3    H233975   3.160   6.257   3.904  0.9939 -0.5447 -0.3336
 4114TIP3   OH233976   0.336   2.317   2.517 -0.1886 -0.4436 -0.6568
 4114TIP3    H133977   0.425   2.341   2.491  0.0668 -1.8003 -1.1110
 4114TIP3    H233978   0.348   2.255   2.589 -0.7200 -1.1831 -1.1810
 4115TIP3   OH233979   2.919   1.622   0.820 -0.3419  0.6620  0.2255
 4115TIP3    H133980   2.895   1.543   0.867  1.3789 -0.3364 -0.4808
 4115TIP3    H233981   2.851   1.632   0.753 -0.6326 -0.1441  0.3937
 4116TIP3   OH233982   0.581   0.269   2.996 -0.3342  0.4455  0.2652
 4116TIP3    H133983   0.516   0.281   3.065  0.2454  1.0259  0.7196
 4116TIP3    H233984   0.548   0.322   2.923 -1.2568 -0.6431 -0.1414
 4117TIP3   OH233985   0.506   3.334   5.270 -0.1960 -0.5772 -0.0539
 4117TIP3    H133986   0.595   3.309   5.294 -0.2205 -2.8034 -1.9233
 4117TIP3    H233987   0.454   3.318   5.349  0.8017 -0.7150  0.5908
 4118TIP3   OH233988   4.569   4.080   3.145 -0.7313 -0.0848 -0.1391
 4118TIP3    H133989   4.608   4.149   3.199 -2.2390 -0.2779  1.2480
 4118TIP3    H233990   4.477   4.079   3.169 -0.7428 -2.7036  0.0279
 4119TIP3   OH233991   0.946   6.150   2.867  0.1242  0.2129 -0.1172
 4119TIP3    H133992   1.021   6.139   2.925 -1.2022 -2.2951  1.3292
 4119TIP3    H233993   0.934   6.064   2.827 -2.1240  0.4232 -0.0503
 4120TIP3   OH233994   2.796   2.607   3.335  0.2302  0.0790  0.3199
 4120TIP3    H133995   2.721   2.646   3.290  0.6300  0.3589 -0.1126
 4120TIP3    H233996   2.767   2.595   3.425 -0.6616 -0.6774 -0.0478
 4121TIP3   OH233997   2.153   1.546   5.051 -0.8560 -0.2658  0.0328
 4121TIP3    H133998   2.061   1.538   5.027 -1.5723  1.6331  1.9257
 4121TIP3    H233999   2.173   1.464   5.096 -1.6591 -0.6196 -0.2281
 4122TIP3   OH234000   2.080   3.832   0.507  0.3226  0.1178  0.0042
 4122TIP3    H134001   2.002   3.778   0.520 -0.5949  1.3911  0.0619
 4122TIP3    H234002   2.054   3.919   0.538  1.2094  0.9854 -1.5422
 4123TIP3   OH234003   1.468   5.667   3.014 -0.2410 -0.4310  0.4427
 4123TIP3    H134004   1.454   5.574   3.031  2.7859 -1.5109 -1.9512
 4123TIP3    H234005   1.552   5.687   3.055 -0.3963  0.9915  0.1354
 4124TIP3   OH234006   6.110   1.895   3.742  0.0414  0.0070  0.0521
 4124TIP3    H134007   6.123   1.982   3.778 -0.7288  0.3002 -0.3512
 4124TIP3    H234008   6.062   1.847   3.810  0.0943  0.0293  0.1050
 4125TIP3   OH234009   3.104   0.005   2.844 -0.7265 -0.1496 -0.5029
 4125TIP3    H134010   3.121   0.051   2.762 -2.6779  1.0745 -0.2886
 4125TIP3    H234011   3.163   0.047   2.907 -0.2288 -0.1325 -0.9668
 4126TIP3   OH234012   1.998   3.077   2.504  0.1480  0.2090 -0.4542
 4126TIP3    H134013   1.957   2.991   2.494 -0.0403  0.1889  0.3529
 4126TIP3    H234014   2.074   3.075   2.446 -0.8659  0.1667 -1.8270
 4127TIP3   OH234015   4.412   4.546   4.971  0.1815  0.2868  0.1548
 4127TIP3    H134016   4.420   4.623   4.914 -1.8238  0.3357 -0.1355
 4127TIP3    H234017   4.465   4.567   5.048  0.4085  1.5552 -0.3295
 4128TIP3   OH234018   2.591   6.615   3.918 -0.3036 -0.1950 -0.1164
 4128TIP3    H134019   2.557   6.691   3.966 -1.6398 -0.1830 -1.0184
 4128TIP3    H234020   2.681   6.640   3.895 -0.6488  1.0629 -0.2263
 4129TIP3   OH234021   1.177   2.215   3.885  0.1443  0.2814  0.6264
 4129TIP3    H134022   1.122   2.137   3.893 -0.1867  0.4535  0.0454
 4129TIP3    H234023   1.254   2.185   3.837  0.3962  0.1309  1.1090
 4130TIP3   OH234024   0.748   5.911   4.465 -0.3109  0.5361 -0.5486
 4130TIP3    H134025   0.835   5.890   4.499 -1.8870 -1.5494  2.7072
 4130TIP3    H234026   0.749   5.881   4.375  2.2006  0.1682 -0.4588
 4131TIP3   OH234027   6.355   4.148   2.721 -0.3348 -0.0065 -0.1556
 4131TIP3    H134028   6.346   4.096   2.641 -0.5136 -1.2397  0.6328
 4131TIP3    H234029   6.274   4.133   2.769 -0.5841  1.3935 -0.1088
 4132TIP3   OH234030   5.152   1.739   2.155  0.0985  0.0789  0.0280
 4132TIP3    H134031   5.247   1.751   2.149  0.1138  0.6956  1.1576
 4132TIP3    H234032   5.140   1.688   2.235 -0.4095 -1.9087 -1.2461
 4133TIP3   OH234033   2.786   3.780   0.685 -0.0917  0.1681 -0.0712
 4133TIP3    H134034   2.851   3.840   0.720 -0.0794  0.0428  0.1245
 4133TIP3    H234035   2.758   3.819   0.603 -0.0951  0.4489  0.0635
 4134TIP3   OH234036   1.656   1.559   3.469  0.7035  0.0911 -0.6639
 4134TIP3    H134037   1.673   1.632   3.529  0.9568 -0.7446  0.3202
 4134TIP3    H234038   1.576   1.518   3.504  0.5431 -0.0774 -1.2217
 4135TIP3   OH234039   2.396   5.175   3.573  0.0991 -0.1421 -0.9134
 4135TIP3    H134040   2.420   5.083   3.584 -1.8184 -0.5676  0.2431
 4135TIP3    H234041   2.474   5.224   3.600  0.6218 -1.4295  0.0097
 4136TIP3   OH234042   1.651   6.316   4.775 -0.0424 -0.0744 -0.1326
 4136TIP3    H134043   1.647   6.346   4.684 -0.9702 -1.6645 -0.6721
 4136TIP3    H234044   1.607   6.384   4.825 -2.1663 -0.4897 -1.3098
 4137TIP3   OH234045   5.883   1.153   4.296  0.2048 -0.0640 -0.0393
 4137TIP3    H134046   5.898   1.100   4.218  0.2456 -0.3701  0.1745
 4137TIP3    H234047   5.939   1.113   4.363  2.0293  1.6188 -0.4617
 4138TIP3   OH234048   3.327   5.310   5.129  0.0047 -0.1898  0.0050
 4138TIP3    H134049   3.274   5.230   5.131  1.3149 -1.1196 -1.0021
 4138TIP3    H234050   3.279   5.368   5.070 -0.3686 -0.6842 -0.1941
 4139TIP3   OH234051   1.182   2.026   1.947 -0.3680 -0.0602  0.0652
 4139TIP3    H134052   1.170   2.117   1.922 -1.0417  0.0621  0.7963
 4139TIP3    H234053   1.096   1.986   1.934 -0.8290  0.0708  2.3524
 4140TIP3   OH234054   5.199   0.516   2.694  0.7818  0.1358 -0.0360
 4140TIP3    H134055   5.154   0.449   2.745 -0.2531 -0.0195 -1.1276
 4140TIP3    H234056   5.292   0.493   2.701  0.5574 -0.5817  0.7548
 4141TIP3   OH234057   3.827   1.724   1.071 -0.4960  0.2103 -1.0918
 4141TIP3    H134058   3.840   1.787   1.000 -1.8829  0.3925 -1.1969
 4141TIP3    H234059   3.908   1.731   1.122 -0.0495  1.0789 -1.8650
 4142TIP3   OH234060   6.347   4.593   4.805 -0.4756 -0.1575 -0.3882
 4142TIP3    H134061   6.310   4.679   4.782  0.0812 -0.3074 -1.9939
 4142TIP3    H234062   6.307   4.572   4.889 -2.2390  0.7524 -0.9329
 4143TIP3   OH234063   4.745   2.393   3.591  0.3405  0.1564 -0.5669
 4143TIP3    H134064   4.653   2.379   3.612  0.4626 -0.7180 -0.5720
 4143TIP3    H234065   4.746   2.408   3.497  0.1982  0.2245 -0.5574
 4144TIP3   OH234066   4.064   0.366   1.218 -0.3933  0.1860 -0.0112
 4144TIP3    H134067   4.143   0.381   1.166  1.1156 -1.6878  1.5568
 4144TIP3    H234068   4.027   0.284   1.183  0.3314 -0.7908  1.3955
 4145TIP3   OH234069   5.761   0.390   2.471 -0.0300 -0.5163 -0.3141
 4145TIP3    H134070   5.772   0.318   2.408  0.4679 -1.8937  1.2649
 4145TIP3    H234071   5.747   0.346   2.555  0.2634  1.2491  0.7012
 4146TIP3   OH234072   2.292   0.035   4.463  0.2505 -0.1297 -0.5872
 4146TIP3    H134073   2.318   0.103   4.402  1.1642  0.6573  0.6448
 4146TIP3    H234074   2.223   0.075   4.516  2.5763  0.8919  1.9199
 4147TIP3   OH234075   0.051   3.513   1.027  0.2933 -0.0962  0.0319
 4147TIP3    H134076  -0.039   3.493   1.001 -0.1316  0.5059  0.9857
 4147TIP3    H234077   0.073   3.593   0.980  0.6709 -0.7206 -0.8962
 4148TIP3   OH234078   3.508   3.084   2.241 -0.6477 -0.0510  0.4402
 4148TIP3    H134079   3.474   3.004   2.200  1.3883 -1.0704  0.6122
 4148TIP3    H234080   3.444   3.106   2.308 -1.8719 -0.8131 -0.4380
 4149TIP3   OH234081   4.083   5.968   3.577 -0.0910  0.1335 -0.4187
 4149TIP3    H134082   4.137   6.047   3.566 -0.1157  0.3351  0.7831
 4149TIP3    H234083   4.036   5.960   3.494 -0.5060  1.7170 -0.3805
 4150TIP3   OH234084   4.372   4.637   0.650 -0.3659 -0.0760  0.0452
 4150TIP3    H134085   4.463   4.664   0.637 -0.1872 -1.0757 -0.9816
 4150TIP3    H234086   4.332   4.709   0.699  0.8308  0.6351  0.0188
 4151TIP3   OH234087   4.799   4.233   3.006 -0.0600  0.2719  0.0621
 4151TIP3    H134088   4.810   4.160   2.945 -1.8809 -1.8758  2.0915
 4151TIP3    H234089   4.708   4.261   2.994 -0.8625 -1.0123  2.5021
 4152TIP3   OH234090   5.035   0.129   1.907 -0.2494  0.3305  0.7974
 4152TIP3    H134091   5.023   0.095   1.995  1.8954 -0.7251  0.7471
 4152TIP3    H234092   5.112   0.186   1.913  1.5338 -1.7206 -0.7914
 4153TIP3   OH234093   5.912   2.347   4.335  0.0155 -0.3610  0.6031
 4153TIP3    H134094   5.959   2.389   4.263 -0.3383  1.1797  1.2433
 4153TIP3    H234095   5.945   2.257   4.336  1.3034  0.0781 -0.3646
 4154TIP3   OH234096   4.360   3.161   2.313 -0.0776 -0.0358  0.5173
 4154TIP3    H134097   4.374   3.166   2.408  0.4140  3.4869  0.4185
 4154TIP3    H234098   4.407   3.082   2.286 -1.3903 -1.9338  3.2908
 4155TIP3   OH234099   1.628   2.973   1.386 -0.0990  0.4657  0.0557
 4155TIP3    H134100   1.562   2.906   1.402  0.6726 -0.3787 -0.2634
 4155TIP3    H234101   1.711   2.927   1.390  0.4802  1.4948  0.3192
 4156TIP3   OH234102   4.953   0.901   0.826 -0.7876 -0.0373  0.7743
 4156TIP3    H134103   5.034   0.942   0.858  0.4758 -0.7329 -1.3170
 4156TIP3    H234104   4.968   0.807   0.838 -1.0973 -0.1971 -0.0585
 4157TIP3   OH234105   2.188   3.710   3.740 -0.0986 -0.2980 -0.0524
 4157TIP3    H134106   2.219   3.714   3.650 -0.1316 -0.4271 -0.0693
 4157TIP3    H234107   2.129   3.635   3.742 -0.0291 -0.3482  0.0984
 4158TIP3   OH234108   4.195   1.630   1.576  0.0948  0.1844 -0.0121
 4158TIP3    H134109   4.223   1.563   1.639  1.1956 -0.1873 -0.8530
 4158TIP3    H234110   4.101   1.618   1.568 -0.2256  0.8145  2.2077
 4159TIP3   OH234111   6.623   3.485   2.669 -0.2850  0.0704  0.0692
 4159TIP3    H134112   6.669   3.515   2.747 -1.7585  0.2152  0.9177
 4159TIP3    H234113   6.637   3.390   2.669 -0.7669 -0.0154  0.8724
 4160TIP3   OH234114   6.668   6.352   3.443 -0.4232  0.1353  0.0162
 4160TIP3    H134115   6.674   6.349   3.348  2.5533 -1.3739  0.1334
 4160TIP3    H234116   6.715   6.431   3.468 -1.1803  0.5168  0.2644
 4161TIP3   OH234117   4.283   2.050   4.427  0.2064  0.1668  0.0768
 4161TIP3    H134118   4.225   2.110   4.475 -1.0425 -0.8970 -0.0474
 4161TIP3    H234119   4.244   1.963   4.440  0.9705 -0.4031 -1.2218
 4162TIP3   OH234120   5.452   4.754   1.490 -0.1189  0.0870  0.1399
 4162TIP3    H134121   5.515   4.776   1.421 -0.0036  0.6299  0.4217
 4162TIP3    H234122   5.393   4.691   1.448  0.8905 -0.8032  0.0197
 4163TIP3   OH234123   2.821   1.394   0.926 -0.3660  0.1914  0.2240
 4163TIP3    H134124   2.797   1.331   0.859  0.0812  0.6373 -0.3602
 4163TIP3    H234125   2.741   1.406   0.977 -0.1889 -1.6536  1.0351
 4164TIP3   OH234126   6.605   2.395   1.092 -0.2919  0.0865  0.7115
 4164TIP3    H134127   6.547   2.377   1.018  0.2484 -3.2476  0.9562
 4164TIP3    H234128   6.572   2.339   1.162  0.9426  1.0139  2.0844
 4165TIP3   OH234129   5.058   5.996   5.360 -0.6577  0.2319  0.7656
 4165TIP3    H134130   4.992   6.062   5.383  0.1060  1.2677  0.0847
 4165TIP3    H234131   5.123   6.003   5.431  1.0003  2.4633 -0.8220
 4166TIP3   OH234132   2.000   5.672   1.119  0.0167  0.3291  0.6437
 4166TIP3    H134133   2.064   5.669   1.048 -0.4461  2.9790  0.0147
 4166TIP3    H234134   2.008   5.760   1.155  0.6482 -1.0491  4.3499
 4167TIP3   OH234135   5.527   1.240   0.872 -0.6804  0.3265 -0.1114
 4167TIP3    H134136   5.550   1.323   0.829  1.7064 -2.0427 -3.9407
 4167TIP3    H234137   5.456   1.205   0.819 -0.9177 -0.6329  0.8093
 4168TIP3   OH234138   0.174   2.927   1.503 -0.1667 -0.5911 -0.4994
 4168TIP3    H134139   0.118   2.894   1.432 -1.1837 -1.5699  0.7108
 4168TIP3    H234140   0.262   2.928   1.465 -0.9604  1.0701 -2.4847
 4169TIP3   OH234141   6.252   5.392   3.403  0.9374 -0.4449  0.3102
 4169TIP3    H134142   6.286   5.365   3.488  3.8249  1.4278 -0.1207
 4169TIP3    H234143   6.242   5.487   3.409 -2.4409 -0.6092 -0.3547
 4170TIP3   OH234144   6.407   6.110   3.274 -0.3910 -0.2595 -0.0144
 4170TIP3    H134145   6.366   6.184   3.228 -1.3719 -0.4936  0.4562
 4170TIP3    H234146   6.358   6.034   3.244  0.8680 -0.7853 -0.7904
 4171TIP3   OH234147   3.130   3.334   3.875  0.3559  0.3304 -0.1657
 4171TIP3    H134148   3.190   3.260   3.865  0.3114  0.5877 -2.7900
 4171TIP3    H234149   3.051   3.308   3.827 -0.7197  1.0373  1.1328
 4172TIP3   OH234150   2.927   4.384   3.728 -0.2810 -0.0439 -0.9133
 4172TIP3    H134151   2.860   4.394   3.796 -1.7406 -0.8163 -2.1676
 4172TIP3    H234152   3.007   4.363   3.776 -1.5511 -1.9149  0.5504
 4173TIP3   OH234153   1.332   5.941   5.212  0.4823  0.2468 -0.0151
 4173TIP3    H134154   1.319   5.883   5.287  0.0035 -1.7082 -1.5399
 4173TIP3    H234155   1.402   6.001   5.240  1.3925 -1.4091  1.4255
 4174TIP3   OH234156   1.179   4.611   1.127  0.3672 -0.0357  0.1101
 4174TIP3    H134157   1.240   4.639   1.059  1.0177  0.5726  0.9243
 4174TIP3    H234158   1.150   4.692   1.169 -0.1327 -0.3920  0.4669
 4175TIP3   OH234159   4.206   4.346   2.868 -0.3246 -0.1378  0.0148
 4175TIP3    H134160   4.194   4.330   2.774  1.5877  0.2322 -0.3275
 4175TIP3    H234161   4.269   4.418   2.873 -0.2524 -0.2706  1.5824
 4176TIP3   OH234162   5.588   2.487   3.664 -0.7210  0.3838  0.2908
 4176TIP3    H134163   5.592   2.518   3.574 -0.1682  0.7582  0.4393
 4176TIP3    H234164   5.675   2.450   3.681 -0.6332  0.8170  0.8412
 4177TIP3   OH234165   3.144   0.929   1.520  0.6294 -0.3381 -0.2306
 4177TIP3    H134166   3.182   0.841   1.510  0.4597 -0.3911 -0.4009
 4177TIP3    H234167   3.050   0.915   1.524  0.5876 -0.1390 -0.5154
 4178TIP3   OH234168   3.860   2.624   3.398 -0.7329  0.1087 -0.0804
 4178TIP3    H134169   3.771   2.590   3.403 -1.6965  2.6076  1.5172
 4178TIP3    H234170   3.898   2.604   3.484  0.3114 -0.9411 -0.7486
 4179TIP3   OH234171   4.625   0.758   2.108  0.3966  0.0924 -0.6342
 4179TIP3    H134172   4.584   0.705   2.176 -1.2425  2.0507 -0.0109
 4179TIP3    H234173   4.560   0.762   2.038  0.3772  1.4409 -0.5654
 4180TIP3   OH234174   0.283   3.117   2.025  0.3317  0.5010 -0.2655
 4180TIP3    H134175   0.227   3.045   1.996 -0.4551  0.4413  1.3185
 4180TIP3    H234176   0.372   3.086   2.011  0.1033 -1.8166  2.6131
 4181TIP3   OH234177   0.128   6.370   1.121 -0.5503  0.1215  0.2226
 4181TIP3    H134178   0.143   6.462   1.144  0.6411  0.8097 -2.7469
 4181TIP3    H234179   0.179   6.321   1.185  1.1973  1.7304  0.1552
 4182TIP3   OH234180   4.668   6.095   4.240 -0.2491 -0.3009  0.3174
 4182TIP3    H134181   4.692   6.045   4.163 -0.7830 -0.9339  0.5510
 4182TIP3    H234182   4.662   6.030   4.310 -0.8708  0.0984  0.6469
 4183TIP3   OH234183   2.208   2.540   2.539 -0.1420  0.2122  0.2889
 4183TIP3    H134184   2.146   2.469   2.548  0.8665 -0.7835 -0.3406
 4183TIP3    H234185   2.294   2.498   2.543  0.5037  1.4961  0.7565
 4184TIP3   OH234186   2.973   4.448   3.466 -0.0016 -0.3512  0.0510
 4184TIP3    H134187   2.951   4.439   3.559 -0.7923 -0.7003 -0.1681
 4184TIP3    H234188   2.990   4.541   3.455 -0.9890 -0.1288  0.3158
 4185TIP3   OH234189   2.002   4.686   2.414 -0.0649  0.1355 -0.4360
 4185TIP3    H134190   1.907   4.686   2.428 -0.0163 -0.5005 -0.0265
 4185TIP3    H234191   2.013   4.664   2.321 -0.3387  1.5545 -0.8197
 4186TIP3   OH234192   4.085   0.993   0.702  0.1064 -0.0703 -0.1079
 4186TIP3    H134193   4.088   0.899   0.685 -1.1037 -0.6348  2.2504
 4186TIP3    H234194   4.144   1.006   0.776 -0.1505  0.9200 -0.0610
 4187TIP3   OH234195   3.533   2.363   0.961 -0.3129  0.9759  0.0325
 4187TIP3    H134196   3.591   2.439   0.968 -1.2430  1.6035  1.0816
 4187TIP3    H234197   3.445   2.400   0.954 -0.7116  0.0012 -0.3466
 4188TIP3   OH234198   0.113   5.703   4.151  0.5544 -0.0886 -0.6380
 4188TIP3    H134199   0.167   5.751   4.088  0.5069  1.9278  0.7675
 4188TIP3    H234200   0.026   5.741   4.143  0.0690 -1.1670 -0.6873
 4189TIP3   OH234201   3.383   5.577   1.704 -0.2455  0.2053  0.2509
 4189TIP3    H134202   3.347   5.529   1.779 -2.3793  1.7079  0.2795
 4189TIP3    H234203   3.307   5.599   1.651  1.0072  0.9521 -1.3282
 4190TIP3   OH234204   6.565   1.774   4.863 -0.1199 -0.2171  0.2551
 4190TIP3    H134205   6.631   1.709   4.839 -0.5780 -1.1042  1.3358
 4190TIP3    H234206   6.533   1.745   4.949 -0.9785  0.9348  0.3413
 4191TIP3   OH234207   6.543   4.005   0.816 -0.2896 -0.0499 -0.5994
 4191TIP3    H134208   6.605   3.948   0.770 -1.1310 -0.5316 -1.1765
 4191TIP3    H234209   6.554   3.984   0.908 -0.5445 -1.1242 -0.8006
 4192TIP3   OH234210   2.917   0.834   2.147  0.0748  0.9242 -0.3818
 4192TIP3    H134211   2.828   0.868   2.160  0.0764  0.5770  0.6361
 4192TIP3    H234212   2.928   0.770   2.217  0.9165  0.5240 -0.8691
 4193TIP3   OH234213   6.606   4.268   0.711  0.8093  0.4044 -0.4729
 4193TIP3    H134214   6.696   4.301   0.709  1.6288 -1.3028  2.3126
 4193TIP3    H234215   6.614   4.175   0.693 -0.2077  0.0179  0.8680
 4194TIP3   OH234216   5.122   6.333   3.311  0.2136  0.5864  0.1816
 4194TIP3    H134217   5.029   6.315   3.327  0.2858  0.6396  0.6804
 4194TIP3    H234218   5.122   6.401   3.244 -0.1552  1.7461  1.3054
 4195TIP3   OH234219   1.387   3.571   3.894  0.1094 -0.3072  0.1247
 4195TIP3    H134220   1.380   3.592   3.801 -0.3706 -1.2131 -0.0512
 4195TIP3    H234221   1.458   3.627   3.926  1.4566 -1.2162 -1.1501
 4196TIP3   OH234222   4.212   5.357   0.379 -0.5807  0.0708 -0.2185
 4196TIP3    H134223   4.131   5.305   0.375  0.1837 -1.3367  1.4074
 4196TIP3    H234224   4.271   5.304   0.433  1.2318  1.3472 -0.8894
 4197TIP3   OH234225   4.198   0.125   2.892  0.1890 -0.3479 -0.1725
 4197TIP3    H134226   4.192   0.035   2.861 -0.4785 -1.1038  1.9511
 4197TIP3    H234227   4.107   0.150   2.912  0.5272  0.2091  0.7612
 4198TIP3   OH234228   0.944   4.698   2.649  0.0406 -0.6775 -0.0056
 4198TIP3    H134229   0.880   4.630   2.626  1.9753 -1.9167 -2.1753
 4198TIP3    H234230   0.905   4.779   2.617 -0.5703 -1.3802 -1.1407
 4199TIP3   OH234231   2.484   5.154   4.253  0.4960  0.4519  0.1438
 4199TIP3    H134232   2.544   5.229   4.253  0.4937  0.4806  1.3351
 4199TIP3    H234233   2.404   5.187   4.211  0.5587  1.0800  0.5006
 4200TIP3   OH234234   5.570   0.592   2.741  0.1128  1.1005  0.4222
 4200TIP3    H134235   5.633   0.532   2.702 -1.2047 -0.1386  0.1295
 4200TIP3    H234236   5.521   0.628   2.667 -1.7362 -0.5080  0.7774
 4201TIP3   OH234237   1.483   3.442   0.979 -1.3595 -0.4293  0.2727
 4201TIP3    H134238   1.440   3.527   0.966 -1.1920 -0.4046 -0.1376
 4201TIP3    H234239   1.455   3.413   1.066 -1.5790 -0.0474  0.3276
 4202TIP3   OH234240   3.452   0.675   4.902  0.2559 -0.1053 -0.1393
 4202TIP3    H134241   3.478   0.666   4.810 -0.2501  2.9261 -0.7045
 4202TIP3    H234242   3.521   0.729   4.941 -0.0468 -0.5178  1.0034
 4203TIP3   OH234243   5.160   1.830   2.878  0.1818  0.2939  0.5705
 4203TIP3    H134244   5.155   1.747   2.925 -2.0570  1.8237  3.3539
 4203TIP3    H234245   5.102   1.820   2.803  0.1603 -0.7199  0.7196
 4204TIP3   OH234246   1.268   4.992   2.585 -0.7206 -0.0315 -0.1829
 4204TIP3    H134247   1.331   4.931   2.622 -1.2064 -0.4975 -0.1175
 4204TIP3    H234248   1.251   4.960   2.497 -0.4434  0.4186 -0.4071
 4205TIP3   OH234249   4.899   1.802   1.560  0.6948  0.2904 -0.0300
 4205TIP3    H134250   4.917   1.733   1.497 -0.1282  1.3116 -1.4173
 4205TIP3    H234251   4.865   1.756   1.637  1.9776 -0.9932 -0.1869
 4206TIP3   OH234252   4.141   4.420   4.469 -0.6167  0.6246 -0.2120
 4206TIP3    H134253   4.213   4.475   4.502 -0.9605 -0.1172  1.9394
 4206TIP3    H234254   4.119   4.458   4.384  2.1392  1.0277 -0.8429
 4207TIP3   OH234255   6.050   1.897   1.077  0.7538  0.0529  0.2376
 4207TIP3    H134256   5.960   1.865   1.076  0.7394 -0.1036  2.2488
 4207TIP3    H234257   6.042   1.991   1.066  0.5538 -0.1889 -2.1105
 4208TIP3   OH234258   6.226   2.665   5.270 -0.8507  0.2381  0.8931
 4208TIP3    H134259   6.163   2.602   5.235  0.0797 -0.6238  0.7471
 4208TIP3    H234260   6.305   2.614   5.288 -1.0336  0.7445  3.6263
 4209TIP3   OH234261   3.034   0.314   2.910 -0.2436  0.0509 -0.6296
 4209TIP3    H134262   3.093   0.362   2.852 -2.2232  1.6988 -1.3688
 4209TIP3    H234263   2.998   0.244   2.856  0.9470 -0.9644 -0.1741
 4210TIP3   OH234264   2.431   5.696   2.274  0.3011  0.3625  0.2130
 4210TIP3    H134265   2.445   5.672   2.182 -0.6548  2.0741 -0.4105
 4210TIP3    H234266   2.491   5.638   2.323 -0.3502 -1.7530 -1.3257
 4211TIP3   OH234267   0.093   2.564   0.986  0.1537  0.0099  0.2662
 4211TIP3    H134268   0.004   2.535   0.965  0.6986 -2.4996  1.0777
 4211TIP3    H234269   0.113   2.629   0.919 -2.1010  0.3212 -0.2125
 4212TIP3   OH234270   6.001   4.299   0.373  0.4810 -0.3651  0.1734
 4212TIP3    H134271   5.961   4.362   0.312  0.4441 -0.7863 -0.2464
 4212TIP3    H234272   6.094   4.321   0.372  0.7008 -1.2078 -1.0841
 4213TIP3   OH234273   4.282   1.172   2.801 -0.3395  0.3218 -0.2019
 4213TIP3    H134274   4.207   1.219   2.763 -0.3875  0.8227  0.4824
 4213TIP3    H234275   4.249   1.139   2.884 -0.1073 -0.3736 -0.3847
 4214TIP3   OH234276   6.447   4.963   4.562  0.1169 -0.3085 -0.5265
 4214TIP3    H134277   6.496   5.036   4.602  2.0327 -1.2010 -1.1049
 4214TIP3    H234278   6.392   5.005   4.496 -1.6119  0.9737  1.5845
 4215TIP3   OH234279   4.827   3.227   1.551 -0.1892  0.3024  0.0970
 4215TIP3    H134280   4.921   3.233   1.567 -0.5047  1.8513  1.6942
 4215TIP3    H234281   4.819   3.196   1.461  1.8335 -0.0246 -0.0018
 4216TIP3   OH234282   3.606   5.811   1.986  0.4121 -0.1547 -0.3266
 4216TIP3    H134283   3.601   5.722   2.021  0.5978  0.5438  1.5869
 4216TIP3    H234284   3.525   5.853   2.014  1.7672  1.2509  1.8167
 4217TIP3   OH234285   2.391   3.286   1.707  0.4730  0.1066  0.6885
 4217TIP3    H134286   2.305   3.306   1.744  0.6457 -0.3484  1.3538
 4217TIP3    H234287   2.397   3.341   1.628 -1.0949 -1.0507 -0.2924
 4218TIP3   OH234288   4.218   0.624   2.459 -0.2090  0.1018  0.3068
 4218TIP3    H134289   4.179   0.566   2.393 -0.2266  0.1733  0.2554
 4218TIP3    H234290   4.312   0.608   2.452 -0.2668 -4.3301  4.1529
 4219TIP3   OH234291   6.581   2.000   2.336 -0.1807 -0.3274 -0.1496
 4219TIP3    H134292   6.518   2.033   2.401  0.2480 -0.1464  0.1769
 4219TIP3    H234293   6.615   2.079   2.294 -1.2880 -0.4755 -1.4044
 4220TIP3   OH234294   3.616   5.891   1.302 -0.1877  0.1235  0.6187
 4220TIP3    H134295   3.609   5.939   1.219  1.5615  0.0610  0.4066
 4220TIP3    H234296   3.684   5.936   1.351 -0.1790 -0.7296  1.4179
 4221TIP3   OH234297   1.270   1.767   4.065 -0.2434 -0.2798 -0.3509
 4221TIP3    H134298   1.324   1.831   4.020  0.8487 -0.0996  1.1343
 4221TIP3    H234299   1.202   1.743   4.002  0.7972  0.4732 -1.7957
 4222TIP3   OH234300   1.566   2.449   2.747  0.2693  0.5917 -0.0312
 4222TIP3    H134301   1.602   2.361   2.737  1.3071  1.1023 -0.9692
 4222TIP3    H234302   1.474   2.434   2.769  0.2206 -0.7265 -0.9959
 4223TIP3   OH234303   4.664   4.867   4.259 -0.3800 -0.3152  0.4663
 4223TIP3    H134304   4.663   4.944   4.316  0.3852  0.3046 -0.3335
 4223TIP3    H234305   4.601   4.886   4.190 -2.2923 -1.6159  1.7375
 4224TIP3   OH234306   2.627   6.359   2.272 -0.1988 -0.1621  0.1715
 4224TIP3    H134307   2.723   6.356   2.269 -0.2316 -1.8354 -0.8490
 4224TIP3    H234308   2.604   6.429   2.211  0.3603  0.6523  0.8622
 4225TIP3   OH234309   0.650   2.204   3.540  0.6263 -0.9140  0.8521
 4225TIP3    H134310   0.558   2.227   3.528  1.0009  0.2354 -0.0698
 4225TIP3    H234311   0.698   2.274   3.496  1.9186 -2.3712 -0.1494
 4226TIP3   OH234312   5.373   3.059   2.491 -0.4015  0.1978 -0.7276
 4226TIP3    H134313   5.424   3.117   2.547 -1.6413  1.7886 -1.1663
 4226TIP3    H234314   5.356   2.982   2.545 -0.2080  0.9966  0.5080
 4227TIP3   OH234315   2.104   3.800   4.286  0.5601 -0.2891  0.0017
 4227TIP3    H134316   2.119   3.715   4.328  2.2651 -0.9694 -1.8283
 4227TIP3    H234317   2.058   3.852   4.353 -0.6776 -2.6531  1.1270
 4228TIP3   OH234318   2.118   4.182   4.764 -0.0868 -0.0494 -0.2644
 4228TIP3    H134319   2.161   4.099   4.782  0.9620  0.4938 -0.1521
 4228TIP3    H234320   2.190   4.244   4.750 -0.8417  0.6846 -1.0884
 4229TIP3   OH234321   2.946   3.204   2.010 -0.3984 -0.0493 -0.5810
 4229TIP3    H134322   3.016   3.139   2.013  1.6310  2.0532  1.4838
 4229TIP3    H234323   2.878   3.169   2.068 -0.2409 -1.1706 -1.0335
 4230TIP3   OH234324   5.184   2.253   1.750 -0.3457  0.7407 -0.5477
 4230TIP3    H134325   5.095   2.284   1.737 -0.6199  0.4608  0.5625
 4230TIP3    H234326   5.228   2.323   1.798 -0.5201  0.1139  0.5659
 4231TIP3   OH234327   2.781   1.629   4.343 -0.2121  0.0175 -0.5259
 4231TIP3    H134328   2.816   1.585   4.421 -0.5763  0.4560 -0.1093
 4231TIP3    H234329   2.806   1.721   4.354 -0.5095  0.1318 -0.7881
 4232TIP3   OH234330   2.449   4.029   2.062  0.4298  0.0439 -0.1541
 4232TIP3    H134331   2.472   4.110   2.016  0.4237 -0.7154 -1.5529
 4232TIP3    H234332   2.417   4.059   2.147  0.9099  1.4763 -0.4318
 4233TIP3   OH234333   2.040   5.326   4.847 -0.2739 -0.2556 -0.2992
 4233TIP3    H134334   2.109   5.285   4.900  1.1457 -0.6375 -2.3377
 4233TIP3    H234335   1.979   5.255   4.829 -0.4154 -0.2772  0.2314
 4234TIP3   OH234336   0.583   1.391   4.141 -0.8017 -0.1236  0.2006
 4234TIP3    H134337   0.647   1.363   4.207 -1.2557 -2.4927 -0.2570
 4234TIP3    H234338   0.506   1.416   4.192 -0.5736 -0.3028  0.6436
 4235TIP3   OH234339   0.244   1.474   2.651 -0.9281 -0.5307  0.1634
 4235TIP3    H134340   0.205   1.558   2.625  0.2119 -0.9234 -3.2449
 4235TIP3    H234341   0.336   1.494   2.665 -0.8069 -1.0773  0.1540
 4236TIP3   OH234342   0.387   3.579   4.719 -0.6354  0.4905  0.2732
 4236TIP3    H134343   0.380   3.494   4.675 -0.3650  0.1593  0.8511
 4236TIP3    H234344   0.328   3.572   4.794 -0.1062  0.5605  0.7022
 4237TIP3   OH234345   6.180   1.116   1.640 -0.3904 -0.9403  0.0949
 4237TIP3    H134346   6.123   1.040   1.655 -1.2912 -0.3907 -0.4215
 4237TIP3    H234347   6.128   1.173   1.583  0.2206  0.1332  0.6003
 4238TIP3   OH234348   2.338   0.865   0.996 -0.1486  0.1537  0.3125
 4238TIP3    H134349   2.393   0.936   0.963  1.4728 -0.0138  2.4559
 4238TIP3    H234350   2.281   0.906   1.060  0.7907 -0.4193  1.5568
 4239TIP3   OH234351   2.138   3.937   1.044  0.3064 -0.0281  0.3114
 4239TIP3    H134352   2.092   3.949   0.961  1.9343  2.9600 -0.2906
 4239TIP3    H234353   2.224   3.975   1.029  1.3309 -1.1769  2.8275
 4240TIP3   OH234354   3.706   5.856   4.867  0.1218  0.2235 -0.2806
 4240TIP3    H134355   3.725   5.917   4.939 -0.2678  1.2554 -1.0371
 4240TIP3    H234356   3.620   5.883   4.834 -0.4104 -1.2158 -0.1566
 4241TIP3   OH234357   1.611   5.780   1.407  0.3981  0.1640 -0.1617
 4241TIP3    H134358   1.581   5.696   1.372  0.8630  0.1732 -0.5857
 4241TIP3    H234359   1.535   5.815   1.454 -0.9626  1.1080 -2.8679
 4242TIP3   OH234360   3.882   0.565   1.287 -0.0486  0.0126 -0.4096
 4242TIP3    H134361   3.925   0.494   1.239  0.9454 -2.0054  3.1025
 4242TIP3    H234362   3.948   0.635   1.290 -0.5098  0.6128 -2.7036
 4243TIP3   OH234363   5.867   0.496   1.972  0.6630  0.0199 -0.5455
 4243TIP3    H134364   5.923   0.541   2.036 -0.4310  1.7991 -0.7728
 4243TIP3    H234365   5.793   0.464   2.023 -0.4427  1.8414 -0.9112
 4244TIP3   OH234366   1.580   0.783   0.624  0.9883  0.1930 -0.4549
 4244TIP3    H134367   1.629   0.750   0.699  0.8864 -1.0962 -0.9299
 4244TIP3    H234368   1.526   0.709   0.596  0.7573  0.7631 -1.5837
 4245TIP3   OH234369   4.050   3.122   4.307 -0.0730  0.0771 -0.3707
 4245TIP3    H134370   4.105   3.200   4.296  0.8699 -0.8223 -2.6896
 4245TIP3    H234371   4.008   3.110   4.222 -3.1225  0.0790  0.9864
 4246TIP3   OH234372   2.592   5.351   1.266 -0.0728  0.0966  0.1694
 4246TIP3    H134373   2.525   5.413   1.238 -1.8871 -0.9310  1.9291
 4246TIP3    H234374   2.600   5.365   1.361  0.4417 -1.4261  0.3889
 4247TIP3   OH234375   4.724   2.178   4.272  0.2947 -0.0399  0.8911
 4247TIP3    H134376   4.661   2.156   4.340  0.0840 -2.4555 -0.0045
 4247TIP3    H234377   4.795   2.222   4.318 -0.1559 -0.9914  2.5596
 4248TIP3   OH234378   3.200   2.699   1.838 -0.2445  0.1403  0.0024
 4248TIP3    H134379   3.226   2.775   1.785  0.7693 -1.2640 -1.6259
 4248TIP3    H234380   3.113   2.677   1.805 -0.1437  0.0295 -0.1918
 4249TIP3   OH234381   2.969   3.596   4.483  0.1352  0.0619  0.0721
 4249TIP3    H134382   2.950   3.643   4.564  0.0194  0.0668  0.0419
 4249TIP3    H234383   2.916   3.640   4.416 -1.2609 -1.1412  0.3309
 4250TIP3   OH234384   2.514   0.190   3.578 -0.4383  0.2072 -0.4543
 4250TIP3    H134385   2.443   0.139   3.539 -1.5713  0.5318  1.1106
 4250TIP3    H234386   2.593   0.140   3.558 -1.1912 -0.5935 -1.5143
 4251TIP3   OH234387   1.652   5.072   1.759  0.1819  0.0504 -1.0265
 4251TIP3    H134388   1.704   5.133   1.813 -1.4149  0.1207  0.5342
 4251TIP3    H234389   1.564   5.078   1.795 -0.5298 -1.4339 -2.4100
 4252TIP3   OH234390   4.948   6.054   2.882 -0.0116  0.4951 -0.2374
 4252TIP3    H134391   4.984   5.973   2.916  0.4297  0.2739 -1.1794
 4252TIP3    H234392   5.016   6.087   2.822 -0.2761  1.4391 -0.0343
 4253TIP3   OH234393   2.683   6.067   2.673 -0.0730 -0.5601 -0.1771
 4253TIP3    H134394   2.686   6.128   2.747  2.2078 -0.3840 -0.3180
 4253TIP3    H234395   2.749   6.002   2.694  1.5496  0.1743 -2.5527
 4254TIP3   OH234396   0.401   6.025   0.733 -0.0166  0.4997  0.2501
 4254TIP3    H134397   0.372   6.062   0.649 -0.9886  0.9779  0.7686
 4254TIP3    H234398   0.362   5.938   0.735 -1.2179  1.0222  0.8054
 4255TIP3   OH234399   1.164   0.777   2.004 -0.3133 -0.4467  0.0092
 4255TIP3    H134400   1.239   0.720   2.022 -0.3088 -0.2338  0.6953
 4255TIP3    H234401   1.189   0.826   1.926  0.3413 -0.2469  0.3331
 4256TIP3   OH234402   5.549   2.761   4.510 -0.2593 -0.5586 -0.3798
 4256TIP3    H134403   5.533   2.669   4.535  0.9934 -1.2055 -1.8133
 4256TIP3    H234404   5.462   2.801   4.509 -0.7800 -1.5883  0.7603
 4257TIP3   OH234405   0.098   4.428   0.938 -0.0862 -0.3864  0.0310
 4257TIP3    H134406   0.081   4.417   0.845 -0.2606 -0.1135  0.0293
 4257TIP3    H234407   0.191   4.408   0.948 -0.8746 -4.8935  0.4873
 4258TIP3   OH234408   1.535   1.814   1.707  0.3676 -0.1869  0.4642
 4258TIP3    H134409   1.545   1.907   1.730  0.7693 -0.3285  0.8729
 4258TIP3    H234410   1.522   1.770   1.791 -0.6521 -0.4039  0.2066
 4259TIP3   OH234411   6.308   0.909   3.389  0.4471  0.1193  0.0941
 4259TIP3    H134412   6.371   0.980   3.373  1.4154 -0.7420 -0.0735
 4259TIP3    H234413   6.245   0.945   3.451  0.4031  1.4102 -0.6719
 4260TIP3   OH234414   0.906   4.847   1.197  0.0299 -0.1895  0.0396
 4260TIP3    H134415   0.990   4.851   1.152  0.3892 -0.0800  0.7076
 4260TIP3    H234416   0.845   4.891   1.139  0.6228  0.5518 -0.0327
 4261TIP3   OH234417   4.257   1.535   2.010 -0.2461 -0.7393  0.0396
 4261TIP3    H134418   4.199   1.593   2.059  2.8223  1.6458  1.1767
 4261TIP3    H234419   4.285   1.469   2.074 -1.2428 -1.5995 -0.3800
 4262TIP3   OH234420   4.741   2.738   1.750  0.1295  0.1622 -0.1725
 4262TIP3    H134421   4.753   2.647   1.725 -0.5157 -0.1286  0.5442
 4262TIP3    H234422   4.726   2.736   1.845  1.0813  1.1023  0.0181
 4263TIP3   OH234423   6.425   4.779   5.818 -0.0345  0.4038 -0.5160
 4263TIP3    H134424   6.464   4.805   5.902 -0.1147 -0.2318 -0.2769
 4263TIP3    H234425   6.473   4.701   5.792 -0.8036 -0.0963 -0.4697
 4264TIP3   OH234426   1.362   5.689   2.762 -0.4201  0.0472  0.4775
 4264TIP3    H134427   1.298   5.630   2.803  0.6170 -1.5630 -0.1365
 4264TIP3    H234428   1.445   5.668   2.805 -0.0584  1.2254  0.3869
 4265TIP3   OH234429   5.451   1.968   1.872  0.0760 -0.7964 -0.1136
 4265TIP3    H134430   5.360   1.946   1.854 -0.2917 -0.2435  0.9419
 4265TIP3    H234431   5.496   1.884   1.876 -0.8012 -1.2448  1.3851
 4266TIP3   OH234432   6.357   1.896   4.695 -0.1301 -0.0418  0.0107
 4266TIP3    H134433   6.423   1.920   4.630  1.4854 -1.6182  0.9892
 4266TIP3    H234434   6.405   1.846   4.761 -2.7068 -3.5680 -0.5244
 4267TIP3   OH234435   1.672   4.154   4.791 -0.5005  0.2268 -0.0375
 4267TIP3    H134436   1.616   4.077   4.783  1.6225 -1.8148  2.8229
 4267TIP3    H234437   1.735   4.145   4.720 -1.7193  0.7773 -1.2470
 4268TIP3   OH234438   1.648   5.254   4.106 -0.4967 -0.0322  0.3596
 4268TIP3    H134439   1.573   5.203   4.075 -1.1338  1.1393 -0.0966
 4268TIP3    H234440   1.610   5.321   4.162  0.1923  0.6440  0.0325
 4269TIP3   OH234441   6.157   6.539   2.642 -0.2181  0.4979 -0.4665
 4269TIP3    H134442   6.109   6.542   2.559  1.4473 -1.0061 -1.5737
 4269TIP3    H234443   6.246   6.568   2.618  0.0862  0.8072  0.9773
 4270TIP3   OH234444   0.928   5.320   1.353 -0.0667 -0.3776  0.0024
 4270TIP3    H134445   0.974   5.293   1.274 -0.4653 -1.2065  0.0455
 4270TIP3    H234446   0.900   5.238   1.393 -0.2964  0.0588  0.7467
 4271TIP3   OH234447   3.940   1.846   2.415 -0.0250 -0.5309 -0.0919
 4271TIP3    H134448   4.016   1.850   2.472  0.2108  0.2375 -0.4514
 4271TIP3    H234449   3.962   1.902   2.341 -0.1596 -1.8376 -1.1564
 4272TIP3   OH234450   6.582   5.600   0.636 -0.1177 -0.2923  0.0440
 4272TIP3    H134451   6.668   5.620   0.673 -0.1714  1.9218 -0.8900
 4272TIP3    H234452   6.571   5.507   0.652  1.8951 -0.3823  1.3308
 4273TIP3   OH234453   5.452   5.886   3.924 -0.4627  0.0156  0.3587
 4273TIP3    H134454   5.363   5.920   3.923 -0.3331  0.4756  1.8630
 4273TIP3    H234455   5.453   5.818   3.856 -1.8567  0.2362  0.1004
 4274TIP3   OH234456   6.224   2.721   4.737 -0.6570  0.1622  0.4059
 4274TIP3    H134457   6.208   2.814   4.756 -1.6885  0.4411 -1.5463
 4274TIP3    H234458   6.250   2.684   4.821 -2.1758  1.8033  1.6971
 4275TIP3   OH234459   5.287   0.664   4.779 -0.6536 -0.2818  0.1198
 4275TIP3    H134460   5.365   0.616   4.753  0.6287  1.7030  0.1108
 4275TIP3    H234461   5.216   0.600   4.773  0.9788 -2.1984  0.3429
 4276TIP3   OH234462   1.694   1.784   3.640 -0.0271 -0.1401 -0.3337
 4276TIP3    H134463   1.685   1.840   3.718 -1.4383  0.0629 -0.6173
 4276TIP3    H234464   1.687   1.844   3.567  0.8097 -0.4027 -0.6472
 4277TIP3   OH234465   1.738   3.015   0.981 -0.0816 -0.3505  0.2594
 4277TIP3    H134466   1.689   3.068   0.917 -1.1177 -0.9041  0.5766
 4277TIP3    H234467   1.768   2.939   0.931  0.5076  0.0146  0.0519
 4278TIP3   OH234468   3.234   0.752   3.879 -0.1767  0.5448  0.1193
 4278TIP3    H134469   3.307   0.814   3.879  0.9169 -0.6770  1.2051
 4278TIP3    H234470   3.246   0.701   3.799 -2.5018  3.2019 -2.1311
 4279TIP3   OH234471   4.437   1.937   2.739  0.4581 -0.7846 -0.5706
 4279TIP3    H134472   4.455   1.913   2.648  0.5897  0.4904 -0.9071
 4279TIP3    H234473   4.453   2.032   2.742 -2.9266 -0.1038 -0.1055
 4280TIP3   OH234474   0.807   3.235   4.164  0.4530  0.1629 -0.0638
 4280TIP3    H134475   0.865   3.227   4.089 -1.1551  1.1651 -1.4772
 4280TIP3    H234476   0.772   3.147   4.178  0.8420 -0.0480 -0.4022
 4281TIP3   OH234477   3.722   4.613   1.986 -0.3865 -0.8049  0.2181
 4281TIP3    H134478   3.664   4.644   1.917  1.3457  0.2104 -0.8637
 4281TIP3    H234479   3.754   4.692   2.029 -0.6405 -1.3850  1.5487
 4282TIP3   OH234480   0.560   1.642   1.143 -0.4888 -0.5169 -0.5105
 4282TIP3    H134481   0.556   1.546   1.144 -0.8850 -0.5048 -0.5795
 4282TIP3    H234482   0.653   1.662   1.145 -0.4135 -0.8960  0.2207
 4283TIP3   OH234483   4.184   1.736   4.292  0.8396 -0.2277 -0.0067
 4283TIP3    H134484   4.141   1.652   4.307  0.2434 -0.3199 -1.8883
 4283TIP3    H234485   4.277   1.717   4.299  0.6943 -0.9711 -0.0702
 4284TIP3   OH234486   5.153   2.816   5.108  0.3636  0.0632  0.6670
 4284TIP3    H134487   5.209   2.802   5.184 -2.1748 -0.1136  2.6287
 4284TIP3    H234488   5.165   2.738   5.054  1.3785 -0.3201  1.4233
 4285TIP3   OH234489   6.111   0.125   4.281  0.1354  0.1546 -0.1987
 4285TIP3    H134490   6.038   0.153   4.336 -0.5381 -0.8481 -0.5529
 4285TIP3    H234491   6.174   0.086   4.341  1.0926  2.3203  0.3096
 4286TIP3   OH234492   4.911   1.337   1.735  0.1482  0.5299 -0.6235
 4286TIP3    H134493   4.993   1.303   1.700  0.3042  0.7601 -0.4840
 4286TIP3    H234494   4.845   1.272   1.709  0.3492  0.4193 -0.8626
 4287TIP3   OH234495   4.679   5.555   2.989 -0.0275 -1.0002  0.1159
 4287TIP3    H134496   4.683   5.507   3.072 -0.1079  0.1452  0.8020
 4287TIP3    H234497   4.741   5.628   3.000  0.9302 -1.5363 -1.3156
 4288TIP3   OH234498   4.578   2.637   1.978  0.1888 -0.3825 -0.0565
 4288TIP3    H134499   4.664   2.608   2.007 -0.3240 -0.6946  1.2433
 4288TIP3    H234500   4.535   2.557   1.948  0.1828 -0.2979 -0.2797
 4289TIP3   OH234501   4.422   4.071   5.196  0.3910  0.7228  0.0365
 4289TIP3    H134502   4.328   4.067   5.180  0.1208 -0.7803  1.7475
 4289TIP3    H234503   4.436   4.155   5.241  0.0705  1.4423 -1.1536
 4290TIP3   OH234504   6.419   1.535   4.575  0.1501  0.0860  0.1314
 4290TIP3    H134505   6.476   1.611   4.570 -0.2961  0.3753 -1.3050
 4290TIP3    H234506   6.473   1.462   4.545  0.1931  0.0966  0.1844
 4291TIP3   OH234507   1.284   1.862   0.574 -0.1040 -0.1785 -0.2412
 4291TIP3    H134508   1.358   1.896   0.624 -0.2041  1.1765 -0.9509
 4291TIP3    H234509   1.324   1.810   0.504  0.2893  1.3776 -1.2359
 4292TIP3   OH234510   1.622   3.218   1.986 -0.5345 -0.4317  0.0909
 4292TIP3    H134511   1.540   3.258   2.015 -0.9984 -0.5420 -1.0258
 4292TIP3    H234512   1.636   3.145   2.046 -1.1022 -0.2371  0.4688
 4293TIP3   OH234513   4.595   1.697   3.062  0.1195 -0.3368 -0.1917
 4293TIP3    H134514   4.548   1.779   3.078  0.8691  0.0630  0.0338
 4293TIP3    H234515   4.633   1.674   3.147  0.1972 -0.7318 -0.3319
 4294TIP3   OH234516   6.632   0.290   3.429 -0.2576 -0.3973  0.2034
 4294TIP3    H134517   6.652   0.383   3.415 -1.6058 -0.1228  0.0167
 4294TIP3    H234518   6.577   0.266   3.355  0.3612 -1.4561  0.0690
 4295TIP3   OH234519   5.902   2.684   3.879 -0.3668  0.0469  0.0431
 4295TIP3    H134520   5.996   2.695   3.891 -0.4131  0.4615  0.0438
 4295TIP3    H234521   5.889   2.685   3.785 -0.1137 -2.2806 -0.0721
 4296TIP3   OH234522   2.928   6.161   2.901  0.4124  0.0890  0.5986
 4296TIP3    H134523   2.930   6.256   2.893 -0.0243  0.1138  0.7549
 4296TIP3    H234524   2.838   6.141   2.926  0.5152 -0.3615  0.6178
 4297TIP3   OH234525   2.918   6.433   2.954  0.1155 -0.0227 -0.3219
 4297TIP3    H134526   2.903   6.451   2.861  2.5440 -0.1344 -0.7927
 4297TIP3    H234527   2.962   6.511   2.987  0.3589 -0.4797  0.4471
 4298TIP3   OH234528   3.981   5.661   4.809 -0.0901 -0.0106  0.8140
 4298TIP3    H134529   4.038   5.597   4.767  1.5043  0.9108  1.4910
 4298TIP3    H234530   4.023   5.745   4.795 -1.4813  0.7624  1.0396
 4299TIP3   OH234531   4.451   0.020   3.983 -0.3755  0.4886 -0.0961
 4299TIP3    H134532   4.497   0.077   4.045  1.4896 -2.0817  1.0683
 4299TIP3    H234533   4.358   0.036   4.001  0.1030  1.2170  2.0750
 4300TIP3   OH234534   1.049   4.633   1.917 -0.4373 -0.5243  0.0870
 4300TIP3    H134535   0.991   4.561   1.890 -2.6121  1.7744 -1.8611
 4300TIP3    H234536   1.093   4.660   1.836 -2.4135  2.5551 -0.1255
 4301TIP3   OH234537   4.632   0.713   2.830 -0.3116  0.4241  0.4665
 4301TIP3    H134538   4.601   0.734   2.742  0.7454  0.4912  0.0984
 4301TIP3    H234539   4.685   0.635   2.819  0.4243  0.8480  0.9307
 4302TIP3   OH234540   3.486   1.206   1.800  0.2322  0.1643  0.7916
 4302TIP3    H134541   3.423   1.149   1.755  0.8900 -1.5302  1.9322
 4302TIP3    H234542   3.436   1.245   1.872 -0.1116  0.7526  0.2505
 4303TIP3   OH234543   1.721   2.727   4.478 -0.5629  0.0836  0.0868
 4303TIP3    H134544   1.758   2.685   4.555  0.2041 -0.6541 -0.6571
 4303TIP3    H234545   1.629   2.740   4.499 -0.4269 -0.3876  1.0044
 4304TIP3   OH234546   6.359   5.394   0.479  0.1194  0.2997 -0.0040
 4304TIP3    H134547   6.403   5.478   0.476  1.7623 -0.4078  1.8518
 4304TIP3    H234548   6.291   5.404   0.547  2.6389 -0.7481  2.9039
 4305TIP3   OH234549   1.911   2.489   2.113  0.1511 -0.2555  0.3452
 4305TIP3    H134550   1.941   2.548   2.182  0.1621 -0.2786  0.3602
 4305TIP3    H234551   1.888   2.408   2.159  1.9213 -0.9412  0.1257
 4306TIP3   OH234552   3.500   6.643   2.167  0.1560  0.3434 -0.2754
 4306TIP3    H134553   3.489   6.649   2.072 -2.3335 -0.7852 -0.1250
 4306TIP3    H234554   3.490   6.733   2.198 -3.8397  0.2789 -0.7887
 4307TIP3   OH234555   4.946   3.190   4.512  0.4886  0.3843  1.1416
 4307TIP3    H134556   4.854   3.164   4.502  0.6772 -0.2877  1.1296
 4307TIP3    H234557   4.992   3.146   4.441  0.3412  3.4131 -0.9807
 4308TIP3   OH234558   1.582   5.350   0.959  0.0467  0.5165 -0.1426
 4308TIP3    H134559   1.657   5.291   0.948 -1.0078 -0.9599  0.2724
 4308TIP3    H234560   1.608   5.408   1.030 -0.0229 -1.4961  1.6588
 4309TIP3   OH234561   3.858   1.180   3.180 -0.7478  0.3851  0.2188
 4309TIP3    H134562   3.896   1.137   3.104  0.5416 -0.5559  1.3482
 4309TIP3    H234563   3.800   1.114   3.219  0.1052  0.1509  1.1293
 4310TIP3   OH234564   5.983   6.679   2.161 -0.2679 -0.2462  0.0906
 4310TIP3    H134565   6.008   6.681   2.068 -2.3621 -0.8305 -0.5275
 4310TIP3    H234566   5.888   6.685   2.160 -0.2753  0.6699  2.2688
 4311TIP3   OH234567   0.539   1.548   4.513 -0.2666 -0.1430 -0.1713
 4311TIP3    H134568   0.451   1.534   4.547 -0.8089  0.8859 -1.0707
 4311TIP3    H234569   0.595   1.547   4.590 -1.2363  0.4881  0.5737
 4312TIP3   OH234570   2.646   4.530   3.827 -0.2302  0.4892  0.2436
 4312TIP3    H134571   2.672   4.620   3.805  0.6601 -0.4625 -3.0966
 4312TIP3    H234572   2.571   4.512   3.771 -0.6758 -0.7643  1.1900
 4313TIP3   OH234573   1.349   0.810   4.237  0.8205 -0.4476 -0.1306
 4313TIP3    H134574   1.255   0.796   4.228  1.0214 -3.2047  0.8909
 4313TIP3    H234575   1.358   0.865   4.315  0.0467  0.8907 -0.9592
 4314TIP3   OH234576   2.004   2.141   2.773 -0.3903  0.2305  0.0680
 4314TIP3    H134577   2.087   2.102   2.801 -0.4253 -0.6313 -0.9524
 4314TIP3    H234578   1.938   2.103   2.831 -0.1896  0.1890  0.2717
 4315TIP3   OH234579   5.109   3.753   2.474  0.1187  0.4535  0.6853
 4315TIP3    H134580   5.169   3.741   2.547  0.6875 -0.1402  0.1323
 4315TIP3    H234581   5.165   3.778   2.400 -0.3376  0.1504  0.2269
 4316TIP3   OH234582   0.663   3.351   3.679  0.8817  0.0741 -0.1691
 4316TIP3    H134583   0.628   3.294   3.748  0.4682  1.3092  0.6759
 4316TIP3    H234584   0.617   3.434   3.691  0.0689  0.0562 -2.5555
 4317TIP3   OH234585   0.746   6.178   0.598 -0.1845  0.0023 -0.1805
 4317TIP3    H134586   0.756   6.084   0.582 -2.1697 -0.0227 -1.7120
 4317TIP3    H234587   0.672   6.183   0.659 -1.8624  0.5973 -2.1654
 4318TIP3   OH234588   2.377   3.969   4.972  0.2665 -0.5825  0.0849
 4318TIP3    H134589   2.297   3.952   4.921 -0.9680  2.0439  0.9644
 4318TIP3    H234590   2.369   3.912   5.049 -0.5283 -0.7133 -0.0836
 4319TIP3   OH234591   0.424   6.629   4.189  0.2343  0.9002  0.0846
 4319TIP3    H134592   0.407   6.669   4.274  1.4964  0.7410  0.4293
 4319TIP3    H234593   0.442   6.537   4.209  0.9932  0.9586 -0.2933
 4320TIP3   OH234594   3.213   3.122   2.795  0.0885 -0.0771  0.6412
 4320TIP3    H134595   3.184   3.114   2.886  1.5908 -2.3050  1.0178
 4320TIP3    H234596   3.297   3.076   2.793  2.2484  3.5061 -0.9870
 4321TIP3   OH234597   2.520   1.136   2.896  0.3203 -0.0346  0.1802
 4321TIP3    H134598   2.444   1.157   2.950  1.4912 -0.1180  1.9114
 4321TIP3    H234599   2.542   1.045   2.918 -0.2312 -0.7034 -1.7857
 4322TIP3   OH234600   3.832   4.963   1.193 -0.1709 -0.0317 -0.4455
 4322TIP3    H134601   3.822   5.054   1.165  0.7150 -0.1159 -1.0770
 4322TIP3    H234602   3.923   4.956   1.219 -0.9401  0.0539  2.6163
 4323TIP3   OH234603   2.229   5.420   1.294  0.1911 -0.0436  0.1375
 4323TIP3    H134604   2.305   5.472   1.269  1.3310 -2.1046 -0.8728
 4323TIP3    H234605   2.157   5.483   1.296  1.1213  1.2921 -2.8800
 4324TIP3   OH234606   3.184   1.032   2.359 -0.0215  0.1687 -0.1481
 4324TIP3    H134607   3.095   1.020   2.392  0.1289 -0.9339 -0.1329
 4324TIP3    H234608   3.229   1.077   2.430 -0.5029  0.5368 -0.0661
 4325TIP3   OH234609   2.177   6.666   1.210  0.3756  0.0669 -0.0811
 4325TIP3    H134610   2.190   6.589   1.155 -1.8854  0.2820 -1.0034
 4325TIP3    H234611   2.120   6.724   1.159 -0.7763  0.8401  1.9425
 4326TIP3   OH234612   6.626   1.264   4.794 -0.0375 -0.1783  0.0335
 4326TIP3    H134613   6.610   1.327   4.864  1.1342 -0.3027  0.4285
 4326TIP3    H234614   6.657   1.186   4.840  0.0392 -0.5102 -0.5792
 4327TIP3   OH234615   6.168   3.571   5.298 -0.0193  0.2134 -0.4723
 4327TIP3    H134616   6.116   3.646   5.327 -0.4557 -0.3408  0.2201
 4327TIP3    H234617   6.105   3.509   5.262  0.4085  0.4336 -1.6276
 4328TIP3   OH234618   6.385   4.621   5.386 -0.0286 -0.0267  0.4481
 4328TIP3    H134619   6.329   4.614   5.464 -1.0689  0.5571 -0.2275
 4328TIP3    H234620   6.328   4.659   5.319  1.1005  0.2837 -0.3559
 4329TIP3   OH234621   6.128   0.137   3.014 -0.0585  0.3494 -0.6923
 4329TIP3    H134622   6.118   0.059   2.959  0.0830  0.6078 -1.0966
 4329TIP3    H234623   6.140   0.104   3.102  0.0687 -0.0903 -0.8743
 4330TIP3   OH234624   1.054   4.485   3.412  0.6694  0.1253 -0.0269
 4330TIP3    H134625   0.999   4.443   3.346  2.7723  0.2253 -1.9858
 4330TIP3    H234626   1.019   4.454   3.496 -0.2891 -2.4468 -1.2634
 4331TIP3   OH234627   6.675   0.768   3.494 -0.7508 -0.4879 -0.2834
 4331TIP3    H134628   6.592   0.724   3.516 -1.3120  0.1811 -0.9803
 4331TIP3    H234629   6.721   0.775   3.577 -1.1862 -1.2818  0.0449
 4332TIP3   OH234630   6.158   2.741   2.988 -0.0620  0.3194  0.2105
 4332TIP3    H134631   6.189   2.759   3.077 -0.8545 -0.6626  0.7120
 4332TIP3    H234632   6.073   2.784   2.983 -0.3826 -0.2965  0.2170
 4333TIP3   OH234633   5.982   0.812   5.503 -0.1908 -0.0248  0.0688
 4333TIP3    H134634   6.059   0.756   5.498 -1.0884 -1.3022 -0.1475
 4333TIP3    H234635   5.918   0.761   5.553 -0.9581  0.9201  0.0987
 4334TIP3   OH234636   5.914   1.071   1.182 -0.9949 -0.7659 -0.1373
 4334TIP3    H134637   5.994   1.067   1.129  0.0994 -0.0329  1.3686
 4334TIP3    H234638   5.865   1.145   1.146  0.4480  0.6958  0.7502
 4335TIP3   OH234639   4.925   2.313   1.442  0.3208  0.2876 -0.2581
 4335TIP3    H134640   4.906   2.340   1.352 -0.9463  0.9252  0.1756
 4335TIP3    H234641   4.899   2.221   1.445 -0.3589  0.4687 -0.3532
 4336TIP3   OH234642   1.010   0.187   0.538 -0.5349 -0.2536 -0.1635
 4336TIP3    H134643   0.985   0.255   0.601  0.4655 -0.9913  1.0632
 4336TIP3    H234644   1.071   0.232   0.479 -1.0543  0.3010 -0.2887
 4337TIP3   OH234645   5.404   4.851   2.370 -0.0781  0.6200 -0.1521
 4337TIP3    H134646   5.441   4.877   2.455 -3.1724  0.3032  1.4571
 4337TIP3    H234647   5.310   4.843   2.387 -0.4951 -2.4189 -2.8900
 4338TIP3   OH234648   1.959   6.747   4.754 -0.4007  0.8273 -0.1483
 4338TIP3    H134649   1.996   6.692   4.685  0.0182 -1.0943  1.5180
 4338TIP3    H234650   1.909   6.686   4.808  0.7867  1.9063  2.2902
 4339TIP3   OH234651   3.920   4.823   4.516 -0.8700  0.7392 -0.5096
 4339TIP3    H134652   3.851   4.757   4.524  0.0105 -0.0436  1.1287
 4339TIP3    H234653   3.908   4.879   4.594  1.4969 -0.6020  0.9408
 4340TIP3   OH234654   2.478   5.970   1.589 -0.0238  0.1821  0.5712
 4340TIP3    H134655   2.513   5.987   1.501 -1.3469 -1.2574 -0.2784
 4340TIP3    H234656   2.402   6.028   1.597  0.4641  0.7729  1.0401
 4341TIP3   OH234657   3.792   3.434   0.541  0.5965 -0.2879 -0.3946
 4341TIP3    H134658   3.728   3.369   0.569  0.8097  0.1352  1.1868
 4341TIP3    H234659   3.753   3.476   0.464 -1.7830  0.9977  1.3929
 4342TIP3   OH234660   6.302   5.019   4.326  0.2646 -0.2313 -0.3606
 4342TIP3    H134661   6.257   5.077   4.264 -1.0575  0.2955  1.0308
 4342TIP3    H234662   6.329   4.944   4.273  1.1625  1.1697 -2.0100
 4343TIP3   OH234663   6.510   6.371   4.182 -0.8598 -0.2733  0.0383
 4343TIP3    H134664   6.530   6.390   4.274 -1.0341  0.9856 -0.1642
 4343TIP3    H234665   6.499   6.457   4.142  2.1168 -0.5986 -1.8506
 4344TIP3   OH234666   2.652   2.323   1.792  0.3031 -0.2441 -0.2160
 4344TIP3    H134667   2.625   2.272   1.869  1.2728 -2.3025 -1.1596
 4344TIP3    H234668   2.590   2.395   1.788 -0.6676 -0.9071  1.6530
 4345TIP3   OH234669   3.488   5.237   2.194 -0.0871 -0.1405  0.0687
 4345TIP3    H134670   3.579   5.239   2.166  0.3507  3.5407  1.3103
 4345TIP3    H234671   3.438   5.241   2.112  0.9009 -0.3473 -0.5590
 4346TIP3   OH234672   0.983   6.246   1.552  0.3853  0.1715 -0.6509
 4346TIP3    H134673   1.050   6.291   1.604 -1.8635  2.9086  0.1359
 4346TIP3    H234674   1.030   6.215   1.475  3.2466 -1.4243  1.5198
 4347TIP3   OH234675   3.571   3.119   3.395  0.5091  0.5639 -0.3201
 4347TIP3    H134676   3.540   3.030   3.376 -0.0682  0.8545 -0.8132
 4347TIP3    H234677   3.536   3.139   3.482 -3.1497  1.8680 -1.8839
 4348TIP3   OH234678   5.650   4.774   3.787 -0.4735  0.4901  0.0057
 4348TIP3    H134679   5.701   4.795   3.709 -0.4906 -0.7754 -0.3817
 4348TIP3    H234680   5.701   4.809   3.860 -0.4374  1.6600 -0.5642
 4349TIP3   OH234681   6.352   5.447   1.983  0.4955  0.0368 -0.2479
 4349TIP3    H134682   6.383   5.377   2.039  0.8763  0.2507 -0.1879
 4349TIP3    H234683   6.268   5.416   1.950 -0.6759  0.6801  1.9298
 4350TIP3   OH234684   6.082   2.339   5.138 -0.1606  0.5015  0.6049
 4350TIP3    H134685   6.114   2.249   5.141  1.7188  1.1498  2.1333
 4350TIP3    H234686   6.113   2.372   5.053 -1.1214 -0.3509 -0.0957
 4351TIP3   OH234687   1.069   2.929   2.994 -0.2620  0.2868  0.0586
 4351TIP3    H134688   0.998   2.991   2.980 -0.6399 -0.0153  0.6256
 4351TIP3    H234689   1.026   2.849   3.024  0.2094 -0.2799 -0.7135
 4352TIP3   OH234690   4.157   2.144   1.299  0.0771 -0.2381  0.1785
 4352TIP3    H134691   4.105   2.201   1.354 -0.2880 -1.2563  0.9142
 4352TIP3    H234692   4.235   2.196   1.277 -0.3486  0.6072  0.6350
 4353TIP3   OH234693   4.043   1.687   2.099 -0.2744 -0.2175 -0.0691
 4353TIP3    H134694   4.060   1.637   2.179 -2.2608 -1.5653 -0.3802
 4353TIP3    H234695   4.059   1.778   2.122 -0.2519 -0.6458  1.6944
 4354TIP3   OH234696   3.677   5.878   3.149  0.4471  0.2878 -0.0308
 4354TIP3    H134697   3.714   5.875   3.061 -0.1199  1.7887 -0.3454
 4354TIP3    H234698   3.731   5.817   3.200 -0.5372 -2.2815 -1.8653
 4355TIP3   OH234699   5.616   6.396   2.313 -0.1325 -0.0007  0.0695
 4355TIP3    H134700   5.641   6.347   2.235 -2.8955 -0.0568 -0.8949
 4355TIP3    H234701   5.608   6.329   2.381  0.4385 -0.2299 -0.0820
 4356TIP3   OH234702   2.469   1.125   2.412 -0.2653 -0.4549 -0.2625
 4356TIP3    H134703   2.538   1.090   2.469 -1.0160 -0.8352  0.4415
 4356TIP3    H234704   2.499   1.212   2.389  1.1155 -1.1256 -1.1164
 4357TIP3   OH234705   3.378   4.100   2.051  0.1219  0.3338 -0.1569
 4357TIP3    H134706   3.412   4.035   1.989  0.0206  0.8796 -0.7945
 4357TIP3    H234707   3.432   4.088   2.130 -0.1075 -0.7347 -0.1464
 4358TIP3   OH234708   0.079   1.041   4.362 -0.1018  0.3890  0.2918
 4358TIP3    H134709   0.045   1.065   4.449 -0.4006  0.3128  0.1969
 4358TIP3    H234710   0.162   0.997   4.380  0.2167  1.0532  0.4983
 4359TIP3   OH234711   1.414   5.380   2.326 -0.0430 -0.4096 -0.4348
 4359TIP3    H134712   1.451   5.428   2.400  2.7682  1.8320 -3.0270
 4359TIP3    H234713   1.324   5.412   2.321  0.1499  0.5172  1.0990
 4360TIP3   OH234714   0.821   3.936   4.073  0.1413 -0.6613 -0.1851
 4360TIP3    H134715   0.885   3.991   4.118  0.0094 -0.4835 -0.2143
 4360TIP3    H234716   0.815   3.857   4.127  0.8909 -0.9789 -0.5397
 4361TIP3   OH234717   4.240   6.176   3.497 -0.2225 -0.0661 -0.0381
 4361TIP3    H134718   4.212   6.265   3.474 -0.1447  0.4472  1.7165
 4361TIP3    H234719   4.329   6.187   3.531 -0.4418 -0.7027  0.7989
 4362TIP3   OH234720   0.445   1.180   3.255  0.6528  0.3299  0.1514
 4362TIP3    H134721   0.463   1.272   3.276  0.5484  0.3678  0.0737
 4362TIP3    H234722   0.500   1.163   3.178 -0.9778  0.9610 -1.2006
 4363TIP3   OH234723   2.857   5.968   0.983  0.2938  0.3589  0.5835
 4363TIP3    H134724   2.856   5.878   0.952  1.4039  0.3952  0.4088
 4363TIP3    H234725   2.765   5.996   0.978 -0.1587 -0.9147  1.1459
 4364TIP3   OH234726   2.287   0.782   1.307  0.0105  0.5735 -0.2952
 4364TIP3    H134727   2.298   0.748   1.396 -0.7525  0.5773 -0.1896
 4364TIP3    H234728   2.247   0.868   1.319 -1.6997 -0.1123 -0.6554
 4365TIP3   OH234729   3.187   1.555   4.398 -0.1461  0.0861  0.0148
 4365TIP3    H134730   3.249   1.618   4.436 -0.1445  0.0608  0.0542
 4365TIP3    H234731   3.180   1.486   4.463  0.4470 -0.3364 -0.3620
 4366TIP3   OH234732   1.597   3.682   2.109 -0.0773 -0.0392 -0.2818
 4366TIP3    H134733   1.597   3.648   2.019 -2.5084 -2.0816  0.3590
 4366TIP3    H234734   1.540   3.621   2.157 -0.5360  2.1717  2.1836
 4367TIP3   OH234735   3.073   1.176   3.504  0.1647 -0.2166  0.5476
 4367TIP3    H134736   3.093   1.183   3.598  0.1934 -2.0713  0.7181
 4367TIP3    H234737   2.988   1.220   3.495  1.3738  2.3734  0.9066
 4368TIP3   OH234738   0.992   5.390   1.862 -0.4318  0.4640 -0.4976
 4368TIP3    H134739   1.052   5.316   1.873  0.0371  0.8579 -0.3614
 4368TIP3    H234740   0.986   5.403   1.768  0.6547  1.1825 -0.4844
 4369TIP3   OH234741   4.387   3.550   5.639 -0.0636  0.1193  0.1799
 4369TIP3    H134742   4.397   3.471   5.692  0.8110 -0.2423 -0.4934
 4369TIP3    H234743   4.317   3.599   5.682 -0.8485 -1.1610  0.4397
 4370TIP3   OH234744   1.092   3.665   2.207  0.7872  0.0077  0.4638
 4370TIP3    H134745   1.148   3.722   2.259  1.2396 -0.4259  0.4539
 4370TIP3    H234746   1.109   3.692   2.116  0.0943  0.6752  0.5166
 4371TIP3   OH234747   4.692   6.385   3.692  0.8027 -0.3765  0.9382
 4371TIP3    H134748   4.740   6.338   3.760  0.9443  0.3287  1.3342
 4371TIP3    H234749   4.750   6.456   3.665  0.6436 -0.4913  0.2531
 4372TIP3   OH234750   2.906   3.256   3.730 -0.6666 -0.3038  0.0450
 4372TIP3    H134751   2.924   3.163   3.727  0.1437 -0.1337 -0.7478
 4372TIP3    H234752   2.816   3.262   3.764 -0.8171 -1.3706 -0.1360
 4373TIP3   OH234753   1.480   6.173   0.227 -0.4789 -0.3251 -0.6307
 4373TIP3    H134754   1.396   6.174   0.181 -0.0613  0.3461 -1.4031
 4373TIP3    H234755   1.540   6.128   0.167 -0.3222 -0.9434 -0.0149
 4374TIP3   OH234756   4.996   3.016   4.729  0.3044 -0.0725 -0.8402
 4374TIP3    H134757   4.970   3.105   4.753 -1.4835 -0.6352 -0.5655
 4374TIP3    H234758   4.964   3.004   4.640 -1.3273 -1.1108 -0.1514
 4375TIP3   OH234759   3.831   3.022   5.179 -0.2350  0.1705 -0.4299
 4375TIP3    H134760   3.884   3.096   5.151  1.1576  0.0281  1.6393
 4375TIP3    H234761   3.891   2.948   5.179 -0.7439 -0.2672  0.6998
 4376TIP3   OH234762   5.205   4.492   2.630  0.0583 -0.3392  0.1940
 4376TIP3    H134763   5.277   4.555   2.624  0.1402 -0.4648 -0.1487
 4376TIP3    H234764   5.141   4.535   2.687  0.8082 -0.6205  1.2829
 4377TIP3   OH234765   1.917   4.841   3.835 -0.1135  0.5719  0.2143
 4377TIP3    H134766   1.972   4.774   3.877 -0.7988 -0.9309 -1.1693
 4377TIP3    H234767   1.859   4.791   3.777 -1.4349  2.2918 -0.0250
 4378TIP3   OH234768   6.413   0.863   2.454 -0.5347  0.0841 -0.0781
 4378TIP3    H134769   6.428   0.828   2.542 -0.9356 -3.1090 -1.1495
 4378TIP3    H234770   6.326   0.901   2.457 -0.9188 -0.8281  0.6854
 4379TIP3   OH234771   5.136   6.520   1.480 -0.5688  0.4104  0.3991
 4379TIP3    H134772   5.096   6.433   1.482 -0.0299  0.1740  1.8111
 4379TIP3    H234773   5.105   6.563   1.560  0.8903  0.7000  0.8379
 4380TIP3   OH234774   1.803   1.933   1.186  0.1441 -0.6401  0.2054
 4380TIP3    H134775   1.866   1.883   1.134 -0.9885 -3.2016  1.1390
 4380TIP3    H234776   1.775   1.873   1.255 -0.0038  1.9080  2.5487
 4381TIP3   OH234777   5.362   4.924   3.846 -0.6745 -0.0769  0.3642
 4381TIP3    H134778   5.399   4.854   3.899 -0.2617  1.0225  1.5931
 4381TIP3    H234779   5.368   5.002   3.902  0.2797  1.2650 -1.4900
 4382TIP3   OH234780   0.618   4.100   2.291  0.4855  0.0808  0.4157
 4382TIP3    H134781   0.635   4.019   2.340 -1.6302 -0.3534  0.5105
 4382TIP3    H234782   0.534   4.131   2.323 -0.5900  0.2485 -2.3031
 4383TIP3   OH234783   3.432   2.126   1.083 -0.0759 -0.2457 -0.0774
 4383TIP3    H134784   3.440   2.201   1.024  0.1780 -0.0091  0.2554
 4383TIP3    H234785   3.497   2.063   1.051  1.0786  0.4537  0.7937
 4384TIP3   OH234786   6.056   0.365   4.125 -0.0784  0.1260 -0.0077
 4384TIP3    H134787   6.096   0.325   4.048 -1.4989 -2.0330  0.3022
 4384TIP3    H234788   6.088   0.312   4.199 -1.0856  0.2611  0.5454
 4385TIP3   OH234789   5.537   6.294   0.844  0.3983  0.1821  0.0144
 4385TIP3    H134790   5.587   6.258   0.771 -0.1485  0.9064 -0.7388
 4385TIP3    H234791   5.509   6.217   0.894  1.2708 -0.2914 -0.1915
 4386TIP3   OH234792   2.253   4.924   1.615 -0.6202 -0.0856 -0.0253
 4386TIP3    H134793   2.237   4.868   1.540  0.7298 -0.5312 -0.0118
 4386TIP3    H234794   2.240   5.013   1.582 -1.5993 -0.3474 -0.3600
 4387TIP3   OH234795   1.766   0.487   3.741 -0.1439 -0.2202 -0.2297
 4387TIP3    H134796   1.729   0.460   3.826  1.0183 -1.4847 -0.0770
 4387TIP3    H234797   1.815   0.566   3.761 -0.4579 -0.1119  0.1370
 4388TIP3   OH234798   4.993   3.113   3.294  0.2476  0.2798 -0.3380
 4388TIP3    H134799   4.994   3.085   3.386  1.3272 -0.9472 -0.6920
 4388TIP3    H234800   4.919   3.066   3.255  0.0942  0.4155 -0.2127
 4389TIP3   OH234801   3.612   3.024   3.837 -0.4715 -0.0093  0.5145
 4389TIP3    H134802   3.569   3.078   3.770 -1.4356 -1.5898 -0.2085
 4389TIP3    H234803   3.549   3.020   3.909 -0.2846  0.0458  0.6825
 4390TIP3   OH234804   2.583   3.523   3.089  0.2606  0.7195 -0.3860
 4390TIP3    H134805   2.648   3.544   3.022 -0.4037  0.4601 -1.1261
 4390TIP3    H234806   2.597   3.589   3.157  1.5363  0.4468 -0.3499
 4391TIP3   OH234807   2.224   3.469   0.606 -0.1580  0.6723 -0.2519
 4391TIP3    H134808   2.128   3.473   0.608 -0.1446  0.8293  0.9764
 4391TIP3    H234809   2.243   3.386   0.563 -0.9111 -0.6153  1.7367
 4392TIP3   OH234810   4.266   3.891   1.374  0.4948 -0.2174 -0.7489
 4392TIP3    H134811   4.317   3.904   1.454  0.7484  2.0760 -1.2097
 4392TIP3    H234812   4.318   3.933   1.305 -1.3501  1.0267 -1.4656
 4393TIP3   OH234813   3.510   3.379   3.866 -0.5312  0.7334 -0.5188
 4393TIP3    H134814   3.490   3.357   3.957 -1.2105  1.0555 -0.5846
 4393TIP3    H234815   3.600   3.411   3.868  0.2216 -1.2800 -0.3099
 4394TIP3   OH234816   4.048   1.885   1.335 -0.0646 -0.1143 -0.2809
 4394TIP3    H134817   4.085   1.840   1.259  0.6063 -1.9803  1.0937
 4394TIP3    H234818   4.087   1.972   1.332  1.1825 -0.6720 -1.2039
 4395TIP3   OH234819   0.142   0.484   3.753  0.1592 -0.3261  0.4643
 4395TIP3    H134820   0.189   0.496   3.836  2.0988  1.3537 -0.7615
 4395TIP3    H234821   0.053   0.515   3.771  0.6812  0.5094  1.7938
 4396TIP3   OH234822   1.837   6.448   0.046 -0.4674  0.1748  0.3310
 4396TIP3    H134823   1.861   6.357   0.061 -1.3512 -0.1461 -0.1031
 4396TIP3    H234824   1.888   6.498   0.110  1.0745 -0.4771 -0.3339
 4397TIP3   OH234825   2.251   0.119   0.844 -0.2636 -0.0859  0.1566
 4397TIP3    H134826   2.265   0.153   0.755  1.1101  1.8724  1.0543
 4397TIP3    H234827   2.296   0.034   0.845 -0.2470 -0.1048 -0.9945
 4398TIP3   OH234828   0.382   5.900   4.485  0.4286  0.4256  0.1032
 4398TIP3    H134829   0.389   5.944   4.401  2.7435  1.8436  0.9724
 4398TIP3    H234830   0.460   5.845   4.491  0.1199  0.0666  1.1780
 4399TIP3   OH234831   2.817   3.655   4.256  0.1593  0.0820  0.3020
 4399TIP3    H134832   2.887   3.721   4.249 -0.7239  1.0777  0.6082
 4399TIP3    H234833   2.743   3.695   4.211 -0.7301 -0.2274  1.4540
 4400TIP3   OH234834   2.897   5.034   2.584 -0.2194  0.0008  0.5743
 4400TIP3    H134835   2.985   5.060   2.558 -0.7192  1.0502 -0.1562
 4400TIP3    H234836   2.883   4.949   2.542  1.3698 -1.4788  2.8221
 4401TIP3   OH234837   2.425   1.439   3.917  0.3217  0.4850  0.1802
 4401TIP3    H134838   2.448   1.389   3.995  0.7434 -1.0733 -0.9042
 4401TIP3    H234839   2.444   1.530   3.940  1.4163 -0.0573  1.5390
 4402TIP3   OH234840   6.111   2.281   1.246  0.0426 -0.7044  0.1160
 4402TIP3    H134841   6.073   2.227   1.315 -1.5605 -0.1064 -0.2567
 4402TIP3    H234842   6.098   2.231   1.166 -0.4231 -0.2705 -0.0822
 4403TIP3   OH234843   3.431   0.555   3.886 -0.1366 -0.3092 -0.1157
 4403TIP3    H134844   3.501   0.551   3.952  0.9577  0.9355 -1.1580
 4403TIP3    H234845   3.367   0.615   3.923  0.8083  0.9431 -0.4515
 4404TIP3   OH234846   6.686   6.304   4.987 -0.1835 -0.0975  0.5575
 4404TIP3    H134847   6.668   6.210   4.985 -0.4420 -0.0556  0.9707
 4404TIP3    H234848   6.608   6.343   5.025  0.6170  0.1115  2.0492
 4405TIP3   OH234849   0.361   3.927   4.187 -0.1638  0.3538  0.1311
 4405TIP3    H134850   0.436   3.976   4.154 -0.7040  0.4307 -1.0221
 4405TIP3    H234851   0.373   3.926   4.282  1.7032 -0.3218 -0.0854
 4406TIP3   OH234852   5.421   5.459   0.824  0.1608  0.3997 -0.5881
 4406TIP3    H134853   5.346   5.402   0.840 -1.1833  1.8554 -1.4463
 4406TIP3    H234854   5.387   5.548   0.836  1.3629  1.1565 -2.3391
 4407TIP3   OH234855   1.923   0.933   4.161  0.3902  0.0095 -0.1319
 4407TIP3    H134856   1.880   1.019   4.162 -0.9807 -0.6034 -1.7456
 4407TIP3    H234857   2.009   0.951   4.122 -0.2627  0.5229 -1.3952
 4408TIP3   OH234858   1.882   1.358   0.186  0.8003  0.2072  0.4273
 4408TIP3    H134859   1.857   1.291   0.249  1.3821 -1.1221 -0.7081
 4408TIP3    H234860   1.801   1.383   0.142  0.9085 -1.7949 -1.0505
 4409TIP3   OH234861   0.005   6.004   1.191 -0.1208 -0.1952  0.0124
 4409TIP3    H134862   0.040   5.977   1.105 -0.2194 -0.6925  0.1222
 4409TIP3    H234863   0.045   5.942   1.253 -0.3069 -0.0426  0.2826
 4410TIP3   OH234864   1.098   3.794   0.861 -0.5890  0.2447 -0.3178
 4410TIP3    H134865   1.036   3.738   0.814  1.2531 -2.9406  0.7399
 4410TIP3    H234866   1.048   3.828   0.936 -1.7516 -0.0213 -0.9547
 4411TIP3   OH234867   3.171   3.324   2.592 -0.5072  0.2316 -0.4483
 4411TIP3    H134868   3.190   3.411   2.625 -0.7651 -0.0068  0.3478
 4411TIP3    H234869   3.161   3.270   2.670  1.6184 -0.9568 -0.9247
 4412TIP3   OH234870   4.899   5.386   1.670  0.2204 -0.0002  0.2511
 4412TIP3    H134871   4.908   5.293   1.647  2.9816 -0.2486  1.9150
 4412TIP3    H234872   4.904   5.388   1.765 -0.5348  1.8154  0.2871
 4413TIP3   OH234873   6.659   4.560   5.470 -0.1358 -0.5254 -0.3072
 4413TIP3    H134874   6.671   4.497   5.542 -0.8964 -0.6341 -0.2623
 4413TIP3    H234875   6.567   4.584   5.476 -0.7145 -1.9528 -2.3940
 4414TIP3   OH234876   6.424   5.692   4.807 -0.0700  0.0972  0.0010
 4414TIP3    H134877   6.491   5.655   4.864  0.3934 -0.2602 -0.7510
 4414TIP3    H234878   6.348   5.705   4.863 -0.3065 -2.1168  0.2799
 4415TIP3   OH234879   2.355   2.972   2.588  0.3952 -0.8781 -0.5269
 4415TIP3    H134880   2.351   3.021   2.506  0.6185  0.1517  0.0697
 4415TIP3    H234881   2.357   3.038   2.657  0.3020 -1.7234  0.3215
 4416TIP3   OH234882   1.438   4.626   1.248  0.6436 -0.1007  0.3754
 4416TIP3    H134883   1.494   4.687   1.200  2.1270 -1.1864  0.6311
 4416TIP3    H234884   1.372   4.681   1.289  0.4924  1.0550 -1.3090
 4417TIP3   OH234885   3.416   3.821   2.435 -0.4477  0.3956 -0.4396
 4417TIP3    H134886   3.486   3.763   2.406 -0.0742  1.1508 -1.0824
 4417TIP3    H234887   3.359   3.765   2.488 -0.3837 -0.6839 -1.4660
 4418TIP3   OH234888   3.952   1.141   4.501 -0.0481  0.0380  0.3481
 4418TIP3    H134889   4.018   1.201   4.535  0.6556 -0.7222  0.3344
 4418TIP3    H234890   3.944   1.074   4.568  1.3276 -1.4610 -0.9145
 4419TIP3   OH234891   1.174   6.740   4.768 -0.3287  0.1979 -0.3528
 4419TIP3    H134892   1.125   6.773   4.843 -1.0640  1.2528 -1.2660
 4419TIP3    H234893   1.250   6.798   4.761 -1.2694  1.3527 -1.5517
 4420TIP3   OH234894   3.980   3.597   2.682 -0.1498 -0.9037 -0.6970
 4420TIP3    H134895   4.013   3.657   2.748 -1.4430  0.3623 -1.1534
 4420TIP3    H234896   3.891   3.577   2.710  0.4289 -3.1686 -0.2169
 4421TIP3   OH234897   6.093   1.179   4.036  0.0189  0.1166  0.3144
 4421TIP3    H134898   6.126   1.217   3.955 -2.1583  1.1328 -0.1777
 4421TIP3    H234899   6.149   1.216   4.105  2.0215 -0.9194 -0.6747
 4422TIP3   OH234900   5.819   6.625   1.396 -0.4825  0.7010 -0.4533
 4422TIP3    H134901   5.744   6.613   1.454 -0.5696  0.6189 -0.5836
 4422TIP3    H234902   5.781   6.652   1.313 -0.5498 -1.3726 -1.1672
 4423TIP3   OH234903   5.438   6.644   4.422  0.3902  0.5162  0.2538
 4423TIP3    H134904   5.510   6.585   4.444  0.9147  1.4519  1.1656
 4423TIP3    H234905   5.359   6.597   4.448  0.9005  0.9912  2.9713
 4424TIP3   OH234906   5.088   4.014   2.660  0.2025 -0.5327  0.5543
 4424TIP3    H134907   5.145   3.961   2.605  0.6923 -0.3863  0.9096
 4424TIP3    H234908   5.136   4.022   2.743  0.3737  0.8969  0.3288
 4425TIP3   OH234909   5.519   5.846   1.949  0.0056  0.1958  0.4442
 4425TIP3    H134910   5.505   5.779   1.882  1.2995  2.3891 -2.2324
 4425TIP3    H234911   5.443   5.838   2.007 -0.4410 -2.7920 -0.3858
 4426TIP3   OH234912   5.053   1.323   2.320  0.1453  0.1667  0.4698
 4426TIP3    H134913   4.998   1.401   2.311  0.9124  1.8171  6.3659
 4426TIP3    H234914   4.992   1.253   2.346 -0.0514 -0.3652 -1.2613
 4427TIP3   OH234915   2.061   4.811   3.260 -0.2483  0.1029  0.3409
 4427TIP3    H134916   2.071   4.901   3.228 -1.9778  0.9431  1.9886
 4427TIP3    H234917   2.021   4.764   3.186  2.7218 -0.0048 -1.3759
 4428TIP3   OH234918   2.297   0.881   4.882  0.5918  0.1670  0.0619
 4428TIP3    H134919   2.333   0.970   4.872  0.1886  0.2642 -0.5324
 4428TIP3    H234920   2.317   0.838   4.799  2.1514 -0.8043  0.9007
 4429TIP3   OH234921   4.496   6.139   3.279  0.7645 -0.1862 -0.4222
 4429TIP3    H134922   4.577   6.100   3.247  0.5943 -0.6042 -0.3529
 4429TIP3    H234923   4.516   6.167   3.368  0.6694 -0.8274 -0.1908
 4430TIP3   OH234924   2.596   3.041   3.933 -0.4870 -0.1387  0.2302
 4430TIP3    H134925   2.578   2.960   3.885 -1.1305 -0.2393  0.6299
 4430TIP3    H234926   2.532   3.041   4.004  0.2276  0.1731  0.8915
 4431TIP3   OH234927   4.770   4.844   2.982  0.8478 -0.5497 -0.6359
 4431TIP3    H134928   4.810   4.924   2.948 -0.0139 -0.5735 -1.7529
 4431TIP3    H234929   4.685   4.873   3.016  1.4385 -0.6310  1.0079
 4432TIP3   OH234930   5.196   5.479   2.742  0.3164  0.3606  0.1094
 4432TIP3    H134931   5.139   5.437   2.678 -0.3263  1.3802 -0.0102
 4432TIP3    H234932   5.165   5.569   2.746  2.1960  1.0697 -0.2816
 4433TIP3   OH234933   6.154   3.958   2.606 -0.2206  0.2022  0.7022
 4433TIP3    H134934   6.205   3.885   2.641 -0.5044  0.9070  2.7221
 4433TIP3    H234935   6.065   3.923   2.600 -0.0997 -0.0417  0.3043
 4434TIP3   OH234936   6.246   3.190   2.721 -0.0128  0.1193  0.0827
 4434TIP3    H134937   6.213   3.204   2.810 -0.0382  0.4496  0.0251
 4434TIP3    H234938   6.341   3.180   2.731 -0.1060 -0.6125  0.2266
 4435TIP3   OH234939   4.013   2.300   2.879  0.3499 -0.0654 -0.7294
 4435TIP3    H134940   4.079   2.288   2.811 -0.5832  0.8168 -1.8389
 4435TIP3    H234941   3.932   2.267   2.841 -0.3745  1.2527 -0.4136
 4436TIP3   OH234942   0.637   1.355   3.576  0.0177  0.1950  0.2292
 4436TIP3    H134943   0.665   1.413   3.505 -1.4946 -0.2648 -0.8008
 4436TIP3    H234944   0.708   1.360   3.640  0.7582  1.7622 -0.6399
 4437TIP3   OH234945   5.796   5.039   2.451 -0.1322  0.0787  0.9657
 4437TIP3    H134946   5.785   5.133   2.432  1.8760  0.4571  1.4619
 4437TIP3    H234947   5.739   4.995   2.388 -1.0398  1.6089  0.6557
 4438TIP3   OH234948   1.334   1.355   2.971  0.4102 -0.5635  0.4029
 4438TIP3    H134949   1.419   1.385   2.939 -0.3281  1.4079  0.1476
 4438TIP3    H234950   1.329   1.391   3.060 -1.2413  1.7948 -0.5339
 4439TIP3   OH234951   5.599   4.476   3.207  0.6460 -0.2591  0.2254
 4439TIP3    H134952   5.522   4.453   3.156  0.7250  0.5431 -0.2690
 4439TIP3    H234953   5.565   4.499   3.294  0.0282  2.5184 -0.6822
 4440TIP3   OH234954   2.890   1.161   1.701  0.2213  0.5635  0.4917
 4440TIP3    H134955   2.834   1.136   1.775  0.3019  2.5039  1.2734
 4440TIP3    H234956   2.971   1.191   1.741  0.0764  2.1292 -0.3305
 4441TIP3   OH234957   3.553   0.828   1.973 -0.1581  0.0314 -0.3045
 4441TIP3    H134958   3.482   0.796   1.917 -0.8839  3.5508 -1.6522
 4441TIP3    H234959   3.611   0.875   1.914 -0.3765  3.0178  1.6458
 4442TIP3   OH234960   4.018   0.690   0.734  0.2617  0.0149  0.0021
 4442TIP3    H134961   4.034   0.671   0.826 -3.0824  0.9591  0.8815
 4442TIP3    H234962   4.072   0.626   0.687  1.1240 -1.2908  2.5887
 4443TIP3   OH234963   4.503   0.123   1.838  0.2822 -0.0579  0.5710
 4443TIP3    H134964   4.462   0.092   1.919  0.1258  1.2913  1.0486
 4443TIP3    H234965   4.594   0.095   1.845 -0.4051 -2.8373 -0.3688
 4444TIP3   OH234966   0.873   5.760   3.308 -0.1583  1.1445 -0.7280
 4444TIP3    H134967   0.946   5.716   3.264  0.0834  1.4562 -0.6499
 4444TIP3    H234968   0.908   5.846   3.331 -0.4676  1.1968 -0.4435
 4445TIP3   OH234969   4.957   5.430   2.944  0.3836  0.5336 -0.5843
 4445TIP3    H134970   4.898   5.465   2.877 -0.4339 -1.1677 -0.8226
 4445TIP3    H234971   5.034   5.400   2.896  0.7661  1.3080 -0.4694
 4446TIP3   OH234972   3.413   2.168   5.020 -0.3246  0.9277  0.1114
 4446TIP3    H134973   3.369   2.196   5.100 -0.4544  1.2489 -0.0691
 4446TIP3    H234974   3.402   2.242   4.960 -2.1240 -0.1262 -0.9442
 4447TIP3   OH234975   3.151   5.487   4.981 -0.2671  0.6468 -0.7204
 4447TIP3    H134976   3.059   5.510   4.988 -0.2969  0.3463 -0.0993
 4447TIP3    H234977   3.155   5.426   4.907 -0.6657  0.1423 -0.3282
 4448TIP3   OH234978   4.637   5.081   4.026 -0.0779 -0.3408 -0.4454
 4448TIP3    H134979   4.606   5.138   4.096  1.2352 -1.1575  0.8571
 4448TIP3    H234980   4.728   5.106   4.013  0.0350 -1.0141 -1.0197
 4449TIP3   OH234981   2.357   2.241   4.021  0.4166  0.5779  0.2815
 4449TIP3    H134982   2.343   2.235   4.116 -0.6798  1.9675  0.2372
 4449TIP3    H234983   2.291   2.303   3.991  1.8958  1.5366 -1.1299
 4450TIP3   OH234984   0.381   2.636   4.024  0.2378  0.2582  0.5262
 4450TIP3    H134985   0.295   2.614   4.060  0.3878  1.0160  1.3536
 4450TIP3    H234986   0.362   2.664   3.934 -0.3834  0.4824  0.7208
 4451TIP3   OH234987   1.180   2.755   2.232  0.1283 -0.6623 -0.1583
 4451TIP3    H134988   1.162   2.805   2.152  0.5246  0.0777  0.2001
 4451TIP3    H234989   1.254   2.699   2.210  0.0996 -0.6146 -0.3785
 4452TIP3   OH234990   2.246   0.037   1.461  0.8778 -1.4786 -0.2680
 4452TIP3    H134991   2.325  -0.005   1.494  0.4856 -1.2400  1.0143
 4452TIP3    H234992   2.221  -0.015   1.385  2.3750 -1.4257 -0.8318
 4453TIP3   OH234993   2.404   2.727   9.021  0.0428 -0.4298 -0.1140
 4453TIP3    H134994   2.475   2.696   9.077 -1.2203  0.8741  2.3632
 4453TIP3    H234995   2.444   2.798   8.970  0.1160  1.9573  2.9782
 4454TIP3   OH234996   2.254   3.954   1.367 -0.3573 -0.1386  0.0656
 4454TIP3    H134997   2.278   3.979   1.278 -1.2861 -0.7885 -0.3870
 4454TIP3    H234998   2.337   3.932   1.409  0.0742 -0.0338 -0.7080
 4455TIP3   OH234999   4.632   0.566   1.099 -0.2801 -0.4632 -0.0909
 4455TIP3    H135000   4.645   0.514   1.179  0.3696 -0.2021 -0.0201
 4455TIP3    H235001   4.692   0.640   1.109 -0.3177 -0.3428 -0.7494
 4456TIP3   OH235002   5.398   1.156   3.014 -0.0023  0.7347  0.3521
 4456TIP3    H135003   5.449   1.078   3.035  0.1785  0.7732  0.0595
 4456TIP3    H235004   5.336   1.127   2.947  0.5033  1.0007 -0.2294
 4457TIP3   OH235005   1.213   4.601   3.080 -0.3681 -0.3989 -0.4671
 4457TIP3    H135006   1.212   4.697   3.072  0.5541 -0.1918  1.3368
 4457TIP3    H235007   1.295   4.582   3.126 -0.0333 -2.1669 -1.6950
 4458TIP3   OH235008   5.091   5.534   4.831  0.0146  0.3070  0.0190
 4458TIP3    H135009   5.089   5.555   4.924  1.3298  0.8298 -0.0573
 4458TIP3    H235010   5.028   5.595   4.791 -0.4915  0.1323  0.5412
 4459TIP3   OH235011   5.942   3.018   4.176  0.0978  0.3280 -0.1051
 4459TIP3    H135012   5.992   3.033   4.256 -0.1440 -0.0003  0.1119
 4459TIP3    H235013   6.008   2.999   4.109  0.6331  4.0862 -0.8889
 4460TIP3   OH235014   4.652   5.503   3.246  0.5238 -0.4295  0.2488
 4460TIP3    H135015   4.583   5.438   3.237  0.0135  0.3666 -2.1289
 4460TIP3    H235016   4.687   5.488   3.334 -2.9090 -0.6125  1.7407
 4461TIP3   OH235017   0.216   0.859   3.385 -0.5565 -0.1485 -0.1092
 4461TIP3    H135018   0.297   0.809   3.378 -1.1793 -1.1488 -0.2470
 4461TIP3    H235019   0.188   0.871   3.294 -0.0780  1.0402 -0.1254
 4462TIP3   OH235020   6.457   1.258   0.694 -0.0204  0.3834 -0.0398
 4462TIP3    H135021   6.445   1.350   0.718  0.5678  0.9267 -1.7006
 4462TIP3    H235022   6.386   1.212   0.738 -0.4454  1.6633  0.6502
 4463TIP3   OH235023   1.426   4.005   1.877 -0.2599  0.0978  0.5347
 4463TIP3    H135024   1.394   3.918   1.852  1.0172 -0.2300 -0.0390
 4463TIP3    H235025   1.456   3.994   1.967 -1.3449  0.3110  0.9415
 4464TIP3   OH235026   3.263   0.910   4.882 -0.0969  0.3842 -0.4915
 4464TIP3    H135027   3.214   0.927   4.962  0.5287 -0.2408  0.0380
 4464TIP3    H235028   3.310   0.829   4.899 -0.2744  0.0151 -1.6505
 4465TIP3   OH235029   1.122   3.968   3.306  0.2124 -0.1060  0.6549
 4465TIP3    H135030   1.097   3.892   3.359 -0.3537 -0.1514  0.3336
 4465TIP3    H235031   1.040   4.017   3.294  0.4198  0.1375  0.1920
 4466TIP3   OH235032   5.821   6.026   3.675  0.5929 -0.2517 -0.2356
 4466TIP3    H135033   5.905   6.072   3.663 -1.0191  2.9193 -0.5555
 4466TIP3    H235034   5.769   6.053   3.599 -2.0495  1.3482  1.9655
 4467TIP3   OH235035   2.746   5.265   2.162 -0.5122  0.1495  0.3790
 4467TIP3    H135036   2.796   5.269   2.244  0.7843  2.7312 -0.4018
 4467TIP3    H235037   2.764   5.349   2.119 -2.0326 -0.6499 -2.0550
 4468TIP3   OH235038   6.485   6.367   3.017 -0.4714 -0.2739 -0.0756
 4468TIP3    H135039   6.468   6.406   2.932 -0.8477  0.2822  0.2455
 4468TIP3    H235040   6.455   6.276   3.008 -0.2275 -0.3054 -0.6202
 4469TIP3   OH235041   4.559   5.458   1.883 -0.2308 -0.0203  0.1030
 4469TIP3    H135042   4.599   5.526   1.829  1.0709 -2.3809 -2.1014
 4469TIP3    H235043   4.580   5.484   1.973  1.7581  1.5788 -0.7441
 4470TIP3   OH235044   1.735   0.051   1.473 -0.1723  0.5001 -0.0209
 4470TIP3    H135045   1.670   0.067   1.540  0.6326 -1.0848  1.2047
 4470TIP3    H235046   1.770  -0.036   1.493  0.7047  0.3422 -1.9827
 4471TIP3   OH235047   5.948   1.783   2.725 -0.6039  0.4359  0.1191
 4471TIP3    H135048   5.864   1.813   2.690 -1.1002  0.5877  1.3883
 4471TIP3    H235049   5.991   1.863   2.755  1.1271  0.7135 -2.7399
 4472TIP3   OH235050   3.700   4.994   0.529  0.1486  0.4388  0.4079
 4472TIP3    H135051   3.637   4.929   0.497 -1.0583  0.9868  1.6056
 4472TIP3    H235052   3.782   4.970   0.485 -0.7072 -0.7112 -0.6587
 4473TIP3   OH235053   1.241   1.297   4.249  0.1660  0.0271  0.6196
 4473TIP3    H135054   1.278   1.356   4.315  1.5530  0.2325 -0.2972
 4473TIP3    H235055   1.189   1.355   4.193  0.4347  0.1648  0.5074
 4474TIP3   OH235056   2.543   0.095   3.998 -0.2983  0.4463 -0.1570
 4474TIP3    H135057   2.475   0.080   3.932 -0.2936  1.1674 -0.3280
 4474TIP3    H235058   2.539   0.189   4.016  0.0490  0.3415  0.4938
 4475TIP3   OH235059   1.733   4.486   3.214  0.2148 -0.5631 -0.6541
 4475TIP3    H135060   1.657   4.527   3.255 -0.0159 -0.0881 -1.5065
 4475TIP3    H235061   1.780   4.559   3.174  0.9669 -0.8898 -0.3780
 4476TIP3   OH235062   4.973   4.467   3.359 -0.0927  0.3576 -0.3612
 4476TIP3    H135063   5.058   4.510   3.353 -0.2718  0.5467 -1.9968
 4476TIP3    H235064   4.974   4.401   3.289 -0.6850 -0.7695  0.6434
 4477TIP3   OH235065   3.281   5.492   3.833 -0.0459 -0.6479  0.2337
 4477TIP3    H135066   3.329   5.516   3.912  1.1742 -1.4974 -0.2196
 4477TIP3    H235067   3.274   5.573   3.783 -2.4289  0.3185  1.9836
 4478TIP3   OH235068   0.469   6.510   1.420  0.0616 -0.1338  0.0045
 4478TIP3    H135069   0.476   6.419   1.449 -1.5927 -0.6514 -1.0746
 4478TIP3    H235070   0.555   6.529   1.383  1.3120 -0.3340  2.6244
 4479TIP3   OH235071   4.567   4.968   4.875 -0.0874 -0.8473  0.7753
 4479TIP3    H135072   4.617   4.913   4.936 -0.0463 -0.0232  1.5033
 4479TIP3    H235073   4.620   5.047   4.864 -0.5265 -0.6022  0.3752
 4480TIP3   OH235074   0.861   3.973   2.636  0.1072 -0.1303 -0.0482
 4480TIP3    H135075   0.932   4.035   2.651 -0.8274  0.9288  0.1559
 4480TIP3    H235076   0.905   3.891   2.613  1.3728  0.7949 -1.1329
 4481TIP3   OH235077   3.006   4.568   4.107 -0.2846  0.1872  0.1835
 4481TIP3    H135078   3.087   4.589   4.154  0.3885 -0.1723 -0.7825
 4481TIP3    H235079   2.939   4.622   4.149  0.6719  1.3795  0.2299
 4482TIP3   OH235080   2.128   5.597   4.117 -0.2750  0.3771  0.2152
 4482TIP3    H135081   2.166   5.561   4.037  1.3057 -0.6137  1.3478
 4482TIP3    H235082   2.146   5.691   4.112  2.4451 -0.0455  0.6786
 4483TIP3   OH235083   1.589   1.481   0.735 -0.7889 -0.3976  0.6004
 4483TIP3    H135084   1.644   1.403   0.743 -2.3101 -1.4217  1.5159
 4483TIP3    H235085   1.644   1.544   0.689  0.2571 -2.2396 -0.8204
 4484TIP3   OH235086   4.222   4.330   3.598 -0.4599  0.1842  0.5851
 4484TIP3    H135087   4.311   4.310   3.625 -0.1379 -1.2844 -1.3221
 4484TIP3    H235088   4.229   4.409   3.544 -0.3024  0.0466  0.4047
 4485TIP3   OH235089   2.575   6.414   0.265 -0.0008  0.0785  0.2999
 4485TIP3    H135090   2.551   6.449   0.351  0.4747  0.3128  0.3355
 4485TIP3    H235091   2.670   6.410   0.266  0.0283  0.6220 -0.4311
 4486TIP3   OH235092   1.869   5.876   4.420 -0.0165 -0.1358  0.3970
 4486TIP3    H135093   1.910   5.830   4.347  0.6129 -1.6679  1.6511
 4486TIP3    H235094   1.852   5.808   4.485  0.6946  1.3486  2.2419
 4487TIP3   OH235095   4.235   0.439   1.955 -0.3822 -0.1294  0.2444
 4487TIP3    H135096   4.212   0.505   1.890  1.1228  2.0937  1.7906
 4487TIP3    H235097   4.319   0.403   1.925 -0.4204 -0.1828  0.2015
 4488TIP3   OH235098   4.506   5.916   4.962 -0.1133 -0.8731 -0.4353
 4488TIP3    H135099   4.500   5.938   4.869  0.6394 -0.8997 -0.5021
 4488TIP3    H235100   4.600   5.907   4.978 -0.3039 -2.3972 -0.0241
 4489TIP3   OH235101   0.714   2.548   2.717  0.3466  0.3911  0.1669
 4489TIP3    H135102   0.798   2.513   2.748  0.8744  1.0409 -0.4741
 4489TIP3    H235103   0.716   2.640   2.744  0.4898  0.7797 -1.0950
 4490TIP3   OH235104   6.427   1.169   1.537  0.6126  0.5834 -0.4252
 4490TIP3    H135105   6.463   1.088   1.573  0.5175  1.1137  0.8953
 4490TIP3    H235106   6.333   1.165   1.558  0.5578  0.9008 -0.6064
 4491TIP3   OH235107   3.611   3.768   0.381  0.5311  0.0311  0.0097
 4491TIP3    H135108   3.591   3.711   0.455 -1.7712 -0.3661 -0.8214
 4491TIP3    H235109   3.641   3.850   0.421 -0.2285 -0.3244  1.3689
 4492TIP3   OH235110   2.425   4.633   1.044 -0.5124 -0.2563  0.8147
 4492TIP3    H135111   2.357   4.614   0.978 -0.0602  0.1684  0.2151
 4492TIP3    H235112   2.424   4.728   1.051  0.8728 -0.1512 -0.1252
 4493TIP3   OH235113   0.740   3.595   3.903 -0.1119  0.3675  0.8076
 4493TIP3    H135114   0.729   3.674   3.851  0.8656 -1.3170 -2.2657
 4493TIP3    H235115   0.829   3.601   3.937 -0.2680  0.8750  1.1251
 4494TIP3   OH235116   4.848   4.381   5.577  0.2672  0.3788  0.2370
 4494TIP3    H135117   4.908   4.324   5.625 -1.0453 -1.0487  0.2533
 4494TIP3    H235118   4.761   4.343   5.591 -0.5329  1.7561 -0.6781
 4495TIP3   OH235119   2.655   4.393   4.055 -0.3423  0.5114  0.2826
 4495TIP3    H135120   2.651   4.453   3.981 -1.2093  0.4869  0.2992
 4495TIP3    H235121   2.664   4.306   4.015  2.8197  0.7071  0.2677
 4496TIP3   OH235122   5.535   6.750   5.043 -0.2084 -0.0813  0.0109
 4496TIP3    H135123   5.621   6.733   5.079  0.2862 -0.8413 -1.4192
 4496TIP3    H235124   5.552   6.790   4.957 -1.0704 -3.4087 -1.9093
 4497TIP3   OH235125   1.508   0.378   1.416 -0.2207  0.0294  0.5552
 4497TIP3    H135126   1.480   0.406   1.329  0.9932 -0.7474 -0.1028
 4497TIP3    H235127   1.567   0.305   1.400 -1.6527 -1.5705  2.1167
 4498TIP3   OH235128   2.248   1.070   1.389 -0.1338 -0.8872 -0.3533
 4498TIP3    H135129   2.253   1.162   1.417  1.4728 -1.0695  0.0819
 4498TIP3    H235130   2.237   1.075   1.294  1.1708 -0.2146 -0.4912
 4499TIP3   OH235131   0.113   1.155   3.280  0.2485  0.0071  0.4090
 4499TIP3    H135132   0.166   1.092   3.328  0.1203  0.5103  1.2432
 4499TIP3    H235133   0.024   1.123   3.288  0.3865 -0.6983 -0.7691
 4500TIP3   OH235134   2.888   3.822   1.683 -0.0701  0.3808 -0.0518
 4500TIP3    H135135   2.919   3.751   1.627  0.8006  1.7161 -1.3355
 4500TIP3    H235136   2.811   3.856   1.638  0.5686  1.3920 -0.4027
 4501TIP3   OH235137   6.702   1.632   2.601  0.6511  0.2233 -0.4815
 4501TIP3    H135138   6.659   1.616   2.517  1.9009 -1.7971 -0.7912
 4501TIP3    H235139   6.641   1.596   2.666 -0.2094  1.5821 -0.4889
 4502TIP3   OH235140   5.394   1.835   2.718  0.7744  0.2296  1.0801
 4502TIP3    H135141   5.392   1.739   2.717  0.0837  0.2414  0.5233
 4502TIP3    H235142   5.319   1.860   2.772 -0.8281  0.4670 -1.1234
 4503TIP3   OH235143   0.436   4.219   5.666 -0.2987 -0.4074 -0.3208
 4503TIP3    H135144   0.393   4.304   5.651  0.3034  0.2676  1.4985
 4503TIP3    H235145   0.363   4.157   5.673 -1.0912  0.6345  2.1849
 4504TIP3   OH235146   6.246   1.672   3.635 -0.4390 -0.4977  0.2794
 4504TIP3    H135147   6.338   1.699   3.637 -0.0676 -1.6484 -0.7613
 4504TIP3    H235148   6.199   1.748   3.669  0.7243  0.8518 -0.9838
 4505TIP3   OH235149   6.522   4.335   1.750 -0.0923  0.3461  0.0293
 4505TIP3    H135150   6.485   4.297   1.830 -0.5839  0.6635 -0.0504
 4505TIP3    H235151   6.514   4.265   1.685 -1.0279  0.5922 -0.1268
 4506TIP3   OH235152   5.271   1.319   3.965 -0.5637  0.0718  0.3091
 4506TIP3    H135153   5.364   1.342   3.971 -0.6201  0.1845  0.7911
 4506TIP3    H235154   5.232   1.388   3.913 -0.4871  0.3550  0.6234
 4507TIP3   OH235155   4.643   3.671   1.688  0.2353 -0.3993 -0.1293
 4507TIP3    H135156   4.628   3.765   1.680 -1.7563 -0.6904 -0.3678
 4507TIP3    H235157   4.699   3.662   1.765 -0.4389  0.9401  0.5510
 4508TIP3   OH235158   5.325   0.008   2.350 -0.1362 -0.2402  0.2688
 4508TIP3    H135159   5.412  -0.011   2.386  0.1971  0.9653  0.1453
 4508TIP3    H235160   5.340   0.078   2.287 -1.2624  0.3066  0.5819
 4509TIP3   OH235161   0.946   2.534   5.179  0.3242 -0.2389  0.3258
 4509TIP3    H135162   0.999   2.544   5.100  0.6374  0.6709  0.6399
 4509TIP3    H235163   0.977   2.453   5.220  1.2738  0.1326  0.3510
 4510TIP3   OH235164   1.052   0.109   1.569  0.0986  0.0449  0.4304
 4510TIP3    H135165   1.047   0.069   1.655 -0.1293  0.9649  0.8550
 4510TIP3    H235166   0.996   0.186   1.575 -0.2511 -0.1024 -0.6648
 4511TIP3   OH235167   4.695   4.412   5.265 -0.2340  0.3480 -0.5317
 4511TIP3    H135168   4.760   4.469   5.306  0.1292 -0.3698 -0.0970
 4511TIP3    H235169   4.738   4.380   5.186  0.9227 -2.0269  0.9434
 4512TIP3   OH235170   5.377   4.178   1.869  0.4367 -0.1366  0.2164
 4512TIP3    H135171   5.424   4.116   1.925 -1.7977 -1.8431  0.3405
 4512TIP3    H235172   5.349   4.125   1.794 -1.0382  0.8457  0.0369
 4513TIP3   OH235173   5.652   2.307   1.207 -0.0851 -0.0100 -0.0543
 4513TIP3    H135174   5.720   2.371   1.190 -0.8058  1.9224  3.4372
 4513TIP3    H235175   5.639   2.309   1.302 -3.8157 -1.4951 -0.3310
 4514TIP3   OH235176   3.654   5.619   4.596  0.3088  0.3463  0.2983
 4514TIP3    H135177   3.615   5.692   4.548  1.1297  1.4835  1.2961
 4514TIP3    H235178   3.702   5.570   4.529 -0.2942  0.6887 -0.4048
 4515TIP3   OH235179   2.342   6.261   2.661 -0.2728  0.2044 -0.5321
 4515TIP3    H135180   2.397   6.245   2.584 -0.9665  0.4534 -1.0918
 4515TIP3    H235181   2.329   6.174   2.700  1.6941  0.3008  0.4559
 4516TIP3   OH235182   4.100   0.686   4.352 -0.1567 -0.0860  0.4007
 4516TIP3    H135183   4.054   0.762   4.316 -0.5288 -0.3902  0.2303
 4516TIP3    H235184   4.031   0.629   4.384  0.1759  0.4312  2.1533
 4517TIP3   OH235185   5.573   6.668   2.416 -0.8934 -0.0803  0.4150
 4517TIP3    H135186   5.667   6.667   2.431 -0.3362 -0.9244 -2.4398
 4517TIP3    H235187   5.544   6.579   2.435 -1.0559  0.0706  0.8918
 4518TIP3   OH235188   5.586   1.534   3.312  0.0698 -0.6080  0.1406
 4518TIP3    H135189   5.536   1.453   3.321 -0.7236 -0.0264  1.0415
 4518TIP3    H235190   5.538   1.585   3.247  1.1855 -1.2866 -1.2934
 4519TIP3   OH235191   3.461   3.503   1.625  0.2217  0.1231 -0.6343
 4519TIP3    H135192   3.543   3.465   1.656  0.9255  0.6912 -1.7497
 4519TIP3    H235193   3.471   3.509   1.530 -1.8717 -1.5276 -1.0241
 4520TIP3   OH235194   0.082   0.874   3.642 -0.2421 -0.2834 -0.4203
 4520TIP3    H135195   0.013   0.939   3.625  0.0609  0.2197  0.2214
 4520TIP3    H235196   0.133   0.872   3.560 -0.9560 -0.5872 -0.8621
 4521TIP3   OH235197   6.259   5.205   1.787 -0.0363 -0.1535 -0.7250
 4521TIP3    H135198   6.307   5.251   1.719 -0.8781  2.4603  0.3152
 4521TIP3    H235199   6.327   5.158   1.836  1.0168  0.6260 -1.3834
 4522TIP3   OH235200   3.624   6.427   4.003  0.2933  0.0773  0.3362
 4522TIP3    H135201   3.659   6.497   4.058 -0.5626 -0.5386  1.7269
 4522TIP3    H235202   3.551   6.392   4.053  1.2794 -2.4531  0.1479
 4523TIP3   OH235203   1.581   1.663   2.236 -0.6648 -0.4171  0.4548
 4523TIP3    H135204   1.539   1.745   2.259  2.0075  0.7174  1.8039
 4523TIP3    H235205   1.608   1.625   2.319  1.8460 -0.4733 -0.2946
 4524TIP3   OH235206   2.579   4.414   1.175  0.0291 -0.2274 -0.1671
 4524TIP3    H135207   2.495   4.392   1.215 -0.0576 -2.6486 -1.4651
 4524TIP3    H235208   2.558   4.483   1.112 -0.5502  0.7518  1.0690
 4525TIP3   OH235209   1.729   2.561   3.970  0.3344  0.0689 -0.0323
 4525TIP3    H135210   1.808   2.510   3.951  0.0593 -0.3882  0.0505
 4525TIP3    H235211   1.704   2.534   4.058 -0.7546 -0.8967 -0.6095
 4526TIP3   OH235212   6.234   0.488   3.723 -0.4078 -0.9039  0.2400
 4526TIP3    H135213   6.251   0.403   3.683 -0.7487 -0.4284 -0.9424
 4526TIP3    H235214   6.141   0.487   3.744 -0.6883 -0.3827 -0.8969
 4527TIP3   OH235215   1.893   3.201   1.745 -1.0183  0.2697  0.5357
 4527TIP3    H135216   1.894   3.105   1.737 -0.9932  0.3356 -0.3713
 4527TIP3    H235217   1.841   3.231   1.670  0.4488  1.0438 -0.2126
 4528TIP3   OH235218   2.791   2.613   1.162 -0.0326  0.2118 -0.4868
 4528TIP3    H135219   2.751   2.540   1.210 -0.1785  1.2256  0.9992
 4528TIP3    H235220   2.725   2.638   1.098  0.2656 -1.3327 -1.4631
 4529TIP3   OH235221   2.008   0.552   3.555  0.5532  0.0886 -0.4229
 4529TIP3    H135222   2.063   0.534   3.478  2.0700  2.8380 -0.1214
 4529TIP3    H235223   2.071   0.574   3.624 -0.8677  0.8242  0.6734
 4530TIP3   OH235224   1.910   2.902   1.333 -0.3437 -0.2189 -0.2415
 4530TIP3    H135225   1.997   2.932   1.359 -0.0625  0.3779 -1.7635
 4530TIP3    H235226   1.922   2.867   1.245 -1.0030 -3.3700  0.7941
 4531TIP3   OH235227   0.727   2.990   4.107 -0.5987  0.4431 -0.0321
 4531TIP3    H135228   0.736   2.915   4.166 -0.0745  0.3122 -0.2702
 4531TIP3    H235229   0.636   2.987   4.077 -0.9265  0.6212  0.9138
 4532TIP3   OH235230   6.638   1.435   1.033 -0.1550  0.3261  0.1050
 4532TIP3    H135231   6.711   1.484   0.995  0.6941 -0.9246  0.0555
 4532TIP3    H235232   6.619   1.481   1.115  0.6000  0.7491  0.0578
 4533TIP3   OH235233   6.596   2.048   4.969 -0.7635  0.1654 -0.5416
 4533TIP3    H135234   6.562   1.970   4.926 -0.7084  0.9678 -2.0982
 4533TIP3    H235235   6.522   2.080   5.021 -0.5665 -1.2854  0.7083
 4534TIP3   OH235236   3.162   3.423   4.721 -0.1676 -0.1985 -0.2031
 4534TIP3    H135237   3.119   3.491   4.773 -0.9208  0.0896 -1.1692
 4534TIP3    H235238   3.121   3.342   4.749 -0.4708 -0.0607 -0.2454
 4535TIP3   OH235239   4.073   5.881   3.316 -0.2575  0.6258  0.3393
 4535TIP3    H135240   4.163   5.890   3.286 -0.5978  0.5542 -0.7255
 4535TIP3    H235241   4.071   5.795   3.359 -0.4816 -0.6991 -2.1680
 4536TIP3   OH235242   5.330   1.384   1.416 -0.2850 -0.5516  0.1520
 4536TIP3    H135243   5.413   1.429   1.403  0.7281 -2.3147  0.1770
 4536TIP3    H235244   5.288   1.386   1.329  0.4792 -0.9310 -0.2394
 4537TIP3   OH235245   3.496   4.450   3.613 -0.0909  0.0810  0.0522
 4537TIP3    H135246   3.419   4.417   3.565  1.5142 -0.6789 -2.1911
 4537TIP3    H235247   3.563   4.383   3.599  0.7060  0.1821  2.9148
 4538TIP3   OH235248   3.704   1.448   2.615 -0.0754  0.7103 -0.0794
 4538TIP3    H135249   3.746   1.370   2.579  1.7964  0.5293  2.2404
 4538TIP3    H235250   3.768   1.518   2.601  1.0486  0.5184  3.1618
 4539TIP3   OH235251   1.830   5.764   0.363 -0.1592  0.3001  0.6153
 4539TIP3    H135252   1.913   5.787   0.403  0.7710 -1.9959  0.1469
 4539TIP3    H235253   1.769   5.832   0.392  1.4859  1.1139  2.3102
 4540TIP3   OH235254   2.160   6.713   2.582 -0.3087  0.4207  0.0252
 4540TIP3    H135255   2.169   6.656   2.506 -0.4752 -0.2213  0.4748
 4540TIP3    H235256   2.097   6.668   2.638 -1.3623  1.6366 -0.1467
 4541TIP3   OH235257   3.470   0.285   2.611  0.5733 -0.0843 -0.1909
 4541TIP3    H135258   3.479   0.331   2.694  0.3728 -1.5075  0.6515
 4541TIP3    H235259   3.546   0.227   2.606  0.1689 -0.6018 -0.5942
 4542TIP3   OH235260   4.993   4.180   3.823  0.2957  0.4276 -0.0501
 4542TIP3    H135261   4.949   4.232   3.891  0.7912  0.4460  0.2653
 4542TIP3    H235262   4.970   4.090   3.843  0.9050  0.3855  0.4945
 4543TIP3   OH235263   4.398   4.382   2.328 -0.1099  0.3096 -0.3360
 4543TIP3    H135264   4.375   4.350   2.415  1.9490 -0.1933  0.0725
 4543TIP3    H235265   4.444   4.310   2.286  1.4037  1.4658 -0.7689
 4544TIP3   OH235266   0.895   6.144   0.339  0.0564 -0.4715 -0.5896
 4544TIP3    H135267   0.832   6.164   0.270  0.5495 -1.3491 -1.3233
 4544TIP3    H235268   0.898   6.048   0.341 -2.4521 -0.7210  2.9497
 4545TIP3   OH235269   5.127   1.543   1.567 -0.4090  0.0907 -0.1633
 4545TIP3    H135270   5.059   1.564   1.504  1.1523  0.3460 -1.8424
 4545TIP3    H235271   5.192   1.493   1.517  0.0141 -1.3774  1.6999
 4546TIP3   OH235272   0.155   1.291   1.998 -0.0215 -0.0467  0.0492
 4546TIP3    H135273   0.182   1.368   2.048  0.5246  0.1136 -0.4753
 4546TIP3    H235274   0.161   1.319   1.907  0.3548 -0.7713 -0.1526
 4547TIP3   OH235275   5.388   0.470   1.821 -0.2410 -0.2742  0.1626
 4547TIP3    H135276   5.396   0.501   1.911  1.2938  0.0249 -0.0440
 4547TIP3    H235277   5.424   0.541   1.768 -0.1449 -0.8749 -0.6022
 4548TIP3   OH235278   5.215   4.392   4.918  0.3363 -0.8043 -0.1618
 4548TIP3    H135279   5.300   4.379   4.875  0.5053  1.4802 -0.6364
 4548TIP3    H235280   5.235   4.438   4.999 -0.4924  0.9434 -0.8919
 4549TIP3   OH235281   3.800   3.582   5.128 -0.7426 -0.5640 -0.2230
 4549TIP3    H135282   3.775   3.673   5.114 -0.5215 -0.7722 -2.3562
 4549TIP3    H235283   3.750   3.533   5.063  0.0249 -1.8203  0.0910
 4550TIP3   OH235284   2.217   3.236   3.114 -0.8635 -0.6624  0.1577
 4550TIP3    H135285   2.150   3.241   3.046 -2.1658 -0.3729  1.4081
 4550TIP3    H235286   2.227   3.326   3.145 -0.6991 -0.8739  0.7352
 4551TIP3   OH235287   2.985   2.182   4.028 -0.1100  0.4921  0.5106
 4551TIP3    H135288   3.065   2.159   3.981 -0.8969 -2.3074  0.3754
 4551TIP3    H235289   3.012   2.251   4.089  2.0991  0.4860 -0.3829
 4552TIP3   OH235290   4.531   5.591   2.756 -0.3489  1.1109  0.6127
 4552TIP3    H135291   4.451   5.555   2.795  1.3246 -3.6438  0.3340
 4552TIP3    H235292   4.590   5.603   2.831 -0.2444  1.3299  0.4943
 4553TIP3   OH235293   1.335   3.764   1.748 -0.3471 -0.5823  0.2910
 4553TIP3    H135294   1.367   3.799   1.665  1.3013 -0.9817  0.7286
 4553TIP3    H235295   1.350   3.670   1.742  0.8981 -0.4876  1.4829
 4554TIP3   OH235296   2.309   2.474   2.204 -0.4629 -0.3553  0.0485
 4554TIP3    H135297   2.404   2.469   2.192 -0.1942  0.9405  1.2857
 4554TIP3    H235298   2.289   2.568   2.198 -1.5600 -0.5414  0.5202
 4555TIP3   OH235299   2.719   5.578   2.630  0.2183  0.0983 -0.5759
 4555TIP3    H135300   2.634   5.602   2.594 -0.6863  0.4115  1.5791
 4555TIP3    H235301   2.698   5.510   2.695  1.3068  1.5853  1.4343
 4556TIP3   OH235302   5.244   2.366   3.274  0.3368  0.1073  0.4484
 4556TIP3    H135303   5.235   2.369   3.369  1.1027  2.4805  0.5194
 4556TIP3    H235304   5.321   2.311   3.259  0.4107 -0.0131  1.2252
 4557TIP3   OH235305   3.246   2.551   1.054  0.3456 -0.0488  0.0062
 4557TIP3    H135306   3.244   2.460   1.023  0.6729 -0.3030  0.7005
 4557TIP3    H235307   3.162   2.588   1.025 -0.3691 -0.9614  0.8064
 4558TIP3   OH235308   1.623   2.176   4.474 -0.7041  0.0193 -0.0758
 4558TIP3    H135309   1.586   2.092   4.500  0.8098 -1.2460 -1.7829
 4558TIP3    H235310   1.547   2.230   4.452 -1.7443 -0.5747  1.8157
 4559TIP3   OH235311   5.088   3.377   3.584  0.1703 -0.3271 -0.2385
 4559TIP3    H135312   5.150   3.309   3.557  0.6644  0.5866 -1.5127
 4559TIP3    H235313   5.012   3.364   3.527 -0.6777 -1.2017  1.0566
 4560TIP3   OH235314   2.168   5.038   1.875 -0.0959 -0.0398  0.1323
 4560TIP3    H135315   2.150   5.132   1.867  2.3569  0.4474 -0.4066
 4560TIP3    H235316   2.192   5.011   1.786  1.1706 -0.6936  0.6560
 4561TIP3   OH235317   2.555   5.474   3.729  0.1830  0.0705  0.1523
 4561TIP3    H135318   2.639   5.518   3.745  0.0107  0.3497  0.2976
 4561TIP3    H235319   2.496   5.545   3.704 -0.2128 -0.0174  0.8251
 4562TIP3   OH235320   1.768   2.810   2.783  0.4174  0.0789  0.4760
 4562TIP3    H135321   1.739   2.847   2.866 -0.0463 -3.4345  2.0190
 4562TIP3    H235322   1.857   2.780   2.800 -0.6848 -3.3807  0.7983
 4563TIP3   OH235323   3.343   5.476   1.134  0.3837 -0.4686  0.1932
 4563TIP3    H135324   3.251   5.464   1.158  0.5020  0.5276  1.2429
 4563TIP3    H235325   3.359   5.569   1.150  1.6576 -0.6943  0.3019
 4564TIP3   OH235326   3.245   2.026   2.757 -0.3458 -0.2986  0.7134
 4564TIP3    H135327   3.211   1.991   2.839 -0.6616  1.4532  1.3735
 4564TIP3    H235328   3.335   1.993   2.752  1.3148  2.9829  4.0917
 4565TIP3   OH235329   3.582   1.898   3.867  0.4539 -0.0871  0.4448
 4565TIP3    H135330   3.508   1.855   3.823 -0.0298  1.8421 -0.7529
 4565TIP3    H235331   3.609   1.967   3.807  0.9093  1.5631  2.4074
 4566TIP3   OH235332   0.484   0.822   5.417 -0.5742 -0.3645  0.0190
 4566TIP3    H135333   0.554   0.888   5.418 -0.2578 -0.6428 -1.5032
 4566TIP3    H235334   0.530   0.738   5.427 -0.7842 -0.4777  0.0344
 4567TIP3   OH235335   4.941   0.927   2.098  0.1309  0.1580 -0.3252
 4567TIP3    H135336   4.955   0.835   2.122  2.0300  0.5819  0.4340
 4567TIP3    H235337   4.930   0.926   2.003  1.5858 -0.7460 -0.5141
 4568TIP3   OH235338   6.066   5.101   3.085 -0.4667  0.4702 -0.0248
 4568TIP3    H135339   6.114   5.058   3.155  1.5221  2.0997 -0.3054
 4568TIP3    H235340   6.087   5.051   3.006 -0.6245  0.1764  0.1174
 4569TIP3   OH235341   1.969   3.872   1.256  0.4290  0.2994 -0.4549
 4569TIP3    H135342   2.001   3.789   1.293 -0.6070  0.9748  2.1190
 4569TIP3    H235343   2.040   3.901   1.198  1.8224 -1.2219  0.4019
 4570TIP3   OH235344   3.926   3.930   5.100  0.5664  0.4512 -0.1796
 4570TIP3    H135345   3.831   3.943   5.109  0.8488  1.7364  1.2883
 4570TIP3    H235346   3.954   3.998   5.039  0.1918 -1.7266 -2.9661
 4571TIP3   OH235347   2.471   0.477   1.815  0.2876 -0.8077 -0.1496
 4571TIP3    H135348   2.382   0.469   1.781  0.4668 -0.9643 -0.5892
 4571TIP3    H235349   2.527   0.457   1.740  0.7573  1.9305 -0.6164
 4572TIP3   OH235350   4.015   1.650   2.681  0.6360  0.4876  0.3334
 4572TIP3    H135351   4.083   1.712   2.655 -0.1045  0.7468 -1.1164
 4572TIP3    H235352   3.942   1.705   2.710  0.4969  0.2571  0.4246
 4573TIP3   OH235353   0.889   0.724   4.080 -0.0710 -0.1582  1.1862
 4573TIP3    H135354   0.813   0.666   4.085  0.5895 -1.1207  0.3661
 4573TIP3    H235355   0.852   0.812   4.079 -1.2478 -0.6400 -0.2520
 4574TIP3   OH235356   4.222   3.312   4.219 -0.4284  0.3428  0.1589
 4574TIP3    H135357   4.220   3.398   4.261 -1.8655  0.8156 -0.8232
 4574TIP3    H235358   4.217   3.330   4.125 -0.2906 -0.7979 -0.0861
 4575TIP3   OH235359   1.173   1.229   1.795  0.0974  0.5777 -0.1043
 4575TIP3    H135360   1.138   1.255   1.881  2.2721  1.1426  0.6804
 4575TIP3    H235361   1.252   1.282   1.784  0.3014 -0.0620 -2.1220
 4576TIP3   OH235362   5.587   3.010   2.300 -0.4399 -0.1892  0.1281
 4576TIP3    H135363   5.517   3.011   2.365 -1.4085 -1.7580 -0.8033
 4576TIP3    H235364   5.605   2.917   2.286  0.8982  0.1543 -0.6482
 4577TIP3   OH235365   1.693   2.217   2.687  0.0762  0.0104 -0.4393
 4577TIP3    H135366   1.723   2.181   2.770 -0.7673 -1.7735 -0.8652
 4577TIP3    H235367   1.757   2.187   2.623 -1.1623 -1.6888 -0.9552
 4578TIP3   OH235368   0.554   0.864   4.544  0.6860  0.4793 -0.2608
 4578TIP3    H135369   0.468   0.880   4.505  0.5387 -0.0663 -0.1691
 4578TIP3    H235370   0.567   0.937   4.604  0.7691  1.1421 -1.0746
 4579TIP3   OH235371   6.660   6.379   2.138 -0.7870  0.0318 -0.4883
 4579TIP3    H135372   6.577   6.418   2.112 -1.2230 -0.4765  0.1027
 4579TIP3    H235373   6.724   6.451   2.132 -1.3414  0.5199 -0.5880
 4580TIP3   OH235374   3.446   2.598   3.654 -0.8198  0.1593 -0.1093
 4580TIP3    H135375   3.537   2.627   3.654 -0.9509  0.5756 -0.2741
 4580TIP3    H235376   3.426   2.583   3.561 -1.2821  1.2303 -0.1947
 4581TIP3   OH235377   0.063   6.548   1.469 -0.0329 -0.6125  0.6165
 4581TIP3    H135378   0.102   6.464   1.492  0.8686 -1.0429 -2.1095
 4581TIP3    H235379   0.130   6.613   1.490 -0.4156 -0.6292  1.9596
 4582TIP3   OH235380   3.955   5.362   1.684 -0.0605  0.0921 -0.1249
 4582TIP3    H135381   3.974   5.282   1.734 -0.6305 -0.0301 -0.1034
 4582TIP3    H235382   4.010   5.429   1.726  1.3768 -0.5304 -0.9245
 4583TIP3   OH235383   1.838   0.241   0.254  0.3480  0.0529  0.3409
 4583TIP3    H135384   1.754   0.266   0.216 -0.8044 -1.3610  1.8322
 4583TIP3    H235385   1.894   0.223   0.178 -0.5496  1.3645 -0.6791
 4584TIP3   OH235386   0.568   2.990   4.658  0.3669  0.2171  0.1095
 4584TIP3    H135387   0.534   3.078   4.674  1.2697  0.1715  2.6124
 4584TIP3    H235388   0.491   2.940   4.629 -0.6390  1.2843  0.8656
 4585TIP3   OH235389   2.639   5.267   2.535  0.3104  0.2505  0.0983
 4585TIP3    H135390   2.647   5.187   2.588  1.1019 -0.0777 -0.4880
 4585TIP3    H235391   2.548   5.268   2.506 -0.1369  0.4205  1.4183
 4586TIP3   OH235392   0.871   3.517   3.451 -0.4843  0.7925  0.2111
 4586TIP3    H135393   0.937   3.585   3.443  0.1764  0.0179 -1.7019
 4586TIP3    H235394   0.803   3.541   3.387 -0.5220 -0.0184 -0.0729
 4587TIP3   OH235395   5.030   2.758   4.830  0.1242  0.0457  0.1205
 4587TIP3    H135396   4.995   2.812   4.901 -1.3187  1.0142 -1.2226
 4587TIP3    H235397   5.003   2.805   4.750  0.7809 -1.5185 -1.0747
 4588TIP3   OH235398   1.516   1.691   3.118  0.3196 -0.1143 -0.2325
 4588TIP3    H135399   1.489   1.602   3.140 -1.0620  0.1364 -0.8317
 4588TIP3    H235400   1.464   1.714   3.041  1.3105  0.8936 -0.6324
 4589TIP3   OH235401   4.385   5.117   1.647 -0.5239 -0.0479 -0.4084
 4589TIP3    H135402   4.470   5.158   1.633 -0.2446 -0.6637 -0.5317
 4589TIP3    H235403   4.322   5.184   1.620 -0.1128  0.7285  0.5029
 4590TIP3   OH235404   6.123   1.936   4.791  0.2491 -0.2455 -0.6260
 4590TIP3    H135405   6.127   2.015   4.845  0.2257 -0.8596  0.2866
 4590TIP3    H235406   6.214   1.907   4.783  0.2383 -0.2332 -0.8012
 4591TIP3   OH235407   3.502   5.024   1.154  0.2347  0.5518  0.1876
 4591TIP3    H135408   3.559   5.095   1.185  0.8211 -0.5170  1.6934
 4591TIP3    H235409   3.419   5.066   1.135 -0.2273  1.3731  3.3709
 4592TIP3   OH235410   4.789   0.289   5.319 -0.4287 -0.3206 -0.4122
 4592TIP3    H135411   4.771   0.204   5.279 -1.3388 -0.5368  0.4283
 4592TIP3    H235412   4.838   0.337   5.252 -1.7637 -0.7205 -1.7338
 4593TIP3   OH235413   1.673   3.004   3.740  0.6494  0.2513 -0.3767
 4593TIP3    H135414   1.682   3.042   3.827  1.7500  2.1690 -1.2684
 4593TIP3    H235415   1.591   3.040   3.705  1.1881  1.0472 -0.8463
 4594TIP3   OH235416   2.885   6.306   1.178 -0.5486 -0.2273  0.2414
 4594TIP3    H135417   2.978   6.297   1.200 -0.6324 -1.1611  0.2528
 4594TIP3    H235418   2.855   6.216   1.162 -0.8737  0.2305 -2.1610
 4595TIP3   OH235419   3.748   0.125   2.790  0.3452 -0.1562 -0.1868
 4595TIP3    H135420   3.796   0.133   2.708  0.5354  1.2964  0.0381
 4595TIP3    H235421   3.814   0.137   2.858  0.2871 -1.8941  0.2154
 4596TIP3   OH235422   0.001   4.264   3.038  0.6175  0.0019  0.1605
 4596TIP3    H135423   0.069   4.317   3.080  0.1538  0.7696 -0.0405
 4596TIP3    H235424  -0.080   4.313   3.051  0.2543 -0.4085 -0.4700
 4597TIP3   OH235425   1.478   5.564   2.530  0.1522 -0.0155 -0.0640
 4597TIP3    H135426   1.436   5.638   2.573  1.5495  1.1174 -0.5620
 4597TIP3    H235427   1.517   5.513   2.601 -0.5747 -0.1351  0.2586
 4598TIP3   OH235428   6.545   1.461   2.745 -0.0865 -0.0389  0.1642
 4598TIP3    H135429   6.514   1.371   2.742  0.6762 -0.2887 -1.4917
 4598TIP3    H235430   6.561   1.478   2.838  0.4156 -1.8481  0.4419
 4599TIP3   OH235431   3.781   0.260   1.438 -0.0888 -0.9153  0.3805
 4599TIP3    H135432   3.843   0.288   1.505 -2.2142  0.8348  1.7228
 4599TIP3    H235433   3.718   0.331   1.432 -1.5756 -2.2899 -1.4645
 4600TIP3   OH235434   5.508   2.519   4.674  0.2881 -0.1539 -0.2885
 4600TIP3    H135435   5.450   2.595   4.676  0.9307  0.4084 -1.6414
 4600TIP3    H235436   5.564   2.529   4.751  1.0595  1.3442 -0.9971
 4601TIP3   OH235437   3.973   6.093   3.217 -0.3352  0.0907  0.2570
 4601TIP3    H135438   3.929   6.146   3.284  0.2890  1.1256 -0.1204
 4601TIP3    H235439   3.996   6.012   3.262 -1.1845  0.1896  0.9009
 4602TIP3   OH235440   3.307   2.686   4.671  0.2215  0.3952 -0.0518
 4602TIP3    H135441   3.237   2.751   4.673 -1.5652 -1.4847  1.5364
 4602TIP3    H235442   3.367   2.713   4.740  0.5293  1.3694 -0.6705
 4603TIP3   OH235443   4.517   2.409   4.362  0.0003 -0.2909 -0.0353
 4603TIP3    H135444   4.433   2.417   4.317  0.4037  0.0491 -0.7501
 4603TIP3    H235445   4.515   2.322   4.401 -1.0093  0.0171  0.6490
 4604TIP3   OH235446   5.351   2.645   4.126 -0.1227 -0.3521  0.3674
 4604TIP3    H135447   5.398   2.726   4.108 -0.5618  0.0871  1.1244
 4604TIP3    H235448   5.282   2.641   4.059 -1.3884  0.9715  1.5149
 4605TIP3   OH235449   4.982   0.979   1.816 -0.1498 -0.1358 -0.8548
 4605TIP3    H135450   5.050   1.039   1.847 -1.7391  1.3469 -0.0676
 4605TIP3    H235451   4.976   0.997   1.722  1.3750 -1.2073 -1.2008
 4606TIP3   OH235452   2.556   0.370   1.572  0.0809 -0.0602 -0.5207
 4606TIP3    H135453   2.480   0.313   1.586  0.2909 -0.1854  0.1149
 4606TIP3    H235454   2.608   0.324   1.507  0.0267 -0.3768 -0.3398
 4607TIP3   OH235455   1.494   1.010   0.754  0.7239 -0.1907  0.7264
 4607TIP3    H135456   1.518   0.940   0.693 -0.4516  0.1806 -0.2017
 4607TIP3    H235457   1.557   1.080   0.736 -1.2229  1.0161 -2.1146
 4608TIP3   OH235458   6.675   5.278   5.044 -0.5215 -0.3276  0.1463
 4608TIP3    H135459   6.587   5.273   5.082 -0.4769 -1.7218  0.1114
 4608TIP3    H235460   6.661   5.294   4.951 -0.6712  1.3373  0.4249
 4609TIP3   OH235461   1.002   1.655   4.303  0.2752  0.3284 -0.5388
 4609TIP3    H135462   1.051   1.738   4.296  1.4003 -0.4175 -2.5227
 4609TIP3    H235463   0.911   1.682   4.316  0.9066  1.8091  1.1977
 4610TIP3   OH235464   5.979   4.308   3.552  0.1590  0.1594  0.3450
 4610TIP3    H135465   5.905   4.367   3.535  1.5329  2.6049  2.0954
 4610TIP3    H235466   5.955   4.263   3.633  0.8414  1.6165  1.4174
 4611TIP3   OH235467   6.509   2.217   2.752 -0.2035 -0.1007 -0.3884
 4611TIP3    H135468   6.565   2.250   2.681  1.0376 -0.1769  0.5296
 4611TIP3    H235469   6.569   2.175   2.813 -1.2180  0.1606  0.8343
 4612TIP3   OH235470   1.168   0.898   2.254  0.5456 -0.5903 -0.2997
 4612TIP3    H135471   1.090   0.951   2.271  0.8368 -0.2279 -0.0723
 4612TIP3    H235472   1.155   0.864   2.165 -0.0903 -0.9241 -0.0787
 4613TIP3   OH235473   1.244   0.216   0.130 -0.5641  0.9184  0.3160
 4613TIP3    H135474   1.245   0.160   0.207  1.8884  0.9360  0.3925
 4613TIP3    H235475   1.172   0.183   0.077 -0.9733 -0.4554  1.6529
 4614TIP3   OH235476   1.509   4.221   1.041 -0.5618  0.0232 -1.1276
 4614TIP3    H135477   1.424   4.240   1.081 -0.9244 -0.3308 -1.7232
 4614TIP3    H235478   1.497   4.137   0.998  0.7798 -1.2547  0.8003
 4615TIP3   OH235479   5.296   1.755   1.664 -0.1182  0.4405  0.5995
 4615TIP3    H135480   5.254   1.754   1.750 -0.3396  2.8508  0.5683
 4615TIP3    H235481   5.246   1.691   1.613 -2.4642  1.7056  1.1646
 4616TIP3   OH235482   5.748   3.487   1.397 -0.3892  0.2944 -0.0769
 4616TIP3    H135483   5.706   3.410   1.436 -1.8076  1.3920  0.6711
 4616TIP3    H235484   5.690   3.559   1.420  1.0070  1.6229 -0.6050
 4617TIP3   OH235485   0.550   1.975   3.020  0.5434  0.5975  0.2756
 4617TIP3    H135486   0.574   1.999   3.110 -0.4474  0.8837  0.4763
 4617TIP3    H235487   0.591   1.889   3.007 -1.6871 -0.9016  2.0872
 4618TIP3   OH235488   4.540   4.339   2.862 -0.3075  0.0098  0.0118
 4618TIP3    H135489   4.570   4.415   2.812 -0.1033  0.4356  0.7655
 4618TIP3    H235490   4.534   4.370   2.952  2.2204 -1.5058  0.8103
 4619TIP3   OH235491   5.245   3.605   3.628  0.3043 -0.6082  0.2974
 4619TIP3    H135492   5.235   3.647   3.543 -2.4661  0.4186  1.0381
 4619TIP3    H235493   5.207   3.517   3.616  0.0971 -0.5344  0.3991
 4620TIP3   OH235494   5.030   0.345   1.746 -0.5091  0.0826  0.1440
 4620TIP3    H135495   5.050   0.254   1.770  2.1565  0.9142  1.5445
 4620TIP3    H235496   4.935   0.350   1.747 -0.7160 -2.1048  2.5211
 4621TIP3   OH235497   2.287   5.854   1.785 -0.1544 -0.5850 -0.3934
 4621TIP3    H135498   2.269   5.784   1.723  0.2110 -0.0335 -1.1305
 4621TIP3    H235499   2.362   5.901   1.748 -1.1161  0.9148 -0.5097
 4622TIP3   OH235500   5.191   2.118   3.888  0.1048  0.2573 -0.0813
 4622TIP3    H135501   5.157   2.046   3.942  0.5392  1.3550  1.7655
 4622TIP3    H235502   5.123   2.132   3.822 -0.6151 -0.9581  0.3632
 4623TIP3   OH235503   0.959   6.546   4.787 -0.1698 -0.3981 -0.0773
 4623TIP3    H135504   0.966   6.543   4.883 -0.9441 -0.7008 -0.0271
 4623TIP3    H235505   1.045   6.578   4.758 -0.0747  0.1124  0.7391
 4624TIP3   OH235506   4.852   5.874   3.553  0.1354 -0.2904  0.0080
 4624TIP3    H135507   4.865   5.958   3.597  2.1177  0.0840 -1.1304
 4624TIP3    H235508   4.871   5.809   3.620  0.8136  0.2337  0.3483
 4625TIP3   OH235509   4.343   1.864   2.192  0.3641 -0.4364  0.5663
 4625TIP3    H135510   4.270   1.903   2.143 -0.0834  1.1809  2.4076
 4625TIP3    H235511   4.392   1.816   2.125 -0.6685  0.9447 -1.3175
 4626TIP3   OH235512   4.862   1.099   2.326 -0.1633  0.2921 -0.2975
 4626TIP3    H135513   4.916   1.067   2.399 -0.6240  1.6398  0.6655
 4626TIP3    H235514   4.886   1.043   2.252 -0.4017 -1.7702  1.1153
 4627TIP3   OH235515   6.495   3.325   4.131  0.7789 -0.9206 -0.1026
 4627TIP3    H135516   6.540   3.242   4.116  1.6509 -0.4723 -0.0508
 4627TIP3    H235517   6.565   3.387   4.151  0.1033 -0.2763  0.3418
 4628TIP3   OH235518   3.569   5.211   4.823 -0.0406 -0.0797 -0.8105
 4628TIP3    H135519   3.528   5.209   4.737 -1.8733  0.0473  0.0068
 4628TIP3    H235520   3.574   5.119   4.849  1.7688 -0.2272 -1.5829
 4629TIP3   OH235521   0.434   2.999   3.461  0.3056  0.1666 -0.1839
 4629TIP3    H135522   0.504   3.060   3.483 -0.9337  0.9294  2.0463
 4629TIP3    H235523   0.479   2.919   3.434  2.0037  0.9205  0.2693
 4630TIP3   OH235524   6.579   6.745   4.332 -0.2266  0.1839 -0.3448
 4630TIP3    H135525   6.531   6.663   4.316 -1.3292  0.7778 -0.1676
 4630TIP3    H235526   6.550   6.774   4.418  1.7396 -0.2874  0.5293
 4631TIP3   OH235527   2.324   3.723   3.063 -0.3118  0.3047  0.4230
 4631TIP3    H135528   2.302   3.795   3.121  0.9043  1.6105 -0.6421
 4631TIP3    H235529   2.420   3.724   3.058 -0.3495 -0.1433 -1.0929
 4632TIP3   OH235530   5.835   5.530   4.845  0.6158 -0.3183 -0.1659
 4632TIP3    H135531   5.835   5.496   4.755 -0.4235  1.0314 -0.7259
 4632TIP3    H235532   5.784   5.465   4.894  0.4097 -0.6205 -0.7564
 4633TIP3   OH235533   2.679   1.941   2.471  0.1847 -0.0833  0.0511
 4633TIP3    H135534   2.759   1.988   2.447  0.8520 -0.3195  1.6979
 4633TIP3    H235535   2.674   1.869   2.408  0.4100  0.7985 -1.0262
 4634TIP3   OH235536   4.220   1.432   1.758  0.1575  0.3733  0.0289
 4634TIP3    H135537   4.140   1.381   1.768  1.2363 -1.6467 -1.0216
 4634TIP3    H235538   4.230   1.478   1.841 -0.2146 -2.1967  1.6067
 4635TIP3   OH235539   0.434   3.559   0.238  0.5595  0.2604  0.3816
 4635TIP3    H135540   0.469   3.471   0.228  0.7182  0.5391 -2.0220
 4635TIP3    H235541   0.358   3.549   0.295  1.0114 -1.2857  0.7539
 4636TIP3   OH235542   3.608   6.301   1.528  0.4955 -0.4807  0.3907
 4636TIP3    H135543   3.592   6.395   1.522 -2.1837 -0.8649 -0.1881
 4636TIP3    H235544   3.581   6.277   1.617  1.7725 -0.6366  0.7529
 4637TIP3   OH235545   6.039   2.049   2.525 -0.4977 -0.1996  0.5670
 4637TIP3    H135546   5.983   2.044   2.447  0.0813 -1.4061  0.2031
 4637TIP3    H235547   5.980   2.081   2.594 -1.2997 -0.1776 -0.1020
 4638TIP3   OH235548   0.481   3.048   2.221 -0.7250 -0.2828 -0.0649
 4638TIP3    H135549   0.410   2.995   2.186 -1.5901  0.1880  0.9280
 4638TIP3    H235550   0.443   3.135   2.235  0.0816  0.0178  0.3583
 4639TIP3   OH235551   2.089   3.898   1.938  0.0089  0.5226 -0.4891
 4639TIP3    H135552   2.037   3.823   1.908  1.1208 -0.7510  0.6456
 4639TIP3    H235553   2.164   3.859   1.982  1.0846  2.3261 -0.6411
 4640TIP3   OH235554   5.599   3.913   1.255  0.0301 -0.7073 -0.6074
 4640TIP3    H135555   5.620   4.004   1.235  1.3057 -0.7863  0.2799
 4640TIP3    H235556   5.573   3.913   1.347 -1.2576 -1.0592 -0.9424
 4641TIP3   OH235557   4.634   0.820   1.558 -0.1108  0.1865  0.3446
 4641TIP3    H135558   4.703   0.759   1.531 -1.1905 -0.8847 -0.0666
 4641TIP3    H235559   4.634   0.887   1.489 -0.3984 -0.5601 -0.3962
 4642TIP3   OH235560   5.015   0.697   2.197  0.0990  0.2960 -0.0480
 4642TIP3    H135561   5.030   0.628   2.133 -0.1492 -0.3346  0.5529
 4642TIP3    H235562   4.987   0.650   2.276 -2.0663  1.1833 -0.2138
 4643TIP3   OH235563   0.718   2.051   0.919 -0.0104  0.2462 -0.5842
 4643TIP3    H135564   0.780   1.981   0.899  1.2986  1.2069 -0.0728
 4643TIP3    H235565   0.733   2.116   0.850 -1.6545 -0.2165 -1.4188
 4644TIP3   OH235566   4.503   3.281   3.190  0.1660  0.6739 -0.0660
 4644TIP3    H135567   4.538   3.348   3.131  1.4289  1.0755  1.0825
 4644TIP3    H235568   4.453   3.330   3.255 -0.0568  0.3651 -0.0023
 4645TIP3   OH235569   0.744   3.256   5.835 -0.4019 -0.3320 -0.5301
 4645TIP3    H135570   0.757   3.350   5.844 -0.2773 -0.0019 -3.3846
 4645TIP3    H235571   0.815   3.227   5.778 -0.5455 -2.1480  0.1382
 4646TIP3   OH235572   1.553   4.492   2.256 -0.4091 -0.2011  0.2494
 4646TIP3    H135573   1.555   4.414   2.200 -0.6532 -0.2305  0.2843
 4646TIP3    H235574   1.633   4.485   2.309 -0.3367 -0.3322  0.1243
 4647TIP3   OH235575   1.808   2.714   0.862  0.3074 -0.0581 -0.3502
 4647TIP3    H135576   1.886   2.719   0.807 -0.6383  0.1118 -1.7187
 4647TIP3    H235577   1.736   2.698   0.801 -0.6731 -0.7803  0.9270
 4648TIP3   OH235578   3.567   1.616   2.807 -0.1682  0.8542  0.0089
 4648TIP3    H135579   3.593   1.583   2.721 -1.7328 -4.6375  1.2750
 4648TIP3    H235580   3.649   1.631   2.853  0.7103 -0.0224 -1.2047
 4649TIP3   OH235581   1.416   0.397   0.300 -0.1843 -0.1447  0.5063
 4649TIP3    H135582   1.505   0.364   0.311 -0.9157 -1.6578  2.3655
 4649TIP3    H235583   1.390   0.366   0.213  1.2002  0.6368 -0.2183
 4650TIP3   OH235584   0.108   5.723   1.698  0.1892  0.1305 -0.2297
 4650TIP3    H135585   0.076   5.801   1.744  1.5566 -0.2054  1.4199
 4650TIP3    H235586   0.059   5.650   1.737  0.5112 -0.0394 -0.1352
 4651TIP3   OH235587   2.930   4.717   4.575  0.5995  0.1015  0.6599
 4651TIP3    H135588   2.978   4.798   4.559  0.7943  0.2539  1.9327
 4651TIP3    H235589   2.987   4.666   4.632  0.1190 -0.5879  0.5400
 4652TIP3   OH235590   3.172   0.977   4.460  0.1898 -0.2619  0.7398
 4652TIP3    H135591   3.206   1.053   4.414  1.2806 -1.2913 -0.2088
 4652TIP3    H235592   3.083   1.002   4.484 -0.2122  0.5793 -1.3823
 4653TIP3   OH235593   6.374   4.794   1.047 -0.1911  0.6586  0.2104
 4653TIP3    H135594   6.405   4.707   1.073 -0.0769  0.2255 -1.2751
 4653TIP3    H235595   6.340   4.832   1.128 -0.7311 -0.9766  0.8044
 4654TIP3   OH235596   3.791   2.827   1.604  0.0310  0.1986  0.6600
 4654TIP3    H135597   3.794   2.855   1.512  0.4186  3.4462  1.5260
 4654TIP3    H235598   3.867   2.770   1.614 -1.2814 -2.1197 -1.4767
 4655TIP3   OH235599   1.736   0.250   4.658 -0.6158  0.2356  0.3042
 4655TIP3    H135600   1.663   0.276   4.714 -1.1645 -2.1871  0.7996
 4655TIP3    H235601   1.814   0.275   4.707 -1.0825  0.8653  0.7467
 4656TIP3   OH235602   4.458   4.580   3.432  0.0107  0.4007  1.2266
 4656TIP3    H135603   4.525   4.640   3.400  0.0211  0.6071  1.6244
 4656TIP3    H235604   4.379   4.602   3.383  0.7648 -1.3754 -0.9327
 4657TIP3   OH235605   1.117   0.415   2.629  0.5904 -0.4359 -0.0475
 4657TIP3    H135606   1.165   0.368   2.696 -0.8697 -1.7922  0.1117
 4657TIP3    H235607   1.063   0.478   2.677  0.0937 -0.8981  0.0089
 4658TIP3   OH235608   5.783   0.652   5.283 -0.1372 -0.3558  1.4034
 4658TIP3    H135609   5.718   0.615   5.224  2.4626  0.2998 -2.2029
 4658TIP3    H235610   5.749   0.739   5.305 -0.4602  0.0803 -0.6179
 4659TIP3   OH235611   6.072   1.176   2.312  0.2990 -0.1066  0.2294
 4659TIP3    H135612   5.995   1.230   2.298  0.2949 -0.3804 -0.8787
 4659TIP3    H235613   6.133   1.203   2.244  0.2475 -1.5666 -0.4278
 4660TIP3   OH235614   5.182   3.053   1.355 -0.1946  0.5311 -0.3814
 4660TIP3    H135615   5.204   2.968   1.394 -0.7107  1.3247  1.8283
 4660TIP3    H235616   5.197   3.041   1.261 -0.3033 -2.0124 -0.1673
 4661TIP3   OH235617   3.075   2.329   1.821  0.0443 -0.5935  1.1876
 4661TIP3    H135618   3.017   2.401   1.796 -2.1680 -2.4321  0.6398
 4661TIP3    H235619   3.022   2.250   1.809  2.2959 -2.3376  1.8887
 4662TIP3   OH235620   5.987   2.086   1.724 -0.4783  0.0423  0.0602
 4662TIP3    H135621   6.010   2.163   1.775 -1.2071  0.6501 -0.5004
 4662TIP3    H235622   5.933   2.033   1.782 -1.9263  1.0824 -0.2770
 4663TIP3   OH235623   0.770   5.070   3.347  0.1823 -0.1312 -0.4659
 4663TIP3    H135624   0.749   4.977   3.338  0.4325 -0.1256 -1.2017
 4663TIP3    H235625   0.735   5.110   3.267 -1.0362  0.6281  0.4137
 4664TIP3   OH235626   0.000   0.338   3.069 -0.0519  0.2985  0.8929
 4664TIP3    H135627  -0.061   0.412   3.077  1.8128  2.3381 -1.9767
 4664TIP3    H235628   0.021   0.333   2.976  2.5315 -1.6864  1.4519
 4665TIP3   OH235629   3.317   0.698   5.492  0.1568 -0.8396  0.2035
 4665TIP3    H135630   3.401   0.692   5.538  0.5513 -1.4704 -0.5611
 4665TIP3    H235631   3.332   0.764   5.425 -0.6369  0.5921  1.4039
 4666TIP3   OH235632   4.283   5.441   5.082  0.0150 -0.2551 -0.1677
 4666TIP3    H135633   4.350   5.373   5.081 -0.8159 -1.1145 -2.0286
 4666TIP3    H235634   4.218   5.410   5.145  1.0103  0.2701  1.1609
 4667TIP3   OH235635   0.102   2.549   3.816  0.2028 -0.1841  0.1621
 4667TIP3    H135636   0.066   2.638   3.813  1.1536  0.2730  1.2853
 4667TIP3    H235637   0.127   2.530   3.726  0.9617  1.1455  0.0603
 4668TIP3   OH235638   6.744   4.396   1.219 -0.2874  0.6191  0.0293
 4668TIP3    H135639   6.735   4.491   1.208 -0.0250  0.8180  1.4311
 4668TIP3    H235640   6.804   4.370   1.149  0.0242  1.5602 -0.0661
 4669TIP3   OH235641   0.208   2.244   4.656 -0.4437  0.2450 -0.0062
 4669TIP3    H135642   0.131   2.193   4.679 -1.1316  1.5943  0.7877
 4669TIP3    H235643   0.262   2.244   4.735 -0.2184  0.3511 -0.1570
 4670TIP3   OH235644   2.556   2.361   3.537 -0.4836 -0.2437 -0.4107
 4670TIP3    H135645   2.496   2.290   3.561 -1.5864  0.2494 -1.6256
 4670TIP3    H235646   2.500   2.437   3.525  0.8281  1.2941  2.3509
 4671TIP3   OH235647   1.922   2.386   0.838 -0.2553 -0.2695 -0.1233
 4671TIP3    H135648   1.887   2.442   0.769  0.3353  0.5882  0.2602
 4671TIP3    H235649   1.848   2.331   0.864 -1.8772  2.5184  1.7390
 4672TIP3   OH235650   0.612   3.172   4.410 -0.2102  0.4077 -0.6667
 4672TIP3    H135651   0.564   3.146   4.332 -1.0940  1.4720 -0.5132
 4672TIP3    H235652   0.609   3.268   4.409 -1.3428  0.4425  1.3133
 4673TIP3   OH235653   0.396   2.957   1.363 -0.4304  0.1831  0.1456
 4673TIP3    H135654   0.406   3.034   1.307 -1.2676  0.6445  0.6115
 4673TIP3    H235655   0.484   2.940   1.397 -0.0077  0.1793 -0.9309
 4674TIP3   OH235656   2.533   2.166   1.983 -0.2606  0.7747 -0.0227
 4674TIP3    H135657   2.573   2.101   1.924 -1.2628 -1.0752  1.2167
 4674TIP3    H235658   2.595   2.172   2.056 -0.1214  1.3129 -0.1825
 4675TIP3   OH235659   2.202   1.100   2.319  0.4777 -0.5662 -0.6302
 4675TIP3    H135660   2.175   1.186   2.285 -1.9530 -0.6148  0.9733
 4675TIP3    H235661   2.292   1.114   2.349  0.2422  1.3619 -0.6513
 4676TIP3   OH235662   0.102   3.488   0.142  0.1598  0.7173 -0.3816
 4676TIP3    H135663   0.183   3.436   0.140  1.1433  2.2042 -0.9065
 4676TIP3    H235664   0.088   3.507   0.234  0.9802  1.2681 -0.3562
 4677TIP3   OH235665   5.331   1.976   4.296 -0.0084 -0.5291  0.0528
 4677TIP3    H135666   5.265   2.013   4.355  0.2263 -0.7786  0.4675
 4677TIP3    H235667   5.312   1.883   4.293 -0.0459 -0.5135 -0.3047
 4678TIP3   OH235668   0.260   2.674   1.301 -0.1205 -0.1318 -0.4100
 4678TIP3    H135669   0.300   2.653   1.216  0.5112  1.0804 -0.4268
 4678TIP3    H235670   0.302   2.755   1.328  0.3787 -0.9837  1.5214
 4679TIP3   OH235671   5.638   2.077   3.350 -0.4854 -0.0008 -0.1224
 4679TIP3    H135672   5.560   2.081   3.405  0.3083  1.4546  0.9664
 4679TIP3    H235673   5.632   2.157   3.297  0.0322 -0.1239 -0.3653
 4680TIP3   OH235674   2.482   0.472   1.307 -0.3712  0.1157 -0.2873
 4680TIP3    H135675   2.552   0.407   1.303 -0.6529 -0.1378 -1.4408
 4680TIP3    H235676   2.464   0.483   1.400 -0.6902 -1.8573 -0.0800
 4681TIP3   OH235677   2.203   1.890   4.110 -0.3596  0.4810  0.1422
 4681TIP3    H135678   2.290   1.864   4.141 -0.1173  1.3487  0.2055
 4681TIP3    H235679   2.153   1.808   4.109  0.5758 -0.1031 -0.3041
 4682TIP3   OH235680   0.860   1.994   4.409  0.1209  0.0850  0.2916
 4682TIP3    H135681   0.936   2.053   4.409 -0.0911  0.3629  0.3749
 4682TIP3    H235682   0.837   1.985   4.316  0.6115 -0.4663  0.2222
 4683TIP3   OH235683   4.862   4.678   4.009  0.1152  0.1395 -0.2491
 4683TIP3    H135684   4.885   4.759   3.964  1.4675  0.3940  0.8491
 4683TIP3    H235685   4.854   4.613   3.938  1.1730  0.7516 -0.9611
 4684TIP3   OH235686   6.277   1.881   2.210 -0.0519 -0.0560 -0.0867
 4684TIP3    H135687   6.244   1.856   2.297  1.8545  0.9605  0.9855
 4684TIP3    H235688   6.294   1.975   2.217 -0.0570  0.0814 -1.6491
 4685TIP3   OH235689   1.310   5.246   4.545  0.9126  0.6418 -0.4189
 4685TIP3    H135690   1.266   5.325   4.514  1.1030  1.0990  0.4458
 4685TIP3    H235691   1.261   5.174   4.505  0.8731  1.1921 -1.3960
 4686TIP3   OH235692   1.319   1.851   1.552  0.5125  0.0834  0.2255
 4686TIP3    H135693   1.376   1.812   1.619  1.6460  1.1887 -0.0781
 4686TIP3    H235694   1.374   1.913   1.505 -0.8722  1.0107 -0.2576
 4687TIP3   OH235695   3.170   6.376   1.193  0.6851  0.6486  0.3717
 4687TIP3    H135696   3.226   6.448   1.223 -1.1584  1.6841  1.4700
 4687TIP3    H235697   3.226   6.326   1.134  2.6799  1.7872  1.1924
 4688TIP3   OH235698   1.585   0.985   1.008 -0.3299 -0.0885 -0.0354
 4688TIP3    H135699   1.529   1.004   0.933  0.7821 -1.4200 -1.2552
 4688TIP3    H235700   1.577   0.891   1.022  1.3244 -0.2676 -0.0456
 4689TIP3   OH235701   5.444   2.271   4.697  0.4511 -0.1551  0.1171
 4689TIP3    H135702   5.359   2.247   4.660  0.4868 -0.4947  0.2523
 4689TIP3    H235703   5.452   2.365   4.682  0.5382 -0.3175 -0.8903
 4690TIP3   OH235704   3.062   2.811   0.882  0.0460  0.7290 -0.2026
 4690TIP3    H135705   3.117   2.881   0.918  0.0922 -0.0861  1.3925
 4690TIP3    H235706   2.976   2.827   0.920 -0.2808  0.6829 -0.9080
 4691TIP3   OH235707   3.220   2.971   3.867  0.4506 -0.1851 -0.3809
 4691TIP3    H135708   3.171   2.967   3.949  0.6272 -0.3136 -0.2825
 4691TIP3    H235709   3.190   2.894   3.818 -0.8685  0.7530 -1.1201
 4692TIP3   OH235710   3.488   2.445   3.158 -0.0896 -0.5345  0.2121
 4692TIP3    H135711   3.503   2.496   3.079  0.5566 -0.9114  0.0928
 4692TIP3    H235712   3.443   2.366   3.128  0.7580 -0.9930  0.1263
 4693TIP3   OH235713   2.280   2.377   4.675  0.1216 -0.4559  0.1817
 4693TIP3    H135714   2.249   2.398   4.763 -2.0227  0.0226 -0.6344
 4693TIP3    H235715   2.223   2.426   4.617  1.1317 -1.1972 -1.5151
 4694TIP3   OH235716   2.778   3.912   3.071  0.1128  0.2904  0.1029
 4694TIP3    H135717   2.859   3.876   3.035  0.3280  1.7953 -0.9975
 4694TIP3    H235718   2.805   3.994   3.113 -0.4631 -0.4391  1.9979
 4695TIP3   OH235719   2.892   0.580   3.938 -0.0086  0.5095  0.0788
 4695TIP3    H135720   2.819   0.521   3.924 -1.0280  1.7836 -0.1776
 4695TIP3    H235721   2.943   0.539   4.008  0.8870 -2.0470 -1.9044
 4696TIP3   OH235722   4.696   2.825   3.552  0.0645 -0.1301  0.9182
 4696TIP3    H135723   4.743   2.811   3.470 -1.9723 -2.2922 -0.0121
 4696TIP3    H235724   4.734   2.904   3.589  3.2698 -0.8623 -0.4989
 4697TIP3   OH235725   0.646   2.609   4.594 -0.1125  0.1478  0.2935
 4697TIP3    H135726   0.556   2.596   4.561  0.6860  0.7050 -2.3934
 4697TIP3    H235727   0.635   2.658   4.675 -2.2469  0.5975 -0.2024
 4698TIP3   OH235728   5.877   1.151   3.607  0.0969  0.0832  0.1858
 4698TIP3    H135729   5.819   1.076   3.619  0.1848  0.1971  1.4891
 4698TIP3    H235730   5.829   1.225   3.643  0.8363  0.2655  0.8327
 4699TIP3   OH235731   1.082   0.083   2.968 -0.0475 -0.0103 -0.8409
 4699TIP3    H135732   1.013   0.090   2.902  0.3549 -0.5955 -1.3354
 4699TIP3    H235733   1.065   0.156   3.028  0.4268  1.4273 -2.3827
 4700TIP3   OH235734   2.386   1.930   1.995  0.2919 -0.3622  0.1363
 4700TIP3    H135735   2.291   1.940   1.990  0.4068  1.3047  0.4993
 4700TIP3    H235736   2.418   2.019   2.011  1.8985 -0.9327  0.2659
 4701TIP3   OH235737   5.704   4.814   2.268 -0.2939  0.1472 -0.0027
 4701TIP3    H135738   5.637   4.812   2.199 -0.0684  0.6117 -0.2404
 4701TIP3    H235739   5.754   4.733   2.254 -0.8035 -0.2042  0.1797
 4702TIP3   OH235740   3.636   4.332   5.222 -0.2286 -0.1610  0.4909
 4702TIP3    H135741   3.722   4.327   5.264 -0.0023  0.6832  0.1396
 4702TIP3    H235742   3.625   4.246   5.182 -0.5974 -1.1289  2.5281
 4703TIP3   OH235743   3.626   3.247   0.636 -0.1051  0.5263 -0.5165
 4703TIP3    H135744   3.543   3.292   0.645 -0.3855  0.0272 -0.5878
 4703TIP3    H235745   3.619   3.171   0.694 -0.4166 -0.5479 -1.9038
 4704TIP3   OH235746   4.721   2.451   4.848 -0.9396  1.1143  0.4591
 4704TIP3    H135747   4.710   2.543   4.871  1.1563  1.9420 -1.4129
 4704TIP3    H235748   4.769   2.413   4.921 -1.3144  1.6434  0.9890
 4705TIP3   OH235749   3.771   0.635   4.200  0.5798 -0.2630 -0.1549
 4705TIP3    H135750   3.774   0.724   4.235  0.8703  0.6835 -2.4191
 4705TIP3    H235751   3.840   0.588   4.247 -0.2685  0.3570  1.8293
 4706TIP3   OH235752   2.172   2.160   4.470  0.1772  0.9030  0.0668
 4706TIP3    H135753   2.204   2.239   4.426  0.3215  2.4939  2.7985
 4706TIP3    H235754   2.085   2.146   4.433  1.3179  0.3726 -2.7244
 4707TIP3   OH235755   2.692   4.341   3.108 -0.3157  0.2838  0.6335
 4707TIP3    H135756   2.774   4.387   3.090 -0.1166 -0.0863  0.5829
 4707TIP3    H235757   2.658   4.318   3.022 -0.0446 -0.3056  0.6829
 4708TIP3   OH235758   4.125   4.128   3.426 -0.0674 -0.1811  0.0769
 4708TIP3    H135759   4.151   4.212   3.464 -0.9739 -0.5857  1.7014
 4708TIP3    H235760   4.033   4.139   3.403  0.0119 -0.4929 -0.4047
 4709TIP3   OH235761   3.274   3.810   1.051  0.0500  0.4226 -1.3352
 4709TIP3    H135762   3.224   3.890   1.035  3.0964  2.9904  0.6140
 4709TIP3    H235763   3.359   3.826   1.010  0.8870 -1.6617 -0.5767
 4710TIP3   OH235764   4.897   3.791   3.686 -0.0372 -0.1142 -0.4026
 4710TIP3    H135765   4.832   3.846   3.728 -1.1701 -1.6384 -0.0627
 4710TIP3    H235766   4.940   3.848   3.622 -0.1250  1.5167  0.9485
 4711TIP3   OH235767   0.067   3.380   5.262 -0.3775  0.0369  0.1267
 4711TIP3    H135768   0.076   3.459   5.315  0.9148 -0.5243  0.7835
 4711TIP3    H235769   0.126   3.317   5.303 -0.0342 -0.7064 -1.4377
 4712TIP3   OH235770   4.158   4.189   2.633  0.1087  0.4672  0.0840
 4712TIP3    H135771   4.119   4.227   2.555  1.1432  1.6243  0.1022
 4712TIP3    H235772   4.125   4.099   2.635  0.8826  0.0550 -2.2815
 4713TIP3   OH235773   5.510   2.511   1.724 -0.1144  0.5104 -0.0930
 4713TIP3    H135774   5.491   2.435   1.778 -0.5054  0.4754 -0.2793
 4713TIP3    H235775   5.601   2.499   1.696 -0.9168 -1.1630 -2.1876
 4714TIP3   OH235776   4.420   0.277   2.796  0.2098 -0.1114  0.0731
 4714TIP3    H135777   4.349   0.217   2.819 -0.1673  0.3913  0.2534
 4714TIP3    H235778   4.425   0.273   2.701 -0.1820 -0.0220  0.0477
 4715TIP3   OH235779   4.996   1.593   3.454 -0.2070  0.2896  0.3414
 4715TIP3    H135780   4.971   1.552   3.371 -0.2434  0.7369  0.1290
 4715TIP3    H235781   4.915   1.629   3.489 -0.2655 -0.2390  0.7723
 4716TIP3   OH235782   4.416   1.745   5.453  0.2648  0.0980  0.1072
 4716TIP3    H135783   4.493   1.695   5.427  0.2309  0.2795 -0.3512
 4716TIP3    H235784   4.351   1.729   5.385 -0.5168 -0.9481  1.0554
 4717TIP3   OH235785   0.696   6.463   3.249  0.2220  0.6820  0.7089
 4717TIP3    H135786   0.687   6.409   3.171  0.0938  3.2224 -1.1498
 4717TIP3    H235787   0.606   6.471   3.283 -0.0677  1.3181 -0.1730
 4718TIP3   OH235788   1.051   1.913   2.490  0.0389 -0.1363  0.2994
 4718TIP3    H135789   0.974   1.865   2.460 -0.8158  0.9029  0.7528
 4718TIP3    H235790   1.110   1.845   2.523 -0.3463 -1.0134 -0.7563
 4719TIP3   OH235791   3.943   2.702   4.855 -0.5089 -0.8143  0.2332
 4719TIP3    H135792   3.971   2.768   4.918  1.0775  0.7106 -1.9157
 4719TIP3    H235793   3.865   2.740   4.814 -0.9432 -1.3392  0.5632
 4720TIP3   OH235794   0.062   5.640   5.207  0.2128 -0.1097  0.0588
 4720TIP3    H135795   0.044   5.713   5.148  1.1932  0.0748 -0.0199
 4720TIP3    H235796  -0.021   5.626   5.253 -0.0063  1.0373  0.0498
 4721TIP3   OH235797   6.366   1.125   3.834 -0.1100  0.4660  0.1485
 4721TIP3    H135798   6.401   1.039   3.811  0.6277  0.0065  2.7192
 4721TIP3    H235799   6.278   1.125   3.796  0.3307 -0.8880 -0.9864
 4722TIP3   OH235800   4.788   6.706   4.578 -0.3452 -0.2613  0.3273
 4722TIP3    H135801   4.805   6.778   4.519  0.7029 -1.1170 -0.4538
 4722TIP3    H235802   4.860   6.709   4.641 -1.8400  1.1020  2.1013
 4723TIP3   OH235803   3.523   2.823   5.179  0.2056 -0.1474 -0.1501
 4723TIP3    H135804   3.521   2.731   5.153 -0.2266 -0.7723  1.8890
 4723TIP3    H235805   3.442   2.835   5.229  0.6953  1.0894  0.3766
 4724TIP3   OH235806   2.364   6.603   4.113  0.3883  0.5192  0.2014
 4724TIP3    H135807   2.315   6.561   4.184  0.1231 -0.9339 -0.7919
 4724TIP3    H235808   2.297   6.627   4.049  0.3880  3.4994  1.1373
 4725TIP3   OH235809   0.086   3.248   1.112 -0.4190 -0.3974  0.3796
 4725TIP3    H135810   0.024   3.262   1.041 -1.5152 -0.1560  1.3422
 4725TIP3    H235811   0.098   3.334   1.152  1.6441 -0.1620 -0.6232
 4726TIP3   OH235812   1.309   4.992   4.397 -0.6155  0.2172 -0.0216
 4726TIP3    H135813   1.401   4.992   4.371 -0.7833 -2.7229 -0.9227
 4726TIP3    H235814   1.261   5.002   4.315 -1.0992 -0.0036  0.2320
 4727TIP3   OH235815   1.911   4.087   2.820  0.4992  0.4141  0.1650
 4727TIP3    H135816   1.982   4.094   2.885 -0.6858  1.0368  1.4425
 4727TIP3    H235817   1.832   4.109   2.869 -0.5883 -0.2434 -1.2408
 4728TIP3   OH235818   5.126   1.575   2.956  0.2140  0.1081 -0.2313
 4728TIP3    H135819   5.043   1.570   2.909 -0.2366 -0.6440  0.6136
 4728TIP3    H235820   5.152   1.484   2.968  0.1473  0.2508  1.2232
 4729TIP3   OH235821   0.315   5.535   1.249  0.5668 -0.5999  0.3133
 4729TIP3    H135822   0.310   5.595   1.324 -0.0683  1.5862 -1.3448
 4729TIP3    H235823   0.408   5.514   1.241  0.9954  1.0983  0.3308
 4730TIP3   OH235824   0.368   4.359   0.952  0.1495 -0.0148  0.5990
 4730TIP3    H135825   0.404   4.425   1.011  0.3166  0.6192 -0.1852
 4730TIP3    H235826   0.439   4.343   0.889  0.3974 -1.5215  1.2272
 4731TIP3   OH235827   4.426   5.708   2.541 -0.5146 -0.0014  0.3917
 4731TIP3    H135828   4.507   5.700   2.490  0.7654  3.3285  1.6133
 4731TIP3    H235829   4.443   5.659   2.621  0.7495  1.4453  1.0537
 4732TIP3   OH235830   0.133   1.249   5.236  0.5520  0.4762 -0.0454
 4732TIP3    H135831   0.079   1.181   5.195  0.4592 -0.2164  1.1501
 4732TIP3    H235832   0.213   1.204   5.262  1.2832  1.2655 -0.8870
 4733TIP3   OH235833   2.220   5.164   1.428  0.4368 -0.2384  0.2431
 4733TIP3    H135834   2.220   5.242   1.373 -0.6382 -1.6409 -1.8790
 4733TIP3    H235835   2.141   5.172   1.481  1.6165  1.2524  1.9208
 4734TIP3   OH235836   0.588   1.963   0.650 -0.0534 -0.2723 -0.2617
 4734TIP3    H135837   0.676   1.939   0.679  0.4213  2.5380  0.9472
 4734TIP3    H235838   0.601   2.012   0.568 -0.5919 -0.7151 -0.6222
 4735TIP3   OH235839   5.823   3.801   1.422  0.7216 -0.0564  0.1822
 4735TIP3    H135840   5.836   3.888   1.459  1.2431  0.9642 -2.2188
 4735TIP3    H235841   5.743   3.809   1.369  0.0255 -1.4295  0.9829
 4736TIP3   OH235842   4.485   5.905   0.661 -0.4405  0.5940 -0.1642
 4736TIP3    H135843   4.507   5.851   0.737 -1.1711 -0.5647 -0.7348
 4736TIP3    H235844   4.503   5.848   0.586 -2.2009  0.7658 -0.7575
 4737TIP3   OH235845   0.220   1.895   3.313  0.4010 -0.2691  0.4399
 4737TIP3    H135846   0.227   1.889   3.218  0.3668  0.7421  0.3633
 4737TIP3    H235847   0.137   1.852   3.333  0.5023 -0.6632  0.0376
 4738TIP3   OH235848   5.965   5.817   1.552  0.1574 -0.2419 -0.5322
 4738TIP3    H135849   5.948   5.735   1.506  0.2577  0.1237 -1.2457
 4738TIP3    H235850   5.883   5.865   1.548  0.3472  0.0570 -0.8930
 4739TIP3   OH235851   0.203   2.508   2.217  0.6520  0.2816  0.1769
 4739TIP3    H135852   0.182   2.527   2.125  1.5319  0.0498 -0.0818
 4739TIP3    H235853   0.270   2.572   2.239  0.1430  0.6074  0.7945
 4740TIP3   OH235854   3.039   1.413   2.782  0.6700  0.1464 -0.2214
 4740TIP3    H135855   3.077   1.425   2.869 -1.1188 -2.5183  1.0705
 4740TIP3    H235856   3.054   1.321   2.761 -2.8773 -0.4871 -0.6078
 4741TIP3   OH235857   0.765   5.925   2.652 -0.1296 -0.0723  0.2048
 4741TIP3    H135858   0.736   5.840   2.620 -0.9923  0.2677  0.0458
 4741TIP3    H235859   0.692   5.956   2.707 -0.3159  1.0510 -0.6365
 4742TIP3   OH235860   0.631   2.914   1.860  0.1707 -0.4871 -0.0495
 4742TIP3    H135861   0.565   2.870   1.914  0.5565  0.1735  0.9792
 4742TIP3    H235862   0.582   2.983   1.815 -0.0537 -0.7109 -0.1505
 4743TIP3   OH235863   1.362   3.371   1.239  0.5081 -0.1368 -0.0215
 4743TIP3    H135864   1.333   3.280   1.251  0.6290  0.0044  1.5140
 4743TIP3    H235865   1.291   3.423   1.277  0.7444  0.3901 -0.3014
 4744TIP3   OH235866   5.282   3.951   1.384  0.3660 -0.2544 -0.2914
 4744TIP3    H135867   5.295   3.886   1.454  0.8293 -0.4689 -0.5669
 4744TIP3    H235868   5.285   4.035   1.429 -1.6814 -0.4361  0.2868
 4745TIP3   OH235869   1.026   5.434   2.683 -0.1456 -0.1017 -0.2253
 4745TIP3    H135870   0.974   5.377   2.628 -1.6989 -0.1118  1.1654
 4745TIP3    H235871   1.098   5.379   2.714 -0.5810 -0.7658 -0.3764
 4746TIP3   OH235872   2.805   0.113   3.559  0.0505  0.0518 -0.2581
 4746TIP3    H135873   2.856   0.072   3.629 -0.8105 -1.0909 -0.2734
 4746TIP3    H235874   2.849   0.197   3.543  0.0533  0.5081  1.8799
 4747TIP3   OH235875   4.571   4.949   3.344 -0.8568  0.4236 -0.7513
 4747TIP3    H135876   4.631   5.024   3.340 -0.4618  0.1427 -0.2939
 4747TIP3    H235877   4.510   4.971   3.415  0.0890 -0.2615  0.3205
 4748TIP3   OH235878   3.909   1.545   3.670  0.2606  0.0468  1.0771
 4748TIP3    H135879   3.849   1.538   3.596  1.5736 -0.6952  0.0508
 4748TIP3    H235880   3.996   1.536   3.632  0.9589 -0.8618  2.7732
 4749TIP3   OH235881   2.010   0.058   1.771  0.3601 -0.2163 -0.6802
 4749TIP3    H135882   1.997  -0.004   1.699 -0.2200  0.1989 -0.9376
 4749TIP3    H235883   1.924   0.063   1.813  0.6579 -0.3494 -0.0429
 4750TIP3   OH235884   2.314   0.640   4.135 -0.0527 -0.3973  0.0293
 4750TIP3    H135885   2.389   0.685   4.098 -0.5800  0.6899  0.2420
 4750TIP3    H235886   2.341   0.619   4.225 -1.2605  3.4559  1.4989
 4751TIP3   OH235887   5.518   3.626   2.715  0.4556 -0.0299 -0.6289
 4751TIP3    H135888   5.444   3.605   2.771  1.2592  0.9196  0.8682
 4751TIP3    H235889   5.515   3.561   2.645 -1.7180 -0.0573 -0.5764
 4752TIP3   OH235890   6.188   4.610   4.249  0.2996  0.4655  0.0839
 4752TIP3    H135891   6.259   4.674   4.243  0.8012 -0.0528  0.3718
 4752TIP3    H235892   6.232   4.528   4.271 -0.3978  0.1472  0.3147
 4753TIP3   OH235893   1.849   6.603   3.744 -0.6209  0.4762  0.2944
 4753TIP3    H135894   1.785   6.590   3.813 -0.4516  1.9090  0.7568
 4753TIP3    H235895   1.885   6.691   3.760  1.6440 -0.3775  0.2060
 4754TIP3   OH235896   1.672   0.333   2.219 -0.4772  0.6751 -0.0104
 4754TIP3    H135897   1.686   0.428   2.221 -0.5484  0.6837  1.5244
 4754TIP3    H235898   1.697   0.304   2.307 -2.9394 -0.3518  0.4221
 4755TIP3   OH235899   5.090   0.635   3.765  0.2885  0.2904 -0.0783
 4755TIP3    H135900   5.139   0.554   3.781  1.1631  1.0194  1.2008
 4755TIP3    H235901   5.018   0.633   3.828  0.5675  0.6807  0.2664
 4756TIP3   OH235902   2.950   0.212   3.162 -0.1668  0.5592 -0.0859
 4756TIP3    H135903   2.996   0.246   3.085  1.0097  2.4568  1.3697
 4756TIP3    H235904   2.973   0.119   3.163 -1.7570 -0.0027 -3.0184
 4757TIP3   OH235905   5.494   3.849   3.401  0.0062  0.0805  0.4806
 4757TIP3    H135906   5.496   3.876   3.309  0.4528 -1.9233 -0.1459
 4757TIP3    H235907   5.580   3.875   3.436  1.4011 -2.4475 -0.7608
 4758TIP3   OH235908   6.412   4.551   1.169  0.4412  0.3760  0.2376
 4758TIP3    H135909   6.494   4.529   1.125  0.0262  0.5808 -0.6561
 4758TIP3    H235910   6.428   4.528   1.261  0.5478 -2.2752 -0.3484
 4759TIP3   OH235911   0.571   4.640   4.346  0.6263 -0.0708 -0.3137
 4759TIP3    H135912   0.644   4.692   4.380  0.7163 -0.4764  0.1187
 4759TIP3    H235913   0.515   4.625   4.422  0.9731 -1.2293 -0.2728
 4760TIP3   OH235914   3.208   6.310   4.333  0.1803  0.2102 -0.0113
 4760TIP3    H135915   3.151   6.372   4.287  1.1502  0.1416 -1.3929
 4760TIP3    H235916   3.151   6.239   4.359 -0.6040  0.7613 -0.1777
 4761TIP3   OH235917   2.082   1.848   5.018 -0.7233  0.0928 -0.3650
 4761TIP3    H135918   1.990   1.870   5.001 -0.6771 -0.0847 -0.8519
 4761TIP3    H235919   2.083   1.752   5.019 -0.7557  0.0866  0.8232
 4762TIP3   OH235920   6.497   5.968   2.744  0.0064 -0.1644 -0.0058
 4762TIP3    H135921   6.491   6.022   2.823  1.7529 -1.5208  1.1402
 4762TIP3    H235922   6.440   5.894   2.762 -1.9245  0.9091 -1.3327
 4763TIP3   OH235923   4.241   5.709   4.564  0.3541 -0.0334 -0.8035
 4763TIP3    H135924   4.236   5.780   4.628 -0.0350 -0.6353 -0.1459
 4763TIP3    H235925   4.277   5.749   4.485  0.7941  0.7310 -0.2194
 4764TIP3   OH235926   0.598   1.144   4.048  0.0216 -0.3289  0.1180
 4764TIP3    H135927   0.620   1.237   4.053 -0.2047 -0.2798  0.2537
 4764TIP3    H235928   0.514   1.137   4.095 -0.8426 -0.3090 -1.3535
 4765TIP3   OH235929   2.822   1.076   3.725  0.2441  0.0767 -0.2189
 4765TIP3    H135930   2.744   1.091   3.778 -0.4833  0.3736 -1.3362
 4765TIP3    H235931   2.872   1.012   3.775  0.2063  1.2413  1.4267
 4766TIP3   OH235932   2.574   4.950   1.155  0.3726  0.1711 -0.7856
 4766TIP3    H135933   2.573   5.026   1.097  1.3260  0.6306 -0.2340
 4766TIP3    H235934   2.665   4.944   1.185  0.1652 -0.7910 -0.2977
 4767TIP3   OH235935   1.936   2.922   2.002 -0.2589 -0.3778  0.6998
 4767TIP3    H135936   1.997   2.988   2.035 -0.2533  0.1375 -0.3096
 4767TIP3    H235937   1.987   2.841   2.000  0.4297  0.0578 -0.1913
 4768TIP3   OH235938   1.146   6.359   1.227 -0.3123 -0.3185 -0.1924
 4768TIP3    H135939   1.168   6.430   1.166  0.3495 -1.7372 -1.6688
 4768TIP3    H235940   1.144   6.281   1.172 -3.0667 -1.1937  1.0042
 4769TIP3   OH235941   1.650   6.715   4.644 -0.1981  0.0595  0.8537
 4769TIP3    H135942   1.659   6.743   4.553 -1.0567 -1.7757  0.1481
 4769TIP3    H235943   1.703   6.777   4.694  1.0319  0.5669 -0.9877
 4770TIP3   OH235944   6.515   5.608   4.576  0.5331 -0.2516 -0.0322
 4770TIP3    H135945   6.609   5.596   4.590  0.7168  1.8681  0.9707
 4770TIP3    H235946   6.481   5.637   4.660 -0.3672  2.3532 -1.1921
 4771TIP3   OH235947   5.950   3.466   3.016 -0.4084  0.1681  0.1409
 4771TIP3    H135948   5.867   3.454   3.063 -0.8811  0.6343 -0.5535
 4771TIP3    H235949   5.992   3.540   3.059 -0.7001  0.4030  0.0234
 4772TIP3   OH235950   6.308   4.514   4.543 -0.4121 -0.6970  0.1336
 4772TIP3    H135951   6.228   4.466   4.521 -0.9386 -0.3045  1.1435
 4772TIP3    H235952   6.318   4.502   4.638 -0.0741  0.4584  0.2586
 4773TIP3   OH235953   3.722   4.749   0.795 -0.0917 -0.0031  0.0949
 4773TIP3    H135954   3.794   4.811   0.781  1.0285 -0.9715  1.2712
 4773TIP3    H235955   3.691   4.768   0.883 -0.2286 -0.5970  0.1826
 4774TIP3   OH235956   4.711   6.253   2.598  0.2004 -0.1120 -0.4760
 4774TIP3    H135957   4.657   6.262   2.519 -0.0726 -0.1259 -0.2928
 4774TIP3    H235958   4.775   6.324   2.591  0.4028 -0.3333 -0.8877
 4775TIP3   OH235959   6.030   0.087   2.660 -0.2354  0.0854 -0.0820
 4775TIP3    H135960   5.964   0.019   2.643 -0.8852  0.3380  1.2365
 4775TIP3    H235961   5.978   0.164   2.684  0.5312  0.4043  0.5943
 4776TIP3   OH235962   5.986   1.705   4.722  0.1797  0.2309 -0.1271
 4776TIP3    H135963   6.030   1.791   4.728 -1.0309  0.9044 -0.5951
 4776TIP3    H235964   6.022   1.665   4.643  1.4262 -0.1012  0.5872
 4777TIP3   OH235965   5.345   3.150   5.253 -0.1215  1.1533  0.0412
 4777TIP3    H135966   5.257   3.159   5.218 -0.1893  0.6946  0.0834
 4777TIP3    H235967   5.336   3.086   5.324  0.4392  0.2242 -0.6965
 4778TIP3   OH235968   6.735   2.572   4.317  0.5522  0.0278 -0.2965
 4778TIP3    H135969   6.782   2.655   4.323  2.2194 -0.9517  0.7293
 4778TIP3    H235970   6.800   2.505   4.335 -1.6214 -1.3309  4.1288
 4779TIP3   OH235971   0.085   3.412   2.857  0.0764  0.0020 -0.3130
 4779TIP3    H135972   0.148   3.475   2.822  0.3516 -1.4269 -2.6120
 4779TIP3    H235973   0.038   3.460   2.925  2.4684  1.6444  0.3021
 4780TIP3   OH235974   5.500   0.509   4.715  0.1302 -0.0638 -0.0947
 4780TIP3    H135975   5.472   0.449   4.646 -1.7012 -1.4373  1.7112
 4780TIP3    H235976   5.513   0.453   4.791  2.1274  1.3845  0.7168
 4781TIP3   OH235977   4.219   2.584   3.591 -0.2375  0.8774 -0.2132
 4781TIP3    H135978   4.273   2.642   3.644 -1.1867  0.9791  0.6575
 4781TIP3    H235979   4.257   2.590   3.503  0.7757  1.4205  0.2483
 4782TIP3   OH235980   2.888   5.530   4.977  0.0494 -0.0568 -0.2019
 4782TIP3    H135981   2.799   5.545   4.945 -0.0569 -0.2307  0.0139
 4782TIP3    H235982   2.877   5.499   5.067  0.1454 -3.6809 -1.2894
 4783TIP3   OH235983   6.291   3.921   2.349 -0.1212 -0.2483  0.0720
 4783TIP3    H135984   6.247   3.847   2.307  0.8445 -0.7057 -0.1491
 4783TIP3    H235985   6.233   3.945   2.422 -0.5221 -1.1257  0.0534
 4784TIP3   OH235986   4.966   2.514   3.704 -0.3337 -0.2764 -0.0909
 4784TIP3    H135987   4.939   2.496   3.794 -1.8890 -0.4444 -0.5558
 4784TIP3    H235988   4.897   2.475   3.650  1.4000 -1.6027 -1.4316
 4785TIP3   OH235989   5.956   2.637   4.176 -0.3576  0.5824  0.3818
 4785TIP3    H135990   6.046   2.650   4.145 -0.9359  2.0463 -0.8340
 4785TIP3    H235991   5.947   2.696   4.251 -0.0803 -0.1814  1.0316
 4786TIP3   OH235992   3.433   3.434   0.096  0.0275  0.2192  0.2661
 4786TIP3    H135993   3.395   3.350   0.072 -0.7550  1.1742 -2.1799
 4786TIP3    H235994   3.372   3.470   0.161 -0.6540 -0.3140 -0.0639
 4787TIP3   OH235995   4.233   3.230   2.061 -0.0841  0.8714 -0.2347
 4787TIP3    H135996   4.171   3.176   2.110 -0.0290  1.8934  1.0023
 4787TIP3    H235997   4.318   3.189   2.076 -0.0263  1.3505  0.8010
 4788TIP3   OH235998   0.684   6.620   1.976 -0.6605 -0.5714 -0.3750
 4788TIP3    H135999   0.610   6.664   2.018 -0.9730 -2.4129  1.1389
 4788TIP3    H236000   0.753   6.619   2.042 -1.1829 -3.5935  0.2751
 4789TIP3   OH236001   4.399   5.916   1.763  0.1168 -0.1499 -0.3609
 4789TIP3    H136002   4.449   5.994   1.788  2.0100 -0.9112 -1.5536
 4789TIP3    H236003   4.369   5.935   1.674 -0.3052 -0.3875 -0.2738
 4790TIP3   OH236004   0.448   3.021   1.645 -0.0207  0.2572  0.1294
 4790TIP3    H136005   0.518   2.994   1.586 -0.6906 -0.3134 -0.4094
 4790TIP3    H236006   0.422   3.108   1.614  0.6460  0.6049  0.5201
 4791TIP3   OH236007   2.456   1.656   4.990  0.1138 -0.1441  0.1923
 4791TIP3    H136008   2.493   1.612   5.066  0.9983 -0.1966 -0.2618
 4791TIP3    H236009   2.427   1.741   5.022 -1.1688 -0.8432  0.9755
 4792TIP3   OH236010   2.811   1.516   2.135  0.2819  0.2625 -0.0640
 4792TIP3    H136011   2.842   1.459   2.205 -1.7949  0.1332  0.8475
 4792TIP3    H236012   2.881   1.515   2.070  1.8483 -0.4075  1.5545
 4793TIP3   OH236013   2.086   1.951   2.974  0.5973 -0.0311  0.5016
 4793TIP3    H136014   2.076   1.939   3.069 -1.7090 -0.1872  0.3092
 4793TIP3    H236015   2.120   1.868   2.942 -1.4154 -1.0637  0.8884
 4794TIP3   OH236016   1.618   2.388   2.340 -0.6430  0.6517  0.0171
 4794TIP3    H136017   1.683   2.408   2.272 -1.1182  0.0466 -0.6350
 4794TIP3    H236018   1.664   2.402   2.422  0.8053 -1.2168 -0.3970
 4795TIP3   OH236019   2.159   2.827   1.525  0.1105  0.7594 -0.6864
 4795TIP3    H136020   2.077   2.867   1.551  1.0552  1.8554  0.7886
 4795TIP3    H236021   2.164   2.746   1.576  0.3822  1.1821 -0.0363
 4796TIP3   OH236022   5.697   6.640   3.064  0.0706 -0.0195  0.1173
 4796TIP3    H136023   5.725   6.618   3.153  0.5811 -2.0855 -0.4993
 4796TIP3    H236024   5.703   6.557   3.016 -0.3906  1.0043 -1.8010
 4797TIP3   OH236025   6.585   2.656   1.138 -0.6734 -0.4950  0.1827
 4797TIP3    H136026   6.621   2.568   1.136  0.8933  0.1192 -0.5013
 4797TIP3    H236027   6.594   2.688   1.048  1.3041  1.2734  0.9079
 4798TIP3   OH236028   6.043   6.462   1.672 -0.0457  0.1558  0.0227
 4798TIP3    H136029   6.105   6.491   1.605  0.0031 -1.9703 -0.9320
 4798TIP3    H236030   5.963   6.442   1.624 -0.2787 -0.6048  0.6991
 4799TIP3   OH236031   6.063   1.040   3.218 -0.1361 -0.1968 -0.0373
 4799TIP3    H136032   6.148   1.084   3.221  0.7325 -1.8300  0.5638
 4799TIP3    H236033   6.019   1.078   3.142  1.8765 -0.5626 -1.4892
 4800TIP3   OH236034   5.398   3.307   4.506 -0.0727  0.2656 -0.2216
 4800TIP3    H136035   5.406   3.216   4.534  2.3722  0.7726  0.9560
 4800TIP3    H236036   5.368   3.301   4.415 -0.0501 -1.6872 -0.1467
 4801TIP3   OH236037   2.072   3.461   4.677 -0.1616 -0.7420 -1.2159
 4801TIP3    H136038   2.064   3.400   4.603 -2.6043 -0.5820 -1.1528
 4801TIP3    H236039   1.982   3.482   4.701  0.5992  1.0830  0.2926
 4802TIP3   OH236040   6.434   6.184   2.425 -0.2623  0.1143 -0.1010
 4802TIP3    H136041   6.353   6.154   2.383 -1.1351  0.9009  0.9405
 4802TIP3    H236042   6.443   6.275   2.396  0.3154 -0.0072 -0.3010
 4803TIP3   OH236043   5.308   2.064   3.426  1.0459  0.2119 -0.5944
 4803TIP3    H136044   5.281   2.056   3.334  2.4506  2.5108 -1.2906
 4803TIP3    H236045   5.228   2.046   3.476  0.2250 -0.9812 -2.2366
 4804TIP3   OH236046   2.772   0.739   2.632 -0.2055 -0.5824 -0.2370
 4804TIP3    H136047   2.827   0.735   2.711  2.9846  0.1711 -2.2483
 4804TIP3    H236048   2.693   0.785   2.660  0.5071 -0.9349  2.6485
 4805TIP3   OH236049   6.732   5.507   1.762 -1.0051 -0.4496 -0.2621
 4805TIP3    H136050   6.658   5.538   1.815 -1.2840 -2.2520  0.4811
 4805TIP3    H236051   6.792   5.469   1.826 -0.5461 -1.1379 -1.0914
 4806TIP3   OH236052   3.395   6.459   1.722 -0.4982 -0.4384 -0.1522
 4806TIP3    H136053   3.392   6.527   1.655 -2.0720  1.5116  1.7430
 4806TIP3    H236054   3.308   6.461   1.762 -0.1767 -2.7241  0.8377
 4807TIP3   OH236055   2.414   6.266   0.783  0.3008  0.3133  0.0833
 4807TIP3    H136056   2.329   6.287   0.820  0.2640 -0.2768  0.3396
 4807TIP3    H236057   2.453   6.204   0.844  1.0483  0.8101  0.1297
 4808TIP3   OH236058   4.882   5.997   3.211 -0.8031  0.8566  0.3344
 4808TIP3    H136059   4.810   6.013   3.150  0.7349  0.0786 -1.8258
 4808TIP3    H236060   4.896   6.081   3.255 -2.3530  1.2876  0.0505
 4809TIP3   OH236061   1.836   1.331   3.923  0.4456 -0.1514  0.4153
 4809TIP3    H136062   1.926   1.300   3.934  0.6864  0.4070  0.0478
 4809TIP3    H236063   1.843   1.405   3.863 -0.3860 -0.7101 -0.3898
 4810TIP3   OH236064   1.811   4.836   4.789 -0.6867 -0.3517 -0.0688
 4810TIP3    H136065   1.764   4.817   4.708  0.0827 -0.3500 -0.5279
 4810TIP3    H236066   1.903   4.821   4.767 -0.3393  0.8671  0.4403
 4811TIP3   OH236067   3.204   6.125   4.024  0.4765 -0.3830  0.1024
 4811TIP3    H136068   3.283   6.079   4.052  0.1111 -1.0234  0.1063
 4811TIP3    H236069   3.134   6.090   4.081  0.1593  0.0441 -0.0176
 4812TIP3   OH236070   2.254   6.068   2.099 -0.5663  0.0402  0.3544
 4812TIP3    H136071   2.160   6.063   2.115 -0.8027  2.3002 -0.0428
 4812TIP3    H236072   2.286   6.133   2.162  0.7562 -0.7260  0.5122
 4813TIP3   OH236073   0.640   6.601   4.032  0.0743  0.2858  0.1089
 4813TIP3    H136074   0.554   6.581   4.070 -0.4829  0.7092 -0.8935
 4813TIP3    H236075   0.701   6.547   4.082 -0.9035 -0.8442  0.1440
 4814TIP3   OH236076   2.441   2.511   1.779 -0.3104  0.2205  0.2589
 4814TIP3    H136077   2.351   2.539   1.763 -0.3600 -0.6612 -1.2288
 4814TIP3    H236078   2.489   2.591   1.800 -1.0577  0.9829 -0.8437
 4815TIP3   OH236079   3.242   0.421   2.199  0.1103  0.5531 -0.3415
 4815TIP3    H136080   3.189   0.428   2.120 -0.2512 -2.0177 -0.4320
 4815TIP3    H236081   3.182   0.439   2.271 -0.4975 -0.6616 -0.5220
 4816TIP3   OH236082   5.322   3.601   5.362 -0.1528 -0.0404  0.1586
 4816TIP3    H136083   5.265   3.662   5.315  1.3255  0.0555 -1.6499
 4816TIP3    H236084   5.389   3.657   5.401  1.5709 -0.4629 -2.0309
 4817TIP3   OH236085   4.312   3.774   5.432 -0.2421  0.2528 -0.4132
 4817TIP3    H136086   4.309   3.717   5.509 -0.1355 -1.8232 -1.8761
 4817TIP3    H236087   4.264   3.853   5.459 -1.2393 -0.9029  1.3985
 4818TIP3   OH236088   3.461   3.808   0.155 -0.2830 -0.3135 -0.0561
 4818TIP3    H136089   3.508   3.780   0.233 -0.8757 -0.7103  0.1669
 4818TIP3    H236090   3.523   3.863   0.107 -0.2622  0.8236  1.2232
 4819TIP3   OH236091   6.522   0.908   2.988  0.5163  0.1267  0.4042
 4819TIP3    H136092   6.530   0.879   3.079 -1.7148  0.2231  0.7065
 4819TIP3    H236093   6.533   1.003   2.992 -1.4264  0.3806  0.9394
 4820TIP3   OH236094   4.336   2.213   4.740  0.0683  0.0448 -0.2408
 4820TIP3    H136095   4.426   2.191   4.766 -0.3736 -2.1595 -0.3664
 4820TIP3    H236096   4.345   2.292   4.687  1.9374 -0.1311 -0.2627
 4821TIP3   OH236097   2.860   0.348   0.463  0.4425  0.2476 -0.1597
 4821TIP3    H136098   2.839   0.434   0.500 -1.5144 -0.2908  0.0736
 4821TIP3    H236099   2.851   0.288   0.537 -1.1956 -0.5343 -0.9422
 4822TIP3   OH236100   0.855   2.272   2.517  0.1230 -0.1763 -0.4394
 4822TIP3    H136101   0.859   2.367   2.501  1.1609 -0.4815 -2.2646
 4822TIP3    H236102   0.943   2.250   2.547  0.4500 -0.8120 -1.7915
 4823TIP3   OH236103   0.914   1.831   2.976 -0.7830 -0.2292 -0.0918
 4823TIP3    H136104   0.942   1.747   2.939  3.5299  1.1648 -0.5937
 4823TIP3    H236105   0.926   1.893   2.904  1.1334  1.4765  1.5698
 4824TIP3   OH236106   3.139   4.852   1.091  0.2729  0.1592  0.3478
 4824TIP3    H136107   3.118   4.934   1.045 -0.7727 -0.1149  0.3238
 4824TIP3    H236108   3.178   4.881   1.174  0.3374  0.6728  0.1468
 4825TIP3   OH236109   5.665   0.165   3.523  0.4075 -0.1540  0.7785
 4825TIP3    H136110   5.576   0.133   3.507  0.9558 -1.7004  0.6894
 4825TIP3    H236111   5.679   0.231   3.455 -0.4576 -0.3432  0.4085
 4826TIP3   OH236112   0.126   3.340   3.844 -0.6879  0.0380 -0.0272
 4826TIP3    H136113   0.108   3.405   3.776  2.3087  1.1982  0.1560
 4826TIP3    H236114   0.159   3.264   3.796 -2.7280 -0.8875 -0.1071
 4827TIP3   OH236115   6.746   0.527   2.502  0.4005  0.1650 -0.1524
 4827TIP3    H136116   6.761   0.444   2.457  1.0563 -0.2956  0.8881
 4827TIP3    H236117   6.688   0.505   2.575  2.1370  0.2355  1.2876
 4828TIP3   OH236118   4.428   3.235   4.762 -0.7566  0.3350  0.0437
 4828TIP3    H136119   4.503   3.250   4.705 -1.1519 -0.2316 -0.6415
 4828TIP3    H236120   4.404   3.322   4.794 -0.8956  0.7470 -1.1393
 4829TIP3   OH236121   4.215   3.433   4.831 -0.0915  0.4146 -0.1453
 4829TIP3    H136122   4.218   3.523   4.798  0.4226  0.3397 -0.3085
 4829TIP3    H236123   4.128   3.402   4.808 -0.0394  0.6485 -0.6778
 4830TIP3   OH236124   6.710   5.786   3.943 -0.0335  0.2171  0.0442
 4830TIP3    H136125   6.632   5.827   3.979  0.6190  0.5652  1.1254
 4830TIP3    H236126   6.728   5.835   3.862 -0.7657  0.3121 -0.0643
 4831TIP3   OH236127   3.320   0.769   4.185  0.7279  0.1913 -0.3397
 4831TIP3    H136128   3.317   0.688   4.134 -0.5897  0.5416 -0.8540
 4831TIP3    H236129   3.370   0.746   4.264 -1.2208 -1.6786  0.4349
 4832TIP3   OH236130   4.501   2.623   1.481 -0.9017  0.1851 -0.2011
 4832TIP3    H136131   4.421   2.609   1.432 -1.5371 -0.5213  0.9761
 4832TIP3    H236132   4.473   2.663   1.563  0.0437  0.6861 -0.1018
 4833TIP3   OH236133   2.126   5.306   2.305 -0.1940 -0.1460  0.2799
 4833TIP3    H136134   2.069   5.326   2.230 -0.0147 -1.0107 -0.1023
 4833TIP3    H236135   2.099   5.219   2.333  0.1519 -0.0783  0.8462
 4834TIP3   OH236136   2.527   5.498   2.421  0.0745  0.1130 -0.2400
 4834TIP3    H136137   2.582   5.437   2.471  0.9557  0.4085 -0.8115
 4834TIP3    H236138   2.438   5.478   2.447  0.5512  1.0896  2.3833
 4835TIP3   OH236139   6.210   0.104   4.543  0.3222 -0.3384  0.0134
 4835TIP3    H136140   6.305   0.105   4.537  0.3417  1.1413  0.2337
 4835TIP3    H236141   6.190   0.161   4.617 -0.8271  1.3928 -1.5505
 4836TIP3   OH236142   1.759   1.412   2.705  0.4277 -0.2255 -0.2701
 4836TIP3    H136143   1.790   1.488   2.656  0.2319  0.3695  0.5052
 4836TIP3    H236144   1.817   1.341   2.679  0.9705  0.3243 -0.5812
 4837TIP3   OH236145   5.812   0.149   2.364  0.2951  0.3889  0.4434
 4837TIP3    H136146   5.800   0.066   2.409 -1.2953  0.2334 -0.2095
 4837TIP3    H236147   5.772   0.136   2.277  0.3221  1.7079  0.2086
 4838TIP3   OH236148   4.788   3.410   2.624 -0.4034  0.4521  0.3294
 4838TIP3    H136149   4.869   3.396   2.673  0.8430  2.0338 -1.1515
 4838TIP3    H236150   4.731   3.337   2.650  1.2052 -0.2913  1.9752
 4839TIP3   OH236151   1.718   4.747   3.668  0.8542 -0.0880  0.2650
 4839TIP3    H136152   1.760   4.675   3.620  0.0523 -0.0143 -0.5691
 4839TIP3    H236153   1.728   4.822   3.611 -1.3766 -0.3012 -0.4846
 4840TIP3   OH236154   1.854   5.901   2.301 -0.3579  0.3611  0.1499
 4840TIP3    H136155   1.872   5.945   2.218  0.5878 -0.7050 -0.2314
 4840TIP3    H236156   1.869   5.969   2.367 -0.8759  1.1543 -0.5147
 4841TIP3   OH236157   4.152   4.735   1.626 -0.1574  0.7558 -0.1122
 4841TIP3    H136158   4.140   4.641   1.636 -0.3028  0.6550 -1.0706
 4841TIP3    H236159   4.237   4.743   1.583  0.7406  1.1772  1.6439
 4842TIP3   OH236160   6.580   5.050   4.172 -0.4810  0.1634  0.0080
 4842TIP3    H136161   6.670   5.078   4.155 -0.1477  0.0185  1.3956
 4842TIP3    H236162   6.585   4.955   4.174 -0.3866  0.1841  1.4044
 4843TIP3   OH236163   5.093   4.520   3.016 -0.3029  0.0291 -0.6685
 4843TIP3    H136164   5.000   4.523   3.037 -0.0440  0.0788  0.5129
 4843TIP3    H236165   5.125   4.609   3.035  0.0498 -0.0696 -0.7811
 4844TIP3   OH236166   3.309   1.650   2.874  0.0725 -0.3549 -0.0796
 4844TIP3    H136167   3.248   1.578   2.890  1.1553 -1.4162 -0.5394
 4844TIP3    H236168   3.392   1.607   2.852  1.3328  1.0187  1.7117
 4845TIP3   OH236169   3.962   4.343   1.214  0.0340  0.5739 -0.3152
 4845TIP3    H136170   4.033   4.395   1.175 -0.7287  0.8897 -1.3188
 4845TIP3    H236171   4.000   4.309   1.295  0.0516  4.1037  1.3279
 4846TIP3   OH236172   2.646   5.404   2.817 -0.2187 -0.0048  0.5819
 4846TIP3    H136173   2.629   5.415   2.910 -0.2134 -0.0809  0.5917
 4846TIP3    H236174   2.559   5.399   2.777 -0.2581  1.7448  0.3728
 4847TIP3   OH236175   5.330   5.767   1.160  0.2743 -0.6714  0.1336
 4847TIP3    H136176   5.354   5.839   1.219 -3.8920 -0.6077  2.0892
 4847TIP3    H236177   5.357   5.688   1.207  0.9231 -0.5220  0.0230
 4848TIP3   OH236178   3.992   6.621   4.574  0.1550  0.0103  0.2782
 4848TIP3    H136179   3.908   6.607   4.617 -1.0805  0.1249 -1.9152
 4848TIP3    H236180   4.015   6.536   4.536  0.1828  0.3443 -0.4920
 4849TIP3   OH236181   5.235   6.018   4.249 -0.3635  0.1587  0.5182
 4849TIP3    H136182   5.317   6.027   4.297 -0.3995 -2.2627  1.1448
 4849TIP3    H236183   5.216   5.924   4.250 -1.9108  0.3587 -1.6847
 4850TIP3   OH236184   6.074   1.833   3.467  0.1602  0.0148 -0.0737
 4850TIP3    H136185   6.095   1.859   3.557 -1.4728 -0.2380  0.4140
 4850TIP3    H236186   6.108   1.904   3.413 -3.0056  2.7029  1.1190
 4851TIP3   OH236187   2.935   6.373   2.055  0.3369 -0.4431  0.0714
 4851TIP3    H136188   2.911   6.317   2.128 -1.3334  0.2366  0.1049
 4851TIP3    H236189   2.886   6.338   1.981 -1.3158  1.3158  0.2485
 4852TIP3   OH236190   6.459   3.514   2.282 -0.5383  0.4476  0.2529
 4852TIP3    H136191   6.414   3.432   2.260 -0.0235  0.3449 -0.4158
 4852TIP3    H236192   6.415   3.581   2.229 -0.1682  0.4107 -0.1019
 4853TIP3   OH236193   5.750   1.074   5.636  0.1246 -0.6725  0.4688
 4853TIP3    H136194   5.792   0.993   5.665  1.1950 -0.1090  0.5436
 4853TIP3    H236195   5.657   1.053   5.631  0.1465 -1.3655  2.3717
 4854TIP3   OH236196   4.041   6.545   3.383 -0.0959  0.5309 -0.3737
 4854TIP3    H136197   4.121   6.494   3.395 -0.2595  0.3466 -0.0394
 4854TIP3    H236198   3.977   6.502   3.440  0.1563  2.0019  1.0831
 4855TIP3   OH236199   5.911   3.355   5.593  0.4909  0.0124  0.4804
 4855TIP3    H136200   5.980   3.300   5.628 -0.5601 -0.5288  1.7682
 4855TIP3    H236201   5.885   3.313   5.511  0.9720 -0.3571  0.5170
 4856TIP3   OH236202   0.686   2.268   2.738 -0.3992  0.6001  0.5941
 4856TIP3    H136203   0.752   2.243   2.674  1.3644  0.2733  2.4393
 4856TIP3    H236204   0.697   2.362   2.749 -2.1449  1.0487 -1.0685
 4857TIP3   OH236205   4.452   2.959   3.914  0.6086  0.1928 -0.5066
 4857TIP3    H136206   4.533   2.968   3.964  0.9236 -1.6390 -0.6164
 4857TIP3    H236207   4.387   2.933   3.979  0.4403  0.2608 -0.6472
 4858TIP3   OH236208   0.778   2.982   5.350 -0.6040  0.1777 -0.0815
 4858TIP3    H136209   0.761   2.924   5.423  0.7135 -0.6843 -0.4303
 4858TIP3    H236210   0.840   2.935   5.295  0.1990  1.7460 -0.5873
 4859TIP3   OH236211   5.854   1.919   3.325  0.3196 -0.0703 -0.0631
 4859TIP3    H136212   5.793   1.979   3.367 -0.8642  0.1800 -2.0038
 4859TIP3    H236213   5.917   1.897   3.393 -1.2417  0.6012  1.6784
 4860TIP3   OH236214   0.662   3.245   2.081 -0.1793 -0.5665 -0.1128
 4860TIP3    H136215   0.631   3.170   2.133  0.0092  0.9598  2.3798
 4860TIP3    H236216   0.755   3.227   2.066 -0.3548 -1.2720 -0.4011
 4861TIP3   OH236217   3.522   2.737   1.894 -0.4106 -0.3478 -0.1927
 4861TIP3    H136218   3.531   2.793   1.818 -1.9447 -0.7052 -0.6817
 4861TIP3    H236219   3.547   2.649   1.863  0.2407 -0.2633  0.0815
 4862TIP3   OH236220   5.711   3.177   2.113 -0.0992 -1.0423  0.1842
 4862TIP3    H136221   5.668   3.108   2.163 -1.5412 -1.3182 -1.3473
 4862TIP3    H236222   5.705   3.254   2.170 -2.4793 -1.1366  0.1565
 4863TIP3   OH236223   2.735   1.437   3.295  0.5540  0.3607 -0.0090
 4863TIP3    H136224   2.660   1.379   3.279  0.9483  0.4786 -2.8885
 4863TIP3    H236225   2.695   1.523   3.314 -0.0254 -0.0568  0.7004
 4864TIP3   OH236226   1.921   6.246   4.562  0.2776 -0.7445  0.3497
 4864TIP3    H136227   2.013   6.272   4.553  0.4431 -0.6329  2.1159
 4864TIP3    H236228   1.872   6.317   4.521  0.8844  0.6006  1.8555
 4865TIP3   OH236229   6.167   6.309   3.564 -0.2461  0.0498  0.5266
 4865TIP3    H136230   6.121   6.229   3.587 -1.0719  0.4975  0.4655
 4865TIP3    H236231   6.258   6.282   3.552 -0.5713 -0.9303  0.1983
 4866TIP3   OH236232   4.778   0.002   1.851 -0.1164 -0.2397  0.6449
 4866TIP3    H136233   4.795  -0.080   1.898  1.9129 -0.1384  0.1731
 4866TIP3    H236234   4.859   0.052   1.861 -0.3514  0.5975 -1.3301
 4867TIP3   OH236235   1.186   5.700   1.155 -0.7769  0.1786 -0.1302
 4867TIP3    H136236   1.229   5.633   1.102 -0.7808 -0.2086  0.3488
 4867TIP3    H236237   1.221   5.783   1.122 -0.9255 -0.0430 -0.8626
 4868TIP3   OH236238   2.076   4.701   0.130  0.2948 -0.3423 -0.1457
 4868TIP3    H136239   2.149   4.682   0.071  2.0160  3.9162  0.2011
 4868TIP3    H236240   2.104   4.668   0.215  2.6384  2.2551  0.2572
 4869TIP3   OH236241   0.860   6.535   3.022  0.2628 -0.0870  0.2468
 4869TIP3    H136242   0.894   6.498   2.940  0.4552  2.8101 -1.1247
 4869TIP3    H236243   0.768   6.554   3.003  0.3200  0.6298  0.6790
 4870TIP3   OH236244   0.156   3.147   5.003  0.4623 -0.4733  0.5287
 4870TIP3    H136245   0.190   3.197   5.077  2.6496 -1.0485 -0.0275
 4870TIP3    H236246   0.100   3.209   4.956 -0.3826  0.1094  2.2438
 4871TIP3   OH236247   5.212   3.025   3.171  0.3539  0.2245 -0.1076
 4871TIP3    H136248   5.277   3.084   3.209  0.1777 -0.2800  1.0160
 4871TIP3    H236249   5.130   3.050   3.214 -0.0077  0.1719 -0.7595
 4872TIP3   OH236250   6.223   3.126   1.864  0.3730 -0.5085 -1.1071
 4872TIP3    H136251   6.246   3.091   1.951  1.7823 -0.5234 -1.4553
 4872TIP3    H236252   6.256   3.216   1.866  2.6501 -1.2297 -2.4151
 4873TIP3   OH236253   1.389   3.615   3.625 -0.5827 -0.1316  0.4863
 4873TIP3    H136254   1.397   3.677   3.553  0.1425 -1.0757 -0.2784
 4873TIP3    H236255   1.473   3.617   3.670 -1.0446  0.4804  1.3461
 4874TIP3   OH236256   0.728   3.551   0.576 -0.3745 -0.0222  0.1715
 4874TIP3    H136257   0.645   3.580   0.614 -1.0550 -1.1294 -0.4159
 4874TIP3    H236258   0.705   3.476   0.521  0.6654  1.0073 -1.8214
 4875TIP3   OH236259   2.622   0.802   4.357 -0.2118  0.3063  0.1294
 4875TIP3    H136260   2.649   0.855   4.282 -0.1163 -2.1240 -1.6608
 4875TIP3    H236261   2.694   0.812   4.420 -0.2268  2.2776 -0.1135
 4876TIP3   OH236262   2.595   2.533   2.980  0.2385  0.8047 -0.2847
 4876TIP3    H136263   2.546   2.615   2.980  0.4817  0.9746  1.2530
 4876TIP3    H236264   2.529   2.466   2.995  0.4894  1.0898  2.4603
 4877TIP3   OH236265   3.460   6.626   0.190 -0.2980  0.3925  0.2708
 4877TIP3    H136266   3.463   6.696   0.255 -1.5366 -0.4646  1.2972
 4877TIP3    H236267   3.549   6.620   0.157  0.3375  0.9554  1.7995
 4878TIP3   OH236268   1.331   3.944   2.885  0.2092 -0.1543 -0.0481
 4878TIP3    H136269   1.364   4.027   2.851 -0.1247 -0.3637 -0.9259
 4878TIP3    H236270   1.242   3.963   2.913  0.2254 -0.1515  0.0009
 4879TIP3   OH236271   3.713   5.666   3.367  0.1274  0.2364  0.4211
 4879TIP3    H136272   3.647   5.733   3.382 -2.1185 -1.6380 -0.4394
 4879TIP3    H236273   3.755   5.655   3.452 -2.0402  0.1642  1.5683
 4880TIP3   OH236274   4.834   6.078   1.572 -0.2262 -0.4976  0.0845
 4880TIP3    H136275   4.822   6.166   1.607  1.1073 -0.3095  0.0913
 4880TIP3    H236276   4.803   6.084   1.482 -0.2656 -0.0563  0.1263
 4881TIP3   OH236277   5.139   3.768   2.783  0.4390  0.4312  0.1800
 4881TIP3    H136278   5.095   3.686   2.803 -0.0272  0.7939  0.6620
 4881TIP3    H236279   5.074   3.836   2.800  1.2488  0.9970  1.1650
 4882TIP3   OH236280   1.465   1.175   4.058  0.0031  0.0213  1.1034
 4882TIP3    H136281   1.393   1.195   4.118 -1.2169  0.6490 -0.5103
 4882TIP3    H236282   1.543   1.174   4.114 -1.4139 -2.6046  3.2633
 4883TIP3   OH236283   6.738   2.388   4.876 -0.1893 -0.2101 -0.0067
 4883TIP3    H136284   6.746   2.309   4.929 -0.4230 -0.3186 -0.1294
 4883TIP3    H236285   6.645   2.391   4.851 -0.3138  0.4256  0.4893
 4884TIP3   OH236286   4.826   4.564   3.015  0.6344 -0.3145 -0.4402
 4884TIP3    H136287   4.765   4.518   3.074  2.2827 -0.8403  0.9347
 4884TIP3    H236288   4.785   4.649   3.000 -0.8670 -0.9832 -0.3114
 4885TIP3   OH236289   3.078   5.080   3.254 -0.8813 -0.4610 -1.0637
 4885TIP3    H136290   3.001   5.115   3.298 -0.1138 -1.0637  0.9031
 4885TIP3    H236291   3.057   5.084   3.161 -1.6690  3.2019 -0.8909
 4886TIP3   OH236292   3.734   0.471   2.962 -0.0021 -0.4985  0.3023
 4886TIP3    H136293   3.743   0.414   3.038  0.7350  0.3298  0.8528
 4886TIP3    H236294   3.822   0.506   2.947 -0.2963 -0.0539 -0.4545
 4887TIP3   OH236295   2.100   2.772   3.075 -0.8374 -0.1216  0.7397
 4887TIP3    H136296   2.019   2.803   3.115 -2.1614 -1.5042 -0.7554
 4887TIP3    H236297   2.161   2.845   3.086 -2.6647  1.4904  0.7096
 4888TIP3   OH236298   1.379   5.415   3.679  0.0267 -0.7776  0.0771
 4888TIP3    H136299   1.306   5.355   3.668  0.0752 -1.0828  1.3469
 4888TIP3    H236300   1.376   5.441   3.771 -0.2113  1.4577 -0.5014
 4889TIP3   OH236301   4.796   2.771   2.539  0.1478 -0.1575 -0.1447
 4889TIP3    H136302   4.759   2.774   2.627  0.1296 -0.6673 -0.1358
 4889TIP3    H236303   4.742   2.707   2.492  0.9590 -0.8503 -0.1554
 4890TIP3   OH236304   6.314   3.676   1.801 -0.5282  0.9533 -1.0024
 4890TIP3    H136305   6.301   3.756   1.750 -0.7858  0.8749 -1.0638
 4890TIP3    H236306   6.364   3.618   1.744  2.6145  2.2585  0.2158
 4891TIP3   OH236307   2.298   4.208   1.042 -0.1284 -0.2415  0.3465
 4891TIP3    H136308   2.342   4.292   1.027  1.7426 -1.5054 -1.9083
 4891TIP3    H236309   2.206   4.226   1.026  0.0740  1.6038  1.0046
 4892TIP3   OH236310   1.421   3.943   4.001  0.1593  0.7184  0.0691
 4892TIP3    H136311   1.444   3.991   3.922 -1.4492  0.8295 -0.3667
 4892TIP3    H236312   1.336   3.979   4.028 -0.7328 -1.3121  0.1655
 4893TIP3   OH236313   2.977   2.248   3.011  0.2584  0.9446 -0.5861
 4893TIP3    H136314   3.032   2.241   3.088 -1.3508 -1.0989  0.5012
 4893TIP3    H236315   2.917   2.321   3.030 -0.5424  0.0581  0.4526
 4894TIP3   OH236316   4.159   0.052   3.997 -0.1089 -0.1358  0.4226
 4894TIP3    H136317   4.125   0.133   3.960  0.7820  1.2284  2.4007
 4894TIP3    H236318   4.112   0.042   4.080  0.6975 -0.9510  0.7960
 4895TIP3   OH236319   2.858   5.969   2.326  0.5779  0.5919 -0.3856
 4895TIP3    H136320   2.845   5.884   2.285  1.4600  0.8653 -1.3058
 4895TIP3    H236321   2.952   5.972   2.346  0.1980  0.5249  1.6042
 4896TIP3   OH236322   3.912   1.462   0.302 -0.0886 -0.0087  0.0227
 4896TIP3    H136323   3.974   1.534   0.314  0.0848 -0.2876  0.8480
 4896TIP3    H236324   3.964   1.383   0.317 -0.2262 -0.3263 -1.0984
 4897TIP3   OH236325   0.478   1.133   2.592 -0.3972 -0.8305 -0.3449
 4897TIP3    H136326   0.401   1.095   2.633 -1.1082 -0.7143 -1.5303
 4897TIP3    H236327   0.493   1.079   2.514 -0.2219  0.0775 -0.9622
 4898TIP3   OH236328   3.123   1.391   4.639 -0.4738 -0.0629  0.0377
 4898TIP3    H136329   3.212   1.358   4.626  0.1839  1.8705 -0.8305
 4898TIP3    H236330   3.122   1.424   4.729 -0.0194  0.6470 -0.2045
 4899TIP3   OH236331   4.435   5.851   2.168  0.1854 -0.0915 -0.2616
 4899TIP3    H136332   4.506   5.849   2.232 -0.3844  0.3821  0.4002
 4899TIP3    H236333   4.460   5.919   2.106 -0.5111  1.3664  0.9830
 4900TIP3   OH236334   3.849   1.662   4.779 -0.3081 -0.1291 -0.0575
 4900TIP3    H136335   3.943   1.682   4.775 -0.2830 -0.1095  0.6290
 4900TIP3    H236336   3.807   1.748   4.787 -0.4126 -0.1087 -0.7665
 4901TIP3   OH236337   2.066   3.515   2.932  0.0007 -0.4690  0.1675
 4901TIP3    H136338   2.133   3.561   2.883  0.1922 -0.3435  0.5392
 4901TIP3    H236339   2.070   3.424   2.902 -1.7462  0.1096 -2.0681
 4902TIP3   OH236340   3.069   5.423   1.166 -0.3943  0.6324  0.0557
 4902TIP3    H136341   3.046   5.488   1.098 -0.2735  0.0350 -0.5688
 4902TIP3    H236342   3.000   5.432   1.232 -0.0379  1.8361  0.2960
 4903TIP3   OH236343   5.953   4.289   0.663  0.2036 -0.2496  0.6246
 4903TIP3    H136344   5.956   4.298   0.568 -1.2610 -0.8191  0.4988
 4903TIP3    H236345   5.996   4.206   0.681  1.7132  0.5046  0.5995
 4904TIP3   OH236346   2.229   5.914   3.150 -0.8114  0.0670 -0.0620
 4904TIP3    H136347   2.307   5.947   3.106 -0.6695  1.6164  1.2788
 4904TIP3    H236348   2.229   5.820   3.132  0.8423  0.1910 -0.8505
 4905TIP3   OH236349   1.594   1.290   2.381  0.1911 -0.6314 -0.0460
 4905TIP3    H136350   1.576   1.298   2.287 -0.4643  0.3373  0.1469
 4905TIP3    H236351   1.613   1.197   2.394 -0.0337 -0.8361 -1.0806
 4906TIP3   OH236352   6.225   4.331   1.210  0.2528  0.9252  0.2552
 4906TIP3    H136353   6.272   4.396   1.158  1.0437  0.4199  0.3189
 4906TIP3    H236354   6.210   4.374   1.294 -1.1739  1.8038 -0.4244
 4907TIP3   OH236355   6.531   3.487   0.969  0.4023 -0.1902 -0.2096
 4907TIP3    H136356   6.549   3.396   0.994 -1.8239 -0.4474  0.6604
 4907TIP3    H236357   6.476   3.481   0.892  0.4665  0.4408 -0.3120
 4908TIP3   OH236358   3.031   4.259   4.243 -0.0327 -0.1912  0.4108
 4908TIP3    H136359   2.950   4.300   4.213 -0.1714  0.0473  1.0975
 4908TIP3    H236360   3.058   4.312   4.319 -0.5042 -1.6769  1.6544
 4909TIP3   OH236361   6.541   1.973   4.520  0.3043 -0.3630  0.4358
 4909TIP3    H136362   6.599   1.965   4.444  0.2986  0.6961  0.3095
 4909TIP3    H236363   6.597   2.007   4.590 -0.5938  3.0305 -0.3321
 4910TIP3   OH236364   2.764   6.155   0.598 -0.1642  0.4395  0.2390
 4910TIP3    H136365   2.830   6.134   0.532 -1.4386  3.7148 -2.3457
 4910TIP3    H236366   2.681   6.133   0.556 -0.9470  0.8220  1.5477
 4911TIP3   OH236367   2.563   3.267   2.551  0.3111  0.1622  0.1496
 4911TIP3    H136368   2.545   3.360   2.534  1.8732  0.6685  1.0045
 4911TIP3    H236369   2.596   3.266   2.641  2.0942 -0.9441 -0.4701
 4912TIP3   OH236370   6.475   0.800   2.751  0.4808  0.6785  0.5393
 4912TIP3    H136371   6.411   0.731   2.765 -0.6032  1.4735 -0.2527
 4912TIP3    H236372   6.467   0.857   2.828  2.1597 -0.6059  1.7383
 4913TIP3   OH236373   4.169   2.653   1.907 -0.3621  0.1323  0.0466
 4913TIP3    H136374   4.078   2.672   1.931  0.2299  0.5842  2.0756
 4913TIP3    H236375   4.206   2.739   1.886 -0.1867  0.0522  0.0257
 4914TIP3   OH236376   3.163   4.561   0.946  0.3917 -0.3427  0.1013
 4914TIP3    H136377   3.231   4.612   0.902  0.2130  0.5942  0.8796
 4914TIP3    H236378   3.094   4.624   0.965  0.3149 -0.7744  1.3829
 4915TIP3   OH236379   4.724   0.538   4.492  0.1849 -0.4738 -0.1978
 4915TIP3    H136380   4.809   0.574   4.517  0.1228 -0.6267  0.2552
 4915TIP3    H236381   4.730   0.524   4.398  1.7808 -3.3190  0.2246
 4916TIP3   OH236382   2.762   3.667   3.727  0.2551 -0.4843  0.7131
 4916TIP3    H136383   2.682   3.630   3.765  0.4439 -0.0589  1.5448
 4916TIP3    H236384   2.818   3.685   3.802  0.8926 -0.2046  0.1813
 4917TIP3   OH236385   2.502   1.637   3.349  0.4083  0.3777 -0.1199
 4917TIP3    H136386   2.511   1.702   3.280 -0.3535  0.5687 -0.0503
 4917TIP3    H236387   2.421   1.591   3.328 -0.4051  1.1299  1.1876
 4918TIP3   OH236388   6.707   1.306   1.594 -0.7065  0.5668 -0.2802
 4918TIP3    H136389   6.748   1.220   1.603  1.0645  1.4195  0.2169
 4918TIP3    H236390   6.613   1.289   1.604 -0.3383 -1.2144  0.5148
 4919TIP3   OH236391   3.545   4.725   1.820 -0.6261  0.1714 -0.2369
 4919TIP3    H136392   3.587   4.733   1.735 -0.1441  1.8708  0.1085
 4919TIP3    H236393   3.454   4.752   1.805 -1.4429 -2.6122 -0.7988
 4920TIP3   OH236394   6.408   3.491   1.622  0.2668  0.7057  0.2165
 4920TIP3    H136395   6.452   3.482   1.537 -2.1328  1.5740 -1.2200
 4920TIP3    H236396   6.382   3.401   1.644  3.9202 -0.1221  1.9256
 4921TIP3   OH236397   0.225   1.723   3.923 -0.0814 -0.3750  0.0276
 4921TIP3    H136398   0.287   1.787   3.956 -0.8365  0.4318 -0.0827
 4921TIP3    H236399   0.155   1.721   3.988  0.3973 -1.8328  0.5380
 4922TIP3   OH236400   3.966   6.529   2.320  0.0163  0.0116  0.4824
 4922TIP3    H136401   4.007   6.596   2.265 -1.5336 -0.0523 -0.8092
 4922TIP3    H236402   4.002   6.447   2.287  0.9564  0.0913  1.2395
 4923TIP3   OH236403   5.710   5.589   0.949 -0.0416  0.1971  0.5342
 4923TIP3    H136404   5.805   5.598   0.947  0.3773 -3.1636 -0.8563
 4923TIP3    H236405   5.677   5.671   0.912  2.2455  1.4838  1.1414
 4924TIP3   OH236406   4.688   5.247   2.856 -0.0047 -0.0705  0.0835
 4924TIP3    H136407   4.696   5.267   2.762 -1.8056 -0.8818 -0.2791
 4924TIP3    H236408   4.690   5.332   2.899 -1.9093  0.5478 -0.9442
 4925TIP3   OH236409   6.167   6.439   2.131 -0.0271  0.0074 -0.2625
 4925TIP3    H136410   6.128   6.524   2.116  0.0918 -0.1218 -1.4359
 4925TIP3    H236411   6.158   6.393   2.047 -0.2400 -1.1957  0.3853
 4926TIP3   OH236412   2.897   4.496   2.961 -0.4600  0.0243  0.0015
 4926TIP3    H136413   2.912   4.534   2.874  2.9796  1.6862  1.0902
 4926TIP3    H236414   2.882   4.572   3.018  0.5087 -0.7239  1.3215
 4927TIP3   OH236415   4.244   5.523   2.754 -0.1845 -0.1422  0.0070
 4927TIP3    H136416   4.202   5.486   2.677 -0.3528 -1.4101  0.6807
 4927TIP3    H236417   4.191   5.599   2.777 -0.1746  0.2043 -1.0660
 4928TIP3   OH236418   3.241   2.346   0.879  0.9520  0.0154  0.2280
 4928TIP3    H136419   3.267   2.273   0.823 -0.9369 -1.2404  0.8582
 4928TIP3    H236420   3.196   2.407   0.820 -1.1786 -1.3806  0.2725
 4929TIP3   OH236421   4.677   2.548   2.453  0.4737  0.1375  0.3773
 4929TIP3    H136422   4.587   2.547   2.421  0.3933  1.0153  0.5507
 4929TIP3    H236423   4.719   2.474   2.409 -0.7770 -1.3957  1.6134
 4930TIP3   OH236424   6.387   4.228   3.543  0.0240 -0.2596 -0.4065
 4930TIP3    H136425   6.363   4.255   3.631  0.1265  0.8080 -0.6838
 4930TIP3    H236426   6.404   4.134   3.550 -0.1741 -0.2294  0.6594
 4931TIP3   OH236427   0.650   2.901   2.380 -0.1052 -0.1631 -0.1627
 4931TIP3    H136428   0.740   2.925   2.361  0.0702 -1.3530 -0.9712
 4931TIP3    H236429   0.598   2.954   2.319  0.1617 -0.5523 -0.7446
 4932TIP3   OH236430   5.963   0.913   3.456  0.2789 -0.5699 -0.4265
 4932TIP3    H136431   5.992   0.947   3.371  1.5197 -1.3393 -0.3329
 4932TIP3    H236432   5.913   0.985   3.495  0.3068  0.0474 -1.5011
 4933TIP3   OH236433   2.105   0.358   0.803  0.1634 -0.5924  0.3960
 4933TIP3    H136434   2.105   0.453   0.801  0.9169 -0.5856  0.2217
 4933TIP3    H236435   2.185   0.333   0.755  0.1585 -1.2957  0.7386
 4934TIP3   OH236436   6.103   5.773   3.854  0.1014  0.2123 -0.6246
 4934TIP3    H136437   6.062   5.830   3.920  1.1721  2.1751 -1.5559
 4934TIP3    H236438   6.195   5.767   3.881 -0.5168 -3.9905  1.3424
 4935TIP3   OH236439   5.958   2.762   4.427  0.2251 -0.6684  0.5299
 4935TIP3    H136440   6.009   2.843   4.432  1.0061 -1.0588 -0.5849
 4935TIP3    H236441   5.870   2.787   4.454  0.6268  0.3956  0.8807
 4936TIP3   OH236442   4.711   4.346   2.198 -0.3589 -0.5875 -0.2653
 4936TIP3    H136443   4.759   4.426   2.221  0.6658 -1.3885  0.4983
 4936TIP3    H236444   4.642   4.375   2.139  0.4312  0.7618 -0.5553
 4937TIP3   OH236445   1.555   1.972   2.999 -0.7268 -0.5690 -0.0063
 4937TIP3    H136446   1.467   1.995   2.969 -0.5960  1.2103  0.8734
 4937TIP3    H236447   1.549   1.970   3.094  0.1377 -0.6717  0.0578
 4938TIP3   OH236448   2.517   1.286   3.247 -0.0412 -0.0598 -0.0915
 4938TIP3    H136449   2.481   1.205   3.285  1.8918 -2.6806 -3.3008
 4938TIP3    H236450   2.453   1.311   3.180  0.7002 -0.6068 -1.0150
 4939TIP3   OH236451   6.169   1.507   5.419  0.3414 -0.3192 -0.2867
 4939TIP3    H136452   6.160   1.544   5.331 -0.3279  3.0815  1.0209
 4939TIP3    H236453   6.262   1.517   5.440  0.2655  0.1937 -0.1597
 4940TIP3   OH236454   3.615   5.430   1.561 -0.3992 -0.5696  0.0761
 4940TIP3    H136455   3.568   5.512   1.579  1.0903  0.3172  0.1550
 4940TIP3    H236456   3.667   5.415   1.640  1.8071  0.2254 -1.1169
 4941TIP3   OH236457   1.622   2.731   3.255  0.1270 -0.5838  0.0336
 4941TIP3    H136458   1.549   2.669   3.250  0.9641 -1.6335  0.2962
 4941TIP3    H236459   1.633   2.747   3.349 -1.6352  1.9329 -0.0951
 4942TIP3   OH236460   1.391   0.535   0.894 -0.3127  0.1081 -0.4377
 4942TIP3    H136461   1.364   0.465   0.834 -1.8097 -0.4303  0.7855
 4942TIP3    H236462   1.317   0.596   0.895  0.8887  1.6625 -1.3330
 4943TIP3   OH236463   3.834   1.801   2.836  0.1489  0.4186 -0.7669
 4943TIP3    H136464   3.831   1.886   2.879 -0.1424 -0.1223  0.3317
 4943TIP3    H236465   3.905   1.754   2.880 -1.0738 -0.6544  0.1613
 4944TIP3   OH236466   3.886   2.731   2.621  0.5204 -0.2659 -0.3074
 4944TIP3    H136467   3.880   2.827   2.625 -1.4708 -0.3619  0.4296
 4944TIP3    H236468   3.973   2.711   2.656  1.1049  1.2674 -0.7835
 4945TIP3   OH236469   2.291   1.763   2.650  0.2331  0.3194 -0.1097
 4945TIP3    H136470   2.372   1.813   2.649  0.5388 -0.1732 -0.9211
 4945TIP3    H236471   2.309   1.689   2.708  0.2036  0.4681  0.0889
 4946TIP3   OH236472   3.712   0.891   2.210 -0.4851  0.0923 -0.2581
 4946TIP3    H136473   3.643   0.952   2.239  0.7965  1.1878  0.6205
 4946TIP3    H236474   3.665   0.822   2.164 -2.2222  0.5306  0.7669
 4947TIP3   OH236475   3.704   6.550   3.731 -0.4038  0.8141 -0.0820
 4947TIP3    H136476   3.682   6.517   3.818 -2.3106  1.0660 -0.4325
 4947TIP3    H236477   3.671   6.640   3.731  0.7600  1.2585 -0.6377
 4948TIP3   OH236478   6.591   1.415   4.998 -0.1810 -0.0289 -0.2181
 4948TIP3    H136479   6.554   1.352   5.059  3.1364  0.6012  2.7493
 4948TIP3    H236480   6.558   1.500   5.028 -1.5756  0.0555 -1.8217
 4949TIP3   OH236481   6.310   1.955   2.918 -0.1255  0.9444 -0.2708
 4949TIP3    H136482   6.322   1.966   3.012 -2.3193  2.1066 -0.0687
 4949TIP3    H236483   6.394   1.921   2.887  0.5414  0.2054  2.1282
 4950TIP3   OH236484   4.921   3.016   2.179 -0.0427 -0.2249 -0.1004
 4950TIP3    H136485   5.017   3.019   2.179 -0.0217 -0.5495 -1.5445
 4950TIP3    H236486   4.900   2.946   2.241  0.6627 -0.4782 -0.1380
 4951TIP3   OH236487   3.550   3.886   1.491  0.0723  0.7295 -0.8696
 4951TIP3    H136488   3.552   3.981   1.479  0.2056  1.0652  1.4024
 4951TIP3    H236489   3.641   3.860   1.497  0.0243  0.8958  1.1749
 4952TIP3   OH236490   2.885   1.456   5.294 -0.1899  0.0822  0.0945
 4952TIP3    H136491   2.834   1.499   5.363 -0.0069 -0.8288  0.8110
 4952TIP3    H236492   2.879   1.363   5.314  1.2744 -0.0827 -0.1458
 4953TIP3   OH236493   2.150   0.563   5.564  0.2040 -0.4154  0.5866
 4953TIP3    H136494   2.220   0.620   5.533  1.1153 -1.2911  0.9714
 4953TIP3    H236495   2.088   0.559   5.490  2.1169 -2.1381 -1.0476
 4954TIP3   OH236496   4.798   6.303   2.113 -0.2596 -0.2838  0.3462
 4954TIP3    H136497   4.849   6.373   2.073  0.0103 -0.0273  1.1192
 4954TIP3    H236498   4.864   6.239   2.142 -0.4581 -0.5180  0.2876
 4955TIP3   OH236499   5.240   4.574   3.741 -0.8011  0.0898  0.6352
 4955TIP3    H136500   5.245   4.543   3.831 -1.0080  0.4171  0.7595
 4955TIP3    H236501   5.200   4.502   3.692  1.5317 -1.1258  0.3226
 4956TIP3   OH236502   4.312   3.283   3.969 -0.2194  0.5336 -0.5543
 4956TIP3    H136503   4.286   3.309   3.880 -3.2172  2.6654  0.7732
 4956TIP3    H236504   4.299   3.189   3.971 -1.9877  0.7028 -1.8749
 4957TIP3   OH236505   5.841   5.247   3.674  0.1016 -0.2863 -0.3396
 4957TIP3    H136506   5.762   5.231   3.724  0.7282  0.2539  0.8734
 4957TIP3    H236507   5.897   5.298   3.733  0.4480  1.3225 -1.9576
 4958TIP3   OH236508   5.121   1.899   4.036  0.3807 -0.0590  0.4277
 4958TIP3    H136509   5.146   1.814   4.072 -0.3048  0.0439  1.1837
 4958TIP3    H236510   5.036   1.917   4.076 -0.1539  0.3218 -0.8375
 4959TIP3   OH236511   0.259   3.808   1.717 -0.4735  0.6517 -0.6617
 4959TIP3    H136512   0.346   3.828   1.683 -0.2109  0.2217 -0.2542
 4959TIP3    H236513   0.221   3.894   1.738  0.5267  0.7571  0.8159
 4960TIP3   OH236514   1.831   4.202   3.608  0.2039 -0.1202  0.0969
 4960TIP3    H136515   1.744   4.176   3.638  0.2801 -0.0494  0.3775
 4960TIP3    H236516   1.861   4.128   3.554 -0.4985  0.3422 -0.9555
 4961TIP3   OH236517   2.619   4.682   3.260  0.5849 -0.1755  0.0173
 4961TIP3    H136518   2.640   4.631   3.338  1.3855 -0.1826 -0.1987
 4961TIP3    H236519   2.687   4.749   3.255  0.6485 -0.2868 -0.7724
 4962TIP3   OH236520   0.888   0.247   2.548  0.2800 -0.1192 -0.1910
 4962TIP3    H136521   0.958   0.281   2.603 -0.4553  2.5861 -0.8037
 4962TIP3    H236522   0.931   0.221   2.467  0.9066 -1.1724  0.4436
 4963TIP3   OH236523   6.226   5.666   3.437 -0.8850  0.8766  0.0970
 4963TIP3    H136524   6.154   5.667   3.499  1.5723 -1.1260  3.2796
 4963TIP3    H236525   6.293   5.721   3.477  0.5238  0.1324 -1.1300
 4964TIP3   OH236526   1.828   5.771   1.743 -0.2769 -0.8984  0.7825
 4964TIP3    H136527   1.776   5.722   1.806 -1.3166  0.8349  1.3352
 4964TIP3    H236528   1.790   5.859   1.743  2.6865  0.5143  1.2623
 4965TIP3   OH236529   3.147   4.190   2.364  0.1469 -0.2846  0.0735
 4965TIP3    H136530   3.107   4.148   2.439 -1.2374  1.3170  0.2917
 4965TIP3    H236531   3.234   4.150   2.357 -0.5492 -2.0558  1.1223
 4966TIP3   OH236532   3.020   0.144   1.190 -0.0590  0.1067  0.3835
 4966TIP3    H136533   3.108   0.174   1.168 -0.8127  1.8783 -0.3537
 4966TIP3    H236534   3.030   0.104   1.277  1.6783 -0.8508 -0.2133
 4967TIP3   OH236535   5.498   4.535   2.626 -0.0782  0.2731 -0.1582
 4967TIP3    H136536   5.444   4.611   2.650 -0.3536 -0.1863  0.7090
 4967TIP3    H236537   5.543   4.562   2.545 -0.2432  1.3172  0.0881
 4968TIP3   OH236538   1.396   4.875   1.572  0.8304 -0.4370  0.6083
 4968TIP3    H136539   1.488   4.891   1.552  0.5522  1.2550  0.5396
 4968TIP3    H236540   1.367   4.815   1.503  1.5621  0.0337 -0.1225
 4969TIP3   OH236541   3.355   6.037   5.055 -1.2950  0.2486  0.6488
 4969TIP3    H136542   3.272   6.056   5.012 -1.8177 -1.3258  0.9003
 4969TIP3    H236543   3.332   5.984   5.131  0.0041 -1.5338 -0.1040
 4970TIP3   OH236544   6.084   3.019   2.403 -0.1590  0.6880  0.2972
 4970TIP3    H136545   6.086   3.029   2.498 -1.3809 -0.8387  0.5235
 4970TIP3    H236546   6.156   2.958   2.384 -1.0582 -0.4566  0.4799
 4971TIP3   OH236547   3.010   0.500   4.222  0.0097 -0.2744  0.4407
 4971TIP3    H136548   3.055   0.584   4.227 -0.5495  0.0014  0.8392
 4971TIP3    H236549   2.946   0.502   4.293  0.9585 -1.6177  1.3915
 4972TIP3   OH236550   1.101   2.602   4.976  0.3430  0.6233 -0.0170
 4972TIP3    H136551   1.158   2.613   5.051 -0.3535 -0.9340  0.7883
 4972TIP3    H236552   1.090   2.690   4.940  3.3099  0.9566 -0.2942
 4973TIP3   OH236553   1.454   0.673   1.627  0.3155  0.5487 -0.3546
 4973TIP3    H136554   1.464   0.584   1.593  0.1355 -0.3706  1.8136
 4973TIP3    H236555   1.543   0.700   1.650  0.1536  0.1263  0.8119
 4974TIP3   OH236556   0.956   2.793   2.453  0.6413 -0.2890 -0.2605
 4974TIP3    H136557   0.954   2.823   2.362  0.2301 -0.0690 -0.1793
 4974TIP3    H236558   0.934   2.871   2.505 -1.1845 -0.8640 -0.0889
 4975TIP3   OH236559   6.758   2.119   0.832 -0.0118  0.4255  0.1116
 4975TIP3    H136560   6.770   2.171   0.753  1.7106  0.8624  0.6241
 4975TIP3    H236561   6.789   2.174   0.903  0.3861 -0.7111  0.8571
 4976TIP3   OH236562   0.501   0.038   0.535 -0.1690 -0.3747 -0.3611
 4976TIP3    H136563   0.407   0.033   0.517 -0.0954  0.3853 -1.0285
 4976TIP3    H236564   0.540  -0.028   0.478 -0.3308 -1.0036  0.2453
 4977TIP3   OH236565   0.886   0.281   2.877 -0.5291 -0.8355  0.4369
 4977TIP3    H136566   0.817   0.274   2.943 -0.4204  0.1457  0.6830
 4977TIP3    H236567   0.954   0.334   2.919 -0.7753  0.4505 -0.6886
 4978TIP3   OH236568   2.165   0.065   3.596 -0.2775 -0.5976 -0.2844
 4978TIP3    H136569   2.174  -0.021   3.554 -1.5684 -0.6586 -0.4737
 4978TIP3    H236570   2.174   0.128   3.525  2.1016 -0.4770  0.0592
 4979TIP3   OH236571   0.781   1.665   0.958  0.0390  0.1348 -0.1441
 4979TIP3    H136572   0.833   1.598   1.003 -0.4166 -0.0884  0.0484
 4979TIP3    H236573   0.847   1.721   0.917  0.5209  0.8373  1.4915
 4980TIP3   OH236574   4.631   2.981   1.623 -0.2662 -0.8190 -0.2345
 4980TIP3    H136575   4.650   2.891   1.648  1.3987  0.0513  1.9667
 4980TIP3    H236576   4.717   3.023   1.615 -1.0274  0.9973  0.5435
 4981TIP3   OH236577   0.267   0.422   4.202 -0.0921  0.1001  0.1449
 4981TIP3    H136578   0.346   0.445   4.153  0.5207  2.5183  2.0559
 4981TIP3    H236579   0.232   0.345   4.157  1.7063  0.7233 -2.5437
 4982TIP3   OH236580   0.776   3.714   4.234  0.1718  0.1516 -0.0673
 4982TIP3    H136581   0.776   3.624   4.203 -1.2604 -0.3708  1.3729
 4982TIP3    H236582   0.823   3.712   4.317  3.0118  1.3548 -1.4976
 4983TIP3   OH236583   6.689   3.782   3.109 -0.1557  0.1654  0.1832
 4983TIP3    H136584   6.724   3.862   3.071  1.2592  0.0672  1.1957
 4983TIP3    H236585   6.758   3.750   3.167 -0.8732 -1.5329  0.1809
 4984TIP3   OH236586   2.239   3.530   2.458 -0.1219  0.1792 -0.2267
 4984TIP3    H136587   2.204   3.509   2.371 -1.8009 -0.4870  0.5590
 4984TIP3    H236588   2.165   3.567   2.505  0.5577 -0.1726  1.1645
 4985TIP3   OH236589   4.658   1.061   1.397 -0.1175  0.1873  0.3188
 4985TIP3    H136590   4.572   1.076   1.359 -0.4699 -1.2236  0.4938
 4985TIP3    H236591   4.718   1.112   1.342 -0.7580 -0.8014 -1.3692
 4986TIP3   OH236592   0.571   0.678   1.444 -0.4087  0.3145 -0.5049
 4986TIP3    H136593   0.639   0.705   1.505 -0.9828  0.5416  0.0393
 4986TIP3    H236594   0.517   0.757   1.431  1.9224  1.5790 -4.4045
 4987TIP3   OH236595   5.491   0.805   1.459 -0.1168 -0.8837 -0.3078
 4987TIP3    H136596   5.585   0.809   1.440 -0.6542 -2.1973 -4.0591
 4987TIP3    H236597   5.455   0.881   1.415 -0.9970 -1.2325 -0.2032
 4988TIP3   OH236598   1.855   2.624   4.701  0.8798  0.1195 -0.4736
 4988TIP3    H136599   1.902   2.699   4.737  0.9082 -0.0516 -0.1511
 4988TIP3    H236600   1.801   2.593   4.773  1.2229 -0.4648 -0.4645
 4989TIP3   OH236601   0.022   3.683   2.492 -0.0001 -0.1196 -0.2923
 4989TIP3    H136602  -0.038   3.616   2.524 -0.0156  0.6806  1.4664
 4989TIP3    H236603   0.072   3.640   2.423  2.3033 -3.1034  2.9189
 4990TIP3   OH236604   5.682   0.268   3.799  0.1772 -0.0954 -0.1852
 4990TIP3    H136605   5.677   0.223   3.715 -1.3016  1.2588 -0.8813
 4990TIP3    H236606   5.649   0.204   3.862 -0.9525 -0.3705 -1.0080
 4991TIP3   OH236607   0.003   5.539   3.818  0.3502 -0.0822 -0.4083
 4991TIP3    H136608  -0.077   5.490   3.838 -0.0748 -0.2430 -2.2876
 4991TIP3    H236609   0.005   5.610   3.882 -0.6245 -0.8027  0.4491
 4992TIP3   OH236610   0.172   0.695   2.126 -0.3061  0.0067  0.3096
 4992TIP3    H136611   0.248   0.661   2.079  0.2907  0.1190  1.1688
 4992TIP3    H236612   0.209   0.753   2.193 -1.0832 -0.7179  1.3957
 4993TIP3   OH236613   4.013   3.124   2.177  0.2789  0.2631  0.6386
 4993TIP3    H136614   3.979   3.167   2.099  3.2643  0.4719 -0.6948
 4993TIP3    H236615   3.960   3.159   2.249 -1.6053  1.1932 -1.1098
 4994TIP3   OH236616   6.241   3.629   4.406 -0.5478 -0.1366  0.4873
 4994TIP3    H136617   6.207   3.654   4.321  0.3139 -2.9652 -0.8013
 4994TIP3    H236618   6.301   3.700   4.430 -1.1234  0.9072 -1.0422
 4995TIP3   OH236619   5.603   1.571   2.471  0.1862 -0.4413  0.1556
 4995TIP3    H136620   5.552   1.604   2.397 -0.7363 -1.1965  0.4306
 4995TIP3    H236621   5.643   1.490   2.439 -0.1220 -0.7097  0.4325
 4996TIP3   OH236622   0.136   2.554   4.096 -0.0762 -0.3458  0.0981
 4996TIP3    H136623   0.119   2.535   4.003  1.6153  0.0588 -0.3255
 4996TIP3    H236624   0.099   2.480   4.143  0.1525 -1.1905 -1.0074
 4997TIP3   OH236625   6.525   5.393   4.832  0.0568 -0.1514 -0.1696
 4997TIP3    H136626   6.430   5.388   4.843  0.1328  1.5208  1.8609
 4997TIP3    H236627   6.550   5.476   4.873  2.3736 -0.3937 -0.9274
 4998TIP3   OH236628   5.471   3.055   1.863  0.1472 -0.1485 -0.1403
 4998TIP3    H136629   5.422   3.028   1.940  1.3606 -0.0062  0.7162
 4998TIP3    H236630   5.488   2.974   1.815 -2.4735 -0.0260 -1.4834
 4999TIP3   OH236631   3.055   5.298   3.795 -0.3428  0.7218 -0.0311
 4999TIP3    H136632   3.079   5.208   3.773 -1.5269  0.2253  0.6064
 4999TIP3    H236633   3.136   5.337   3.828 -0.0451 -0.4164  0.6509
 5000TIP3   OH236634   2.218   2.491   4.926 -0.7162  0.2685 -0.2741
 5000TIP3    H136635   2.196   2.584   4.934  0.6902  0.6110 -0.0154
 5000TIP3    H236636   2.250   2.467   5.013 -0.0416 -0.1600 -0.6300
 5001TIP3   OH236637   4.237   3.389   1.454  0.3963  0.6543 -0.9965
 5001TIP3    H136638   4.160   3.342   1.486  1.1814 -0.3238 -0.4952
 5001TIP3    H236639   4.240   3.468   1.507  1.0111 -0.3852  0.5906
 5002TIP3   OH236640   3.865   5.243   1.185 -0.4370  0.0797 -0.2316
 5002TIP3    H136641   3.950   5.225   1.145  0.9074  2.2250  1.4049
 5002TIP3    H236642   3.843   5.331   1.155 -2.8820 -0.9852 -1.8073
 5003TIP3   OH236643   3.560   5.428   2.651  0.1600 -0.0723  0.5725
 5003TIP3    H136644   3.474   5.389   2.662 -0.1587 -0.0887 -1.6139
 5003TIP3    H236645   3.543   5.520   2.629  0.8493  0.8965  3.5832
 5004TIP3   OH236646   2.903   2.125   2.407  0.3165  0.0154  0.3870
 5004TIP3    H136647   2.926   2.204   2.456  0.8938 -0.9979  1.8032
 5004TIP3    H236648   2.975   2.065   2.422  0.1665 -0.6014 -1.1662
 5005TIP3   OH236649   2.522   0.766   4.031 -0.3773  0.5037  0.6283
 5005TIP3    H136650   2.565   0.839   4.077 -1.3800  1.1719  0.5246
 5005TIP3    H236651   2.589   0.697   4.030  0.9801  1.7591 -0.1914
 5006TIP3   OH236652   1.463   1.497   1.389 -0.1839 -0.0030 -0.5327
 5006TIP3    H136653   1.441   1.457   1.474  0.7499 -0.1125 -0.3300
 5006TIP3    H236654   1.385   1.483   1.336 -0.0058 -1.8840 -0.3883
 5007TIP3   OH236655   3.325   6.742   4.695 -0.2616  0.3150 -0.6034
 5007TIP3    H136656   3.267   6.736   4.618 -1.1347 -2.0812  0.1408
 5007TIP3    H236657   3.336   6.651   4.723  1.9215  0.9364  0.7679
 5008TIP3   OH236658   1.106   1.356   3.872  0.2446 -0.0079  0.0273
 5008TIP3    H136659   1.120   1.281   3.931 -1.3780 -0.9854 -0.7776
 5008TIP3    H236660   1.116   1.319   3.784 -0.8744  0.6355 -0.3845
 5009TIP3   OH236661   5.306   4.133   2.451  1.0429  0.1056  0.1406
 5009TIP3    H136662   5.267   4.053   2.486 -1.0534  2.3542  3.5252
 5009TIP3    H236663   5.374   4.157   2.514  3.4198 -0.1410 -2.1393
 5010TIP3   OH236664   5.218   3.376   5.509 -0.3956 -0.1062  0.3350
 5010TIP3    H136665   5.265   3.446   5.464  0.3993 -0.1193  1.0944
 5010TIP3    H236666   5.142   3.419   5.548 -0.5951  0.0782 -0.2514
 5011TIP3   OH236667   3.802   6.344   1.079 -0.4480  0.7105 -0.1263
 5011TIP3    H136668   3.768   6.273   1.024 -0.2395 -0.4557  1.2037
 5011TIP3    H236669   3.805   6.307   1.167  3.0836  1.1541  0.0806
 5012TIP3   OH236670   1.425   1.302   5.041 -0.5241 -0.2701  0.3814
 5012TIP3    H136671   1.495   1.237   5.037 -0.1060  0.2627 -2.1346
 5012TIP3    H236672   1.415   1.320   5.135  2.8256 -0.2103  0.8466
 5013TIP3   OH236673   4.032   2.676   1.643  0.3087  0.3407  0.3485
 5013TIP3    H136674   4.100   2.655   1.706  1.1576 -0.2350 -0.7266
 5013TIP3    H236675   4.079   2.702   1.564 -0.7070 -0.0825 -0.4276
 5014TIP3   OH236676   3.292   3.445   0.927 -0.2731  0.2964 -0.5119
 5014TIP3    H136677   3.374   3.491   0.946 -0.4706  0.9319 -1.1563
 5014TIP3    H236678   3.252   3.429   1.012  0.6844 -0.3347 -0.1648
 5015TIP3   OH236679   0.011   3.626   4.010  0.0277 -0.6299 -0.1022
 5015TIP3    H136680   0.034   3.719   4.021  0.1892 -0.6857  0.0316
 5015TIP3    H236681  -0.062   3.612   4.070 -0.7277 -0.3186 -0.9159
 5016TIP3   OH236682   4.726   0.305   3.037  0.1993  0.5712 -0.2272
 5016TIP3    H136683   4.723   0.211   3.018 -1.3801  0.6470 -0.4241
 5016TIP3    H236684   4.716   0.311   3.132 -0.4516  0.5610 -0.2906
 5017TIP3   OH236685   1.230   2.251   1.821  0.0300  0.3774  0.1785
 5017TIP3    H136686   1.169   2.272   1.750  0.5369 -0.6489 -0.5851
 5017TIP3    H236687   1.311   2.295   1.796  0.4952 -0.7531 -0.4008
 5018TIP3   OH236688   3.908   5.311   4.546  0.3450 -0.0643 -0.1637
 5018TIP3    H136689   3.889   5.379   4.481  0.1096 -0.1298 -0.1656
 5018TIP3    H236690   3.909   5.229   4.496 -3.1980 -0.5883  0.3518
 5019TIP3   OH236691   1.878   6.282   3.916 -0.7372 -0.7410 -0.2825
 5019TIP3    H136692   1.878   6.222   3.991  2.3500  2.1243  2.3507
 5019TIP3    H236693   1.936   6.240   3.852 -1.3418 -2.0684  0.0135
 5020TIP3   OH236694   3.703   5.925   2.224  0.0272 -0.1989 -0.3537
 5020TIP3    H136695   3.633   5.989   2.238 -1.2288 -1.6352  0.3195
 5020TIP3    H236696   3.678   5.880   2.143  1.0269  0.3121 -0.9531
 5021TIP3   OH236697   1.810   4.723   4.492  0.2369  0.0823 -0.3263
 5021TIP3    H136698   1.815   4.818   4.483 -0.7484  0.3164  1.1602
 5021TIP3    H236699   1.723   4.700   4.458 -1.1059  0.2591  2.6697
 5022TIP3   OH236700   5.280   4.923   2.861 -0.0485  0.0889 -0.2989
 5022TIP3    H136701   5.253   5.014   2.865  1.5239  0.5468  1.3634
 5022TIP3    H236702   5.218   4.877   2.918  0.0435  0.3703  0.0309
 5023TIP3   OH236703   5.984   0.687   4.983 -0.6611 -0.0510 -0.6487
 5023TIP3    H136704   5.889   0.681   4.976 -0.7739  0.7458 -0.0406
 5023TIP3    H236705   6.015   0.706   4.895 -0.7891 -2.9895 -1.4317
 5024TIP3   OH236706   5.857   6.655   3.746  0.0701 -0.0779  0.1161
 5024TIP3    H136707   5.888   6.745   3.738 -0.6303  0.3477  1.8571
 5024TIP3    H236708   5.920   6.603   3.695 -0.1286  1.4764 -1.8376
 5025TIP3   OH236709   5.195   0.096   4.042 -0.0084 -0.1701  0.2949
 5025TIP3    H136710   5.280   0.069   4.077 -0.6359 -2.6501  0.0632
 5025TIP3    H236711   5.136   0.091   4.117 -0.5473 -1.5101 -0.2006
 5026TIP3   OH236712   0.653   2.485   1.206 -0.1301 -0.0250  0.1932
 5026TIP3    H136713   0.731   2.532   1.175  0.1692  1.0874  2.4270
 5026TIP3    H236714   0.671   2.468   1.298 -2.6535  0.5171  0.8469
 5027TIP3   OH236715   3.435   1.138   4.985  0.3099  0.9840  0.4353
 5027TIP3    H136716   3.380   1.065   4.959 -0.8848  1.6866  0.8897
 5027TIP3    H236717   3.375   1.213   4.990  1.2814  1.7518  1.0829
 5028TIP3   OH236718   3.542   4.427   2.565 -0.7556  0.0183  0.3863
 5028TIP3    H136719   3.518   4.479   2.642  0.2513 -3.6584  3.5209
 5028TIP3    H236720   3.637   4.436   2.560 -0.8061  0.1590 -0.4234
 5029TIP3   OH236721   3.380   4.607   5.111  0.5973  0.9763 -0.5058
 5029TIP3    H136722   3.395   4.558   5.192  0.3458  1.9771  0.1638
 5029TIP3    H236723   3.326   4.681   5.137  1.0847  1.6912 -1.4666
 5030TIP3   OH236724   4.895   4.918   3.887  0.3061 -0.4700 -0.2533
 5030TIP3    H136725   4.909   4.996   3.940 -0.3351  0.9139 -2.0498
 5030TIP3    H236726   4.969   4.916   3.827 -0.5918 -0.2298 -1.3871
 5031TIP3   OH236727   4.389   3.652   3.167  0.3544  0.2209  0.5459
 5031TIP3    H136728   4.471   3.700   3.179 -0.4273  1.0933  2.9304
 5031TIP3    H236729   4.382   3.596   3.244 -0.1812 -1.6530 -0.7859
 5032TIP3   OH236730   1.250   5.594   3.338  0.3411 -0.4634 -0.4180
 5032TIP3    H136731   1.226   5.644   3.260 -0.5725 -0.2229  0.0081
 5032TIP3    H236732   1.216   5.506   3.322  2.5317 -1.1926 -1.4637
 5033TIP3   OH236733   4.456   3.539   1.990 -0.1269 -0.5048  0.0803
 5033TIP3    H136734   4.505   3.598   2.047 -0.6429  0.3506 -0.3317
 5033TIP3    H236735   4.470   3.452   2.026  0.9204 -0.1661  0.5119
 5034TIP3   OH236736   1.432   5.400   1.773  0.2506  0.0848 -0.2890
 5034TIP3    H136737   1.420   5.494   1.759  1.2480  0.3337  0.4370
 5034TIP3    H236738   1.383   5.381   1.853 -0.2071 -0.0916 -0.6016
 5035TIP3   OH236739   0.977   0.335   4.165 -0.2930 -0.1522  0.2096
 5035TIP3    H136740   1.031   0.408   4.196 -0.0439  0.1980 -1.0165
 5035TIP3    H236741   0.913   0.322   4.235  0.6289  0.2174  1.1457
 5036TIP3   OH236742   0.583   3.807   3.311  0.2748 -0.0405  0.5398
 5036TIP3    H136743   0.558   3.720   3.279  0.9309 -0.2633  0.6213
 5036TIP3    H236744   0.631   3.847   3.238 -1.8156  1.0929 -0.2974
 5037TIP3   OH236745   3.661   4.921   4.839  0.4958  0.3397 -0.4207
 5037TIP3    H136746   3.603   4.847   4.858  0.2411  0.6376 -0.0068
 5037TIP3    H236747   3.716   4.930   4.917 -1.2717  2.2408  0.7340
 5038TIP3   OH236748   3.327   1.749   3.161  0.2082 -0.3460 -0.0210
 5038TIP3    H136749   3.286   1.677   3.210  0.9269  0.1001  1.3007
 5038TIP3    H236750   3.298   1.737   3.071  1.9115 -3.4776 -0.2748
 5039TIP3   OH236751   5.077   3.136   5.194  0.3731 -0.3272 -1.3932
 5039TIP3    H136752   5.021   3.069   5.154  0.6886 -1.2533 -0.3289
 5039TIP3    H236753   5.015   3.203   5.223 -0.2776 -1.5177  0.1170
 5040TIP3   OH236754   2.748   0.132   2.295  0.3742 -0.8715  0.4205
 5040TIP3    H136755   2.734   0.222   2.326 -2.3535 -1.1576  0.2392
 5040TIP3    H236756   2.799   0.143   2.215  0.4057  0.4901  0.5938
 5041TIP3   OH236757   4.707   2.488   1.626  0.7159 -0.0454  0.1985
 5041TIP3    H136758   4.662   2.549   1.568 -0.5386 -1.8247 -0.7892
 5041TIP3    H236759   4.667   2.403   1.608  0.7732 -0.8288  3.1757
 5042TIP3   OH236760   5.316   3.177   3.918  0.0933 -0.4742  0.1919
 5042TIP3    H136761   5.252   3.247   3.905  0.8680 -0.0594 -1.8903
 5042TIP3    H236762   5.399   3.223   3.930  0.6709 -0.9766 -1.5894
 5043TIP3   OH236763   6.537   0.832   4.713 -0.3915 -0.4148  0.0925
 5043TIP3    H136764   6.549   0.769   4.784  2.0851 -0.1474 -0.0237
 5043TIP3    H236765   6.511   0.779   4.638  2.4131 -1.5011 -0.2168
 5044TIP3   OH236766   5.777   1.323   5.125  0.4326 -0.1320  0.4338
 5044TIP3    H136767   5.695   1.332   5.075 -0.1552  1.1743  1.5661
 5044TIP3    H236768   5.758   1.257   5.191  0.4085 -0.1016  0.4575
 5045TIP3   OH236769   6.149   2.357   2.498 -0.3419 -0.4430  0.4237
 5045TIP3    H136770   6.238   2.393   2.503 -0.3898 -0.3783  0.8493
 5045TIP3    H236771   6.149   2.287   2.564  0.3526 -2.5451 -1.6913
 5046TIP3   OH236772   4.158   6.236   1.506 -0.2378 -0.1703 -0.6506
 5046TIP3    H136773   4.211   6.291   1.564  1.7198 -1.3577 -1.2235
 5046TIP3    H236774   4.201   6.151   1.507 -2.6306 -1.4685 -0.5532
 5047TIP3   OH236775   0.456   3.839   2.566  0.0030 -0.1319 -0.3508
 5047TIP3    H136776   0.419   3.923   2.594  1.0012  0.6969 -1.4210
 5047TIP3    H236777   0.485   3.798   2.647  2.6007  2.0979  0.0179
 5048TIP3   OH236778   1.455   4.431   1.466 -0.6042  0.1670  0.3225
 5048TIP3    H136779   1.375   4.411   1.513 -1.7704  1.6587 -0.9118
 5048TIP3    H236780   1.436   4.512   1.418  2.0547  1.3186  0.9664
 5049TIP3   OH236781   1.103   5.998   1.094 -0.1587 -0.2012  0.1241
 5049TIP3    H136782   1.121   6.044   1.012  0.2562 -0.4605  0.0649
 5049TIP3    H236783   1.035   5.934   1.070 -0.2729 -0.0555  0.0577
 5050TIP3   OH236784   6.252   4.901   1.345  0.4519  0.1113  0.0921
 5050TIP3    H136785   6.182   4.866   1.400 -1.0637  2.5129 -0.1587
 5050TIP3    H236786   6.320   4.928   1.407 -0.0110  0.1960  0.5701
 5051TIP3   OH236787   4.811   6.069   1.940 -0.0528 -0.9629  0.2768
 5051TIP3    H136788   4.803   6.144   1.882 -0.2757 -2.9713 -2.4459
 5051TIP3    H236789   4.884   6.091   1.998 -0.7571  1.7233  0.2905
 5052TIP3   OH236790   3.620   4.969   4.154 -0.6723 -0.0628  0.3893
 5052TIP3    H136791   3.702   4.952   4.199 -1.5467 -1.2638  1.6012
 5052TIP3    H236792   3.636   5.048   4.103  1.2893 -0.3976  0.4231
 5053TIP3   OH236793   0.676   0.975   3.644 -0.3351 -0.0763  0.1264
 5053TIP3    H136794   0.701   1.062   3.613  0.7022 -0.7821 -1.1548
 5053TIP3    H236795   0.591   0.988   3.686  0.3816  1.7635  1.1339
 5054TIP3   OH236796   0.172   5.746   2.764  0.6916  0.3006 -0.7361
 5054TIP3    H136797   0.096   5.801   2.748  0.2394  0.1382  0.6815
 5054TIP3    H236798   0.238   5.805   2.799 -0.3558 -0.1997  2.4294
 5055TIP3   OH236799   4.578   1.233   2.416  0.4695 -0.5782  0.3630
 5055TIP3    H136800   4.628   1.293   2.472  0.9973  0.2467 -0.9327
 5055TIP3    H236801   4.498   1.215   2.465 -0.4437  2.4261  0.1848
 5056TIP3   OH236802   1.444   0.976   3.585 -0.4522  0.5227  0.7050
 5056TIP3    H136803   1.482   1.051   3.631  4.3319 -0.6960 -0.7382
 5056TIP3    H236804   1.458   0.902   3.644  0.2568 -0.0882 -0.2011
 5057TIP3   OH236805   2.346   4.752   3.943  0.1969  0.3908 -0.5796
 5057TIP3    H136806   2.390   4.681   3.991  0.9338  0.7123 -0.7735
 5057TIP3    H236807   2.253   4.743   3.968 -0.1344 -2.0340 -2.3217
 5058TIP3   OH236808   3.473   4.540   1.406  0.0322 -0.2140  0.1913
 5058TIP3    H136809   3.403   4.488   1.447  0.0741  0.3036  0.9460
 5058TIP3    H236810   3.439   4.561   1.319 -1.1960  0.8098  0.8632
 5059TIP3   OH236811   0.740   5.432   2.009  0.3377 -0.1927  0.0715
 5059TIP3    H136812   0.729   5.520   2.043 -0.3798  0.3963 -1.5430
 5059TIP3    H236813   0.818   5.437   1.953  0.1758 -0.5140 -0.1912
 5060TIP3   OH236814   5.878   5.376   4.548  0.1800  0.7875  0.3840
 5060TIP3    H136815   5.835   5.424   4.477  0.1250  0.4126  0.1634
 5060TIP3    H236816   5.965   5.357   4.514 -0.8108 -2.0794 -0.8360
 5061TIP3   OH236817   4.547   5.205   3.666 -0.1423 -0.7474 -0.3367
 5061TIP3    H136818   4.483   5.158   3.719 -1.0618 -0.5823 -1.2575
 5061TIP3    H236819   4.619   5.143   3.655  0.8090 -0.2257  2.3737
 5062TIP3   OH236820   5.649   6.093   3.449 -0.4233  0.6246 -0.3264
 5062TIP3    H136821   5.577   6.121   3.505  0.9279  2.4456  0.5706
 5062TIP3    H236822   5.638   6.144   3.368 -1.3190 -0.6687 -1.0645
 5063TIP3   OH236823   0.905   2.119   2.289  0.0310 -0.0855  0.4121
 5063TIP3    H136824   0.853   2.177   2.345 -3.2283  0.1550 -2.5116
 5063TIP3    H236825   0.860   2.034   2.294  0.1860 -0.2912 -1.0793
 5064TIP3   OH236826   4.505   1.871   5.939  0.5525  0.0642  0.2485
 5064TIP3    H136827   4.563   1.801   5.969 -0.5525 -1.2304 -0.4928
 5064TIP3    H236828   4.543   1.900   5.856  1.1400  0.5057  0.6705
 5065TIP3   OH236829   1.125   1.497   1.383  0.1454 -0.2833  0.2806
 5065TIP3    H136830   1.063   1.571   1.383  0.6139  0.1230 -0.4918
 5065TIP3    H236831   1.096   1.442   1.455  0.2786  1.0812  1.4233
 5066TIP3   OH236832   5.493   2.533   1.326  0.3372 -0.2953 -0.1709
 5066TIP3    H136833   5.497   2.487   1.410  0.0875  1.0586  0.6171
 5066TIP3    H236834   5.402   2.524   1.298  0.0191  0.6034  0.5218
 5067TIP3   OH236835   5.495   3.541   3.434  0.1068  0.0055 -0.0859
 5067TIP3    H136836   5.531   3.513   3.518 -1.7179  2.1461  1.5406
 5067TIP3    H236837   5.430   3.474   3.413 -0.7309  0.3738  1.1999
 5068TIP3   OH236838   2.741   1.073   4.490 -0.3341  0.5185 -0.1710
 5068TIP3    H136839   2.709   1.054   4.402 -0.0747  1.5667 -0.5143
 5068TIP3    H236840   2.789   1.156   4.480  0.8099 -0.0119  0.6996
 5069TIP3   OH236841   4.297   2.853   1.524 -0.5662 -0.1142  0.7017
 5069TIP3    H136842   4.306   2.947   1.538 -0.7218 -0.1529  1.0484
 5069TIP3    H236843   4.315   2.813   1.609 -1.5388 -0.3378  0.8202
 5070TIP3   OH236844   1.522   4.545   4.672  0.1924 -0.4327  0.0681
 5070TIP3    H136845   1.564   4.561   4.588 -0.1884 -0.1290 -0.0639
 5070TIP3    H236846   1.428   4.551   4.654  0.0863 -1.1025  0.3625
 5071TIP3   OH236847   0.175   6.287   1.560  0.1622  0.2288  1.0397
 5071TIP3    H136848   0.203   6.264   1.471  0.5578  3.4219  0.2228
 5071TIP3    H236849   0.241   6.249   1.617  1.8791  1.0342 -0.3361
 5072TIP3   OH236850   1.404   6.732   3.550  0.6391 -0.1853  0.5910
 5072TIP3    H136851   1.314   6.739   3.581 -0.6709 -1.0188 -2.5531
 5072TIP3    H236852   1.444   6.665   3.606 -0.9130 -0.3075  1.6109
 5073TIP3   OH236853   5.081   6.291   3.569 -0.0552  0.1158 -0.3031
 5073TIP3    H136854   5.073   6.382   3.597 -0.6569 -0.0250  0.0080
 5073TIP3    H236855   5.108   6.296   3.477 -0.9322  0.6181 -0.5440
 5074TIP3   OH236856   6.494   4.541   3.551  0.0768  0.1195 -0.3802
 5074TIP3    H136857   6.549   4.618   3.533  0.3069 -0.4982 -2.7155
 5074TIP3    H236858   6.557   4.471   3.570 -0.1154  0.3471  1.2401
 5075TIP3   OH236859   4.491   6.271   4.623  0.2345  0.5822  0.7184
 5075TIP3    H136860   4.585   6.252   4.625  0.1094  0.0097  1.5615
 5075TIP3    H236861   4.460   6.227   4.544  0.0645 -2.3729  2.2976
 5076TIP3   OH236862   5.349   5.687   5.338  0.7205 -0.3857  0.3050
 5076TIP3    H136863   5.310   5.643   5.413 -0.5033 -1.2459 -0.7931
 5076TIP3    H236864   5.443   5.682   5.353  0.5829 -2.4644  0.7416
 5077TIP3   OH236865   2.099   5.526   4.390 -0.6767 -0.3156  0.0488
 5077TIP3    H136866   2.095   5.583   4.313  0.7807  0.6890  0.6721
 5077TIP3    H236867   2.016   5.478   4.389 -1.5066  1.0718 -1.0594
 5078TIP3   OH236868   1.945   5.609   3.855 -0.3771  0.2212  0.0285
 5078TIP3    H136869   1.978   5.580   3.940  0.2678  0.5438 -0.1069
 5078TIP3    H236870   1.983   5.696   3.843 -0.6026  0.2488 -0.5164
 5079TIP3   OH236871   5.021   0.112   3.029 -0.1248 -0.1251 -0.0778
 5079TIP3    H136872   5.004   0.173   2.957  0.3611  0.5677  0.3745
 5079TIP3    H236873   5.092   0.154   3.079 -0.3151 -0.6911  0.6864
 5080TIP3   OH236874   4.471   1.852   2.454 -0.5071  0.3544  0.3211
 5080TIP3    H136875   4.404   1.875   2.390 -0.2116  0.4742  0.0547
 5080TIP3    H236876   4.553   1.853   2.405 -0.3396 -0.0462  0.5908
 5081TIP3   OH236877   0.907   4.507   1.031  0.1156 -0.0638 -0.1366
 5081TIP3    H136878   0.994   4.547   1.038 -0.6063  1.4341  0.6400
 5081TIP3    H236879   0.852   4.576   0.993 -0.7908 -0.9330 -0.4424
 5082TIP3   OH236880   4.017   3.842   1.825 -0.3699  0.2205 -0.0262
 5082TIP3    H136881   3.939   3.793   1.800 -0.2956  0.8064 -1.4520
 5082TIP3    H236882   4.013   3.924   1.776  1.4494 -0.0084 -0.6707
 5083TIP3   OH236883   4.706   3.051   4.584 -0.3563 -0.5528  0.2995
 5083TIP3    H136884   4.706   3.135   4.631  0.8543 -0.1735 -0.3375
 5083TIP3    H236885   4.616   3.041   4.553 -0.5735  0.3992  0.5913
 5084TIP3   OH236886   5.212   2.500   1.311 -0.1469  0.1674 -0.0053
 5084TIP3    H136887   5.150   2.485   1.383 -0.8129 -0.1621 -0.6406
 5084TIP3    H236888   5.173   2.456   1.236  1.0223 -0.3429 -0.3399
 5085TIP3   OH236889   0.452   1.886   1.206 -0.2312 -0.2161 -0.1466
 5085TIP3    H136890   0.494   1.805   1.178  0.1280 -0.0535 -0.0875
 5085TIP3    H236891   0.460   1.944   1.130 -2.0705 -0.8018 -0.8627
 5086TIP3   OH236892   3.518   3.307   2.976 -0.0471 -0.5046  0.4884
 5086TIP3    H136893   3.594   3.253   2.998  1.5636  0.6804 -1.7429
 5086TIP3    H236894   3.507   3.365   3.052  0.6835 -1.2965  1.2183
 5087TIP3   OH236895   3.771   4.586   4.539  0.3589 -0.3792  0.1688
 5087TIP3    H136896   3.712   4.578   4.615  1.0350  0.7974  0.8544
 5087TIP3    H236897   3.819   4.504   4.537 -0.0715 -0.6514  0.6636
 5088TIP3   OH236898   0.589   0.507   1.920  0.0817  0.6193  0.3909
 5088TIP3    H136899   0.602   0.518   2.015  1.4357  1.5653  0.1332
 5088TIP3    H236900   0.658   0.447   1.893 -0.9531 -0.4826  0.1515
 5089TIP3   OH236901   5.190   2.796   2.448 -0.3364 -0.0526 -0.2183
 5089TIP3    H136902   5.243   2.760   2.518  0.0554  1.6159  0.3927
 5089TIP3    H236903   5.250   2.806   2.374 -0.8965 -2.4348 -1.0863
 5090TIP3   OH236904   4.205   5.131   4.230 -0.1468  0.6975  0.6846
 5090TIP3    H136905   4.224   5.038   4.248  1.7109  1.0443  0.6980
 5090TIP3    H236906   4.232   5.144   4.139  3.2722  2.0459  1.7476
 5091TIP3   OH236907   6.465   4.726   3.134 -0.0250  0.0234  0.2558
 5091TIP3    H136908   6.435   4.724   3.043  2.5088 -0.1816 -0.6654
 5091TIP3    H236909   6.385   4.733   3.186 -1.4795  2.1736 -2.0336
 5092TIP3   OH236910   3.820   5.514   4.378 -0.2580  0.5341 -0.4010
 5092TIP3    H136911   3.781   5.472   4.301 -0.9107 -0.5069  0.4659
 5092TIP3    H236912   3.885   5.574   4.343  1.3373 -1.8096 -1.7009
 5093TIP3   OH236913   0.637   6.679   1.159 -0.6232  0.2395  0.2471
 5093TIP3    H136914   0.696   6.604   1.167 -0.5071  0.2027 -0.8412
 5093TIP3    H236915   0.576   6.655   1.089 -0.3633  1.2944 -0.3690
 5094TIP3   OH236916   1.767   0.503   1.541 -0.2889 -0.3955 -0.1247
 5094TIP3    H136917   1.678   0.508   1.504  0.2841  1.5678 -1.3951
 5094TIP3    H236918   1.784   0.409   1.548 -2.1670 -0.8243 -0.5962
 5095TIP3   OH236919   6.254   2.355   1.655  0.2874 -0.1807 -0.1150
 5095TIP3    H136920   6.249   2.413   1.579  1.2048  0.5719  0.3813
 5095TIP3    H236921   6.292   2.274   1.620  0.6836  0.1519 -0.4710
 5096TIP3   OH236922   1.594   6.611   2.780 -0.0475 -0.2908 -0.2228
 5096TIP3    H136923   1.682   6.573   2.787 -0.0716 -0.9768 -2.5131
 5096TIP3    H236924   1.540   6.556   2.836  0.6424 -1.1372 -0.3599
 5097TIP3   OH236925   0.497   1.508   1.892 -0.3054 -0.5210  0.5831
 5097TIP3    H136926   0.552   1.437   1.857  0.1612 -0.1599  0.5636
 5097TIP3    H236927   0.513   1.506   1.986 -0.6333 -0.7205  0.6366
 5098TIP3   OH236928   1.755   6.567   3.487  0.3530 -0.1185  0.1555
 5098TIP3    H136929   1.733   6.660   3.475 -0.3385 -0.2934 -0.0090
 5098TIP3    H236930   1.784   6.561   3.578 -1.2850 -0.0252  0.7309
 5099TIP3   OH236931   3.983   6.358   4.552 -0.1710 -0.3430  0.6056
 5099TIP3    H136932   3.907   6.303   4.575 -1.2693  0.8175 -0.1199
 5099TIP3    H236933   4.020   6.383   4.636 -2.3687  1.4309  1.1546
 5100TIP3   OH236934   4.742   4.625   4.579 -0.4819 -0.6090  0.0826
 5100TIP3    H136935   4.827   4.581   4.573  0.7209  1.6079 -0.4259
 5100TIP3    H236936   4.755   4.694   4.643 -1.6137  0.3549 -0.6655
 5101TIP3   OH236937   0.105   5.373   1.321  0.5366 -0.5482  1.1671
 5101TIP3    H136938   0.183   5.422   1.298  0.8737 -0.4647  2.4460
 5101TIP3    H236939   0.138   5.295   1.365 -0.0082 -1.7555 -0.4379
 5102TIP3   OH236940   5.666   0.078   4.437  0.1263 -0.7933  0.2222
 5102TIP3    H136941   5.649   0.012   4.370  0.2300 -0.7383  0.1428
 5102TIP3    H236942   5.761   0.081   4.445  0.3530  1.5704 -1.9969
 5103TIP3   OH236943   4.113   4.942   2.077  0.6760  0.4673  0.4923
 5103TIP3    H136944   4.157   5.026   2.091  1.2903  0.3048 -0.3613
 5103TIP3    H236945   4.110   4.932   1.982  0.8404 -0.5889  0.5814
 5104TIP3   OH236946   4.985   1.963   5.221  0.0458 -0.5480  0.3338
 5104TIP3    H136947   4.914   2.015   5.185  1.7510  0.7673 -1.3256
 5104TIP3    H236948   5.005   1.899   5.153  0.2648 -1.0900  0.8982
 5105TIP3   OH236949   5.479   3.983   4.680  0.2842 -0.8703  0.0931
 5105TIP3    H136950   5.556   4.029   4.714  1.0969 -0.5570 -2.0123
 5105TIP3    H236951   5.505   3.956   4.592 -2.1268 -0.5628 -0.7656
 5106TIP3   OH236952   1.583   5.734   3.757 -0.7890  0.3965  0.1965
 5106TIP3    H136953   1.487   5.723   3.758 -0.6680 -1.7057  3.5522
 5106TIP3    H236954   1.598   5.812   3.809 -0.6844 -0.2964  1.2436
 5107TIP3   OH236955   5.980   1.700   4.397 -0.1468  0.3104 -0.1003
 5107TIP3    H136956   5.962   1.628   4.337 -0.5994  1.2320 -1.1130
 5107TIP3    H236957   5.895   1.725   4.432  0.2260 -0.9105  1.8004
 5108TIP3   OH236958   1.482   0.014   2.622  0.3462 -0.4035 -0.4644
 5108TIP3    H136959   1.535  -0.050   2.670 -0.6451  0.4271  1.9118
 5108TIP3    H236960   1.396   0.008   2.663  0.1536  2.2461 -0.3310
 5109TIP3   OH236961   4.384   0.148   2.077  0.2776  0.5769 -0.2797
 5109TIP3    H136962   4.440   0.109   2.143  0.7550  0.1290 -0.9360
 5109TIP3    H236963   4.410   0.240   2.074 -0.4088  0.8213  0.8195
 5110TIP3   OH236964   1.277   1.655   1.983 -0.5678 -0.1585  0.2707
 5110TIP3    H136965   1.222   1.690   1.912  2.1062  2.5846 -0.6892
 5110TIP3    H236966   1.232   1.681   2.063 -1.1045  1.3127 -0.4681
 5111TIP3   OH236967   2.415   0.737   1.599 -0.0101 -0.0924 -0.0496
 5111TIP3    H136968   2.391   0.681   1.672  0.2934 -0.4321 -0.2078
 5111TIP3    H236969   2.505   0.712   1.578 -0.2060 -0.2221 -0.7517
 5112TIP3   OH236970   3.141   6.379   0.740 -0.2622 -0.1863 -0.3107
 5112TIP3    H136971   3.221   6.365   0.688  0.1027 -1.4891  0.5569
 5112TIP3    H236972   3.075   6.326   0.696 -0.3770  0.0371 -0.4072
 5113TIP3   OH236973   2.998   4.160   3.458 -0.1938  0.2301 -0.3338
 5113TIP3    H136974   2.996   4.253   3.480  0.1049  0.6444 -1.9481
 5113TIP3    H236975   2.946   4.118   3.527 -0.4986  1.5982  0.3064
 5114TIP3   OH236976   6.742   4.775   3.207 -0.5715  0.2351 -0.3107
 5114TIP3    H136977   6.750   4.845   3.271 -0.9466 -0.4352  0.4890
 5114TIP3    H236978   6.650   4.751   3.209 -0.3070 -0.8246  0.0302
 5115TIP3   OH236979   3.740   3.519   3.897  1.1997  0.0287 -0.6501
 5115TIP3    H136980   3.763   3.601   3.853  0.4814  0.4280 -0.3156
 5115TIP3    H236981   3.692   3.547   3.975  1.6624 -0.6951 -0.0968
 5116TIP3   OH236982   4.859   4.877   3.247  0.5792 -0.3537  0.4839
 5116TIP3    H136983   4.826   4.857   3.159  0.9594  0.9051  0.0302
 5116TIP3    H236984   4.809   4.955   3.274 -0.4143 -1.4448  1.9116
 5117TIP3   OH236985   5.573   5.035   3.623 -1.0764 -0.1721 -0.3846
 5117TIP3    H136986   5.655   4.985   3.630  0.3438  2.0579  0.0552
 5117TIP3    H236987   5.569   5.084   3.705 -0.9054  2.4804 -1.8569
 5118TIP3   OH236988   3.318   0.922   5.248 -1.1498 -0.4345 -0.6722
 5118TIP3    H136989   3.259   0.961   5.183 -1.1354 -2.9840 -2.3678
 5118TIP3    H236990   3.338   0.835   5.213 -0.2824 -1.5502  2.2693
 5119TIP3   OH236991   5.647   4.566   4.277 -0.0477 -0.1509  0.0125
 5119TIP3    H136992   5.741   4.580   4.289  0.3124 -1.7184 -0.7238
 5119TIP3    H236993   5.617   4.646   4.233  0.6080  1.0359  1.6273
 5120TIP3   OH236994   4.410   2.133   3.596 -0.2544  0.5336 -0.0091
 5120TIP3    H136995   4.367   2.092   3.671  0.8691  1.3291  1.1169
 5120TIP3    H236996   4.438   2.218   3.628  1.9580  0.1369 -0.7201
 5121TIP3   OH236997   0.693   4.118   5.666 -0.3021 -0.1864 -0.2169
 5121TIP3    H136998   0.606   4.159   5.669  0.5465  1.6576  0.9492
 5121TIP3    H236999   0.683   4.038   5.717 -1.1516  0.3969  0.5870
 5122TIP3   OH237000   2.952   5.151   5.116 -0.2364  0.4783 -0.3251
 5122TIP3    H137001   3.046   5.138   5.123 -0.5749 -2.7817 -0.4229
 5122TIP3    H237002   2.939   5.188   5.029  0.8734 -0.1413 -0.7666
 5123TIP3   OH237003   0.354   3.708   2.059  0.0845 -0.5062 -0.6024
 5123TIP3    H137004   0.442   3.746   2.069  0.3084 -1.0250 -0.5845
 5123TIP3    H237005   0.369   3.614   2.053 -0.0803 -0.4296 -4.9874
 5124TIP3   OH237006   3.009   2.618   0.443 -0.4834 -0.6182  0.4796
 5124TIP3    H137007   2.977   2.671   0.517  1.3933 -0.5283  1.2869
 5124TIP3    H237008   3.103   2.613   0.457 -0.1805 -1.2032 -1.5674
 5125TIP3   OH237009   0.869   2.482   4.497  0.1245  0.4289  0.4080
 5125TIP3    H137010   0.782   2.521   4.505 -0.0275 -0.0900  1.5793
 5125TIP3    H237011   0.928   2.550   4.528  0.1420  0.7746 -0.3674
 5126TIP3   OH237012   6.099   1.813   3.113 -0.4247 -0.0083  0.0759
 5126TIP3    H137013   6.124   1.774   3.030 -0.8684 -1.0022  0.3966
 5126TIP3    H237014   6.004   1.801   3.118 -0.5916  1.1459  0.1806
 5127TIP3   OH237015   1.119   1.175   2.301 -0.0491  0.4804  0.0962
 5127TIP3    H137016   1.110   1.185   2.396 -1.7051 -0.5390  0.0938
 5127TIP3    H237017   1.037   1.133   2.274  1.0551 -0.7396 -1.5488
 5128TIP3   OH237018   2.327   5.389   2.013 -0.6866  0.1781  0.4554
 5128TIP3    H137019   2.260   5.422   2.072  0.6943  0.2453  2.0369
 5128TIP3    H237020   2.351   5.304   2.048  0.4694  0.4134  0.2889
 5129TIP3   OH237021   4.841   5.513   2.712  0.0396  0.1701  0.2936
 5129TIP3    H137022   4.886   5.582   2.663 -0.6334  0.8222  0.5667
 5129TIP3    H237023   4.751   5.543   2.719 -0.0655 -0.2982  1.2197
 5130TIP3   OH237024   1.432   3.338   4.879 -0.7281  0.0008 -0.1239
 5130TIP3    H137025   1.413   3.431   4.891 -1.6743  0.0453 -1.7580
 5130TIP3    H237026   1.527   3.331   4.891 -0.7042  1.0850  0.4386
 5131TIP3   OH237027   1.544   2.705   2.431  0.4974 -0.4834  0.2140
 5131TIP3    H137028   1.523   2.680   2.521  1.7425 -2.0703  0.1037
 5131TIP3    H237029   1.527   2.626   2.379  1.0412  0.0051 -0.7460
 5132TIP3   OH237030   5.650   2.331   4.250  0.2129  0.0667  0.0107
 5132TIP3    H137031   5.671   2.305   4.160  1.3656  0.1154  0.2551
 5132TIP3    H237032   5.734   2.357   4.288 -0.4135  0.9909  0.8004
 5133TIP3   OH237033   5.219   2.075   2.419  0.0107 -0.1675 -0.2186
 5133TIP3    H137034   5.258   1.987   2.422  0.6756  0.1157 -0.2392
 5133TIP3    H237035   5.225   2.100   2.326  0.0636 -0.0021 -0.1707
 5134TIP3   OH237036   6.224   0.714   5.439 -0.0979  0.7401  0.3122
 5134TIP3    H137037   6.237   0.758   5.355 -0.2506  0.1754 -0.0093
 5134TIP3    H237038   6.311   0.711   5.478 -0.0874  1.3373  0.3463
 5135TIP3   OH237039   1.815   5.341   1.735  0.5130 -0.0642  0.2609
 5135TIP3    H137040   1.850   5.428   1.718  0.1878  0.0283  0.0593
 5135TIP3    H237041   1.776   5.348   1.823  1.2441 -0.2482  0.6128
 5136TIP3   OH237042   0.191   2.945   3.360  0.0076 -0.1342 -0.3782
 5136TIP3    H137043   0.262   2.983   3.413 -0.3247  0.8153 -0.5939
 5136TIP3    H237044   0.169   3.014   3.297 -0.7438 -0.6266 -0.6631
 5137TIP3   OH237045   5.590   3.019   2.787 -0.1811  0.2809 -0.3216
 5137TIP3    H137046   5.509   3.060   2.814 -0.1485  0.7139 -0.8685
 5137TIP3    H237047   5.579   2.927   2.810 -1.5353 -0.0136 -1.9192
 5138TIP3   OH237048   5.272   0.242   1.903  0.0148  0.4561 -0.8849
 5138TIP3    H137049   5.314   0.325   1.883  0.8427  0.1518 -0.4382
 5138TIP3    H237050   5.342   0.177   1.897 -0.3685 -0.0508 -0.0779
 5139TIP3   OH237051   0.285   3.319   2.672  0.1521  0.2953 -0.1549
 5139TIP3    H137052   0.380   3.324   2.677  0.2039  0.3804 -1.1342
 5139TIP3    H237053   0.255   3.409   2.685  0.3081  0.5926 -1.6910
 5140TIP3   OH237054   6.644   2.500   1.770  0.2913 -0.0896 -0.0957
 5140TIP3    H137055   6.590   2.444   1.714 -1.1972  0.8451  0.3604
 5140TIP3    H237056   6.705   2.542   1.710  0.7117 -1.3556 -0.5872
 5141TIP3   OH237057   1.931   4.160   1.737 -0.1964  0.0849 -0.7145
 5141TIP3    H137058   1.911   4.132   1.647 -1.2563  1.2092 -0.8458
 5141TIP3    H237059   2.023   4.186   1.734  0.4835 -2.1115 -0.8855
 5142TIP3   OH237060   6.755   6.132   2.286 -0.2566  0.4169  0.4391
 5142TIP3    H137061   6.746   6.226   2.276 -0.9009  0.2229 -1.1559
 5142TIP3    H237062   6.725   6.114   2.375  0.8867  1.8091  1.1461
 5143TIP3   OH237063   1.042   3.963   0.331 -0.2964 -0.1145 -0.2908
 5143TIP3    H137064   0.954   3.938   0.304  0.4645 -0.7617 -2.4289
 5143TIP3    H237065   1.096   3.945   0.254  1.2286  3.1136 -0.1181
 5144TIP3   OH237066   6.759   0.142   1.752 -0.1185 -0.7491  0.4915
 5144TIP3    H137067   6.780   0.235   1.750  2.4362 -1.2379  0.8402
 5144TIP3    H237068   6.772   0.116   1.844  0.6033 -1.6809  0.1520
 5145TIP3   OH237069   5.797   5.873   3.042 -0.6632 -0.2998  0.4181
 5145TIP3    H137070   5.754   5.798   3.000 -0.0742  0.3781 -1.5027
 5145TIP3    H237071   5.746   5.889   3.122 -1.5179 -1.9783  0.2414
 5146TIP3   OH237072   5.717   2.814   5.292  0.0535  0.6758  0.0434
 5146TIP3    H137073   5.763   2.897   5.302 -1.5023  1.5123  0.6278
 5146TIP3    H237074   5.686   2.814   5.202 -0.4174  1.0094  0.1983
 5147TIP3   OH237075   3.288   0.040   1.034  0.3732  0.2985 -0.2856
 5147TIP3    H137076   3.378   0.040   0.999  0.8310 -0.5171  0.8354
 5147TIP3    H237077   3.278   0.128   1.071  0.8619  0.2533 -0.0357
 5148TIP3   OH237078   1.600   4.102   2.703 -0.4057  0.4908 -0.0810
 5148TIP3    H137079   1.608   4.101   2.799 -2.4733 -0.0636  0.1281
 5148TIP3    H237080   1.616   4.194   2.680  0.7298  0.5248  0.6952
 5149TIP3   OH237081   2.549   1.926   0.992 -0.0909 -0.7808 -0.5129
 5149TIP3    H137082   2.521   1.955   0.905 -0.4882  0.4979  0.0150
 5149TIP3    H237083   2.617   1.988   1.017 -0.9088 -0.3010  0.6197
 5150TIP3   OH237084   0.386   6.017   3.629  0.2786 -0.6649 -0.1489
 5150TIP3    H137085   0.441   6.040   3.554 -1.7013  0.3783 -1.3985
 5150TIP3    H237086   0.440   6.033   3.706  1.6125  0.5739 -1.2998
 5151TIP3   OH237087   3.307   3.993   3.874 -0.1625  0.0098 -0.1789
 5151TIP3    H137088   3.381   4.008   3.932 -0.0974 -1.8101  0.2578
 5151TIP3    H237089   3.245   3.943   3.927 -0.6951 -0.4801 -1.2409
 5152TIP3   OH237090   5.779   4.935   5.259  0.5445  0.4925  0.4269
 5152TIP3    H137091   5.757   5.023   5.228  0.0971 -0.3165 -1.7327
 5152TIP3    H237092   5.694   4.893   5.273  0.7506  0.5153  1.9118
 5153TIP3   OH237093   1.702   1.347   1.365  0.2816  0.1983  0.4213
 5153TIP3    H137094   1.659   1.266   1.340 -0.8737  1.3165 -1.5319
 5153TIP3    H237095   1.636   1.415   1.350  1.8887  1.7171 -0.1652
 5154TIP3   OH237096   0.476   0.754   2.452 -0.1331 -0.1415 -0.3364
 5154TIP3    H137097   0.539   0.787   2.388  1.0152 -0.1067  0.7574
 5154TIP3    H237098   0.412   0.825   2.462 -0.7937 -0.4707 -2.0052
 5155TIP3   OH237099   6.067   3.482   4.085  0.0839  0.3681 -0.0956
 5155TIP3    H137100   6.161   3.501   4.090 -0.3901  2.7521  2.0398
 5155TIP3    H237101   6.052   3.417   4.154  0.0846  0.4286 -0.0379
 5156TIP3   OH237102   0.135   5.929   3.211 -0.5230  0.0808 -0.6867
 5156TIP3    H137103   0.149   5.838   3.188 -0.7636  0.1212 -0.9885
 5156TIP3    H237104   0.111   5.927   3.304 -0.8685 -0.1900 -0.7803
 5157TIP3   OH237105   4.800   5.576   2.080 -0.4077  0.8062 -0.0046
 5157TIP3    H137106   4.851   5.657   2.083 -0.1147  0.5986  0.8217
 5157TIP3    H237107   4.830   5.526   2.155  0.8413 -0.9515 -1.5956
 5158TIP3   OH237108   2.229   1.449   3.405  0.0380 -0.7445 -1.0678
 5158TIP3    H137109   2.267   1.460   3.317 -0.2206 -0.8219 -1.1887
 5158TIP3    H237110   2.255   1.361   3.431  2.6296  0.2833  0.1510
 5159TIP3   OH237111   2.321   1.791   3.572  0.4290 -0.0103 -0.2100
 5159TIP3    H137112   2.253   1.813   3.636  1.1260  0.4411  0.4013
 5159TIP3    H237113   2.294   1.835   3.492  0.5018  0.9848  0.3003
 5160TIP3   OH237114   3.379   2.719   4.185  0.8854  0.0412 -0.1131
 5160TIP3    H137115   3.432   2.757   4.114  0.7409  0.1853 -0.1427
 5160TIP3    H237116   3.320   2.659   4.140  0.8795  0.0384 -0.1013
 5161TIP3   OH237117   6.105   2.934   2.697 -0.9543  0.1019 -0.0490
 5161TIP3    H137118   6.159   3.013   2.695 -2.5839  1.3818  1.8925
 5161TIP3    H237119   6.018   2.965   2.725 -2.1463 -2.1420 -0.9683
 5162TIP3   OH237120   5.982   3.889   4.575 -0.3604  0.4603 -0.0539
 5162TIP3    H137121   6.031   3.908   4.495  0.1515 -1.1889 -0.1678
 5162TIP3    H237122   5.974   3.974   4.618  2.0495  0.9415 -0.3678
 5163TIP3   OH237123   3.715   0.964   3.242  0.0764  0.5040  0.0136
 5163TIP3    H137124   3.642   0.936   3.298  1.1294  0.7129  1.5336
 5163TIP3    H237125   3.767   0.885   3.227  1.3590  0.9757  1.7472
 5164TIP3   OH237126   6.225   5.040   3.578 -0.4168  0.7116 -0.1217
 5164TIP3    H137127   6.272   4.960   3.602 -0.3542  0.9502  0.5943
 5164TIP3    H237128   6.133   5.019   3.592 -0.4827  0.4468 -0.9130
 5165TIP3   OH237129   2.686   3.811   3.511  0.4676 -0.0527 -0.0087
 5165TIP3    H137130   2.702   3.764   3.593 -0.1835 -0.4335 -0.0906
 5165TIP3    H237131   2.741   3.890   3.517  0.6748 -0.2408  0.6454
 5166TIP3   OH237132   0.004   5.064   1.600  0.2779  0.6972  0.3470
 5166TIP3    H137133  -0.023   5.098   1.685 -0.2461  0.1206  0.4141
 5166TIP3    H237134   0.079   5.118   1.575  0.3400  0.9632  1.1076
 5167TIP3   OH237135   1.399   2.560   3.243 -0.8666 -0.1769 -0.1859
 5167TIP3    H137136   1.361   2.494   3.300 -0.0546  0.5940  1.3098
 5167TIP3    H237137   1.327   2.620   3.224 -1.2889 -0.7663 -0.5194
 5168TIP3   OH237138   2.231   1.349   5.207 -0.0740  0.0242  0.5989
 5168TIP3    H137139   2.171   1.373   5.277 -1.1195  0.6259 -0.4662
 5168TIP3    H237140   2.219   1.255   5.196 -0.3958  0.0434  0.7826
 5169TIP3   OH237141   2.077   4.658   3.989 -0.2941 -0.1753  0.3512
 5169TIP3    H137142   1.995   4.661   4.038  0.7215 -0.8798  2.1885
 5169TIP3    H237143   2.115   4.573   4.011  0.8586  0.0624 -0.6033
 5170TIP3   OH237144   3.572   2.701   4.545 -0.1188  0.0693 -0.5251
 5170TIP3    H137145   3.480   2.697   4.571 -0.4566  0.5016 -1.5836
 5170TIP3    H237146   3.607   2.774   4.595 -0.3909 -0.0048 -0.2211
 5171TIP3   OH237147   2.313   4.154   2.605 -0.3230  0.5790  0.7614
 5171TIP3    H137148   2.327   4.247   2.587 -0.4330  1.0697  2.9672
 5171TIP3    H237149   2.400   4.122   2.632 -0.1905 -0.0841 -0.3908
 5172TIP3   OH237150   5.291   4.219   5.279  0.0926 -0.2687  0.6153
 5172TIP3    H137151   5.271   4.140   5.329  0.0966 -1.3422 -1.0032
 5172TIP3    H237152   5.210   4.271   5.283  0.1827 -0.1896  1.9182
 5173TIP3   OH237153   5.235   5.083   1.127 -0.0520 -0.7682 -0.7244
 5173TIP3    H137154   5.311   5.071   1.184  1.9809  3.1765 -2.2381
 5173TIP3    H237155   5.226   5.000   1.081  2.5812 -1.7808  0.3892
 5174TIP3   OH237156   0.805   6.752   0.500  0.0912  0.3754  0.2188
 5174TIP3    H137157   0.868   6.819   0.474  1.2811 -1.0131 -0.6588
 5174TIP3    H237158   0.784   6.706   0.418  1.0266 -1.7074  1.0641
 5175TIP3   OH237159   6.027   3.245   1.537 -0.3179 -0.0883 -0.5460
 5175TIP3    H137160   6.010   3.317   1.597  0.9058 -0.2934  0.0816
 5175TIP3    H237161   6.115   3.214   1.561 -0.3800 -1.0796 -1.5184
 5176TIP3   OH237162   1.242   2.046   3.112  0.2595  0.0762  0.3991
 5176TIP3    H137163   1.279   1.979   3.170 -0.6347 -0.9686 -0.2056
 5176TIP3    H237164   1.220   1.999   3.032  2.2730  1.6388 -1.1993
 5177TIP3   OH237165   5.706   4.226   3.234  0.1293  0.0419  0.1475
 5177TIP3    H137166   5.705   4.192   3.144  2.0843  2.0919 -0.7401
 5177TIP3    H237167   5.673   4.316   3.226  0.9627  0.4829  1.3308
 5178TIP3   OH237168   5.560   4.195   3.601  0.0899 -0.0712 -0.6298
 5178TIP3    H137169   5.516   4.181   3.685 -0.7821  0.0637 -1.0499
 5178TIP3    H237170   5.630   4.256   3.622  0.7114 -1.0402  0.2376
 5179TIP3   OH237171   5.184   6.056   3.225 -0.1167  0.4039  0.2462
 5179TIP3    H137172   5.219   5.985   3.279  0.1103  0.7101  0.5060
 5179TIP3    H237173   5.191   6.134   3.280 -0.8481  0.5401  0.1564
 5180TIP3   OH237174   5.796   4.293   4.260 -0.3556 -0.1795  1.1344
 5180TIP3    H137175   5.776   4.210   4.303 -0.2785  0.3332  2.1679
 5180TIP3    H237176   5.717   4.314   4.210  0.5549 -2.2654 -1.4859
 5181TIP3   OH237177   3.682   3.695   0.639  0.4983 -0.0985  0.1219
 5181TIP3    H137178   3.731   3.754   0.582  1.8166 -0.9982  0.2631
 5181TIP3    H237179   3.745   3.671   0.707  0.4514 -2.5702 -0.5821
 5182TIP3   OH237180   5.699   0.934   1.997 -0.5016 -0.3406 -0.4426
 5182TIP3    H137181   5.782   0.961   2.036 -0.1951 -0.6345 -0.8792
 5182TIP3    H237182   5.668   0.863   2.052 -1.4734  1.0458  0.9093
 5183TIP3   OH237183   1.210   1.677   2.512 -0.2212 -0.6930  0.6729
 5183TIP3    H137184   1.257   1.612   2.460  2.4029 -0.7957  2.9369
 5183TIP3    H237185   1.199   1.637   2.597 -2.6880  0.1879  0.8657
 5184TIP3   OH237186   2.741   4.451   2.109 -0.5520  0.3594  0.1587
 5184TIP3    H137187   2.725   4.542   2.087 -0.9564  0.6472  1.5446
 5184TIP3    H237188   2.836   4.443   2.110 -0.5144  0.5879 -0.5828
 5185TIP3   OH237189   6.448   5.475   5.150 -0.1627 -0.2813 -0.5665
 5185TIP3    H137190   6.441   5.379   5.146  4.1917 -0.8335  0.6022
 5185TIP3    H237191   6.363   5.503   5.182 -2.1683 -3.5679 -2.3852
 5186TIP3   OH237192   0.239   2.221   0.702  0.8606  0.2700  0.1295
 5186TIP3    H137193   0.282   2.218   0.616 -0.5188  0.9689 -0.6241
 5186TIP3    H237194   0.198   2.136   0.711 -0.4080  0.7633 -0.7021
 5187TIP3   OH237195   3.424   3.697   3.957 -0.0487  0.6046  0.1030
 5187TIP3    H137196   3.484   3.734   3.893  1.0207  0.3886  0.9537
 5187TIP3    H237197   3.477   3.636   4.008 -1.8207 -2.7105 -1.6451
 5188TIP3   OH237198   4.156   2.396   5.356 -0.5145  0.0770 -0.1946
 5188TIP3    H137199   4.108   2.326   5.399  1.3425  0.1851  2.2787
 5188TIP3    H237200   4.092   2.466   5.344 -1.7475 -1.0257 -0.2179
 5189TIP3   OH237201   0.191   0.794   1.610  0.3763 -0.0809 -0.0464
 5189TIP3    H137202   0.284   0.811   1.595  0.0420  1.2313 -0.7776
 5189TIP3    H237203   0.146   0.851   1.548 -0.9174 -1.1002 -0.0837
 5190TIP3   OH237204   4.078   1.052   3.680  0.0245 -0.2467  0.0268
 5190TIP3    H137205   4.112   1.138   3.653 -1.9298  0.9874  1.2571
 5190TIP3    H237206   4.151   1.012   3.727  0.6550  1.1957  0.3531
 5191TIP3   OH237207   1.075   3.790   1.597 -0.0631  0.1550  0.2386
 5191TIP3    H137208   1.089   3.866   1.541 -1.4725 -0.2441 -0.7233
 5191TIP3    H237209   1.140   3.798   1.666  0.0391  2.0505 -0.0308
 5192TIP3   OH237210   1.719   1.903   1.923 -0.2324 -0.6505  0.2104
 5192TIP3    H137211   1.661   1.941   1.989  1.3066  0.3171  1.0639
 5192TIP3    H237212   1.685   1.814   1.910 -1.4375 -0.3737  1.2272
 5193TIP3   OH237213   1.637   6.341   0.627 -0.3289  0.8761  0.4277
 5193TIP3    H137214   1.690   6.410   0.588 -1.3722  0.7205 -1.4009
 5193TIP3    H237215   1.699   6.282   0.668  0.8193  1.3088 -0.6400
 5194TIP3   OH237216   6.520   1.444   3.025 -0.5438  0.3801  0.2499
 5194TIP3    H137217   6.591   1.503   3.049 -0.1219 -0.0747  0.1409
 5194TIP3    H237218   6.441   1.484   3.062 -0.0997  0.4097  1.1799
 5195TIP3   OH237219   0.905   0.877   2.500 -0.1944  0.1507 -0.3148
 5195TIP3    H137220   0.885   0.795   2.454  1.8813 -0.3119 -0.4997
 5195TIP3    H237221   0.963   0.850   2.572 -0.0890  1.3675  0.0780
 5196TIP3   OH237222   3.738   6.247   4.620  0.1389 -0.0054  0.2232
 5196TIP3    H137223   3.717   6.158   4.591 -0.8345 -0.0600  1.0473
 5196TIP3    H237224   3.692   6.257   4.703  2.6313  0.2302  1.7006
 5197TIP3   OH237225   2.594   2.419   1.527  0.2892  0.2346 -0.4056
 5197TIP3    H137226   2.589   2.397   1.620 -2.2090  0.2401 -0.4842
 5197TIP3    H237227   2.606   2.514   1.526  2.5555  0.0030 -0.1303
 5198TIP3   OH237228   4.052   5.217   3.532  0.0319  0.1859  0.0158
 5198TIP3    H137229   3.993   5.149   3.564  1.6172 -0.8440  0.8816
 5198TIP3    H237230   4.054   5.205   3.437 -2.2028  1.1632 -0.2091
 5199TIP3   OH237231   3.331   6.732   3.872  0.0790 -0.5987 -0.1681
 5199TIP3    H137232   3.414   6.777   3.887 -1.0532  1.6669 -0.2584
 5199TIP3    H237233   3.288   6.731   3.958  0.5731 -2.6986  0.1104
 5200TIP3   OH237234   1.340   5.816   0.858  1.0867 -0.3576 -0.3587
 5200TIP3    H137235   1.351   5.804   0.764  0.5377  2.2509 -0.8238
 5200TIP3    H237236   1.285   5.894   0.867  0.7805 -0.7555  2.1315
 5201TIP3   OH237237   2.778   3.344   1.432 -0.0702 -0.4348  0.0158
 5201TIP3    H137238   2.690   3.323   1.466 -0.9297  1.8628 -0.6223
 5201TIP3    H237239   2.762   3.373   1.343  1.0578  1.9778  0.5377
 5202TIP3   OH237240   2.850   1.219   2.321 -0.0767  0.1879  0.1522
 5202TIP3    H137241   2.807   1.145   2.279 -0.5265  0.2750  0.4525
 5202TIP3    H237242   2.779   1.267   2.364  0.1023  1.1915 -0.6319
 5203TIP3   OH237243   2.632   6.318   2.536 -0.2307  0.4805  0.2701
 5203TIP3    H137244   2.665   6.354   2.453 -1.9122  0.2265 -0.5454
 5203TIP3    H237245   2.647   6.224   2.528  1.1281  0.6123  0.9943
 5204TIP3   OH237246   3.596   3.609   2.454  0.5993 -0.8451 -0.2657
 5204TIP3    H137247   3.577   3.526   2.497 -3.3743 -1.3388 -2.5173
 5204TIP3    H237248   3.642   3.584   2.373 -3.2853 -1.4653 -2.5294
 5205TIP3   OH237249   1.405   4.099   1.385 -0.0911 -0.0641 -0.0458
 5205TIP3    H137250   1.409   4.178   1.438  1.1501  0.5489 -1.0031
 5205TIP3    H237251   1.343   4.119   1.316  0.8551  0.4113 -0.7785
 5206TIP3   OH237252   3.079   5.946   4.416  0.1213 -0.1363  0.0994
 5206TIP3    H137253   3.028   5.885   4.469  3.0010 -0.7324  2.5105
 5206TIP3    H237254   3.084   5.905   4.330 -1.9837 -0.8215  0.2416
 5207TIP3   OH237255   1.597   0.047   3.056  0.0492  0.4343  0.8496
 5207TIP3    H137256   1.687   0.041   3.022 -0.0653 -3.0996  0.8157
 5207TIP3    H237257   1.546  -0.008   2.997 -1.7889  0.9112  1.9372
 5208TIP3   OH237258   6.742   1.035   4.903  0.6916  0.3697  0.1744
 5208TIP3    H137259   6.681   0.990   4.962 -0.4207  1.4636 -0.0674
 5208TIP3    H237260   6.817   1.056   4.958  0.4895 -0.2727  0.7129
 5209TIP3   OH237261   3.832   2.313   1.278 -0.2049  0.5748  0.3150
 5209TIP3    H137262   3.747   2.270   1.277  0.0358  0.0853 -0.2127
 5209TIP3    H237263   3.834   2.365   1.197 -0.5387  1.6916  1.0053
 5210TIP3   OH237264   5.812   4.832   4.757  0.1029 -0.1703  0.1806
 5210TIP3    H137265   5.805   4.776   4.680  1.6545  0.2974 -0.3336
 5210TIP3    H237266   5.741   4.896   4.747  0.3023 -0.0991 -0.8745
 5211TIP3   OH237267   6.079   4.443   3.175  0.5433  0.4593  0.3814
 5211TIP3    H137268   6.130   4.398   3.243  0.4776  0.2403  0.2866
 5211TIP3    H237269   6.016   4.378   3.146  1.0713  0.2948 -0.4292
 5212TIP3   OH237270   1.706   1.739   0.480  0.0956 -0.2177  0.3967
 5212TIP3    H137271   1.688   1.828   0.512  1.6346  0.9526 -1.7330
 5212TIP3    H237272   1.629   1.716   0.428  0.6698  0.9436 -1.0558
 5213TIP3   OH237273   4.172   1.948   2.915 -0.3501  0.2698 -0.2073
 5213TIP3    H137274   4.250   1.893   2.905 -0.3920  0.4473 -1.8661
 5213TIP3    H237275   4.206   2.036   2.930 -0.2813 -0.1351  2.6534
 5214TIP3   OH237276   5.129   0.349   3.843  0.4908 -0.2186 -0.1666
 5214TIP3    H137277   5.034   0.351   3.851  0.1273 -2.1427 -2.6850
 5214TIP3    H237278   5.157   0.277   3.899  0.0505 -1.6384 -1.6880
 5215TIP3   OH237279   4.662   3.245   3.424 -0.5890  0.1960  0.5591
 5215TIP3    H137280   4.614   3.206   3.350  0.8286 -1.2037  0.3253
 5215TIP3    H237281   4.598   3.246   3.496 -1.8793  1.2462 -0.5518
 5216TIP3   OH237282   5.829   4.630   5.026  0.3560 -0.0844  0.3128
 5216TIP3    H137283   5.850   4.549   4.979 -0.6401  0.9165 -2.0012
 5216TIP3    H237284   5.886   4.696   4.987 -0.5288  0.7930  0.4671
 5217TIP3   OH237285   5.851   5.589   5.334 -0.4916 -0.1270  0.7116
 5217TIP3    H137286   5.775   5.560   5.384 -0.3227 -0.4166  0.7997
 5217TIP3    H237287   5.918   5.608   5.400 -0.1284 -0.9113  0.5833
 5218TIP3   OH237288   3.520   3.201   3.668 -0.1240  0.0102  0.1048
 5218TIP3    H137289   3.607   3.230   3.640  0.2172 -0.5429  0.5611
 5218TIP3    H237290   3.484   3.274   3.717 -0.6346  0.9088 -1.5460
 5219TIP3   OH237291   4.353   4.465   4.231 -0.0047  0.0610  0.0980
 5219TIP3    H137292   4.372   4.558   4.216  2.5309 -0.4569 -0.3779
 5219TIP3    H237293   4.401   4.444   4.311 -2.0323 -0.4887  1.2547
 5220TIP3   OH237294   0.494   3.686   2.802  0.0548 -0.9123  0.4177
 5220TIP3    H137295   0.481   3.740   2.880  1.6926  0.1342 -0.0002
 5220TIP3    H237296   0.538   3.607   2.834  0.3655 -0.6614  0.6028
 5221TIP3   OH237297   4.162   1.112   3.339 -0.1381  0.5374 -0.6587
 5221TIP3    H137298   4.135   1.175   3.405 -2.4024 -1.8169  0.8750
 5221TIP3    H237299   4.205   1.042   3.389  0.6961  0.0050 -2.0643
 5222TIP3   OH237300   3.817   5.433   3.151  0.7775  0.1025  0.2126
 5222TIP3    H137301   3.829   5.361   3.212  0.5823 -0.9031 -0.9045
 5222TIP3    H237302   3.821   5.512   3.206 -1.1477 -0.8237  1.7743
 5223TIP3   OH237303   0.377   0.466   4.456 -0.1338 -0.0646 -0.4826
 5223TIP3    H137304   0.471   0.449   4.453 -0.2760 -1.1709  0.5509
 5223TIP3    H237305   0.342   0.421   4.379  0.2491  0.9915 -1.2996
 5224TIP3   OH237306   6.405   4.240   3.156  0.7330  0.4531 -0.3795
 5224TIP3    H137307   6.462   4.173   3.195 -0.5375 -1.2020 -1.2138
 5224TIP3    H237308   6.368   4.287   3.230  0.7594 -0.5705  0.3034
 5225TIP3   OH237309   2.877   1.289   1.203 -0.0155  0.4166 -0.2798
 5225TIP3    H137310   2.904   1.342   1.128  1.3562  0.1101 -0.0259
 5225TIP3    H237311   2.910   1.337   1.279 -2.2474  1.2392  0.2353
 5226TIP3   OH237312   0.528   3.858   0.378  0.3869  0.3956  0.6701
 5226TIP3    H137313   0.518   3.907   0.460  0.9547 -0.0613  1.0146
 5226TIP3    H237314   0.467   3.785   0.386 -3.4364  3.0299 -1.4496
 5227TIP3   OH237315   5.825   1.608   4.189 -0.0011  0.2828 -0.3884
 5227TIP3    H137316   5.818   1.513   4.178  0.1018  0.4404 -1.9817
 5227TIP3    H237317   5.736   1.640   4.175  0.3028  0.5761 -1.7516
 5228TIP3   OH237318   1.526   6.691   2.343  0.2761 -0.3325  0.3949
 5228TIP3    H137319   1.561   6.604   2.326  0.3192 -0.1854 -0.3061
 5228TIP3    H237320   1.526   6.699   2.438  0.3531 -1.0627  0.4610
 5229TIP3   OH237321   3.625   1.175   3.935  0.2599  0.1816  0.1061
 5229TIP3    H137322   3.546   1.125   3.914  0.5434 -0.2945  0.1561
 5229TIP3    H237323   3.621   1.251   3.877 -0.6488  0.5933  0.6886
 5230TIP3   OH237324   0.034   0.705   4.967 -0.1662 -0.1984 -0.4168
 5230TIP3    H137325   0.066   0.632   5.020 -0.0741 -0.6208 -1.0316
 5230TIP3    H237326  -0.056   0.719   4.996 -1.0801 -2.2382 -1.9637
 5231TIP3   OH237327   1.697   4.726   2.390 -0.2330  0.2701 -0.4380
 5231TIP3    H137328   1.614   4.768   2.368 -0.0400  0.8337 -0.1206
 5231TIP3    H237329   1.719   4.674   2.312 -1.0009 -0.0797 -0.4256
 5232TIP3   OH237330   5.669   5.258   4.322  0.2806 -0.5878  0.0577
 5232TIP3    H137331   5.750   5.250   4.371  0.1184 -1.5681  0.1774
 5232TIP3    H237332   5.688   5.323   4.255  0.7080  0.2614  0.9854
 5233TIP3   OH237333   5.900   5.060   1.602  0.2800  0.2672  0.2792
 5233TIP3    H137334   5.983   5.097   1.571  0.0950  0.8089  0.4193
 5233TIP3    H237335   5.863   5.016   1.526  0.2166  0.8909 -0.0581
 5234TIP3   OH237336   5.343   0.460   3.373 -0.9711  0.6597 -0.0975
 5234TIP3    H137337   5.436   0.439   3.364 -0.4904  2.7077 -0.3957
 5234TIP3    H237338   5.333   0.544   3.330 -2.7087  1.1187  1.0914
 5235TIP3   OH237339   5.150   4.889   4.694  0.0371 -0.2793 -0.1492
 5235TIP3    H137340   5.164   4.960   4.756  1.1247  0.3767 -1.0955
 5235TIP3    H237341   5.208   4.819   4.724 -1.1362 -0.8446  0.8629
 5236TIP3   OH237342   2.885   5.814   1.424 -0.2861  0.2257 -0.3920
 5236TIP3    H137343   2.920   5.774   1.504 -1.0830  1.0994  0.4129
 5236TIP3    H237344   2.962   5.830   1.370  0.4202  0.8433  0.7575
 5237TIP3   OH237345   5.128   5.761   4.227 -0.1273  0.5681 -0.4137
 5237TIP3    H137346   5.177   5.689   4.266 -0.0670  1.4290  1.1603
 5237TIP3    H237347   5.037   5.744   4.251  0.0276  1.6478  1.0639
 5238TIP3   OH237348   2.901   0.735   1.227 -0.0769 -0.4668 -0.0070
 5238TIP3    H137349   2.969   0.773   1.172  0.8491 -1.0157  0.7231
 5238TIP3    H237350   2.858   0.810   1.268 -1.1714 -0.0085 -1.8596
 5239TIP3   OH237351   2.194   2.194   4.938  0.2390 -0.0188  0.6868
 5239TIP3    H137352   2.200   2.283   4.973  1.1517 -0.5139  1.8400
 5239TIP3    H237353   2.192   2.138   5.015  2.0357 -1.1203 -0.0095
 5240TIP3   OH237354   4.311   2.357   1.275  0.4637  0.1727 -0.0218
 5240TIP3    H137355   4.274   2.445   1.280  1.6701  0.6668  0.5399
 5240TIP3    H237356   4.375   2.362   1.204  0.2259 -0.3849 -0.2863
 5241TIP3   OH237357   5.398   3.221   1.222 -0.3681 -0.3191  0.1058
 5241TIP3    H137358   5.464   3.271   1.174  0.3725 -0.2225  1.2021
 5241TIP3    H237359   5.320   3.277   1.221  0.3642  0.7566  1.0655
 5242TIP3   OH237360   2.968   1.839   0.645 -0.6296  0.6073 -0.1806
 5242TIP3    H137361   3.049   1.890   0.642 -1.1160  1.3795 -1.1664
 5242TIP3    H237362   2.981   1.776   0.716  1.7684 -0.9215 -1.8283
 5243TIP3   OH237363   1.610   5.802   3.400 -0.2438 -0.0531  0.2416
 5243TIP3    H137364   1.557   5.848   3.335 -1.1499  2.1584  2.3649
 5243TIP3    H237365   1.557   5.727   3.425  0.0773 -0.8705 -1.4447
 5244TIP3   OH237366   3.552   6.749   1.023  0.5240 -0.0527  0.1194
 5244TIP3    H137367   3.606   6.760   1.101 -0.5178  0.9573  0.7204
 5244TIP3    H237368   3.610   6.769   0.950  1.0229  0.8037  0.7445
 5245TIP3   OH237369   1.432   1.523   4.182  0.4501  0.0466  0.1194
 5245TIP3    H137370   1.345   1.535   4.144 -1.1512  0.0318  3.4468
 5245TIP3    H237371   1.463   1.612   4.199  1.4076  0.0755 -1.5373
 5246TIP3   OH237372   5.359   0.313   5.649 -0.9785  0.4628 -0.3252
 5246TIP3    H137373   5.416   0.390   5.641  1.5931 -0.7205  3.7483
 5246TIP3    H237374   5.276   0.348   5.681 -0.6046  1.7376 -0.6763
 5247TIP3   OH237375   2.041   4.255   3.768 -0.5868  0.5855  0.2469
 5247TIP3    H137376   2.043   4.163   3.794  2.1280  0.4097 -0.3714
 5247TIP3    H237377   1.974   4.259   3.700  0.6165 -1.3876 -1.1502
 5248TIP3   OH237378   0.970   5.104   2.745 -0.2865 -0.1244 -0.5670
 5248TIP3    H137379   1.060   5.102   2.713 -0.2095 -2.5760 -0.3796
 5248TIP3    H237380   0.971   5.049   2.823 -1.9754 -0.3261 -0.6427
 5249TIP3   OH237381   3.346   6.185   2.464 -0.2906 -0.4732  0.4926
 5249TIP3    H137382   3.423   6.129   2.477 -0.4172 -0.6472  0.5030
 5249TIP3    H237383   3.362   6.262   2.518 -0.3147 -0.6998  0.8271
 5250TIP3   OH237384   5.518   4.028   2.035 -0.4367  0.2816  0.2352
 5250TIP3    H137385   5.570   4.036   2.115  0.1966  0.3401 -0.1746
 5250TIP3    H237386   5.578   3.990   1.971 -0.0762  2.7027 -0.9808
 5251TIP3   OH237387   3.112   1.984   3.516  0.0978 -0.1339 -0.0329
 5251TIP3    H137388   3.093   1.932   3.594 -1.1642 -1.3320 -1.0758
 5251TIP3    H237389   3.101   2.074   3.544 -2.7365 -0.6043  0.6563
 5252TIP3   OH237390   0.443   2.352   3.481 -0.3565  0.2527 -0.0185
 5252TIP3    H137391   0.479   2.432   3.444  0.3285 -0.4246 -0.8593
 5252TIP3    H237392   0.363   2.380   3.525  0.5170  1.5940  0.7951
 5253TIP3   OH237393   0.035   0.693   4.688  0.5045 -0.3562  0.5927
 5253TIP3    H137394   0.091   0.723   4.617 -2.5117 -1.5079 -2.5820
 5253TIP3    H237395   0.034   0.765   4.750  0.5496  2.3773 -2.3192
 5254TIP3   OH237396   1.459   2.477   0.963  0.2541 -0.4985  0.2727
 5254TIP3    H137397   1.445   2.562   0.923  1.0005  0.9038  2.7569
 5254TIP3    H237398   1.376   2.430   0.951 -0.3897  0.8232 -0.5784
 5255TIP3   OH237399   3.254   5.755   4.902  0.5485 -0.3319  0.1462
 5255TIP3    H137400   3.239   5.662   4.920 -0.5380 -0.6700 -2.1299
 5255TIP3    H237401   3.201   5.801   4.967  0.8134 -1.2920  1.0679
 5256TIP3   OH237402   5.424   4.164   4.305  0.2843 -0.0109  0.5098
 5256TIP3    H137403   5.401   4.111   4.382 -0.5621  2.6649  2.2618
 5256TIP3    H237404   5.455   4.247   4.342  1.9382  0.6337 -2.0531
 5257TIP3   OH237405   2.053   6.507   4.617  0.0176 -0.0945 -0.6178
 5257TIP3    H137406   1.981   6.476   4.672  0.5725 -0.5748 -0.1552
 5257TIP3    H237407   2.132   6.488   4.667  0.4195  1.5777 -0.5541
 5258TIP3   OH237408   0.872   1.029   3.836 -0.1703  0.2929 -0.1649
 5258TIP3    H137409   0.825   1.004   3.756 -0.3101 -0.0387  0.0211
 5258TIP3    H237410   0.805   1.031   3.904  0.1534 -0.6045  0.1901
 5259TIP3   OH237411   5.995   5.943   4.053  0.6661  0.1891  0.4023
 5259TIP3    H137412   6.043   5.960   4.134  1.2467  0.7118 -0.0405
 5259TIP3    H237413   5.970   6.029   4.020 -0.2423 -0.0604  0.4153
 5260TIP3   OH237414   0.287   3.084   0.979  0.0133 -0.2293  0.1275
 5260TIP3    H137415   0.269   3.003   0.930  1.3796  0.0695 -0.9219
 5260TIP3    H237416   0.201   3.112   1.010 -0.5490 -1.8295  0.1086
 5261TIP3   OH237417   6.608   2.441   3.465  0.1019 -0.1567  0.8212
 5261TIP3    H137418   6.593   2.520   3.413  1.3640 -0.6264 -0.3166
 5261TIP3    H237419   6.550   2.451   3.541 -0.6298  1.2921  0.1186
 5262TIP3   OH237420   0.452   0.899   1.548  0.4479  0.4855  0.4414
 5262TIP3    H137421   0.493   0.985   1.563  1.2720  0.0538  0.7460
 5262TIP3    H237422   0.488   0.844   1.618  0.3493 -0.2525 -0.0880
 5263TIP3   OH237423   0.876   6.443   4.127 -0.0660  0.0010  0.1236
 5263TIP3    H137424   0.872   6.382   4.201 -0.5581  0.2553  0.3063
 5263TIP3    H237425   0.926   6.518   4.161  0.1458 -0.1022  0.0404
 5264TIP3   OH237426   6.172   4.203   2.498  0.0293 -0.3913 -0.0319
 5264TIP3    H137427   6.091   4.251   2.518  0.3144  0.9013 -1.6989
 5264TIP3    H237428   6.164   4.121   2.546 -2.4007 -0.4094 -0.3565
 5265TIP3   OH237429   5.219   5.105   3.560  0.3962  0.3881 -0.1711
 5265TIP3    H137430   5.302   5.057   3.556 -0.2005 -0.6297 -0.6630
 5265TIP3    H237431   5.174   5.082   3.478 -0.6707  0.3701  0.4079
 5266TIP3   OH237432   2.880   5.807   1.748  0.3194  0.1737 -0.4885
 5266TIP3    H137433   2.943   5.843   1.810  0.2168  0.7029 -0.6900
 5266TIP3    H237434   2.795   5.835   1.782 -0.0619 -2.5582  1.1836
 5267TIP3   OH237435   6.119   5.441   1.279  0.0410  0.5473 -0.5876
 5267TIP3    H137436   6.027   5.444   1.253 -0.1800  0.7432  0.2110
 5267TIP3    H237437   6.160   5.382   1.215 -1.1796 -1.8026  0.6711
 5268TIP3   OH237438   2.208   0.297   3.451 -0.6383  0.0824 -0.0944
 5268TIP3    H137439   2.153   0.347   3.391 -0.4168 -0.4094 -0.7101
 5268TIP3    H237440   2.274   0.359   3.481 -0.8567  0.3754 -0.2232
 5269TIP3   OH237441   1.584   5.951   4.735 -0.2910 -0.0572  0.4957
 5269TIP3    H137442   1.603   6.024   4.794 -0.7436  0.3446  0.1537
 5269TIP3    H237443   1.589   5.874   4.791  1.1595  0.1257  0.6708
 5270TIP3   OH237444   4.152   6.680   2.195 -0.4339  0.4782  0.5747
 5270TIP3    H137445   4.125   6.753   2.138  1.1182  0.0800 -0.7339
 5270TIP3    H237446   4.227   6.715   2.243 -0.9822  0.4026  1.5001
 5271TIP3   OH237447   4.892   0.943   3.890  0.2825  0.2941  0.2856
 5271TIP3    H137448   4.841   0.901   3.958  0.3162 -2.1248 -1.0608
 5271TIP3    H237449   4.983   0.934   3.919  0.2164  0.5684  0.5814
 5272TIP3   OH237450   4.632   2.659   3.787 -0.4546  0.2882  0.6273
 5272TIP3    H137451   4.672   2.712   3.718 -0.5393 -0.8028 -0.2889
 5272TIP3    H237452   4.675   2.574   3.780 -2.3422 -0.6852  0.1134
 5273TIP3   OH237453   5.971   3.075   0.967  0.5449 -0.7612 -0.2424
 5273TIP3    H137454   6.036   3.145   0.955  2.5476 -2.1460  1.6496
 5273TIP3    H237455   5.903   3.115   1.022  0.2021  0.4559 -1.4954
 5274TIP3   OH237456   3.148   3.767   4.032  0.0464  0.3004 -0.1014
 5274TIP3    H137457   3.137   3.774   4.127  0.3349  0.3637 -0.0705
 5274TIP3    H237458   3.238   3.735   4.021  0.2236  0.8700 -0.3640
 5275TIP3   OH237459   6.182   4.395   4.014  0.5886 -0.0894 -0.1199
 5275TIP3    H137460   6.136   4.475   3.989  2.7051  1.4287  0.5388
 5275TIP3    H237461   6.134   4.362   4.089 -1.7939 -0.9121 -1.9021
 5276TIP3   OH237462   4.765   3.854   4.240  0.0910 -0.0467  0.3162
 5276TIP3    H137463   4.782   3.775   4.292 -1.0756 -1.7183 -1.6881
 5276TIP3    H237464   4.682   3.836   4.196 -0.5908  2.6587  0.3331
 5277TIP3   OH237465   3.121   1.967   2.487  0.2014  0.0686 -0.1829
 5277TIP3    H137466   3.123   1.881   2.528 -1.9630  0.2322  0.4132
 5277TIP3    H237467   3.202   1.972   2.437  0.7235 -2.0082  0.3600
 5278TIP3   OH237468   0.016   2.941   5.385  0.1777 -0.1691 -1.1853
 5278TIP3    H137469  -0.070   2.913   5.417  0.6552  0.5228  0.8346
 5278TIP3    H237470   0.055   2.863   5.347 -0.6391 -0.9218 -0.5086
 5279TIP3   OH237471   6.375   3.103   4.926  0.5168 -0.2400  0.0261
 5279TIP3    H137472   6.326   3.023   4.943 -0.2186 -0.2107 -1.7033
 5279TIP3    H237473   6.464   3.083   4.954 -0.1729 -0.7695  1.9510
 5280TIP3   OH237474   3.931   4.118   1.469  0.1167 -0.4379  0.7887
 5280TIP3    H137475   3.884   4.162   1.539 -1.1788  0.0297 -0.3338
 5280TIP3    H237476   4.001   4.070   1.514 -0.3527  0.2516  2.3308
 5281TIP3   OH237477   0.857   3.050   2.899 -0.0746 -0.4953 -0.3173
 5281TIP3    H137478   0.764   3.031   2.908  0.2072 -2.6623 -1.2795
 5281TIP3    H237479   0.867   3.139   2.931 -2.7410  0.3968 -1.6720
 5282TIP3   OH237480   5.193   1.134   1.888 -0.5615 -0.0322  0.4773
 5282TIP3    H137481   5.206   1.208   1.947 -1.2528  0.5969 -0.1431
 5282TIP3    H237482   5.206   1.170   1.800 -3.9920  0.1628 -0.0959
 5283TIP3   OH237483   4.338   0.839   4.363 -0.2038  0.5767  0.7378
 5283TIP3    H137484   4.269   0.772   4.365 -0.4557  0.8335  0.6675
 5283TIP3    H237485   4.399   0.812   4.431 -0.3831  0.3601  0.8160
 5284TIP3   OH237486   5.424   0.538   2.134 -0.2588 -0.1590  0.3170
 5284TIP3    H137487   5.447   0.624   2.169  0.5216  0.1982 -1.0408
 5284TIP3    H237488   5.342   0.516   2.178  0.1513  0.7238  1.5905
 5285TIP3   OH237489   5.649   1.914   2.615  0.3153  0.0367 -0.7340
 5285TIP3    H137490   5.582   1.864   2.660 -0.3166 -0.7001 -2.4058
 5285TIP3    H237491   5.661   1.993   2.668 -1.3105 -0.1932  0.0159
 5286TIP3   OH237492   2.703   0.999   2.200 -0.4571 -0.1462 -0.3400
 5286TIP3    H137493   2.640   0.982   2.129 -0.3889  0.8496 -0.6581
 5286TIP3    H237494   2.674   0.944   2.272 -0.5842 -1.1150 -1.1120
 5287TIP3   OH237495   0.368   3.176   1.212  0.6184 -0.5685  0.2170
 5287TIP3    H137496   0.345   3.145   1.124  0.3096 -0.5493  0.2876
 5287TIP3    H237497   0.289   3.222   1.242  0.5016 -1.0854  0.7321
 5288TIP3   OH237498   6.058   0.178   1.224  0.2881 -1.0068  0.2734
 5288TIP3    H137499   6.150   0.204   1.236 -0.2385  0.9076  0.5523
 5288TIP3    H237500   6.054   0.146   1.134  1.1593 -0.7808  0.1403
 5289TIP3   OH237501   5.363   5.964   1.322 -0.4958 -0.1192 -0.1478
 5289TIP3    H137502   5.275   5.959   1.361  0.0395 -1.4756  0.9415
 5289TIP3    H237503   5.413   6.015   1.385  0.3559 -2.2565  0.9972
 5290TIP3   OH237504   3.200   0.709   2.873 -0.1606  0.4586  0.0754
 5290TIP3    H137505   3.195   0.802   2.853  0.0050  0.4518 -0.0013
 5290TIP3    H237506   3.125   0.692   2.930 -1.2453  0.2791 -1.3398
 5291TIP3   OH237507   2.889   3.207   1.122 -0.1247  0.1780  0.0811
 5291TIP3    H137508   2.940   3.255   1.188 -0.4543  1.4094 -0.5324
 5291TIP3    H237509   2.798   3.215   1.151 -0.3388  1.2685 -0.8269
 5292TIP3   OH237510   6.635   4.097   4.945 -0.0436 -0.0222  0.0055
 5292TIP3    H137511   6.655   4.074   5.035 -0.5472  1.0091  0.3921
 5292TIP3    H237512   6.647   4.192   4.941  0.4457 -0.1097 -1.1361
 5293TIP3   OH237513   1.737   6.088   0.458 -0.3994  0.1838 -0.2927
 5293TIP3    H137514   1.823   6.081   0.500 -0.0709 -0.7066 -1.0893
 5293TIP3    H237515   1.701   6.000   0.460 -1.6792  0.6978  0.7710
 5294TIP3   OH237516   1.669   2.977   2.142  0.3097  0.3379  0.5842
 5294TIP3    H137517   1.710   2.919   2.077 -1.6054 -0.4250 -0.0147
 5294TIP3    H237518   1.715   2.957   2.223  1.1501 -0.4368 -0.0510
 5295TIP3   OH237519   5.904   4.333   2.982  0.3598 -0.2092 -0.2582
 5295TIP3    H137520   5.841   4.402   2.961 -0.5024 -1.2780 -1.2912
 5295TIP3    H237521   5.988   4.369   2.955  0.4788  1.7459  2.2815
 5296TIP3   OH237522   4.399   1.673   0.827  0.3497  0.2613  0.1863
 5296TIP3    H137523   4.312   1.634   0.826  0.9582 -1.2363  1.4104
 5296TIP3    H237524   4.401   1.725   0.907  0.2538  1.1849 -0.3863
 5297TIP3   OH237525   6.750   0.817   2.468 -0.0556 -0.0386 -0.1548
 5297TIP3    H137526   6.731   0.726   2.491  0.9530 -0.6122 -1.4928
 5297TIP3    H237527   6.682   0.841   2.405  0.3740 -0.2740 -0.7170
 5298TIP3   OH237528   4.537   4.565   2.475 -0.1642  0.3949 -0.0413
 5298TIP3    H137529   4.488   4.502   2.423  0.5742 -0.6149  0.4670
 5298TIP3    H237530   4.607   4.596   2.417  0.3828 -0.3886  0.1883
 5299TIP3   OH237531   2.620   0.082   2.023  0.4757 -0.1322  0.0797
 5299TIP3    H137532   2.549   0.094   1.960 -0.4236  0.5798  1.1918
 5299TIP3    H237533   2.667   0.166   2.022 -0.4854  0.4747  1.4341
 5300TIP3   OH237534   0.365   0.544   3.931  0.7183  0.2340 -0.1271
 5300TIP3    H137535   0.422   0.485   3.881 -0.0969  0.0200 -0.8273
 5300TIP3    H237536   0.354   0.620   3.874 -1.2238 -0.5340 -0.8613
 5301TIP3   OH237537   2.659   3.597   1.017 -0.0784  0.4858  0.2237
 5301TIP3    H137538   2.632   3.679   0.975 -0.8668 -0.6233 -1.5352
 5301TIP3    H237539   2.750   3.584   0.990 -0.2665  0.2948 -0.3381
 5302TIP3   OH237540   3.799   6.532   4.168  0.3369 -0.3599  0.1327
 5302TIP3    H137541   3.871   6.479   4.134 -0.5620 -0.4718 -1.7405
 5302TIP3    H237542   3.763   6.481   4.241  0.7422 -1.3644 -0.3562
 5303TIP3   OH237543   5.167   1.447   3.704 -0.6438 -0.2425  0.7561
 5303TIP3    H137544   5.087   1.400   3.680 -0.6190 -0.3990  0.9764
 5303TIP3    H237545   5.146   1.539   3.692 -0.1148 -0.3555 -1.5405
 5304TIP3   OH237546   3.957   5.933   4.668 -0.2343 -0.6064 -0.5743
 5304TIP3    H137547   3.861   5.934   4.666 -0.2600 -2.1859 -1.6586
 5304TIP3    H237548   3.979   5.978   4.749 -1.9457 -1.8110  0.6352
 5305TIP3   OH237549   2.381   1.317   4.330  0.4671 -0.0117 -0.6655
 5305TIP3    H137550   2.401   1.312   4.424 -0.5576  3.8533 -0.0586
 5305TIP3    H237551   2.291   1.287   4.323 -0.4452  2.2884  0.1858
 5306TIP3   OH237552   4.295   2.749   2.172  0.2357 -0.2039  0.4079
 5306TIP3    H137553   4.253   2.728   2.088 -1.4804  2.0319  0.5878
 5306TIP3    H237554   4.222   2.759   2.233  1.0835  2.3034  1.1244
 5307TIP3   OH237555   2.294   6.399   1.851  0.5488 -0.2771  0.2935
 5307TIP3    H137556   2.242   6.318   1.843  0.0848 -0.0824  1.2333
 5307TIP3    H237557   2.230   6.465   1.879  1.0727  0.2498  0.2494
 5308TIP3   OH237558   2.727   1.717   2.317  1.0232 -0.2288  0.3609
 5308TIP3    H137559   2.698   1.666   2.392 -0.4310  1.0476  0.7142
 5308TIP3    H237560   2.792   1.662   2.274  0.4488 -1.8009  1.4359
 5309TIP3   OH237561   1.095   6.362   3.028 -0.3135  0.3429 -0.1382
 5309TIP3    H137562   1.093   6.449   2.989  0.2885  1.2355  1.7162
 5309TIP3    H237563   1.052   6.372   3.113  1.0720 -0.7976  0.7544
 5310TIP3   OH237564   3.659   3.712   2.124 -0.0794  0.5725 -0.1189
 5310TIP3    H137565   3.698   3.681   2.043 -2.3893 -0.6663 -0.8360
 5310TIP3    H237566   3.708   3.668   2.193  1.1731  0.7627 -0.8640
 5311TIP3   OH237567   4.757   0.817   4.095 -0.2395 -0.1494 -0.3626
 5311TIP3    H137568   4.756   0.907   4.128 -0.6371 -0.2903  0.0192
 5311TIP3    H237569   4.667   0.787   4.104 -0.1857 -0.4606 -0.8464
 5312TIP3   OH237570   6.555   1.300   4.542 -0.2295 -0.1026 -0.0689
 5312TIP3    H137571   6.583   1.288   4.632  0.0257  0.8665 -0.0136
 5312TIP3    H237572   6.568   1.214   4.501  2.1160  0.1047  0.1394
 5313TIP3   OH237573   3.512   3.859   0.915  0.2118 -0.0427 -0.4923
 5313TIP3    H137574   3.536   3.772   0.881  1.2858 -0.4345  1.1530
 5313TIP3    H237575   3.528   3.918   0.842  0.7021 -1.0724 -1.2498
 5314TIP3   OH237576   4.085   6.305   4.315 -0.4492 -0.1062 -0.3083
 5314TIP3    H137577   4.177   6.331   4.318 -0.4017  0.0984 -2.0747
 5314TIP3    H237578   4.049   6.334   4.399  1.1729 -0.5626  0.5946
 5315TIP3   OH237579   3.388   5.979   2.038 -0.4593 -0.1225  0.3243
 5315TIP3    H137580   3.341   6.040   1.981 -0.2419  0.4768  0.7815
 5315TIP3    H237581   3.430   6.034   2.104  0.2235 -0.7195  0.4034
 5316TIP3   OH237582   3.285   2.259   4.483  0.0670 -0.5615  0.3156
 5316TIP3    H137583   3.218   2.264   4.551 -1.2751 -0.7659 -0.9470
 5316TIP3    H237584   3.277   2.341   4.435 -2.0317 -2.1037 -2.2613
 5317TIP3   OH237585   5.187   6.544   2.220 -0.6164  0.1966  0.6157
 5317TIP3    H137586   5.137   6.570   2.143  0.4311  0.2218 -0.0688
 5317TIP3    H237587   5.234   6.623   2.246  0.6862 -0.3565 -0.0095
 5318TIP3   OH237588   1.850   3.860   2.336 -0.1981  0.0982 -0.0442
 5318TIP3    H137589   1.927   3.912   2.313  0.1846 -0.5198 -0.1841
 5318TIP3    H237590   1.832   3.884   2.427  0.5309 -0.1900  0.1874
 5319TIP3   OH237591   3.206   6.263   3.489  0.2639  0.2733  0.0469
 5319TIP3    H137592   3.171   6.327   3.427 -2.1902  0.5500  1.5945
 5319TIP3    H237593   3.293   6.296   3.511 -0.2171  2.0674 -0.5754
 5320TIP3   OH237594   4.558   5.496   0.992 -0.4899 -0.0299  0.4587
 5320TIP3    H137595   4.593   5.443   0.921  0.0553 -0.3384  0.9484
 5320TIP3    H237596   4.588   5.453   1.072  1.7780  2.1069  0.8937
 5321TIP3   OH237597   1.613   3.396   1.333  0.3838  0.7279 -0.0037
 5321TIP3    H137598   1.663   3.349   1.266  1.0579  1.7197 -0.2236
 5321TIP3    H237599   1.523   3.398   1.300  0.5932  0.6840 -0.5855
 5322TIP3   OH237600   0.321   0.771   3.790 -0.3154  0.2169  0.8192
 5322TIP3    H137601   0.373   0.848   3.814 -1.1231  0.3550  2.2238
 5322TIP3    H237602   0.246   0.807   3.742 -0.7926  0.3341  1.6438
 5323TIP3   OH237603   2.248   6.151   1.621  0.6087  0.3730 -0.0461
 5323TIP3    H137604   2.185   6.080   1.634  0.2545  0.9556  1.7975
 5323TIP3    H237605   2.201   6.230   1.646  0.9709  1.3191 -2.1267
 5324TIP3   OH237606   5.155   4.788   3.063 -1.0582  0.0972 -0.2122
 5324TIP3    H137607   5.231   4.762   3.116  0.1035  3.6659  0.0912
 5324TIP3    H237608   5.087   4.809   3.126 -0.8917  0.8822 -0.2897
 5325TIP3   OH237609   1.177   5.990   1.608 -0.6173 -0.3928 -0.3020
 5325TIP3    H137610   1.171   6.066   1.667 -1.1788 -0.5190 -0.1850
 5325TIP3    H237611   1.172   6.027   1.520 -0.0685 -0.2274 -0.2665
 5326TIP3   OH237612   3.077   5.844   0.318 -0.1572 -0.2662  0.8275
 5326TIP3    H137613   3.038   5.764   0.353 -0.5766  0.0238  1.0473
 5326TIP3    H237614   3.109   5.820   0.231 -0.7091 -0.5492  0.6983
 5327TIP3   OH237615   6.605   0.936   1.591 -0.3971 -0.5905  0.3980
 5327TIP3    H137616   6.693   0.925   1.555 -0.6207 -0.3175 -0.2503
 5327TIP3    H237617   6.580   0.849   1.621 -0.7903 -1.1793 -1.4967
 5328TIP3   OH237618   0.359   4.824   3.082 -0.2192 -0.2080  0.2160
 5328TIP3    H137619   0.339   4.771   3.159  0.3359 -0.8376 -0.0633
 5328TIP3    H237620   0.453   4.813   3.069 -0.2746  0.0529 -0.4299
 5329TIP3   OH237621   3.714   4.269   1.996 -0.5264 -0.0509 -0.3221
 5329TIP3    H137622   3.680   4.201   1.938 -0.1919 -0.5461  0.0515
 5329TIP3    H237623   3.770   4.222   2.058  0.6808  0.7151 -0.7849
 5330TIP3   OH237624   2.902   0.815   2.873 -0.0070  0.8058  0.2511
 5330TIP3    H137625   2.922   0.729   2.912 -3.3490  0.0260  0.5504
 5330TIP3    H237626   2.947   0.878   2.929  1.0296 -0.6548  1.1392
 5331TIP3   OH237627   5.414   0.063   4.226  0.6072  0.1079  0.7076
 5331TIP3    H137628   5.494   0.041   4.178 -0.4819 -0.2266 -1.0619
 5331TIP3    H237629   5.413   0.001   4.300  0.9911 -1.2489 -0.3689
 5332TIP3   OH237630   1.954   1.370   2.313 -1.0400 -0.1617 -0.6645
 5332TIP3    H137631   1.896   1.312   2.265  1.0832 -1.7148 -1.4532
 5332TIP3    H237632   2.023   1.393   2.251  1.5269 -1.8433  1.3709
 5333TIP3   OH237633   2.382   2.167   3.640  0.3085  0.2078  0.1124
 5333TIP3    H137634   2.327   2.189   3.715  0.1181 -1.9400  0.6558
 5333TIP3    H237635   2.437   2.095   3.670 -1.7318 -2.7281 -2.5652
 5334TIP3   OH237636   3.496   0.310   2.884  0.4056  0.1155 -0.5605
 5334TIP3    H137637   3.492   0.219   2.913  0.8180  0.5679  1.0242
 5334TIP3    H237638   3.557   0.352   2.945  0.0323  1.5039 -1.1055
 5335TIP3   OH237639   1.831   0.293   3.543  0.2297  0.2232  0.4367
 5335TIP3    H137640   1.909   0.347   3.557 -0.3722  1.4839 -0.8970
 5335TIP3    H237641   1.767   0.326   3.605 -0.2030  1.2012 -0.5142
 5336TIP3   OH237642   0.337   4.050   3.220 -0.5462  0.2766  0.6785
 5336TIP3    H137643   0.295   4.136   3.229  0.3860  0.8044  0.2067
 5336TIP3    H237644   0.400   4.047   3.292 -1.9668 -0.8870  1.9288
 5337TIP3   OH237645   2.393   0.605   1.027  0.1942 -0.1744 -0.3582
 5337TIP3    H137646   2.481   0.600   0.988  0.5339 -0.3148  0.4011
 5337TIP3    H237647   2.365   0.695   1.011  0.1259 -0.3566 -1.3324
 5338TIP3   OH237648   5.891   0.382   3.428  0.1714 -0.5487 -0.2156
 5338TIP3    H137649   5.923   0.468   3.457 -0.4171 -0.7504  1.1037
 5338TIP3    H237650   5.796   0.388   3.436  0.1887 -1.7509  1.2137
 5339TIP3   OH237651   3.665   0.257   2.117  0.6497 -0.6601 -0.6376
 5339TIP3    H137652   3.733   0.282   2.180  0.2412  0.5796 -0.6559
 5339TIP3    H237653   3.710   0.202   2.053  2.2297  1.8814 -1.8976
 5340TIP3   OH237654   2.556   3.220   1.899 -0.3946 -0.3604  0.0775
 5340TIP3    H137655   2.484   3.230   1.836 -0.6682 -0.9087  0.2942
 5340TIP3    H237656   2.611   3.151   1.861 -1.8212 -2.4303  1.5462
 5341TIP3   OH237657   1.118   0.452   3.384  0.7760 -0.2664 -0.1105
 5341TIP3    H137658   1.198   0.503   3.372  1.3830 -0.8778  1.0566
 5341TIP3    H237659   1.117   0.432   3.478 -1.2162  0.4749  0.0681
 5342TIP3   OH237660   1.113   4.535   2.148  0.3930 -0.3800 -0.3900
 5342TIP3    H137661   1.079   4.606   2.203  0.1434 -0.7658 -0.0439
 5342TIP3    H237662   1.104   4.568   2.058  1.3147  0.4828 -0.1972
 5343TIP3   OH237663   2.962   0.139   4.411 -0.4139 -0.1083 -0.3751
 5343TIP3    H137664   3.038   0.084   4.425  1.2132  1.5476 -2.0766
 5343TIP3    H237665   2.918   0.143   4.496  0.2091 -2.7350  0.1338
 5344TIP3   OH237666   0.994   0.636   2.739 -0.5017  0.0313 -0.2718
 5344TIP3    H137667   0.902   0.660   2.752  0.0734  2.9140 -0.7936
 5344TIP3    H237668   1.040   0.677   2.812  0.4177 -1.4528  0.0313
 5345TIP3   OH237669   6.336   4.553   1.697  0.1467 -0.0631  0.0297
 5345TIP3    H137670   6.331   4.624   1.762 -0.9449 -0.3760  0.3146
 5345TIP3    H237671   6.413   4.503   1.723  0.2901  0.3853  0.5014
 5346TIP3   OH237672   5.304   0.966   2.672 -0.4244 -0.1370 -0.0025
 5346TIP3    H137673   5.344   1.036   2.620  0.4340 -0.1262  0.6540
 5346TIP3    H237674   5.375   0.902   2.685 -1.1262 -1.0041 -0.3718
 5347TIP3   OH237675   6.115   2.161   3.858 -0.3936 -0.5798 -0.0250
 5347TIP3    H137676   6.087   2.205   3.938  2.0691 -1.9052  1.6968
 5347TIP3    H237677   6.170   2.225   3.814  0.0927 -0.6139  0.5251
 5348TIP3   OH237678   3.232   5.099   1.403  0.1585 -0.2897  0.4097
 5348TIP3    H137679   3.278   5.166   1.454 -2.1672  1.4343  0.4214
 5348TIP3    H237680   3.156   5.077   1.457  0.3534 -2.2543 -0.0620
 5349TIP3   OH237681   1.006   3.781   3.488  0.5509 -0.0803  0.1030
 5349TIP3    H137682   1.055   3.774   3.570  1.2507 -2.9151 -0.4308
 5349TIP3    H237683   0.917   3.802   3.515  1.0487  0.3527  1.4685
 5350TIP3   OH237684   5.966   5.006   3.722 -0.7660  0.3831 -0.2174
 5350TIP3    H137685   5.906   5.078   3.705 -2.1183 -0.7187 -0.2263
 5350TIP3    H237686   5.937   4.936   3.665  0.2485 -0.3353  0.1198
 5351TIP3   OH237687   5.644   5.349   1.451 -0.2913 -0.1863  0.4816
 5351TIP3    H137688   5.625   5.296   1.374  2.1321  0.3324 -0.5728
 5351TIP3    H237689   5.652   5.285   1.522  0.9961 -1.1167 -0.4416
 5352TIP3   OH237690   4.427   1.409   1.401 -0.1416  0.2102  0.0560
 5352TIP3    H137691   4.432   1.323   1.359  0.5853  0.8922 -1.3106
 5352TIP3    H237692   4.348   1.449   1.364 -1.5145 -0.5038  2.0310
 5353TIP3   OH237693   3.282   1.254   2.543  0.1165 -0.1695 -0.0404
 5353TIP3    H137694   3.311   1.282   2.630 -0.1443 -0.7814  0.2454
 5353TIP3    H237695   3.289   1.333   2.489 -0.8133  0.5071  0.8085
 5354TIP3   OH237696   4.090   4.164   4.555 -0.2386 -0.0387  0.2589
 5354TIP3    H137697   4.113   4.253   4.527  1.0759 -0.4636 -0.1058
 5354TIP3    H237698   4.174   4.124   4.576 -0.8190 -1.1961  0.4162
 5355TIP3   OH237699   6.674   5.029   2.997  0.0281  0.1797  0.1676
 5355TIP3    H137700   6.599   5.086   2.979 -0.2583 -0.2471 -0.0253
 5355TIP3    H237701   6.674   5.017   3.092  0.4066  0.9176  0.2700
 5356TIP3   OH237702   5.787   1.723   1.630 -0.3362  0.2825 -0.3104
 5356TIP3    H137703   5.786   1.698   1.537 -0.0015  0.0800 -0.2630
 5356TIP3    H237704   5.819   1.645   1.675  1.6069  1.0540 -0.2429
 5357TIP3   OH237705   1.378   0.576   3.369  0.8179  0.4133 -0.1499
 5357TIP3    H137706   1.434   0.522   3.426  0.8133  0.8268  0.2515
 5357TIP3    H237707   1.395   0.666   3.397  0.2266  0.5665 -0.2727
 5358TIP3   OH237708   2.345   2.510   4.253 -0.0569 -0.0845  0.1114
 5358TIP3    H137709   2.413   2.511   4.185  0.3098 -0.1385  0.4749
 5358TIP3    H237710   2.339   2.601   4.282  0.7944 -0.2907  0.9938
 5359TIP3   OH237711   3.732   1.365   1.936  0.3334  0.1568 -0.5111
 5359TIP3    H137712   3.721   1.400   2.024 -1.1138  3.3772 -1.8045
 5359TIP3    H237713   3.678   1.286   1.935 -1.2054  1.1191  0.9664
 5360TIP3   OH237714   5.837   2.601   0.675 -0.4378  0.4346 -0.1523
 5360TIP3    H137715   5.787   2.524   0.701  0.7217  0.5112  2.6027
 5360TIP3    H237716   5.774   2.673   0.679 -0.8218  0.0769  0.2704
 5361TIP3   OH237717   1.993   5.286   1.520  0.4155 -0.5778  0.4006
 5361TIP3    H137718   1.920   5.298   1.580 -0.2829  0.6545 -0.6285
 5361TIP3    H237719   1.982   5.356   1.456  1.4786 -1.4701 -0.8051
 5362TIP3   OH237720   4.207   1.069   3.053 -0.0880 -0.3193  0.3714
 5362TIP3    H137721   4.270   1.130   3.090 -1.7645  1.8665 -0.1821
 5362TIP3    H237722   4.130   1.075   3.111 -0.5545 -1.3911 -0.0951
 5363TIP3   OH237723   5.728   4.872   4.409  0.1758 -0.3153 -0.0721
 5363TIP3    H137724   5.774   4.953   4.430  0.5573 -0.8597  1.3050
 5363TIP3    H237725   5.718   4.874   4.314 -1.5198  2.2386  0.0634
 5364TIP3   OH237726   6.272   5.278   3.884  0.0616 -0.4219 -0.2104
 5364TIP3    H137727   6.301   5.296   3.795  0.4295  0.3288  0.0567
 5364TIP3    H237728   6.202   5.341   3.901 -0.1108 -0.6601 -0.0187
 5365TIP3   OH237729   2.582   2.721   1.771  0.2648  0.7118  0.0153
 5365TIP3    H137730   2.579   2.807   1.814 -1.0625  1.1123 -0.8311
 5365TIP3    H237731   2.663   2.723   1.720 -0.2641  1.9201 -0.8444
 5366TIP3   OH237732   2.341   1.613   4.337 -0.0487  0.2075  0.3622
 5366TIP3    H137733   2.405   1.685   4.339  0.3053 -0.0746 -0.5041
 5366TIP3    H237734   2.394   1.534   4.340 -0.3701 -0.0246  0.0004
 5367TIP3   OH237735   4.880   2.350   3.151 -0.4842 -0.0819  0.1076
 5367TIP3    H137736   4.845   2.439   3.148 -0.1849  0.0338 -0.0427
 5367TIP3    H237737   4.973   2.361   3.128 -0.6825 -0.5570 -0.9614
 5368TIP3   OH237738   3.143   4.748   3.565  0.1851 -0.4162  0.3808
 5368TIP3    H137739   3.128   4.714   3.653 -1.0179  1.1201  0.8083
 5368TIP3    H237740   3.057   4.743   3.523  0.3081  0.7177 -0.0202
 5369TIP3   OH237741   2.181   2.492   3.965  0.0422  0.1845 -0.2532
 5369TIP3    H137742   2.127   2.525   3.893  0.1927 -1.3475 -1.0939
 5369TIP3    H237743   2.118   2.469   4.033 -0.3058 -0.6222 -0.8338
 5370TIP3   OH237744   1.122   1.188   5.651  0.6461  0.2464 -0.3789
 5370TIP3    H137745   1.103   1.094   5.646  0.2752  0.3334 -0.7043
 5370TIP3    H237746   1.214   1.196   5.628  0.2647  0.1183 -2.0903
 5371TIP3   OH237747   5.052   2.395   4.409 -0.4927  0.0382 -0.2979
 5371TIP3    H137748   5.071   2.354   4.325 -2.4316  0.4708 -1.0266
 5371TIP3    H237749   5.099   2.479   4.406  0.9244 -0.7321 -0.1446
 5372TIP3   OH237750   0.689   3.221   5.471  0.1265  0.2753  0.2881
 5372TIP3    H137751   0.613   3.194   5.523 -0.6234  0.0832 -0.8605
 5372TIP3    H237752   0.718   3.141   5.427 -0.3055  0.7316 -0.8735
 5373TIP3   OH237753   1.938   0.117   3.725 -0.0246  0.1267  0.1276
 5373TIP3    H137754   1.877   0.165   3.668  0.5064  1.5574  0.7228
 5373TIP3    H237755   2.017   0.107   3.673 -0.2643 -0.4700 -0.1337
 5374TIP3   OH237756   3.688   3.334   1.013  0.0773  0.4456  0.0917
 5374TIP3    H137757   3.651   3.422   1.000  0.5291  0.6225 -0.0185
 5374TIP3    H237758   3.774   3.338   0.973  0.6928  0.4018  1.3617
 5375TIP3   OH237759   3.076   2.440   3.839 -0.2037 -0.9015  0.7684
 5375TIP3    H137760   3.098   2.484   3.922  0.6093  2.7758 -1.1817
 5375TIP3    H237761   2.982   2.449   3.831 -0.1077  0.0584  0.6491
 5376TIP3   OH237762   1.802   6.000   2.873 -0.1898  0.1317  0.2726
 5376TIP3    H137763   1.778   6.091   2.857  0.5719  0.0736 -1.4088
 5376TIP3    H237764   1.747   5.949   2.814  1.6431 -0.2196 -1.2259
 5377TIP3   OH237765   3.947   0.964   2.965 -0.1760  0.0923  0.0172
 5377TIP3    H137766   4.000   0.904   3.017  2.2411  2.5610  0.6133
 5377TIP3    H237767   3.964   0.939   2.874 -0.6920 -1.2486  0.2684
 5378TIP3   OH237768   0.482   3.538   2.506 -0.3249 -0.4756 -0.4853
 5378TIP3    H137769   0.546   3.521   2.437 -0.5700 -0.1278 -0.7964
 5378TIP3    H237770   0.462   3.631   2.498 -0.3284 -0.4261  0.0756
 5379TIP3   OH237771   6.418   5.350   4.474  0.1269 -0.8082 -0.2262
 5379TIP3    H137772   6.461   5.435   4.488 -1.1089 -0.1896 -0.0374
 5379TIP3    H237773   6.436   5.301   4.554  0.2333 -0.4354 -0.0160
 5380TIP3   OH237774   3.685   4.507   1.553  0.3013  0.4592 -0.1467
 5380TIP3    H137775   3.717   4.586   1.595 -0.0914  0.6014 -0.1095
 5380TIP3    H237776   3.612   4.537   1.497  0.0315  0.1032  0.0112
 5381TIP3   OH237777   5.726   2.037   1.503  0.3206 -0.1778  0.1628
 5381TIP3    H137778   5.791   1.998   1.561  0.9914 -0.3089 -0.6656
 5381TIP3    H237779   5.642   2.003   1.535  0.6503 -0.0389  1.2121
 5382TIP3   OH237780   1.255   0.339   2.840 -0.4724  0.4729 -0.4396
 5382TIP3    H137781   1.336   0.294   2.864 -0.8991 -0.0503  0.0534
 5382TIP3    H237782   1.234   0.393   2.916 -1.6503 -0.9338  0.2852
 5383TIP3   OH237783   1.712   2.355   4.179 -0.1525  0.0361 -0.3869
 5383TIP3    H137784   1.701   2.337   4.273  1.4724 -0.5542 -0.2825
 5383TIP3    H237785   1.622   2.367   4.147 -0.6579  2.4714  1.6207
 5384TIP3   OH237786   5.707   6.632   2.152 -0.4856 -0.0913 -0.5013
 5384TIP3    H137787   5.687   6.593   2.067 -1.4934  0.2542 -0.4327
 5384TIP3    H237788   5.653   6.583   2.214 -0.8688  0.6254 -0.2621
 5385TIP3   OH237789   2.199   2.007   4.726 -0.3999  0.5614 -0.1875
 5385TIP3    H137790   2.230   2.056   4.650 -1.2779 -0.9292 -1.5806
 5385TIP3    H237791   2.199   2.070   4.797  0.8553  1.9093 -1.3174
 5386TIP3   OH237792   0.623   0.608   5.323  0.1113 -0.0497  0.9980
 5386TIP3    H137793   0.699   0.623   5.267  2.6478 -2.3599  3.4733
 5386TIP3    H237794   0.585   0.527   5.289  0.3388 -0.2719  1.2622
 5387TIP3   OH237795   2.977   4.232   2.905  0.0378  0.5210  0.5612
 5387TIP3    H137796   2.959   4.324   2.921  0.5724  0.2523  3.1416
 5387TIP3    H237797   2.899   4.186   2.934  0.3254  0.0825  0.6574
 5388TIP3   OH237798   3.187   3.172   3.393  0.4139  0.6802  0.2198
 5388TIP3    H137799   3.174   3.233   3.320  4.0133  1.2023 -0.1950
 5388TIP3    H237800   3.114   3.189   3.452 -0.8218  2.6070 -1.6932
 5389TIP3   OH237801   0.215   1.719   1.543  0.0878 -0.7786 -0.3288
 5389TIP3    H137802   0.178   1.783   1.482  0.2253 -1.2434 -0.9042
 5389TIP3    H237803   0.146   1.655   1.556 -0.7645  0.4524  1.7419
 5390TIP3   OH237804   2.169   0.023   2.291 -0.0849  0.1485 -0.1298
 5390TIP3    H137805   2.109   0.073   2.346  0.3319  0.9949 -0.4253
 5390TIP3    H237806   2.170   0.070   2.208  0.8321  0.0398 -0.1913
 5391TIP3   OH237807   3.261   1.229   4.385 -0.1646  0.1286  0.6729
 5391TIP3    H137808   3.336   1.254   4.332  0.8254 -0.7147  1.6443
 5391TIP3    H237809   3.290   1.238   4.475 -2.1244  2.4850  1.1926
 5392TIP3   OH237810   4.214   6.371   2.578 -1.2628  0.0332 -0.8799
 5392TIP3    H137811   4.175   6.354   2.493 -1.8760  0.7883 -0.7570
 5392TIP3    H237812   4.141   6.372   2.639 -0.9128  0.1984 -0.4536
 5393TIP3   OH237813   2.193   5.233   4.151  0.1614  0.1109 -0.2800
 5393TIP3    H137814   2.147   5.153   4.176 -1.8570  1.3445  0.1456
 5393TIP3    H237815   2.150   5.262   4.071  2.5344 -0.5019 -1.8821
 5394TIP3   OH237816   6.330   2.500   1.117 -0.5603  0.3979  0.2578
 5394TIP3    H137817   6.398   2.565   1.136  0.8717 -0.9614  0.0318
 5394TIP3    H237818   6.340   2.481   1.024 -0.1650 -0.9660  0.5576
 5395TIP3   OH237819   1.049   4.632   5.516  0.8895  0.0889  0.5858
 5395TIP3    H137820   0.991   4.617   5.591  0.5269 -0.0093  0.2856
 5395TIP3    H237821   1.004   4.698   5.464  1.3898  0.5436  0.7180
 5396TIP3   OH237822   2.846   4.145   3.220  0.1144  0.6899 -0.0590
 5396TIP3    H137823   2.780   4.209   3.193 -0.9220 -0.0805  0.5757
 5396TIP3    H237824   2.909   4.196   3.271 -0.4749  1.2771  0.0943
 5397TIP3   OH237825   2.681   0.859   0.952  0.4102  0.3371 -0.0898
 5397TIP3    H137826   2.722   0.774   0.937  1.3429  0.6474  0.6120
 5397TIP3    H237827   2.668   0.863   1.047  0.8305  1.1728 -0.0556
 5398TIP3   OH237828   4.967   0.318   4.575  0.3070 -0.2624 -0.6542
 5398TIP3    H137829   4.941   0.229   4.552  1.8098 -0.9148  0.0283
 5398TIP3    H237830   5.038   0.339   4.514  0.8723 -0.0697  0.0527
 5399TIP3   OH237831   0.799   2.487   3.157 -0.6641 -0.0759  0.9005
 5399TIP3    H137832   0.721   2.444   3.122 -0.6180 -0.1405  0.8773
 5399TIP3    H237833   0.805   2.457   3.248 -0.4299 -0.4012  0.7803
 5400TIP3   OH237834   3.846   5.022   3.521  0.0412  0.1908  0.0601
 5400TIP3    H137835   3.780   5.000   3.586 -1.0446  1.1319 -0.6664
 5400TIP3    H237836   3.910   4.952   3.527 -0.8501 -0.5849  1.0260
 5401TIP3   OH237837   5.510   5.216   2.861  0.5524  0.2179 -0.1404
 5401TIP3    H137838   5.431   5.268   2.847  0.5397  0.3313  0.3394
 5401TIP3    H237839   5.558   5.263   2.929  0.6469 -0.2772  0.1400
 5402TIP3   OH237840   3.842   4.492   2.213 -1.3688 -0.4830 -0.2445
 5402TIP3    H137841   3.882   4.538   2.139  0.1523 -2.0116 -0.4352
 5402TIP3    H237842   3.910   4.492   2.281 -2.4177  0.1005  0.8418
 5403TIP3   OH237843   3.699   0.840   3.822  0.0842 -0.2435  0.3423
 5403TIP3    H137844   3.620   0.894   3.821  1.1117  1.3907  1.5623
 5403TIP3    H237845   3.735   0.849   3.734  0.0518  0.8245  0.4198
 5404TIP3   OH237846   3.198   4.688   3.094 -0.1250  0.1190 -0.0579
 5404TIP3    H137847   3.230   4.677   3.183 -1.6356 -2.3473  0.2874
 5404TIP3    H237848   3.243   4.766   3.061  0.8232  0.8263  2.6712
 5405TIP3   OH237849   0.298   5.157   1.968  0.1719  0.1977  0.0048
 5405TIP3    H137850   0.287   5.103   1.890  2.4092  0.3362 -0.4605
 5405TIP3    H237851   0.390   5.148   1.991 -0.5339 -0.2980  2.9988
 5406TIP3   OH237852   5.289   5.609   2.165 -0.0857  0.1073  0.1255
 5406TIP3    H137853   5.352   5.549   2.126  1.1964  1.1870  0.4462
 5406TIP3    H237854   5.276   5.575   2.254  0.1173 -0.0665  0.0905
 5407TIP3   OH237855   5.183   6.227   1.541  0.3602  0.6256 -0.1578
 5407TIP3    H137856   5.101   6.236   1.492 -0.4091  0.2903  1.0180
 5407TIP3    H237857   5.160   6.172   1.615  1.0405  2.5821  1.5955
 5408TIP3   OH237858   2.426   0.636   4.440 -0.4782 -0.1284  0.2662
 5408TIP3    H137859   2.511   0.679   4.428  0.1761 -0.2824  3.5192
 5408TIP3    H237860   2.437   0.550   4.399  1.4941 -0.6845  1.7892
 5409TIP3   OH237861   5.482   0.811   2.170  0.2214 -0.0507  0.3435
 5409TIP3    H137862   5.394   0.847   2.161  0.3215 -0.0358 -0.7122
 5409TIP3    H237863   5.529   0.874   2.225  0.1803  1.0518 -0.8521
 5410TIP3   OH237864   1.464   3.373   3.160  0.7355 -0.6726  0.0211
 5410TIP3    H137865   1.489   3.380   3.252 -0.2682 -2.9814  0.5380
 5410TIP3    H237866   1.547   3.368   3.112  1.2681 -0.9607  0.9556
 5411TIP3   OH237867   3.145   1.667   1.515  0.0734 -0.0255 -0.5305
 5411TIP3    H137868   3.186   1.679   1.601  1.6442  0.9157 -1.3535
 5411TIP3    H237869   3.053   1.687   1.529 -0.0695 -1.6998  1.2950
 5412TIP3   OH237870   5.622   4.426   1.299 -0.4516  0.7878 -0.1602
 5412TIP3    H137871   5.707   4.460   1.271  0.3465 -1.3098 -0.4284
 5412TIP3    H237872   5.559   4.493   1.271  1.1118  2.5163  0.3064
 5413TIP3   OH237873   0.042   5.830   2.278 -0.8462  0.0065 -0.0837
 5413TIP3    H137874   0.042   5.923   2.300 -3.4514  0.1495 -0.4356
 5413TIP3    H237875  -0.014   5.823   2.201  0.8393 -1.6604 -1.2452
 5414TIP3   OH237876   5.701   4.341   4.566 -0.4681 -0.2057 -1.0596
 5414TIP3    H137877   5.789   4.351   4.601 -1.1562  0.6618  0.5363
 5414TIP3    H237878   5.705   4.261   4.513  0.9146 -1.0005  0.1677
 5415TIP3   OH237879   3.239   6.664   4.432 -0.3764  0.3681 -0.1918
 5415TIP3    H137880   3.195   6.594   4.383  0.3534  0.4482 -0.9814
 5415TIP3    H237881   3.326   6.671   4.392  0.1992  0.5275  1.0488
 5416TIP3   OH237882   6.249   0.472   4.527  0.1297  0.1514  0.1583
 5416TIP3    H137883   6.209   0.408   4.585 -0.2791 -0.0934 -0.3785
 5416TIP3    H237884   6.176   0.526   4.495  0.3082  0.1253 -0.3145
 5417TIP3   OH237885   0.487   2.185   1.877  0.0925  0.6544  1.1311
 5417TIP3    H137886   0.439   2.146   1.803 -0.1143  1.3291  0.9074
 5417TIP3    H237887   0.570   2.214   1.840  0.3557  0.1985  1.3544
 5418TIP3   OH237888   3.849   0.369   3.792 -0.3067  0.0754 -0.1441
 5418TIP3    H137889   3.831   0.457   3.826 -0.6876  0.2342 -0.7359
 5418TIP3    H237890   3.805   0.367   3.706 -1.1383 -1.0205  0.2824
 5419TIP3   OH237891   5.899   1.147   4.963 -0.1423  0.6713  0.1851
 5419TIP3    H137892   5.917   1.118   4.873  0.8665  1.7550  0.0035
 5419TIP3    H237893   5.818   1.197   4.956  0.0737  0.9774 -0.1886
 5420TIP3   OH237894   0.497   1.946   3.315  0.6879 -0.6259  0.0870
 5420TIP3    H137895   0.404   1.923   3.317  0.3238  0.5417 -1.2688
 5420TIP3    H237896   0.543   1.862   3.318 -0.3884 -1.2153  1.0001
 5421TIP3   OH237897   4.030   1.242   0.616 -0.1047 -0.0293  0.3944
 5421TIP3    H137898   3.983   1.255   0.534  2.5895  0.0506 -1.2890
 5421TIP3    H237899   4.034   1.147   0.628  1.0096 -0.1275 -0.5892
 5422TIP3   OH237900   3.827   4.421   2.645  0.6205  0.6822 -0.2875
 5422TIP3    H137901   3.822   4.330   2.617  0.9406  0.7471 -0.5603
 5422TIP3    H237902   3.894   4.422   2.713  0.1257  0.5948  0.2088
 5423TIP3   OH237903   6.755   3.364   4.902  0.2702  0.1958  0.5674
 5423TIP3    H137904   6.701   3.351   4.980  1.1803 -0.5624  1.0862
 5423TIP3    H237905   6.697   3.342   4.829 -0.7286  1.3289  0.9759
 5424TIP3   OH237906   4.442   1.686   2.841 -0.2585  0.3838  0.1179
 5424TIP3    H137907   4.459   1.779   2.828  0.1754  0.4192  0.8469
 5424TIP3    H237908   4.504   1.660   2.910  0.6420 -0.7882 -1.0941
 5425TIP3   OH237909   2.484   4.975   4.722 -0.0911  0.0065  0.0214
 5425TIP3    H137910   2.408   4.940   4.769  0.5961  0.5826  1.6249
 5425TIP3    H237911   2.547   4.997   4.791  2.4827 -2.4827 -1.3128
 5426TIP3   OH237912   1.964   4.154   3.127  0.0485  0.1318  0.5490
 5426TIP3    H137913   1.896   4.088   3.118  1.3058 -1.4310  1.9504
 5426TIP3    H237914   2.026   4.117   3.190  1.6949  1.9084  0.0815
 5427TIP3   OH237915   5.733   5.864   3.308  0.2425 -0.7762  0.6807
 5427TIP3    H137916   5.733   5.934   3.372  1.2764 -1.9737  2.0403
 5427TIP3    H237917   5.736   5.783   3.359 -1.9558 -1.9207 -0.7747
 5428TIP3   OH237918   1.013   6.278   2.380 -0.3067 -0.4345 -0.5745
 5428TIP3    H137919   1.070   6.338   2.428  0.0261 -0.7032 -0.6297
 5428TIP3    H237920   0.960   6.236   2.448  0.4761 -1.1409 -0.3957
 5429TIP3   OH237921   0.450   0.798   5.060  0.1313 -0.2494  0.4712
 5429TIP3    H137922   0.415   0.770   5.144  2.9244 -0.1166  1.8013
 5429TIP3    H237923   0.518   0.734   5.040  1.4184  1.2835 -0.2744
 5430TIP3   OH237924   3.228   2.518   1.574  0.0271 -0.1205 -0.1330
 5430TIP3    H137925   3.291   2.498   1.643  0.0584 -1.7395 -0.5996
 5430TIP3    H237926   3.144   2.526   1.621 -0.1305 -2.1917  0.0360
 5431TIP3   OH237927   2.689   3.075   2.114  0.4610 -0.1769  0.4711
 5431TIP3    H137928   2.724   2.992   2.082 -0.8396 -0.6614  0.2578
 5431TIP3    H237929   2.643   3.113   2.039 -0.6279 -0.2177  1.0899
 5432TIP3   OH237930   4.025   1.743   3.014 -0.1656 -0.1541 -0.2599
 5432TIP3    H137931   4.086   1.809   2.982  0.6447 -0.5996  0.3484
 5432TIP3    H237932   4.037   1.744   3.109 -1.3686  0.0123 -0.0902
 5433TIP3   OH237933   3.086   0.910   3.075 -0.1906 -0.2940  0.3349
 5433TIP3    H137934   3.140   0.843   3.118 -0.8944 -0.0187  1.6933
 5433TIP3    H237935   3.089   0.985   3.133 -1.0508  0.1569 -0.1802
 5434TIP3   OH237936   6.042   1.497   1.428 -0.5381  0.1608 -0.7320
 5434TIP3    H137937   6.088   1.548   1.361 -2.1459  0.2979 -1.7641
 5434TIP3    H237938   5.950   1.518   1.416 -0.8127  0.9885  2.2288
 5435TIP3   OH237939   2.250   1.554   2.056  0.1450  0.3351 -0.0361
 5435TIP3    H137940   2.177   1.615   2.066  0.2102  0.3363  0.4711
 5435TIP3    H237941   2.328   1.608   2.069  0.1800 -0.1270  2.1426
 5436TIP3   OH237942   4.111   1.079   0.993 -0.0654  0.2997  0.2470
 5436TIP3    H137943   4.098   1.099   1.086 -0.6548  0.2943  0.1711
 5436TIP3    H237944   4.204   1.093   0.978  0.2860 -0.9386  1.1297
 5437TIP3   OH237945   6.187   0.279   1.728  0.0588 -0.0828  0.4440
 5437TIP3    H137946   6.258   0.325   1.772 -0.9361  1.4321  0.5550
 5437TIP3    H237947   6.127   0.254   1.798 -0.4055  0.3042  0.1967
 5438TIP3   OH237948   1.747   4.119   4.003 -0.3258 -0.5210  0.3514
 5438TIP3    H137949   1.771   4.157   4.088  0.1496 -0.5726  0.2427
 5438TIP3    H237950   1.789   4.033   4.002 -0.2890 -0.5010  0.0474
 5439TIP3   OH237951   3.618   0.997   4.367  0.1639  0.1525  0.1922
 5439TIP3    H137952   3.657   0.996   4.279  0.6412  0.0412  0.4018
 5439TIP3    H237953   3.562   0.919   4.369  1.4655 -0.8023  0.5605
 5440TIP3   OH237954   1.917   1.040   4.799 -0.0897 -0.4584  0.4338
 5440TIP3    H137955   1.950   0.979   4.733  0.1982  0.5184 -0.3736
 5440TIP3    H237956   1.996   1.072   4.843  0.2067  1.9987 -1.6035
 5441TIP3   OH237957   3.933   3.708   3.889 -0.2822 -0.3650  0.2294
 5441TIP3    H137958   3.980   3.650   3.949  1.4514 -0.9605 -1.5712
 5441TIP3    H237959   3.919   3.788   3.939  3.0871  0.0113  0.8561
 5442TIP3   OH237960   3.249   0.102   3.085 -0.3714  0.1659  0.1806
 5442TIP3    H137961   3.338   0.116   3.118  0.3834 -1.4949 -1.0387
 5442TIP3    H237962   3.193   0.143   3.151  1.3084  2.9346  0.0646
 5443TIP3   OH237963   4.441   2.907   0.696  0.5522  0.0664 -0.1819
 5443TIP3    H137964   4.404   2.946   0.616 -1.0701  1.4771  1.1704
 5443TIP3    H237965   4.509   2.968   0.723 -0.0016  0.4604  0.3559
 5444TIP3   OH237966   0.441   1.952   2.032  0.1913  0.0324 -0.2583
 5444TIP3    H137967   0.449   2.034   1.983  2.0731 -0.2432 -0.4824
 5444TIP3    H237968   0.475   1.885   1.973 -1.1916 -0.9301 -0.0262
 5445TIP3   OH237969   6.589   0.463   2.728  0.8817  0.4534  0.0867
 5445TIP3    H137970   6.572   0.467   2.822 -0.1274 -1.7514  0.0566
 5445TIP3    H237971   6.503   0.473   2.687  1.0711 -0.2868 -0.5190
 5446TIP3   OH237972   5.367   0.283   1.050 -0.1861  0.8790 -0.1323
 5446TIP3    H137973   5.325   0.357   1.005  0.1111  0.6531 -0.8055
 5446TIP3    H237974   5.374   0.216   0.982 -0.5159  0.2063  0.4882
 5447TIP3   OH237975   6.564   3.256   1.410 -0.3660 -0.7059  0.5454
 5447TIP3    H137976   6.595   3.346   1.419 -0.9966 -0.2295 -1.4764
 5447TIP3    H237977   6.632   3.203   1.453  0.1631  0.7004  1.4989
 5448TIP3   OH237978   2.272   6.464   3.778 -0.3383 -0.5921 -0.3169
 5448TIP3    H137979   2.331   6.539   3.784 -0.3358 -0.6953  1.5013
 5448TIP3    H237980   2.297   6.407   3.851 -2.3502 -0.8761  0.2217
 5449TIP3   OH237981   5.926   1.194   3.029  0.7462  0.1799  0.0691
 5449TIP3    H137982   5.870   1.271   3.041  1.0930  0.4895 -0.2720
 5449TIP3    H237983   5.868   1.128   2.991  0.2405 -0.0100  1.1341
 5450TIP3   OH237984   1.890   1.596   4.803 -0.4903 -0.8012 -0.0466
 5450TIP3    H137985   1.802   1.575   4.771 -1.1361  0.2079  0.9602
 5450TIP3    H237986   1.910   1.681   4.764 -0.7087 -0.2171  1.0579
 5451TIP3   OH237987   5.380   6.163   4.801  0.6182  0.5250 -0.7500
 5451TIP3    H137988   5.379   6.206   4.886  4.8864 -0.8075  0.2076
 5451TIP3    H237989   5.340   6.077   4.817  0.0510  0.8344 -0.4867
 5452TIP3   OH237990   5.437   5.086   0.608 -0.6142 -0.4888 -0.2414
 5452TIP3    H137991   5.519   5.060   0.651  0.4665  1.4758 -1.0300
 5452TIP3    H237992   5.374   5.089   0.680 -0.1039 -2.3030  0.3442
 5453TIP3   OH237993   0.184   3.156   5.342 -0.3927  0.2362 -0.2895
 5453TIP3    H137994   0.248   3.118   5.282 -0.7293 -0.4826 -0.2009
 5453TIP3    H237995   0.130   3.082   5.370 -0.6876  0.6838  0.3452
 5454TIP3   OH237996   5.225   1.703   1.310  0.6846  0.2831  0.3518
 5454TIP3    H137997   5.227   1.795   1.282 -1.6114 -0.5044 -2.9717
 5454TIP3    H237998   5.146   1.667   1.269  0.7189 -2.8733  2.7036
 5455TIP3   OH237999   4.973   3.203   2.424  0.4114  0.4533  0.1862
 5455TIP3    H138000   5.040   3.135   2.425 -0.7526 -0.7899 -0.8758
 5455TIP3    H238001   4.954   3.220   2.516  0.1390 -1.3059  0.4834
 5456TIP3   OH238002   0.080   1.488   3.816 -0.1743  0.3088  0.0577
 5456TIP3    H138003   0.100   1.492   3.910  1.9773 -0.9168 -0.2868
 5456TIP3    H238004   0.020   1.415   3.807 -0.4945  0.5155  0.4975
 5457TIP3   OH238005   3.917   1.384   1.161  0.3823 -0.3509  0.2954
 5457TIP3    H138006   3.888   1.298   1.191  1.0988 -0.5854  0.3543
 5457TIP3    H238007   3.889   1.389   1.070 -0.4121 -0.2939  0.5417
 5458TIP3   OH238008   4.844   3.373   1.926 -0.5850  0.6795  0.2163
 5458TIP3    H138009   4.801   3.313   1.866  0.8673  0.7707 -0.9607
 5458TIP3    H238010   4.806   3.352   2.012 -2.3103  0.1948 -0.6235
 5459TIP3   OH238011   3.460   6.193   0.127  0.6032 -0.3086  0.0285
 5459TIP3    H138012   3.417   6.107   0.123 -0.5742  0.2706 -0.4150
 5459TIP3    H238013   3.551   6.176   0.103  0.6776 -1.6052  1.1489
 5460TIP3   OH238014   3.460   6.750   4.233 -0.2266  0.6012  0.1996
 5460TIP3    H138015   3.512   6.813   4.282 -0.4689  2.0216 -1.2645
 5460TIP3    H238016   3.523   6.684   4.203  0.3977  1.2425  0.0741
 5461TIP3   OH238017   0.463   1.333   2.414 -0.3738  0.0076  0.3374
 5461TIP3    H138018   0.447   1.262   2.476  0.5651  1.0420  1.8171
 5461TIP3    H238019   0.376   1.366   2.392 -0.7066 -0.0898  1.4623
 5462TIP3   OH238020   4.775   0.575   1.983 -0.3105  0.2464 -1.0141
 5462TIP3    H138021   4.844   0.611   1.927 -1.6142 -0.5369 -3.2875
 5462TIP3    H238022   4.722   0.650   2.007 -0.3800  0.4756 -1.8341
 5463TIP3   OH238023   3.334   4.795   1.646  0.1544 -0.5037  0.2190
 5463TIP3    H138024   3.261   4.855   1.631  1.4692  1.4057  1.0436
 5463TIP3    H238025   3.293   4.711   1.665 -1.7678  0.0869 -1.0207
 5464TIP3   OH238026   2.532   0.186   1.148 -0.6567 -0.0411  0.5782
 5464TIP3    H138027   2.582   0.220   1.222 -2.6692  1.0255  1.5469
 5464TIP3    H238028   2.516   0.094   1.170 -0.5417  0.0536  1.0718
 5465TIP3   OH238029   3.960   4.078   5.605  0.2088 -0.1158  0.2993
 5465TIP3    H138030   3.915   4.060   5.523 -0.5847  1.1320  0.4235
 5465TIP3    H238031   3.914   4.025   5.670 -0.7127  0.6848  0.3205
 5466TIP3   OH238032   4.165   5.628   3.778 -0.1966 -0.5281 -0.2703
 5466TIP3    H138033   4.173   5.536   3.751  2.4191 -0.1083 -1.2365
 5466TIP3    H238034   4.231   5.674   3.725  0.1536  1.5303  1.8153
 5467TIP3   OH238035   1.200   1.937   0.814  0.1737  0.0644  0.1266
 5467TIP3    H138036   1.197   1.905   0.723  1.6201 -0.6542  0.3004
 5467TIP3    H238037   1.189   1.858   0.867  1.1367  0.2124  0.5638
 5468TIP3   OH238038   6.242   3.047   4.293 -0.4963 -0.1174 -0.0872
 5468TIP3    H138039   6.294   3.090   4.361  0.9119 -1.4508 -0.2373
 5468TIP3    H238040   6.259   3.098   4.214 -1.0124  0.6201  0.2739
 5469TIP3   OH238041   2.019   3.212   0.572 -0.2162 -0.3284  0.7083
 5469TIP3    H138042   2.100   3.192   0.525 -2.0272 -1.1822 -2.2987
 5469TIP3    H238043   2.012   3.308   0.570  2.2451  0.1067  4.0344
 5470TIP3   OH238044   0.161   4.184   1.103  0.1088 -0.4982 -0.3300
 5470TIP3    H138045   0.189   4.136   1.180  1.1315  0.8532  0.1785
 5470TIP3    H238046   0.241   4.221   1.066 -0.5169 -0.0127 -1.2576
 5471TIP3   OH238047   0.063   0.105   3.401 -0.4394 -0.5337  0.1545
 5471TIP3    H138048   0.100   0.067   3.480 -2.1566 -2.3936  0.1557
 5471TIP3    H238049  -0.012   0.156   3.430 -0.2727 -0.0885 -0.1730
 5472TIP3   OH238050   0.095   0.490   5.147 -0.1005 -0.9622  0.8124
 5472TIP3    H138051   0.083   0.400   5.177  0.9401 -0.8132  1.7334
 5472TIP3    H238052   0.159   0.527   5.208  2.1034 -0.6225 -1.5493
 5473TIP3   OH238053   3.238   6.206   0.461 -0.9157  0.0635 -0.5242
 5473TIP3    H138054   3.250   6.253   0.378  1.1068  0.4207 -0.0848
 5473TIP3    H238055   3.294   6.253   0.523  0.0473 -2.0482  0.2921
 5474TIP3   OH238056   1.324   1.784   3.582 -0.4825  0.0603  0.4847
 5474TIP3    H138057   1.234   1.795   3.614 -0.5438 -0.0834  0.3628
 5474TIP3    H238058   1.356   1.706   3.629 -0.5527 -0.1164  0.2384
 5475TIP3   OH238059   4.338   0.951   2.597  0.0474 -0.0886  0.1286
 5475TIP3    H138060   4.369   1.006   2.669  1.8673  1.1610 -1.5154
 5475TIP3    H238061   4.385   0.868   2.607  1.5252  0.6460 -0.4764
 5476TIP3   OH238062   6.447   3.657   0.714  0.0581 -0.2888  0.0553
 5476TIP3    H138063   6.402   3.573   0.720 -0.8440  0.1357 -0.4906
 5476TIP3    H238064   6.397   3.716   0.770  0.7703 -0.1328  0.5507
 5477TIP3   OH238065   6.679   4.827   1.026 -0.0220 -0.0907  0.0478
 5477TIP3    H138066   6.763   4.787   1.006 -0.9567 -1.1449 -2.0931
 5477TIP3    H238067   6.617   4.754   1.029 -1.0103  0.7454  0.7579
 5478TIP3   OH238068   3.844   2.558   2.862 -0.7068 -0.0308  1.0822
 5478TIP3    H138069   3.850   2.608   2.944 -1.1021  1.6486  0.1241
 5478TIP3    H238070   3.926   2.509   2.859  0.4536  1.7960  1.3021
 5479TIP3   OH238071   3.018   5.024   3.641 -0.8218  0.1098  0.3052
 5479TIP3    H138072   3.002   5.090   3.573 -3.1160  0.1699  0.8148
 5479TIP3    H238073   3.094   4.975   3.610 -0.2571  1.7437 -1.0446
 5480TIP3   OH238074   1.528   2.708   2.717 -0.1156 -0.2670 -0.5766
 5480TIP3    H138075   1.608   2.755   2.739  0.8298 -0.8927 -2.5074
 5480TIP3    H238076   1.550   2.615   2.730 -0.2221 -0.4998 -1.9656
 5481TIP3   OH238077   6.029   3.886   3.316  0.1806 -0.2254  0.1416
 5481TIP3    H138078   5.971   3.839   3.255 -1.0937  0.9854  0.3954
 5481TIP3    H238079   6.006   3.978   3.305  0.1901  0.0513  2.2040
 5482TIP3   OH238080   5.418   2.949   3.016  0.1515 -0.1970 -0.2514
 5482TIP3    H138081   5.399   2.893   2.941  1.0288  0.7978 -1.2562
 5482TIP3    H238082   5.345   2.935   3.076 -1.9015  0.8099 -2.3661
 5483TIP3   OH238083   3.521   4.909   3.205  0.2195 -0.3859  0.8160
 5483TIP3    H138084   3.555   4.828   3.244 -1.3166 -1.1540  0.6289
 5483TIP3    H238085   3.446   4.932   3.260  0.6634  0.9597  0.8916
 5484TIP3   OH238086   2.884   6.669   3.904  0.0367  0.2276  0.1681
 5484TIP3    H138087   2.936   6.590   3.916 -0.8322 -0.3003  0.5689
 5484TIP3    H238088   2.946   6.734   3.870  1.2908  0.0271  1.9146
 5485TIP3   OH238089   6.569   4.284   2.615  0.0425  0.1297  0.0897
 5485TIP3    H138090   6.511   4.217   2.652  2.0554 -1.8976 -0.1728
 5485TIP3    H238091   6.567   4.355   2.679  0.1241 -1.4639  1.9953
 5486TIP3   OH238092   2.601   5.706   3.103  0.7226 -0.0207 -0.1821
 5486TIP3    H138093   2.567   5.621   3.075  0.7744 -0.5110  1.1651
 5486TIP3    H238094   2.695   5.699   3.092  0.6402  0.2781 -1.1359
 5487TIP3   OH238095   5.549   3.698   2.296  0.1560  0.8390  0.0638
 5487TIP3    H138096   5.507   3.662   2.375  0.8321 -0.5550 -0.1867
 5487TIP3    H238097   5.630   3.737   2.327  0.6991 -0.2136  0.0051
 5488TIP3   OH238098   6.379   6.079   0.611  0.0742  0.1253 -0.7871
 5488TIP3    H138099   6.313   6.023   0.570 -0.3574 -0.3773  0.5648
 5488TIP3    H238100   6.453   6.020   0.628 -0.8763 -0.4168  1.8517
 5489TIP3   OH238101   1.549   3.520   2.751 -0.2236  0.0562 -0.1836
 5489TIP3    H138102   1.642   3.538   2.742 -0.0205 -1.0354 -0.4186
 5489TIP3    H238103   1.535   3.440   2.700 -1.5183  0.8395 -1.1145
 5490TIP3   OH238104   0.536   2.682   4.833 -0.0721  0.1608  0.2817
 5490TIP3    H138105   0.509   2.752   4.893  0.2645 -0.2987  0.9875
 5490TIP3    H238106   0.495   2.604   4.869 -0.2478 -0.0490 -0.3682
 5491TIP3   OH238107   5.058   1.761   5.028  0.5429 -0.1741  0.0316
 5491TIP3    H138108   5.010   1.723   4.954  1.6410 -0.9598 -0.2945
 5491TIP3    H238109   5.120   1.693   5.054  2.9300  1.5511 -0.8699
 5492TIP3   OH238110   0.895   6.178   2.592  0.1960  0.3626 -0.4449
 5492TIP3    H138111   0.876   6.086   2.612 -0.5506  0.7958  0.9409
 5492TIP3    H238112   0.818   6.226   2.620  1.2307  1.6003  0.3965
 5493TIP3   OH238113   0.400   1.579   1.383 -0.3926 -0.2037 -0.4596
 5493TIP3    H138114   0.360   1.657   1.421 -0.0314  0.2045 -0.8988
 5493TIP3    H238115   0.409   1.600   1.290  2.3143  0.3646 -0.1276
 5494TIP3   OH238116   1.058   3.241   4.327  0.5913 -0.0916  0.2710
 5494TIP3    H138117   0.994   3.288   4.273  1.6410  1.5605  0.4253
 5494TIP3    H238118   1.092   3.173   4.268  1.2194  1.2487 -0.9847
 5495TIP3   OH238119   1.133   2.210   2.862  0.4376 -0.5494  0.3424
 5495TIP3    H138120   1.081   2.205   2.781 -0.4098  0.8259  0.7716
 5495TIP3    H238121   1.190   2.133   2.858  1.1795  0.0182 -2.0824
 5496TIP3   OH238122   2.129   0.296   1.837  0.0066  0.2429 -0.0002
 5496TIP3    H138123   2.069   0.341   1.898 -0.9803  0.8336 -1.3628
 5496TIP3    H238124   2.086   0.214   1.816 -0.6604  0.9444 -1.4721
 5497TIP3   OH238125   1.755   1.859   3.333  0.2253 -0.4010  0.2033
 5497TIP3    H138126   1.833   1.888   3.285  0.7947 -2.4779 -0.2293
 5497TIP3    H238127   1.744   1.767   3.307 -1.1380 -0.7490  1.8654
 5498TIP3   OH238128   1.445   2.030   1.917  0.0464  0.0400 -0.6606
 5498TIP3    H138129   1.350   2.026   1.906  0.1953 -1.9100 -1.7982
 5498TIP3    H238130   1.458   2.040   2.011 -1.2846 -0.5686 -0.3809
 5499TIP3   OH238131   2.935   0.326   1.498 -0.3848 -0.0847  0.8177
 5499TIP3    H138132   3.004   0.352   1.438 -2.1773 -2.2623 -2.4489
 5499TIP3    H238133   2.891   0.409   1.521 -1.4505  0.7476 -3.4001
 5500TIP3   OH238134   5.681   1.382   3.700  1.0220  0.5028 -0.4864
 5500TIP3    H138135   5.586   1.383   3.709  1.0594  2.8875  0.2433
 5500TIP3    H238136   5.700   1.447   3.632  2.1898  1.3041  0.5525
 5501TIP3   OH238137   2.812   1.374   3.963 -0.0243  0.6153 -0.4608
 5501TIP3    H138138   2.836   1.466   3.972 -0.4728  0.6059  0.9902
 5501TIP3    H238139   2.860   1.330   4.033 -0.7823 -0.0684 -0.3656
 5502TIP3   OH238140   1.702   0.686   3.039 -0.4348 -0.1057  0.1711
 5502TIP3    H138141   1.616   0.652   3.014 -0.3625 -0.4076  0.3248
 5502TIP3    H238142   1.756   0.675   2.961  0.0801 -2.0198  0.7379
 5503TIP3   OH238143   1.328   4.402   4.849  0.5040 -0.7828 -0.1106
 5503TIP3    H138144   1.232   4.404   4.849  0.5026 -0.5325  0.2122
 5503TIP3    H238145   1.352   4.468   4.915  0.8855 -1.2719  0.2435
 5504TIP3   OH238146   0.874   5.049   3.927  0.0352 -0.1704  0.1469
 5504TIP3    H138147   0.831   4.978   3.975 -0.3438  0.3154  0.5356
 5504TIP3    H238148   0.818   5.125   3.942  0.4719  0.2255 -0.2188
 5505TIP3   OH238149   0.467   2.085   1.005 -0.2178  0.2246 -0.5064
 5505TIP3    H138150   0.563   2.084   1.006 -0.1906  0.9035 -1.1787
 5505TIP3    H238151   0.445   2.178   0.998 -0.9202  0.0525 -0.6257
 5506TIP3   OH238152   2.865   3.519   2.514 -0.1149 -0.5542  0.4016
 5506TIP3    H138153   2.858   3.499   2.421  0.0032 -0.1410  0.3022
 5506TIP3    H238154   2.786   3.569   2.534  0.8007  1.1119  0.0552
 5507TIP3   OH238155   0.869   4.222   1.046 -0.2750  0.4428  0.0983
 5507TIP3    H138156   0.774   4.237   1.037 -0.5030 -0.7854  0.3404
 5507TIP3    H238157   0.908   4.308   1.029 -1.3347  0.6335 -1.6372
 5508TIP3   OH238158   1.922   6.529   2.074  0.0188 -0.4162 -0.7032
 5508TIP3    H138159   1.917   6.479   2.156  0.2189  0.1200 -0.3550
 5508TIP3    H238160   1.894   6.617   2.099  0.5255 -0.1355 -1.1159
 5509TIP3   OH238161   5.663   5.716   1.223 -0.7451 -0.0163 -0.1808
 5509TIP3    H138162   5.756   5.730   1.202 -0.7619  0.0457 -0.2111
 5509TIP3    H238163   5.616   5.770   1.160 -0.8193 -0.5488 -0.5976
 5510TIP3   OH238164   1.368   4.379   3.283  0.3588 -0.5171 -0.4988
 5510TIP3    H138165   1.284   4.425   3.279  0.4232 -0.4877 -2.3221
 5510TIP3    H238166   1.398   4.392   3.373 -2.4795 -2.2258  0.8294
 5511TIP3   OH238167   1.298   5.896   3.399 -0.1804  0.2326  0.1642
 5511TIP3    H138168   1.223   5.882   3.457 -0.1996  0.0945  0.1065
 5511TIP3    H238169   1.320   5.809   3.367  1.5610 -0.1010  2.0955
 5512TIP3   OH238170   6.069   4.770   1.507  0.0222 -0.4963  0.3781
 5512TIP3    H138171   6.094   4.796   1.595 -0.3106 -0.3973  0.4465
 5512TIP3    H238172   5.974   4.786   1.503  0.5223  3.0580 -1.1993
 5513TIP3   OH238173   4.850   6.223   3.375 -0.6952 -0.1937 -0.3644
 5513TIP3    H138174   4.787   6.291   3.350 -0.0119  0.8725  0.7296
 5513TIP3    H238175   4.844   6.218   3.470  1.8566  0.9413 -0.0678
 5514TIP3   OH238176   4.702   3.294   4.689  0.2372  0.4482  0.1132
 5514TIP3    H138177   4.749   3.373   4.663  2.7249 -0.3307  1.8700
 5514TIP3    H238178   4.743   3.268   4.771 -2.0571 -1.4281  0.7832
 5515TIP3   OH238179   5.067   5.716   2.772 -0.2287 -0.1374  0.0078
 5515TIP3    H138180   4.982   5.701   2.812 -0.6097  1.7796  0.0175
 5515TIP3    H238181   5.114   5.771   2.835  1.0288 -1.1432 -0.0031
 5516TIP3   OH238182   4.215   5.382   3.648  0.0734 -0.3781 -0.0051
 5516TIP3    H138183   4.160   5.329   3.590 -0.2997 -0.4155  0.3731
 5516TIP3    H238184   4.251   5.319   3.710 -1.4293 -0.0420  1.2778
 5517TIP3   OH238185   5.006   0.920   2.486  0.1810  0.1373  0.1466
 5517TIP3    H138186   5.013   0.851   2.553  2.1569  0.2779  0.1176
 5517TIP3    H238187   5.096   0.937   2.460 -0.5385  0.0152 -2.6685
 5518TIP3   OH238188   5.463   5.357   2.133  0.1693 -0.8867 -0.4181
 5518TIP3    H138189   5.418   5.284   2.090 -0.3081 -0.1172 -1.2781
 5518TIP3    H238190   5.550   5.359   2.092 -0.8736  0.9484 -2.7676
 5519TIP3   OH238191   0.699   0.991   5.311 -0.3584 -0.4324 -0.4651
 5519TIP3    H138192   0.767   0.993   5.379 -2.1869 -0.8725  1.4809
 5519TIP3    H238193   0.746   0.967   5.231  1.5104 -2.7177  1.1652
 5520TIP3   OH238194   2.045   4.851   2.107 -0.2722  0.3017  0.0502
 5520TIP3    H138195   2.036   4.901   2.026 -0.8800 -1.5259 -1.0694
 5520TIP3    H238196   2.132   4.811   2.102  0.3466  1.4346  1.0932
 5521TIP3   OH238197   5.013   0.753   4.895 -0.6311  0.0200  0.4144
 5521TIP3    H138198   5.079   0.819   4.877 -0.4114 -0.5670 -1.0331
 5521TIP3    H238199   5.049   0.702   4.968  0.3213 -0.0423 -0.0922
 5522TIP3   OH238200   5.045   5.636   3.105 -0.0727  0.1594  0.0404
 5522TIP3    H138201   5.010   5.558   3.063 -0.9739 -0.1422  1.3014
 5522TIP3    H238202   5.120   5.605   3.156 -0.6230  0.0633  0.7917
 5523TIP3   OH238203   0.704   3.881   0.797 -0.0528 -0.0342  0.2236
 5523TIP3    H138204   0.780   3.878   0.738 -0.6477 -2.6066 -0.5340
 5523TIP3    H238205   0.642   3.937   0.752  1.1102  1.5804  0.5414
 5524TIP3   OH238206   6.091   6.588   3.612  0.0734  0.4994  0.3906
 5524TIP3    H138207   6.095   6.617   3.521  0.2045 -0.3456  0.1130
 5524TIP3    H238208   6.098   6.493   3.606 -0.0309  0.4320  1.2809
 5525TIP3   OH238209   3.950   2.505   4.518  0.5430  0.1852 -0.2387
 5525TIP3    H138210   3.947   2.518   4.423  1.3207  0.7006 -0.2062
 5525TIP3    H238211   3.861   2.481   4.542 -0.1136  1.8841 -0.8372
 5526TIP3   OH238212   1.510   0.416   2.484  0.3127  0.5569  0.5144
 5526TIP3    H138213   1.512   0.421   2.580  0.5506 -1.3109  0.6344
 5526TIP3    H238214   1.568   0.343   2.463 -1.5844 -0.6119 -0.9047
 5527TIP3   OH238215   2.596   2.829   4.231 -0.3107  0.4423 -0.1222
 5527TIP3    H138216   2.514   2.873   4.210  0.1067  1.7063  0.8090
 5527TIP3    H238217   2.664   2.895   4.215  0.2998  0.2875  1.6716
 5528TIP3   OH238218   5.599   5.875   4.183  0.0125 -0.7379 -0.3362
 5528TIP3    H138219   5.561   5.895   4.098  0.1436  0.9455 -0.0364
 5528TIP3    H238220   5.568   5.787   4.204 -2.2171 -0.1404 -0.9159
 5529TIP3   OH238221   4.648   3.661   2.175 -0.1140 -0.0343 -0.3622
 5529TIP3    H138222   4.619   3.619   2.256  0.6752 -0.2222 -0.1715
 5529TIP3    H238223   4.625   3.753   2.187  0.8794  0.1170  0.4967
 5530TIP3   OH238224   4.040   2.094   2.304  0.4294  0.0124 -0.0980
 5530TIP3    H138225   3.999   2.180   2.291  0.2245  0.3660  2.3810
 5530TIP3    H238226   4.134   2.112   2.303  0.3869  0.2767  0.4287
 5531TIP3   OH238227   4.238   2.094   3.202  0.4576 -0.0841 -0.3967
 5531TIP3    H138228   4.163   2.152   3.193  1.3373  0.8353 -2.5604
 5531TIP3    H238229   4.305   2.148   3.245  0.3396 -0.4270  0.2132
 5532TIP3   OH238230   4.234   3.861   0.805 -0.3081  0.2219 -0.7373
 5532TIP3    H138231   4.264   3.847   0.895 -1.9391 -1.1568 -0.3686
 5532TIP3    H238232   4.306   3.908   0.763  0.9771 -0.1507  0.9585
 5533TIP3   OH238233   1.401   5.160   4.051  0.6140  0.3344  0.1379
 5533TIP3    H138234   1.377   5.244   4.014 -0.0839  0.4249  0.7618
 5533TIP3    H238235   1.321   5.130   4.097  0.6395 -0.9549 -0.6051
 5534TIP3   OH238236   1.172   4.054   2.079  0.6261 -0.3674 -0.2444
 5534TIP3    H138237   1.244   3.991   2.083  0.8815 -0.0142  0.9872
 5534TIP3    H238238   1.118   4.035   2.156 -0.2280 -0.1688 -0.7744
 5535TIP3   OH238239   5.814   2.077   3.595 -0.3371 -0.0917  0.1819
 5535TIP3    H138240   5.808   2.165   3.632 -0.7160 -0.8396  2.0647
 5535TIP3    H238241   5.725   2.042   3.604  0.1703 -1.2239  1.0354
 5536TIP3   OH238242   4.192   0.104   1.814  0.1998 -0.2367 -0.8825
 5536TIP3    H138243   4.161   0.189   1.783  0.4616 -0.7382 -2.6431
 5536TIP3    H238244   4.284   0.118   1.834  0.1266  0.0013 -0.7096
 5537TIP3   OH238245   0.039   2.736   4.645 -0.0974 -0.1201 -0.2104
 5537TIP3    H138246  -0.029   2.762   4.708 -0.4554  1.5758 -1.2222
 5537TIP3    H238247   0.094   2.674   4.693 -1.3839 -0.2631  1.1752
 5538TIP3   OH238248   5.185   3.593   1.797 -0.2314 -0.3456 -0.0019
 5538TIP3    H138249   5.271   3.585   1.838  0.2265 -0.7104 -1.0026
 5538TIP3    H238250   5.128   3.537   1.850  0.6252 -1.8423 -0.6175
 5539TIP3   OH238251   1.876   4.039   1.475 -1.1354 -0.2459 -0.5772
 5539TIP3    H138252   1.936   3.990   1.419  1.5051  0.0238  1.7911
 5539TIP3    H238253   1.852   4.116   1.424 -1.0939 -1.3687 -2.3552
 5540TIP3   OH238254   0.802   2.244   2.983  0.5571 -0.5465 -0.2375
 5540TIP3    H138255   0.773   2.221   2.895 -0.0721  1.6339 -0.6646
 5540TIP3    H238256   0.722   2.266   3.030  1.0433  0.1160  0.3076
 5541TIP3   OH238257   0.643   3.173   3.480  0.3681 -0.4062 -0.0718
 5541TIP3    H138258   0.674   3.226   3.553 -2.5742  1.7472 -0.2113
 5541TIP3    H238259   0.722   3.130   3.446  2.4160  1.4348  2.0247
 5542TIP3   OH238260   0.907   3.324   2.963  0.0102  0.3168  0.2607
 5542TIP3    H138261   0.947   3.405   2.934  0.6740 -0.5076 -1.2373
 5542TIP3    H238262   0.919   3.324   3.058  3.0384  0.4197 -0.0151
 5543TIP3   OH238263   2.107   1.484   1.481  0.1691  0.4532 -0.2500
 5543TIP3    H138264   2.014   1.458   1.486  0.2258  0.4687  1.4264
 5543TIP3    H238265   2.154   1.401   1.485  0.2457  0.4808 -0.5636
 5544TIP3   OH238266   6.222   4.685   3.249 -0.2933 -0.1892 -0.5174
 5544TIP3    H138267   6.182   4.667   3.164  0.3945 -1.5735 -0.5646
 5544TIP3    H238268   6.228   4.600   3.292 -0.0253  0.3986  0.6553
 5545TIP3   OH238269   3.303   6.394   0.258  0.2095  0.3946 -0.0861
 5545TIP3    H138270   3.353   6.327   0.212 -1.2317  0.1617 -1.3854
 5545TIP3    H238271   3.358   6.473   0.254  0.0888  0.4319 -2.4043
 5546TIP3   OH238272   6.579   5.193   4.667 -0.0184  0.3542  0.6649
 5546TIP3    H138273   6.649   5.210   4.605 -1.3179  1.0110 -0.6837
 5546TIP3    H238274   6.578   5.269   4.725  1.2283 -0.2833  1.5718
 5547TIP3   OH238275   4.176   3.819   3.159 -0.6499 -0.2443 -0.0945
 5547TIP3    H138276   4.209   3.904   3.187 -1.0026 -0.1692  0.1043
 5547TIP3    H238277   4.252   3.761   3.161 -0.7629 -0.4173  1.7165
 5548TIP3   OH238278   6.708   3.417   2.380  0.1060  0.2860 -0.3120
 5548TIP3    H138279   6.673   3.373   2.457 -1.6831  0.5912 -0.8938
 5548TIP3    H238280   6.634   3.468   2.346  1.7641  2.9062 -0.2817
 5549TIP3   OH238281   2.723   1.783   1.988  0.1005  0.6350 -0.0809
 5549TIP3    H138282   2.715   1.807   2.081  1.3502 -0.0742  0.2325
 5549TIP3    H238283   2.785   1.711   1.988 -1.0100 -0.3571 -1.3401
 5550TIP3   OH238284   4.059   5.152   1.014  0.3071 -0.1677 -0.2060
 5550TIP3    H138285   4.097   5.092   1.078  2.6572  0.9114 -0.4998
 5550TIP3    H238286   4.103   5.132   0.932 -0.0824  0.8496 -0.6843
 5551TIP3   OH238287   1.467   5.590   3.496 -0.3764  0.0998  0.1950
 5551TIP3    H138288   1.383   5.601   3.452  0.2820 -1.5993 -1.6616
 5551TIP3    H238289   1.449   5.536   3.572 -0.8767 -1.0389 -0.6962
 5552TIP3   OH238290   0.631   2.843   3.318  0.5245  0.0042 -0.3076
 5552TIP3    H138291   0.690   2.825   3.245  0.6580 -0.2813 -0.1314
 5552TIP3    H238292   0.686   2.888   3.383  1.0497 -1.8993  0.6433
 5553TIP3   OH238293   1.637   2.377   3.528 -0.9640 -0.6764  0.1223
 5553TIP3    H138294   1.672   2.325   3.600 -2.9819 -2.1850  0.0893
 5553TIP3    H238295   1.681   2.343   3.450  0.7649  0.5423  0.5019
 5554TIP3   OH238296   5.846   2.676   3.598  0.3742 -0.0319 -0.0227
 5554TIP3    H138297   5.913   2.675   3.529  0.2797 -0.1914 -0.1133
 5554TIP3    H238298   5.771   2.631   3.558  0.3471 -0.1946  0.2116
 5555TIP3   OH238299   0.391   0.307   2.022 -0.2441  0.2210  0.1681
 5555TIP3    H138300   0.357   0.245   1.956 -0.2948  1.3169 -0.8691
 5555TIP3    H238301   0.450   0.364   1.973  1.8795 -0.6125  1.6307
 5556TIP3   OH238302   1.594   4.951   0.661 -0.0260 -0.0161  0.5154
 5556TIP3    H138303   1.613   4.917   0.748  0.5473 -1.1572 -0.0276
 5556TIP3    H238304   1.667   5.009   0.640  0.5521 -0.8254  0.2527
 5557TIP3   OH238305   0.327   6.107   3.030 -0.3476  0.1243  0.5277
 5557TIP3    H138306   0.305   6.200   3.024 -1.0651  0.0477  1.7250
 5557TIP3    H238307   0.272   6.074   3.101 -0.6625 -1.3919 -0.3901
 5558TIP3   OH238308   0.888   1.865   0.796  0.4735 -0.1511  1.1332
 5558TIP3    H138309   0.968   1.918   0.805 -0.4315  1.0374  2.8426
 5558TIP3    H238310   0.900   1.818   0.714  1.9005  1.7888  0.1373
 5559TIP3   OH238311   4.936   0.413   3.346  0.4417 -0.7653 -0.0875
 5559TIP3    H138312   4.952   0.497   3.390  1.0985 -2.1874  2.6414
 5559TIP3    H238313   5.023   0.386   3.314  0.2838 -0.5608 -0.7004
 5560TIP3   OH238314   5.601   4.790   1.274 -0.4899 -0.2588  0.9298
 5560TIP3    H138315   5.593   4.871   1.223  2.5959 -1.1182 -1.2829
 5560TIP3    H238316   5.546   4.727   1.227  0.7438 -0.5242 -0.2424
 5561TIP3   OH238317   2.839   2.473   3.080 -0.4941  0.5570  0.6171
 5561TIP3    H138318   2.744   2.475   3.090 -0.3523  1.8456  1.9494
 5561TIP3    H238319   2.862   2.561   3.049  0.2946  0.3181  0.4854
 5562TIP3   OH238320   2.396   0.924   4.550 -0.3586 -0.4637  0.4660
 5562TIP3    H138321   2.457   0.856   4.519  0.6645 -0.8944  3.1009
 5562TIP3    H238322   2.316   0.908   4.502  1.0021 -1.1313 -1.7220
 5563TIP3   OH238323   2.929   5.480   1.723  0.3473 -0.0101 -0.0877
 5563TIP3    H138324   3.014   5.438   1.708  0.3503 -0.9022  1.9859
 5563TIP3    H238325   2.951   5.568   1.753  0.4312  0.5915 -1.8303
 5564TIP3   OH238326   2.656   4.936   4.533  0.2720  0.4097 -0.6415
 5564TIP3    H138327   2.595   4.978   4.593  0.7924  1.6554 -0.9486
 5564TIP3    H238328   2.661   4.845   4.563 -1.0015  0.5125 -0.0495
 5565TIP3   OH238329   0.129   4.798   2.551  0.2425  0.1695  0.6429
 5565TIP3    H138330   0.053   4.850   2.525  0.6100 -0.8199 -2.7874
 5565TIP3    H238331   0.103   4.708   2.537  1.1729 -0.3552  2.0740
 5566TIP3   OH238332   2.685   6.174   1.405 -0.0631  0.6162  0.1977
 5566TIP3    H138333   2.665   6.267   1.415  0.2588  0.8812 -1.3000
 5566TIP3    H238334   2.754   6.157   1.470  0.6183  1.6925 -0.2150
 5567TIP3   OH238335   2.885   6.540   3.401  0.1291  0.3495  0.1197
 5567TIP3    H138336   2.906   6.534   3.494 -3.0667  0.6394  0.9565
 5567TIP3    H238337   2.899   6.451   3.368  0.0473 -0.0689  1.1825
 5568TIP3   OH238338   3.697   3.351   1.685  0.6793 -0.2535 -0.5073
 5568TIP3    H138339   3.690   3.258   1.709  0.6074  0.4528  2.7438
 5568TIP3    H238340   3.788   3.361   1.656  0.5572 -1.4226 -1.3329
 5569TIP3   OH238341   0.799   1.224   5.073 -0.5268  0.1286 -0.0690
 5569TIP3    H138342   0.742   1.297   5.051  0.1017 -0.0579 -2.6660
 5569TIP3    H238343   0.762   1.149   5.027  1.5277 -0.0659 -1.5825
 5570TIP3   OH238344   5.161   4.938   2.515  0.7970  0.0307  0.0979
 5570TIP3    H138345   5.090   4.887   2.554  0.4968  0.9252  0.7736
 5570TIP3    H238346   5.122   5.024   2.496  0.7371 -0.5586 -2.9168
 5571TIP3   OH238347   5.573   4.557   2.003  0.0913  0.3465  0.2049
 5571TIP3    H138348   5.490   4.556   2.051 -0.9391  0.0467 -1.4895
 5571TIP3    H238349   5.557   4.618   1.930  0.7622 -0.9729 -1.0988
 5572TIP3   OH238350   3.816   0.600   3.936  0.2910 -0.1615  0.3823
 5572TIP3    H138351   3.802   0.605   4.030 -1.2908 -0.2300  0.1827
 5572TIP3    H238352   3.772   0.677   3.901  2.6321  1.0005 -0.1673
 5573TIP3   OH238353   0.861   1.671   3.549 -0.2055 -0.4754  0.0573
 5573TIP3    H138354   0.774   1.705   3.531 -0.3222 -1.4741 -1.4516
 5573TIP3    H238355   0.893   1.724   3.622 -1.7836  0.3740  0.1774
 5574TIP3   OH238356   6.203   5.429   1.012  0.4283  0.2787  0.5080
 5574TIP3    H138357   6.164   5.507   0.972  1.0433  0.0271 -0.6343
 5574TIP3    H238358   6.185   5.359   0.949  0.0472 -0.4762  1.4319
 5575TIP3   OH238359   2.015   1.193   2.841 -0.1559  0.3315  0.6271
 5575TIP3    H138360   1.926   1.217   2.867 -1.3130 -3.7426  1.1878
 5575TIP3    H238361   2.009   1.174   2.748  0.2580  0.6180  0.5427
 5576TIP3   OH238362   6.014   3.695   1.819 -0.2184 -0.4878  0.3886
 5576TIP3    H138363   6.012   3.769   1.759 -0.8178 -2.1961 -1.8456
 5576TIP3    H238364   6.101   3.658   1.809 -0.8524 -1.7719 -0.8183
 5577TIP3   OH238365   5.792   0.392   4.073  0.2627 -0.2466  0.3909
 5577TIP3    H138366   5.749   0.316   4.035 -0.0148  0.2427 -0.3045
 5577TIP3    H238367   5.868   0.356   4.119 -0.5361 -1.0545  1.1162
 5578TIP3   OH238368   3.382   4.608   1.150 -0.3567  0.3957  0.0461
 5578TIP3    H138369   3.356   4.699   1.140 -0.5165  0.4299  0.7176
 5578TIP3    H238370   3.369   4.569   1.064  1.1567  1.3638 -0.6514
 5579TIP3   OH238371   3.223   1.652   2.033 -0.2276 -0.1210 -0.2549
 5579TIP3    H138372   3.288   1.646   2.103  0.0102  1.2148 -0.3424
 5579TIP3    H238373   3.202   1.745   2.027 -2.9180 -0.5905  0.4549
 5580TIP3   OH238374   3.730   6.302   0.130  0.3404 -0.1410 -0.2032
 5580TIP3    H138375   3.759   6.257   0.209  0.8147  0.5588  0.0344
 5580TIP3    H238376   3.799   6.285   0.066  0.1287 -0.4179 -0.3565
 5581TIP3   OH238377   6.067   1.213   1.404  0.7383  0.4804  0.1177
 5581TIP3    H138378   6.022   1.167   1.333 -0.4629  0.2513  0.9874
 5581TIP3    H238379   6.068   1.305   1.377  0.2201  0.4052 -0.1644
 5582TIP3   OH238380   1.846   0.088   2.671 -0.3089 -0.1098 -0.0644
 5582TIP3    H138381   1.833   0.177   2.702  2.2716  0.1030  0.6721
 5582TIP3    H238382   1.882   0.041   2.746  1.9856 -0.7231 -1.4410
 5583TIP3   OH238383   0.139   2.125   2.695 -0.0807  0.1114  0.0408
 5583TIP3    H138384   0.109   2.054   2.638 -2.6285 -0.2027  1.6493
 5583TIP3    H238385   0.223   2.094   2.729 -0.5212 -1.5396 -0.2878
 5584TIP3   OH238386   2.620   1.570   4.679 -0.1691 -0.0118  0.8027
 5584TIP3    H138387   2.694   1.511   4.667 -0.3125  0.0720 -0.6109
 5584TIP3    H238388   2.659   1.657   4.683 -0.0693 -0.0839  1.6546
 5585TIP3   OH238389   4.890   4.827   1.036 -0.1177  0.3452  0.3518
 5585TIP3    H138390   4.908   4.734   1.039  0.9170  0.4980 -0.5889
 5585TIP3    H238391   4.923   4.856   0.951  1.3199  1.9211  1.3747
 5586TIP3   OH238392   4.521   4.862   1.671 -0.0917  0.6512  0.3301
 5586TIP3    H138393   4.613   4.884   1.689 -0.1872  0.3160  1.3073
 5586TIP3    H238394   4.478   4.947   1.663  0.0295  0.8362  1.4235
 5587TIP3   OH238395   0.627   5.272   1.633 -0.3887 -0.0425  0.4106
 5587TIP3    H138396   0.700   5.334   1.639  1.1098 -1.7509  0.6932
 5587TIP3    H238397   0.561   5.307   1.693  0.1325  1.6043  0.0678
 5588TIP3   OH238398   5.879   3.250   2.581 -0.2103 -0.5889  0.3523
 5588TIP3    H138399   5.969   3.270   2.554 -0.9275 -0.8943 -2.7205
 5588TIP3    H238400   5.845   3.334   2.612 -0.0265  0.6588 -2.4411
 5589TIP3   OH238401   4.906   0.136   2.665 -0.2073  0.2341 -0.1129
 5589TIP3    H138402   4.918   0.055   2.716  0.8796  0.7529  0.5032
 5589TIP3    H238403   4.974   0.132   2.598 -1.3711 -0.2471 -1.3017
 5590TIP3   OH238404   1.869   5.679   4.172 -0.0965  0.7108  0.0719
 5590TIP3    H138405   1.787   5.709   4.132  0.0627 -1.1024 -1.7944
 5590TIP3    H238406   1.937   5.725   4.122  0.0687 -0.5687 -0.9398
 5591TIP3   OH238407   3.305   6.615   1.501  0.1702  0.4642 -0.6485
 5591TIP3    H138408   3.298   6.711   1.507 -2.0529  0.3508 -0.4631
 5591TIP3    H238409   3.320   6.599   1.408  0.7374  0.9924 -0.6570
 5592TIP3   OH238410   1.219   6.394   4.375 -0.0191 -0.6552  0.1158
 5592TIP3    H138411   1.264   6.472   4.406  1.5044 -0.3800 -2.4531
 5592TIP3    H238412   1.161   6.425   4.305 -0.4532 -1.6282  0.0227
 5593TIP3   OH238413   3.025   6.609   4.608 -0.1864 -0.0044 -0.7714
 5593TIP3    H138414   3.080   6.651   4.542  1.0480 -0.4132 -0.0457
 5593TIP3    H238415   2.966   6.678   4.638  0.6693  0.7582 -0.8078
 5594TIP3   OH238416   2.899   3.952   3.645  0.1696 -0.1706 -0.8941
 5594TIP3    H138417   2.950   3.873   3.630 -0.5984 -0.9642  0.5167
 5594TIP3    H238418   2.907   3.969   3.739 -0.1345  1.1182 -1.0709
 5595TIP3   OH238419   1.522   0.664   4.060 -0.0408  0.1835 -0.1758
 5595TIP3    H138420   1.445   0.714   4.084 -0.3252 -0.5585  0.5021
 5595TIP3    H238421   1.575   0.724   4.008  0.4402  1.7805  2.0051
 5596TIP3   OH238422   2.863   3.085   1.554 -0.2502  0.3869  0.3843
 5596TIP3    H138423   2.941   3.047   1.513  0.5103  0.2784  1.8462
 5596TIP3    H238424   2.828   3.144   1.489  1.4070  0.8874 -0.1122
 5597TIP3   OH238425   0.982   0.483   4.828  0.3872  0.4219 -0.2839
 5597TIP3    H138426   0.991   0.563   4.777  1.6093  1.2141  1.0749
 5597TIP3    H238427   0.987   0.512   4.919  2.3470 -1.3178  0.2485
 5598TIP3   OH238428   5.323   5.428   3.504  0.2991 -0.3288  0.3049
 5598TIP3    H138429   5.342   5.421   3.598 -3.1352 -1.4265  1.0644
 5598TIP3    H238430   5.376   5.359   3.464  0.0886 -1.4029  1.7949
 5599TIP3   OH238431   0.589   5.485   0.252 -0.1897 -0.1400 -0.2651
 5599TIP3    H138432   0.540   5.528   0.323  0.6077 -0.1890  0.3317
 5599TIP3    H238433   0.524   5.472   0.183 -1.0409 -0.2485  0.5246
 5600TIP3   OH238434   1.565   3.390   2.382  0.3572 -0.1740 -0.0169
 5600TIP3    H138435   1.594   3.477   2.409  0.4227 -0.8524  2.3190
 5600TIP3    H238436   1.644   3.347   2.349  0.5789  0.2083  0.0109
 5601TIP3   OH238437   1.922   3.286   1.998 -0.0988 -0.3258  0.3596
 5601TIP3    H138438   1.856   3.345   2.033  1.0435  0.4496  1.3005
 5601TIP3    H238439   1.885   3.255   1.915 -1.4183  0.4479  0.6300
 5602TIP3   OH238440   2.038   2.300   2.539 -0.3481 -0.5883  0.0333
 5602TIP3    H138441   2.104   2.287   2.471 -0.9512 -0.6291 -0.5423
 5602TIP3    H238442   2.038   2.217   2.588  0.0783 -0.5611  0.0849
 5603TIP3   OH238443   2.612   3.897   1.625 -0.7538  0.6470 -0.3569
 5603TIP3    H138444   2.570   3.848   1.695 -2.3262  1.2873 -0.8100
 5603TIP3    H238445   2.573   3.984   1.630 -0.4795  0.8685 -1.6784
 5604TIP3   OH238446   2.741   2.111   3.846  0.1817  0.3560 -0.1013
 5604TIP3    H138447   2.656   2.092   3.887  0.5920 -0.1766  0.5171
 5604TIP3    H238448   2.794   2.148   3.916  0.3639  0.9856 -0.5656
 5605TIP3   OH238449   2.149   2.637   1.731  0.8734 -0.1903  0.4893
 5605TIP3    H138450   2.122   2.663   1.819 -0.2367 -1.7887  0.6489
 5605TIP3    H238451   2.166   2.543   1.737  1.2475 -0.2414 -0.8974
 5606TIP3   OH238452   5.636   3.897   3.869 -0.5537  0.0156 -0.1929
 5606TIP3    H138453   5.575   3.826   3.851 -0.9391  0.5033 -0.8594
 5606TIP3    H238454   5.722   3.860   3.847 -0.3539 -1.2507  2.3883
 5607TIP3   OH238455   4.335   0.538   5.354  0.4584  0.0502 -0.1848
 5607TIP3    H138456   4.423   0.510   5.380  0.2429 -0.2422  0.2544
 5607TIP3    H238457   4.278   0.467   5.385 -0.1584  1.1442  1.3198
 5608TIP3   OH238458   4.616   4.482   0.492  0.1145  0.2563  0.5128
 5608TIP3    H138459   4.522   4.487   0.508 -0.3405 -0.6099 -1.5266
 5608TIP3    H238460   4.628   4.400   0.445  1.8712  0.4347  0.5845
 5609TIP3   OH238461   3.781   3.504   2.272  0.4215  0.2345 -0.1773
 5609TIP3    H138462   3.847   3.544   2.328 -0.2525  0.5952  0.3695
 5609TIP3    H238463   3.816   3.417   2.252  1.5010  0.7737 -0.6797
 5610TIP3   OH238464   2.189   0.581   5.080 -0.4784 -0.2760  0.5717
 5610TIP3    H138465   2.275   0.622   5.088 -1.4470  1.7830  0.9408
 5610TIP3    H238466   2.206   0.488   5.095  1.9134 -0.1748 -0.9116
 5611TIP3   OH238467   4.314   3.879   0.291  0.2157  0.0886  0.3456
 5611TIP3    H138468   4.302   3.825   0.369 -0.5492  0.8636  0.7885
 5611TIP3    H238469   4.385   3.939   0.314  0.9908 -0.6392 -0.1060
 5612TIP3   OH238470   6.142   6.632   1.178  0.0724  0.2048 -0.0958
 5612TIP3    H138471   6.107   6.571   1.112 -0.7432 -1.9535  2.1547
 5612TIP3    H238472   6.233   6.646   1.151  0.1500 -1.6596 -1.0228
 5613TIP3   OH238473   4.337   5.694   1.908  0.3843 -0.3197 -0.6194
 5613TIP3    H138474   4.419   5.677   1.954  0.8307 -0.1548 -1.3300
 5613TIP3    H238475   4.359   5.764   1.846 -0.0550 -0.9149 -1.4658
 5614TIP3   OH238476   1.640   2.517   2.007 -0.3895  0.3234  0.0750
 5614TIP3    H138477   1.734   2.531   2.020 -0.2993 -0.3172  0.1475
 5614TIP3    H238478   1.632   2.424   1.985 -1.0059  0.3736  0.0573
 5615TIP3   OH238479   5.376   4.779   3.591 -0.4609  0.1487 -0.7859
 5615TIP3    H138480   5.317   4.721   3.639 -3.2141  0.5118 -3.3919
 5615TIP3    H238481   5.388   4.855   3.648  0.0766 -1.2502  1.0686
 5616TIP3   OH238482   6.093   3.827   1.229 -0.2869  0.5158 -0.1008
 5616TIP3    H138483   6.187   3.838   1.214 -0.3059  0.0996 -0.5657
 5616TIP3    H238484   6.087   3.762   1.299 -0.2291 -0.5697 -1.0641
 5617TIP3   OH238485   3.132   1.787   4.225 -0.2281 -0.0523 -0.3710
 5617TIP3    H138486   3.158   1.718   4.286 -1.9616  0.5258  1.1055
 5617TIP3    H238487   3.108   1.861   4.281 -1.6360  0.5932 -1.7622
 5618TIP3   OH238488   0.574   3.349   2.689  0.1646  0.3789  0.4906
 5618TIP3    H138489   0.649   3.298   2.658 -0.2172  0.1790 -0.1177
 5618TIP3    H238490   0.553   3.407   2.615 -0.3214  0.3836  0.6338
 5619TIP3   OH238491   2.853   5.881   3.540  0.3917  0.2699 -0.4760
 5619TIP3    H138492   2.926   5.935   3.570  1.3040 -1.6033  0.8909
 5619TIP3    H238493   2.835   5.822   3.613 -1.8388 -0.0196 -1.1730
 5620TIP3   OH238494   3.617   6.582   3.342 -0.2768 -0.1290 -0.0042
 5620TIP3    H138495   3.565   6.578   3.261  0.0891 -0.8746 -0.2122
 5620TIP3    H238496   3.702   6.614   3.313  0.3862 -1.9710 -0.2136
 5621TIP3   OH238497   5.075   2.738   1.159 -0.6093 -0.6397 -0.6642
 5621TIP3    H138498   5.151   2.772   1.112  0.6972 -1.1445  0.9880
 5621TIP3    H238499   5.049   2.660   1.109 -0.1729 -0.3430 -1.3608
 5622TIP3   OH238500   4.764   4.986   1.978  0.4775 -0.1694 -0.0475
 5622TIP3    H138501   4.838   4.989   1.918 -0.0547 -0.5980 -0.7457
 5622TIP3    H238502   4.693   5.030   1.931  0.2774  0.2008  0.5954
 5623TIP3   OH238503   6.746   2.226   2.248 -0.1277  0.0309 -0.1992
 5623TIP3    H138504   6.754   2.304   2.194  1.7819 -0.3288 -0.5145
 5623TIP3    H238505   6.836   2.203   2.271 -0.7953 -0.3461  2.4125
 5624TIP3   OH238506   3.205   3.480   1.911 -0.2667  0.2695  0.4662
 5624TIP3    H138507   3.237   3.534   1.839  2.1398 -0.5138  0.8410
 5624TIP3    H238508   3.133   3.429   1.873  0.6024  0.2422 -1.2538
 5625TIP3   OH238509   1.719   2.934   4.318 -0.3832  0.1489 -0.2000
 5625TIP3    H138510   1.675   2.873   4.377  0.3709 -0.5084 -0.2984
 5625TIP3    H238511   1.653   2.956   4.252 -2.2348  3.1501  2.3894
 5626TIP3   OH238512   4.834   4.104   2.155 -0.3714  0.4024  0.3481
 5626TIP3    H138513   4.928   4.089   2.146 -0.3766 -0.6389  1.7547
 5626TIP3    H238514   4.827   4.199   2.169  0.2979  0.7441 -1.4348
 5627TIP3   OH238515   5.450   1.239   4.392  0.2206  0.5732 -0.1078
 5627TIP3    H138516   5.487   1.154   4.366  0.6271  1.1311 -1.4619
 5627TIP3    H238517   5.371   1.248   4.338  0.0706  0.9627  0.1734
 5628TIP3   OH238518   5.483   3.717   3.723 -0.1114 -0.4903  0.2083
 5628TIP3    H138519   5.496   3.772   3.645 -0.5893 -0.2239  0.3143
 5628TIP3    H238520   5.411   3.659   3.701  0.0182 -0.6906  0.3075
 5629TIP3   OH238521   3.469   1.728   2.448 -0.0109  0.2407  0.1915
 5629TIP3    H138522   3.560   1.727   2.477 -0.6685 -1.1792  2.4839
 5629TIP3    H238523   3.449   1.638   2.425 -1.1150  0.3062  0.7918
 5630TIP3   OH238524   3.014   3.350   2.345  0.6211  0.2945  0.2504
 5630TIP3    H138525   3.073   3.331   2.418  1.3367 -0.0264 -0.3959
 5630TIP3    H238526   2.939   3.293   2.360  0.6410  0.4258  0.8805
 5631TIP3   OH238527   4.940   0.598   0.600  0.2390  0.4533 -0.0640
 5631TIP3    H138528   4.919   0.647   0.520  0.0771  1.2105  0.4410
 5631TIP3    H238529   5.035   0.610   0.610  0.9286 -2.3116 -1.9024
 5632TIP3   OH238530   1.836   2.115   0.914 -0.4538 -0.2393 -0.1131
 5632TIP3    H138531   1.769   2.064   0.868 -0.1266 -0.1428 -0.7077
 5632TIP3    H238532   1.917   2.068   0.897 -0.1503  0.4558 -0.6486
 5633TIP3   OH238533   2.303   0.426   2.543 -0.4270 -0.2805 -0.3207
 5633TIP3    H138534   2.219   0.445   2.584  0.4052  1.4446  0.6635
 5633TIP3    H238535   2.300   0.332   2.525 -1.1857 -0.9946  2.9246
 5634TIP3   OH238536   0.333   4.070   0.883 -0.2314  0.1254  0.0260
 5634TIP3    H138537   0.253   4.116   0.859 -0.4128  0.8777  1.8921
 5634TIP3    H238538   0.399   4.104   0.823 -0.7388  1.5766  0.2575
 5635TIP3   OH238539   0.117   1.895   0.919 -0.0527 -0.0048 -0.4287
 5635TIP3    H138540   0.194   1.905   0.863 -0.2970 -0.8693 -0.9392
 5635TIP3    H238541   0.055   1.961   0.887  0.1568  0.1203 -0.5768
 5636TIP3   OH238542   5.316   5.583   2.463  0.0307 -0.3909 -0.4584
 5636TIP3    H138543   5.320   5.607   2.555  0.0323 -0.5492 -0.4158
 5636TIP3    H238544   5.367   5.502   2.458 -1.9155 -1.7014 -0.1605
 5637TIP3   OH238545   5.049   4.208   5.642  0.0926 -0.0864 -0.3248
 5637TIP3    H138546   5.112   4.197   5.713  0.7673  1.1587 -0.6997
 5637TIP3    H238547   5.094   4.174   5.565 -1.2211 -2.9034  0.0538
 5638TIP3   OH238548   2.396   0.687   2.503  0.3542 -0.5216 -0.2258
 5638TIP3    H138549   2.402   0.592   2.517 -0.0502 -0.6320 -0.7608
 5638TIP3    H238550   2.302   0.703   2.491  0.5713 -0.3152 -1.8815
 5639TIP3   OH238551   3.232   1.849   0.880  0.5130  0.7060  0.4889
 5639TIP3    H138552   3.217   1.915   0.813  1.4759  1.2735  0.8033
 5639TIP3    H238553   3.155   1.855   0.937  0.4068  1.2785  0.2912
 5640TIP3   OH238554   4.625   0.085   2.796  0.1163 -0.3172  0.7140
 5640TIP3    H138555   4.568   0.014   2.826 -0.5408  0.6541  1.8619
 5640TIP3    H238556   4.567   0.161   2.788  1.0538  0.4362  0.8436
 5641TIP3   OH238557   5.955   1.268   1.865  0.5527  0.0087 -0.4494
 5641TIP3    H138558   5.934   1.179   1.838  1.2497 -0.8880  1.7026
 5641TIP3    H238559   6.006   1.305   1.793 -0.1876 -1.1336 -1.5877
 5642TIP3   OH238560   0.328   1.061   1.058 -0.3206  0.3978  0.3886
 5642TIP3    H138561   0.376   1.072   0.976  0.3535 -0.4577  0.6457
 5642TIP3    H238562   0.283   1.144   1.071  0.4390  0.9370 -0.2905
 5643TIP3   OH238563   0.340   0.040   2.906  0.2040 -0.5202 -0.0321
 5643TIP3    H138564   0.327   0.095   2.983 -0.0429 -0.6761  0.0391
 5643TIP3    H238565   0.264   0.058   2.850  0.1899 -0.6859 -0.0689
 5644TIP3   OH238566   3.218   0.119   2.627  0.4713  0.2225  0.3657
 5644TIP3    H138567   3.219   0.071   2.544 -0.6844  1.1891 -0.2393
 5644TIP3    H238568   3.282   0.189   2.614  1.0848 -0.2686  0.7038
 5645TIP3   OH238569   6.698   0.057   3.173  0.2562  0.0559 -0.2510
 5645TIP3    H138570   6.705   0.145   3.137  4.3253 -0.8124 -2.0422
 5645TIP3    H238571   6.744   0.061   3.257 -2.5406  0.2551  1.4250
 5646TIP3   OH238572   1.599   2.166   5.106 -0.4503 -0.1414  0.6339
 5646TIP3    H138573   1.577   2.216   5.028  1.1295  0.2293  0.3905
 5646TIP3    H238574   1.541   2.090   5.103  0.5764 -0.9251 -1.7106
 5647TIP3   OH238575   3.332   4.294   4.121  0.0002 -0.4744 -0.2877
 5647TIP3    H138576   3.389   4.365   4.150 -0.1872  0.7510 -2.6824
 5647TIP3    H238577   3.391   4.220   4.110  0.2624 -0.6642  1.8841
 5648TIP3   OH238578   6.755   4.567   1.580  0.7742  0.1286 -0.6651
 5648TIP3    H138579   6.791   4.481   1.603  0.3766 -0.3058 -1.6153
 5648TIP3    H238580   6.720   4.600   1.663  1.7171 -0.2285 -0.1039
 5649TIP3   OH238581   0.120   3.600   4.589 -0.0731 -0.1981 -0.0388
 5649TIP3    H138582   0.102   3.671   4.527  2.6399  1.0163  0.4008
 5649TIP3    H238583   0.145   3.646   4.669 -1.8763 -1.7359  1.4668
 5650TIP3   OH238584   3.649   1.061   2.557 -0.3089  1.0763 -0.2322
 5650TIP3    H138585   3.723   1.041   2.500  0.3120  1.6354  0.3591
 5650TIP3    H238586   3.679   1.035   2.644 -0.7040  1.5706  0.0541
 5651TIP3   OH238587   1.806   5.746   4.649  0.0833 -0.2220  0.7074
 5651TIP3    H138588   1.792   5.653   4.669 -0.4481  0.0642  1.6713
 5651TIP3    H238589   1.722   5.788   4.667  0.5665  0.5898  1.1288
 5652TIP3   OH238590   5.065   5.798   1.132  0.2693  0.2861  0.2008
 5652TIP3    H138591   5.148   5.752   1.147  0.7588  0.7255 -1.0878
 5652TIP3    H238592   5.083   5.859   1.061 -1.2367  0.1896 -0.3014
 5653TIP3   OH238593   3.801   4.476   3.550  0.2595 -0.1508  0.0735
 5653TIP3    H138594   3.813   4.409   3.618  1.5576 -1.6116 -1.4999
 5653TIP3    H238595   3.805   4.559   3.597  2.3105 -1.0720  1.6727
 5654TIP3   OH238596   5.610   2.744   1.463 -0.3814  0.2506 -0.3186
 5654TIP3    H138597   5.588   2.654   1.487  1.1806  0.1770  1.0502
 5654TIP3    H238598   5.526   2.788   1.453 -1.2010 -1.5774 -2.0697
 5655TIP3   OH238599   4.522   4.440   4.465  0.1333 -0.3505  0.5807
 5655TIP3    H138600   4.510   4.453   4.559 -1.5821  0.9603  0.2196
 5655TIP3    H238601   4.580   4.364   4.459  0.4781 -0.3180  2.6885
 5656TIP3   OH238602   6.425   3.527   1.265  0.5262 -0.3192 -0.6880
 5656TIP3    H138603   6.442   3.467   1.192  1.2863 -0.6954 -0.2120
 5656TIP3    H238604   6.510   3.540   1.306  0.0668 -0.3224  0.2973
 5657TIP3   OH238605   6.359   0.516   2.600 -0.1889  0.8455  0.1968
 5657TIP3    H138606   6.265   0.499   2.589 -0.0023 -1.5326  1.7435
 5657TIP3    H238607   6.394   0.515   2.510 -1.2078 -1.1838 -0.2273
 5658TIP3   OH238608   3.064   0.831   3.558  0.2287 -0.1624  0.0716
 5658TIP3    H138609   3.145   0.877   3.579 -0.3206  0.1767  1.6350
 5658TIP3    H238610   3.001   0.901   3.539  0.6273 -0.4471 -2.6867
 5659TIP3   OH238611   0.688   5.041   2.313 -0.2035  0.3003  0.0856
 5659TIP3    H138612   0.688   5.136   2.299 -0.8085  0.3001  0.0414
 5659TIP3    H238613   0.683   5.004   2.225  0.3555  0.2193  0.0861
 5660TIP3   OH238614   0.240   6.142   1.286 -0.0631  0.4047 -0.1783
 5660TIP3    H138615   0.157   6.094   1.280 -0.1187  0.6312 -1.5354
 5660TIP3    H238616   0.281   6.129   1.201  1.8285 -0.6318  0.8208
 5661TIP3   OH238617   2.063   3.540   4.389  0.1913 -0.2538  0.4611
 5661TIP3    H138618   2.059   3.449   4.417  0.4319 -0.0356  1.2470
 5661TIP3    H238619   1.973   3.572   4.396  0.0955 -0.4434  0.1214
 5662TIP3   OH238620   0.045   5.271   5.580  0.0012 -0.4954 -0.5338
 5662TIP3    H138621  -0.035   5.267   5.633  0.7004  0.7981  0.6755
 5662TIP3    H238622   0.015   5.305   5.495 -0.6655  0.4519  0.0646
 5663TIP3   OH238623   0.868   4.127   2.965 -0.9206 -0.3498 -0.0019
 5663TIP3    H138624   0.858   4.163   2.878  1.6199 -1.0668 -0.6833
 5663TIP3    H238625   0.957   4.091   2.966 -0.9257 -0.5156  2.8246
 5664TIP3   OH238626   2.567   2.710   5.219 -0.4502 -0.1610 -0.0557
 5664TIP3    H138627   2.489   2.686   5.269 -1.0176  0.4605 -0.6275
 5664TIP3    H238628   2.617   2.628   5.212 -0.0930 -0.1700  1.9460
 5665TIP3   OH238629   6.650   2.800   3.023 -0.0358  0.7236 -0.0056
 5665TIP3    H138630   6.637   2.831   2.934 -1.8688  0.2937  0.0652
 5665TIP3    H238631   6.634   2.877   3.078  1.3165  1.0438 -0.0320
 5666TIP3   OH238632   2.641   0.544   0.878 -0.0471  0.1181 -0.2248
 5666TIP3    H138633   2.729   0.560   0.844  0.4547  0.0463  0.9800
 5666TIP3    H238634   2.630   0.449   0.875 -0.8829  0.2291 -2.2221
 5667TIP3   OH238635   4.796   2.949   3.167  0.2260 -0.1274 -0.5957
 5667TIP3    H138636   4.703   2.928   3.156 -0.1669  1.1624 -0.0126
 5667TIP3    H238637   4.833   2.873   3.210 -0.5729 -0.6629 -0.8280
 5668TIP3   OH238638   1.835   0.764   3.537  0.1819  0.7867  0.3645
 5668TIP3    H138639   1.871   0.676   3.521 -2.3456 -0.2400 -0.2943
 5668TIP3    H238640   1.786   0.755   3.619 -0.0028  1.6041  0.3479
 5669TIP3   OH238641   5.698   2.537   5.655  0.1665  0.0169 -0.4954
 5669TIP3    H138642   5.606   2.563   5.648  0.4211  0.8585 -0.9353
 5669TIP3    H238643   5.741   2.584   5.583  1.1897  0.8043  0.5901
 5670TIP3   OH238644   2.805   0.814   4.557 -0.6073 -0.4341  0.5168
 5670TIP3    H138645   2.807   0.907   4.534 -1.0997 -0.9033 -1.6669
 5670TIP3    H238646   2.870   0.805   4.627  2.7230  0.8806 -2.0966
 5671TIP3   OH238647   5.075   6.519   2.874  0.0881  0.1257  0.0526
 5671TIP3    H138648   5.000   6.578   2.869 -0.6849 -0.6601  1.6172
 5671TIP3    H238649   5.050   6.454   2.940  1.8497 -0.5945  0.0662
 5672TIP3   OH238650   6.191   2.459   3.208  0.3793 -0.7970 -0.3277
 5672TIP3    H138651   6.237   2.538   3.237 -0.8589  0.6985 -2.1847
 5672TIP3    H238652   6.237   2.432   3.128 -0.3331 -0.8263 -0.7406
 5673TIP3   OH238653   3.604   0.056   2.500 -0.2038 -0.2160 -1.2130
 5673TIP3    H138654   3.665  -0.004   2.456  2.1014  0.5016  0.8300
 5673TIP3    H238655   3.586   0.015   2.585 -0.9817  0.5736 -0.9744
 5674TIP3   OH238656   1.188   5.022   4.146  0.0634 -0.2494 -0.1258
 5674TIP3    H138657   1.128   5.084   4.104  0.8219  0.3795 -0.2816
 5674TIP3    H238658   1.152   4.936   4.122  0.5948  0.0590 -2.2970
 5675TIP3   OH238659   1.226   2.871   1.177  0.3464  0.7949  0.2067
 5675TIP3    H138660   1.213   2.965   1.183  0.9052  0.7992  2.0580
 5675TIP3    H238661   1.294   2.860   1.110  1.0922  1.8097  0.7667
 5676TIP3   OH238662   6.442   2.969   3.992  0.1634  0.0826 -0.4871
 5676TIP3    H138663   6.388   3.043   3.964  0.6388  1.7350  2.5175
 5676TIP3    H238664   6.532   2.999   3.979  0.3717 -0.6329 -0.7428
 5677TIP3   OH238665   1.720   3.210   1.534  0.2385  0.4280 -0.0308
 5677TIP3    H138666   1.769   3.272   1.480 -0.4560  1.4397  0.4672
 5677TIP3    H238667   1.675   3.154   1.471  2.3560 -0.8373 -0.5055
 5678TIP3   OH238668   4.819   1.556   5.196  0.1567  0.3551  0.4814
 5678TIP3    H138669   4.902   1.599   5.220 -0.5216  1.5434  0.7927
 5678TIP3    H238670   4.846   1.474   5.155  1.4691  0.2395  1.4848
 5679TIP3   OH238671   2.538   1.439   2.970  0.0662  0.5862  0.1209
 5679TIP3    H138672   2.546   1.364   2.911 -2.5473  1.7689 -1.9979
 5679TIP3    H238673   2.620   1.487   2.960  0.9344 -0.8842 -0.0872
 5680TIP3   OH238674   0.487   0.481   2.502  0.8422 -0.4144  0.2535
 5680TIP3    H138675   0.494   0.576   2.494  1.1849 -0.3494  1.1549
 5680TIP3    H238676   0.436   0.454   2.426  2.3484  0.2665 -1.0404
 5681TIP3   OH238677   0.663   1.436   1.494  0.1632 -0.2049 -0.1677
 5681TIP3    H138678   0.604   1.482   1.435  0.2110 -0.0282 -0.0798
 5681TIP3    H238679   0.606   1.376   1.543  0.2899 -1.1975 -1.1960
 5682TIP3   OH238680   6.089   5.892   4.333  0.0026 -0.0487 -0.1457
 5682TIP3    H138681   6.151   5.861   4.400  0.5979  0.7999 -0.2784
 5682TIP3    H238682   6.014   5.924   4.383 -0.2812 -0.9567  0.0251
 5683TIP3   OH238683   2.121   5.135   3.158  0.4705 -0.0580 -0.2369
 5683TIP3    H138684   2.083   5.138   3.071  1.7815 -0.3189 -0.8467
 5683TIP3    H238685   2.209   5.172   3.147  0.2865  0.8846  1.1890
 5684TIP3   OH238686   2.534   0.363   4.031  0.2483  0.1860  0.2794
 5684TIP3    H138687   2.439   0.372   4.033  0.2211  0.4689 -1.1206
 5684TIP3    H238688   2.566   0.433   4.088 -0.3980 -1.0511  2.2610
 5685TIP3   OH238689   4.926   4.872   2.645  0.5376  0.0538  0.1013
 5685TIP3    H138690   4.850   4.919   2.610 -0.1251 -1.1341 -0.0858
 5685TIP3    H238691   4.950   4.921   2.723 -0.7686  0.1316  0.4757
 5686TIP3   OH238692   4.053   4.045   0.903  0.2570 -0.3530 -0.3623
 5686TIP3    H138693   4.097   3.978   0.850 -1.3840 -0.2411 -1.9823
 5686TIP3    H238694   3.989   3.995   0.955  0.0432 -0.1930 -0.4724
 5687TIP3   OH238695   5.769   2.408   3.973  0.8933 -0.3467  0.0791
 5687TIP3    H138696   5.865   2.408   3.975  0.9028 -0.9799 -0.1637
 5687TIP3    H238697   5.745   2.316   3.964  0.2969 -0.0756 -1.3830
 5688TIP3   OH238698   0.153   5.280   4.065 -0.7834  0.1157 -0.0082
 5688TIP3    H138699   0.082   5.243   4.013  0.2577  0.1426 -1.5085
 5688TIP3    H238700   0.192   5.205   4.109 -1.9746  0.1516  1.1847
 5689TIP3   OH238701   6.722   1.122   2.835  0.0826 -0.1066 -0.0123
 5689TIP3    H138702   6.688   1.150   2.920  0.1175  0.1880 -0.0969
 5689TIP3    H238703   6.644   1.104   2.783  0.0606  0.0591 -0.0352
 5690TIP3   OH238704   5.245   0.924   2.100 -0.4246  0.5574  0.2785
 5690TIP3    H138705   5.172   0.867   2.125 -1.3406  1.9092  0.8256
 5690TIP3    H238706   5.203   1.006   2.074  0.8368  0.9081 -0.7654
 5691TIP3   OH238707   2.157   0.885   2.000  0.0424 -0.1436  0.0374
 5691TIP3    H138708   2.108   0.887   1.917  0.8356 -0.7770 -0.4659
 5691TIP3    H238709   2.198   0.972   2.006 -1.1783  0.4158  0.5006
 5692TIP3   OH238710   4.992   2.219   3.735 -0.1615  0.2679  0.6332
 5692TIP3    H138711   4.950   2.305   3.726 -1.1890 -0.2919 -0.1804
 5692TIP3    H238712   4.927   2.166   3.780 -0.1574 -0.4909 -0.2331
 5693TIP3   OH238713   0.772   5.513   1.508  0.5687  0.0599  0.1699
 5693TIP3    H138714   0.854   5.558   1.530 -0.3685  1.9815 -0.0827
 5693TIP3    H238715   0.792   5.466   1.427  1.0638  1.6355 -0.6631
 5694TIP3   OH238716   2.663   4.121   1.361 -0.2437 -0.3670  0.6151
 5694TIP3    H138717   2.682   4.029   1.347  0.4510 -0.2605  0.8605
 5694TIP3    H238718   2.603   4.122   1.435 -1.4446 -0.7120 -0.3012
 5695TIP3   OH238719   1.972   6.686   4.395 -0.3110  0.1567  0.4076
 5695TIP3    H138720   2.033   6.621   4.432 -0.2650  0.2277  0.4552
 5695TIP3    H238721   2.019   6.722   4.320  0.3701  1.3624  1.3648
 5696TIP3   OH238722   2.478   0.368   4.376 -0.1616 -0.1890  0.6927
 5696TIP3    H138723   2.569   0.365   4.348 -0.3829 -1.4149  0.0417
 5696TIP3    H238724   2.477   0.327   4.462 -0.1586 -0.5879  0.5050
 5697TIP3   OH238725   0.744   2.730   4.273  0.0676 -0.0322 -0.6225
 5697TIP3    H138726   0.652   2.732   4.299  0.6713 -0.6305  1.8009
 5697TIP3    H238727   0.793   2.745   4.354  2.1314  0.2861 -1.8373
 5698TIP3   OH238728   4.134   4.306   2.089  0.1663 -0.3189  0.0502
 5698TIP3    H138729   4.076   4.348   2.026 -0.9310 -1.1546  0.4606
 5698TIP3    H238730   4.222   4.328   2.060 -0.3519  1.2034 -0.4481
 5699TIP3   OH238731   3.402   1.857   3.620  0.0672 -0.1063 -0.7417
 5699TIP3    H138732   3.365   1.783   3.572 -1.3766  0.5725 -0.7372
 5699TIP3    H238733   3.356   1.934   3.585  1.6488  0.8310 -0.8757
 5700TIP3   OH238734   1.089   3.222   1.476 -0.0428 -0.5564 -0.1633
 5700TIP3    H138735   1.048   3.264   1.551  0.8887  0.0190  0.0401
 5700TIP3    H238736   1.153   3.162   1.514  1.3534  0.6666 -0.4648
 5701TIP3   OH238737   4.967   3.907   5.036  0.0753 -0.4756  0.0490
 5701TIP3    H138738   4.983   3.924   5.129  0.1780 -1.7126  0.2807
 5701TIP3    H238739   4.943   3.814   5.033  0.1593 -0.4701 -1.1755
 5702TIP3   OH238740   2.279   3.810   2.103  0.0202 -0.3757 -0.4961
 5702TIP3    H138741   2.352   3.870   2.091  0.1079 -0.2193  0.6903
 5702TIP3    H238742   2.216   3.860   2.156 -0.2697 -1.0333 -0.2109
 5703TIP3   OH238743   2.544   1.745   1.246 -0.2158  0.4215 -0.5397
 5703TIP3    H138744   2.634   1.721   1.222 -0.1602  0.8114 -0.7325
 5703TIP3    H238745   2.527   1.825   1.196 -0.3154  0.9161  0.2837
 5704TIP3   OH238746   3.281   4.835   1.328  0.3201 -0.9002  0.2008
 5704TIP3    H138747   3.281   4.928   1.349  3.4790 -0.4195 -1.2815
 5704TIP3    H238748   3.354   4.799   1.379 -0.0881 -2.3173 -0.1635
 5705TIP3   OH238749   0.633   5.930   1.901  0.7390 -0.0660  0.0091
 5705TIP3    H138750   0.627   5.919   1.806 -1.1646  1.4225 -0.1086
 5705TIP3    H238751   0.724   5.912   1.921  0.7420 -2.5778 -1.7736
 5706TIP3   OH238752   4.102   2.468   4.982 -0.6559 -0.3047  0.0148
 5706TIP3    H138753   4.133   2.395   5.035  1.7558 -0.5209 -1.5502
 5706TIP3    H238754   4.181   2.503   4.939 -2.0489  1.7823 -1.0551
 5707TIP3   OH238755   0.964   3.481   4.189 -0.1592 -0.1589 -0.1499
 5707TIP3    H138756   1.009   3.461   4.107 -0.4729  1.0793 -0.6321
 5707TIP3    H238757   0.881   3.433   4.183 -0.2478  0.0506 -0.6210
 5708TIP3   OH238758   1.270   5.900   3.873  0.4453  0.5131  0.0980
 5708TIP3    H138759   1.251   5.832   3.938  2.7290 -2.1158 -1.7440
 5708TIP3    H238760   1.349   5.943   3.906  1.0416 -0.1616 -0.4281
 5709TIP3   OH238761   6.499   2.641   2.785  0.4151 -0.3182  0.3060
 5709TIP3    H138762   6.446   2.717   2.759 -0.0633 -0.6727  0.2425
 5709TIP3    H238763   6.589   2.673   2.783  0.1891  0.3662  0.6667
 5710TIP3   OH238764   0.112   2.563   3.337  0.1482  0.0098 -0.0491
 5710TIP3    H138765   0.121   2.470   3.358 -2.3955 -0.3028 -0.0866
 5710TIP3    H238766   0.100   2.565   3.242  0.7569  0.4450 -0.1231
 5711TIP3   OH238767   1.847   6.005   0.209 -0.2330  0.2903  0.2763
 5711TIP3    H138768   1.887   6.022   0.295  0.6046 -0.3383  0.0295
 5711TIP3    H238769   1.877   5.917   0.186 -0.8111  0.2811 -0.4647
 5712TIP3   OH238770   3.240   4.420   1.517 -0.2313  0.0688  0.2924
 5712TIP3    H138771   3.246   4.404   1.611 -0.8714  0.4894  0.4149
 5712TIP3    H238772   3.155   4.383   1.492 -0.2248  0.2760 -0.0474
 5713TIP3   OH238773   5.860   3.692   4.469  0.4602  0.0411  0.0176
 5713TIP3    H138774   5.922   3.760   4.495 -0.1766  0.7330 -0.2262
 5713TIP3    H238775   5.900   3.610   4.498  0.0003  0.7163  2.8083
 5714TIP3   OH238776   2.856   0.563   4.811 -0.3412 -0.5498 -0.5048
 5714TIP3    H138777   2.910   0.552   4.889 -2.1062 -1.5019  0.6570
 5714TIP3    H238778   2.825   0.654   4.816  0.5685 -0.2148 -0.8086
 5715TIP3   OH238779   3.499   2.727   3.051  0.1057 -0.2699  0.8444
 5715TIP3    H138780   3.415   2.770   3.036  1.4644  1.8076 -1.6193
 5715TIP3    H238781   3.548   2.789   3.105  2.0096  1.5306 -2.5664
 5716TIP3   OH238782   2.896   3.353   4.855  0.4020 -0.3522 -0.2379
 5716TIP3    H138783   2.930   3.441   4.841 -0.0299 -0.1446 -0.0054
 5716TIP3    H238784   2.964   3.308   4.904  0.7639 -0.2465 -0.6400
 5717TIP3   OH238785   1.079   4.369   1.328  0.0931 -0.1412  0.1233
 5717TIP3    H138786   1.125   4.399   1.407 -4.1606  1.9226  2.1434
 5717TIP3    H238787   1.070   4.449   1.275  1.8012 -1.2629 -2.0352
 5718TIP3   OH238788   6.458   1.177   2.735 -0.2286 -0.0746  0.6610
 5718TIP3    H138789   6.422   1.169   2.823  0.4260 -0.3485  0.9053
 5718TIP3    H238790   6.381   1.176   2.678 -0.5621 -1.6753  1.1106
 5719TIP3   OH238791   3.672   1.272   4.322  0.1718 -0.0063  0.0770
 5719TIP3    H138792   3.604   1.277   4.255 -0.4775  0.9549  0.7720
 5719TIP3    H238793   3.670   1.181   4.352  0.4784 -0.4465 -1.1911
 5720TIP3   OH238794   6.441   4.577   1.440  0.1318  0.8642  0.0435
 5720TIP3    H138795   6.385   4.571   1.517 -1.2489  0.2281 -0.9676
 5720TIP3    H238796   6.485   4.662   1.449  1.9557 -0.2163  2.7634
 5721TIP3   OH238797   0.258   3.390   1.400 -0.0828  0.1860 -0.5991
 5721TIP3    H138798   0.224   3.479   1.392  1.0630  0.5259 -2.3034
 5721TIP3    H238799   0.184   3.339   1.431 -0.4241  1.9260  1.7052
 5722TIP3   OH238800   5.542   4.150   3.878  0.3278  0.1445  0.4990
 5722TIP3    H138801   5.580   4.062   3.872 -1.0474 -0.4446  0.0478
 5722TIP3    H238802   5.449   4.134   3.892 -0.3233  1.5201 -1.8510
 5723TIP3   OH238803   3.306   6.466   4.778 -0.1886  0.2578  0.2166
 5723TIP3    H138804   3.225   6.415   4.781 -0.6501  0.9965  2.2434
 5723TIP3    H238805   3.373   6.406   4.812  0.3426 -0.5905 -2.1096
 5724TIP3   OH238806   2.554   5.489   4.456  0.4052  0.6572  0.3318
 5724TIP3    H138807   2.472   5.502   4.409 -0.4215  2.0144  2.0101
 5724TIP3    H238808   2.607   5.433   4.399 -1.1473  0.8761 -1.4049
 5725TIP3   OH238809   3.348   6.644   0.690  0.0503  0.1707  0.0467
 5725TIP3    H138810   3.368   6.736   0.708 -0.5549  0.2013  0.5778
 5725TIP3    H238811   3.262   6.646   0.648 -0.3704 -0.2218  0.8801
 5726TIP3   OH238812   6.604   5.087   0.953  0.2657  0.3228  0.1674
 5726TIP3    H138813   6.520   5.092   0.998  0.0355  0.2974 -0.2459
 5726TIP3    H238814   6.643   5.005   0.983  0.3143  0.5174  0.6440
 5727TIP3   OH238815   2.982   0.760   2.416 -0.5685 -0.0729 -1.0333
 5727TIP3    H138816   2.976   0.672   2.454  0.1022  0.8055  1.3033
 5727TIP3    H238817   2.898   0.802   2.438  0.0268  0.6176  0.0078
 5728TIP3   OH238818   6.028   4.893   2.101 -0.4407 -0.2537  0.0939
 5728TIP3    H138819   5.933   4.896   2.089 -0.4373  0.5980  0.2713
 5728TIP3    H238820   6.062   4.958   2.041 -0.0116 -0.1239  0.4768
 5729TIP3   OH238821   1.755   3.237   1.136  0.1835 -0.4818  0.6314
 5729TIP3    H138822   1.737   3.158   1.087  2.3348 -0.0710 -0.9893
 5729TIP3    H238823   1.826   3.213   1.196  0.9045  0.2098  0.0754
 5730TIP3   OH238824   2.635   3.191   9.004  0.5052  0.3604  0.2635
 5730TIP3    H138825   2.572   3.119   8.994  0.8812 -0.0615  0.8929
 5730TIP3    H238826   2.718   3.148   9.021  0.4419  0.9653  2.3032
 5731TIP3   OH238827   0.353   2.763   1.685 -0.0797 -0.0039 -0.6734
 5731TIP3    H138828   0.345   2.781   1.778 -0.5422 -0.3971 -0.6319
 5731TIP3    H238829   0.384   2.845   1.647 -1.5858  0.7332 -0.4133
 5732TIP3   OH238830   5.838   1.722   3.127 -0.0745  0.0794  0.4275
 5732TIP3    H138831   5.768   1.682   3.074 -0.4665  1.1069  0.1386
 5732TIP3    H238832   5.794   1.791   3.176  1.0519  2.2464 -1.4026
 5733TIP3   OH238833   3.375   2.510   1.971 -0.0125  0.0878  0.5973
 5733TIP3    H138834   3.379   2.593   1.923  1.6870  0.2632  0.9675
 5733TIP3    H238835   3.287   2.508   2.008 -0.1655  1.6226  0.3817
 5734TIP3   OH238836   4.760   0.821   2.368 -0.4545 -0.2514  0.7209
 5734TIP3    H138837   4.842   0.834   2.416 -0.4045 -1.4561  1.0127
 5734TIP3    H238838   4.787   0.792   2.281 -0.5437 -1.1503  0.9735
 5735TIP3   OH238839   1.884   0.706   2.760  0.1175 -0.0910 -0.0496
 5735TIP3    H138840   1.967   0.657   2.760  0.2017  0.0391  0.6061
 5735TIP3    H238841   1.897   0.773   2.827 -0.9509 -0.8176  0.9209
 5736TIP3   OH238842   6.625   4.539   2.771  0.4915  0.3525 -0.2331
 5736TIP3    H138843   6.581   4.513   2.852  0.1973 -1.3932 -0.9210
 5736TIP3    H238844   6.689   4.604   2.799  0.2407 -0.0428  1.3647
 5737TIP3   OH238845   3.453   3.472   2.032 -0.3953 -0.4998  0.4839
 5737TIP3    H138846   3.433   3.518   2.113 -0.1750  2.5571 -1.0823
 5737TIP3    H238847   3.371   3.473   1.982  0.0791 -0.2274 -0.3085
 5738TIP3   OH238848   3.694   5.974   4.599 -0.3284 -0.1993  0.3200
 5738TIP3    H138849   3.697   5.932   4.513 -0.8486  0.2776  0.0603
 5738TIP3    H238850   3.602   5.967   4.626 -0.6276  1.5609 -0.1447
 5739TIP3   OH238851   6.329   4.965   0.574 -0.7231  0.0931  0.4854
 5739TIP3    H138852   6.249   5.013   0.597  1.4407  3.0328  2.6591
 5739TIP3    H238853   6.378   4.957   0.656  1.8854 -0.2177 -0.9718
 5740TIP3   OH238854   5.213   6.302   4.617  0.1154  0.4927  0.4810
 5740TIP3    H138855   5.135   6.303   4.673  0.8903  1.8388  1.6134
 5740TIP3    H238856   5.272   6.240   4.659 -0.7791 -1.5354 -1.0984
 5741TIP3   OH238857   2.536   5.431   3.076 -0.0442  0.8419 -0.1946
 5741TIP3    H138858   2.568   5.395   3.159  0.6203  0.3077 -0.6660
 5741TIP3    H238859   2.446   5.397   3.068  0.0126  0.6109  0.1388
 5742TIP3   OH238860   1.608   2.867   3.012  0.1488 -0.1220  0.3742
 5742TIP3    H138861   1.519   2.879   2.979  0.2609  0.3814  0.2447
 5742TIP3    H238862   1.597   2.843   3.104 -0.1005  0.7964  0.5937
 5743TIP3   OH238863   3.223   4.526   0.570  0.4765 -0.1824  0.5420
 5743TIP3    H138864   3.312   4.496   0.589  0.2456 -0.6291  0.9637
 5743TIP3    H238865   3.174   4.446   0.554  0.7915  0.1611 -2.8696
 5744TIP3   OH238866   5.346   6.509   3.328 -0.1303 -0.7430  0.2368
 5744TIP3    H138867   5.418   6.510   3.391 -0.7507 -0.0573  0.9458
 5744TIP3    H238868   5.322   6.416   3.321  0.3949 -0.9018  0.4799
 5745TIP3   OH238869   4.786   3.145   2.965 -0.2087 -0.3578  0.3102
 5745TIP3    H138870   4.854   3.209   2.990  0.2921 -0.2735 -1.2125
 5745TIP3    H238871   4.792   3.077   3.032  0.2965  0.4353  1.0947
 5746TIP3   OH238872   2.452   0.867   5.752 -0.0528 -0.0276  0.0568
 5746TIP3    H138873   2.373   0.887   5.803  0.5497  1.3337  0.5140
 5746TIP3    H238874   2.477   0.951   5.714  1.4024 -0.3498  0.2411
 5747TIP3   OH238875   3.362   4.301   4.597  0.6912 -0.2927 -0.1209
 5747TIP3    H138876   3.430   4.326   4.534  0.4068  0.9792  0.0588
 5747TIP3    H238877   3.407   4.294   4.680  0.6913  0.1453 -0.0797
 5748TIP3   OH238878   2.601   2.090   5.150  0.2045 -0.5677 -0.0887
 5748TIP3    H138879   2.664   2.099   5.079  0.6320  1.0965  0.4461
 5748TIP3    H238880   2.655   2.088   5.230 -0.3541 -0.4804  0.2963
 5749TIP3   OH238881   4.084   1.295   4.676 -0.1408 -0.1793  0.4143
 5749TIP3    H138882   4.160   1.269   4.727  1.0188 -0.2413 -1.2531
 5749TIP3    H238883   4.112   1.374   4.630  0.0039 -1.7433 -2.4263
 5750TIP3   OH238884   0.711   3.868   3.815 -0.1940 -0.4818  0.5465
 5750TIP3    H138885   0.759   3.867   3.732  0.2967 -0.2220  0.8184
 5750TIP3    H238886   0.780   3.875   3.882 -0.6116 -0.1756  0.9483
 5751TIP3   OH238887   2.706   4.063   0.867 -0.2193 -0.0299  0.2641
 5751TIP3    H138888   2.799   4.042   0.856  0.2638  1.7536  0.4987
 5751TIP3    H238889   2.680   4.101   0.784 -1.1262 -1.6689 -0.2435
 5752TIP3   OH238890   2.662   4.097   4.669  0.5073  0.2912  0.2875
 5752TIP3    H138891   2.580   4.092   4.620 -1.3679  0.7091  3.1576
 5752TIP3    H238892   2.671   4.189   4.693  0.3331 -0.1611  2.2474
 5753TIP3   OH238893   2.066   1.145   3.949 -0.1123 -0.2379  0.1430
 5753TIP3    H138894   2.143   1.123   4.002 -0.9210 -2.8940  0.3401
 5753TIP3    H238895   2.081   1.103   3.865 -0.9306  0.0435 -0.1607
 5754TIP3   OH238896   4.661   4.183   1.873 -0.0404 -0.1794 -0.2112
 5754TIP3    H138897   4.738   4.226   1.908  0.7597 -1.3638 -0.4616
 5754TIP3    H238898   4.624   4.247   1.812  0.7200  0.4102 -0.0703
 5755TIP3   OH238899   5.251   1.567   5.085 -0.0638 -0.0326 -0.3088
 5755TIP3    H138900   5.243   1.518   5.166  0.1261  0.0692 -0.2293
 5755TIP3    H238901   5.344   1.586   5.076  0.3326 -2.2646 -1.8698
 5756TIP3   OH238902   5.185   5.820   3.600 -0.4603 -0.4094 -0.1177
 5756TIP3    H138903   5.121   5.845   3.666  0.1005  0.9777 -0.0713
 5756TIP3    H238904   5.134   5.778   3.531 -1.2644 -0.3322  0.4218
 5757TIP3   OH238905   5.885   2.909   1.293 -0.0368 -0.2041 -0.3756
 5757TIP3    H138906   5.843   2.981   1.247 -0.8242 -0.5369 -0.1916
 5757TIP3    H238907   5.956   2.880   1.235  1.7501  2.1267  0.4691
 5758TIP3   OH238908   1.029   6.758   0.309  0.2740  0.7170 -0.3844
 5758TIP3    H138909   1.117   6.794   0.321 -0.1106  1.1365  1.4575
 5758TIP3    H238910   0.995   6.803   0.232  1.6181  0.6169 -1.0745
 5759TIP3   OH238911   6.451   2.954   1.315 -0.1837 -0.3243  0.4069
 5759TIP3    H138912   6.460   2.888   1.384  0.2837 -0.3395  0.3307
 5759TIP3    H238913   6.524   2.938   1.256 -0.9115 -0.6912 -0.4206
 5760TIP3   OH238914   5.748   5.694   2.097 -0.2430 -0.4822 -0.2986
 5760TIP3    H138915   5.754   5.666   2.006  0.5932 -1.7820  0.1210
 5760TIP3    H238916   5.731   5.788   2.092 -0.1862 -0.5233 -1.7920
 5761TIP3   OH238917   0.222   2.858   4.951 -0.7633 -0.4599 -0.5848
 5761TIP3    H138918   0.179   2.807   5.019  1.2168 -0.2491  0.9177
 5761TIP3    H238919   0.241   2.942   4.993 -1.2984  0.4404 -2.0714
 5762TIP3   OH238920   5.555   1.563   4.285  0.1535  0.2690  0.2395
 5762TIP3    H138921   5.609   1.495   4.325  1.1201  0.0270 -1.3515
 5762TIP3    H238922   5.470   1.556   4.327  0.6500 -1.0040  1.0669
 5763TIP3   OH238923   2.032   6.477   0.754 -0.4645 -0.5687  0.7513
 5763TIP3    H138924   2.115   6.495   0.710  0.0124 -2.5698  0.7304
 5763TIP3    H238925   1.969   6.463   0.683 -0.3558 -0.9876  0.7354
 5764TIP3   OH238926   0.964   5.314   4.320 -0.6571 -0.1806 -0.0114
 5764TIP3    H138927   0.898   5.252   4.289  1.8079 -2.8880 -0.3705
 5764TIP3    H238928   1.014   5.336   4.241 -0.0107  0.3204  0.5286
 5765TIP3   OH238929   2.601   5.177   1.043 -0.1789 -0.4654  0.2714
 5765TIP3    H138930   2.594   5.248   1.107 -1.3647  0.7515 -1.1195
 5765TIP3    H238931   2.690   5.185   1.008 -0.6446  1.1359 -0.6804
 5766TIP3   OH238932   1.176   3.524   1.364  0.1793 -0.2235  0.3240
 5766TIP3    H138933   1.221   3.551   1.444  0.8103  0.7553 -0.3261
 5766TIP3    H238934   1.126   3.446   1.388 -3.0644  2.3304  2.8080
 5767TIP3   OH238935   0.094   2.137   1.821  0.7678 -0.3332  0.0407
 5767TIP3    H138936   0.142   2.056   1.803  1.0431 -0.1621  0.0013
 5767TIP3    H238937   0.044   2.119   1.901 -0.5273 -1.1266 -0.9015
 5768TIP3   OH238938   0.932   3.082   0.073  0.6563  0.2918 -0.3569
 5768TIP3    H138939   0.941   3.020   0.145  3.1283 -0.0971 -0.9300
 5768TIP3    H238940   0.889   3.032   0.004 -0.9231  0.4113  0.4956
 5769TIP3   OH238941   1.252   2.416   4.810 -0.0337 -0.0862  1.2040
 5769TIP3    H138942   1.195   2.467   4.868 -1.1781  1.1672 -0.8988
 5769TIP3    H238943   1.333   2.468   4.805 -0.5205  0.6216  0.4809
 5770TIP3   OH238944   2.662   3.052   3.255 -0.1659 -0.2526 -0.0180
 5770TIP3    H138945   2.745   3.028   3.296  1.1713  1.3976 -1.5495
 5770TIP3    H238946   2.639   3.136   3.294 -1.3118 -0.8529  0.6280
 5771TIP3   OH238947   0.603   3.853   4.733  0.4872 -0.0679  0.1803
 5771TIP3    H138948   0.609   3.771   4.781 -0.3368 -0.4988 -0.4182
 5771TIP3    H238949   0.532   3.901   4.777  0.0866 -0.2404 -0.2698
 5772TIP3   OH238950   2.230   0.946   4.156 -0.5291 -0.5609  0.0449
 5772TIP3    H138951   2.200   0.993   4.234 -0.0013 -0.2734  0.0779
 5772TIP3    H238952   2.325   0.953   4.159 -0.4855 -0.9171 -0.3994
 5773TIP3   OH238953   6.531   4.435   3.020 -0.0027 -0.2397  0.2829
 5773TIP3    H138954   6.541   4.512   3.076  0.5581 -0.7749  0.9363
 5773TIP3    H238955   6.481   4.373   3.072  2.5987 -1.6991  1.2325
 5774TIP3   OH238956   0.900   2.981   2.250  0.1205  0.2487  0.2875
 5774TIP3    H138957   0.888   2.948   2.161 -0.1615  0.2350  0.3295
 5774TIP3    H238958   0.958   3.056   2.240 -0.3109  0.5546  0.0267
 5775TIP3   OH238959   3.715   0.108   4.787 -0.1133 -0.2245 -0.2150
 5775TIP3    H138960   3.685   0.033   4.736  1.3216 -0.1478 -1.2513
 5775TIP3    H238961   3.804   0.085   4.814 -0.6664 -0.0621  1.9319
 5776TIP3   OH238962   4.078   1.209   5.370 -0.4096  0.3601  0.7009
 5776TIP3    H138963   4.133   1.278   5.333  0.6754 -0.1440  1.3324
 5776TIP3    H238964   4.139   1.141   5.398 -1.4496 -0.8242  0.1876
 5777TIP3   OH238965   1.430   6.647   1.312 -0.5218 -0.3211 -0.3526
 5777TIP3    H138966   1.420   6.643   1.407  1.3305 -0.9335 -0.1354
 5777TIP3    H238967   1.361   6.706   1.283  0.2141  1.6526  1.6167
 5778TIP3   OH238968   3.984   4.756   3.401 -0.1661  0.0942  0.1019
 5778TIP3    H138969   3.929   4.727   3.474  0.4334  1.1531  1.0065
 5778TIP3    H238970   3.924   4.798   3.340 -0.4687  0.5749  0.7249
 5779TIP3   OH238971   0.241   5.061   4.466  0.6685 -0.3452 -0.6541
 5779TIP3    H138972   0.183   4.986   4.476 -0.7792  0.7830 -0.1818
 5779TIP3    H238973   0.314   5.043   4.526 -1.7247  0.4758  2.8102
 5780TIP3   OH238974   3.752   1.515   4.446 -0.1562 -0.2770 -0.0209
 5780TIP3    H138975   3.710   1.435   4.414 -0.3305 -0.5622  0.8896
 5780TIP3    H238976   3.808   1.485   4.517 -0.3897  0.4417  0.4673
 5781TIP3   OH238977   4.819   6.305   1.772  0.0724  0.0328 -0.1292
 5781TIP3    H138978   4.777   6.334   1.691  2.2166 -0.7451 -1.6113
 5781TIP3    H238979   4.829   6.384   1.824 -0.1186  0.8110 -1.2432
 5782TIP3   OH238980   0.936   2.531   2.263  0.4048 -0.0108  0.3618
 5782TIP3    H138981   0.928   2.547   2.357  0.1248  0.2979  0.2851
 5782TIP3    H238982   1.025   2.560   2.241  0.7451 -0.8027  0.6754
 5783TIP3   OH238983   4.864   3.682   3.429  0.0182  0.2253  0.0063
 5783TIP3    H138984   4.870   3.730   3.511 -0.7925 -0.0935  0.2608
 5783TIP3    H238985   4.874   3.748   3.361  2.1394  0.3016  0.3384
 5784TIP3   OH238986   4.583   6.122   2.385  0.0555  0.0415 -0.1853
 5784TIP3    H138987   4.649   6.125   2.316 -0.3814  1.6420 -0.5668
 5784TIP3    H238988   4.500   6.136   2.339 -0.3391  0.1590  0.5537
 5785TIP3   OH238989   6.541   1.136   2.473 -0.3881 -0.1504 -0.0130
 5785TIP3    H138990   6.482   1.139   2.549  0.0640 -0.9578  0.3860
 5785TIP3    H238991   6.535   1.046   2.441 -1.1184  0.3660 -1.3970
 5786TIP3   OH238992   1.850   1.994   2.174  0.7842 -0.5540 -0.0595
 5786TIP3    H138993   1.876   1.974   2.084 -0.3725 -0.3907 -0.4466
 5786TIP3    H238994   1.902   1.934   2.228  2.2159  0.0065 -0.7509
 5787TIP3   OH238995   2.347   2.993   3.678 -0.4308 -0.4527  0.1716
 5787TIP3    H138996   2.326   3.049   3.753 -1.2335 -1.7434  0.9405
 5787TIP3    H238997   2.382   3.054   3.613  1.8042  0.5330  2.1176
 5788TIP3   OH238998   1.002   4.128   0.779  0.6889  0.0621  0.3313
 5788TIP3    H138999   0.913   4.158   0.759  0.9651  0.3200 -0.5319
 5788TIP3    H239000   1.001   4.111   0.874 -1.5075 -3.9687 -0.1969
 5789TIP3   OH239001   5.474   6.426   1.306 -0.7558  0.3972  0.8541
 5789TIP3    H139002   5.386   6.461   1.292 -0.5344  0.5155 -0.2668
 5789TIP3    H239003   5.520   6.440   1.224  0.4909  0.8167  1.5914
 5790TIP3   OH239004   6.676   5.696   3.137 -0.1141 -0.0561  0.0347
 5790TIP3    H139005   6.770   5.699   3.153 -0.1996  1.7206  0.4925
 5790TIP3    H239006   6.637   5.727   3.219 -0.9372  1.6084 -0.9220
 5791TIP3   OH239007   1.978   2.184   3.968  0.2106  0.1751  1.0176
 5791TIP3    H139008   1.991   2.263   3.914 -0.6329 -1.5446 -1.9202
 5791TIP3    H239009   2.020   2.206   4.052  1.6065  3.0602 -0.2658
 5792TIP3   OH239010   6.117   4.043   0.383 -0.0567 -1.2761 -0.3763
 5792TIP3    H139011   6.204   4.060   0.348  0.3756 -2.0165  0.3292
 5792TIP3    H239012   6.075   4.129   0.385  1.1099 -0.7007  0.5099
 5793TIP3   OH239013   1.201   5.168   1.806 -0.5596  0.4557 -0.0379
 5793TIP3    H139014   1.210   5.096   1.743 -1.8713  1.0396 -0.9259
 5793TIP3    H239015   1.291   5.188   1.832 -0.1796 -2.6980  1.6635
 5794TIP3   OH239016   3.410   0.805   4.447  0.0296  0.3230 -0.0355
 5794TIP3    H139017   3.323   0.844   4.459 -0.3793 -0.7516  0.6019
 5794TIP3    H239018   3.429   0.761   4.529  1.6803  1.4295  0.2431
 5795TIP3   OH239019   4.392   1.683   3.315 -0.2003 -0.3315 -0.0754
 5795TIP3    H139020   4.328   1.614   3.298 -0.9911  0.2930  0.3545
 5795TIP3    H239021   4.406   1.725   3.230 -2.4644  1.3308  0.2957
 5796TIP3   OH239022   4.669   3.156   4.298  0.1656  0.3213 -0.2883
 5796TIP3    H139023   4.586   3.136   4.340  0.0246  0.3395 -0.5553
 5796TIP3    H239024   4.647   3.226   4.235  0.5759  1.0765  0.3857
 5797TIP3   OH239025   6.150   2.586   4.501  0.1034  0.0890 -0.1884
 5797TIP3    H139026   6.091   2.644   4.453  1.3546  0.4125 -1.4088
 5797TIP3    H239027   6.176   2.636   4.578  0.4713  0.8167 -0.7693
 5798TIP3   OH239028   3.306   1.521   3.953  0.2202 -0.4250  0.4876
 5798TIP3    H139029   3.254   1.597   3.926  0.4019 -0.2893  0.5111
 5798TIP3    H239030   3.256   1.482   4.025  0.2443 -0.1836  0.6397
 5799TIP3   OH239031   0.812   3.647   2.004 -0.0069  0.1085  0.3070
 5799TIP3    H139032   0.858   3.575   1.959 -0.8957 -0.2167 -0.1099
 5799TIP3    H239033   0.840   3.640   2.095 -0.8035 -1.3764  0.4704
 5800TIP3   OH239034   4.417   0.263   5.040 -0.9668 -0.3867  0.1941
 5800TIP3    H139035   4.434   0.321   4.966 -2.1854  1.0450  0.9742
 5800TIP3    H239036   4.365   0.191   5.004  0.4031 -0.9391 -0.7523
 5801TIP3   OH239037   0.050   4.605   4.566 -1.0914 -0.2280 -0.3487
 5801TIP3    H139038   0.127   4.556   4.593  0.7356  0.3381 -3.9923
 5801TIP3    H239039  -0.021   4.541   4.567  0.0148 -1.4806  0.3531
 5802TIP3   OH239040   5.311   2.923   3.990 -0.3479  0.4400  0.2148
 5802TIP3    H139041   5.294   2.862   3.918  1.7769  0.6015 -0.4850
 5802TIP3    H239042   5.309   3.010   3.949 -0.6831  0.6595  0.6807
 5803TIP3   OH239043   0.671   2.576   5.198  0.1457 -0.2732 -0.4226
 5803TIP3    H139044   0.765   2.594   5.197  0.4147 -1.4858  0.8721
 5803TIP3    H239045   0.660   2.498   5.143  0.0481 -0.7708  0.2958
 5804TIP3   OH239046   4.380   1.213   4.406 -0.4073 -0.4805 -0.2006
 5804TIP3    H139047   4.385   1.258   4.321 -1.1867 -1.8488 -1.0092
 5804TIP3    H239048   4.343   1.279   4.465  1.0555  0.8156 -0.6511
 5805TIP3   OH239049   5.365   6.032   3.483 -0.2105  0.0156  0.1706
 5805TIP3    H139050   5.362   6.097   3.554  1.0909 -0.3457  0.5921
 5805TIP3    H239051   5.315   5.958   3.517 -0.4948  0.2564  0.2776
 5806TIP3   OH239052   2.369   2.161   5.240  1.0802  0.0728  0.0875
 5806TIP3    H139053   2.455   2.161   5.197  1.9434  0.4759  1.7570
 5806TIP3    H239054   2.377   2.095   5.309 -0.0832 -0.1221  0.0569
 5807TIP3   OH239055   5.820   6.658   2.529 -0.5347 -0.0950  0.2043
 5807TIP3    H139056   5.868   6.614   2.459 -1.6405 -0.9720 -0.0290
 5807TIP3    H239057   5.807   6.591   2.596 -0.1202  0.5388  0.9333
 5808TIP3   OH239058   5.879   2.046   2.301  0.1750  0.2416  0.7399
 5808TIP3    H139059   5.910   2.016   2.215  0.0783  0.1692  0.7286
 5808TIP3    H239060   5.784   2.056   2.289 -0.1708 -1.7203  1.3806
 5809TIP3   OH239061   4.585   2.527   4.598 -0.7674  0.0066  0.3409
 5809TIP3    H139062   4.611   2.539   4.690  1.4584 -0.1217 -0.2182
 5809TIP3    H239063   4.665   2.499   4.554 -1.4653  1.3490 -1.9180
 5810TIP3   OH239064   4.949   3.024   4.055  0.5661 -0.4573  0.8289
 5810TIP3    H139065   4.927   3.111   4.023 -0.2400 -0.8424  0.3194
 5810TIP3    H239066   4.889   3.010   4.128  2.4723  0.4700  2.6900
 5811TIP3   OH239067   4.361   4.983   2.923 -0.1263 -0.1667 -0.1831
 5811TIP3    H139068   4.393   4.909   2.871  0.1106 -1.0769  1.2034
 5811TIP3    H239069   4.438   5.013   2.971 -0.6698 -0.3646  0.8259
 5812TIP3   OH239070   5.167   4.051   4.152  0.0991 -0.1752  1.2078
 5812TIP3    H139071   5.228   4.105   4.202  0.5405  1.7891 -1.3043
 5812TIP3    H239072   5.088   4.105   4.144 -0.1081 -0.6193  0.1538
 5813TIP3   OH239073   6.678   2.935   2.660  0.1296  0.1504 -0.3552
 5813TIP3    H139074   6.728   2.860   2.691  0.2031  0.2993 -0.1161
 5813TIP3    H239075   6.737   3.010   2.668  0.7260 -0.0431 -2.3755
 5814TIP3   OH239076   2.291   2.970   3.029 -0.1287 -0.0905  0.1902
 5814TIP3    H139077   2.284   3.057   3.067  1.6712  0.1159  0.1533
 5814TIP3    H239078   2.330   2.984   2.943 -0.1018 -0.9006  0.0580
 5815TIP3   OH239079   4.556   2.994   2.990  0.1917  0.5084 -0.0144
 5815TIP3    H139080   4.491   3.064   2.981 -0.4776 -0.3295 -2.4427
 5815TIP3    H239081   4.633   3.026   2.943  0.7079  0.5234  0.8211
 5816TIP3   OH239082   4.801   6.677   3.986  0.3159  0.3254 -0.6378
 5816TIP3    H139083   4.765   6.761   4.015  0.5930  0.5741 -1.0081
 5816TIP3    H239084   4.840   6.639   4.065  0.5423  0.7252 -0.5551
 5817TIP3   OH239085   5.414   3.467   3.003 -0.0636 -0.0438 -0.1233
 5817TIP3    H139086   5.483   3.520   3.043 -0.9208  0.3958  0.8210
 5817TIP3    H239087   5.362   3.435   3.078 -0.6570 -0.6746 -0.7887
 5818TIP3   OH239088   3.403   1.977   5.662  0.2527 -0.8208 -0.2273
 5818TIP3    H139089   3.481   1.958   5.714  0.3391 -1.5366 -0.6056
 5818TIP3    H239090   3.434   2.033   5.592  0.3508 -0.7767 -0.1482
 5819TIP3   OH239091   4.310   2.392   4.178 -0.0856 -0.0946 -0.0464
 5819TIP3    H139092   4.296   2.450   4.104 -1.5150 -1.4774 -0.9277
 5819TIP3    H239093   4.352   2.314   4.139  1.3192  0.0889  1.0136
 5820TIP3   OH239094   4.978   1.125   3.455 -0.4045 -0.0718  0.3007
 5820TIP3    H139095   4.947   1.108   3.544  0.3617 -0.5422  0.4816
 5820TIP3    H239096   4.917   1.191   3.421 -3.1159 -2.6269 -0.2066
 5821TIP3   OH239097   6.154   2.719   3.784 -0.1696  0.1314 -0.3661
 5821TIP3    H139098   6.233   2.686   3.826 -0.7561 -1.1827 -0.2626
 5821TIP3    H239099   6.186   2.773   3.712  0.8247  1.0297  0.7127
 5822TIP3   OH239100   1.190   1.862   4.335 -0.0295  0.3462  0.0532
 5822TIP3    H139101   1.255   1.926   4.363 -1.4602  1.3174  1.3384
 5822TIP3    H239102   1.207   1.849   4.242  0.9951  1.7709  0.0127
 5823TIP3   OH239103   4.521   3.928   4.677 -0.0553  0.4402 -0.1623
 5823TIP3    H139104   4.520   3.932   4.772  0.1579  1.3366 -0.1851
 5823TIP3    H239105   4.569   3.847   4.657  0.6035  0.6525  0.4924
 5824TIP3   OH239106   1.306   0.452   1.911  0.1255 -0.9807 -0.6772
 5824TIP3    H139107   1.284   0.395   1.985 -0.7216 -0.7412 -0.7415
 5824TIP3    H239108   1.347   0.529   1.951 -0.0146 -1.0038 -0.4898
 5825TIP3   OH239109   2.743   2.576   3.610  0.3337 -0.6275 -0.2785
 5825TIP3    H139110   2.768   2.558   3.701  2.0742 -0.2981 -0.6428
 5825TIP3    H239111   2.698   2.497   3.581  0.8265 -1.2172  0.5211
 5826TIP3   OH239112   0.226   4.082   1.740  0.3418 -0.4490  0.7595
 5826TIP3    H139113   0.313   4.118   1.758  0.7812 -1.4620  0.7133
 5826TIP3    H239114   0.176   4.102   1.819  0.9529 -0.8617  1.2674
 5827TIP3   OH239115   0.170   3.064   4.559  0.1441 -0.4253  0.6070
 5827TIP3    H139116   0.192   3.156   4.572 -1.7569  0.5690 -2.2801
 5827TIP3    H239117   0.246   3.016   4.593  2.3550  2.3257 -0.0876
 5828TIP3   OH239118   0.398   3.302   1.650 -0.1353 -0.2347  0.3209
 5828TIP3    H139119   0.395   3.320   1.556 -1.7860 -2.3200 -0.0946
 5828TIP3    H239120   0.357   3.379   1.690  0.4841  0.6335 -0.6409
 5829TIP3   OH239121   5.918   3.282   1.292  0.3862  0.4177  0.2881
 5829TIP3    H139122   5.879   3.361   1.329  0.3116 -0.2448  1.6908
 5829TIP3    H239123   5.978   3.251   1.360 -0.5795 -1.4555  0.3374
 5830TIP3   OH239124   5.514   4.533   3.749  0.0572 -0.4331 -0.2802
 5830TIP3    H139125   5.425   4.561   3.729  0.4541  1.2812  0.1840
 5830TIP3    H239126   5.556   4.611   3.785  2.3544 -0.5992 -2.3502
 5831TIP3   OH239127   1.051   5.876   3.532 -0.2932  0.9309  0.3200
 5831TIP3    H139128   1.013   5.800   3.575 -1.5873 -0.2901 -2.6640
 5831TIP3    H239129   0.977   5.933   3.514  0.2501  1.5744  0.0775
 5832TIP3   OH239130   5.003   1.840   1.131 -0.6251  0.2396 -0.3869
 5832TIP3    H139131   4.976   1.859   1.041 -1.2822 -0.4768 -0.3522
 5832TIP3    H239132   5.027   1.747   1.129 -0.1488  0.3458  0.0660
 5833TIP3   OH239133   6.460   6.732   2.064 -0.1486 -1.2181 -0.4282
 5833TIP3    H139134   6.469   6.641   2.037  2.9891 -0.6316 -1.7565
 5833TIP3    H239135   6.412   6.727   2.147  0.4352 -4.1387 -0.1377
 5834TIP3   OH239136   5.529   2.082   5.737 -0.2686 -0.1121 -0.0737
 5834TIP3    H139137   5.462   2.105   5.672 -0.5118 -0.2479  0.1289
 5834TIP3    H239138   5.566   2.167   5.763 -1.0949  0.0524  0.5941
 5835TIP3   OH239139   0.998   1.446   0.456 -0.4928 -0.1050 -0.0859
 5835TIP3    H139140   1.060   1.447   0.529  1.3249 -0.5792 -1.5438
 5835TIP3    H239141   0.923   1.395   0.489  1.1484 -2.1096  0.7882
 5836TIP3   OH239142   4.386   6.235   4.099 -0.3544 -0.0351  0.3568
 5836TIP3    H139143   4.382   6.140   4.108 -3.0227  0.0739  1.1459
 5836TIP3    H239144   4.358   6.252   4.009  1.7163 -0.0035 -0.3350
 5837TIP3   OH239145   2.893   6.274   2.306  0.1063  0.0672  0.5110
 5837TIP3    H139146   2.919   6.182   2.303  0.7706  0.2559  0.5448
 5837TIP3    H239147   2.906   6.300   2.397 -1.9497 -0.3320  0.9899
 5838TIP3   OH239148   6.505   1.788   0.559  0.3170  0.0600 -0.2180
 5838TIP3    H139149   6.533   1.873   0.525 -1.6328  1.6910  1.9584
 5838TIP3    H239150   6.580   1.757   0.610  0.6373  1.0242 -0.0865
 5839TIP3   OH239151   0.381   3.488   3.779 -0.2270 -0.5193  0.7257
 5839TIP3    H139152   0.433   3.471   3.857 -0.2411 -2.1820  0.4200
 5839TIP3    H239153   0.326   3.409   3.769 -0.0655 -0.4509 -1.0588
 5840TIP3   OH239154   2.937   3.674   0.448 -0.0267  0.2095 -0.6450
 5840TIP3    H139155   2.975   3.639   0.529  1.5501  0.2520 -1.3237
 5840TIP3    H239156   3.004   3.734   0.414 -1.7968  2.3422 -0.5912
 5841TIP3   OH239157   2.358   0.736   5.480 -0.0869  0.0364  0.3711
 5841TIP3    H139158   2.323   0.786   5.406 -0.2997  0.5227  0.7992
 5841TIP3    H239159   2.394   0.802   5.539 -1.3314 -0.2116  1.4651
 5842TIP3   OH239160   0.748   5.685   2.168  0.4795 -0.2534  0.0197
 5842TIP3    H139161   0.674   5.744   2.184  0.0618 -0.8606  0.3799
 5842TIP3    H239162   0.811   5.738   2.119  0.5049  0.7523  1.1155
 5843TIP3   OH239163   4.274   0.141   4.267  0.3132 -0.1535  0.1245
 5843TIP3    H139164   4.298   0.233   4.257 -0.2723  0.0884  0.9034
 5843TIP3    H239165   4.183   0.143   4.294 -0.1189 -1.0135 -1.2037
 5844TIP3   OH239166   4.424   1.903   3.127  0.1899 -0.2539 -0.5111
 5844TIP3    H139167   4.484   1.957   3.076 -0.1442  1.1832  0.5771
 5844TIP3    H239168   4.348   1.958   3.142 -0.4371 -1.2512  0.0924
 5845TIP3   OH239169   4.530   0.420   1.407 -0.3397 -0.0691  0.0677
 5845TIP3    H139170   4.576   0.341   1.378 -0.5346  0.0198 -0.4964
 5845TIP3    H239171   4.588   0.458   1.474  0.0286 -0.3784 -0.0687
 5846TIP3   OH239172   5.330   5.293   4.752  0.1976  0.4080  0.2482
 5846TIP3    H139173   5.310   5.213   4.800 -0.3801  0.2081 -0.3205
 5846TIP3    H239174   5.282   5.285   4.670  0.4914  1.1369 -0.0037
 5847TIP3   OH239175   3.488   0.996   3.741  0.4290 -0.2601  0.2100
 5847TIP3    H139176   3.518   1.085   3.725  2.5655 -0.8998  0.3652
 5847TIP3    H239177   3.437   0.974   3.663 -2.7380  2.0331  1.3943
 5848TIP3   OH239178   0.418   1.480   3.207  0.1626 -0.3111 -0.6013
 5848TIP3    H139179   0.463   1.498   3.125  0.2600  0.1366 -0.4520
 5848TIP3    H239180   0.334   1.443   3.181  0.2800 -0.3711 -0.8974
 5849TIP3   OH239181   4.293   5.164   2.057  0.4247  0.5765  0.0537
 5849TIP3    H139182   4.317   5.205   2.140  0.3046 -0.0363  0.3987
 5849TIP3    H239183   4.279   5.238   1.997  0.1611  1.0410  0.6700
 5850TIP3   OH239184   3.698   1.437   1.350  0.9844 -0.3014 -0.0873
 5850TIP3    H139185   3.765   1.445   1.282 -1.2897  1.6864 -2.2498
 5850TIP3    H239186   3.694   1.523   1.391  0.8526 -0.8905  1.2113
 5851TIP3   OH239187   2.874   3.527   0.172 -0.6402 -0.2780  0.4344
 5851TIP3    H139188   2.783   3.503   0.190 -1.0808 -0.3374 -1.6504
 5851TIP3    H239189   2.899   3.473   0.098  0.4914  1.0357 -0.1848
 5852TIP3   OH239190   4.543   2.260   1.635 -0.6301  0.8474  0.4060
 5852TIP3    H139191   4.550   2.164   1.641  1.8288  0.6460 -2.7537
 5852TIP3    H239192   4.461   2.275   1.587 -0.1788  0.1656 -0.6207
 5853TIP3   OH239193   2.891   3.279   2.701 -0.3925  0.3041  0.3777
 5853TIP3    H139194   2.875   3.354   2.644 -1.9658 -1.4981 -1.7008
 5853TIP3    H239195   2.832   3.292   2.775 -0.5988  1.1312  0.0764
 5854TIP3   OH239196   2.069   6.404   1.405  0.4972 -0.0395  0.2824
 5854TIP3    H139197   1.988   6.399   1.455  0.6669 -3.3175  0.4720
 5854TIP3    H239198   2.042   6.436   1.319 -0.9133 -0.4546  0.5415
 5855TIP3   OH239199   3.981   5.107   1.786  0.2146 -0.5937  0.1296
 5855TIP3    H139200   3.906   5.049   1.796  1.2051 -2.3210 -1.7547
 5855TIP3    H239201   4.057   5.052   1.808  1.1361  0.1948 -0.9664
 5856TIP3   OH239202   0.206   4.372   1.654 -0.1027 -0.5660 -0.3135
 5856TIP3    H139203   0.181   4.304   1.715  0.0712 -1.1797 -0.9124
 5856TIP3    H239204   0.211   4.328   1.569 -0.1593  0.2260 -0.7412
 5857TIP3   OH239205   3.525   0.796   3.395  0.0103  0.1673 -0.0738
 5857TIP3    H139206   3.520   0.733   3.323  1.7884  0.6665 -0.6980
 5857TIP3    H239207   3.600   0.768   3.447  0.4032  1.3386  0.0395
 5858TIP3   OH239208   6.014   2.385   1.800 -0.3855  0.7209 -0.4377
 5858TIP3    H139209   6.079   2.393   1.731 -0.1905  1.0767 -0.2172
 5858TIP3    H239210   5.934   2.423   1.762 -1.3762 -2.3835 -1.8183
 5859TIP3   OH239211   6.172   2.994   1.291  0.1529  0.0975 -0.9116
 5859TIP3    H139212   6.267   2.990   1.298  0.0760 -1.3293 -0.3770
 5859TIP3    H239213   6.155   3.078   1.249  1.5058  1.6506  1.4241
 5860TIP3   OH239214   0.782   0.114   4.176 -0.3545 -0.0595 -0.3746
 5860TIP3    H139215   0.770   0.192   4.230 -1.0867 -0.5868  0.2438
 5860TIP3    H239216   0.832   0.054   4.231  0.8878  0.2401 -1.1256
 5861TIP3   OH239217   2.285   4.474   1.354 -0.2626 -0.1028 -0.2381
 5861TIP3    H139218   2.325   4.506   1.436 -1.4479  2.5003 -0.5869
 5861TIP3    H239219   2.244   4.392   1.379  1.6243 -0.7161  1.1324
 5862TIP3   OH239220   1.458   1.433   3.212 -0.3282 -0.0125  0.1598
 5862TIP3    H139221   1.517   1.360   3.193 -0.8104 -0.3076 -0.2558
 5862TIP3    H239222   1.457   1.440   3.307 -0.4467 -0.6990  0.2116
 5863TIP3   OH239223   2.718   5.647   3.929 -0.7243 -0.2401 -0.3965
 5863TIP3    H139224   2.674   5.687   3.854 -0.3862 -1.0491 -1.0461
 5863TIP3    H239225   2.793   5.602   3.891  0.2278  0.4765  0.6081
 5864TIP3   OH239226   3.823   5.502   5.053  0.7242 -0.0708  0.2281
 5864TIP3    H139227   3.873   5.472   4.977 -1.5368 -0.7638 -1.0773
 5864TIP3    H239228   3.748   5.443   5.058  0.1825  0.6839  2.3261
 5865TIP3   OH239229   5.453   6.192   3.674  0.1624  0.4222 -0.5530
 5865TIP3    H139230   5.370   6.197   3.721  0.4507 -2.1541  0.3745
 5865TIP3    H239231   5.517   6.164   3.740  0.9884 -1.2437 -1.9694
 5866TIP3   OH239232   3.906   3.896   3.284 -0.3477 -0.5136  0.4005
 5866TIP3    H139233   3.931   3.863   3.371  0.7486 -0.7716  0.0076
 5866TIP3    H239234   3.960   3.845   3.223  0.4924  1.1466 -0.3059
 5867TIP3   OH239235   4.264   4.816   5.495  0.2079 -0.2076  0.5890
 5867TIP3    H139236   4.232   4.819   5.585  1.0796  0.3955  0.8936
 5867TIP3    H239237   4.203   4.871   5.446 -0.5996 -0.9927  0.6861
 5868TIP3   OH239238   2.610   2.622   2.102 -0.1332 -0.2618  0.3175
 5868TIP3    H139239   2.664   2.565   2.157 -0.7145 -1.4708 -0.3449
 5868TIP3    H239240   2.673   2.676   2.054  0.5026 -1.6542 -0.4517
 5869TIP3   OH239241   4.412   4.768   4.777 -0.0485  0.8400  0.4844
 5869TIP3    H139242   4.335   4.824   4.786  0.7503  2.4084 -1.4552
 5869TIP3    H239243   4.486   4.828   4.789  0.8315  0.0045 -0.5435
 5870TIP3   OH239244   5.146   5.093   3.836  0.4507  0.5252  0.6622
 5870TIP3    H139245   5.148   5.117   3.743 -1.3030 -1.6272 -0.0037
 5870TIP3    H239246   5.233   5.058   3.854  0.3261 -0.5046 -0.6156
 5871TIP3   OH239247   3.140   5.328   0.846 -0.6918 -0.5778 -0.1797
 5871TIP3    H139248   3.082   5.264   0.806 -2.8091  1.4286 -0.5507
 5871TIP3    H239249   3.082   5.399   0.875  1.4322  0.8891  0.8220
 5872TIP3   OH239250   0.364   5.901   2.854 -1.1260 -0.2743  0.4687
 5872TIP3    H139251   0.325   5.974   2.901 -0.1059 -0.2779  1.3811
 5872TIP3    H239252   0.410   5.941   2.780 -1.1996 -0.0709  0.5341
 5873TIP3   OH239253   5.451   5.479   2.881  0.3765 -0.1556  0.2843
 5873TIP3    H139254   5.494   5.525   2.809 -0.0481  2.4094  1.5451
 5873TIP3    H239255   5.363   5.461   2.849  0.4863  0.1078 -0.1774
 5874TIP3   OH239256   1.911   6.763   1.107 -0.0541  0.1448 -0.1524
 5874TIP3    H139257   1.882   6.756   1.017  0.2959  2.4113 -0.5059
 5874TIP3    H239258   1.915   6.857   1.124 -0.8364 -0.2042  2.4780
 5875TIP3   OH239259   2.523   1.414   0.523  0.3168 -0.7654 -0.2896
 5875TIP3    H139260   2.451   1.450   0.471  0.3479  2.0137  1.3666
 5875TIP3    H239261   2.482   1.387   0.605  0.7987 -1.6752 -0.3362
 5876TIP3   OH239262   2.129   0.020   5.203  0.1650  0.0914  0.0477
 5876TIP3    H139263   2.101  -0.057   5.154  1.3161 -0.4024  0.1326
 5876TIP3    H239264   2.048   0.061   5.233 -0.4763 -2.2990  1.8666
 5877TIP3   OH239265   6.238   6.139   3.905 -1.1700  1.0983 -0.5512
 5877TIP3    H139266   6.270   6.141   3.995  0.4126  0.9149 -1.0873
 5877TIP3    H239267   6.189   6.221   3.895 -1.9080  0.8349  0.6419
 5878TIP3   OH239268   0.935   1.449   0.779 -0.1561 -0.1380  0.0035
 5878TIP3    H139269   1.005   1.444   0.844  0.9057 -1.3526 -1.1777
 5878TIP3    H239270   0.914   1.357   0.760 -0.1739  0.1826 -1.6229
 5879TIP3   OH239271   5.762   0.565   3.187 -0.1059  0.4096  0.1252
 5879TIP3    H139272   5.748   0.643   3.134 -2.2850 -0.2621 -0.3647
 5879TIP3    H239273   5.837   0.522   3.146  1.2854  2.2881  0.5396
 5880TIP3   OH239274   4.498   6.540   3.880 -0.2909 -0.2992 -0.5219
 5880TIP3    H139275   4.567   6.480   3.908 -1.7611 -1.9472 -0.2736
 5880TIP3    H239276   4.491   6.604   3.951 -0.8375 -1.7264  0.7459
 5881TIP3   OH239277   0.683   0.844   2.200  0.4900 -0.5779  0.0514
 5881TIP3    H139278   0.687   0.748   2.205  0.0369 -0.5507  2.3731
 5881TIP3    H239279   0.730   0.866   2.120  2.1138 -2.6561  0.3403
 5882TIP3   OH239280   4.519   3.947   4.986  0.1577  0.2743 -0.1968
 5882TIP3    H139281   4.532   3.855   5.008  1.5836  0.1872 -1.2020
 5882TIP3    H239282   4.494   3.989   5.068  4.1923 -0.1688  1.5295
 5883TIP3   OH239283   1.422   1.424   3.498  0.2172  1.0000 -0.1252
 5883TIP3    H139284   1.334   1.458   3.477  0.1795  0.7302 -0.4237
 5883TIP3    H239285   1.417   1.331   3.476  1.1326  1.3422 -1.9550
 5884TIP3   OH239286   3.754   1.909   4.811 -0.0451  0.3843  0.4182
 5884TIP3    H139287   3.666   1.927   4.778  0.1934 -1.3752 -1.3454
 5884TIP3    H239288   3.801   1.992   4.800 -1.1374  1.0060  0.2751
 5885TIP3   OH239289   0.412   1.375   1.589 -0.0501 -0.0218 -0.2335
 5885TIP3    H139290   0.335   1.355   1.641  0.8329  1.8973  2.0513
 5885TIP3    H239291   0.397   1.465   1.558  0.1721 -0.5549 -2.0117
 5886TIP3   OH239292   3.443   2.715   1.040  0.2138 -0.2578 -0.2871
 5886TIP3    H139293   3.509   2.647   1.050 -0.1805 -0.5217  0.6667
 5886TIP3    H239294   3.359   2.669   1.048 -0.0676  0.2395 -0.2942
 5887TIP3   OH239295   1.288   2.617   4.238  0.0771  0.0042  0.0509
 5887TIP3    H139296   1.302   2.688   4.300  0.8819 -0.3354  0.2783
 5887TIP3    H239297   1.195   2.596   4.245 -0.0471  0.6507  0.3951
 5888TIP3   OH239298   3.420   2.911   2.715 -0.2301  0.5171  0.0169
 5888TIP3    H139299   3.335   2.868   2.726 -0.0538  0.5488  1.8087
 5888TIP3    H239300   3.484   2.840   2.723 -0.0071  0.8369  1.3437
 5889TIP3   OH239301   3.831   1.828   4.451 -0.1031  0.2746  0.1781
 5889TIP3    H139302   3.901   1.808   4.514 -1.7186  0.1027  2.0097
 5889TIP3    H239303   3.821   1.923   4.457  1.5455  0.6503 -1.9057
 5890TIP3   OH239304   6.583   1.771   2.185  0.0427  0.2702 -0.0203
 5890TIP3    H139305   6.546   1.842   2.237  1.2272  0.0730  1.1190
 5890TIP3    H239306   6.616   1.814   2.106 -1.5935  0.5900 -0.5838
 5891TIP3   OH239307   1.805   1.231   2.144 -0.1149 -0.4806  0.0658
 5891TIP3    H139308   1.806   1.233   2.048 -2.7562 -0.4752 -0.0585
 5891TIP3    H239309   1.765   1.146   2.166  0.3311 -0.4275  1.1546
 5892TIP3   OH239310   5.034   5.491   3.513  0.1711 -0.1635  0.3309
 5892TIP3    H139311   5.128   5.473   3.507  0.5811  1.9876 -0.3579
 5892TIP3    H239312   5.014   5.544   3.436 -1.3941  0.2989  1.0073
 5893TIP3   OH239313   2.614   4.849   4.142 -0.0644 -0.1012 -0.3057
 5893TIP3    H139314   2.607   4.932   4.188  0.0709 -0.9890  1.3749
 5893TIP3    H239315   2.532   4.841   4.094 -1.5108 -0.4628  2.0924
 5894TIP3   OH239316   6.114   0.491   2.450 -0.3842 -0.7841 -0.1462
 5894TIP3    H139317   6.112   0.403   2.413 -0.3372 -0.9097  0.1465
 5894TIP3    H239318   6.025   0.524   2.439 -0.1531 -0.4800 -1.1775
 5895TIP3   OH239319   1.457   0.995   1.939  0.3817 -0.4396 -0.1714
 5895TIP3    H139320   1.551   0.978   1.930  0.4077 -1.7958  2.0566
 5895TIP3    H239321   1.444   1.008   2.033 -1.2670  2.5499 -0.6701
 5896TIP3   OH239322   2.375   1.586   2.829 -0.0590  0.0487 -1.5040
 5896TIP3    H139323   2.442   1.655   2.821 -1.4273  1.7259  0.5191
 5896TIP3    H239324   2.417   1.518   2.882  0.4375  0.5273 -1.2759
 5897TIP3   OH239325   0.328   1.930   4.415 -0.5877 -0.1683 -0.4343
 5897TIP3    H139326   0.309   1.864   4.348  0.2619  0.4305 -1.2839
 5897TIP3    H239327   0.309   1.886   4.498  1.2052 -1.9243 -0.8934
 5898TIP3   OH239328   3.650   2.176   3.213  0.1000  0.6380  0.0483
 5898TIP3    H139329   3.651   2.139   3.125  2.6506 -1.6941  0.9194
 5898TIP3    H239330   3.728   2.140   3.256 -0.3077  2.7196  2.8722
 5899TIP3   OH239331   0.181   5.973   3.830 -0.3593  0.5498 -0.1803
 5899TIP3    H139332   0.250   5.967   3.763 -0.3180  0.7728 -0.1592
 5899TIP3    H239333   0.117   6.035   3.793  0.2058  1.5470  0.4590
 5900TIP3   OH239334   0.595   6.032   2.430  0.3439 -0.2842 -0.3954
 5900TIP3    H139335   0.592   6.123   2.459 -1.9323 -0.3212 -0.3763
 5900TIP3    H239336   0.657   5.990   2.491 -1.6868  0.3828  2.3160
 5901TIP3   OH239337   4.563   1.906   5.632  0.7723  0.3695 -0.2312
 5901TIP3    H139338   4.529   1.828   5.588 -0.3890  1.2226 -0.9075
 5901TIP3    H239339   4.494   1.971   5.623  0.4919  0.6456  2.8208
 5902TIP3   OH239340   3.631   3.821   1.214  0.1152  0.0498  0.2252
 5902TIP3    H139341   3.575   3.882   1.168  1.2211  0.1900 -0.9912
 5902TIP3    H239342   3.597   3.820   1.304 -2.4612 -0.6803 -0.6828
 5903TIP3   OH239343   2.923   1.265   4.196  0.5519 -0.0811  0.0290
 5903TIP3    H139344   2.943   1.243   4.287  0.4662  0.4007  0.1683
 5903TIP3    H239345   2.837   1.225   4.180  0.1185  0.6411  0.4667
 5904TIP3   OH239346   3.111   1.341   0.835 -0.1570  0.1347  0.0009
 5904TIP3    H139347   3.079   1.327   0.746  0.8799 -0.7260 -0.2703
 5904TIP3    H239348   3.053   1.407   0.873 -1.8120 -0.9139 -0.6483
 5905TIP3   OH239349   5.748   5.637   2.893  0.8343 -0.6089  0.5104
 5905TIP3    H139350   5.764   5.555   2.940 -1.1277 -1.1267  0.3994
 5905TIP3    H239351   5.756   5.613   2.800  1.2918 -0.4215  0.5017
 5906TIP3   OH239352   6.620   3.269   4.668 -0.6122  0.5484  0.1195
 5906TIP3    H139353   6.532   3.283   4.701 -0.5176  0.2239  0.5142
 5906TIP3    H239354   6.626   3.175   4.653 -1.1586  0.8314 -2.2915
 5907TIP3   OH239355   5.984   3.525   3.465  0.2208  0.9627 -0.4895
 5907TIP3    H139356   6.062   3.580   3.468  0.7019  0.2591  0.7690
 5907TIP3    H239357   5.916   3.581   3.428  1.0562  1.9304 -0.6001
 5908TIP3   OH239358   0.757   6.005   1.214  0.2886  0.0078  0.2288
 5908TIP3    H139359   0.828   6.039   1.160 -0.4256 -2.7059 -2.8077
 5908TIP3    H239360   0.697   6.078   1.224  1.0605  0.9885 -1.7227
 5909TIP3   OH239361   5.409   1.739   3.197  0.6518 -0.3650 -0.5044
 5909TIP3    H139362   5.313   1.735   3.195  0.6022  0.8702 -1.8784
 5909TIP3    H239363   5.429   1.789   3.277  0.1075  0.2380 -0.7411
 5910TIP3   OH239364   0.194   3.675   3.224 -0.3079 -0.2276 -0.0754
 5910TIP3    H139365   0.189   3.585   3.194 -1.5564 -0.2617  0.1621
 5910TIP3    H239366   0.264   3.715   3.172  3.6953 -2.4847  2.9555
 5911TIP3   OH239367   5.918   1.091   4.657  0.0849 -0.1749 -0.1661
 5911TIP3    H139368   5.902   0.998   4.646  1.8673 -0.8944  2.2862
 5911TIP3    H239369   5.983   1.112   4.590 -0.6454 -0.5600 -1.0134
 5912TIP3   OH239370   0.974   3.540   4.799 -0.0737 -0.5186  0.5827
 5912TIP3    H139371   1.056   3.588   4.811 -0.1327 -0.7269  1.9440
 5912TIP3    H239372   0.984   3.496   4.715  2.0150 -2.0483  1.5339
 5913TIP3   OH239373   4.237   2.567   3.294 -0.0691  0.1290  0.7212
 5913TIP3    H139374   4.322   2.611   3.283  0.2489  0.1434  2.8435
 5913TIP3    H239375   4.174   2.626   3.253  0.6768  1.3075  1.2094
 5914TIP3   OH239376   0.152   5.535   2.178  0.8712  0.6611 -0.0900
 5914TIP3    H139377   0.177   5.620   2.215 -0.2326  0.8914  0.1751
 5914TIP3    H239378   0.204   5.472   2.227  2.2842  1.2159 -0.8205
 5915TIP3   OH239379   4.410   2.096   4.185  0.1925  0.1511  0.4920
 5915TIP3    H139380   4.369   2.087   4.271  0.1586  1.5135  0.6338
 5915TIP3    H239381   4.382   2.017   4.137  1.5962 -1.5013  2.2570
 5916TIP3   OH239382   5.381   2.730   2.248 -0.9805 -0.2150 -0.0857
 5916TIP3    H139383   5.356   2.637   2.243 -1.0388 -0.1906 -0.2389
 5916TIP3    H239384   5.447   2.733   2.317 -0.9765 -0.3720 -0.0819
 5917TIP3   OH239385   1.265   0.770   2.467 -0.3212 -0.0171 -0.1078
 5917TIP3    H139386   1.232   0.802   2.551 -1.2786  0.3346 -0.5974
 5917TIP3    H239387   1.223   0.828   2.402  1.7988  0.9003 -0.7334
 5918TIP3   OH239388   2.363   2.014   1.442  0.5763  0.4792 -0.1668
 5918TIP3    H139389   2.340   1.979   1.528  0.7825 -0.5851 -0.5319
 5918TIP3    H239390   2.325   2.102   1.441  0.6489  0.5446  1.0443
 5919TIP3   OH239391   3.989   0.595   2.939  0.8802 -0.1129  0.0052
 5919TIP3    H139392   4.018   0.670   2.991 -1.9252  1.4421 -0.4368
 5919TIP3    H239393   4.024   0.612   2.851 -0.9773  1.6412 -0.4866
 5920TIP3   OH239394   1.801   2.475   2.537 -0.3083  0.0465  0.1136
 5920TIP3    H139395   1.790   2.477   2.632 -1.4336 -1.7527  0.0820
 5920TIP3    H239396   1.881   2.425   2.523 -0.6661 -0.5343  0.1140
 5921TIP3   OH239397   6.243   0.395   2.879 -0.4974 -0.6650  0.1402
 5921TIP3    H139398   6.199   0.322   2.923 -1.4426 -1.2683 -1.6776
 5921TIP3    H239399   6.186   0.416   2.805 -0.3776  2.1158  0.7333
 5922TIP3   OH239400   5.759   6.303   4.313 -0.1569 -0.3812  0.4760
 5922TIP3    H139401   5.726   6.302   4.223  0.6590  2.4608  0.0683
 5922TIP3    H239402   5.811   6.223   4.320 -0.6374 -0.9128 -1.3915
 5923TIP3   OH239403   1.771   4.739   2.117 -0.2040  0.0203  0.4556
 5923TIP3    H139404   1.777   4.689   2.036  1.8049  0.0085  0.5608
 5923TIP3    H239405   1.859   4.777   2.128 -1.0433  1.7607  1.5196
 5924TIP3   OH239406   0.565   1.322   4.835  0.2212 -0.1497  0.2555
 5924TIP3    H139407   0.536   1.377   4.907  0.4278 -1.4675  1.3730
 5924TIP3    H239408   0.609   1.383   4.775  1.6646  0.7372  2.0913
 5925TIP3   OH239409   2.555   2.976   0.707  0.1432 -0.1757  0.0394
 5925TIP3    H139410   2.603   2.916   0.764 -0.2533  0.8835  1.5315
 5925TIP3    H239411   2.465   2.976   0.741 -0.2656 -0.0216 -0.9955
 5926TIP3   OH239412   1.584   3.729   4.016 -0.8422 -0.0932 -0.0940
 5926TIP3    H139413   1.649   3.789   3.979  1.0104 -1.4727  0.7342
 5926TIP3    H239414   1.511   3.785   4.042  0.6593  1.7571  0.3175
 5927TIP3   OH239415   4.938   2.015   1.387  0.2430  0.4618  0.3363
 5927TIP3    H139416   4.992   1.958   1.332 -1.7520 -0.5681 -0.6679
 5927TIP3    H239417   4.927   1.966   1.468  1.5237  1.0749  0.8928
 5928TIP3   OH239418   4.784   0.728   3.540 -0.4598 -0.0747 -0.0579
 5928TIP3    H139419   4.871   0.704   3.509  0.4728  0.9937  1.5552
 5928TIP3    H239420   4.765   0.663   3.607 -0.7475 -0.1060 -0.1718
 5929TIP3   OH239421   0.707   1.707   4.348 -0.0556 -0.6972 -0.5582
 5929TIP3    H139422   0.651   1.642   4.391 -0.5057  0.3429  0.4611
 5929TIP3    H239423   0.700   1.785   4.402  0.7671  0.1057 -1.5661
 5930TIP3   OH239424   6.329   6.737   2.822  0.1940 -0.4376  0.1404
 5930TIP3    H139425   6.349   6.752   2.915 -0.2965  0.4481  0.1133
 5930TIP3    H239426   6.248   6.686   2.823 -0.1725  0.1388  0.1975
 5931TIP3   OH239427   2.653   3.315   1.197 -0.5581 -0.2841  0.4556
 5931TIP3    H139428   2.661   3.396   1.146  0.6268 -1.1575 -0.8118
 5931TIP3    H239429   2.572   3.274   1.165 -2.0417  1.0931  2.2189
 5932TIP3   OH239430   3.310   5.409   3.519 -0.1404  0.4744 -0.4525
 5932TIP3    H139431   3.395   5.441   3.489 -0.6579  0.2715 -2.2339
 5932TIP3    H239432   3.330   5.353   3.593  1.3920 -0.3772 -1.4719
 5933TIP3   OH239433   1.837   0.616   4.761 -0.3151 -0.0254  0.5846
 5933TIP3    H139434   1.902   0.684   4.747  1.3528 -1.8493 -1.2180
 5933TIP3    H239435   1.780   0.620   4.684  0.1836 -1.0215  0.1410
 5934TIP3   OH239436   1.779   0.920   3.339 -0.0905 -0.3935  0.4105
 5934TIP3    H139437   1.841   0.989   3.362  0.7068 -0.4610 -1.4322
 5934TIP3    H239438   1.809   0.843   3.387  0.6977 -0.1791  0.2670
 5935TIP3   OH239439   5.956   5.285   2.883 -0.2448 -0.7186 -0.6320
 5935TIP3    H139440   5.899   5.233   2.826 -0.1471 -0.7818 -0.6712
 5935TIP3    H239441   5.999   5.221   2.939  0.2086 -0.7112 -0.9770
 5936TIP3   OH239442   4.945   4.682   2.153 -0.8857  0.2778  0.2700
 5936TIP3    H139443   4.901   4.641   2.079 -2.5762  1.7726  0.3768
 5936TIP3    H239444   4.953   4.612   2.218  0.0014 -0.8753 -1.0318
 5937TIP3   OH239445   4.961   0.617   1.323 -0.1944  0.6388  0.0998
 5937TIP3    H139446   4.979   0.700   1.367 -1.2330  0.6335  0.5743
 5937TIP3    H239447   4.966   0.638   1.229  1.4592  0.7796  0.2047
 5938TIP3   OH239448   3.633   1.117   4.613 -0.3907 -0.6796 -0.1421
 5938TIP3    H139449   3.604   1.063   4.686 -0.1553 -0.1682  0.3405
 5938TIP3    H239450   3.621   1.062   4.535 -1.1415 -1.0382  0.2207
 5939TIP3   OH239451   4.713   1.159   1.651  0.0804  0.1614  0.5988
 5939TIP3    H139452   4.715   1.114   1.566 -0.1514 -1.7473  1.5457
 5939TIP3    H239453   4.625   1.143   1.685  0.9384 -1.4089  2.3040
 5940TIP3   OH239454   3.573   2.172   4.192  0.0784  0.0511  0.2420
 5940TIP3    H139455   3.659   2.149   4.159 -0.8943 -1.8153 -1.2039
 5940TIP3    H239456   3.573   2.268   4.194  3.2307  0.1902  3.4026
 5941TIP3   OH239457   1.034   0.078   4.993 -0.4926  0.2894 -0.3105
 5941TIP3    H139458   0.952   0.121   4.970 -1.7484 -1.4304  0.6958
 5941TIP3    H239459   1.069   0.130   5.065 -0.6713  1.0549 -0.7665
 5942TIP3   OH239460   3.291   4.837   4.235 -0.7011  0.3200  0.3205
 5942TIP3    H139461   3.208   4.884   4.246  0.2699  2.1016  0.4146
 5942TIP3    H239462   3.307   4.838   4.140 -0.7916 -0.0721  0.2965
 5943TIP3   OH239463   6.132   6.305   3.089  0.1173  0.3640  0.5921
 5943TIP3    H139464   6.126   6.211   3.107  0.8300  0.5613  1.9911
 5943TIP3    H239465   6.156   6.311   2.996 -3.3122 -0.7410 -0.5218
 5944TIP3   OH239466   4.042   2.985   4.909  0.0680 -0.0027  0.3877
 5944TIP3    H139467   4.040   2.928   4.986  1.7427 -0.2019  0.3309
 5944TIP3    H239468   4.129   2.971   4.872  0.1980  1.9376 -0.1429
 5945TIP3   OH239469   3.909   0.973   1.521 -0.4607 -0.1807  0.0283
 5945TIP3    H139470   3.870   1.056   1.493  0.2390 -0.2473 -1.2238
 5945TIP3    H239471   3.845   0.906   1.496 -1.2124 -0.0232  1.4078
 5946TIP3   OH239472   1.647   5.965   3.919 -0.4111  0.0009 -0.0204
 5946TIP3    H139473   1.707   5.996   3.987 -0.9873 -0.9688  0.9774
 5946TIP3    H239474   1.606   6.044   3.885  0.7519  0.6039 -0.0896
 5947TIP3   OH239475   3.620   3.249   2.027  0.0823  0.3402 -0.4261
 5947TIP3    H139476   3.568   3.200   2.091 -0.9545  0.5359 -1.0970
 5947TIP3    H239477   3.587   3.339   2.033 -0.4903  0.2341 -1.6842
 5948TIP3   OH239478   5.194   5.224   3.142 -0.0868  0.0686 -0.1530
 5948TIP3    H139479   5.266   5.288   3.143  0.2975 -0.2854 -1.7136
 5948TIP3    H239480   5.230   5.147   3.185 -0.7349  1.0253  2.2507
 5949TIP3   OH239481   3.196   6.308   2.113 -0.0516 -0.2388 -0.2170
 5949TIP3    H139482   3.210   6.241   2.047  0.9583 -1.8266  1.5060
 5949TIP3    H239483   3.106   6.336   2.100 -0.0434 -0.8682 -1.8998
 5950TIP3   OH239484   2.098   6.517   0.134  0.2358 -0.0853 -0.1911
 5950TIP3    H139485   2.094   6.584   0.203 -1.1320 -0.3539  0.0359
 5950TIP3    H239486   2.185   6.480   0.141  0.7519  1.1361  0.2000
 5951TIP3   OH239487   5.056   2.359   4.803 -0.4091 -0.1617  0.1359
 5951TIP3    H139488   5.121   2.310   4.753 -2.9777 -0.5507 -3.2578
 5951TIP3    H239489   5.025   2.297   4.869 -0.3511 -1.5525 -1.0869
 5952TIP3   OH239490   4.561   3.414   2.943  0.0925  0.7124 -0.1683
 5952TIP3    H139491   4.474   3.453   2.942 -0.3586  0.1970  3.7921
 5952TIP3    H239492   4.552   3.334   2.891 -1.8435  0.6601  0.1983
 5953TIP3   OH239493   5.919   1.027   1.651  1.0424  0.0171  0.7864
 5953TIP3    H139494   5.859   0.953   1.655  2.2537 -1.0342  0.3422
 5953TIP3    H239495   5.896   1.072   1.570  2.5390 -1.9501 -0.8422
 5954TIP3   OH239496   3.170   2.670   3.425 -0.0394 -0.0760  0.1499
 5954TIP3    H139497   3.155   2.753   3.381  0.7503  0.4153  0.7788
 5954TIP3    H239498   3.152   2.687   3.517 -1.3874 -1.0193  0.1007
 5955TIP3   OH239499   5.105   0.900   3.701 -0.4238  0.1875  0.7897
 5955TIP3    H139500   5.079   0.813   3.732 -1.0269 -1.1609 -3.0041
 5955TIP3    H239501   5.022   0.945   3.682 -0.0971  0.7918  0.7699
 5956TIP3   OH239502   2.572   2.089   1.287 -0.1664  0.4886 -0.4519
 5956TIP3    H139503   2.522   2.152   1.234 -0.8124 -0.3830 -0.9003
 5956TIP3    H239504   2.517   2.072   1.362  0.2694  0.8886 -0.0335
 5957TIP3   OH239505   0.469   6.465   3.432 -0.1688  0.2271  0.0021
 5957TIP3    H139506   0.384   6.506   3.415 -0.6454 -0.0712  1.5046
 5957TIP3    H239507   0.518   6.531   3.481  0.9483  0.8487 -1.8411
 5958TIP3   OH239508   1.712   5.166   3.221 -0.9734  0.2822 -0.0701
 5958TIP3    H139509   1.727   5.224   3.147 -0.4986  0.8050  0.4294
 5958TIP3    H239510   1.678   5.223   3.290  0.7808  0.2322  0.8705
 5959TIP3   OH239511   0.689   2.212   4.302  0.1619 -0.4652 -0.5285
 5959TIP3    H139512   0.777   2.238   4.329 -0.2836  0.2717  0.2623
 5959TIP3    H239513   0.683   2.238   4.210 -0.0106  1.6339  0.0292
 5960TIP3   OH239514   4.204   1.490   3.258  0.1674 -0.0254  0.2367
 5960TIP3    H139515   4.236   1.415   3.207 -0.3085  0.3032 -0.5604
 5960TIP3    H239516   4.112   1.470   3.275  0.4097 -0.2945  1.2846
 5961TIP3   OH239517   5.414   6.450   5.463 -0.0329  0.0731 -0.6722
 5961TIP3    H139518   5.487   6.487   5.413  0.6122  0.1370  0.2932
 5961TIP3    H239519   5.397   6.365   5.423  1.6850 -0.6944  0.0992
 5962TIP3   OH239520   5.971   0.547   4.575  0.0999  0.2152  0.1661
 5962TIP3    H139521   6.008   0.487   4.641 -1.1572  0.0326  0.7298
 5962TIP3    H239522   5.881   0.518   4.564 -0.0340  0.9607 -0.8215
 5963TIP3   OH239523   0.884   6.705   3.448  0.2307 -0.1087 -0.1160
 5963TIP3    H139524   0.807   6.753   3.479 -0.4564 -0.3362 -1.4351
 5963TIP3    H239525   0.893   6.632   3.508 -0.9933 -0.4620 -0.3449
 5964TIP3   OH239526   0.597   3.784   1.242  0.2242  0.3967 -0.0974
 5964TIP3    H139527   0.569   3.871   1.270  0.1851 -0.3134  2.3335
 5964TIP3    H239528   0.543   3.724   1.293 -0.1772 -1.0977 -2.1602
 5965TIP3   OH239529   6.419   2.890   2.616 -0.2565 -0.5632 -0.2196
 5965TIP3    H139530   6.380   2.913   2.700  2.7265  0.2541  1.0704
 5965TIP3    H239531   6.514   2.896   2.630  0.4058 -1.2010 -3.4299
 5966TIP3   OH239532   0.786   2.773   3.726  0.2206 -0.7013 -0.2708
 5966TIP3    H139533   0.761   2.703   3.786 -0.9096  1.8998  2.5401
 5966TIP3    H239534   0.850   2.825   3.775  1.6201 -0.1199 -2.5561
 5967TIP3   OH239535   2.475   4.409   3.267 -0.1280  0.2237  0.2254
 5967TIP3    H139536   2.460   4.497   3.302 -1.0452 -1.0764  3.5505
 5967TIP3    H239537   2.557   4.415   3.219 -0.0787  2.8439  0.5303
 5968TIP3   OH239538   2.554   6.071   4.429 -0.0014  0.1024 -0.5600
 5968TIP3    H139539   2.534   6.016   4.353  0.8216 -0.7346 -0.1967
 5968TIP3    H239540   2.629   6.028   4.470  1.5239  2.2148 -0.9808
 5969TIP3   OH239541   0.108   1.016   4.078  0.1151 -0.1929 -0.1595
 5969TIP3    H139542   0.037   0.970   4.034  0.6751 -0.4469 -0.8272
 5969TIP3    H239543   0.110   0.980   4.167  0.0919 -0.9573 -0.4606
 5970TIP3   OH239544   2.875   4.788   3.056  0.0216  0.4402 -0.1814
 5970TIP3    H139545   2.808   4.843   3.095 -1.4021  0.2529 -2.2124
 5970TIP3    H239546   2.958   4.828   3.083 -0.8082  0.2887  2.9443
 5971TIP3   OH239547   5.103   3.282   0.806  0.0819 -0.1265 -0.3566
 5971TIP3    H139548   5.009   3.262   0.797 -0.5363  2.4939 -0.3686
 5971TIP3    H239549   5.106   3.355   0.867  2.4033 -1.9213  1.8506
 5972TIP3   OH239550   0.708   5.816   4.162 -0.0430  0.1741 -0.0489
 5972TIP3    H139551   0.614   5.831   4.161  0.2223  2.4033  1.4764
 5972TIP3    H239552   0.742   5.869   4.090  0.2859  2.0898  1.4233
 5973TIP3   OH239553   4.153   5.711   5.032  0.3466  0.3326 -0.0368
 5973TIP3    H139554   4.201   5.628   5.041  1.2034  0.5895 -1.7776
 5973TIP3    H239555   4.071   5.687   4.989  1.2396  0.5129 -1.9571
 5974TIP3   OH239556   2.586   1.911   3.459  0.5816  0.8811 -0.4848
 5974TIP3    H139557   2.644   1.941   3.388  0.4969  0.1398 -0.8783
 5974TIP3    H239558   2.501   1.950   3.439  0.2352 -0.2848 -1.5077
 5975TIP3   OH239559   4.447   4.370   4.782  0.1448  0.1572 -0.6708
 5975TIP3    H139560   4.422   4.418   4.860 -2.5525  0.9812 -1.9154
 5975TIP3    H239561   4.542   4.374   4.780  0.1537  3.6291  0.4519
 5976TIP3   OH239562   3.553   5.755   1.577  0.7280 -0.3893 -0.0178
 5976TIP3    H139563   3.493   5.803   1.520  1.0464 -1.8380 -1.6523
 5976TIP3    H239564   3.497   5.696   1.628  0.5912 -0.2529 -0.0090
 5977TIP3   OH239565   4.047   2.450   5.650 -0.5776  1.1957 -0.0908
 5977TIP3    H139566   4.014   2.411   5.570  0.1542  1.4340 -0.5170
 5977TIP3    H239567   4.024   2.387   5.719  1.1817 -0.3415 -0.8502
 5978TIP3   OH239568   1.116   4.103   1.807  0.1618 -0.3071 -0.6676
 5978TIP3    H139569   1.105   4.070   1.896 -0.1472  0.9502 -0.2220
 5978TIP3    H239570   1.162   4.186   1.817  2.8047 -1.5228 -1.9246
 5979TIP3   OH239571   0.498   4.002   1.104 -0.1591  0.2970 -0.2352
 5979TIP3    H139572   0.441   4.025   1.031  0.1259 -0.0043 -0.5561
 5979TIP3    H239573   0.543   4.083   1.126  0.5247  0.1579 -1.0795
 5980TIP3   OH239574   5.421   5.377   4.446  0.2277 -0.4827  0.3432
 5980TIP3    H139575   5.488   5.308   4.457  0.3056 -0.3763  0.5471
 5980TIP3    H239576   5.366   5.369   4.524  0.8409  0.3438  0.8675
 5981TIP3   OH239577   0.818   2.274   5.361 -0.2751 -0.1031 -0.5626
 5981TIP3    H139578   0.896   2.286   5.307 -0.9402 -0.1761 -1.5639
 5981TIP3    H239579   0.796   2.182   5.352 -0.5484 -0.0573 -0.3728
 5982TIP3   OH239580   5.995   6.627   1.895  0.0025  0.2696 -0.0729
 5982TIP3    H139581   6.024   6.563   1.830  1.9298  0.4858  0.5216
 5982TIP3    H239582   5.954   6.696   1.843  0.9843  0.1682 -1.0198
 5983TIP3   OH239583   5.937   4.308   2.610 -0.2208  0.1896 -0.4852
 5983TIP3    H139584   5.923   4.403   2.617 -0.5394  0.2179 -1.3441
 5983TIP3    H239585   5.875   4.280   2.543 -0.8873 -0.8142  0.5282
 5984TIP3   OH239586   5.384   4.332   2.764 -0.2520  0.1048  0.2459
 5984TIP3    H139587   5.300   4.359   2.725  0.2324 -0.4436 -1.2539
 5984TIP3    H239588   5.445   4.402   2.741  0.0208 -0.1858  0.0818
 5985TIP3   OH239589   2.564   2.948   2.845  0.0815 -0.2804  0.0322
 5985TIP3    H139590   2.554   2.856   2.867 -2.2679 -0.4453 -1.4832
 5985TIP3    H239591   2.581   2.949   2.751  1.9416  0.8033  0.3145
 5986TIP3   OH239592   2.719   4.008   4.238 -0.0883  0.5877  0.1175
 5986TIP3    H139593   2.763   3.959   4.308  2.5623  0.1809 -1.6708
 5986TIP3    H239594   2.731   4.100   4.261  1.8928  0.4942 -0.3197
 5987TIP3   OH239595   5.335   6.551   5.170  0.6060  0.2377 -0.2430
 5987TIP3    H139596   5.415   6.504   5.194  1.5626  1.9389  0.0437
 5987TIP3    H239597   5.365   6.622   5.113 -0.6785  1.0092  0.0015
 5988TIP3   OH239598   1.232   4.163   3.108  0.1461  0.2196  0.2238
 5988TIP3    H139599   1.300   4.194   3.168 -0.3319  0.4558  0.6541
 5988TIP3    H239600   1.203   4.080   3.146  1.6873 -1.0206 -1.1273
 5989TIP3   OH239601   1.576   0.956   3.032  0.3731 -0.9068 -0.0187
 5989TIP3    H139602   1.506   0.961   2.966  0.6677 -1.6462 -0.4041
 5989TIP3    H239603   1.582   0.863   3.052 -1.8436 -0.4882  3.3926
 5990TIP3   OH239604   5.425   5.890   2.944  0.0024 -0.1013 -0.1652
 5990TIP3    H139605   5.332   5.877   2.964 -0.3282  1.6592 -0.3968
 5990TIP3    H239606   5.467   5.895   3.030  0.0843 -2.0084 -0.0628
 5991TIP3   OH239607   1.784   4.467   3.594  0.3460  0.0378 -0.2710
 5991TIP3    H139608   1.691   4.474   3.575  0.2229  0.0088  0.2884
 5991TIP3    H239609   1.803   4.373   3.587  0.5015  0.1289 -1.1208
 5992TIP3   OH239610   5.445   5.683   1.750  0.3829  0.2331 -1.1119
 5992TIP3    H139611   5.498   5.685   1.670  1.0084 -2.2850 -0.8216
 5992TIP3    H239612   5.380   5.615   1.734  0.8408 -0.6791  0.6880
 5993TIP3   OH239613   4.468   1.084   1.781  0.2137  0.2872 -0.0722
 5993TIP3    H139614   4.544   1.050   1.829  0.0477  0.4736  0.3257
 5993TIP3    H239615   4.408   1.115   1.849 -0.1519  0.2860 -0.3907
 5994TIP3   OH239616   5.736   3.185   4.452 -0.1031 -0.0071  0.7076
 5994TIP3    H139617   5.649   3.180   4.492 -0.4018  0.2522  0.1068
 5994TIP3    H239618   5.722   3.235   4.371  0.2725 -1.4582 -0.2877
 5995TIP3   OH239619   2.573   1.966   4.864 -0.2681 -0.6828 -0.4661
 5995TIP3    H139620   2.653   2.013   4.887 -0.5136  0.4053 -1.7441
 5995TIP3    H239621   2.523   1.963   4.946  0.0025  0.8139 -0.2077
 5996TIP3   OH239622   2.255   0.597   4.814 -0.5269 -0.2699 -0.0172
 5996TIP3    H139623   2.241   0.604   4.909  0.3394 -0.2144  0.1149
 5996TIP3    H239624   2.348   0.612   4.803 -0.2859 -2.0794 -0.7105
 5997TIP3   OH239625   2.443   5.562   1.193 -0.3037  0.3445  0.1916
 5997TIP3    H139626   2.389   5.628   1.150 -0.5979 -0.2617 -0.3918
 5997TIP3    H239627   2.517   5.611   1.229 -0.9699  1.1180  0.5684
 5998TIP3   OH239628   2.360   2.252   1.175 -0.2540 -0.2828 -0.2696
 5998TIP3    H139629   2.279   2.252   1.124  0.1964  2.4958 -1.1691
 5998TIP3    H239630   2.340   2.303   1.253  1.1962  3.0639 -1.8516
 5999TIP3   OH239631   6.591   5.077   3.247  0.3484  0.0049  0.3565
 5999TIP3    H139632   6.518   5.124   3.207  1.3433 -0.7962 -2.6831
 5999TIP3    H239633   6.630   5.140   3.307 -1.6225  1.1036  0.5906
 6000TIP3   OH239634   0.201   2.354   3.605  0.3271 -0.1358  0.3247
 6000TIP3    H139635   0.131   2.319   3.660  1.3201  0.9235  2.3721
 6000TIP3    H239636   0.171   2.339   3.516 -0.7576 -3.1788  1.0776
 6001TIP3   OH239637   3.510   1.857   5.319 -0.0615 -0.0327 -0.0892
 6001TIP3    H139638   3.497   1.941   5.363 -1.2263  0.5123 -1.4085
 6001TIP3    H239639   3.481   1.872   5.229  0.6779 -1.5771 -0.6173
 6002TIP3   OH239640   0.892   6.301   4.361 -0.3219  0.5756 -0.1825
 6002TIP3    H139641   0.867   6.369   4.423 -0.3615  1.4304 -1.1057
 6002TIP3    H239642   0.921   6.227   4.416 -2.5924  0.3987  0.8820
 6003TIP3   OH239643   4.856   3.961   1.039 -0.4778 -0.0958 -0.2171
 6003TIP3    H139644   4.899   3.876   1.038 -0.4533 -0.1014 -1.6270
 6003TIP3    H239645   4.779   3.949   0.982 -0.9740  0.5738  0.3005
 6004TIP3   OH239646   6.103   6.086   3.344 -0.4619 -0.6145  0.5145
 6004TIP3    H139647   6.041   6.126   3.405 -2.3750 -1.8288 -0.5298
 6004TIP3    H239648   6.051   6.021   3.296  1.2860 -0.6512 -1.4775
 6005TIP3   OH239649   3.395   6.343   0.632  0.2914  0.6546 -0.2597
 6005TIP3    H139650   3.436   6.297   0.706 -0.8889  3.6584  2.5518
 6005TIP3    H239651   3.404   6.436   0.655 -1.6079  1.6783 -3.1591
 6006TIP3   OH239652   0.549   3.760   1.742  0.5732 -0.2323  0.3803
 6006TIP3    H139653   0.640   3.786   1.726  0.5396  0.6271  1.4883
 6006TIP3    H239654   0.551   3.718   1.828 -0.0742 -0.2357  0.3985
 6007TIP3   OH239655   5.884   5.559   0.645  0.3630 -0.3547  0.5064
 6007TIP3    H139656   5.950   5.494   0.669  0.9543 -0.0017 -0.1149
 6007TIP3    H239657   5.920   5.603   0.568  0.1775  1.0017  1.1508
 6008TIP3   OH239658   1.228   5.091   3.055 -0.8213 -0.4300 -0.1815
 6008TIP3    H139659   1.255   5.122   3.142 -0.8869  1.0157 -0.6462
 6008TIP3    H239660   1.215   4.997   3.066  0.0069 -0.4198  1.1629
 6009TIP3   OH239661   1.974   2.033   5.472  0.0359 -0.3739 -0.4675
 6009TIP3    H139662   1.970   2.072   5.385  1.9667  0.6072 -0.1788
 6009TIP3    H239663   1.890   2.054   5.513  0.5349  2.5675 -0.7452
 6010TIP3   OH239664   3.618   4.326   3.181  0.2538 -0.4177 -0.0776
 6010TIP3    H139665   3.660   4.252   3.224  0.5543  1.1489  2.5138
 6010TIP3    H239666   3.685   4.394   3.178 -0.5433  0.3708 -0.7279
 6011TIP3   OH239667   4.984   4.229   3.212 -0.1365 -0.4440  0.3001
 6011TIP3    H139668   5.064   4.222   3.159  0.0506  3.1704 -0.1150
 6011TIP3    H239669   4.913   4.211   3.151  0.2329 -0.9023 -0.0050
 6012TIP3   OH239670   1.286   5.352   1.306  0.1496 -0.0081 -0.8504
 6012TIP3    H139671   1.258   5.301   1.382 -0.9601 -0.1949 -1.3508
 6012TIP3    H239672   1.296   5.287   1.236  0.0792  0.2832 -1.1358
 6013TIP3   OH239673   5.200   6.022   3.958  0.1974  0.2702  0.8952
 6013TIP3    H139674   5.204   6.109   3.919  1.3327 -0.4541 -0.7184
 6013TIP3    H239675   5.196   6.039   4.053  0.4542  2.0579  0.6291
 6014TIP3   OH239676   4.833   0.623   3.097 -0.3084 -0.0770  0.2073
 6014TIP3    H139677   4.801   0.711   3.079 -2.1650 -1.1296 -2.2646
 6014TIP3    H239678   4.762   0.581   3.146  0.4696 -0.3015  1.1778
 6015TIP3   OH239679   5.832   2.946   2.437 -0.0400  0.6132  0.7223
 6015TIP3    H139680   5.779   3.021   2.411  0.3500  1.2366  1.6778
 6015TIP3    H239681   5.922   2.974   2.421  0.0252 -0.8295 -1.9375
 6016TIP3   OH239682   0.032   2.280   4.090  0.2880 -0.1267 -0.2093
 6016TIP3    H139683   0.071   2.203   4.132 -1.6234 -0.5797  0.8548
 6016TIP3    H239684   0.004   2.248   4.004  0.9457 -0.1788 -0.4086
 6017TIP3   OH239685   2.632   4.351   2.828 -0.4316 -0.1664 -0.2724
 6017TIP3    H139686   2.670   4.439   2.833  0.3286 -0.3910 -1.5957
 6017TIP3    H239687   2.538   4.366   2.824 -0.3142  0.5991 -0.5008
 6018TIP3   OH239688   0.524   1.012   2.334 -0.3066  0.6307 -0.2561
 6018TIP3    H139689   0.440   0.998   2.291 -0.1677 -1.6146  0.0654
 6018TIP3    H239690   0.589   0.977   2.272  0.1532  0.1062  0.4993
 6019TIP3   OH239691   3.693   3.910   2.858  0.2448  0.6724 -0.2814
 6019TIP3    H139692   3.671   3.915   2.951  1.0185  2.0085 -0.1480
 6019TIP3    H239693   3.661   3.992   2.821  0.5156  0.4295 -1.0643
 6020TIP3   OH239694   4.709   5.087   4.439  0.0453 -1.0593  0.8011
 6020TIP3    H139695   4.669   5.135   4.512  1.2098 -2.7560  2.6656
 6020TIP3    H239696   4.701   5.146   4.364 -0.8091  0.9580  2.3845
 6021TIP3   OH239697   2.083   0.493   3.282  0.0581 -0.1537 -0.2764
 6021TIP3    H139698   2.033   0.561   3.236  0.5683 -0.1953 -0.9144
 6021TIP3    H239699   2.160   0.480   3.227 -0.7638 -2.3350 -0.9977
 6022TIP3   OH239700   3.008   2.547   4.480  0.5693  0.0440 -0.2370
 6022TIP3    H139701   2.987   2.618   4.419  1.0791  1.0867  0.7556
 6022TIP3    H239702   3.102   2.534   4.470  0.6256  0.1013  0.1843
 6023TIP3   OH239703   6.108   6.141   1.399  0.4257 -0.2283 -0.2710
 6023TIP3    H139704   6.169   6.181   1.338  0.5066 -1.6285 -1.1607
 6023TIP3    H239705   6.161   6.080   1.450  0.0599 -0.2643  0.0742
 6024TIP3   OH239706   1.211   4.325   4.100  0.2535  0.0708 -0.2202
 6024TIP3    H139707   1.174   4.403   4.058  0.2889 -0.1120 -0.5945
 6024TIP3    H239708   1.305   4.343   4.106  0.2093  0.2167  0.0416
 6025TIP3   OH239709   3.641   0.502   4.454  0.2523  0.3479  0.1513
 6025TIP3    H139710   3.682   0.432   4.402  0.3981  0.5287  0.0205
 6025TIP3    H239711   3.549   0.500   4.429  0.4681  0.9780 -0.7440
 6026TIP3   OH239712   1.035   5.161   3.376 -0.1689  0.5687  0.0394
 6026TIP3    H139713   1.103   5.103   3.342  0.1106  0.3333  0.9477
 6026TIP3    H239714   0.953   5.116   3.358  0.0869 -0.5550  1.5000
 6027TIP3   OH239715   3.044   0.029   3.732  0.3544 -0.0552  0.7260
 6027TIP3    H139716   3.100  -0.046   3.713  1.4701  0.3285  2.3199
 6027TIP3    H239717   3.087   0.102   3.688  0.1505 -0.0514  0.5292
 6028TIP3   OH239718   4.484   1.414   4.779  0.1610 -0.5557  0.2161
 6028TIP3    H139719   4.423   1.447   4.713  0.6620 -1.0361 -0.5026
 6028TIP3    H239720   4.437   1.342   4.820 -0.6479  0.5374  1.2855
 6029TIP3   OH239721   1.992   2.926   1.073 -0.1456  0.1037 -0.1208
 6029TIP3    H139722   1.922   2.992   1.064 -0.1507  0.4516  1.9920
 6029TIP3    H239723   2.027   2.917   0.985 -0.4030  2.6691 -0.5685
 6030TIP3   OH239724   5.944   5.719   5.091  0.2187 -0.3582 -0.0361
 6030TIP3    H139725   5.871   5.720   5.030  1.6867  0.2282 -1.8626
 6030TIP3    H239726   5.921   5.650   5.154 -1.1958 -1.2436 -1.4386
 6031TIP3   OH239727   0.606   1.629   3.384 -0.2665 -0.0312 -0.4787
 6031TIP3    H139728   0.691   1.609   3.344 -0.0442 -1.1190  0.5038
 6031TIP3    H239729   0.544   1.572   3.339 -0.4443  0.5610 -0.9996
 6032TIP3   OH239730   5.654   2.596   3.026 -0.0949  0.2309 -0.8974
 6032TIP3    H139731   5.564   2.572   3.046  0.1811  1.7755  3.0355
 6032TIP3    H239732   5.704   2.515   3.031 -0.5329  0.0471  2.7501
 6033TIP3   OH239733   5.269   5.679   0.912 -0.1599 -0.6418  0.2100
 6033TIP3    H139734   5.310   5.696   0.827 -1.3834 -1.5986 -0.5989
 6033TIP3    H239735   5.235   5.764   0.940  0.5394 -0.2569 -0.0878
 6034TIP3   OH239736   1.185   5.591   1.451 -0.0778  0.2768  0.0033
 6034TIP3    H139737   1.140   5.534   1.513  0.4524 -0.5571 -0.3517
 6034TIP3    H239738   1.210   5.533   1.379  1.1875  0.7838 -0.0020
 6035TIP3   OH239739   3.347   5.922   1.463  0.0221  0.1231  0.0490
 6035TIP3    H139740   3.407   5.969   1.405 -0.7766  1.2626  0.1077
 6035TIP3    H239741   3.266   5.973   1.460 -0.6659 -0.9002  0.6452
 6036TIP3   OH239742   1.857   3.164   3.329  0.0956 -0.0757  0.1741
 6036TIP3    H139743   1.867   3.258   3.310  1.4239 -0.0199  1.0385
 6036TIP3    H239744   1.797   3.133   3.261 -0.1978  1.3555 -0.2658
 6037TIP3   OH239745   5.916   0.050   3.435  0.2193  0.3849 -0.2021
 6037TIP3    H139746   5.836   0.103   3.432  0.0453  0.1764  0.5435
 6037TIP3    H239747   5.956   0.071   3.520 -0.0646 -0.9727  0.2890
 6038TIP3   OH239748   6.679   1.116   0.725 -0.0232 -0.1959  0.6494
 6038TIP3    H139749   6.743   1.173   0.681  0.6898  0.0980  2.0140
 6038TIP3    H239750   6.597   1.166   0.722  0.6801  1.1852  2.2046
 6039TIP3   OH239751   2.915   5.254   4.865 -0.4246 -0.3100 -0.3670
 6039TIP3    H139752   2.930   5.347   4.847 -0.5089 -0.2427 -0.0853
 6039TIP3    H239753   2.947   5.210   4.786  2.4491 -0.2756  0.6787
 6040TIP3   OH239754   3.840   3.700   0.843 -0.4238  0.6077 -0.2932
 6040TIP3    H139755   3.832   3.785   0.886 -0.2465  0.2136  0.5292
 6040TIP3    H239756   3.923   3.665   0.874  0.3130  0.8264 -1.8918
 6041TIP3   OH239757   6.607   3.458   1.879 -0.1631  0.2035  0.1205
 6041TIP3    H139758   6.656   3.437   1.958  0.6123 -2.4183 -0.9644
 6041TIP3    H239759   6.622   3.552   1.866  0.8417  0.4004  2.2584
 6042TIP3   OH239760   4.682   4.612   4.208 -1.0188 -0.0115  0.5343
 6042TIP3    H139761   4.647   4.533   4.169 -1.7663  0.5054  0.1458
 6042TIP3    H239762   4.713   4.664   4.134 -1.5074  0.5228  0.7010
 6043TIP3   OH239763   4.172   3.043   3.916 -0.2771  0.1482  0.1329
 6043TIP3    H139764   4.177   2.975   3.983  0.0222 -0.2892 -0.3291
 6043TIP3    H239765   4.190   2.998   3.834 -3.2551  0.1349 -0.6216
 6044TIP3   OH239766   4.925   3.878   3.242 -0.3894 -0.4642  0.6357
 6044TIP3    H139767   4.866   3.877   3.166  0.1047  1.2882  0.1766
 6044TIP3    H239768   5.008   3.844   3.209 -0.9008 -2.2975  1.1172
 6045TIP3   OH239769   2.630   2.598   2.495  0.5356  0.2165 -0.0897
 6045TIP3    H139770   2.580   2.680   2.491  1.3345  0.7150 -0.0978
 6045TIP3    H239771   2.699   2.615   2.559  2.0625  0.3451 -1.6841
 6046TIP3   OH239772   6.196   4.775   2.517  0.3625  0.4778 -0.1177
 6046TIP3    H139773   6.110   4.754   2.480  0.0650  3.2892 -1.2972
 6046TIP3    H239774   6.255   4.711   2.476 -0.4940  1.3959 -3.0643
 6047TIP3   OH239775   6.217   6.125   2.635  0.0765 -0.0071 -0.3341
 6047TIP3    H139776   6.167   6.106   2.555  1.1419  1.5940 -1.4509
 6047TIP3    H239777   6.306   6.145   2.603  0.9642 -0.9937  1.4241
 6048TIP3   OH239778   5.899   6.291   2.439 -0.4124  0.5538 -0.1242
 6048TIP3    H139779   5.830   6.284   2.506 -0.7082 -2.0845 -0.5782
 6048TIP3    H239780   5.953   6.213   2.453  1.7710  1.9104 -0.5990
 6049TIP3   OH239781   2.156   5.266   0.930  0.1120 -0.3997 -0.0562
 6049TIP3    H139782   2.098   5.267   0.854 -1.3661 -0.2993  1.0414
 6049TIP3    H239783   2.097   5.265   1.005  1.4631  2.5448  1.1960
 6050TIP3   OH239784   3.402   4.113   1.644  0.0320 -0.6770  0.3196
 6050TIP3    H139785   3.328   4.052   1.637 -0.2219 -0.2227 -2.3589
 6050TIP3    H239786   3.414   4.145   1.554  0.2549  3.1050  1.5269
 6051TIP3   OH239787   2.923   3.845   3.901 -0.3438  0.5032  0.2749
 6051TIP3    H139788   3.001   3.800   3.935 -0.9161 -0.1739  0.7167
 6051TIP3    H239789   2.916   3.924   3.954  0.0801  0.6001  0.1897
 6052TIP3   OH239790   1.626   0.889   4.303  0.3170 -0.1960  0.4145
 6052TIP3    H139791   1.573   0.821   4.345 -1.6999  0.6402 -0.6604
 6052TIP3    H239792   1.571   0.967   4.304  1.5791  0.7569 -0.6653
 6053TIP3   OH239793   1.147   1.732   0.968  0.2358 -0.0829 -0.1967
 6053TIP3    H139794   1.175   1.741   1.059  2.5528  0.8427 -0.9329
 6053TIP3    H239795   1.156   1.638   0.949 -0.0573 -0.2475  0.4469
 6054TIP3   OH239796   1.980   3.249   1.314  0.0241  0.2548 -0.3542
 6054TIP3    H139797   2.033   3.190   1.367 -1.3416 -1.2142 -0.5301
 6054TIP3    H239798   1.974   3.330   1.366 -0.7360 -0.8997  1.4728
 6055TIP3   OH239799   3.172   3.808   2.635  0.0841  0.0166  0.3248
 6055TIP3    H139800   3.190   3.899   2.610 -1.3007  0.0559 -0.6260
 6055TIP3    H239801   3.202   3.801   2.725  0.7481  1.2545  0.2119
 6056TIP3   OH239802   5.952   4.265   1.144  0.7980  0.0268 -0.0403
 6056TIP3    H139803   6.043   4.286   1.166  0.9983 -0.0353 -0.7677
 6056TIP3    H239804   5.905   4.347   1.158  0.9373  0.0238  0.4691
 6057TIP3   OH239805   2.173   0.894   2.557  0.0539  0.2892  0.7220
 6057TIP3    H139806   2.216   0.966   2.511  3.2202 -1.9941 -0.2371
 6057TIP3    H239807   2.180   0.918   2.650 -0.8208  2.0843  0.3793
 6058TIP3   OH239808   1.583   5.252   4.640 -0.0701 -0.1097  0.3483
 6058TIP3    H139809   1.555   5.273   4.729 -0.8514 -3.3549  1.0104
 6058TIP3    H239810   1.512   5.285   4.585 -0.6442  0.0295  1.1492
 6059TIP3   OH239811   4.900   6.574   3.691 -0.2049 -0.2648 -0.3352
 6059TIP3    H139812   4.936   6.629   3.622 -1.3254  0.6877 -0.1913
 6059TIP3    H239813   4.861   6.635   3.753  1.3926 -1.0584  1.5432
 6060TIP3   OH239814   2.884   5.301   2.404 -0.5939  0.0935  0.4088
 6060TIP3    H139815   2.945   5.263   2.467  0.0099 -0.4961 -0.4961
 6060TIP3    H239816   2.798   5.290   2.444 -0.4064 -1.9828  0.3514
 6061TIP3   OH239817   4.817   2.176   5.144  0.2095  0.5405 -0.1963
 6061TIP3    H139818   4.826   2.271   5.140 -0.9761  0.6608 -0.2740
 6061TIP3    H239819   4.753   2.160   5.213 -1.5898 -0.0237 -1.8878
 6062TIP3   OH239820   3.365   3.655   8.999 -0.6070 -0.0907  0.2909
 6062TIP3    H139821   3.447   3.703   9.007  0.0280 -1.3086  1.7957
 6062TIP3    H239822   3.391   3.563   8.998 -1.8960 -0.4741 -0.4056
 6063TIP3   OH239823   3.939   3.093   4.065 -0.2597 -0.4041  0.2799
 6063TIP3    H139824   3.861   3.090   4.121 -2.2766  1.7228 -2.1775
 6063TIP3    H239825   3.939   3.181   4.027  1.0431 -1.6191 -2.8900
 6064TIP3   OH239826   4.453   2.414   1.849  0.1628  0.3036 -0.0910
 6064TIP3    H139827   4.374   2.371   1.879  0.2380  0.0639 -0.2299
 6064TIP3    H239828   4.480   2.363   1.772  1.3317 -0.5924  0.8740
 6065TIP3   OH239829   0.800   4.718   0.926 -0.1557 -0.4159  0.2729
 6065TIP3    H139830   0.767   4.803   0.953  0.3220 -0.7336  1.9978
 6065TIP3    H239831   0.895   4.731   0.917 -0.1627 -0.6036 -0.0675
 6066TIP3   OH239832   5.524   5.166   1.223 -0.7325 -0.1675  0.6022
 6066TIP3    H139833   5.522   5.253   1.183  1.0207  0.6722  2.1784
 6066TIP3    H239834   5.576   5.113   1.161 -2.1942 -0.2719 -0.5887
 6067TIP3   OH239835   3.635   2.588   1.694  0.4742  0.7894  0.1043
 6067TIP3    H139836   3.651   2.505   1.649  1.2981 -0.3391  2.3251
 6067TIP3    H239837   3.677   2.654   1.638 -1.7236  0.0651 -2.6485
 6068TIP3   OH239838   1.287   0.272   2.118 -0.0690  0.5254  0.0639
 6068TIP3    H139839   1.310   0.182   2.141  2.4195  1.4010  1.3485
 6068TIP3    H239840   1.288   0.319   2.201 -0.0274  1.9996 -0.7403
 6069TIP3   OH239841   0.907   5.838   1.942 -0.0772  0.4885  0.5292
 6069TIP3    H139842   0.949   5.919   1.970 -1.8869  1.9039 -0.6529
 6069TIP3    H239843   0.923   5.833   1.848  1.1360 -1.2647  0.7785
 6070TIP3   OH239844   1.073   5.603   1.996 -0.2545 -0.2869 -0.3420
 6070TIP3    H139845   1.046   5.531   1.940  0.4756 -0.1753 -0.8421
 6070TIP3    H239846   1.044   5.682   1.949  1.3565 -0.1350 -1.1520
 6071TIP3   OH239847   0.621   5.269   4.911 -0.0851  0.1788  0.3535
 6071TIP3    H139848   0.547   5.213   4.889 -1.0692  1.4258  0.3940
 6071TIP3    H239849   0.663   5.226   4.985  0.1060 -1.2956 -0.5753
 6072TIP3   OH239850   6.017   3.305   4.952 -0.1003  0.1601  0.2503
 6072TIP3    H139851   6.107   3.338   4.953  0.4572 -1.1976 -0.6426
 6072TIP3    H239852   5.993   3.296   5.044  0.1083  1.9527  0.5038
 6073TIP3   OH239853   0.714   4.216   3.706 -0.0808  0.4388  0.2004
 6073TIP3    H139854   0.702   4.292   3.763 -1.0780 -0.7650  1.6595
 6073TIP3    H239855   0.627   4.200   3.669 -0.0693 -0.4416  0.5213
 6074TIP3   OH239856   4.965   5.167   4.016  0.6142 -0.4180 -0.5014
 6074TIP3    H139857   5.039   5.154   3.957  2.7059  1.1944  1.5840
 6074TIP3    H239858   5.001   5.156   4.104 -1.8312 -0.3732  0.6012
 6075TIP3   OH239859   4.097   5.774   2.009 -0.5400 -0.6783  0.5894
 6075TIP3    H139860   4.190   5.750   2.007 -0.5195 -0.6253  0.9267
 6075TIP3    H239861   4.064   5.736   2.091 -0.5282  0.3842  1.1017
 6076TIP3   OH239862   4.671   1.632   5.415  0.0198 -0.2534  0.1106
 6076TIP3    H139863   4.726   1.612   5.491  1.5442 -1.7401 -1.3278
 6076TIP3    H239864   4.719   1.597   5.340 -1.5484  0.9689 -1.5458
 6077TIP3   OH239865   2.087   1.583   3.613 -0.2367  0.0385 -0.5733
 6077TIP3    H139866   2.141   1.531   3.553 -0.9330 -1.3955  0.0028
 6077TIP3    H239867   2.113   1.553   3.700  0.8066  2.1395 -0.0924
 6078TIP3   OH239868   5.230   1.989   3.175  0.1439 -0.1528  0.4670
 6078TIP3    H139869   5.220   1.910   3.123 -1.8699 -0.4489  1.2221
 6078TIP3    H239870   5.219   2.061   3.113 -1.2987 -0.4973  0.2957
 6079TIP3   OH239871   0.467   6.605   0.927  0.1340 -0.2010 -0.2426
 6079TIP3    H139872   0.397   6.637   0.870  0.3808 -0.1129 -0.5013
 6079TIP3    H239873   0.526   6.558   0.869  1.1442  1.1139 -0.3311
 6080TIP3   OH239874   6.639   2.188   3.597 -0.0352 -0.3129  0.5679
 6080TIP3    H139875   6.688   2.113   3.564 -0.8906  0.1695 -1.9934
 6080TIP3    H239876   6.647   2.254   3.528  1.1549  2.2438  2.9300
 6081TIP3   OH239877   0.388   5.751   1.402  0.3232 -0.0816 -0.5448
 6081TIP3    H139878   0.464   5.758   1.344  1.2682 -1.5594  0.4220
 6081TIP3    H239879   0.422   5.709   1.481 -0.7636  2.4675  1.4150
 6082TIP3   OH239880   4.252   2.630   1.340  0.0151 -0.4493  0.0556
 6082TIP3    H139881   4.184   2.666   1.284  0.2043 -0.2816 -0.0678
 6082TIP3    H239882   4.270   2.699   1.404  2.2823  0.7997 -1.8033
 6083TIP3   OH239883   3.311   2.409   1.329  0.0320 -0.1354  0.1247
 6083TIP3    H139884   3.281   2.417   1.419 -0.6796 -1.6159  0.0484
 6083TIP3    H239885   3.231   2.405   1.277  0.3987  2.7004 -0.8387
 6084TIP3   OH239886   6.409   4.090   1.419  0.1241 -0.0002  0.3995
 6084TIP3    H139887   6.494   4.045   1.415  0.5218  0.8413 -2.1209
 6084TIP3    H239888   6.429   4.175   1.458  0.1808 -0.3002  1.0373
 6085TIP3   OH239889   5.148   0.549   4.433  0.2748  0.0048 -0.1768
 6085TIP3    H139890   5.129   0.638   4.461 -0.3890 -0.5352  1.1827
 6085TIP3    H239891   5.237   0.553   4.399 -0.2789  1.4728 -1.5678
 6086TIP3   OH239892   0.778   3.226   2.564  1.0469  0.2942 -0.0649
 6086TIP3    H139893   0.819   3.265   2.488  2.5087  1.8748  1.4452
 6086TIP3    H239894   0.831   3.148   2.582  0.0528 -0.6930 -1.2221
 6087TIP3   OH239895   3.624   2.970   4.456  0.1297  0.1114  0.1067
 6087TIP3    H139896   3.579   3.047   4.490 -0.9845 -0.4912  0.0217
 6087TIP3    H239897   3.568   2.896   4.479  1.7900 -0.8495  1.3148
 6088TIP3   OH239898   5.258   6.727   4.864 -0.4186  0.6507  0.1601
 6088TIP3    H139899   5.331   6.769   4.818  0.7335  0.1487  1.4430
 6088TIP3    H239900   5.288   6.637   4.878 -1.3263  0.4166  0.6367
 6089TIP3   OH239901   2.778   0.206   0.679  0.2940  0.1728  0.8811
 6089TIP3    H139902   2.707   0.234   0.737 -0.0444 -2.2307  1.7545
 6089TIP3    H239903   2.739   0.138   0.624  1.2017  0.8470 -0.6701
 6090TIP3   OH239904   4.122   1.102   1.279  0.1420 -0.9096  0.0801
 6090TIP3    H139905   4.143   1.188   1.316  0.8491 -0.1536 -1.9638
 6090TIP3    H239906   4.197   1.047   1.301  0.5985 -0.4422 -0.3096
 6091TIP3   OH239907   5.719   3.379   4.981  0.1565  0.1843 -0.2532
 6091TIP3    H139908   5.673   3.372   5.066  0.0782 -0.1816 -0.3230
 6091TIP3    H239909   5.672   3.448   4.935  0.2564  0.4505  0.0379
 6092TIP3   OH239910   2.906   1.016   1.272 -0.9054 -0.2629  0.6356
 6092TIP3    H139911   2.846   1.017   1.347 -2.3105 -1.3563 -0.4307
 6092TIP3    H239912   2.897   1.102   1.232 -0.2928  0.2596  1.5730
 6093TIP3   OH239913   2.836   2.250   3.585 -0.3983 -0.7826  0.0347
 6093TIP3    H139914   2.831   2.211   3.672 -1.1385  0.7377  0.7131
 6093TIP3    H239915   2.751   2.230   3.545 -0.5863 -0.2925  0.1914
 6094TIP3   OH239916   4.484   1.382   1.680 -0.5378 -0.5355  0.0783
 6094TIP3    H139917   4.482   1.419   1.592 -0.7705  1.7825  0.9803
 6094TIP3    H239918   4.397   1.401   1.715 -0.0625 -0.3355  1.1980
 6095TIP3   OH239919   5.330   6.713   3.146  0.0555 -0.6098 -0.6400
 6095TIP3    H139920   5.350   6.637   3.200 -0.1881 -0.8065 -0.8220
 6095TIP3    H239921   5.363   6.690   3.059  0.9358 -0.0755 -0.4591
 6096TIP3   OH239922   6.237   0.215   2.096  0.6590 -0.2142  0.2980
 6096TIP3    H139923   6.275   0.130   2.076  1.4732  0.0420  0.7409
 6096TIP3    H239924   6.236   0.219   2.192  0.3342  0.1501  0.2819
 6097TIP3   OH239925   4.869   1.309   5.050 -0.0993  0.2571 -0.3304
 6097TIP3    H139926   4.850   1.363   4.975 -0.4231  0.0236 -0.4169
 6097TIP3    H239927   4.806   1.237   5.045  0.9177 -0.6397 -0.7461
 6098TIP3   OH239928   0.782   1.580   2.834  0.6819 -1.1178  0.0180
 6098TIP3    H139929   0.755   1.606   2.746 -0.8076 -1.1328  0.4493
 6098TIP3    H239930   0.846   1.509   2.819  1.4182 -0.2598 -1.0547
 6099TIP3   OH239931   1.229   5.858   2.465 -0.2815  0.2754 -0.1915
 6099TIP3    H139932   1.282   5.839   2.541  0.4359 -1.0098 -0.9890
 6099TIP3    H239933   1.174   5.781   2.453 -1.2696  0.9642 -0.2691
 6100TIP3   OH239934   3.588   3.420   4.344  0.5182  0.3351  0.0245
 6100TIP3    H139935   3.673   3.382   4.323  1.2452  1.1466  1.3841
 6100TIP3    H239936   3.538   3.348   4.382  1.2032  0.2513  0.7876
 6101TIP3   OH239937   5.528   3.638   4.163 -0.0734 -0.3882  0.1271
 6101TIP3    H139938   5.614   3.616   4.200  0.0265 -2.1068 -1.0391
 6101TIP3    H239939   5.536   3.619   4.070 -1.4759  0.2818 -0.1594
 6102TIP3   OH239940   1.439   1.877   3.883 -0.5789 -0.2361  0.0393
 6102TIP3    H139941   1.445   1.941   3.811 -0.9734 -0.7895 -0.4953
 6102TIP3    H239942   1.448   1.792   3.840 -0.2420 -0.5544  0.7251
 6103TIP3   OH239943   4.849   3.206   4.898  0.0464 -0.4119 -0.2034
 6103TIP3    H139944   4.871   3.119   4.932 -1.5335 -0.3124  1.2264
 6103TIP3    H239945   4.866   3.265   4.971  1.6996  0.6196 -1.3598
 6104TIP3   OH239946   0.114   4.097   0.712 -0.2281  0.2515  0.1294
 6104TIP3    H139947   0.137   4.070   0.623  0.6489  0.2261  0.3578
 6104TIP3    H239948   0.096   4.191   0.704 -1.7731 -0.0579 -0.3721
 6105TIP3   OH239949   1.362   4.284   3.780 -0.6919  0.2923 -0.0666
 6105TIP3    H139950   1.306   4.242   3.715 -0.1702  1.7045 -1.5033
 6105TIP3    H239951   1.418   4.213   3.812  0.4603 -0.1296 -2.7131
 6106TIP3   OH239952   0.750   4.362   3.252 -0.0340  0.0630  0.1542
 6106TIP3    H139953   0.664   4.336   3.220  0.7372 -1.0825 -1.0984
 6106TIP3    H239954   0.785   4.419   3.184  2.1581 -3.4284 -1.9558
 6107TIP3   OH239955   5.414   4.688   4.012  0.1333  0.2382  0.1187
 6107TIP3    H139956   5.363   4.618   3.971  1.4816 -0.2704 -0.8018
 6107TIP3    H239957   5.404   4.674   4.106 -0.6135 -0.4478 -0.0535
 6108TIP3   OH239958   3.275   2.530   4.030  0.4021  0.6035  0.0373
 6108TIP3    H139959   3.249   2.587   3.957  1.0320  0.0312 -0.6431
 6108TIP3    H239960   3.345   2.476   3.994 -0.2328 -0.6650  0.6469
 6109TIP3   OH239961   1.949   0.488   2.467 -0.5749 -0.4975  0.5564
 6109TIP3    H139962   1.999   0.478   2.548 -0.2506  0.8326  0.5436
 6109TIP3    H239963   1.866   0.525   2.494 -0.9467 -1.1912  0.3960
 6110TIP3   OH239964   1.375   3.981   3.441 -0.0172  0.0651 -0.0227
 6110TIP3    H139965   1.450   3.934   3.404  1.0156  2.7108 -1.5436
 6110TIP3    H239966   1.307   3.974   3.374 -0.7390 -1.2298  0.8005
 6111TIP3   OH239967   6.521   4.719   3.942  0.1973  0.1084 -0.2616
 6111TIP3    H139968   6.614   4.701   3.936  0.2466  0.2663  0.0074
 6111TIP3    H239969   6.513   4.813   3.926  0.4131  0.7151  2.6133
 6112TIP3   OH239970   0.110   2.175   1.365  0.1506 -0.1870  0.1675
 6112TIP3    H139971   0.179   2.113   1.388 -1.7657 -2.0906  1.1109
 6112TIP3    H239972   0.115   2.181   1.269  0.3885 -1.8162  0.0561
 6113TIP3   OH239973   6.388   3.814   1.216  0.4800  0.3978 -0.4282
 6113TIP3    H139974   6.450   3.867   1.266 -0.4042  2.0075 -0.9641
 6113TIP3    H239975   6.394   3.727   1.255  0.0687  1.4705  2.2848
 6114TIP3   OH239976   5.555   4.585   2.380 -0.6024  0.0750 -0.6218
 6114TIP3    H139977   5.613   4.605   2.306 -0.6060  1.6849 -0.2396
 6114TIP3    H239978   5.506   4.666   2.393 -0.4570 -0.1075  1.2881
 6115TIP3   OH239979   0.292   0.251   3.113 -0.4242  0.1205  0.2007
 6115TIP3    H139980   0.303   0.315   3.184 -0.5330  0.0093  0.3167
 6115TIP3    H239981   0.198   0.238   3.107 -0.5830  1.4822 -1.1505
 6116TIP3   OH239982   3.324   0.751   3.168  0.1893  0.4292 -0.5982
 6116TIP3    H139983   3.356   0.841   3.176  1.9817 -0.0441 -1.6973
 6116TIP3    H239984   3.334   0.731   3.075 -0.3588 -0.8575 -0.4013
 6117TIP3   OH239985   2.731   2.321   1.297 -0.1943 -0.5285  0.1489
 6117TIP3    H139986   2.685   2.238   1.286 -0.3330 -0.4156 -0.1215
 6117TIP3    H239987   2.684   2.365   1.368 -0.0831 -0.7052  0.3348
 6118TIP3   OH239988   1.681   5.294   2.038  0.5112 -0.2761 -0.0817
 6118TIP3    H139989   1.634   5.378   2.039 -1.5051 -1.3325  0.2333
 6118TIP3    H239990   1.717   5.287   2.127 -2.9158 -1.5196  1.4073
 6119TIP3   OH239991   6.180   5.138   4.112  0.0417  0.8441 -0.0286
 6119TIP3    H139992   6.210   5.206   4.053  2.2084  1.1075  1.2437
 6119TIP3    H239993   6.167   5.061   4.057 -1.2156  1.9034 -1.2833
 6120TIP3   OH239994   5.225   3.002   1.083  0.2506  0.1222  0.2829
 6120TIP3    H139995   5.265   2.915   1.075 -0.0325  0.0781 -0.8209
 6120TIP3    H239996   5.279   3.058   1.027 -0.1218  0.4559  0.2563
 6121TIP3   OH239997   4.529   2.715   4.080 -0.1926 -0.1012  0.6013
 6121TIP3    H139998   4.593   2.653   4.117 -0.9025 -0.3370  1.4797
 6121TIP3    H239999   4.567   2.741   3.996  1.0699 -0.2201  1.1029
 6122TIP3   OH240000   5.799   1.349   4.139  0.2532 -0.2589 -0.1644
 6122TIP3    H140001   5.824   1.274   4.192 -1.1924 -1.6864 -1.3906
 6122TIP3    H240002   5.847   1.338   4.057  1.9734  1.5732  0.5230
 6123TIP3   OH240003   0.113   5.835   1.379 -0.2475 -0.3617 -0.3306
 6123TIP3    H140004   0.206   5.812   1.379 -0.2238 -0.3933 -2.1727
 6123TIP3    H240005   0.082   5.806   1.465  0.9663 -2.3315 -0.4857
 6124TIP3   OH240006   0.706   1.380   0.531  0.0499 -0.6086  0.3285
 6124TIP3    H140007   0.666   1.334   0.605  0.0377  1.0132  1.3620
 6124TIP3    H240008   0.728   1.310   0.469 -0.7556 -1.9162  1.4578
 6125TIP3   OH240009   6.709   0.019   1.996 -0.1528  0.0269  0.1932
 6125TIP3    H140010   6.617  -0.007   2.003 -0.5723  1.1941 -0.7234
 6125TIP3    H240011   6.722   0.079   2.069 -0.3707  0.5358 -0.1798
 6126TIP3   OH240012   3.222   4.530   2.284  0.0804 -0.6209 -0.3064
 6126TIP3    H140013   3.191   4.608   2.329  2.9774 -0.1154  1.0770
 6126TIP3    H240014   3.215   4.460   2.348 -0.5423 -1.0503 -0.8331
 6127TIP3   OH240015   2.134   3.091   1.489 -0.0865  0.6001 -0.6008
 6127TIP3    H140016   2.198   3.026   1.517 -0.2534  1.1307  1.1772
 6127TIP3    H240017   2.099   3.126   1.571 -2.0701  0.9022 -1.5175
 6128TIP3   OH240018   2.032   4.367   3.426  0.4269  0.1340  0.4076
 6128TIP3    H140019   1.948   4.408   3.448  1.2448  1.6352  0.8682
 6128TIP3    H240020   2.092   4.440   3.414  1.3306 -0.8488 -1.4844
 6129TIP3   OH240021   6.472   6.419   5.134 -0.0813  0.1346 -0.3144
 6129TIP3    H140022   6.494   6.505   5.100 -0.2030  0.3471  0.1415
 6129TIP3    H240023   6.503   6.419   5.225  0.1282 -0.3843 -0.3784
 6130TIP3   OH240024   6.503   6.661   4.971  0.1603  0.2202 -0.2252
 6130TIP3    H140025   6.569   6.666   4.901  0.9116 -0.5075  0.4157
 6130TIP3    H240026   6.500   6.750   5.006  0.5077  0.3589 -0.5293
 6131TIP3   OH240027   4.466   3.792   3.797 -0.0209 -0.1670  0.5087
 6131TIP3    H140028   4.502   3.881   3.792 -0.9295  0.2459  0.9856
 6131TIP3    H240029   4.383   3.803   3.843 -1.0820 -0.9890 -1.1360
 6132TIP3   OH240030   6.085   0.957   1.937 -0.3959  0.6001 -0.0391
 6132TIP3    H140031   6.054   0.948   1.847 -1.0422  1.7409  0.0475
 6132TIP3    H240032   6.158   0.896   1.944  1.4576  2.4203 -2.1596
 6133TIP3   OH240033   0.901   1.144   3.558  1.3246  0.2162 -0.0063
 6133TIP3    H140034   0.983   1.110   3.595 -0.0646  0.0843  3.3684
 6133TIP3    H240035   0.876   1.215   3.617 -0.0963  1.5297 -2.0558
 6134TIP3   OH240036   2.656   6.169   2.917  0.1249  0.2873 -0.6422
 6134TIP3    H140037   2.645   6.259   2.886  0.7549  1.0099  1.0924
 6134TIP3    H240038   2.602   6.165   2.997  1.2610 -0.4005  0.1166
 6135TIP3   OH240039   3.762   3.854   2.589  0.2892 -0.1020 -0.4752
 6135TIP3    H140040   3.673   3.825   2.569  0.5647 -3.0932  1.9248
 6135TIP3    H240041   3.757   3.886   2.679  1.7590 -1.2619  0.0654
 6136TIP3   OH240042   1.220   3.614   4.120  0.1060 -0.2244  0.0501
 6136TIP3    H140043   1.238   3.539   4.177  0.1190  0.3871  0.8873
 6136TIP3    H240044   1.280   3.604   4.047 -0.2620 -1.3052 -0.1149
 6137TIP3   OH240045   2.746   1.213   2.754  0.0427 -0.0685 -0.4993
 6137TIP3    H140046   2.722   1.244   2.667  0.9389 -1.3114 -1.2161
 6137TIP3    H240047   2.663   1.188   2.795 -0.5482  1.8498 -0.4277
 6138TIP3   OH240048   3.802   6.566   4.767 -0.6319  0.5084 -0.5497
 6138TIP3    H140049   3.763   6.500   4.824 -2.1708  1.8806  0.1026
 6138TIP3    H240050   3.830   6.635   4.827 -0.8635  1.3069 -1.3325
 6139TIP3   OH240051   6.638   0.509   3.692  0.0650 -0.5017  0.2244
 6139TIP3    H140052   6.596   0.504   3.778 -0.8672  0.8755 -0.1086
 6139TIP3    H240053   6.571   0.548   3.635  2.4074  4.1129  0.1753
 6140TIP3   OH240054   1.500   5.142   1.282  0.3469  0.7295  0.3003
 6140TIP3    H140055   1.460   5.185   1.358  0.5167  1.6555 -0.1187
 6140TIP3    H240056   1.433   5.148   1.213 -0.4686 -1.5596  0.7888
 6141TIP3   OH240057   1.865   2.276   2.276 -0.5576 -0.1364  0.7082
 6141TIP3    H140058   1.829   2.192   2.305 -0.4004 -0.5341 -0.2084
 6141TIP3    H240059   1.953   2.278   2.314 -0.2444 -0.7846  0.0530
 6142TIP3   OH240060   4.006   5.746   0.530  0.6415 -0.1550  0.7683
 6142TIP3    H140061   3.924   5.717   0.570  0.3546 -0.1275  0.1965
 6142TIP3    H240062   3.985   5.830   0.491  0.5259 -0.8627 -0.7412
 6143TIP3   OH240063   1.654   5.484   3.888  0.1283  0.1777  0.7615
 6143TIP3    H140064   1.735   5.484   3.837 -1.2074 -1.1482 -1.5577
 6143TIP3    H240065   1.632   5.577   3.897  0.7877  0.4903 -0.5325
 6144TIP3   OH240066   4.334   3.149   1.468 -0.0097  0.5970  0.4069
 6144TIP3    H140067   4.293   3.235   1.460 -1.0363  0.3100  2.0097
 6144TIP3    H240068   4.372   3.132   1.382 -2.1543  1.4744 -0.8009
 6145TIP3   OH240069   5.277   0.914   4.847  0.0461 -0.7761 -0.1035
 6145TIP3    H140070   5.275   0.823   4.816 -1.1574 -1.0122  0.6104
 6145TIP3    H240071   5.330   0.960   4.782  1.8389 -2.2409  0.2283
 6146TIP3   OH240072   0.819   2.387   3.442 -0.2114 -0.4464  0.6104
 6146TIP3    H140073   0.862   2.467   3.472  0.8907 -1.2450  1.2445
 6146TIP3    H240074   0.888   2.338   3.398 -1.3336 -0.1988 -1.5354
 6147TIP3   OH240075   5.596   0.145   2.178  0.4751  0.2967  0.0755
 6147TIP3    H140076   5.591   0.051   2.165  0.8855  0.4464 -1.2825
 6147TIP3    H240077   5.505   0.173   2.192  0.3188 -0.2536  0.1528
 6148TIP3   OH240078   3.893   3.875   1.096  0.4153  0.2840  0.0167
 6148TIP3    H140079   3.813   3.854   1.146 -0.8352  0.1105 -1.9296
 6148TIP3    H240080   3.961   3.822   1.137 -0.6955 -0.3844  1.0778
 6149TIP3   OH240081   3.823   3.554   1.243 -0.3853 -0.3909 -0.1910
 6149TIP3    H140082   3.840   3.481   1.183 -0.4535 -0.3844 -0.2181
 6149TIP3    H240083   3.910   3.583   1.271 -0.2110  1.1165 -2.1042
 6150TIP3   OH240084   1.077   4.196   0.120  0.1218 -0.4254  0.1161
 6150TIP3    H140085   1.007   4.230   0.177  0.8371 -0.7631  1.2220
 6150TIP3    H240086   1.087   4.263   0.053  1.9105  1.9962  2.5628
 6151TIP3   OH240087   4.601   0.944   1.136 -0.5532  0.2362  0.8189
 6151TIP3    H140088   4.690   0.977   1.128 -1.1770  1.8293 -0.2995
 6151TIP3    H240089   4.574   0.966   1.225 -0.3190  1.1705  0.6726
 6152TIP3   OH240090   4.122   5.374   4.739 -0.1516 -0.1395 -0.3836
 6152TIP3    H140091   4.083   5.327   4.813 -2.6440  0.9360 -0.9093
 6152TIP3    H240092   4.064   5.355   4.665 -1.7334  4.0134 -0.5199
 6153TIP3   OH240093   0.903   6.574   2.137  0.0971 -0.7544 -0.4390
 6153TIP3    H140094   0.873   6.576   2.228 -0.5184 -1.2871 -0.6272
 6153TIP3    H240095   0.989   6.533   2.141  0.8818  0.8291  0.1117
 6154TIP3   OH240096   1.951   0.699   1.623 -0.0778  0.2237 -0.4043
 6154TIP3    H140097   1.889   0.637   1.586 -0.4371  0.4858 -0.2428
 6154TIP3    H240098   2.036   0.669   1.592 -0.2024 -0.6210  0.0459
 6155TIP3   OH240099   1.569   1.965   2.167 -0.0818  0.0989 -0.2692
 6155TIP3    H140100   1.662   1.972   2.189  0.0403  1.1914 -1.0553
 6155TIP3    H240101   1.527   1.944   2.250  0.9783 -1.6344 -0.1217
 6156TIP3   OH240102   0.111   3.641   1.528  0.5181  0.0456 -0.0747
 6156TIP3    H140103   0.187   3.663   1.582  0.3861 -0.9413  0.5454
 6156TIP3    H240104   0.131   3.676   1.442  0.2776  2.6417  0.8380
 6157TIP3   OH240105   3.208   5.377   1.824 -0.1384  0.2488  0.1766
 6157TIP3    H140106   3.181   5.417   1.907 -1.7135  1.3750 -0.8096
 6157TIP3    H240107   3.297   5.347   1.839 -0.1050  1.1435  2.0273
 6158TIP3   OH240108   0.287   4.661   4.847  0.6391  0.9594 -0.1352
 6158TIP3    H140109   0.306   4.621   4.931  0.7144  0.0356 -0.5843
 6158TIP3    H240110   0.257   4.750   4.869 -1.8931 -0.0747  1.0513
 6159TIP3   OH240111   0.996   2.911   4.264 -0.7970 -0.5255  0.4271
 6159TIP3    H140112   0.938   2.842   4.230 -0.9686 -0.0178 -0.3426
 6159TIP3    H240113   0.992   2.902   4.359  0.0205 -2.2786  0.3390
 6160TIP3   OH240114   0.686   6.247   3.462 -0.3184  0.2878 -0.3900
 6160TIP3    H140115   0.739   6.307   3.409  0.7142 -0.8572 -0.7063
 6160TIP3    H240116   0.597   6.283   3.458 -0.2917  0.2454 -2.9093
 6161TIP3   OH240117   2.707   2.846   0.965  0.2443 -0.4362 -0.5307
 6161TIP3    H140118   2.745   2.932   0.950 -2.0771  0.2115 -3.8262
 6161TIP3    H240119   2.663   2.854   1.049  2.4606  0.5845  0.6070
 6162TIP3   OH240120   0.919   5.406   3.947 -0.1502 -0.0369  0.1911
 6162TIP3    H140121   0.854   5.447   3.888 -0.2588  0.5484  0.7051
 6162TIP3    H240122   0.917   5.460   4.026  2.3235  1.1866 -0.4630
 6163TIP3   OH240123   0.553   0.426   2.784 -0.7980 -0.1271 -0.0949
 6163TIP3    H140124   0.630   0.461   2.739 -0.2211 -1.6984 -0.4018
 6163TIP3    H240125   0.485   0.491   2.770  0.0583  0.5781 -1.1407
 6164TIP3   OH240126   4.327   1.947   4.776  0.1217 -0.3184  0.6129
 6164TIP3    H140127   4.318   2.040   4.754  1.9176 -0.0947  0.6811
 6164TIP3    H240128   4.318   1.943   4.871 -0.0834 -0.2284  0.5964
 6165TIP3   OH240129   2.336   4.315   4.682 -0.0645 -0.2751  0.4990
 6165TIP3    H140130   2.368   4.307   4.772 -1.1442  0.2399  0.9445
 6165TIP3    H240131   2.355   4.405   4.657  0.4603 -0.4870  0.1098
 6166TIP3   OH240132   5.962   5.071   3.411 -0.4112  0.6603 -0.5896
 6166TIP3    H140133   5.966   5.166   3.399 -1.8002  0.4968 -3.0098
 6166TIP3    H240134   6.026   5.036   3.349 -0.7023 -0.0157 -0.5182
 6167TIP3   OH240135   5.493   2.918   4.808  0.1694 -1.0599  0.5712
 6167TIP3    H140136   5.560   2.886   4.868 -0.2719 -1.9004  0.6189
 6167TIP3    H240137   5.423   2.949   4.865 -0.0137 -1.3395  0.4945
 6168TIP3   OH240138   2.053   0.851   1.091  0.8566  0.2456 -0.2295
 6168TIP3    H140139   2.061   0.756   1.086 -2.2093 -0.1651  0.7190
 6168TIP3    H240140   2.027   0.868   1.181 -1.2773  1.6805 -1.0534
 6169TIP3   OH240141   4.974   4.464   4.822 -0.0074 -0.1040  0.4110
 6169TIP3    H140142   5.063   4.438   4.846  0.3847 -0.2599 -1.1447
 6169TIP3    H240143   4.974   4.559   4.830  0.8181  0.0544 -1.1754
 6170TIP3   OH240144   4.503   3.558   3.628 -0.1472 -0.0756  0.5570
 6170TIP3    H140145   4.572   3.514   3.678 -1.4972 -1.0446  1.6504
 6170TIP3    H240146   4.468   3.624   3.687  2.2621  3.1217 -1.2708
 6171TIP3   OH240147   2.723   0.700   1.914  0.4035 -0.0640  0.2363
 6171TIP3    H140148   2.666   0.777   1.905 -0.9971 -1.1824 -1.1559
 6171TIP3    H240149   2.662   0.628   1.930  1.2674 -1.4744 -2.2717
 6172TIP3   OH240150   2.868   5.692   3.080 -0.4686 -0.1284 -0.1546
 6172TIP3    H140151   2.943   5.691   3.021 -0.0009 -1.9270  0.3997
 6172TIP3    H240152   2.905   5.711   3.166 -0.1409 -3.5461  0.5984
 6173TIP3   OH240153   4.805   0.485   0.803  0.1109 -0.0852  0.5311
 6173TIP3    H140154   4.851   0.500   0.885  2.1755 -1.5833 -0.2445
 6173TIP3    H240155   4.860   0.526   0.736 -1.1553  0.4994 -0.1932
 6174TIP3   OH240156   5.719   4.568   2.999 -0.1396 -0.4560 -0.1842
 6174TIP3    H140157   5.675   4.646   2.967 -0.5854 -1.0692 -1.1329
 6174TIP3    H240158   5.676   4.548   3.082  0.1978  0.4661  0.2291
 6175TIP3   OH240159   3.161   1.440   5.232 -0.1652 -0.2071  0.1301
 6175TIP3    H140160   3.169   1.534   5.215 -0.4848 -0.4401 -1.5078
 6175TIP3    H240161   3.081   1.431   5.284 -0.0800  0.4262  0.3774
 6176TIP3   OH240162   3.139   1.329   1.717  0.2038  0.4420  0.4493
 6176TIP3    H140163   3.199   1.254   1.719  1.1386  1.1615  0.2276
 6176TIP3    H240164   3.197   1.406   1.716 -0.6849  1.1395 -1.3561
 6177TIP3   OH240165   0.768   6.394   1.433  0.8074 -0.6171  0.0734
 6177TIP3    H140166   0.699   6.355   1.487  1.6934 -0.5913  1.2648
 6177TIP3    H240167   0.849   6.356   1.467  1.5283  0.7921 -0.0216
 6178TIP3   OH240168   6.321   1.623   2.060 -0.2194 -0.1618  0.1976
 6178TIP3    H140169   6.397   1.646   2.114  0.0539 -0.4225 -0.0738
 6178TIP3    H240170   6.353   1.555   2.001 -0.2259  0.8113 -0.9852
 6179TIP3   OH240171   1.665   1.340   1.037  0.6269  0.3182 -0.8606
 6179TIP3    H140172   1.722   1.281   1.088 -1.8606 -2.4431 -0.9915
 6179TIP3    H240173   1.691   1.325   0.946 -0.7106 -1.6205 -0.9989
 6180TIP3   OH240174   5.034   4.787   3.682 -0.0966 -0.2516 -0.3274
 6180TIP3    H140175   5.109   4.734   3.710 -0.4128 -1.1987 -1.2205
 6180TIP3    H240176   4.957   4.736   3.709 -0.4615  1.0394  1.2157
 6181TIP3   OH240177   4.140   0.873   2.380 -0.3548 -0.2828 -0.6014
 6181TIP3    H140178   4.159   0.782   2.402  1.8340  0.1056 -0.7389
 6181TIP3    H240179   4.170   0.924   2.455  1.0824  0.5176 -1.6593
 6182TIP3   OH240180   3.455   5.816   4.478  0.1319 -0.0948 -0.2852
 6182TIP3    H140181   3.437   5.891   4.421 -0.3017  0.3290  0.3888
 6182TIP3    H240182   3.375   5.805   4.529  0.9623  0.4068  1.2039
 6183TIP3   OH240183   4.200   4.964   2.681 -0.3807 -0.1592 -0.6191
 6183TIP3    H140184   4.255   4.939   2.607 -1.5170  0.7331 -1.8041
 6183TIP3    H240185   4.261   4.977   2.753  0.7547 -1.0425 -1.3786
 6184TIP3   OH240186   1.516   5.420   4.292  0.6553  0.3983 -0.0310
 6184TIP3    H140187   1.523   5.506   4.252  0.1629 -0.9604 -3.4110
 6184TIP3    H240188   1.438   5.424   4.347 -0.0245  1.8107 -1.0505
 6185TIP3   OH240189   0.999   5.898   2.756 -0.1256 -0.4045 -0.2286
 6185TIP3    H140190   1.032   5.821   2.802 -0.0474 -0.8973 -1.0978
 6185TIP3    H240191   0.914   5.871   2.722 -0.9263  0.4823  0.9918
 6186TIP3   OH240192   4.227   4.906   3.409 -0.0406  0.2442 -0.3371
 6186TIP3    H140193   4.143   4.862   3.424 -1.0965  1.0536 -3.1622
 6186TIP3    H240194   4.205   4.981   3.353  2.3739  1.4536  0.2074
 6187TIP3   OH240195   5.886   6.481   4.000 -0.0664  0.4759  0.0572
 6187TIP3    H140196   5.957   6.511   4.057  0.0776  0.0830  0.0864
 6187TIP3    H240197   5.897   6.532   3.919  0.0034  0.7059  0.2108
 6188TIP3   OH240198   6.178   2.786   1.876 -0.0376  0.0141  0.2764
 6188TIP3    H140199   6.123   2.774   1.799  1.0202  0.6624 -0.6105
 6188TIP3    H240200   6.256   2.831   1.844  0.3383  0.5137  1.7716
 6189TIP3   OH240201   2.514   1.793   4.443  0.4522 -0.4961 -0.4117
 6189TIP3    H140202   2.470   1.801   4.527  1.8500  0.3647  0.2771
 6189TIP3    H240203   2.606   1.776   4.465  0.7317 -0.9205 -1.7685
 6190TIP3   OH240204   4.735   6.647   5.030 -0.5202 -0.1451 -0.6775
 6190TIP3    H140205   4.716   6.725   5.082  1.0526 -0.2701  0.1580
 6190TIP3    H240206   4.651   6.622   4.992 -1.2962  1.2118  0.0701
 6191TIP3   OH240207   0.494   2.595   3.369 -0.6368 -0.9020 -0.7158
 6191TIP3    H140208   0.408   2.633   3.388 -1.0513 -1.5264 -1.2665
 6191TIP3    H240209   0.552   2.670   3.359 -1.0014 -0.4842  0.1953
 6192TIP3   OH240210   1.983   2.633   2.340 -0.2606  0.4572 -0.3007
 6192TIP3    H140211   1.922   2.600   2.407  0.1265 -0.9812 -0.6091
 6192TIP3    H240212   2.050   2.680   2.390 -1.5405  1.9879  0.0481
 6193TIP3   OH240213   3.834   2.096   4.359  0.1670  0.1108 -0.5627
 6193TIP3    H140214   3.823   2.070   4.268 -0.3004 -0.3478 -0.3844
 6193TIP3    H240215   3.923   2.130   4.364  0.0551  0.5279 -1.2761
 6194TIP3   OH240216   3.133   5.195   4.164 -0.2506 -0.0188 -0.1567
 6194TIP3    H140217   3.124   5.108   4.204  0.2511  0.8724  2.0185
 6194TIP3    H240218   3.223   5.197   4.132  0.0765  0.0397  0.7285
 6195TIP3   OH240219   4.004   3.235   3.740  0.2357  0.3124  0.1580
 6195TIP3    H140220   4.000   3.248   3.834  0.5359  1.6753  0.0053
 6195TIP3    H240221   4.074   3.293   3.711  1.4374 -1.4632 -0.6894
 6196TIP3   OH240222   5.611   4.502   0.966  0.8200 -0.0526  1.1060
 6196TIP3    H140223   5.647   4.576   0.918  0.9294 -0.4626  0.5425
 6196TIP3    H240224   5.663   4.427   0.936  0.6897 -0.3610  1.6434
 6197TIP3   OH240225   1.163   0.101   4.188  0.2931  0.0840  0.1143
 6197TIP3    H140226   1.139   0.041   4.117  2.6845 -1.5981  0.6111
 6197TIP3    H240227   1.124   0.185   4.163 -2.6269 -1.4598 -0.9499
 6198TIP3   OH240228   2.185   0.494   1.437 -0.1479  0.6504 -0.3966
 6198TIP3    H140229   2.192   0.401   1.459 -1.9081 -0.2350 -3.0695
 6198TIP3    H240230   2.195   0.539   1.521  1.2986 -1.8644  0.9254
 6199TIP3   OH240231   5.794   1.251   1.013  0.2337 -0.1224 -0.4240
 6199TIP3    H140232   5.714   1.253   0.961  0.3519  0.7785 -0.5807
 6199TIP3    H240233   5.863   1.228   0.950  0.2084 -0.1573 -0.4389
 6200TIP3   OH240234   4.905   6.140   3.935 -0.2294  0.7975 -0.4469
 6200TIP3    H140235   4.929   6.232   3.946  1.9682  0.3011 -0.5428
 6200TIP3    H240236   4.919   6.102   4.022  3.3155 -0.2663 -1.2951
 6201TIP3   OH240237   2.821   6.742   1.883 -0.0190 -0.0665 -0.4216
 6201TIP3    H140238   2.751   6.772   1.941 -1.9031 -1.9875 -1.5630
 6201TIP3    H240239   2.897   6.733   1.940 -1.4778 -0.7485  1.5252
 6202TIP3   OH240240   2.623   3.290   3.816 -0.7486 -0.2601 -0.2765
 6202TIP3    H140241   2.630   3.362   3.879 -1.0993 -1.3976  1.0837
 6202TIP3    H240242   2.621   3.211   3.869 -0.4817 -1.2943 -1.7467
 6203TIP3   OH240243   1.822   6.044   4.114 -0.0852  0.6826  0.3433
 6203TIP3    H140244   1.746   6.071   4.165 -0.2447 -1.2545  1.2387
 6203TIP3    H240245   1.895   6.047   4.176  0.0370 -0.0432  0.2497
 6204TIP3   OH240246   0.078   2.589   3.052 -0.1118 -0.3634 -0.4796
 6204TIP3    H140247   0.027   2.660   3.014 -0.3067 -1.1187 -1.6603
 6204TIP3    H240248   0.088   2.525   2.982  1.3311 -0.8469  0.1081
 6205TIP3   OH240249   4.291   5.808   3.602 -0.7187  0.1526 -0.4152
 6205TIP3    H140250   4.343   5.864   3.545  0.4880 -1.2180 -0.7437
 6205TIP3    H240251   4.203   5.844   3.599 -0.2197  1.3341 -1.4831
 6206TIP3   OH240252   5.318   2.743   1.387 -0.0759 -0.4757  0.4347
 6206TIP3    H140253   5.262   2.670   1.360 -0.3647 -0.8610  2.0166
 6206TIP3    H240254   5.298   2.756   1.479 -0.0538  1.6512  0.1772
 6207TIP3   OH240255   5.004   5.562   2.313 -0.1948  0.3169  0.0007
 6207TIP3    H140256   5.000   5.584   2.406 -1.3823 -0.2195  0.0870
 6207TIP3    H240257   5.074   5.498   2.307 -0.1393  0.3250  0.5267
 6208TIP3   OH240258   5.881   5.561   1.435  0.6413  0.0918 -0.2558
 6208TIP3    H140259   5.861   5.482   1.484 -0.9206  1.1745  0.9594
 6208TIP3    H240260   5.896   5.531   1.345  2.1435 -1.7693  0.5467
 6209TIP3   OH240261   4.295   0.504   3.227  0.8176  0.3638  0.2933
 6209TIP3    H140262   4.346   0.489   3.148 -1.5961 -1.4625 -1.0806
 6209TIP3    H240263   4.305   0.422   3.277  0.1438  0.4226  0.5318
 6210TIP3   OH240264   4.731   4.794   5.070 -0.1616 -0.0567  0.4096
 6210TIP3    H140265   4.802   4.771   5.010 -0.7973 -0.0572 -0.3526
 6210TIP3    H240266   4.776   4.821   5.150  0.6787 -0.7850  0.1998
 6211TIP3   OH240267   4.693   5.396   3.505  0.7408 -0.4295 -0.2474
 6211TIP3    H140268   4.625   5.458   3.533  3.7542  1.9743  2.5841
 6211TIP3    H240269   4.699   5.333   3.576  1.3399 -0.7098 -0.5427
 6212TIP3   OH240270   1.675   5.291   3.673 -0.1049 -0.3694  0.4822
 6212TIP3    H140271   1.612   5.230   3.712  0.5717 -0.6236  1.1802
 6212TIP3    H240272   1.647   5.377   3.704 -1.3949 -0.2170 -0.9408
 6213TIP3   OH240273   3.576   0.060   3.003  0.1853 -0.4058 -0.1078
 6213TIP3    H140274   3.587  -0.035   3.014  2.1246 -0.1899  0.2085
 6213TIP3    H240275   3.604   0.076   2.913 -1.5316 -0.2729 -0.6622
 6214TIP3   OH240276   0.213   6.699   3.932 -0.1427 -0.0518 -0.3424
 6214TIP3    H140277   0.255   6.659   3.855 -0.5702  0.2643 -0.7411
 6214TIP3    H240278   0.235   6.639   4.004 -0.7080 -0.9807 -0.9160
 6215TIP3   OH240279   5.552   2.496   2.708 -0.8641  0.2092 -0.7350
 6215TIP3    H140280   5.541   2.403   2.729 -1.2437 -0.0149 -1.8790
 6215TIP3    H240281   5.646   2.504   2.689 -0.5264  0.4006  0.8726
 6216TIP3   OH240282   5.284   4.196   1.488  0.4004 -0.3981  0.1294
 6216TIP3    H140283   5.220   4.251   1.533  1.1048  0.1207  0.5129
 6216TIP3    H240284   5.369   4.231   1.514  0.8484 -1.0654 -0.3866
 6217TIP3   OH240285   1.592   4.719   4.361 -0.1196  0.2648  0.1452
 6217TIP3    H140286   1.513   4.689   4.316 -1.1368 -1.2568  2.7136
 6217TIP3    H240287   1.580   4.814   4.369 -0.1659  0.5093 -2.1326
 6218TIP3   OH240288   0.080   2.842   4.409 -0.1638 -0.2557 -0.4517
 6218TIP3    H140289   0.064   2.789   4.486  0.7366 -2.0405 -1.4318
 6218TIP3    H240290   0.109   2.927   4.443 -0.0747 -0.9092  1.1485
 6219TIP3   OH240291   5.931   2.988   4.728 -0.0653 -0.5042 -0.0025
 6219TIP3    H140292   6.015   2.949   4.701  0.4672  0.9735 -0.5795
 6219TIP3    H240293   5.867   2.951   4.667  0.5142 -0.0846 -0.8868
 6220TIP3   OH240294   5.457   5.003   1.780  0.5338 -0.0654  0.0371
 6220TIP3    H140295   5.392   5.043   1.723  0.4326 -0.7361 -0.3193
 6220TIP3    H240296   5.537   5.054   1.764  0.8480 -1.0331 -1.6603
 6221TIP3   OH240297   5.776   6.607   4.314  0.2954  0.3563  0.4128
 6221TIP3    H140298   5.860   6.598   4.270  0.2348  0.3247  0.3027
 6221TIP3    H240299   5.752   6.518   4.339  0.6654  0.4549  1.1388
 6222TIP3   OH240300   0.392   0.329   0.993 -0.0753  0.4921  0.1811
 6222TIP3    H140301   0.365   0.322   1.085  0.4892  1.7312  0.4547
 6222TIP3    H240302   0.373   0.242   0.957  2.6688 -1.1258  2.2577
 6223TIP3   OH240303   2.149   2.554   1.419 -0.2505  0.5587  0.3290
 6223TIP3    H140304   2.085   2.615   1.383 -0.7623 -1.3413 -2.2492
 6223TIP3    H240305   2.096   2.492   1.469 -0.1810  0.1996 -0.0383
 6224TIP3   OH240306   1.170   0.464   1.482 -0.1926 -0.4255 -0.0654
 6224TIP3    H140307   1.165   0.492   1.573 -1.4641 -0.3724 -0.1328
 6224TIP3    H240308   1.227   0.387   1.484  0.9544  0.4028  0.5407
 6225TIP3   OH240309   1.064   6.697   2.570 -0.5042  0.1317  0.0266
 6225TIP3    H140310   0.996   6.694   2.637 -0.0019 -0.4805  0.5283
 6225TIP3    H240311   1.136   6.746   2.611  0.0092 -0.7013  0.1454
 6226TIP3   OH240312   3.988   4.460   1.458  0.3800 -0.6751  0.1008
 6226TIP3    H140313   3.893   4.446   1.466  0.4894 -0.7718  1.3861
 6226TIP3    H240314   3.995   4.550   1.426 -0.1511 -1.0504 -1.1598
 6227TIP3   OH240315   1.213   5.496   4.460 -0.2163 -0.1833  0.1437
 6227TIP3    H140316   1.293   5.543   4.484  0.7991 -1.5110 -0.5358
 6227TIP3    H240317   1.158   5.563   4.418  1.2920  0.3802 -1.0361
 6228TIP3   OH240318   5.022   3.391   4.722  0.0078  0.2586  0.0622
 6228TIP3    H140319   5.047   3.353   4.806 -1.0596 -0.4742  0.0693
 6228TIP3    H240320   5.032   3.320   4.659 -0.7017  0.3452 -0.1605
 6229TIP3   OH240321   6.296   1.997   1.940  0.3316 -0.0876 -0.4776
 6229TIP3    H140322   6.378   2.007   1.891  0.0089 -0.7403 -1.1582
 6229TIP3    H240323   6.309   2.051   2.018  1.5905 -0.5139 -0.3591
 6230TIP3   OH240324   0.036   1.449   4.560  0.5742 -0.1891 -0.0411
 6230TIP3    H140325   0.053   1.468   4.468  1.1349  2.3393  0.5204
 6230TIP3    H240326  -0.049   1.405   4.560  0.4620 -0.0442 -1.7333
 6231TIP3   OH240327   2.806   0.140   4.109  0.5481 -0.6366 -0.0480
 6231TIP3    H140328   2.869   0.108   4.044 -0.1698  0.5742 -1.3979
 6231TIP3    H240329   2.722   0.108   4.077  0.1662  0.1027  0.2058
 6232TIP3   OH240330   5.805   3.623   4.212  0.2301  0.4728  0.3972
 6232TIP3    H140331   5.833   3.538   4.180  1.8801  1.7539 -1.8825
 6232TIP3    H240332   5.810   3.617   4.307  1.3247 -1.6336  0.2471
 6233TIP3   OH240333   4.918   1.590   1.385 -0.5476  0.1805 -0.3411
 6233TIP3    H140334   4.860   1.518   1.409 -1.8367  1.2637 -0.1141
 6233TIP3    H240335   4.953   1.565   1.300 -0.4248 -1.0187  0.0337
 6234TIP3   OH240336   0.786   6.451   1.131 -0.5899 -0.1338 -0.5432
 6234TIP3    H140337   0.796   6.425   1.223  3.0313 -0.1178 -0.7695
 6234TIP3    H240338   0.786   6.368   1.083  0.1688 -0.0830 -0.6453
 6235TIP3   OH240339   2.387   2.814   3.274  0.5621  0.4276 -0.1222
 6235TIP3    H140340   2.401   2.908   3.286  3.0831 -0.0990  2.1260
 6235TIP3    H240341   2.304   2.797   3.318  0.3665  1.5064 -0.0337
 6236TIP3   OH240342   6.013   2.223   2.013 -0.4003  0.2553  0.6218
 6236TIP3    H140343   6.015   2.286   1.941 -2.9585  0.2200  0.4182
 6236TIP3    H240344   6.019   2.276   2.092  2.1029  0.3203  0.4527
 6237TIP3   OH240345   6.591   0.883   2.227 -0.6167 -0.2814 -0.0233
 6237TIP3    H140346   6.581   0.914   2.137  2.0663  1.4203  0.1358
 6237TIP3    H240347   6.505   0.897   2.267 -0.9349  2.3159 -1.4103
 6238TIP3   OH240348   4.113   4.922   3.733  0.0412 -0.4257  0.7013
 6238TIP3    H140349   4.168   4.999   3.750  0.3602 -0.5241  0.1526
 6238TIP3    H240350   4.174   4.848   3.734 -0.1660 -0.6000  0.6254
 6239TIP3   OH240351   3.507   0.044   0.407  0.2510  0.0232 -0.0313
 6239TIP3    H140352   3.549  -0.015   0.469 -0.3528 -1.1700 -0.7152
 6239TIP3    H240353   3.516   0.131   0.445  2.0018 -0.3899  0.5512
 6240TIP3   OH240354   2.238   1.898   2.423 -0.7758 -0.1041  0.0250
 6240TIP3    H140355   2.306   1.878   2.359 -0.7343 -0.6853  0.2461
 6240TIP3    H240356   2.256   1.840   2.497 -2.4547 -1.4738 -0.5525
 6241TIP3   OH240357   2.240   3.893   4.603 -0.1339  0.2189  0.2622
 6241TIP3    H140358   2.165   3.913   4.547  0.1600  1.7569  0.3765
 6241TIP3    H240359   2.204   3.884   4.690 -0.1718  1.1950  0.3552
 6242TIP3   OH240360   4.008   5.705   4.272  0.1660 -0.2740  1.0419
 6242TIP3    H140361   4.029   5.794   4.301  2.7042 -0.5682  0.3951
 6242TIP3    H240362   4.011   5.710   4.176  3.5769 -1.5947  0.9454
 6243TIP3   OH240363   0.564   4.574   3.630 -1.1954  0.4680 -0.0232
 6243TIP3    H140364   0.602   4.662   3.628  0.5681 -0.2245  0.6579
 6243TIP3    H240365   0.600   4.534   3.709 -0.4262 -1.4714 -1.2728
 6244TIP3   OH240366   4.029   5.178   2.568  0.0985 -0.5760  0.2338
 6244TIP3    H140367   3.944   5.135   2.578  1.1625 -3.0100 -0.6326
 6244TIP3    H240368   4.089   5.124   2.618  1.4454  0.1307 -0.5747
 6245TIP3   OH240369   4.695   4.270   3.300  0.5620 -0.8025 -0.6162
 6245TIP3    H140370   4.756   4.226   3.359 -0.6308 -0.8801  0.6178
 6245TIP3    H240371   4.746   4.339   3.259  1.0407  0.4795  1.9086
 6246TIP3   OH240372   5.064   2.025   3.537 -0.0452 -0.1599  0.2206
 6246TIP3    H140373   4.995   2.028   3.470  1.6742  1.2206 -1.6231
 6246TIP3    H240374   5.039   2.093   3.600  0.8573  2.1977 -1.8179
 6247TIP3   OH240375   3.391   6.697   3.620 -0.6846  0.6146 -0.7270
 6247TIP3    H140376   3.360   6.703   3.711 -0.9836 -0.1369 -0.7703
 6247TIP3    H240377   3.470   6.751   3.618  0.0430 -0.3529  0.3078
 6248TIP3   OH240378   4.573   4.463   3.088  0.3591  0.3078  0.1395
 6248TIP3    H140379   4.599   4.482   3.178  0.2180 -0.3388  0.3223
 6248TIP3    H240380   4.485   4.499   3.080 -0.0843 -0.6640  0.6191
 6249TIP3   OH240381   1.961   0.553   4.060 -0.4520  0.2195  0.3308
 6249TIP3    H140382   1.876   0.590   4.037 -0.6616  1.9584  3.3060
 6249TIP3    H240383   2.024   0.622   4.040 -0.0883 -0.0397  0.5636
 6250TIP3   OH240384   5.755   1.591   5.005 -0.7584  0.7457  0.3474
 6250TIP3    H140385   5.803   1.514   5.034 -3.2007 -0.3890  1.6518
 6250TIP3    H240386   5.730   1.636   5.085  0.9938  3.2664 -0.3865
 6251TIP3   OH240387   0.816   6.508   0.625  0.1604 -0.2525 -0.8209
 6251TIP3    H140388   0.811   6.594   0.582  0.1409  0.2843  0.2247
 6251TIP3    H240389   0.865   6.525   0.705  0.2307 -1.2474 -0.6497
 6252TIP3   OH240390   1.422   3.371   2.134 -0.0734  0.9076 -0.1236
 6252TIP3    H140391   1.341   3.330   2.165  0.6590 -0.6042 -0.1193
 6252TIP3    H240392   1.481   3.365   2.209  0.9321 -0.5768 -0.9909
 6253TIP3   OH240393   1.975   6.146   2.118  0.5246 -0.3804  0.6333
 6253TIP3    H140394   2.011   6.137   2.206  2.3527 -0.1397 -0.0521
 6253TIP3    H240395   1.943   6.236   2.114  0.7624 -0.2838  0.9347
 6254TIP3   OH240396   4.876   4.885   4.628  0.0267 -0.5309  0.0233
 6254TIP3    H140397   4.967   4.880   4.599  0.5808  2.1384  0.9623
 6254TIP3    H240398   4.832   4.936   4.560 -0.3291 -0.2918  0.4264
 6255TIP3   OH240399   3.566   1.488   1.696  0.0353  0.3175 -0.1945
 6255TIP3    H140400   3.507   1.464   1.625 -0.1282 -1.5245  0.4962
 6255TIP3    H240401   3.586   1.405   1.739  0.0474  1.3798  1.9719
 6256TIP3   OH240402   0.100   2.681   5.312 -0.2202 -1.0547  0.3561
 6256TIP3    H140403   0.169   2.637   5.362  1.0593 -0.7362 -1.0172
 6256TIP3    H240404   0.112   2.648   5.222 -0.6501  0.4007 -0.2605
 6257TIP3   OH240405   2.871   0.556   4.456 -0.4014  0.7007 -0.0246
 6257TIP3    H140406   2.956   0.546   4.499 -0.8601 -0.8339  0.5974
 6257TIP3    H240407   2.824   0.619   4.509 -0.1786  0.4357  0.4949
 6258TIP3   OH240408   1.033   5.110   4.490 -0.7990 -0.2581  0.1569
 6258TIP3    H140409   0.938   5.110   4.505 -1.5671  0.5793 -3.6981
 6258TIP3    H240410   1.049   5.189   4.438  1.4210 -2.0407 -2.0976
 6259TIP3   OH240411   2.001   1.846   4.657  0.2622  0.6499 -0.5995
 6259TIP3    H140412   2.068   1.907   4.690  0.4532 -0.1143  0.4910
 6259TIP3    H240413   2.043   1.801   4.584  0.7298  0.6133 -0.3138
 6260TIP3   OH240414   2.014   6.073   4.286  0.4223 -0.5062  0.6568
 6260TIP3    H140415   2.005   6.166   4.308  2.0915 -0.7105  2.4648
 6260TIP3    H240416   1.975   6.027   4.360 -1.5214 -1.3254 -0.7745
 6261TIP3   OH240417   2.735   0.304   4.325  0.0930 -0.1508 -0.0070
 6261TIP3    H140418   2.763   0.239   4.260  0.4784 -0.3736  0.3808
 6261TIP3    H240419   2.810   0.314   4.384  0.1635  0.9076 -0.2619
 6262TIP3   OH240420   2.419   1.030   1.648  0.1062  0.0568 -0.3116
 6262TIP3    H140421   2.459   1.085   1.581  0.1957 -0.9541 -1.0970
 6262TIP3    H240422   2.448   0.941   1.628  1.1734 -0.1559  1.8021
 6263TIP3   OH240423   6.693   5.216   2.115  0.4764  0.5766  1.0002
 6263TIP3    H140424   6.773   5.180   2.156  1.1049  1.2042  0.3518
 6263TIP3    H240425   6.639   5.244   2.189 -0.3789 -2.3054  1.5932
 6264TIP3   OH240426   4.882   5.845   1.707 -0.6730  0.3413  0.6615
 6264TIP3    H140427   4.877   5.920   1.648 -1.0702 -0.4603 -0.3451
 6264TIP3    H240428   4.923   5.880   1.786 -0.2727  1.4723 -0.0194
 6265TIP3   OH240429   6.329   3.240   1.556 -0.0222  0.0067 -0.4040
 6265TIP3    H140430   6.401   3.261   1.497 -0.6170 -0.3970 -1.3055
 6265TIP3    H240431   6.303   3.151   1.531  0.4579 -0.6509  1.2553
 6266TIP3   OH240432   2.507   3.875   2.348 -0.5323 -0.8144 -0.2430
 6266TIP3    H140433   2.442   3.945   2.351 -1.1626 -1.3954  2.4274
 6266TIP3    H240434   2.479   3.818   2.277 -1.7440  0.0682 -0.4852
 6267TIP3   OH240435   5.175   0.615   1.721 -0.0050  0.3409 -0.0962
 6267TIP3    H140436   5.218   0.597   1.638  0.8300  1.6758  0.0256
 6267TIP3    H240437   5.212   0.551   1.782 -0.0615 -0.1448 -0.5698
 6268TIP3   OH240438   6.745   5.943   1.860  0.0154  0.5426  0.3915
 6268TIP3    H140439   6.700   5.918   1.941  0.1478  4.2609  1.7848
 6268TIP3    H240440   6.687   5.912   1.790  0.1856 -3.2851  1.7450
 6269TIP3   OH240441   2.387   6.193   2.338 -0.2942 -0.0989  0.4235
 6269TIP3    H140442   2.429   6.123   2.388  1.3720  0.5477 -0.0062
 6269TIP3    H240443   2.455   6.260   2.329 -1.3004  0.8142 -0.6899
 6270TIP3   OH240444   1.943   2.036   1.767  0.1081  0.1150 -0.5012
 6270TIP3    H140445   1.884   1.973   1.809  2.0090 -1.7532 -0.4543
 6270TIP3    H240446   1.945   2.111   1.827 -0.2172 -0.8728  0.8028
 6271TIP3   OH240447   5.443   6.708   1.082  0.3043 -0.2554  0.0375
 6271TIP3    H140448   5.418   6.680   0.995  2.3883 -1.1170 -0.3481
 6271TIP3    H240449   5.391   6.654   1.141 -0.3696 -0.3916 -0.6712
 6272TIP3   OH240450   6.116   0.202   2.362 -0.4031  0.3241  0.0123
 6272TIP3    H140451   6.140   0.194   2.454 -0.4143  2.7187  0.2650
 6272TIP3    H240452   6.026   0.169   2.358 -0.3123 -0.0410  0.7896
 6273TIP3   OH240453   2.337   6.479   1.037  0.2917 -0.2841  0.1312
 6273TIP3    H140454   2.281   6.413   0.996  0.6874 -0.2992 -0.3960
 6273TIP3    H240455   2.356   6.444   1.124  0.4673 -0.8492 -0.1307
 6274TIP3   OH240456   2.626   0.542   3.310  0.4975  0.1526  0.6147
 6274TIP3    H140457   2.721   0.545   3.302  0.4521 -0.4122 -0.2410
 6274TIP3    H240458   2.601   0.632   3.332  1.2410  0.2678  0.9872
 6275TIP3   OH240459   1.339   3.234   2.963  0.1053  0.4150  0.6479
 6275TIP3    H140460   1.341   3.142   2.990 -2.6085  0.5562  1.5991
 6275TIP3    H240461   1.369   3.282   3.040  0.0437  0.4170  0.6703
 6276TIP3   OH240462   3.183   2.685   0.128  0.5282  0.3236  0.6672
 6276TIP3    H140463   3.261   2.661   0.176  0.0866 -0.3067  1.0791
 6276TIP3    H240464   3.139   2.602   0.109 -0.1637  0.6822  0.6585
 6277TIP3   OH240465   1.888   2.417   2.786  0.3280 -0.0454 -0.1173
 6277TIP3    H140466   1.967   2.378   2.748 -0.1110 -0.7020 -0.3589
 6277TIP3    H240467   1.836   2.342   2.815 -0.9697  0.2981 -1.4670
 6278TIP3   OH240468   0.542   3.055   4.969 -0.1317 -0.6256  0.3809
 6278TIP3    H140469   0.594   3.046   4.888 -0.4465  0.2562  0.0781
 6278TIP3    H240470   0.552   2.970   5.012  1.0476 -0.6976  0.0191
 6279TIP3   OH240471   5.908   6.488   5.424  0.5492  0.0873  0.5535
 6279TIP3    H140472   5.830   6.542   5.430 -0.2918 -0.7511 -1.7025
 6279TIP3    H240473   5.965   6.534   5.363  0.5412 -0.7093 -0.0789
 6280TIP3   OH240474   3.972   5.677   3.996 -0.0469 -0.2086 -0.4611
 6280TIP3    H140475   3.984   5.583   3.978  2.4882  0.3817 -2.4371
 6280TIP3    H240476   3.911   5.707   3.930 -2.0473 -0.6508  1.0858
 6281TIP3   OH240477   2.499   2.871   1.142 -0.0167  0.1010  0.7345
 6281TIP3    H140478   2.471   2.781   1.126  2.5794 -0.5097 -1.0284
 6281TIP3    H240479   2.438   2.925   1.093  0.8224 -1.0456 -1.7169
 6282TIP3   OH240480   3.225   3.374   1.206 -0.2797 -0.2692 -0.2398
 6282TIP3    H140481   3.178   3.294   1.229 -0.5180 -0.5981 -1.8073
 6282TIP3    H240482   3.317   3.349   1.208 -0.3888 -0.8242 -1.5429
 6283TIP3   OH240483   4.749   1.796   5.795 -0.1482 -0.4070  0.0045
 6283TIP3    H140484   4.794   1.725   5.749  0.0196 -0.3855  0.1321
 6283TIP3    H240485   4.682   1.826   5.734  0.1359 -0.3117 -0.2631
 6284TIP3   OH240486   5.629   5.173   3.845  0.3200  0.0246 -0.1760
 6284TIP3    H140487   5.645   5.152   3.937  1.2839 -1.3467 -0.6236
 6284TIP3    H240488   5.587   5.259   3.847  1.2390  0.4785  1.4918
 6285TIP3   OH240489   4.758   2.215   2.833 -0.4898  0.2444 -0.4123
 6285TIP3    H140490   4.831   2.200   2.773  0.0421  1.2770 -0.0681
 6285TIP3    H240491   4.790   2.286   2.890 -1.3422 -0.0581  0.4574
 6286TIP3   OH240492   2.853   6.353   4.647  0.9991  0.1740  0.0761
 6286TIP3    H140493   2.792   6.321   4.580  0.7975 -0.3397  0.4956
 6286TIP3    H240494   2.874   6.442   4.620  2.0809 -0.5008 -1.4944
 6287TIP3   OH240495   0.274   2.178   2.297  0.6528 -0.6610 -0.3147
 6287TIP3    H140496   0.324   2.216   2.225  0.1898 -0.9920 -0.8123
 6287TIP3    H240497   0.300   2.230   2.374  0.5062  0.2476 -0.8688
 6288TIP3   OH240498   0.272   2.429   1.908  0.3004 -0.4421  0.8055
 6288TIP3    H140499   0.266   2.423   1.812 -2.9607 -1.4803  0.9552
 6288TIP3    H240500   0.355   2.474   1.924 -0.3970  2.4974 -2.5866
 6289TIP3   OH240501   4.725   1.718   4.357  0.1949 -0.3459 -0.1149
 6289TIP3    H140502   4.820   1.711   4.370  0.2789 -0.0004 -0.5024
 6289TIP3    H240503   4.704   1.647   4.296  0.2771 -0.1624 -0.3607
 6290TIP3   OH240504   0.433   2.972   0.364 -0.1686  1.0138  0.1453
 6290TIP3    H140505   0.373   2.922   0.309 -0.1972 -0.1785  1.1979
 6290TIP3    H240506   0.434   2.924   0.448 -0.5899  3.0668  1.3978
 6291TIP3   OH240507   5.619   3.543   3.923 -0.3613  0.2390  0.9060
 6291TIP3    H140508   5.592   3.586   3.841  0.0723  2.2533  1.7532
 6291TIP3    H240509   5.708   3.576   3.939 -1.1524  1.4789  3.1697
 6292TIP3   OH240510   5.900   3.140   3.138 -0.0618  0.2922  0.3518
 6292TIP3    H140511   5.835   3.209   3.122 -0.0237  0.6147  1.4403
 6292TIP3    H240512   5.975   3.187   3.175 -0.5345 -0.4372  2.3913
 6293TIP3   OH240513   0.520   5.191   2.998 -0.1640 -0.5344 -0.3070
 6293TIP3    H140514   0.465   5.119   3.028 -2.1107  0.2076 -1.8713
 6293TIP3    H240515   0.460   5.250   2.952  1.9202  0.3337 -2.1106
 6294TIP3   OH240516   6.281   0.671   4.172 -0.0675 -0.4052 -0.2318
 6294TIP3    H140517   6.205   0.659   4.115 -0.1500 -1.5040  0.0956
 6294TIP3    H240518   6.337   0.596   4.154  0.7876  0.2053 -0.2013
 6295TIP3   OH240519   4.025   3.223   4.786  0.6692 -0.8249  0.0431
 6295TIP3    H140520   4.058   3.156   4.846 -1.9044 -0.7459  1.6966
 6295TIP3    H240521   3.934   3.198   4.770  0.6492  0.3746 -2.1596
 6296TIP3   OH240522   5.702   3.621   1.742 -0.3140  0.3701  0.5123
 6296TIP3    H140523   5.775   3.579   1.697 -0.7448 -0.4071  0.5166
 6296TIP3    H240524   5.624   3.585   1.700 -0.7422 -0.5642  1.9995
 6297TIP3   OH240525   4.159   4.118   3.806 -0.2516  0.2846  0.0593
 6297TIP3    H140526   4.130   4.179   3.874  0.7120  1.3291 -0.4230
 6297TIP3    H240527   4.188   4.174   3.734  0.9453 -0.7245 -0.2874
 6298TIP3   OH240528   5.138   4.424   1.569 -0.3010 -0.1541  0.1131
 6298TIP3    H140529   5.168   4.458   1.653 -0.9347 -0.2444  0.3765
 6298TIP3    H240530   5.046   4.448   1.564 -0.5747 -1.1819 -0.0230
 6299TIP3   OH240531   2.415   4.092   4.524  0.1698 -0.4321  0.0564
 6299TIP3    H140532   2.392   4.148   4.598 -1.7358 -0.0974 -0.7037
 6299TIP3    H240533   2.353   4.019   4.530  0.5646 -0.8355 -0.7061
 6300TIP3   OH240534   5.459   6.206   2.055  0.0921  0.8887  0.3146
 6300TIP3    H140535   5.432   6.205   2.147 -1.0507  1.5465  0.0134
 6300TIP3    H240536   5.380   6.232   2.007  0.4224 -0.2735 -0.9465
 6301TIP3   OH240537   0.471   4.141   2.051  0.5094  0.1638  0.5427
 6301TIP3    H140538   0.425   4.059   2.038  0.1113  0.3706  0.6177
 6301TIP3    H240539   0.499   4.139   2.142  0.0605  0.3246  0.6889
 6302TIP3   OH240540   3.122   1.500   4.894  0.2215  0.3953 -0.0439
 6302TIP3    H140541   3.044   1.543   4.930  0.8304  1.7215 -0.2337
 6302TIP3    H240542   3.127   1.417   4.940 -0.2223  1.1187  1.3808
 6303TIP3   OH240543   6.654   3.336   3.191  0.1351 -0.1162 -0.6458
 6303TIP3    H140544   6.642   3.307   3.281  0.5356  0.7028 -0.3149
 6303TIP3    H240545   6.568   3.370   3.165  0.4707  1.3401  0.0729
 6304TIP3   OH240546   3.428   1.274   4.179 -0.1065  0.7970 -0.1240
 6304TIP3    H140547   3.351   1.306   4.133 -1.3552 -1.1675  0.4567
 6304TIP3    H240548   3.438   1.184   4.148  0.2403  0.1016  1.8707
 6305TIP3   OH240549   6.114   6.486   1.400 -0.0367  0.1175  0.2804
 6305TIP3    H140550   6.049   6.424   1.365 -0.3057  0.5728 -0.0325
 6305TIP3    H240551   6.138   6.541   1.326 -0.8744  1.3206  0.8666
 6306TIP3   OH240552   3.071   5.106   2.944 -0.5657  0.3237 -0.1194
 6306TIP3    H140553   3.151   5.158   2.952  1.0555 -1.1417 -3.9743
 6306TIP3    H240554   3.011   5.161   2.894 -0.0295 -0.2889 -1.4865
 6307TIP3   OH240555   1.538   6.530   1.898 -0.1161  0.0787 -0.9334
 6307TIP3    H140556   1.594   6.601   1.929 -1.8551  1.6162 -1.1086
 6307TIP3    H240557   1.487   6.504   1.975 -0.2306 -0.2418 -1.1153
 6308TIP3   OH240558   0.015   2.786   1.342 -0.1297 -0.1805  1.0982
 6308TIP3    H140559   0.075   2.723   1.302  2.1906  1.3668  1.9324
 6308TIP3    H240560  -0.010   2.843   1.269  1.5406  0.7014  1.1506
 6309TIP3   OH240561   1.563   5.044   3.804 -0.0772  0.5809  0.2555
 6309TIP3    H140562   1.516   5.071   3.883 -3.4699  0.2399 -1.4460
 6309TIP3    H240563   1.537   4.953   3.791  1.1051  0.3663 -0.8137
 6310TIP3   OH240564   6.090   2.786   1.564 -0.3797  0.0323 -0.5300
 6310TIP3    H140565   6.119   2.747   1.481  0.8855 -1.1663  0.4410
 6310TIP3    H240566   6.154   2.855   1.582 -1.5809  1.4042 -1.3298
 6311TIP3   OH240567   5.245   4.440   3.979 -0.2346 -0.0725 -0.0483
 6311TIP3    H140568   5.256   4.351   3.947 -1.1287 -0.1372 -0.2230
 6311TIP3    H240569   5.220   4.431   4.071  0.7260  0.0511  0.2389
 6312TIP3   OH240570   5.842   4.520   1.203  0.5838  0.4735 -0.3610
 6312TIP3    H140571   5.932   4.526   1.235  0.2799  3.2107  0.2256
 6312TIP3    H240572   5.827   4.602   1.157 -1.6876  0.1691 -0.2776
 6313TIP3   OH240573   1.552   0.953   2.459  0.4205 -0.1395  0.3223
 6313TIP3    H140574   1.644   0.951   2.484  0.3569  1.5266  0.7866
 6313TIP3    H240575   1.505   0.927   2.539  0.4634 -0.6780  0.1766
 6314TIP3   OH240576   0.834   4.958   2.535  0.6294  0.2160 -0.2521
 6314TIP3    H140577   0.777   4.995   2.467 -1.1735  0.3820  1.2677
 6314TIP3    H240578   0.896   5.029   2.555 -0.8880  1.3756  0.5146
 6315TIP3   OH240579   0.686   0.534   4.159 -0.1621 -0.4117 -0.2525
 6315TIP3    H140580   0.679   0.461   4.097 -1.8180  0.7532 -1.5001
 6315TIP3    H240581   0.683   0.492   4.245  0.7289 -1.9430 -0.9143
 6316TIP3   OH240582   1.947   1.794   1.502  0.1122 -0.1969 -0.6580
 6316TIP3    H140583   2.012   1.748   1.449 -1.8729 -2.9275 -0.9744
 6316TIP3    H240584   1.985   1.795   1.590  1.4549  0.1952 -1.2133
 6317TIP3   OH240585   2.598   0.976   1.407  0.8213  0.2339 -0.4071
 6317TIP3    H140586   2.590   1.069   1.388  1.7619  0.5474  0.6112
 6317TIP3    H240587   2.576   0.932   1.325  4.0490  1.4464 -2.0917
 6318TIP3   OH240588   1.246   4.369   2.932  0.3004  0.2708  0.2401
 6318TIP3    H140589   1.198   4.440   2.974  2.8745  1.5593  1.2223
 6318TIP3    H240590   1.235   4.294   2.991 -2.8241 -0.4223 -1.0385
 6319TIP3   OH240591   0.772   2.184   1.563 -0.1427  0.3627 -0.1062
 6319TIP3    H140592   0.794   2.093   1.584  0.4129  0.2409 -1.1768
 6319TIP3    H240593   0.727   2.179   1.478  0.7530  1.1730 -0.6394
 6320TIP3   OH240594   2.749   1.778   5.115  0.1668 -0.3764  0.1063
 6320TIP3    H140595   2.670   1.765   5.168 -1.1894 -1.0530 -1.9115
 6320TIP3    H240596   2.730   1.857   5.064  0.2618 -1.1558 -1.1920
 6321TIP3   OH240597   0.145   1.917   0.623 -0.4568  0.0816 -0.1956
 6321TIP3    H140598   0.211   1.935   0.690  1.4095  1.0230 -2.1859
 6321TIP3    H240599   0.185   1.853   0.565 -2.0535 -0.7661 -0.4180
 6322TIP3   OH240600   2.003   1.777   3.451  0.0730  0.1737  0.1208
 6322TIP3    H140601   1.955   1.725   3.386  2.1981 -0.5945 -0.9637
 6322TIP3    H240602   2.031   1.712   3.516  1.7464  0.0774 -0.6271
 6323TIP3   OH240603   4.640   3.674   5.044  0.3670  0.4417 -0.1356
 6323TIP3    H140604   4.735   3.664   5.046  0.5673  2.1808  1.2653
 6323TIP3    H240605   4.613   3.625   4.967  2.2036 -1.4925  0.3360
 6324TIP3   OH240606   3.684   3.151   3.139 -0.1309  0.0204 -0.2985
 6324TIP3    H140607   3.693   3.064   3.179 -1.9307 -0.6417 -1.2227
 6324TIP3    H240608   3.628   3.199   3.200 -0.6705 -0.1100 -0.6787
 6325TIP3   OH240609   6.049   3.957   4.319 -0.1756 -0.8000 -0.3514
 6325TIP3    H140610   6.081   3.886   4.262 -0.8602  0.4254 -2.3685
 6325TIP3    H240611   5.966   3.983   4.279 -0.4614  0.4325  0.9897
 6326TIP3   OH240612   1.069   0.861   3.932  0.9465 -0.5273  0.8782
 6326TIP3    H140613   1.015   0.938   3.915  1.1891 -0.7507 -1.1815
 6326TIP3    H240614   1.007   0.791   3.952  0.3686 -0.8999 -1.9228
 6327TIP3   OH240615   1.796   0.055   1.933  0.2437 -0.1073 -0.3054
 6327TIP3    H140616   1.750   0.139   1.944  1.4879  0.5321  0.2137
 6327TIP3    H240617   1.814   0.025   2.022 -0.1170 -0.8948 -0.4882
 6328TIP3   OH240618   2.918   4.075   4.041 -0.0281  0.5251 -0.1960
 6328TIP3    H140619   2.978   4.147   4.023 -2.3509  2.4199 -0.7808
 6328TIP3    H240620   2.917   4.068   4.137  0.7426  0.7590 -0.1604
 6329TIP3   OH240621   5.473   0.303   4.533 -0.0819 -0.4669 -0.2087
 6329TIP3    H140622   5.383   0.319   4.502 -0.5334 -0.5324  1.0299
 6329TIP3    H240623   5.505   0.233   4.476 -1.2961 -1.3668  0.1593
 6330TIP3   OH240624   0.851   3.930   1.103 -0.1629 -0.0288  0.0520
 6330TIP3    H140625   0.898   3.909   1.184 -0.6932  1.2179  0.7054
 6330TIP3    H240626   0.884   4.016   1.078 -0.7660  0.0450 -0.5045
 6331TIP3   OH240627   4.063   4.666   2.074  0.1315 -0.1182  0.1463
 6331TIP3    H140628   4.140   4.627   2.032  0.3596  0.3948  0.0757
 6331TIP3    H240629   4.086   4.759   2.083 -0.0523 -0.1621  1.1067
 6332TIP3   OH240630   3.775   0.242   4.018  0.2250  0.7886  0.2165
 6332TIP3    H140631   3.840   0.173   4.033  0.5575  0.9439 -0.4569
 6332TIP3    H240632   3.807   0.289   3.941 -1.5330 -0.1557 -1.1684
 6333TIP3   OH240633   4.002   3.268   1.548  0.4439  0.1020 -0.2873
 6333TIP3    H140634   3.976   3.189   1.500  0.2630 -0.0577  0.0705
 6333TIP3    H240635   4.047   3.236   1.626  1.6536  0.3798 -0.8459
 6334TIP3   OH240636   0.566   5.699   4.558 -0.6441 -0.1886 -0.2649
 6334TIP3    H140637   0.558   5.634   4.488 -0.4465 -0.2434 -0.2369
 6334TIP3    H240638   0.660   5.719   4.561 -0.9749  2.2191 -2.2356
 6335TIP3   OH240639   6.288   3.304   2.250 -0.5370 -0.4453  0.2875
 6335TIP3    H140640   6.294   3.308   2.345 -1.2550  1.7938  0.3031
 6335TIP3    H240641   6.199   3.273   2.233 -1.1623  1.1555  0.4206
 6336TIP3   OH240642   4.453   4.102   5.525 -0.0362 -0.1605 -0.5862
 6336TIP3    H140643   4.447   4.148   5.441 -1.2395 -0.6064 -0.7677
 6336TIP3    H240644   4.368   4.060   5.535  0.5501 -1.1907  0.2465
 6337TIP3   OH240645   4.984   0.736   2.679 -0.4811 -0.2642  0.1775
 6337TIP3    H140646   5.045   0.663   2.687 -0.1113  0.1011  0.7814
 6337TIP3    H240647   4.985   0.777   2.766 -2.1978 -0.7398  0.4602
 6338TIP3   OH240648   5.621   3.373   3.635  0.6716 -0.4566  0.5431
 6338TIP3    H140649   5.694   3.407   3.687  1.7603  0.2994 -1.3674
 6338TIP3    H240650   5.580   3.307   3.691  0.9147  1.2243  2.8674
 6339TIP3   OH240651   5.370   0.261   2.240  0.2013  0.0239 -0.4016
 6339TIP3    H140652   5.275   0.265   2.249  0.0513 -2.4867 -0.1050
 6339TIP3    H240653   5.393   0.341   2.194 -1.8690  1.4166  0.8199
 6340TIP3   OH240654   4.257   0.409   4.305  0.2157 -0.0711 -0.0255
 6340TIP3    H140655   4.188   0.466   4.338 -0.0520 -0.1658 -0.4212
 6340TIP3    H240656   4.290   0.454   4.228 -0.3639 -0.7155 -0.6579
 6341TIP3   OH240657   5.597   1.013   4.308 -0.3391 -0.5727 -0.0976
 6341TIP3    H140658   5.547   0.987   4.231 -1.3560  1.4538 -0.1816
 6341TIP3    H240659   5.679   1.046   4.273 -0.0402 -1.3580 -0.1573
 6342TIP3   OH240660   6.120   1.725   2.460  0.4983  0.3266 -0.1401
 6342TIP3    H140661   6.110   1.776   2.540  0.8075  0.6031 -0.2724
 6342TIP3    H240662   6.162   1.644   2.488  2.3115  1.1784 -0.2596
 6343TIP3   OH240663   6.013   5.629   2.152  0.3754  0.2929  0.0026
 6343TIP3    H140664   5.928   5.620   2.110  0.4374  1.0193 -0.2946
 6343TIP3    H240665   6.059   5.694   2.100 -0.7090  3.6984  2.8617
 6344TIP3   OH240666   1.524   4.551   1.812 -0.4031  0.0132  0.2180
 6344TIP3    H140667   1.584   4.622   1.791 -2.3804  1.4102 -1.0766
 6344TIP3    H240668   1.569   4.472   1.781  0.6072  1.0431 -1.0835
 6345TIP3   OH240669   4.789   3.047   3.690 -0.0677 -0.1088  0.0205
 6345TIP3    H140670   4.794   3.050   3.786 -1.0190 -1.0166  0.1279
 6345TIP3    H240671   4.732   3.120   3.667 -2.0335 -1.4132  0.4125
 6346TIP3   OH240672   0.237   3.798   0.788 -0.8345  0.1651  0.0144
 6346TIP3    H140673   0.179   3.874   0.796 -0.8816 -0.0750  2.7109
 6346TIP3    H240674   0.177   3.725   0.772 -0.8790  0.4640 -1.3732
 6347TIP3   OH240675   4.821   6.640   2.822 -0.2038  0.2689  0.2277
 6347TIP3    H140676   4.774   6.599   2.894 -0.7672  0.2868 -0.1271
 6347TIP3    H240677   4.758   6.699   2.782 -0.0586 -0.1112 -0.5917
 6348TIP3   OH240678   0.155   5.322   2.602  0.4691 -0.0718  0.1534
 6348TIP3    H140679   0.098   5.306   2.527 -0.0409 -1.1880  0.7576
 6348TIP3    H240680   0.140   5.247   2.660  1.8333  0.1075  0.7674
 6349TIP3   OH240681   2.059   4.217   2.345  0.0397  0.2169  0.2125
 6349TIP3    H140682   2.059   4.240   2.438  1.7215  0.4605  0.1800
 6349TIP3    H240683   2.026   4.295   2.301 -1.0017  0.0135  0.6110
 6350TIP3   OH240684   6.456   6.514   0.759  0.4993 -0.1893 -0.3520
 6350TIP3    H140685   6.406   6.471   0.828  1.5784 -0.0564  0.5314
 6350TIP3    H240686   6.438   6.462   0.681 -3.6241  1.6720 -0.9326
 6351TIP3   OH240687   6.114   5.122   2.390  0.7784  0.0964  0.6872
 6351TIP3    H140688   6.048   5.137   2.322  0.2115  0.5110  1.3164
 6351TIP3    H240689   6.086   5.178   2.463  1.2729 -0.4868  1.3326
 6352TIP3   OH240690   1.911   5.261   4.518 -0.3633 -0.7297  0.1183
 6352TIP3    H140691   2.006   5.256   4.529 -0.5076 -0.9181  1.4878
 6352TIP3    H240692   1.898   5.330   4.453  0.6965 -0.5067  0.1137
 6353TIP3   OH240693   6.740   5.068   1.223 -0.0177 -0.2380  0.3004
 6353TIP3    H140694   6.707   5.004   1.160 -2.2456  0.4874  0.6210
 6353TIP3    H240695   6.785   5.016   1.289 -1.3479 -1.4635  0.3001
 6354TIP3   OH240696   3.354   1.027   4.062  0.6941  0.2543 -0.1383
 6354TIP3    H140697   3.265   1.034   4.028  0.1064  0.4091  1.3398
 6354TIP3    H240698   3.360   0.939   4.098  2.3270 -1.0437 -3.2463
 6355TIP3   OH240699   0.854   1.231   1.412  0.3439  0.0026  0.8322
 6355TIP3    H140700   0.930   1.263   1.461 -0.1220  1.4447  0.6710
 6355TIP3    H240701   0.787   1.299   1.424 -0.4225 -0.5252 -0.2276
 6356TIP3   OH240702   3.612   1.345   3.161  0.0368  0.0703 -0.0912
 6356TIP3    H140703   3.686   1.285   3.152 -0.5967 -0.5623 -1.5221
 6356TIP3    H240704   3.633   1.398   3.237  2.1879  0.2565 -0.7502
 6357TIP3   OH240705   2.399   0.756   5.110 -0.6617 -0.1646  0.1575
 6357TIP3    H140706   2.365   0.807   5.036  0.7894  0.8228  0.1122
 6357TIP3    H240707   2.350   0.788   5.186 -1.6083 -0.6154 -0.2481
 6358TIP3   OH240708   1.692   1.913   1.497  0.7089  0.0059 -0.4024
 6358TIP3    H140709   1.785   1.893   1.507  0.7852 -0.1661 -1.3114
 6358TIP3    H240710   1.648   1.852   1.556  1.0219 -1.9310 -2.0362
 6359TIP3   OH240711   4.837   5.455   4.161  0.1576  0.0884  0.4953
 6359TIP3    H140712   4.888   5.450   4.080  1.5361  1.0257  1.2658
 6359TIP3    H240713   4.854   5.543   4.195 -0.4238 -0.2714  1.7889
 6360TIP3   OH240714   4.573   3.491   4.428 -0.2583  0.2882  0.0300
 6360TIP3    H140715   4.534   3.405   4.446 -0.4317  0.3877  0.1439
 6360TIP3    H240716   4.663   3.484   4.458 -0.6370  0.5551  1.2930
 6361TIP3   OH240717   1.632   1.397   2.944 -0.0793  0.5881 -0.0622
 6361TIP3    H140718   1.684   1.400   2.863  0.9659 -0.5003  0.5396
 6361TIP3    H240719   1.665   1.470   2.996  1.4482 -0.5390  0.6298
 6362TIP3   OH240720   3.933   2.084   2.630 -0.8918 -0.2132  0.2589
 6362TIP3    H140721   3.838   2.085   2.622 -0.8837 -1.5632 -0.3413
 6362TIP3    H240722   3.964   2.065   2.541 -0.0062  1.2342  0.2365
 6363TIP3   OH240723   4.707   0.144   1.532  0.1559  0.4568  0.1926
 6363TIP3    H140724   4.615   0.119   1.545  0.3598 -0.0946  0.6214
 6363TIP3    H240725   4.713   0.166   1.439  0.1109 -1.8469 -0.4186
 6364TIP3   OH240726   4.111   3.752   2.901  0.0737 -0.5374 -0.0383
 6364TIP3    H140727   4.061   3.833   2.899  1.3326  0.3416  1.9132
 6364TIP3    H240728   4.156   3.753   2.985  3.3315 -1.2894 -1.6169
 6365TIP3   OH240729   1.034   1.082   3.032 -0.1632 -1.3492  0.6962
 6365TIP3    H140730   1.022   1.045   2.944  1.6430  0.2348 -0.2923
 6365TIP3    H240731   0.945   1.097   3.064 -0.9096 -0.1234 -1.6974
 6366TIP3   OH240732   4.431   4.941   3.588 -0.2842  0.2038 -0.2855
 6366TIP3    H140733   4.417   4.906   3.676 -1.0141  1.3755  0.0939
 6366TIP3    H240734   4.350   4.920   3.541 -1.1506  2.1177  0.2334
 6367TIP3   OH240735   0.578   5.508   1.210  0.1592 -0.4250 -0.0672
 6367TIP3    H140736   0.629   5.582   1.242 -0.2147  0.2597 -1.0317
 6367TIP3    H240737   0.630   5.473   1.137 -0.9729  0.6045 -1.4041
 6368TIP3   OH240738   3.508   3.348   2.551  0.2860  0.2749 -0.3262
 6368TIP3    H140739   3.573   3.299   2.601  0.1682  1.3627  0.9442
 6368TIP3    H240740   3.475   3.285   2.487  1.6951 -0.6487 -0.1910
 6369TIP3   OH240741   1.729   6.294   3.638  0.1690  0.4281 -0.6871
 6369TIP3    H140742   1.775   6.343   3.707 -0.3881  2.8036 -1.9190
 6369TIP3    H240743   1.779   6.311   3.559 -1.0865  0.4949 -1.4822
 6370TIP3   OH240744   0.075   4.551   2.461  0.1808  0.5819  0.1739
 6370TIP3    H140745   0.107   4.471   2.502  1.8336  1.1898  0.1424
 6370TIP3    H240746  -0.006   4.525   2.417  1.0992 -1.2756 -0.5290
 6371TIP3   OH240747   3.611   6.374   2.148 -0.3306  0.4053  0.1919
 6371TIP3    H140748   3.618   6.455   2.199  1.5312  0.3869  0.0439
 6371TIP3    H240749   3.619   6.401   2.057 -1.7075  0.2379  0.0045
 6372TIP3   OH240750   1.147   6.418   2.563 -0.7684 -0.0891  0.3247
 6372TIP3    H140751   1.239   6.394   2.577 -1.3278 -2.3082  0.5850
 6372TIP3    H240752   1.146   6.514   2.569  1.3026 -0.0844  1.6601
 6373TIP3   OH240753   1.114   5.970   3.142 -0.0980 -0.1299  0.0340
 6373TIP3    H140754   1.197   5.998   3.104  0.6835 -1.5567  0.6090
 6373TIP3    H240755   1.113   5.875   3.129 -0.0627 -0.6076  2.9438
 6374TIP3   OH240756   1.815   5.634   3.624 -0.2812  0.3370  0.2753
 6374TIP3    H140757   1.729   5.659   3.657 -0.0059  2.2856 -0.3188
 6374TIP3    H240758   1.866   5.613   3.702 -1.3852 -1.2171  0.6062
 6375TIP3   OH240759   3.613   4.561   4.746 -0.1992 -0.2066 -0.5736
 6375TIP3    H140760   3.569   4.482   4.777  2.5392 -1.0260  1.7387
 6375TIP3    H240761   3.576   4.632   4.799  0.7899 -0.8012  0.9790
 6376TIP3   OH240762   3.940   0.772   1.825 -0.6946  0.3919  0.1546
 6376TIP3    H140763   3.871   0.761   1.760  0.2450 -1.8514 -0.5904
 6376TIP3    H240764   3.908   0.839   1.885 -3.1974 -0.1183 -0.5284
 6377TIP3   OH240765   3.744   0.457   0.957  0.0863  0.1075 -0.0732
 6377TIP3    H140766   3.676   0.399   0.923 -1.4901  2.6960 -1.7792
 6377TIP3    H240767   3.824   0.431   0.911 -0.2743 -1.4698  0.1610
 6378TIP3   OH240768   4.267   4.579   1.898 -0.2577 -0.2904  0.0691
 6378TIP3    H140769   4.240   4.525   1.824  0.9993 -1.0322  0.1231
 6378TIP3    H240770   4.362   4.576   1.897 -0.2034 -0.7831  2.0335
 6379TIP3   OH240771   3.151   6.327   1.504  0.2910 -0.2239  0.3898
 6379TIP3    H140772   3.198   6.410   1.495  1.0009 -0.6561  0.0249
 6379TIP3    H240773   3.125   6.324   1.596  0.5914  0.2322  0.4917
 6380TIP3   OH240774   5.364   3.661   0.845 -0.3034 -0.7904 -0.3605
 6380TIP3    H140775   5.426   3.724   0.808 -0.9465  0.6118  0.8528
 6380TIP3    H240776   5.290   3.660   0.785 -1.6499  1.9849  1.0791
 6381TIP3   OH240777   4.550   1.531   0.647  0.2858 -0.2533  0.5044
 6381TIP3    H140778   4.496   1.591   0.698 -0.2363 -0.3350  0.0661
 6381TIP3    H240779   4.489   1.491   0.585  0.6474 -1.1545  0.7110
 6382TIP3   OH240780   6.670   4.329   5.614  1.0090  0.0441  0.6377
 6382TIP3    H140781   6.743   4.277   5.579  1.4437  0.3094  1.1338
 6382TIP3    H240782   6.634   4.276   5.685  0.4533 -0.2650  0.1372
 6383TIP3   OH240783   4.202   4.898   4.042  0.2487 -0.5715  0.1010
 6383TIP3    H140784   4.116   4.860   4.024  1.4871 -2.2733 -2.9353
 6383TIP3    H240785   4.206   4.975   3.987  0.2953  0.1828  1.1284
 6384TIP3   OH240786   3.268   1.700   5.238 -0.0638  0.6103 -0.2558
 6384TIP3    H140787   3.257   1.795   5.235 -1.3851  0.6191  2.1844
 6384TIP3    H240788   3.335   1.686   5.305 -0.8291 -0.1875  0.3651
 6385TIP3   OH240789   4.135   2.760   2.433  0.2244  0.7494 -0.2048
 6385TIP3    H140790   4.148   2.848   2.469 -0.5915  0.5630  0.6020
 6385TIP3    H240791   4.040   2.748   2.432  0.3276 -0.3130  0.2154
 6386TIP3   OH240792   1.882   0.443   3.001  0.2038 -0.2825 -0.4866
 6386TIP3    H140793   1.930   0.368   3.038 -2.0180 -0.9305  1.3610
 6386TIP3    H240794   1.844   0.486   3.078 -1.7123  0.4653 -1.7844
 6387TIP3   OH240795   0.277   6.593   1.211  0.2578 -0.2462  0.5176
 6387TIP3    H140796   0.308   6.594   1.120 -2.4972 -1.4155 -0.5379
 6387TIP3    H240797   0.354   6.570   1.262  1.5519 -1.2190 -1.7097
 6388TIP3   OH240798   4.256   2.279   5.129 -0.4047 -0.4087  0.3227
 6388TIP3    H140799   4.207   2.329   5.195 -0.2423 -1.1834  1.0545
 6388TIP3    H240800   4.331   2.244   5.177  0.8371  0.6670 -0.7577
 6389TIP3   OH240801   5.314   5.006   4.265 -0.1976  0.1046  0.0275
 6389TIP3    H140802   5.304   4.912   4.250  0.3169  0.0950 -0.2925
 6389TIP3    H240803   5.365   5.037   4.190 -0.2557  0.6163  0.1964
 6390TIP3   OH240804   4.256   3.406   3.728 -0.2315 -0.0669 -0.2254
 6390TIP3    H140805   4.243   3.381   3.637 -3.1929  1.2616 -0.2833
 6390TIP3    H240806   4.277   3.499   3.725 -0.0790 -0.0736  0.4210
 6391TIP3   OH240807   6.355   3.069   3.164 -0.0719  0.2123 -0.1909
 6391TIP3    H140808   6.370   3.138   3.229  1.3691 -1.6551  1.5920
 6391TIP3    H240809   6.425   3.005   3.180 -1.9169 -2.1641 -1.0449
 6392TIP3   OH240810   1.381   4.351   0.762 -0.0973  0.2711  0.3640
 6392TIP3    H140811   1.401   4.347   0.855 -0.7529 -0.6447  0.4759
 6392TIP3    H240812   1.462   4.381   0.721 -0.2721  2.3079  1.3765
 6393TIP3   OH240813   2.769   0.494   1.169 -0.1386 -0.8199 -0.0680
 6393TIP3    H140814   2.800   0.584   1.173 -0.0736 -0.8931  2.0615
 6393TIP3    H240815   2.675   0.499   1.186  0.0916 -1.2293  1.4835
 6394TIP3   OH240816   5.589   6.540   1.525  0.3638  0.6192  0.3571
 6394TIP3    H140817   5.505   6.546   1.571  1.2777 -0.7557  2.3425
 6394TIP3    H240818   5.566   6.507   1.438 -1.1121 -0.4074  1.0811
 6395TIP3   OH240819   4.070   2.355   2.618  0.2829 -0.0099  0.2673
 6395TIP3    H140820   4.131   2.348   2.545 -0.1518 -0.0647 -0.0965
 6395TIP3    H240821   3.984   2.359   2.576 -0.1049 -1.7984  0.8396
 6396TIP3   OH240822   2.224   1.193   3.553  0.1409 -0.3535  0.4561
 6396TIP3    H140823   2.284   1.195   3.628 -0.3915  0.7079  0.8792
 6396TIP3    H240824   2.140   1.165   3.591  0.3122 -1.6574 -0.0983
 6397TIP3   OH240825   0.373   0.433   1.672 -0.0306 -0.4163  0.3979
 6397TIP3    H140826   0.458   0.423   1.716 -0.1845 -1.8278  0.4131
 6397TIP3    H240827   0.394   0.430   1.579 -0.1231 -1.5131  0.4001
 6398TIP3   OH240828   5.847   0.665   3.462  0.0903  0.0543  0.1680
 6398TIP3    H140829   5.856   0.759   3.474  1.1714  0.0217 -0.3613
 6398TIP3    H240830   5.766   0.655   3.412  0.0574  0.7044  0.0859
 6399TIP3   OH240831   1.900   5.386   3.414 -0.3497 -0.2579 -0.1367
 6399TIP3    H140832   1.807   5.385   3.391 -0.4097  1.9246 -0.1474
 6399TIP3    H240833   1.939   5.451   3.355  1.4609 -1.9906 -0.9870
 6400TIP3   OH240834   1.089   3.302   2.641 -0.5949 -0.2201  0.2520
 6400TIP3    H140835   0.996   3.298   2.663 -0.0473 -0.8264  2.8634
 6400TIP3    H240836   1.117   3.210   2.640  0.0094 -0.0337 -0.3272
 6401TIP3   OH240837   0.367   6.350   5.049 -0.0119 -0.0530  0.4068
 6401TIP3    H140838   0.376   6.378   5.140 -0.5098 -2.0327  1.1187
 6401TIP3    H240839   0.276   6.372   5.026 -0.0628 -0.0885  0.5768
 6402TIP3   OH240840   3.305   0.609   2.470 -0.2160 -0.5921 -0.0929
 6402TIP3    H140841   3.356   0.645   2.543 -1.5876 -0.0223  0.6190
 6402TIP3    H240842   3.361   0.540   2.434  0.8144 -0.3806  1.0161
 6403TIP3   OH240843   0.050   0.553   1.529  0.0665  0.2035  0.1109
 6403TIP3    H140844   0.118   0.487   1.537  0.4144  0.7033  1.4995
 6403TIP3    H240845   0.080   0.626   1.583 -1.0743  0.8608 -0.0926
 6404TIP3   OH240846   0.548   1.972   4.266 -0.5823 -0.5118  0.3581
 6404TIP3    H140847   0.596   2.054   4.277  1.1286 -1.4353  0.1649
 6404TIP3    H240848   0.492   1.966   4.343 -1.0897  1.0494  0.1403
 6405TIP3   OH240849   4.939   0.656   4.647  0.1541 -0.3479  0.2907
 6405TIP3    H140850   4.997   0.580   4.636  1.4836  0.7954 -1.0606
 6405TIP3    H240851   4.954   0.685   4.736  0.5472 -0.9465  0.4254
 6406TIP3   OH240852   4.524   1.126   4.003  0.0587  0.5064 -0.3160
 6406TIP3    H140853   4.594   1.098   4.062  0.9067  2.4866 -0.2961
 6406TIP3    H240854   4.495   1.046   3.960  1.6086 -0.5236  0.4594
 6407TIP3   OH240855   0.155   5.928   0.959 -0.5984 -0.1445  0.0230
 6407TIP3    H140856   0.182   5.891   0.874  0.0372 -0.3488  0.3010
 6407TIP3    H240857   0.224   5.991   0.980 -0.7757 -0.0649  0.3680
 6408TIP3   OH240858   4.610   0.913   4.762  0.1287 -0.9045 -0.5838
 6408TIP3    H140859   4.638   0.999   4.733 -2.0395 -0.2182 -0.7999
 6408TIP3    H240860   4.621   0.915   4.858 -0.1639 -0.3004 -0.5608
 6409TIP3   OH240861   2.317   1.477   3.146 -0.2713  0.2188  0.1403
 6409TIP3    H140862   2.384   1.518   3.091  0.0699  1.7358  1.6239
 6409TIP3    H240863   2.251   1.446   3.084  1.7090 -1.2584 -1.3649
 6410TIP3   OH240864   5.559   6.378   4.492 -0.4150  0.0243  0.1855
 6410TIP3    H140865   5.632   6.340   4.442 -0.0847  1.4668 -0.5013
 6410TIP3    H240866   5.488   6.315   4.482 -0.4199  0.3153 -2.3232
 6411TIP3   OH240867   1.780   6.475   4.495  0.0846 -0.1026 -0.3328
 6411TIP3    H140868   1.792   6.505   4.405 -0.3865  1.3436  0.0583
 6411TIP3    H240869   1.711   6.532   4.530 -1.0930 -1.8873  0.3690
 6412TIP3   OH240870   1.503   0.177   1.003 -0.1528 -0.2280  0.6157
 6412TIP3    H140871   1.431   0.132   0.960  0.0432  0.4210 -0.4448
 6412TIP3    H240872   1.542   0.111   1.061 -1.0773 -0.8163  0.5845
 6413TIP3   OH240873   0.138   1.701   1.089  0.0811  0.3197  0.6005
 6413TIP3    H140874   0.114   1.635   1.025 -1.5051  0.2550  1.1980
 6413TIP3    H240875   0.140   1.783   1.040 -2.1503  0.4324  0.6024
 6414TIP3   OH240876   4.804   5.804   2.884 -0.3541 -0.3453  0.1281
 6414TIP3    H140877   4.710   5.819   2.873 -0.3391  0.7970  1.3523
 6414TIP3    H240878   4.844   5.890   2.872  0.5384 -0.7970 -0.2425
 6415TIP3   OH240879   4.910   2.080   2.409  0.1509 -0.0697 -0.7065
 6415TIP3    H140880   4.971   2.147   2.437 -0.1786 -1.2387  3.4245
 6415TIP3    H240881   4.954   1.997   2.430 -1.5418 -1.0065 -0.6692
 6416TIP3   OH240882   2.092   2.833   3.646  0.0666  0.2371 -0.4388
 6416TIP3    H140883   2.040   2.908   3.615 -1.2855 -0.8939 -1.0173
 6416TIP3    H240884   2.183   2.861   3.635 -0.4036  1.5247 -1.3156
 6417TIP3   OH240885   4.856   2.576   2.080 -0.1250  0.0483  0.6985
 6417TIP3    H140886   4.842   2.486   2.110 -0.0795  0.0017  0.5771
 6417TIP3    H240887   4.900   2.619   2.154  1.2585 -0.4319  0.1922
 6418TIP3   OH240888   5.430   5.167   0.940  0.2032 -0.0517 -0.0342
 6418TIP3    H140889   5.375   5.148   1.015  1.3813  2.2141  1.5173
 6418TIP3    H240890   5.373   5.154   0.864 -2.0011  0.6701  1.4077
 6419TIP3   OH240891   0.868   5.700   3.689  0.4103 -0.3786 -0.2640
 6419TIP3    H140892   0.795   5.747   3.650 -0.0758 -0.3108  0.6937
 6419TIP3    H240893   0.830   5.617   3.718  0.8251 -0.5469 -0.1871
 6420TIP3   OH240894   3.556   3.698   3.067  0.3202  0.6571  0.0385
 6420TIP3    H140895   3.590   3.647   3.140  1.6141  0.8642 -0.3901
 6420TIP3    H240896   3.468   3.724   3.094  0.4629  0.0120  1.1516
 6421TIP3   OH240897   3.926   5.226   4.186  0.2659 -0.6598  0.3848
 6421TIP3    H140898   3.886   5.142   4.210 -0.8732  0.2677  1.8877
 6421TIP3    H240899   4.014   5.222   4.223  0.3071 -1.2875  0.2285
 6422TIP3   OH240900   2.245   6.135   3.358  0.1567  0.0745 -0.3916
 6422TIP3    H140901   2.301   6.111   3.432 -2.5700 -0.2516  1.7121
 6422TIP3    H240902   2.284   6.089   3.283  3.1701  0.6162  0.7059
 6423TIP3   OH240903   5.731   0.954   3.671  0.0863  0.4079  0.2789
 6423TIP3    H140904   5.646   0.917   3.645 -0.4649  1.7401  0.0891
 6423TIP3    H240905   5.769   0.889   3.730 -1.2153 -0.0629  0.6285
 6424TIP3   OH240906   5.204   1.616   4.212 -0.0365 -0.1372 -0.1757
 6424TIP3    H140907   5.125   1.564   4.225 -1.4419  1.2028 -2.6918
 6424TIP3    H240908   5.219   1.614   4.118 -0.8412  4.7583 -0.6727
 6425TIP3   OH240909   2.977   2.595   1.731  0.5344 -0.6787 -0.1223
 6425TIP3    H140910   2.935   2.600   1.817  2.0903 -2.3326  0.7855
 6425TIP3    H240911   2.913   2.635   1.671 -0.9105 -0.1871  1.6588
 6426TIP3   OH240912   0.022   5.991   2.829  0.2502  0.0919  0.3034
 6426TIP3    H140913   0.024   6.040   2.912 -0.4668  0.2039  0.2614
 6426TIP3    H240914  -0.070   5.971   2.816  0.3773 -0.0241 -0.4204
 6427TIP3   OH240915   3.648   4.437   1.199  0.2163  0.0005  0.5697
 6427TIP3    H140916   3.697   4.520   1.194 -1.4132  0.9641 -2.8246
 6427TIP3    H240917   3.589   4.448   1.273 -0.9021  2.5912 -0.5592
 6428TIP3   OH240918   2.782   2.014   4.114  0.7182 -0.0041  0.1105
 6428TIP3    H140919   2.712   2.080   4.122  1.0948  0.3355  0.7549
 6428TIP3    H240920   2.860   2.065   4.094  0.4229 -0.5631 -2.8524
 6429TIP3   OH240921   0.822   6.522   4.493  0.1221  0.8348  0.1026
 6429TIP3    H140922   0.838   6.607   4.452 -3.9800  0.0397 -3.9788
 6429TIP3    H240923   0.752   6.539   4.556  0.3081  0.6512  0.3626
 6430TIP3   OH240924   6.603   2.571   1.427 -0.3522 -0.3871 -0.8244
 6430TIP3    H140925   6.546   2.612   1.361 -0.9391  0.5160  0.2249
 6430TIP3    H240926   6.661   2.641   1.456 -2.1597  0.1270  1.8768
 6431TIP3   OH240927   6.597   0.158   1.439 -0.1611  0.3245 -0.2476
 6431TIP3    H140928   6.603   0.066   1.463  0.9010 -0.1841 -2.2349
 6431TIP3    H240929   6.524   0.192   1.491 -2.6183 -2.3763 -1.6754
 6432TIP3   OH240930   4.273   4.538   2.591 -0.4106 -0.2164 -0.0299
 6432TIP3    H140931   4.214   4.595   2.640 -2.0064 -0.9417 -1.0408
 6432TIP3    H240932   4.340   4.598   2.557 -0.3015  0.5584  1.4636
 6433TIP3   OH240933   1.080   2.591   1.186  0.7855 -0.6035 -0.4935
 6433TIP3    H140934   1.115   2.619   1.101  0.1554 -3.4552 -1.8433
 6433TIP3    H240935   1.134   2.515   1.209 -0.8724 -1.6279  0.1743
 6434TIP3   OH240936   1.329   4.035   0.633 -0.2006  0.5356  0.4116
 6434TIP3    H140937   1.393   4.010   0.699  0.5687 -0.1649 -0.5820
 6434TIP3    H240938   1.270   3.960   0.626 -0.7784  0.9298  0.8670
 6435TIP3   OH240939   6.391   4.545   2.094 -0.1993  0.0655  0.3026
 6435TIP3    H140940   6.457   4.482   2.122  0.7305 -0.3820 -2.6275
 6435TIP3    H240941   6.316   4.528   2.151  1.1411 -1.4584  1.7030
 6436TIP3   OH240942   2.970   1.388   3.140  0.7829  0.1615 -0.1528
 6436TIP3    H140943   2.898   1.408   3.200  1.0690 -0.2217  0.3218
 6436TIP3    H240944   2.951   1.300   3.108 -0.0855  0.8445 -1.6823
 6437TIP3   OH240945   2.168   0.359   3.917  0.2522 -1.1785 -0.3993
 6437TIP3    H140946   2.181   0.393   4.006 -0.1705  0.6978 -1.0077
 6437TIP3    H240947   2.115   0.280   3.929  1.2619 -1.6640  1.0887
 6438TIP3   OH240948   3.690   2.740   3.666  0.3937 -0.1825  0.0836
 6438TIP3    H140949   3.693   2.811   3.730  1.7825 -0.3845  0.2698
 6438TIP3    H240950   3.781   2.716   3.652  0.0154 -1.1889 -0.8176
 6439TIP3   OH240951   2.526   0.925   1.885  0.3263 -0.1827  0.4256
 6439TIP3    H140952   2.484   0.955   1.805  0.5395  1.3980  0.8554
 6439TIP3    H240953   2.456   0.886   1.937  0.2943 -1.7505 -0.7340
 6440TIP3   OH240954   5.618   3.178   0.744  0.5116 -0.3963  0.5776
 6440TIP3    H140955   5.678   3.117   0.701 -0.8032 -1.7715  0.5765
 6440TIP3    H240956   5.628   3.260   0.695  1.5930 -0.9005 -0.0839
 6441TIP3   OH240957   4.929   6.504   4.443 -0.0144 -0.2925 -0.1287
 6441TIP3    H140958   4.881   6.422   4.436 -1.1608  0.3844 -0.7078
 6441TIP3    H240959   4.872   6.560   4.496  1.9614 -0.6753  2.6261
 6442TIP3   OH240960   5.955   4.774   4.185  0.4380 -0.3337 -0.2354
 6442TIP3    H140961   5.959   4.709   4.255  1.1147 -0.4167 -0.3430
 6442TIP3    H240962   5.983   4.856   4.226 -2.7481  0.5087  0.5437
 6443TIP3   OH240963   2.027   0.199   4.916  0.4000  0.7543  0.4072
 6443TIP3    H140964   1.954   0.259   4.929 -0.7040 -0.6632  0.9518
 6443TIP3    H240965   2.000   0.144   4.843  0.6751 -0.1574  0.9840
 6444TIP3   OH240966   1.184   4.948   2.312  1.1371 -0.4659 -0.0424
 6444TIP3    H140967   1.144   5.031   2.286  2.6102 -0.1966 -1.6204
 6444TIP3    H240968   1.217   4.911   2.230  4.1519 -0.6021  1.0983
 6445TIP3   OH240969   0.169   4.008   2.535  0.2818 -0.3464  0.2837
 6445TIP3    H140970   0.155   3.981   2.626  1.0196  0.9031  0.7990
 6445TIP3    H240971   0.087   4.049   2.509  0.8292  1.5037  1.2522
 6446TIP3   OH240972   3.223   4.569   4.272  0.1495  0.2095 -0.2362
 6446TIP3    H140973   3.284   4.643   4.274  0.0864  0.2984 -1.0707
 6446TIP3    H240974   3.275   4.497   4.237 -0.4899  0.5757 -2.0739
 6447TIP3   OH240975   0.469   0.221   2.630 -0.6334  0.1651 -0.4946
 6447TIP3    H140976   0.435   0.266   2.553  1.5918  1.1437 -0.9653
 6447TIP3    H240977   0.502   0.291   2.686  2.7081 -0.7601 -1.1341
 6448TIP3   OH240978   6.098   4.793   1.783  0.1711  0.9210  0.0232
 6448TIP3    H140979   6.008   4.771   1.809  0.4058 -0.4482 -0.2237
 6448TIP3    H240980   6.153   4.746   1.846  0.7230 -0.3250 -1.3203
 6449TIP3   OH240981   5.555   5.424   1.099  0.5508  0.1927 -0.4015
 6449TIP3    H140982   5.462   5.439   1.087  0.3860 -0.0792  0.4869
 6449TIP3    H240983   5.597   5.481   1.035 -0.2496 -0.4962 -1.5779
 6450TIP3   OH240984   1.575   4.232   3.204 -0.6852 -0.2158 -0.1311
 6450TIP3    H140985   1.637   4.292   3.244 -0.2939 -0.3895 -0.4696
 6450TIP3    H240986   1.489   4.262   3.235 -0.3671 -0.7705  1.4023
 6451TIP3   OH240987   5.350   2.198   5.546 -0.0548  0.5429 -0.5861
 6451TIP3    H140988   5.265   2.167   5.514 -0.6851  0.0494  1.4173
 6451TIP3    H240989   5.341   2.293   5.551 -0.0612  0.5950 -1.5123
 6452TIP3   OH240990   3.727   3.571   4.576  0.2896 -0.1870  0.1190
 6452TIP3    H140991   3.754   3.512   4.506  2.7337  0.3198  0.5573
 6452TIP3    H240992   3.657   3.523   4.622 -1.1864 -0.6379 -2.4158
 6453TIP3   OH240993   4.036   0.773   3.128 -0.0479  0.0016  0.0038
 6453TIP3    H140994   3.964   0.746   3.184  0.1012 -0.4865 -0.0364
 6453TIP3    H240995   4.098   0.816   3.187 -1.0500  1.8168 -0.1932
 6454TIP3   OH240996   6.700   6.428   4.687  0.0498  0.0099 -0.0017
 6454TIP3    H140997   6.721   6.514   4.724 -2.3863  1.4051 -1.5714
 6454TIP3    H240998   6.605   6.419   4.700  0.2269 -2.4484  0.0334
 6455TIP3   OH240999   6.263   1.507   1.058  0.1663 -0.5820 -0.0371
 6455TIP3    H141000   6.223   1.424   1.035  0.1788  0.0330 -2.5531
 6455TIP3    H241001   6.281   1.549   0.974  0.6307  1.7370  1.1419
 6456TIP3   OH241002   2.506   1.484   1.301  0.3211 -0.1861 -0.1266
 6456TIP3    H141003   2.436   1.507   1.240  0.6688 -0.6957 -0.7276
 6456TIP3    H241004   2.545   1.568   1.325  1.2751 -0.0584 -1.9330
 6457TIP3   OH241005   0.648   0.557   2.196  0.1130  0.2511 -0.1945
 6457TIP3    H141006   0.742   0.572   2.187  0.0100  0.0712 -1.7582
 6457TIP3    H241007   0.641   0.468   2.231  0.5215 -0.3799 -1.6409
 6458TIP3   OH241008   4.830   4.034   2.446  0.1080 -0.1497  0.1535
 6458TIP3    H141009   4.799   3.943   2.445  2.5856 -1.0662 -0.4652
 6458TIP3    H241010   4.855   4.052   2.355  2.3846  0.0911  0.7699
 6459TIP3   OH241011   0.437   6.027   3.315 -0.2275  0.2436 -0.0180
 6459TIP3    H141012   0.380   6.103   3.305 -0.3112  0.0415 -1.1620
 6459TIP3    H241013   0.514   6.046   3.262  0.0364 -0.1872  0.2044
 6460TIP3   OH241014   5.855   4.754   1.050 -0.2200 -0.6041  0.6956
 6460TIP3    H141015   5.811   4.763   0.965  1.2947 -1.7166 -0.2502
 6460TIP3    H241016   5.850   4.842   1.088  0.3481  0.3043 -1.2084
 6461TIP3   OH241017   1.548   3.174   4.181  0.0625 -0.5740 -0.1859
 6461TIP3    H141018   1.464   3.175   4.134 -0.1180  1.3336  0.0972
 6461TIP3    H241019   1.524   3.169   4.273  0.2661 -0.6346 -0.1362
 6462TIP3   OH241020   2.427   5.989   3.512  0.7263  0.2104 -0.1397
 6462TIP3    H141021   2.438   5.917   3.450 -1.1139  0.9133 -1.3767
 6462TIP3    H241022   2.516   6.014   3.535  1.4760 -0.6413 -1.8597
 6463TIP3   OH241023   5.383   2.469   5.093 -0.3569  0.1729 -0.2960
 6463TIP3    H141024   5.296   2.489   5.060 -1.0970 -0.4515  1.1658
 6463TIP3    H241025   5.368   2.411   5.168  1.3588 -0.5774 -0.4786
 6464TIP3   OH241026   3.147   0.812   1.885 -0.0349 -0.7825  0.1472
 6464TIP3    H141027   3.224   0.755   1.880  0.6824  0.2742 -2.4292
 6464TIP3    H241028   3.075   0.758   1.853  0.3892 -0.6778 -1.0225
 6465TIP3   OH241029   4.818   2.038   3.851  0.1206 -0.1566 -0.2845
 6465TIP3    H141030   4.839   1.946   3.867  1.7678 -0.1389 -1.9951
 6465TIP3    H241031   4.724   2.045   3.869  0.0290 -2.0830  0.1728
 6466TIP3   OH241032   4.093   1.175   4.972  0.0798 -0.5450 -0.1682
 6466TIP3    H141033   4.172   1.142   5.015 -1.0499 -2.3590  0.6609
 6466TIP3    H241034   4.022   1.125   5.012 -1.3598  0.0548 -1.8400
 6467TIP3   OH241035   3.216   4.057   3.052 -0.0704  0.0575  0.2202
 6467TIP3    H141036   3.152   4.128   3.055 -0.7693 -0.5467 -0.0423
 6467TIP3    H241037   3.278   4.078   3.121 -1.6205 -0.3150  1.8193
 6468TIP3   OH241038   0.954   3.003   2.652  0.1499 -0.0813  0.2242
 6468TIP3    H141039   1.049   3.007   2.643  0.1837 -0.1958  0.5345
 6468TIP3    H241040   0.938   3.024   2.744 -0.0064 -1.8339  0.6213
 6469TIP3   OH241041   0.542   3.416   1.247 -0.3821  0.1023 -0.3818
 6469TIP3    H141042   0.515   3.481   1.312  0.1051 -1.4397  1.4647
 6469TIP3    H241043   0.493   3.337   1.272 -0.4940 -0.4235 -2.1770
 6470TIP3   OH241044   0.038   4.949   3.397 -0.3980  0.0815  0.1934
 6470TIP3    H141045   0.117   4.928   3.447 -0.2745 -2.0233 -0.7745
 6470TIP3    H241046   0.066   5.015   3.334  0.4553 -0.2713  0.1996
 6471TIP3   OH241047   4.407   4.297   1.988  0.0553  0.2036 -0.0423
 6471TIP3    H141048   4.459   4.277   1.910 -0.9052 -2.2788 -0.1561
 6471TIP3    H241049   4.422   4.390   2.004  0.2877  0.8161 -3.1763
 6472TIP3   OH241050   6.704   4.418   4.255  0.7866 -0.2456 -0.4041
 6472TIP3    H141051   6.709   4.498   4.203  0.1937 -0.1757 -0.3665
 6472TIP3    H241052   6.619   4.380   4.232 -0.0205  0.3789  1.3414
 6473TIP3   OH241053   4.158   6.006   2.426 -0.2814  0.1724 -0.3200
 6473TIP3    H141054   4.189   5.952   2.499 -0.4444  1.7702  0.9775
 6473TIP3    H241055   4.078   5.962   2.396 -0.9206  0.1378  1.3120
 6474TIP3   OH241056   3.359   0.343   3.749 -0.1182  0.5603  0.6001
 6474TIP3    H141057   3.410   0.276   3.794 -0.8251 -0.4191 -0.0154
 6474TIP3    H241058   3.368   0.421   3.804  2.1725  0.4856  0.4212
 6475TIP3   OH241059   3.617   2.118   0.813  0.5448 -0.0479 -0.0178
 6475TIP3    H141060   3.647   2.064   0.740  1.2482  1.9172 -1.2670
 6475TIP3    H241061   3.599   2.204   0.774 -1.2467  0.4495  1.7368
 6476TIP3   OH241062   4.058   3.566   4.139 -0.2269 -0.2576 -0.4845
 6476TIP3    H141063   4.009   3.570   4.221 -0.3996 -0.3669 -0.5827
 6476TIP3    H241064   4.147   3.590   4.163 -0.3891  0.2413 -0.3563
 6477TIP3   OH241065   4.502   1.222   1.199  0.0697  0.3378 -0.2014
 6477TIP3    H141066   4.514   1.274   1.120 -1.9358  1.2226  0.0091
 6477TIP3    H241067   4.409   1.199   1.199 -0.1308  0.8830  2.1935
 6478TIP3   OH241068   4.695   4.809   3.553 -0.4676 -0.0209  0.2846
 6478TIP3    H141069   4.717   4.883   3.610  1.1156 -0.5189  0.3886
 6478TIP3    H241070   4.656   4.849   3.475  0.5564  0.9619  0.2434
 6479TIP3   OH241071   2.905   6.203   0.828 -0.0365 -0.2189  0.4161
 6479TIP3    H141072   2.876   6.139   0.893  1.8398 -1.2402  0.3288
 6479TIP3    H241073   2.860   6.178   0.748 -0.7445 -0.2743  0.8269
 6480TIP3   OH241074   3.708   1.698   1.735 -0.1467 -0.2252  0.2456
 6480TIP3    H141075   3.654   1.627   1.702 -0.0434 -0.8129  1.3082
 6480TIP3    H241076   3.770   1.656   1.794 -0.8721  0.8586  1.8557
 6481TIP3   OH241077   5.842   3.829   2.349 -0.2728  0.8637 -0.2574
 6481TIP3    H141078   5.810   3.869   2.268  0.8409  0.4586 -0.9257
 6481TIP3    H241079   5.873   3.742   2.321  1.2234  1.1662  0.3539
 6482TIP3   OH241080   2.423   1.231   4.583 -0.0983 -0.1660  0.9518
 6482TIP3    H141081   2.418   1.138   4.561  0.2200 -0.1814  0.9399
 6482TIP3    H241082   2.403   1.234   4.677 -0.0432 -0.2551  0.9669
 6483TIP3   OH241083   5.785   0.670   5.618 -0.0584  0.1866 -0.0162
 6483TIP3    H141084   5.768   0.577   5.605 -2.4062  0.5089  0.2735
 6483TIP3    H241085   5.714   0.714   5.570  0.6912  1.8090  0.3054
 6484TIP3   OH241086   0.778   1.869   4.076  1.1255 -0.0061 -0.2968
 6484TIP3    H141087   0.702   1.860   4.019  0.7587  1.3979 -0.0696
 6484TIP3    H241088   0.753   1.824   4.156  0.1780  1.1313  0.0819
 6485TIP3   OH241089   4.103   0.179   2.090 -0.2931  0.3826 -0.4519
 6485TIP3    H141090   4.194   0.199   2.072 -0.2168  0.5569  0.0884
 6485TIP3    H241091   4.057   0.200   2.009 -0.2451  3.0206  0.1046
 6486TIP3   OH241092   6.037   2.394   4.011  0.1088 -0.3053 -0.2210
 6486TIP3    H141093   6.097   2.423   3.942  0.7119  1.5234  0.9904
 6486TIP3    H241094   6.085   2.410   4.093 -1.6422  0.3141  0.7399
 6487TIP3   OH241095   4.511   5.937   3.782 -0.3042 -0.2140 -0.7125
 6487TIP3    H141096   4.431   5.885   3.779  0.5750 -1.7458  0.8439
 6487TIP3    H241097   4.551   5.924   3.696 -1.2944 -0.1045 -1.2040
 6488TIP3   OH241098   5.276   2.692   4.631 -0.2381  0.0828  0.0254
 6488TIP3    H141099   5.201   2.680   4.689 -1.3634  0.0512 -1.3693
 6488TIP3    H241100   5.246   2.660   4.546  0.4537  2.4786 -1.2142
 6489TIP3   OH241101   2.396   4.803   2.999 -0.3133  0.0135 -0.4769
 6489TIP3    H141102   2.348   4.831   3.077  1.0870 -0.7766  0.7337
 6489TIP3    H241103   2.467   4.867   2.991  0.2264 -0.5658 -0.3971
 6490TIP3   OH241104   1.232   1.484   2.715  0.0836  0.5774 -0.4555
 6490TIP3    H141105   1.157   1.436   2.750  0.1264 -0.3246 -1.5419
 6490TIP3    H241106   1.301   1.418   2.708  0.2890  0.8855 -1.5308
 6491TIP3   OH241107   0.714   3.924   3.091  0.0868  0.4903 -0.1625
 6491TIP3    H141108   0.745   3.853   3.035 -2.0865  0.1037 -0.9556
 6491TIP3    H241109   0.739   4.004   3.045  0.4626  0.2154 -0.4466
 6492TIP3   OH241110   5.571   2.396   2.263 -0.1551 -0.2393 -0.8283
 6492TIP3    H141111   5.541   2.340   2.336 -1.3316  0.7676 -0.5024
 6492TIP3    H241112   5.638   2.451   2.301  0.2668 -0.7044 -0.8867
 6493TIP3   OH241113   0.610   5.211   3.954 -0.2228  0.5078  0.3155
 6493TIP3    H141114   0.542   5.241   3.893  0.4580  0.3168 -0.5676
 6493TIP3    H241115   0.563   5.195   4.036 -0.7508  3.2860  0.6576
 6494TIP3   OH241116   5.671   0.718   2.972  0.1698 -0.5234  0.4253
 6494TIP3    H141117   5.761   0.711   2.940 -0.0780 -1.3250 -0.1113
 6494TIP3    H241118   5.617   0.678   2.903 -0.6490  0.4022  0.5083
 6495TIP3   OH241119   1.597   2.031   3.439  0.2412 -0.5409  0.1716
 6495TIP3    H141120   1.594   2.103   3.377 -0.8506 -0.9779 -0.3112
 6495TIP3    H241121   1.642   1.961   3.392 -0.6147 -0.8826 -0.1509
 6496TIP3   OH241122   5.542   2.742   2.824 -0.4454  0.1856 -0.2956
 6496TIP3    H141123   5.534   2.657   2.781 -0.3389  0.3062 -0.5635
 6496TIP3    H241124   5.583   2.723   2.908 -0.9534 -0.0921 -0.1075
 6497TIP3   OH241125   3.919   0.986   5.084 -0.3690 -0.3987  0.0551
 6497TIP3    H141126   3.834   0.975   5.042  0.0217 -1.3141 -0.5141
 6497TIP3    H241127   3.918   0.925   5.157 -0.9887  1.0836  1.3541
 6498TIP3   OH241128   3.838   0.760   4.621  0.4053  0.3668 -0.4467
 6498TIP3    H141129   3.906   0.809   4.669  0.1621 -0.8202  1.1835
 6498TIP3    H241130   3.833   0.676   4.666 -1.1951 -0.0895 -1.4184
 6499TIP3   OH241131   5.036   1.860   2.537  0.1288  0.3374  0.0290
 6499TIP3    H141132   5.113   1.807   2.514  0.2550  0.0338  1.1222
 6499TIP3    H241133   4.985   1.804   2.595  0.2935  1.4202  1.2602
 6500TIP3   OH241134   0.271   3.334   4.564 -0.3390 -0.3771 -0.6472
 6500TIP3    H141135   0.230   3.418   4.586  1.2147  0.5508 -1.1557
 6500TIP3    H241136   0.288   3.340   4.470  0.5677 -0.9013 -0.5235
 6501TIP3   OH241137   4.091   6.241   2.315 -0.4665  0.7309  0.0405
 6501TIP3    H141138   4.029   6.212   2.248  2.0618  0.3705 -2.3263
 6501TIP3    H241139   4.122   6.161   2.356 -1.3838  0.9009  1.1156
 6502TIP3   OH241140   6.312   5.844   3.196 -0.4394 -0.0238 -0.5309
 6502TIP3    H141141   6.223   5.816   3.176 -0.6680  0.7219 -0.5826
 6502TIP3    H241142   6.338   5.789   3.271 -1.1685  0.1860 -0.1092
 6503TIP3   OH241143   1.482   1.096   4.623 -0.5228  0.0284 -0.8312
 6503TIP3    H141144   1.537   1.160   4.668 -0.2705  0.4054 -1.6375
 6503TIP3    H241145   1.438   1.047   4.692  0.4440  0.0684 -0.1808
 6504TIP3   OH241146   2.784   2.505   3.885 -0.7888  0.0318  0.2076
 6504TIP3    H141147   2.851   2.507   3.954 -0.2114  2.4020 -0.2998
 6504TIP3    H241148   2.706   2.470   3.927  0.1676 -0.7182  1.4208
 6505TIP3   OH241149   3.087   1.036   4.041 -0.0416  0.0393 -0.3028
 6505TIP3    H141150   3.023   1.106   4.058 -0.5348 -0.5472  0.3048
 6505TIP3    H241151   3.063   1.002   3.955 -1.0795 -0.7104  0.2529
 6506TIP3   OH241152   5.430   4.131   3.349  0.1744 -0.2522  0.4758
 6506TIP3    H141153   5.494   4.103   3.283 -0.1327 -0.4815  0.2709
 6506TIP3    H241154   5.480   4.134   3.431  0.6467  0.4128  0.1679
 6507TIP3   OH241155   5.581   3.238   3.902 -0.4007 -0.1964 -0.9014
 6507TIP3    H141156   5.587   3.326   3.938  0.1995  0.7603 -3.1196
 6507TIP3    H241157   5.672   3.206   3.904 -1.0581 -2.6073  3.7709
 6508TIP3   OH241158   3.390   4.536   3.846  0.1454  0.0630 -0.0447
 6508TIP3    H141159   3.439   4.539   3.929  1.1304  0.9884 -0.6286
 6508TIP3    H241160   3.439   4.475   3.791 -0.5944 -0.6675  0.1006
 6509TIP3   OH241161   2.813   1.516   2.931 -0.4127 -0.5274  1.0283
 6509TIP3    H141162   2.844   1.482   2.847 -0.5838 -0.3349  0.8861
 6509TIP3    H241163   2.873   1.480   2.996  3.6940  4.0870  0.3507
 6510TIP3   OH241164   5.931   5.681   4.124  0.5859  0.5412  0.2538
 6510TIP3    H141165   5.909   5.665   4.032  1.4204  0.0500  0.1208
 6510TIP3    H241166   5.959   5.773   4.126  0.7649  0.4952 -0.0296
 6511TIP3   OH241167   2.802   0.351   5.119 -0.6793  0.2059 -0.0930
 6511TIP3    H141168   2.866   0.291   5.158 -1.7856 -1.5347 -0.8140
 6511TIP3    H241169   2.740   0.369   5.189  0.3621  1.5987  0.5013
 6512TIP3   OH241170   4.499   4.757   5.613 -0.2287 -0.0699 -0.7339
 6512TIP3    H141171   4.410   4.779   5.586 -0.5224  1.5426  1.2579
 6512TIP3    H241172   4.493   4.668   5.648 -1.3508  0.4070  0.3756
 6513TIP3   OH241173   4.051   3.917   2.591 -0.3182 -0.1107  0.3050
 6513TIP3    H141174   3.994   3.840   2.583  0.2820 -0.4058 -2.0062
 6513TIP3    H241175   4.138   3.884   2.566  0.0629  1.1766 -0.1325
 6514TIP3   OH241176   0.367   4.260   3.880 -0.4391 -0.1705 -0.3733
 6514TIP3    H141177   0.344   4.233   3.969 -0.7905 -2.2592 -1.0536
 6514TIP3    H241178   0.336   4.189   3.824  1.6643  0.0763 -1.9903
 6515TIP3   OH241179   5.778   1.021   2.869  0.1088  0.2337  0.2624
 6515TIP3    H141180   5.723   1.085   2.824  0.4199 -0.4707 -1.2047
 6515TIP3    H241181   5.817   0.969   2.798  1.2855 -0.4119  1.3298
 6516TIP3   OH241182   5.534   4.564   3.454 -0.5354  0.0417  0.7085
 6516TIP3    H141183   5.477   4.640   3.463  3.1020  3.0543  0.6722
 6516TIP3    H241184   5.565   4.547   3.543 -0.7389 -0.9759  0.6023
 6517TIP3   OH241185   3.189   1.542   3.290  0.2113 -0.0294  0.1254
 6517TIP3    H141186   3.101   1.555   3.254 -0.7556 -1.4440  1.8085
 6517TIP3    H241187   3.217   1.458   3.253  0.0430 -0.5094  1.0651
 6518TIP3   OH241188   0.379   0.459   2.250 -0.1462 -0.2418 -0.2477
 6518TIP3    H141189   0.359   0.414   2.168 -1.3251  0.5563 -0.4179
 6518TIP3    H241190   0.442   0.527   2.226  0.5158 -0.8380 -0.2438
 6519TIP3   OH241191   3.023   3.351   2.948 -0.1602 -0.8705 -0.2086
 6519TIP3    H141192   2.963   3.421   2.920 -0.7565 -1.5210 -0.5717
 6519TIP3    H241193   3.058   3.316   2.867  1.4125  0.0864  0.0234
 6520TIP3   OH241194   3.590   4.081   1.844 -0.1410 -0.0945  0.4298
 6520TIP3    H141195   3.572   3.993   1.878 -0.3606  0.2312  1.1652
 6520TIP3    H241196   3.515   4.100   1.788  0.8621 -1.1839 -1.4077
 6521TIP3   OH241197   0.518   5.131   1.436 -0.6012 -0.1784 -0.2892
 6521TIP3    H141198   0.429   5.149   1.465 -0.2038  2.3082 -0.3755
 6521TIP3    H241199   0.574   5.179   1.497  0.6364 -0.9418 -0.7748
 6522TIP3   OH241200   0.290   3.139   3.714  0.0595 -0.0577  0.5343
 6522TIP3    H141201   0.347   3.121   3.640 -0.6665 -3.6699  0.6818
 6522TIP3    H241202   0.281   3.055   3.759  1.4474  2.0965  5.5530
 6523TIP3   OH241203   6.191   3.646   2.925 -0.3980 -0.2359 -0.3999
 6523TIP3    H141204   6.225   3.730   2.953  1.1174  0.1249 -3.0364
 6523TIP3    H241205   6.202   3.589   3.002 -0.2103  1.5712  0.9885
 6524TIP3   OH241206   0.170   2.344   1.652  0.0479 -0.4487  0.0469
 6524TIP3    H141207   0.097   2.384   1.605  0.3169  0.1326  0.1150
 6524TIP3    H241208   0.131   2.272   1.700 -0.5418  0.0615  0.3474
 6525TIP3   OH241209   4.291   2.894   4.118  0.5899  0.3248 -0.4389
 6525TIP3    H141210   4.361   2.830   4.130 -0.3720 -0.4011  1.5828
 6525TIP3    H241211   4.212   2.842   4.109  0.1893  1.1614 -2.2305
 6526TIP3   OH241212   0.540   0.658   4.704  0.4210 -0.4830  0.0867
 6526TIP3    H141213   0.542   0.736   4.648 -1.4920 -0.5098 -0.1030
 6526TIP3    H241214   0.524   0.586   4.644 -0.3841 -0.6755  0.5151
 6527TIP3   OH241215   3.149   2.368   4.229 -0.3131  0.4329 -0.1020
 6527TIP3    H141216   3.207   2.438   4.199  1.4785  0.5111  3.1328
 6527TIP3    H241217   3.200   2.288   4.216  0.3371  0.4335  2.0977
 6528TIP3   OH241218   5.232   2.995   4.933 -1.0231 -0.0317  1.0024
 6528TIP3    H141219   5.187   2.979   4.850 -0.5826 -0.1230  0.7786
 6528TIP3    H241220   5.185   2.942   4.997 -3.0263  1.9988  1.3436
 6529TIP3   OH241221   3.629   4.462   0.384  0.0546 -0.9799  0.5969
 6529TIP3    H141222   3.566   4.424   0.446 -0.7734 -1.2398 -0.3671
 6529TIP3    H241223   3.680   4.387   0.353  0.0505 -0.9427  0.5005
 6530TIP3   OH241224   5.604   3.767   0.706 -0.6019 -0.0898 -0.2398
 6530TIP3    H141225   5.685   3.810   0.679  1.2468 -3.2017 -0.0981
 6530TIP3    H241226   5.535   3.831   0.686  1.7370  2.2656 -1.3798
 6531TIP3   OH241227   4.769   2.503   2.775 -0.1185  0.0681 -0.0331
 6531TIP3    H141228   4.678   2.530   2.786 -0.2190  0.2947 -1.3364
 6531TIP3    H241229   4.766   2.429   2.714  0.6353  0.6526 -0.8088
 6532TIP3   OH241230   5.361   5.557   4.810  0.4867 -0.5197 -0.1796
 6532TIP3    H141231   5.390   5.469   4.783 -0.8034 -0.2985 -2.5868
 6532TIP3    H241232   5.268   5.547   4.828  0.6813  0.0437  1.2274
 6533TIP3   OH241233   1.675   2.365   1.082 -0.2025  0.0788  0.1675
 6533TIP3    H141234   1.719   2.446   1.106  0.4050  0.7319 -2.7811
 6533TIP3    H241235   1.611   2.391   1.016 -2.6152 -1.3819  1.7807
 6534TIP3   OH241236   0.197   2.535   4.731  0.0260  0.1337  1.1629
 6534TIP3    H141237   0.145   2.455   4.742  1.7205 -1.2599 -0.3762
 6534TIP3    H241238   0.264   2.529   4.800  0.9018 -0.4613  0.2969
 6535TIP3   OH241239   5.491   0.920   3.370  0.3337 -0.4274  0.7010
 6535TIP3    H141240   5.451   0.984   3.429  1.0700 -0.2964  1.0744
 6535TIP3    H241241   5.532   0.973   3.302  0.4070 -0.5314  0.6638
 6536TIP3   OH241242   0.132   3.823   0.224 -0.0226  0.1616  0.8538
 6536TIP3    H141243   0.216   3.813   0.179  0.2193  1.2245  1.0422
 6536TIP3    H241244   0.116   3.736   0.262  1.4171  0.1476  1.5271
 6537TIP3   OH241245   1.361   2.938   2.938 -0.1870 -0.1854  0.0346
 6537TIP3    H141246   1.333   2.913   3.026  2.9910 -2.2038  0.6436
 6537TIP3    H241247   1.314   2.877   2.880 -1.3576  0.3442  0.3858
 6538TIP3   OH241248   2.381   0.221   2.996  0.6233 -0.0445  0.1465
 6538TIP3    H141249   2.448   0.152   3.000 -0.5314 -1.4623 -2.4349
 6538TIP3    H241250   2.425   0.295   2.954  0.9134 -0.5164 -0.3889
 6539TIP3   OH241251   0.126   2.383   2.853 -0.0512 -0.4859  0.1151
 6539TIP3    H141252   0.042   2.379   2.808  0.3901 -0.2839 -0.7443
 6539TIP3    H241253   0.173   2.305   2.824  0.3139 -0.2504  0.0629
 6540TIP3   OH241254   3.478   3.769   4.456  0.6867 -0.1310 -0.0628
 6540TIP3    H141255   3.564   3.803   4.431  0.4848 -0.2091 -0.8833
 6540TIP3    H241256   3.491   3.733   4.544  0.4391  4.0693  1.9897
 6541TIP3   OH241257   5.735   1.921   0.908 -0.2270 -0.4845 -0.2358
 6541TIP3    H141258   5.757   1.978   0.981 -0.2997  0.9102 -1.2584
 6541TIP3    H241259   5.641   1.930   0.897 -0.0714  0.1621 -1.1555
 6542TIP3   OH241260   0.464   2.957   3.982 -0.0188 -0.5435 -0.1120
 6542TIP3    H141261   0.375   2.945   3.950 -0.5333  0.8292  0.7260
 6542TIP3    H241262   0.454   2.992   4.070  1.3270  0.9112 -0.4936
 6543TIP3   OH241263   6.619   0.851   3.240  0.2084 -0.0767  0.0932
 6543TIP3    H141264   6.642   0.801   3.319  1.4744  0.5794  0.1478
 6543TIP3    H241265   6.577   0.930   3.274 -2.6538 -1.4067 -0.0067
 6544TIP3   OH241266   0.770   0.731   3.571  0.3465 -0.7108  0.1370
 6544TIP3    H141267   0.859   0.748   3.541  1.5245 -1.3585  2.9592
 6544TIP3    H241268   0.743   0.811   3.616 -1.3708  0.2259 -2.2953
 6545TIP3   OH241269   0.884   1.547   5.297 -0.2847  0.2338 -0.2144
 6545TIP3    H141270   0.899   1.641   5.291 -0.3208  0.4001  1.7392
 6545TIP3    H241271   0.804   1.532   5.246 -0.0876  1.1738 -0.8337
 6546TIP3   OH241272   3.585   5.748   4.156  0.4084 -0.2778  0.3409
 6546TIP3    H141273   3.551   5.818   4.100  0.5876 -0.0581  0.5098
 6546TIP3    H241274   3.634   5.793   4.225 -2.2181 -0.3085  2.4251
 6547TIP3   OH241275   4.522   0.793   3.624  0.7084 -0.1292 -0.3547
 6547TIP3    H141276   4.607   0.818   3.588  0.9284  0.1673  0.3598
 6547TIP3    H241277   4.539   0.715   3.677  0.6938  0.4121  0.4637
 6548TIP3   OH241278   4.341   2.301   3.854 -0.2686 -0.0072 -0.4220
 6548TIP3    H141279   4.305   2.390   3.854  1.5889  0.7885  0.5968
 6548TIP3    H241280   4.416   2.306   3.913  0.8017 -1.8866 -1.5712
 6549TIP3   OH241281   6.676   3.537   1.392  0.3285 -0.0867  0.2578
 6549TIP3    H141282   6.732   3.529   1.469 -2.6109  1.5784  2.8067
 6549TIP3    H241283   6.701   3.620   1.351  1.9794 -1.0353 -0.7523
 6550TIP3   OH241284   2.554   6.746   4.242  0.2441  0.3893 -0.3571
 6550TIP3    H141285   2.592   6.799   4.172 -0.7754  0.1741 -1.0915
 6550TIP3    H241286   2.473   6.712   4.205  0.4107 -0.9319  0.4199
 6551TIP3   OH241287   3.648   2.439   3.379 -0.6654 -0.2089 -0.4453
 6551TIP3    H141288   3.567   2.461   3.426 -0.9441  0.0893 -1.0533
 6551TIP3    H241289   3.619   2.420   3.290 -0.2141 -1.3382 -0.3725
 6552TIP3   OH241290   6.525   1.642   4.200 -0.1555 -0.1835  0.5322
 6552TIP3    H141291   6.449   1.685   4.240 -0.2486  1.1001 -0.9041
 6552TIP3    H241292   6.500   1.630   4.108  1.7698  1.3355 -0.2633
 6553TIP3   OH241293   1.032   2.586   3.473 -0.6635  0.0376 -0.7343
 6553TIP3    H141294   1.071   2.673   3.485 -3.1345  1.0855  0.4031
 6553TIP3    H241295   1.040   2.543   3.558 -0.9557 -0.1701 -0.8068
 6554TIP3   OH241296   3.947   2.562   3.649  0.3644 -0.2449 -0.3796
 6554TIP3    H141297   3.930   2.492   3.713  2.8027  0.3665  1.0666
 6554TIP3    H241298   4.042   2.571   3.648  0.1453  3.6835  0.2316
 6555TIP3   OH241299   0.389   2.556   4.537 -0.4687 -0.0185 -0.6954
 6555TIP3    H141300   0.400   2.481   4.479  1.5253 -0.4816  0.2017
 6555TIP3    H241301   0.309   2.538   4.586 -1.1604 -0.5045 -1.9690
 6556TIP3   OH241302   0.923   5.095   1.484  0.8536 -0.7972  0.0636
 6556TIP3    H141303   0.845   5.046   1.508  2.2558 -3.5484 -0.6732
 6556TIP3    H241304   0.986   5.076   1.554  1.0366  1.1141  0.4733
 6557TIP3   OH241305   5.378   6.241   3.078 -0.1499 -0.4060 -0.5045
 6557TIP3    H141306   5.440   6.209   3.144 -1.5735 -2.3035 -0.0097
 6557TIP3    H241307   5.292   6.212   3.110 -1.0047 -0.3094 -2.5923
 6558TIP3   OH241308   6.734   1.763   3.358 -0.1185  0.2216 -0.6687
 6558TIP3    H141309   6.645   1.792   3.340 -0.3331 -0.8003 -1.3069
 6558TIP3    H241310   6.724   1.685   3.412  0.3445 -0.4394 -1.5128
 6559TIP3   OH241311   6.460   0.165   4.992 -0.1199 -0.7400 -0.3598
 6559TIP3    H141312   6.505   0.249   5.000 -0.7375 -0.5538  1.7891
 6559TIP3    H241313   6.367   0.187   4.983 -0.5430 -1.1256  2.2532
 6560TIP3   OH241314   4.137   4.054   1.616 -0.5569 -0.1056  0.1140
 6560TIP3    H141315   4.213   4.001   1.592 -1.1530 -1.0360  0.2365
 6560TIP3    H241316   4.148   4.070   1.710 -0.0558  0.5287 -0.0462
 6561TIP3   OH241317   5.722   5.449   3.510  0.0768  0.4835  0.1007
 6561TIP3    H141318   5.752   5.406   3.590  0.0386  0.0471 -0.1164
 6561TIP3    H241319   5.652   5.393   3.477  1.9891 -0.9773 -1.8017
 6562TIP3   OH241320   0.739   0.753   2.818  0.1363 -0.1633 -0.4727
 6562TIP3    H141321   0.680   0.824   2.790  1.1713  0.0993 -2.1072
 6562TIP3    H241322   0.774   0.783   2.902 -0.6046  0.5519 -0.4079
 6563TIP3   OH241323   0.891   4.442   1.765 -0.4094 -0.2636 -0.4070
 6563TIP3    H141324   0.829   4.455   1.693 -1.8959 -0.5888  0.7869
 6563TIP3    H241325   0.865   4.359   1.805  2.0881 -1.4810 -1.1077
 6564TIP3   OH241326   1.139   2.833   3.492  0.1046  0.8711 -0.4118
 6564TIP3    H141327   1.186   2.846   3.575 -0.8806 -0.6260  0.4482
 6564TIP3    H241328   1.148   2.916   3.446  2.8922  0.9224  0.0247
 6565TIP3   OH241329   3.612   1.860   4.164 -0.2662  0.5946  0.6431
 6565TIP3    H141330   3.593   1.856   4.070  0.1526 -0.7684  0.5870
 6565TIP3    H241331   3.550   1.924   4.198  0.0174  1.6072 -0.6605
 6566TIP3   OH241332   1.540   1.418   2.130  0.0399  0.4865 -0.3098
 6566TIP3    H141333   1.529   1.398   2.036 -2.2807  0.7797 -0.1676
 6566TIP3    H241334   1.520   1.511   2.137 -0.4489  0.3294  0.5444
 6567TIP3   OH241335   5.596   0.962   3.103 -0.0930 -0.1363 -0.3390
 6567TIP3    H141336   5.677   1.010   3.084 -0.9456  1.2590 -0.6273
 6567TIP3    H241337   5.611   0.874   3.068  1.5121 -0.0857  0.1694
 6568TIP3   OH241338   1.371   1.144   3.375 -0.2557  0.0103  0.8504
 6568TIP3    H141339   1.387   1.069   3.432 -0.2948 -1.9835 -1.5449
 6568TIP3    H241340   1.294   1.119   3.324 -0.5318  1.8917  0.2896
 6569TIP3   OH241341   0.367   2.365   1.422  0.0936 -0.4326  0.2212
 6569TIP3    H141342   0.327   2.343   1.506  0.1551 -0.5259  0.2260
 6569TIP3    H241343   0.303   2.421   1.379  0.7484  1.0294  1.0355
 6570TIP3   OH241344   4.969   5.103   2.398  0.3030 -0.6634  0.0890
 6570TIP3    H141345   4.882   5.094   2.436  0.1085 -4.1117 -0.8645
 6570TIP3    H241346   4.962   5.060   2.312  2.8124 -0.5927 -0.2137
 6571TIP3   OH241347   1.329   6.523   0.762  0.6923 -0.0005  0.4905
 6571TIP3    H141348   1.350   6.565   0.679 -1.3055  1.5323  0.6863
 6571TIP3    H241349   1.310   6.432   0.739  0.8105  0.2494 -0.6319
 6572TIP3   OH241350   0.486   0.736   4.139  0.2965  0.5585  0.4668
 6572TIP3    H141351   0.447   0.679   4.073  0.7917  0.6269  0.1055
 6572TIP3    H241352   0.565   0.690   4.166 -1.0639 -0.6129  2.7299
 6573TIP3   OH241353   1.602   1.730   4.311  0.6425  0.1338 -0.1602
 6573TIP3    H141354   1.564   1.812   4.281  0.1546  0.4012  1.1378
 6573TIP3    H241355   1.605   1.738   4.407 -0.5586 -1.8246  0.0961
 6574TIP3   OH241356   3.715   3.921   4.261 -0.6711  0.0410  0.4425
 6574TIP3    H141357   3.789   3.973   4.292 -0.8890  0.5915  0.0714
 6574TIP3    H241358   3.662   3.983   4.210 -0.9339 -0.5477 -0.0229
 6575TIP3   OH241359   1.884   3.473   1.428 -0.0948  0.2838 -0.0638
 6575TIP3    H141360   1.951   3.540   1.416 -0.3559  0.5419 -0.1176
 6575TIP3    H241361   1.803   3.523   1.441 -0.3370 -0.0249 -0.3588
 6576TIP3   OH241362   4.362   3.871   2.146 -0.4471  0.5910 -0.2459
 6576TIP3    H141363   4.455   3.892   2.153 -0.6533  1.0653  1.9119
 6576TIP3    H241364   4.345   3.866   2.052  2.0139 -0.7440 -0.7186
 6577TIP3   OH241365   4.879   5.057   2.864 -0.1195  0.5875 -0.4012
 6577TIP3    H141366   4.950   5.106   2.824 -0.4017  1.8768  0.5802
 6577TIP3    H241367   4.813   5.124   2.885 -0.9351 -0.3499  0.1086
 6578TIP3   OH241368   3.735   5.192   2.044  0.1481 -0.0158 -0.0211
 6578TIP3    H141369   3.809   5.218   1.990  0.2975 -3.4765 -1.7425
 6578TIP3    H241370   3.771   5.133   2.109 -0.9421 -1.1836 -0.4277
 6579TIP3   OH241371   0.985   5.765   1.345  0.2856  0.0424  0.3622
 6579TIP3    H141372   1.075   5.742   1.323  0.5288  0.9358  0.4086
 6579TIP3    H241373   0.968   5.846   1.297 -1.4440 -1.5599 -1.9265
 6580TIP3   OH241374   1.864   3.661   2.136 -0.0916  0.1000  0.0412
 6580TIP3    H141375   1.882   3.739   2.189 -0.6031  0.1102  0.1975
 6580TIP3    H241376   1.770   3.647   2.143  0.2406 -1.7152  1.6843
 6581TIP3   OH241377   0.764   5.345   1.065  0.3015 -0.3849 -0.0712
 6581TIP3    H141378   0.811   5.428   1.068  0.4084 -0.4540  2.8548
 6581TIP3    H241379   0.809   5.295   0.997  2.8431  0.4997  0.8354
 6582TIP3   OH241380   1.100   0.785   2.954  0.0880  0.4963 -0.3344
 6582TIP3    H141381   1.011   0.813   2.975 -0.5413 -2.1224  0.9486
 6582TIP3    H241382   1.147   0.793   3.037  0.3476 -0.4290 -0.3820
 6583TIP3   OH241383   3.885   2.289   1.777 -0.4948  0.4565  0.5962
 6583TIP3    H141384   3.878   2.383   1.794  0.2695  0.7717 -0.7056
 6583TIP3    H241385   3.799   2.264   1.742  0.4744  1.5964 -3.0184
 6584TIP3   OH241386   1.164   6.153   3.666  0.0442  0.2042  0.5390
 6584TIP3    H141387   1.201   6.065   3.656 -0.4049  0.1787 -1.3317
 6584TIP3    H241388   1.092   6.143   3.728  1.6630 -0.1935  2.4213
 6585TIP3   OH241389   6.421   3.360   4.401  0.0838  0.1981 -0.2812
 6585TIP3    H141390   6.379   3.441   4.431  1.5170  1.1088 -0.6421
 6585TIP3    H241391   6.405   3.358   4.307  0.0680  0.0811 -0.2756
 6586TIP3   OH241392   6.654   1.199   2.021 -0.0616 -0.1600 -0.9473
 6586TIP3    H141393   6.745   1.221   2.001  0.2248  0.0945  0.5127
 6586TIP3    H241394   6.635   1.123   1.966  0.9966 -0.1406 -1.3599
 6587TIP3   OH241395   0.455   4.732   0.876  0.0853  0.2279  0.0154
 6587TIP3    H141396   0.360   4.746   0.868 -0.0356 -0.7246 -0.2561
 6587TIP3    H241397   0.467   4.706   0.967 -0.0105 -0.3859 -0.1459
 6588TIP3   OH241398   2.953   0.446   3.679 -0.0905  0.5692  0.0704
 6588TIP3    H141399   2.918   0.490   3.757 -0.6750  0.0490  0.1038
 6588TIP3    H241400   2.905   0.484   3.606  1.5650  2.2229 -0.2245
 6589TIP3   OH241401   0.567   6.456   4.366 -0.5814  0.7040 -0.6527
 6589TIP3    H141402   0.641   6.494   4.413 -2.3062  2.7550  0.6060
 6589TIP3    H241403   0.497   6.451   4.431 -1.2985 -2.2977 -1.4684
 6590TIP3   OH241404   4.879   4.317   5.067 -0.1116 -0.5959 -0.5726
 6590TIP3    H141405   4.864   4.231   5.029  0.2163 -0.6060 -0.6844
 6590TIP3    H241406   4.917   4.368   4.995  0.8424 -0.7112 -0.1667
 6591TIP3   OH241407   4.470   3.964   1.203  0.0132 -0.3275  0.1089
 6591TIP3    H141408   4.473   4.013   1.121 -0.4579 -0.9599 -0.2948
 6591TIP3    H241409   4.559   3.971   1.238  0.6258 -1.2320 -1.1730
 6592TIP3   OH241410   1.304   4.375   1.118 -0.1693 -0.1050  0.1109
 6592TIP3    H141411   1.386   4.399   1.161 -0.3078 -1.8249  1.4199
 6592TIP3    H241412   1.254   4.457   1.116  2.2464  1.5415 -2.5312
 6593TIP3   OH241413   3.757   0.325   4.298  0.2203  0.6139 -0.1714
 6593TIP3    H141414   3.753   0.310   4.204  2.5624 -0.6670 -0.1524
 6593TIP3    H241415   3.689   0.268   4.335 -0.9035  1.3409 -1.0689
 6594TIP3   OH241416   3.705   0.071   1.828  0.3928  0.5436 -0.2794
 6594TIP3    H141417   3.778   0.133   1.831  0.5779  0.3821 -1.1410
 6594TIP3    H241418   3.662   0.089   1.744  0.5264 -0.5724 -0.5960
 6595TIP3   OH241419   5.246   2.058   1.550  0.1185  0.4700 -0.0886
 6595TIP3    H141420   5.191   2.114   1.604 -0.2261  1.0034 -0.9811
 6595TIP3    H241421   5.205   2.060   1.463 -1.9598 -3.7965  0.4971
 6596TIP3   OH241422   0.719   5.185   2.700  0.4463  0.6445 -1.3440
 6596TIP3    H141423   0.809   5.182   2.669  0.4357 -1.3518 -1.2977
 6596TIP3    H241424   0.707   5.103   2.749 -0.8943  1.6313  0.0939
 6597TIP3   OH241425   0.596   1.058   4.756 -0.2697  0.0427  0.4950
 6597TIP3    H141426   0.546   1.138   4.772  0.0416  0.6790 -1.4634
 6597TIP3    H241427   0.619   1.026   4.844  0.0543  2.3731  1.3176
 6598TIP3   OH241428   6.618   5.525   2.210  0.1554  0.0221 -0.5781
 6598TIP3    H141429   6.710   5.502   2.224  0.4679  1.3394 -0.3304
 6598TIP3    H241430   6.613   5.544   2.116 -0.6138 -3.0824 -1.2809
 6599TIP3   OH241431   3.412   3.772   3.583  0.0605  0.1245  0.1994
 6599TIP3    H141432   3.486   3.798   3.637 -1.8932  0.4273  2.9554
 6599TIP3    H241433   3.368   3.703   3.632 -2.6247  1.3691 -0.2438
 6600TIP3   OH241434   1.242   4.898   1.238  0.0481 -0.5121 -0.1646
 6600TIP3    H141435   1.265   4.923   1.148  0.2746 -0.1053  0.0068
 6600TIP3    H241436   1.193   4.973   1.272 -0.1501 -0.7201  0.0098
 6601TIP3   OH241437   5.762   4.322   2.389 -0.4497 -0.1702 -0.0868
 6601TIP3    H141438   5.682   4.281   2.357 -0.3816 -1.2500  1.0446
 6601TIP3    H241439   5.748   4.416   2.378 -1.7428 -0.3648 -0.1742
 6602TIP3   OH241440   2.504   4.143   1.638 -0.1311 -0.4585  0.2680
 6602TIP3    H141441   2.426   4.098   1.670 -0.2514  0.1359  0.8537
 6602TIP3    H241442   2.487   4.236   1.657  0.5217 -0.2764 -0.0085
 6603TIP3   OH241443   0.105   6.644   2.559 -0.3102 -0.0824 -0.1103
 6603TIP3    H141444   0.199   6.632   2.575 -0.5400 -0.5358  0.9634
 6603TIP3    H241445   0.076   6.700   2.631 -1.2838 -1.7524  0.8459
 6604TIP3   OH241446   2.674   5.169   3.903  0.1476  0.2517  0.1035
 6604TIP3    H141447   2.591   5.129   3.926 -0.0006  0.2086 -0.4745
 6604TIP3    H241448   2.721   5.177   3.985  0.6399 -2.1314  0.1078
 6605TIP3   OH241449   6.650   6.244   1.547 -0.6067 -0.0416 -0.4601
 6605TIP3    H141450   6.745   6.249   1.557 -0.8552  2.2544  1.6247
 6605TIP3    H241451   6.630   6.150   1.551  1.3724 -0.4639  1.8236
 6606TIP3   OH241452   3.154   2.021   4.365 -0.8108 -0.1408  0.8412
 6606TIP3    H141453   3.185   2.054   4.280  0.9124 -0.7309  1.2051
 6606TIP3    H241454   3.190   2.083   4.429  0.4513 -1.3622  1.3497
 6607TIP3   OH241455   3.855   1.405   3.988 -0.2316  0.0265 -0.7034
 6607TIP3    H141456   3.772   1.445   3.962  0.8711  2.5820 -0.6380
 6607TIP3    H241457   3.891   1.372   3.906  0.1175  1.8710 -1.3459
 6608TIP3   OH241458   2.779   2.076   1.025 -0.1611  0.2735 -0.8167
 6608TIP3    H141459   2.842   2.006   1.042  1.1634  0.9257 -2.6746
 6608TIP3    H241460   2.804   2.146   1.085 -2.8815 -1.4549  2.7019
 6609TIP3   OH241461   4.273   5.687   4.050  0.1672 -0.1877  0.4561
 6609TIP3    H141462   4.195   5.653   4.008  0.2126 -0.1499  0.3409
 6609TIP3    H241463   4.319   5.610   4.083  0.5588 -0.2887 -0.3021
 6610TIP3   OH241464   1.853   6.671   2.462  0.1320  0.7673  0.1707
 6610TIP3    H141465   1.867   6.726   2.540  1.4329  0.2725  0.3014
 6610TIP3    H241466   1.791   6.604   2.491 -0.6512  1.5302  0.3066
 6611TIP3   OH241467   1.758   4.008   1.926 -0.4715  0.1694  0.2358
 6611TIP3    H141468   1.713   3.988   1.844  0.2887  1.9885 -0.6943
 6611TIP3    H241469   1.843   4.043   1.898 -0.3091  1.0872  1.7962
 6612TIP3   OH241470   0.058   1.144   2.591 -0.6797 -0.1657  0.0601
 6612TIP3    H141471  -0.017   1.105   2.546 -0.3561 -0.4374 -0.2561
 6612TIP3    H241472   0.025   1.166   2.678 -0.3880 -2.9575  0.9864
 6613TIP3   OH241473   3.486   0.830   1.666  0.0803 -0.1509 -0.3213
 6613TIP3    H141474   3.437   0.909   1.687  1.3686  0.5333  0.2158
 6613TIP3    H241475   3.420   0.767   1.637 -1.4988 -0.2166  3.0600
 6614TIP3   OH241476   0.331   0.613   2.875  0.0683 -0.5886 -0.0027
 6614TIP3    H141477   0.273   0.551   2.918 -0.9562  0.9344  0.9350
 6614TIP3    H241478   0.297   0.622   2.786  0.1185 -1.2227 -0.0869
 6615TIP3   OH241479   1.290   4.506   5.457  0.3019 -0.1614  0.5849
 6615TIP3    H141480   1.204   4.545   5.472 -0.3315 -1.1018 -0.4201
 6615TIP3    H241481   1.343   4.578   5.424 -0.1610  0.3785  0.9885
 6616TIP3   OH241482   1.986   5.523   1.368 -0.1966  0.6143  0.6376
 6616TIP3    H141483   1.986   5.562   1.280 -1.3298  1.4563  0.9882
 6616TIP3    H241484   1.948   5.591   1.423  1.9650  0.7434  2.0884
 6617TIP3   OH241485   4.904   2.803   3.379 -0.5736  0.8048 -0.2145
 6617TIP3    H141486   4.973   2.737   3.368 -1.9786 -0.4532 -2.1326
 6617TIP3    H241487   4.943   2.869   3.437  2.0210 -0.1208 -0.7598
 6618TIP3   OH241488   3.084   4.741   0.684  0.1019  0.3588  0.2526
 6618TIP3    H141489   3.050   4.747   0.773 -0.3410 -0.5043  0.1485
 6618TIP3    H241490   3.145   4.667   0.686  0.0003  0.2577 -0.1871
 6619TIP3   OH241491   0.771   5.363   4.588  0.3575 -0.4260 -0.3330
 6619TIP3    H141492   0.849   5.331   4.633  1.3136 -0.3874 -1.8998
 6619TIP3    H241493   0.743   5.438   4.640  1.5803 -0.2147  0.0568
 6620TIP3   OH241494   2.445   2.718   0.766  0.5279  0.8063 -0.2971
 6620TIP3    H141495   2.487   2.650   0.713  3.3732  2.0078  0.2232
 6620TIP3    H241496   2.401   2.774   0.702  0.6513  0.1258 -1.0001
 6621TIP3   OH241497   6.504   0.002   3.479 -0.0780 -0.1706 -0.3612
 6621TIP3    H141498   6.439  -0.068   3.479 -0.7341  0.4255 -0.4764
 6621TIP3    H241499   6.476   0.061   3.409  0.5901  0.1001 -0.4109
 6622TIP3   OH241500   2.091   6.378   3.369  0.1259  0.0328  0.0508
 6622TIP3    H141501   2.130   6.450   3.418  0.1069 -0.1601  0.3539
 6622TIP3    H241502   2.161   6.313   3.361 -0.1102 -0.2926  0.5523
 6623TIP3   OH241503   0.259   1.012   4.620  0.0877  0.3034  0.0846
 6623TIP3    H141504   0.284   0.951   4.690  0.9556 -0.3546 -0.7806
 6623TIP3    H241505   0.167   0.990   4.601  0.4548 -0.8886 -0.3669
 6624TIP3   OH241506   5.233   4.071   2.112  0.2470 -0.0407 -0.1001
 6624TIP3    H141507   5.327   4.059   2.099 -0.1008 -1.5847 -1.7425
 6624TIP3    H241508   5.210   4.004   2.177  0.4811  1.3321  1.4445
 6625TIP3   OH241509   0.532   5.592   1.582 -0.0362 -0.3049  0.0573
 6625TIP3    H141510   0.498   5.503   1.594  1.8320 -0.7346  3.0877
 6625TIP3    H241511   0.615   5.580   1.535  1.2578 -0.4692  2.2754
 6626TIP3   OH241512   2.521   1.468   2.161  0.0523 -0.9858  0.0804
 6626TIP3    H141513   2.462   1.400   2.128  0.5016 -1.0763 -0.5723
 6626TIP3    H241514   2.593   1.469   2.098  0.4122 -0.4101  0.4913
 6627TIP3   OH241515   4.003   1.186   0.361  0.3761 -0.6247  0.3033
 6627TIP3    H141516   3.944   1.171   0.287  1.1640 -0.7225 -0.3246
 6627TIP3    H241517   4.055   1.106   0.366  0.4907 -0.5190  0.8111
 6628TIP3   OH241518   0.653   6.376   0.374  0.3076  0.0922  0.1161
 6628TIP3    H141519   0.598   6.451   0.350 -0.7606 -1.2892 -2.0224
 6628TIP3    H241520   0.603   6.329   0.440 -0.8288 -0.7838 -1.3248
 6629TIP3   OH241521   6.589   4.068   3.265 -0.0185  0.1542 -0.5520
 6629TIP3    H141522   6.669   4.040   3.221 -0.9640 -1.5226 -1.2895
 6629TIP3    H241523   6.599   4.036   3.355  0.1069 -0.1101 -0.6596
 6630TIP3   OH241524   6.269   1.613   4.371 -0.1003  0.1524 -0.0820
 6630TIP3    H141525   6.321   1.584   4.446  0.2996 -1.2719 -0.8773
 6630TIP3    H241526   6.180   1.624   4.406  0.3708  0.9478  0.9030
 6631TIP3   OH241527   6.473   1.765   3.367  0.8298  0.4951 -0.0776
 6631TIP3    H141528   6.397   1.809   3.329 -1.8852 -3.1202  0.6183
 6631TIP3    H241529   6.472   1.791   3.459  1.2377  1.4406 -0.3354
 6632TIP3   OH241530   4.586   0.744   3.335  0.0542 -0.0946 -0.5824
 6632TIP3    H141531   4.578   0.656   3.299  0.3337 -0.1627 -0.4821
 6632TIP3    H241532   4.649   0.735   3.407  0.2779  0.2307 -0.7323
 6633TIP3   OH241533   0.684   4.971   4.945 -0.1160 -0.0604  0.0075
 6633TIP3    H141534   0.751   4.937   4.886  0.4496  1.4336 -0.2619
 6633TIP3    H241535   0.601   4.949   4.903  0.2126 -0.9321 -0.2181
 6634TIP3   OH241536   5.349   6.458   0.938 -0.3249 -0.0376  0.3855
 6634TIP3    H141537   5.415   6.416   0.883  0.8021  0.2694  1.4508
 6634TIP3    H241538   5.297   6.510   0.877  0.0777 -0.7098 -0.5537
 6635TIP3   OH241539   6.020   1.713   2.204 -0.1218 -0.0325  0.5456
 6635TIP3    H141540   6.032   1.722   2.298  0.8315  0.2213  0.4052
 6635TIP3    H241541   6.009   1.619   2.190 -2.4232  0.0767  1.1320
 6636TIP3   OH241542   0.986   4.528   4.014  0.0342 -0.0842 -0.4465
 6636TIP3    H141543   0.980   4.466   3.941  0.8949  0.6575 -1.1826
 6636TIP3    H241544   0.952   4.610   3.978 -1.5583 -0.2182  0.6648
 6637TIP3   OH241545   2.776   6.099   3.354 -0.5798 -0.1595  0.1619
 6637TIP3    H141546   2.850   6.040   3.337  1.4837  1.6573  2.1196
 6637TIP3    H241547   2.743   6.071   3.440  1.4084  2.2707  1.8638
 6638TIP3   OH241548   0.215   3.973   3.677 -0.3887  0.3709 -0.6652
 6638TIP3    H141549   0.260   3.955   3.760 -0.4019  2.5965 -0.1109
 6638TIP3    H241550   0.285   3.986   3.614 -0.2395  1.8262 -0.2473
 6639TIP3   OH241551   0.796   4.102   2.088 -0.7936  0.5974 -0.5791
 6639TIP3    H141552   0.733   4.109   2.160  1.0974  2.0635  1.0231
 6639TIP3    H241553   0.866   4.046   2.123 -0.9552 -0.7114 -2.2017
 6640TIP3   OH241554   4.830   0.601   1.628  0.6775 -0.1681 -0.0406
 6640TIP3    H141555   4.866   0.650   1.702 -0.5209 -0.5930  0.8545
 6640TIP3    H241556   4.899   0.605   1.561  2.2557 -0.6916  1.4618
 6641TIP3   OH241557   3.505   1.305   2.776  0.1547  0.2115 -0.2655
 6641TIP3    H141558   3.544   1.367   2.714 -0.8484 -0.1859 -1.3201
 6641TIP3    H241559   3.569   1.235   2.784  0.5282  0.5302 -0.4111
 6642TIP3   OH241560   4.337   0.958   2.115  0.0877  0.3250 -0.5136
 6642TIP3    H141561   4.416   0.990   2.159 -0.0587  0.1207 -0.0941
 6642TIP3    H241562   4.311   0.881   2.165 -0.7135  0.7273 -0.2732
 6643TIP3   OH241563   4.157   4.847   0.513  0.2571 -0.2323 -0.2600
 6643TIP3    H141564   4.201   4.931   0.529  2.8058 -1.6404  0.6123
 6643TIP3    H241565   4.183   4.792   0.587  0.0507 -2.3125 -1.6552
 6644TIP3   OH241566   4.611   0.297   0.757  0.0094  0.1188 -0.1051
 6644TIP3    H141567   4.527   0.342   0.764  0.1388  0.4956 -0.9144
 6644TIP3    H241568   4.677   0.365   0.769  0.2291 -0.2880  1.2655
 6645TIP3   OH241569   2.134   0.908   3.146 -0.4824 -0.4408 -0.5955
 6645TIP3    H141570   2.113   0.899   3.238 -1.8907 -0.0824 -0.8618
 6645TIP3    H241571   2.219   0.865   3.136 -1.2255 -2.2402  0.4830
 6646TIP3   OH241572   1.343   2.131   3.529 -0.4881  0.0550 -0.2239
 6646TIP3    H141573   1.374   2.149   3.618 -1.9769  0.0427  0.3334
 6646TIP3    H241574   1.415   2.084   3.488 -0.0575 -0.6227  1.2281
 6647TIP3   OH241575   0.730   2.304   1.815 -0.1493  0.0685  0.0483
 6647TIP3    H141576   0.793   2.252   1.865  0.0771 -0.4710 -0.7934
 6647TIP3    H241577   0.751   2.286   1.724 -1.3604  0.0699 -0.2446
 6648TIP3   OH241578   2.058   3.984   2.199  0.7389 -0.1711  0.1570
 6648TIP3    H141579   2.068   4.072   2.235  1.3477 -0.1776  0.0114
 6648TIP3    H241580   2.056   3.996   2.104 -1.9059 -0.0451  0.1483
 6649TIP3   OH241581   4.443   0.089   2.341  0.1843  0.3867 -0.2216
 6649TIP3    H141582   4.364   0.103   2.394 -0.8217  0.8381 -1.7786
 6649TIP3    H241583   4.515   0.093   2.404 -1.0798 -1.1755  1.4312
 6650TIP3   OH241584   0.354   0.132   0.781 -0.3325 -0.1106 -0.0319
 6650TIP3    H141585   0.307   0.073   0.841 -0.9011 -0.0961 -0.4508
 6650TIP3    H241586   0.346   0.090   0.696 -1.9186  1.2060 -0.5923
 6651TIP3   OH241587   1.437   3.151   3.799  0.2363  0.1061  0.9008
 6651TIP3    H141588   1.406   3.188   3.882 -0.8953  1.8140 -0.2356
 6651TIP3    H241589   1.367   3.170   3.737  1.4752 -0.3237 -0.6702
 6652TIP3   OH241590   3.950   1.738   4.142 -0.0822  0.1625 -0.1652
 6652TIP3    H141591   3.967   1.708   4.053  0.2996  1.0719 -0.4068
 6652TIP3    H241592   4.034   1.730   4.187 -0.0359  0.6410 -0.1653
 6653TIP3   OH241593   3.486   6.124   4.348  0.3729 -0.1764  0.0501
 6653TIP3    H141594   3.427   6.144   4.420  0.1796 -1.2478  0.2121
 6653TIP3    H241595   3.516   6.209   4.316 -1.0937  0.3719  0.0962
 6654TIP3   OH241596   0.142   0.957   0.894 -0.1117  0.5327  0.3004
 6654TIP3    H141597   0.184   0.935   0.811  1.5116  1.8316  0.7327
 6654TIP3    H241598   0.215   0.972   0.954 -1.2412 -1.4233  2.2780
 6655TIP3   OH241599   6.071   3.285   3.297 -1.1102  0.4922 -0.6387
 6655TIP3    H141600   6.141   3.334   3.254  0.6348 -0.0642  1.3991
 6655TIP3    H241601   6.039   3.344   3.365  1.6884 -1.2920  2.5045
 6656TIP3   OH241602   1.501   2.893   5.209 -0.0195  0.3769 -0.6477
 6656TIP3    H141603   1.420   2.898   5.260 -0.9835 -2.3863 -1.7573
 6656TIP3    H241604   1.556   2.830   5.256  0.0321 -0.4153 -1.7359
 6657TIP3   OH241605   4.228   3.667   3.651  0.4203 -0.1083 -0.6225
 6657TIP3    H141606   4.286   3.727   3.604 -0.2230  0.4540 -0.7032
 6657TIP3    H241607   4.189   3.720   3.721  2.0083 -1.1055  1.1464
 6658TIP3   OH241608   1.283   1.087   1.058  0.1019 -0.2547  0.2403
 6658TIP3    H141609   1.357   1.051   1.107 -0.0999  1.2201  1.7099
 6658TIP3    H241610   1.309   1.176   1.037 -1.6389  0.6781  1.7514
 6659TIP3   OH241611   4.286   6.458   3.423  0.6822 -0.0135 -0.3601
 6659TIP3    H141612   4.357   6.449   3.359  1.0360 -0.1319  0.0502
 6659TIP3    H241613   4.330   6.471   3.507  0.3027  4.3500 -0.6006
 6660TIP3   OH241614   3.970   0.462   4.425 -0.0808  0.3374  0.0019
 6660TIP3    H141615   3.927   0.429   4.504 -1.2608 -0.3894 -0.9077
 6660TIP3    H241616   3.928   0.414   4.353  0.8977  1.0487 -1.0784
 6661TIP3   OH241617   3.016   6.078   3.647  0.1964 -0.2085  0.5047
 6661TIP3    H141618   2.942   6.128   3.682  0.7307  0.3244  0.8842
 6661TIP3    H241619   3.084   6.143   3.631  0.2070 -0.5383 -0.9200
 6662TIP3   OH241620   1.214   4.437   1.599 -0.0232  0.1492  0.1349
 6662TIP3    H141621   1.128   4.466   1.628  1.3616  3.0530  1.7230
 6662TIP3    H241622   1.258   4.409   1.679  1.1802  0.5962 -0.3491
 6663TIP3   OH241623   5.410   3.339   4.874 -0.8508 -0.6014 -0.4348
 6663TIP3    H141624   5.320   3.310   4.892 -0.4923 -0.8997  1.0306
 6663TIP3    H241625   5.440   3.377   4.957  0.5664 -1.0288 -0.7256
 6664TIP3   OH241626   5.662   3.831   1.880 -0.3404 -0.3817 -0.1188
 6664TIP3    H141627   5.660   3.770   1.807  2.2228  0.6887 -1.1849
 6664TIP3    H241628   5.738   3.804   1.932  0.8881  1.8458 -0.6458
 6665TIP3   OH241629   4.442   0.452   3.005 -0.1711  0.4431  0.5235
 6665TIP3    H141630   4.534   0.477   3.010 -0.4114  1.5756 -0.3637
 6665TIP3    H241631   4.434   0.406   2.921 -0.8534  2.3880 -0.5173
 6666TIP3   OH241632   6.615   0.890   4.214 -0.3279  0.0851  0.5475
 6666TIP3    H141633   6.680   0.953   4.247 -0.6498  0.8472 -0.2263
 6666TIP3    H241634   6.552   0.944   4.167  0.3496 -0.9712 -1.6977
 6667TIP3   OH241635   3.781   5.657   1.305  0.6206 -0.2424  0.2014
 6667TIP3    H141636   3.732   5.739   1.299  0.4943 -0.4161 -2.1954
 6667TIP3    H241637   3.755   5.619   1.389  0.3301  1.9099  1.1556
 6668TIP3   OH241638   4.153   0.202   3.411  1.2527  0.1634  0.1953
 6668TIP3    H141639   4.243   0.229   3.394  1.7012 -1.2506  0.1727
 6668TIP3    H241640   4.162   0.127   3.470  0.1178 -0.3330 -0.2409
 6669TIP3   OH241641   3.472   6.025   1.069 -0.6256  0.0911  0.1098
 6669TIP3    H141642   3.451   6.108   1.110 -1.5328  0.8076 -1.6797
 6669TIP3    H241643   3.564   6.034   1.041 -1.0814  1.0381 -1.1991
 6670TIP3   OH241644   2.697   2.148   2.746 -0.3564 -0.3112 -0.4346
 6670TIP3    H141645   2.786   2.125   2.717 -0.0392  0.9922 -0.5720
 6670TIP3    H241646   2.692   2.243   2.733 -1.2526 -0.1367  1.0130
 6671TIP3   OH241647   4.254   3.610   1.633 -0.5152 -0.3408 -0.1906
 6671TIP3    H141648   4.319   3.679   1.651 -0.6544 -0.4953  1.0217
 6671TIP3    H241649   4.292   3.531   1.671 -0.8231 -0.7157 -0.6515
 6672TIP3   OH241650   1.761   0.062   5.015 -0.5518 -0.3604  0.6465
 6672TIP3    H141651   1.778  -0.028   5.043  0.2554 -0.1615  0.8404
 6672TIP3    H241652   1.804   0.116   5.082 -1.2875  0.1736  0.6931
 6673TIP3   OH241653   2.984   3.603   3.115  0.5271  0.1036  0.0437
 6673TIP3    H141654   3.043   3.673   3.086  0.5073  0.5469  1.0484
 6673TIP3    H241655   2.908   3.610   3.057 -0.1588  1.9297  1.0891
 6674TIP3   OH241656   0.814   6.011   3.505  0.9571 -0.1204 -0.5166
 6674TIP3    H141657   0.736   5.965   3.535  1.0253  0.0249 -0.1164
 6674TIP3    H241658   0.783   6.099   3.482  1.0355  0.0000 -0.1696
 6675TIP3   OH241659   1.905   6.394   4.847 -0.5773  0.5362 -0.1186
 6675TIP3    H141660   1.810   6.405   4.853 -0.5134  1.6053 -0.6843
 6675TIP3    H241661   1.920   6.300   4.858 -1.6455  0.4293  0.5611
 6676TIP3   OH241662   1.518   5.824   1.057  0.3435  0.1404  0.0906
 6676TIP3    H141663   1.454   5.794   0.992 -0.5005 -1.3898  1.5348
 6676TIP3    H241664   1.598   5.778   1.034  0.1210 -0.1834 -0.0514
 6677TIP3   OH241665   1.414   6.371   2.627  0.1132  0.0955  0.2528
 6677TIP3    H141666   1.506   6.394   2.627  0.1416 -0.0166  0.1582
 6677TIP3    H241667   1.399   6.333   2.714 -0.3590  2.1257  1.0989
 6678TIP3   OH241668   4.187   4.277   4.059  0.1451 -0.3124 -0.1435
 6678TIP3    H141669   4.111   4.317   4.103  1.1904  0.0200  1.4585
 6678TIP3    H241670   4.262   4.310   4.108  1.2068 -2.1906 -0.4352
 6679TIP3   OH241671   0.837   4.494   3.012  0.2416 -0.0619 -0.2944
 6679TIP3    H141672   0.926   4.523   2.995 -0.6622  1.4188 -3.0351
 6679TIP3    H241673   0.835   4.402   2.986  1.1216 -0.3455  0.5854
 6680TIP3   OH241674   4.668   6.316   3.995 -0.0197  0.5280 -0.0549
 6680TIP3    H141675   4.617   6.309   4.076  2.5053 -0.3384  1.5918
 6680TIP3    H241676   4.692   6.225   3.975  2.7965  1.0115  0.6659
 6681TIP3   OH241677   3.636   4.811   1.045 -0.8849  0.5290 -0.4275
 6681TIP3    H141678   3.698   4.771   1.105 -2.6854 -0.8603  0.6120
 6681TIP3    H241679   3.600   4.885   1.093  0.2816  1.6716 -1.2331
 6682TIP3   OH241680   6.564   5.614   1.937  0.1145  0.0930 -0.4447
 6682TIP3    H141681   6.528   5.681   1.878 -2.2605 -1.1317 -0.5082
 6682TIP3    H241682   6.495   5.547   1.942  1.7116 -1.5434  0.9454
 6683TIP3   OH241683   5.045   6.468   5.052 -0.2165 -0.1390 -0.0231
 6683TIP3    H141684   4.999   6.522   5.116  0.5270  0.5919 -0.0874
 6683TIP3    H241685   5.118   6.430   5.102 -0.1393 -0.2562 -0.2254
 6684TIP3   OH241686   3.168   5.868   1.704  0.3733  0.6223  0.2284
 6684TIP3    H141687   3.251   5.879   1.658  1.1655 -1.1300  1.1069
 6684TIP3    H241688   3.112   5.823   1.641  0.8278 -0.1027  0.3274
 6685TIP3   OH241689   4.426   6.542   3.624 -0.0832 -0.4008  0.2484
 6685TIP3    H141690   4.461   6.517   3.709 -0.5124 -1.7769  0.0504
 6685TIP3    H241691   4.503   6.556   3.569  0.2030  0.8229  0.9286
 6686TIP3   OH241692   2.309   5.864   2.480  0.3149 -0.0720  0.4726
 6686TIP3    H141693   2.317   5.834   2.389 -0.1493 -0.5870  0.6006
 6686TIP3    H241694   2.388   5.917   2.494 -0.0129  0.7037 -0.4894
 6687TIP3   OH241695   3.990   4.081   4.842 -0.3962  0.3965  0.2078
 6687TIP3    H141696   4.081   4.068   4.866 -0.7503 -1.5027  0.6600
 6687TIP3    H241697   3.990   4.077   4.746 -0.0191  0.2967  0.2097
 6688TIP3   OH241698   1.520   0.692   4.475 -0.0769  0.2305  0.2090
 6688TIP3    H141699   1.442   0.645   4.444  0.7228 -0.7037 -0.4571
 6688TIP3    H241700   1.591   0.628   4.468  0.9936  1.4353 -0.4132
 6689TIP3   OH241701   4.322   6.169   4.827 -0.5200 -0.4743 -0.3442
 6689TIP3    H141702   4.304   6.249   4.876 -1.3051 -1.5868  1.2656
 6689TIP3    H241703   4.367   6.199   4.748 -0.5943  1.5214  0.3177
 6690TIP3   OH241704   1.379   5.971   1.230  0.2056  0.1422  0.8792
 6690TIP3    H141705   1.378   6.043   1.167 -1.3665 -0.2820  0.3689
 6690TIP3    H241706   1.444   5.910   1.196 -0.5157 -0.0115 -0.2884
 6691TIP3   OH241707   5.654   6.415   2.908 -0.0105 -0.6689  0.3842
 6691TIP3    H141708   5.571   6.368   2.915 -0.2897  0.0250  2.6615
 6691TIP3    H241709   5.720   6.347   2.899 -0.8088 -1.2293 -1.6944
 6692TIP3   OH241710   0.981   3.234   5.694 -0.2950  0.0181 -0.1831
 6692TIP3    H141711   0.953   3.298   5.628  0.2620 -1.0184 -1.4923
 6692TIP3    H241712   1.076   3.246   5.700 -0.0514 -1.1976 -1.0819
 6693TIP3   OH241713   5.464   6.140   1.751  0.2959 -0.0210 -0.2426
 6693TIP3    H141714   5.470   6.163   1.658  0.0292 -0.3344 -0.3388
 6693TIP3    H241715   5.395   6.075   1.755  1.1578 -0.9389  0.0070
 6694TIP3   OH241716   1.853   6.713   0.846 -0.0212 -0.1034  0.3344
 6694TIP3    H141717   1.910   6.637   0.838  1.2755  0.6669  1.8090
 6694TIP3    H241718   1.764   6.676   0.846  0.2571 -1.2160 -3.4835
 6695TIP3   OH241719   5.068   0.857   1.239 -1.3775 -0.2597 -0.3349
 6695TIP3    H141720   5.130   0.930   1.243  1.2591 -2.2133 -2.2488
 6695TIP3    H241721   4.991   0.894   1.197 -0.0030  1.3898 -1.5580
 6696TIP3   OH241722   5.236   3.700   3.348 -0.4288  0.0990 -0.1662
 6696TIP3    H141723   5.203   3.727   3.262  0.6187 -0.3076 -0.7070
 6696TIP3    H241724   5.304   3.764   3.369 -1.3473  0.7939  0.8391
 6697TIP3   OH241725   0.184   0.266   2.339  0.1275 -0.2352  0.3727
 6697TIP3    H141726   0.240   0.188   2.343 -0.7518 -0.9888 -1.1301
 6697TIP3    H241727   0.242   0.336   2.309  0.0027 -1.4211 -3.0977
 6698TIP3   OH241728   3.666   4.571   5.057  0.7606 -0.7387 -0.5761
 6698TIP3    H141729   3.577   4.597   5.082  0.7866 -0.3067 -0.9253
 6698TIP3    H241730   3.679   4.487   5.101  0.6284 -0.2302  0.4475
 6699TIP3   OH241731   3.758   3.181   2.334 -0.5913 -0.0358 -0.4345
 6699TIP3    H141732   3.675   3.155   2.295 -0.8939  1.2813 -0.7146
 6699TIP3    H241733   3.757   3.140   2.421 -0.6944 -1.5219 -1.0943
 6700TIP3   OH241734   1.930   3.882   3.115 -0.3664 -0.1507  0.2090
 6700TIP3    H141735   1.836   3.878   3.100 -0.3026  0.1167 -0.2814
 6700TIP3    H241736   1.967   3.820   3.051 -0.1920 -0.0619  0.2236
 6701TIP3   OH241737   0.657   0.708   1.753 -0.4388  0.7384 -0.4844
 6701TIP3    H141738   0.637   0.654   1.830 -3.1356  1.1715 -0.8084
 6701TIP3    H241739   0.751   0.725   1.760 -0.6134  0.9248  2.8047
 6702TIP3   OH241740   1.299   2.333   1.489  0.7419 -0.2404  0.3669
 6702TIP3    H141741   1.282   2.328   1.395 -1.1341  2.9180  0.3986
 6702TIP3    H241742   1.215   2.309   1.530  1.4544 -1.2951  1.2748
 6703TIP3   OH241743   0.285   4.906   1.360  0.1888 -0.1216  0.5174
 6703TIP3    H141744   0.271   4.890   1.453  2.4124 -1.3437  0.7190
 6703TIP3    H241745   0.222   4.848   1.316  0.6134 -1.1986  1.2810
 6704TIP3   OH241746   1.163   6.108   1.359  0.1206  0.2266 -0.0452
 6704TIP3    H141747   1.203   6.053   1.291  2.0001 -1.2434  2.1186
 6704TIP3    H241748   1.188   6.197   1.335 -0.5764 -0.0745 -2.0825
 6705TIP3   OH241749   2.677   3.687   0.398  0.3750 -0.1210  0.4634
 6705TIP3    H141750   2.771   3.675   0.413  0.1053 -0.5588  1.9645
 6705TIP3    H241751   2.662   3.780   0.417  0.5202 -0.0310  0.1385
 6706TIP3   OH241752   4.348   5.541   3.456  0.1986 -0.2008 -0.5066
 6706TIP3    H141753   4.325   5.469   3.515  0.5287  1.1011  1.2637
 6706TIP3    H241754   4.395   5.603   3.511  1.1185  0.7690 -2.3079
 6707TIP3   OH241755   0.021   3.308   4.228  0.6039 -0.0701 -1.1444
 6707TIP3    H141756   0.077   3.371   4.182  1.1944 -0.1152 -0.5035
 6707TIP3    H241757   0.009   3.345   4.315  1.6586 -1.2316 -0.4774
 6708TIP3   OH241758   4.579   5.682   3.972 -0.3050 -0.4338 -0.2513
 6708TIP3    H141759   4.595   5.596   3.931  0.2433 -0.4045 -0.1094
 6708TIP3    H241760   4.486   5.681   3.993 -0.0888 -1.4511  0.7755
 6709TIP3   OH241761   0.310   6.668   3.665  0.3746  0.8890  0.2602
 6709TIP3    H141762   0.385   6.622   3.704  0.9877  1.9800  0.4076
 6709TIP3    H241763   0.315   6.645   3.572  2.1472  2.5191 -0.1280
 6710TIP3   OH241764   3.449   2.260   1.865  0.0168 -0.2514 -0.2374
 6710TIP3    H141765   3.416   2.336   1.914  0.1061  0.5469 -1.3753
 6710TIP3    H241766   3.506   2.215   1.927  0.2594  0.8251  0.3500
 6711TIP3   OH241767   0.422   2.759   2.007 -0.1965  0.3066  0.1482
 6711TIP3    H141768   0.475   2.685   1.976 -1.6125 -1.1347  1.0094
 6711TIP3    H241769   0.430   2.756   2.103 -0.2083  1.3357  0.1931
 6712TIP3   OH241770   2.546   6.013   2.444 -0.5428 -0.1127 -0.2997
 6712TIP3    H141771   2.603   5.959   2.390 -0.6000  0.9885 -1.5239
 6712TIP3    H241772   2.597   6.030   2.523 -0.2571 -1.3536 -0.1989
 6713TIP3   OH241773   1.324   4.358   2.531 -0.5849  0.0193  0.1352
 6713TIP3    H141774   1.394   4.340   2.469 -0.0961 -1.3995  1.0648
 6713TIP3    H241775   1.323   4.453   2.539  1.0770  0.0770 -0.0803
 6714TIP3   OH241776   3.473   3.339   3.255 -0.1565  0.4472 -0.6341
 6714TIP3    H141777   3.475   3.257   3.304 -2.2969 -0.4493 -1.8932
 6714TIP3    H241778   3.408   3.392   3.300  0.5288  1.1001 -0.3893
 6715TIP3   OH241779   0.403   3.922   0.608 -0.3481  0.3131  0.3235
 6715TIP3    H141780   0.335   3.902   0.673 -1.1927  1.1192 -0.2866
 6715TIP3    H241781   0.446   4.001   0.643  0.5140 -0.3848  0.8750
 6716TIP3   OH241782   5.333   4.717   4.805 -0.0217  0.3183 -0.2195
 6716TIP3    H141783   5.308   4.647   4.865  1.8316 -1.8879 -1.8301
 6716TIP3    H241784   5.390   4.774   4.856 -2.4162  1.3691  1.4259
 6717TIP3   OH241785   0.693   5.767   1.332 -0.7938  0.0160  0.0228
 6717TIP3    H141786   0.783   5.739   1.351 -1.0634 -1.2821 -0.4878
 6717TIP3    H241787   0.704   5.852   1.290  0.1160  0.4226  1.0229
 6718TIP3   OH241788   3.254   3.549   3.407  0.1993  0.2724 -0.3598
 6718TIP3    H141789   3.241   3.638   3.440 -2.3169  0.4534 -1.5939
 6718TIP3    H241790   3.226   3.492   3.479  0.6083  0.4842 -0.0256
 6719TIP3   OH241791   1.209   3.564   1.007 -0.3654 -0.0212  0.3544
 6719TIP3    H141792   1.142   3.575   1.074 -2.3205 -1.1847 -1.2665
 6719TIP3    H241793   1.205   3.644   0.955 -0.7457 -0.2106  0.0837
 6720TIP3   OH241794   5.095   3.509   2.945 -0.5184  0.1421  0.8973
 6720TIP3    H141795   5.183   3.474   2.936 -1.2918 -1.7107 -0.2267
 6720TIP3    H241796   5.053   3.451   3.009 -1.1582  0.4859  0.7970
 6721TIP3   OH241797   0.274   5.479   2.980  0.1954  0.1652  0.1350
 6721TIP3    H141798   0.272   5.413   2.910 -1.2354  0.0096  0.2939
 6721TIP3    H241799   0.360   5.521   2.971  0.1897 -0.1076 -1.4779
 6722TIP3   OH241800   3.498   0.521   4.174  0.3317 -0.3007  0.2416
 6722TIP3    H141801   3.592   0.529   4.193  0.2054 -0.0569  0.7880
 6722TIP3    H241802   3.460   0.494   4.258 -0.2553  0.8246  0.3487
 6723TIP3   OH241803   6.133   4.503   2.248  0.0297 -0.0265  0.1433
 6723TIP3    H141804   6.146   4.535   2.337  2.4642 -0.2135 -0.0819
 6723TIP3    H241805   6.169   4.414   2.249 -3.4379 -1.5784 -0.1225
 6724TIP3   OH241806   1.501   4.890   2.651  0.0563  0.2085 -0.0311
 6724TIP3    H141807   1.512   4.973   2.604 -2.4106 -0.5258 -2.1797
 6724TIP3    H241808   1.589   4.853   2.655  0.7760  1.5721 -1.7072
 6725TIP3   OH241809   2.712   5.766   4.167 -0.3108 -0.1516  0.6161
 6725TIP3    H141810   2.750   5.711   4.236 -0.6295  0.9688  1.7166
 6725TIP3    H241811   2.735   5.721   4.086 -0.3844 -1.7949  1.4642
 6726TIP3   OH241812   4.378   5.252   2.690 -0.0901 -0.5515  0.3961
 6726TIP3    H141813   4.399   5.205   2.770 -0.4018  0.8464  1.3307
 6726TIP3    H241814   4.353   5.340   2.719  1.9587  0.7171 -1.3808
 6727TIP3   OH241815   6.311   6.248   5.013  0.4903 -0.1645  0.2258
 6727TIP3    H141816   6.373   6.309   5.053 -0.4379  2.0916 -1.5223
 6727TIP3    H241817   6.228   6.266   5.056 -0.1070  0.9476 -1.2884
 6728TIP3   OH241818   4.630   2.188   4.738 -0.1375  0.2805  0.3942
 6728TIP3    H141819   4.665   2.274   4.761 -0.6317  0.1453  1.7608
 6728TIP3    H241820   4.670   2.129   4.802 -1.0473 -0.2452  0.4932
 6729TIP3   OH241821   6.570   4.923   2.192 -0.2507  0.4386 -0.1221
 6729TIP3    H141822   6.568   5.006   2.145  0.1713 -0.1176 -1.1599
 6729TIP3    H241823   6.478   4.906   2.214 -0.3824  0.9972 -0.2111
 6730TIP3   OH241824   2.402   4.523   2.885 -0.2776  0.1404 -0.2053
 6730TIP3    H141825   2.355   4.468   2.948 -0.5883  1.0873  0.4099
 6730TIP3    H241826   2.384   4.612   2.913  0.8087  0.5539 -0.7552
 6731TIP3   OH241827   4.067   1.075   4.269 -0.3285 -0.8288  0.1115
 6731TIP3    H141828   4.026   1.097   4.353 -0.1980 -0.8145  0.1721
 6731TIP3    H241829   4.156   1.112   4.275  0.0767 -1.8161  0.4257
 6732TIP3   OH241830   6.556   6.155   2.019 -0.4631  0.6628  0.0066
 6732TIP3    H141831   6.591   6.240   2.045  1.2860  0.3741 -1.2280
 6732TIP3    H241832   6.579   6.097   2.092  0.8345  0.6869 -0.3618
 6733TIP3   OH241833   6.608   5.596   4.968  0.2107 -0.0051  0.0066
 6733TIP3    H141834   6.577   5.553   5.049  1.6599 -2.3347 -0.5653
 6733TIP3    H241835   6.654   5.674   4.999 -0.5784 -0.0077  1.2998
 6734TIP3   OH241836   2.718   1.930   0.346  0.3264  0.1230 -0.7608
 6734TIP3    H141837   2.756   1.874   0.414  0.8619  0.9747 -0.3474
 6734TIP3    H241838   2.624   1.926   0.361  0.3718 -0.5408 -0.6349
 6735TIP3   OH241839   4.208   0.106   2.487 -0.6292 -0.2406  0.1988
 6735TIP3    H141840   4.248   0.046   2.549 -0.8123  0.8329  1.4067
 6735TIP3    H241841   4.121   0.069   2.470 -0.2935 -0.9393 -0.0147
 6736TIP3   OH241842   5.192   2.401   3.560 -0.7374 -0.2135  0.1153
 6736TIP3    H141843   5.107   2.434   3.592 -0.6063 -0.5546  0.8264
 6736TIP3    H241844   5.249   2.403   3.636  0.3143  1.3044 -0.6515
 6737TIP3   OH241845   5.768   2.874   4.030  0.5480 -0.4747 -0.0383
 6737TIP3    H141846   5.792   2.869   3.938  1.6134 -2.3184  0.3012
 6737TIP3    H241847   5.830   2.936   4.068  0.9951 -0.7633 -0.2977
 6738TIP3   OH241848   4.710   1.743   3.295  0.5640  0.1353  0.0125
 6738TIP3    H141849   4.645   1.785   3.352  1.1104  0.5186  0.3685
 6738TIP3    H241850   4.781   1.807   3.290  1.4431 -0.7567  0.6057
 6739TIP3   OH241851   2.561   6.182   3.193  0.1101  0.2176  0.7150
 6739TIP3    H141852   2.528   6.270   3.209 -0.5167 -0.2351  2.1090
 6739TIP3    H241853   2.640   6.175   3.246  0.8896  0.3472 -0.3956
 6740TIP3   OH241854   5.502   5.783   2.715  0.3307  0.4759 -0.5737
 6740TIP3    H141855   5.459   5.820   2.792  0.0741 -0.9985  0.0241
 6740TIP3    H241856   5.594   5.806   2.725  0.0764  1.5580 -0.6063
 6741TIP3   OH241857   1.693   3.656   2.414 -0.1919 -0.0522  0.0056
 6741TIP3    H141858   1.757   3.703   2.361 -2.3281  1.5048 -1.4060
 6741TIP3    H241859   1.667   3.719   2.481 -1.6487  0.1374 -0.6875
 6742TIP3   OH241860   2.022   2.680   0.655  0.3503  0.9661  0.0975
 6742TIP3    H141861   2.064   2.715   0.577 -0.1629 -0.6605 -0.9505
 6742TIP3    H241862   2.034   2.585   0.649 -0.2546  0.7517  1.6783
 6743TIP3   OH241863   5.843   3.913   4.128  0.1648  0.1596 -0.1645
 6743TIP3    H141864   5.849   3.823   4.160  0.8499  1.6692  4.8087
 6743TIP3    H241865   5.750   3.934   4.132  0.2277  0.2788  0.7287
 6744TIP3   OH241866   5.044   4.071   1.713 -0.4651  1.0856 -0.1541
 6744TIP3    H141867   5.067   4.126   1.788 -0.4469 -0.5548  1.1112
 6744TIP3    H241868   5.080   3.985   1.734 -0.0809  0.6687 -2.2784
 6745TIP3   OH241869   3.174   4.602   1.777  0.1239  0.5676 -0.3159
 6745TIP3    H141870   3.095   4.568   1.735 -2.4769  2.7776  2.2857
 6745TIP3    H241871   3.220   4.525   1.809 -1.9975 -0.7909 -0.3455
 6746TIP3   OH241872   4.130   1.123   2.209 -0.0753 -0.2719 -0.3924
 6746TIP3    H141873   4.152   1.143   2.300 -0.9228  0.7618 -0.3966
 6746TIP3    H241874   4.190   1.053   2.184  2.6408  1.8404 -0.1620
 6747TIP3   OH241875   0.996   2.628   4.018  0.0842 -0.3072  0.5022
 6747TIP3    H141876   1.044   2.566   3.963 -0.6366  0.3553 -0.9630
 6747TIP3    H241877   0.997   2.710   3.968 -4.7658 -0.8644 -1.0941
 6748TIP3   OH241878   6.679   5.879   3.680  0.0281 -0.1077 -0.1822
 6748TIP3    H141879   6.613   5.932   3.726 -0.7469  0.6914 -2.0770
 6748TIP3    H241880   6.744   5.943   3.650 -0.2085 -0.3813 -1.3432
 6749TIP3   OH241881   3.965   4.602   2.845 -0.0146 -0.0153  0.1957
 6749TIP3    H141882   4.002   4.648   2.770 -1.6581  1.0604 -0.0144
 6749TIP3    H241883   4.005   4.643   2.921 -0.6523  1.0403 -0.0260
 6750TIP3   OH241884   1.668   3.835   1.112 -0.7710 -0.5881  0.6857
 6750TIP3    H141885   1.743   3.894   1.115 -0.9573 -0.4056  2.1566
 6750TIP3    H241886   1.670   3.799   1.023  1.4797 -1.1667  0.9173
 6751TIP3   OH241887   2.125   1.166   4.940 -0.0082 -0.2758  0.0750
 6751TIP3    H141888   2.145   1.144   5.031 -2.4469  0.0259  0.7517
 6751TIP3    H241889   2.064   1.239   4.945  1.4605  1.2144 -1.9091
 6752TIP3   OH241890   4.126   2.627   2.720 -0.6045 -0.3013  0.7683
 6752TIP3    H141891   4.203   2.671   2.684  0.6201 -0.8513  2.5728
 6752TIP3    H241892   4.141   2.534   2.704  1.0107 -0.8108  4.2320
 6753TIP3   OH241893   5.557   5.882   1.023 -0.2387 -0.4518  0.0985
 6753TIP3    H141894   5.480   5.840   1.060 -1.1488  1.4846  0.5296
 6753TIP3    H241895   5.526   5.924   0.943 -0.1183  1.8198  1.1629
 6754TIP3   OH241896   5.056   4.329   5.997  0.1243 -0.3554  0.2159
 6754TIP3    H141897   5.118   4.309   5.927  1.3965  2.3909  0.4355
 6754TIP3    H241898   4.974   4.348   5.951  1.0523  1.8371 -0.6506
 6755TIP3   OH241899   3.272   4.331   1.773  0.0627  0.0993 -0.0679
 6755TIP3    H141900   3.339   4.271   1.740 -1.6099 -1.1308 -1.3837
 6755TIP3    H241901   3.287   4.333   1.868 -1.2641 -4.4289  0.4595
 6756TIP3   OH241902   4.175   4.336   3.166 -0.4434  0.1434  0.1526
 6756TIP3    H141903   4.149   4.424   3.193 -2.5290 -0.1107 -0.8494
 6756TIP3    H241904   4.193   4.343   3.073 -0.0712 -0.3713  0.1803
 6757TIP3   OH241905   3.132   4.229   2.081 -0.2860 -0.0309 -0.0988
 6757TIP3    H141906   3.132   4.203   2.173  0.1859 -0.2371 -0.1569
 6757TIP3    H241907   3.209   4.187   2.043 -0.4681  0.0628 -0.5870
 6758TIP3   OH241908   3.895   4.880   0.363  0.0394 -0.1068  0.5698
 6758TIP3    H141909   3.876   4.791   0.332  1.9231 -0.0650 -0.9166
 6758TIP3    H241910   3.989   4.878   0.383  0.7310  2.1829 -1.9660
 6759TIP3   OH241911   3.716   6.569   0.110 -0.1110 -0.1337  0.5118
 6759TIP3    H141912   3.671   6.486   0.096 -0.1554 -0.6283  3.1264
 6759TIP3    H241913   3.803   6.555   0.072 -0.3272 -1.1472  0.3642
 6760TIP3   OH241914   5.653   3.684   3.081  0.1442  0.2758 -0.5180
 6760TIP3    H141915   5.616   3.624   3.146 -0.9122  1.0002 -0.4316
 6760TIP3    H241916   5.748   3.672   3.089 -0.0398 -1.6121 -0.7403
 6761TIP3   OH241917   5.349   6.549   2.856  0.1948 -0.1091  0.1170
 6761TIP3    H141918   5.255   6.535   2.867  0.2802 -1.7034 -0.8110
 6761TIP3    H241919   5.383   6.463   2.829  1.8662  0.5086  0.1277
 6762TIP3   OH241920   4.232   6.205   3.172  0.1960 -0.1736 -0.4883
 6762TIP3    H141921   4.302   6.187   3.235  0.1061 -1.2364 -0.6781
 6762TIP3    H241922   4.153   6.170   3.213 -0.1040  0.3382 -0.6134
 6763TIP3   OH241923   6.044   6.255   5.357 -0.6652 -0.4340 -0.2697
 6763TIP3    H141924   5.981   6.322   5.385 -0.1436 -0.3249  0.6776
 6763TIP3    H241925   6.082   6.222   5.438  0.8367 -0.1731 -0.8408
 6764TIP3   OH241926   2.067   6.010   2.608  0.2989  0.1165  0.9220
 6764TIP3    H141927   2.067   5.985   2.700  0.4483  1.7728  1.4025
 6764TIP3    H241928   2.135   5.955   2.568  0.8574  0.0125  1.9803
 6765TIP3   OH241929   1.000   3.967   2.274 -0.1009 -0.0253  0.0831
 6765TIP3    H141930   0.970   4.001   2.358 -2.1845 -0.9219 -0.2380
 6765TIP3    H241931   1.030   3.878   2.294 -1.7677 -0.7010 -0.2760
 6766TIP3   OH241932   3.141   4.396   4.466 -0.2879 -0.5287 -0.6692
 6766TIP3    H141933   3.182   4.435   4.388 -1.1625 -0.7488 -1.2482
 6766TIP3    H241934   3.213   4.349   4.509  0.7623  1.4814 -0.0615
 6767TIP3   OH241935   0.415   3.872   3.016  0.0553  0.1587 -0.1342
 6767TIP3    H141936   0.409   3.954   3.066  1.9466  0.5375 -0.4448
 6767TIP3    H241937   0.494   3.830   3.049  0.1172 -0.6500 -1.2675
 6768TIP3   OH241938   0.390   6.500   4.794  0.1946  0.3577  1.1279
 6768TIP3    H141939   0.386   6.427   4.855 -0.5345 -0.3893  0.2199
 6768TIP3    H241940   0.299   6.529   4.784 -0.1178 -1.1821 -1.4889
 6769TIP3   OH241941   4.226   4.182   1.364  0.6165  0.3451 -0.2147
 6769TIP3    H141942   4.174   4.153   1.440  1.9314  1.0754  1.0039
 6769TIP3    H241943   4.210   4.115   1.297 -0.0038 -0.7163  0.9520
 6770TIP3   OH241944   2.103   3.645   1.339 -0.4068 -0.5460 -0.5360
 6770TIP3    H141945   2.174   3.604   1.291  1.3012 -0.3999  1.6978
 6770TIP3    H241946   2.136   3.654   1.429 -1.8912  2.7527 -0.1589
 6771TIP3   OH241947   0.414   0.014   1.569 -0.0298 -0.5806 -0.1761
 6771TIP3    H141948   0.508   0.034   1.568 -0.3406  1.1755 -2.2355
 6771TIP3    H241949   0.408  -0.073   1.529  0.8001 -1.5721  1.7283
 6772TIP3   OH241950   0.723   5.488   2.932  0.1812  0.0006 -0.2200
 6772TIP3    H141951   0.696   5.444   2.851  1.6871  0.9632 -1.3281
 6772TIP3    H241952   0.642   5.516   2.973 -0.6383  2.0209 -2.9147
 6773TIP3   OH241953   4.853   5.295   4.643  0.1852  0.1540 -0.5034
 6773TIP3    H141954   4.871   5.319   4.552 -0.5358  1.3286 -0.3486
 6773TIP3    H241955   4.758   5.303   4.652  0.2555  0.1043  0.3690
 6774TIP3   OH241956   6.514   0.902   3.801 -0.3314  0.0234  0.7726
 6774TIP3    H141957   6.588   0.861   3.847  0.5140  0.1954 -0.3814
 6774TIP3    H241958   6.450   0.831   3.790 -0.3824 -0.1071  1.8707
 6775TIP3   OH241959   1.033   0.398   1.878 -0.3921 -0.3495 -0.3683
 6775TIP3    H141960   1.117   0.407   1.833 -0.0305 -0.7316  0.2272
 6775TIP3    H241961   1.051   0.340   1.952 -0.6776  1.3392  1.0670
 6776TIP3   OH241962   5.817   6.358   1.543 -0.2913  0.4513  0.2594
 6776TIP3    H141963   5.732   6.402   1.552 -0.0438  1.1458 -0.5750
 6776TIP3    H241964   5.849   6.387   1.457  0.8128  0.2428  0.5901
 6777TIP3   OH241965   6.507   4.700   4.422  0.2614  0.6083  0.0750
 6777TIP3    H141966   6.501   4.767   4.490  0.6480  0.5554  0.1607
 6777TIP3    H241967   6.461   4.624   4.459  1.1770  0.3034  0.6174
 6778TIP3   OH241968   5.706   5.726   4.615  0.1012  0.0819 -0.3850
 6778TIP3    H141969   5.759   5.666   4.669 -0.7553 -1.8318 -1.5708
 6778TIP3    H241970   5.767   5.758   4.549  0.6893  0.9455  0.5510
 6779TIP3   OH241971   0.797   1.649   0.604 -0.4966 -0.1165  0.3209
 6779TIP3    H141972   0.787   1.693   0.520  0.7918  2.1417  1.2609
 6779TIP3    H241973   0.871   1.589   0.592 -0.3122  0.2027 -0.1429
 6780TIP3   OH241974   2.826   5.336   4.403 -0.0487  0.2510  0.0946
 6780TIP3    H141975   2.907   5.379   4.375 -0.6884  0.9673 -0.6566
 6780TIP3    H241976   2.853   5.284   4.479  0.7238  2.0589  1.1283
 6781TIP3   OH241977   0.440   2.340   4.059  0.4386 -0.1422  0.1536
 6781TIP3    H141978   0.396   2.404   4.004 -0.1341 -0.4162  0.2860
 6781TIP3    H241979   0.533   2.349   4.037  0.1102 -1.2678 -1.9590
 6782TIP3   OH241980   0.920   1.207   5.364  0.4351  0.2217  0.1875
 6782TIP3    H141981   0.929   1.113   5.382  0.1346  0.1870  0.1542
 6782TIP3    H241982   0.909   1.212   5.269  1.2135  0.3479  0.0935
 6783TIP3   OH241983   4.862   3.763   2.968 -0.6010 -0.4301 -0.1328
 6783TIP3    H141984   4.845   3.732   2.879 -0.9154 -1.7875  0.3791
 6783TIP3    H241985   4.836   3.690   3.025  2.8798 -1.0230  0.9478
 6784TIP3   OH241986   0.624   1.693   3.030  0.3999 -0.5483 -0.2104
 6784TIP3    H141987   0.673   1.693   3.112  0.4724  0.5919 -0.2499
 6784TIP3    H241988   0.678   1.640   2.971  1.2648  0.1360 -0.0589
 6785TIP3   OH241989   1.401   3.248   0.817  0.1503 -0.4297  0.0323
 6785TIP3    H141990   1.454   3.304   0.874  0.7945 -1.3245  0.3461
 6785TIP3    H241991   1.464   3.185   0.781 -0.3415 -0.1777 -1.2978
 6786TIP3   OH241992   3.519   0.165   3.917  0.1902 -0.0051 -0.0023
 6786TIP3    H141993   3.602   0.205   3.943 -0.7548  2.4133 -0.4929
 6786TIP3    H241994   3.456   0.194   3.982 -0.5348 -0.7453 -0.3588
 6787TIP3   OH241995   1.990   6.081   4.944  0.0476 -0.6133  0.1444
 6787TIP3    H141996   1.907   6.116   4.975  0.2160  1.2739 -1.3547
 6787TIP3    H241997   1.973   6.057   4.853  0.8779 -1.1883  0.1292
 6788TIP3   OH241998   0.454   4.330   1.399 -0.3827  0.2645 -0.4466
 6788TIP3    H141999   0.368   4.288   1.404 -0.9040  1.3642  0.2195
 6788TIP3    H242000   0.499   4.301   1.479 -0.0949 -0.3552 -0.8223
 6789TIP3   OH242001   5.794   4.878   3.553  0.2415  0.0967 -0.3883
 6789TIP3    H142002   5.784   4.799   3.500  1.5316 -0.1340 -0.3111
 6789TIP3    H242003   5.859   4.930   3.507 -0.4106  1.0174 -0.3005
 6790TIP3   OH242004   4.681   3.132   1.058 -0.2101 -0.5576  0.0013
 6790TIP3    H142005   4.745   3.166   0.995  0.0928  1.4177  1.2777
 6790TIP3    H242006   4.596   3.153   1.019 -0.0784 -1.3346 -0.7372
 6791TIP3   OH242007   5.956   2.080   3.108 -0.5805  0.2159  0.0571
 6791TIP3    H142008   5.939   2.003   3.163  1.7036  0.6787  1.5552
 6791TIP3    H242009   6.044   2.107   3.132 -0.1599  1.5314 -2.6430
 6792TIP3   OH242010   2.441   5.936   4.763  0.3903  0.1338 -0.3939
 6792TIP3    H142011   2.516   5.931   4.704 -0.1115 -1.9869 -0.9698
 6792TIP3    H242012   2.460   5.872   4.832 -0.5515  0.0712 -0.1689
 6793TIP3   OH242013   0.708   1.928   2.282  0.9023 -0.0852  0.4401
 6793TIP3    H142014   0.637   1.881   2.324  2.8815 -4.0253 -0.1411
 6793TIP3    H242015   0.688   1.924   2.189  0.5713  1.3025  0.4302
 6794TIP3   OH242016   1.597   1.480   3.959  0.1590 -0.1417  0.1458
 6794TIP3    H142017   1.532   1.478   4.029  0.1364 -0.1653  0.1240
 6794TIP3    H242018   1.631   1.390   3.955 -0.9537 -0.5273 -0.9320
 6795TIP3   OH242019   1.620   1.550   2.483  0.7511 -0.0976  0.5087
 6795TIP3    H142020   1.713   1.529   2.494  0.4689 -1.1854  0.9349
 6795TIP3    H242021   1.577   1.465   2.476 -0.1495  0.4094 -0.3311
 6796TIP3   OH242022   3.292   5.797   3.326 -0.0830  0.0538 -0.1216
 6796TIP3    H142023   3.289   5.857   3.401  0.9555 -0.6304  0.5040
 6796TIP3    H242024   3.203   5.762   3.320 -0.6081  1.3735 -0.2799
 6797TIP3   OH242025   6.490   3.277   0.702  0.6456  0.0093 -0.1634
 6797TIP3    H142026   6.466   3.285   0.610  0.6855  0.4295 -0.1417
 6797TIP3    H242027   6.435   3.341   0.747 -1.3573 -2.0335  0.4963
 6798TIP3   OH242028   5.166   3.606   4.617  0.9199  0.3760 -0.0878
 6798TIP3    H142029   5.118   3.535   4.660  0.9196  1.1759  1.2953
 6798TIP3    H242030   5.110   3.683   4.629 -0.1020  0.2998 -3.3796
 6799TIP3   OH242031   6.194   2.988   4.688  0.2559 -0.5233 -0.1626
 6799TIP3    H142032   6.216   3.054   4.754  0.1157 -0.3303 -0.3076
 6799TIP3    H242033   6.240   3.018   4.609  0.5932 -0.8659 -0.0983
 6800TIP3   OH242034   4.528   4.641   1.845  0.5037 -0.7898  0.1161
 6800TIP3    H142035   4.526   4.694   1.765  0.5900 -0.4139  0.3582
 6800TIP3    H242036   4.535   4.705   1.916  2.1530 -1.1669  0.3375
 6801TIP3   OH242037   5.721   1.649   4.558  0.5661  0.2755  0.3394
 6801TIP3    H142038   5.668   1.594   4.500  0.6038  1.3217 -0.7189
 6801TIP3    H242039   5.723   1.734   4.516  0.3482  1.1714  2.0559
 6802TIP3   OH242040   5.666   5.414   0.682  0.0951 -0.5491  0.2957
 6802TIP3    H142041   5.614   5.463   0.746  0.2785  0.4027 -0.2559
 6802TIP3    H242042   5.749   5.461   0.678  0.8126 -1.7393  0.7667
 6803TIP3   OH242043   1.888   5.142   2.863  0.5371 -0.5713  0.1436
 6803TIP3    H142044   1.912   5.227   2.900  0.7304 -1.0286  1.0893
 6803TIP3    H242045   1.839   5.163   2.784  1.9083  0.4170 -0.4899
 6804TIP3   OH242046   4.737   5.208   5.032  0.2948 -0.0693  0.1039
 6804TIP3    H142047   4.794   5.278   5.063  0.2382 -0.4253  1.0613
 6804TIP3    H242048   4.784   5.169   4.959  1.9402 -1.2008  1.6699
 6805TIP3   OH242049   0.517   1.576   2.199 -0.2443  0.4737 -0.7069
 6805TIP3    H142050   0.492   1.668   2.199  0.8462  0.7849 -0.0138
 6805TIP3    H242051   0.434   1.529   2.201 -0.8396  1.4154 -1.6381
 6806TIP3   OH242052   2.961   6.521   1.373 -0.0178 -0.2422  0.0342
 6806TIP3    H142053   3.011   6.485   1.300  0.2705 -1.2685  0.7150
 6806TIP3    H242054   3.014   6.594   1.404 -0.3107  0.4310 -0.9810
 6807TIP3   OH242055   6.401   0.686   4.545  0.2457 -0.0491 -0.5698
 6807TIP3    H142056   6.447   0.681   4.461 -0.5545 -0.1229 -1.0117
 6807TIP3    H242057   6.345   0.608   4.546  0.3885 -0.1512  0.1209
 6808TIP3   OH242058   2.636   3.525   5.046  0.1267  0.3916 -0.1059
 6808TIP3    H142059   2.615   3.436   5.020 -0.4918  0.7489 -0.8988
 6808TIP3    H242060   2.662   3.568   4.964 -3.4354  2.0126 -0.5779
 6809TIP3   OH242061   3.249   5.733   4.107 -0.9702  0.2755 -0.6821
 6809TIP3    H142062   3.193   5.810   4.097  0.7951  1.5730 -1.0688
 6809TIP3    H242063   3.318   5.745   4.041  0.6722 -0.3964  0.8371
 6810TIP3   OH242064   3.495   5.005   1.629  0.1441  0.0415 -0.2708
 6810TIP3    H142065   3.552   4.979   1.556 -0.5305 -0.8030 -0.5232
 6810TIP3    H242066   3.415   4.954   1.615  0.3485 -0.8431  1.5872
 6811TIP3   OH242067   5.202   4.334   2.217 -0.3074 -0.1422 -0.3832
 6811TIP3    H142068   5.206   4.262   2.155  1.7065  1.1226 -1.8628
 6811TIP3    H242069   5.238   4.299   2.299 -0.3092 -1.0715 -0.7800
 6812TIP3   OH242070   2.999   1.313   3.757 -0.0325  0.4092 -0.2865
 6812TIP3    H142071   2.926   1.311   3.819  0.9718  2.1377  1.0447
 6812TIP3    H242072   2.958   1.333   3.673 -1.1470  0.8978  0.3407
 6813TIP3   OH242073   0.551   6.274   1.546 -0.3782  0.1926  0.2928
 6813TIP3    H142074   0.541   6.296   1.638  2.8514 -0.9540  1.0508
 6813TIP3    H242075   0.526   6.181   1.541  1.7741 -0.4454  0.5931
 6814TIP3   OH242076   5.602   6.627   3.980  0.3227 -0.5338  0.5290
 6814TIP3    H142077   5.663   6.563   4.015  1.5686 -0.3862 -1.2251
 6814TIP3    H242078   5.525   6.576   3.954 -0.7539 -0.6126  3.5309
 6815TIP3   OH242079   3.745   6.662   2.318  0.0922 -0.2882  0.2949
 6815TIP3    H142080   3.721   6.665   2.225  0.6112 -0.2701  0.1564
 6815TIP3    H242081   3.813   6.595   2.322 -0.1928 -0.5523  0.7275
 6816TIP3   OH242082   1.154   0.394   0.424  0.3182  0.2327  0.1423
 6816TIP3    H142083   1.229   0.365   0.371 -0.3657  1.2106 -1.4210
 6816TIP3    H242084   1.174   0.484   0.447  1.4888 -0.6988  3.2694
 6817TIP3   OH242085   5.372   3.305   1.734  0.5344 -0.1702  0.0337
 6817TIP3    H142086   5.388   3.211   1.741 -1.0479 -0.4599  0.2172
 6817TIP3    H242087   5.283   3.316   1.769  0.5258  1.3265 -0.4093
 6818TIP3   OH242088   5.334   6.341   2.509  0.1370  0.0174  0.1051
 6818TIP3    H142089   5.311   6.431   2.532  2.0377  0.8275 -0.8612
 6818TIP3    H242090   5.363   6.302   2.591 -0.2210  0.4533  0.4406
 6819TIP3   OH242091   2.432   4.534   4.551 -0.1271 -0.2919 -0.5866
 6819TIP3    H142092   2.441   4.467   4.483  1.7278 -2.7269  1.8443
 6819TIP3    H242093   2.504   4.595   4.533 -0.2061 -0.3843 -1.2720
 6820TIP3   OH242094   1.142   1.111   4.002 -0.3977 -0.0696  0.3836
 6820TIP3    H142095   1.166   1.019   3.989  0.1173  0.0425  0.5185
 6820TIP3    H242096   1.177   1.134   4.088  1.0640  0.7433 -0.3776
 6821TIP3   OH242097   3.550   1.636   4.991 -0.4547 -0.0935 -0.2219
 6821TIP3    H142098   3.511   1.722   5.005  1.4232  0.9704 -1.0233
 6821TIP3    H242099   3.565   1.601   5.078 -1.0376  0.4974  0.1216
 6822TIP3   OH242100   4.436   6.388   3.163 -0.6274  0.5532  0.0513
 6822TIP3    H142101   4.348   6.398   3.127  0.1864 -0.0512 -2.3509
 6822TIP3    H242102   4.470   6.309   3.121  0.8662  0.4667  1.3381
 6823TIP3   OH242103   2.356   0.170   2.470 -0.0361  0.0586 -0.3691
 6823TIP3    H142104   2.296   0.096   2.468 -1.4006  1.1296 -1.3019
 6823TIP3    H242105   2.444   0.131   2.469 -0.7242 -1.5318 -0.4028
 6824TIP3   OH242106   2.530   2.027   0.730 -0.7429 -0.0405  0.2413
 6824TIP3    H142107   2.601   1.970   0.701 -1.7200 -2.1743  1.8051
 6824TIP3    H242108   2.451   1.989   0.692 -1.2907  1.0723  0.2287
 6825TIP3   OH242109   0.292   1.737   4.618 -0.2279 -0.0359 -0.7284
 6825TIP3    H142110   0.302   1.645   4.642  1.3361 -0.0695 -1.4189
 6825TIP3    H242111   0.381   1.770   4.609 -0.7490  1.6240 -0.2672
 6826TIP3   OH242112   2.241   0.990   2.794  0.1739 -0.1086  0.2780
 6826TIP3    H142113   2.223   0.949   2.879  0.2601 -2.1961 -0.6374
 6826TIP3    H242114   2.207   1.079   2.803 -1.3660 -0.7936  1.9430
 6827TIP3   OH242115   4.486   2.423   3.639 -0.1882 -0.8551 -0.5222
 6827TIP3    H142116   4.499   2.516   3.619  1.1415 -0.4985  1.6195
 6827TIP3    H242117   4.397   2.418   3.673 -0.0851 -0.2369 -0.1419
 6828TIP3   OH242118   5.793   1.878   1.855 -0.5078  0.5308 -0.8115
 6828TIP3    H142119   5.804   1.839   1.769 -1.1123  0.7657 -1.0051
 6828TIP3    H242120   5.714   1.837   1.891 -0.3351  0.5287 -0.4273
 6829TIP3   OH242121   5.151   0.912   4.061  0.5392 -0.4704 -0.0708
 6829TIP3    H142122   5.245   0.912   4.073  0.5273  1.9111  0.6331
 6829TIP3    H242123   5.120   0.836   4.110  2.0500 -1.2695 -0.2875
 6830TIP3   OH242124   4.022   5.650   1.750 -0.2201 -0.0036 -0.0951
 6830TIP3    H142125   4.027   5.698   1.832  0.2730 -1.7585  0.9537
 6830TIP3    H242126   3.935   5.671   1.715 -2.3143 -2.4629  3.0612
 6831TIP3   OH242127   0.534   4.602   2.346 -0.2281 -0.7297 -0.3633
 6831TIP3    H142128   0.461   4.610   2.285 -1.0428  0.8209  0.7760
 6831TIP3    H242129   0.497   4.558   2.422  1.0233 -3.6079 -1.2615
 6832TIP3   OH242130   2.577   6.048   0.958 -0.7504  0.0049  0.5309
 6832TIP3    H142131   2.534   5.983   0.902 -2.1750 -0.3814  1.9854
 6832TIP3    H242132   2.517   6.058   1.033  1.0158  0.5642  1.9397
 6833TIP3   OH242133   1.516   2.094   1.084 -0.6390 -0.3289 -0.7336
 6833TIP3    H142134   1.421   2.097   1.094 -0.6298 -2.5062  0.8675
 6833TIP3    H242135   1.531   2.049   1.001 -1.0823 -1.3273 -0.2976
 6834TIP3   OH242136   6.462   2.916   2.003  0.4849  0.0939 -0.1527
 6834TIP3    H142137   6.372   2.927   2.034  0.9392  1.5593  0.7499
 6834TIP3    H242138   6.493   3.005   1.988  1.8052 -0.3957 -0.4307
 6835TIP3   OH242139   3.261   3.580   3.748  0.0257  0.4076 -0.3007
 6835TIP3    H142140   3.238   3.499   3.794  0.6904  0.8130  0.7879
 6835TIP3    H242141   3.278   3.643   3.818 -0.7202  1.5697 -1.1276
 6836TIP3   OH242142   0.045   6.285   2.687 -0.0874  0.1436 -0.4738
 6836TIP3    H142143  -0.024   6.240   2.639 -0.0315  1.0907 -1.4685
 6836TIP3    H242144   0.106   6.215   2.714 -1.9492 -0.8655  1.4083
 6837TIP3   OH242145   6.133   2.353   0.541 -0.1306 -0.3226 -0.0845
 6837TIP3    H142146   6.141   2.448   0.553 -0.0689 -0.0522 -1.9447
 6837TIP3    H242147   6.104   2.320   0.626  0.2355  1.3077  0.7115
 6838TIP3   OH242148   6.507   4.998   3.863 -0.4208  0.4028 -0.9078
 6838TIP3    H142149   6.514   4.962   3.775  1.0003 -2.0889  0.1179
 6838TIP3    H242150   6.415   4.983   3.887 -0.0326 -2.2788 -0.7359
 6839TIP3   OH242151   4.166   5.882   1.029  0.8009 -0.5376  0.2141
 6839TIP3    H142152   4.118   5.800   1.014 -0.6391  0.1470  0.8296
 6839TIP3    H242153   4.187   5.915   0.942  1.1383 -1.4101 -0.0406
 6840TIP3   OH242154   5.194   5.368   2.297 -0.0567  0.5273 -0.3697
 6840TIP3    H142155   5.161   5.319   2.222 -2.0188 -0.2839  0.9181
 6840TIP3    H242156   5.286   5.343   2.304 -0.5168 -1.5164 -0.9203
 6841TIP3   OH242157   5.873   6.262   2.905 -0.7237  0.5581 -0.1867
 6841TIP3    H142158   5.933   6.331   2.876 -0.3472  0.6748  0.8324
 6841TIP3    H242159   5.930   6.197   2.945 -1.0847 -0.3267 -1.0692
 6842TIP3   OH242160   1.634   6.083   0.922  0.1365 -0.3279 -0.4509
 6842TIP3    H142161   1.539   6.070   0.914  0.0937  0.3262 -1.0338
 6842TIP3    H242162   1.661   6.018   0.986 -1.0066  0.7734  1.2239
 6843TIP3   OH242163   6.129   1.573   4.942 -0.2551  0.6301  0.4802
 6843TIP3    H142164   6.070   1.606   4.874 -0.6271 -0.7682  0.0761
 6843TIP3    H242165   6.192   1.519   4.894  0.6742  1.1927  1.0407
 6844TIP3   OH242166   5.278   4.412   3.426  0.4079  0.0911 -0.3927
 6844TIP3    H142167   5.227   4.364   3.491 -1.1234 -0.0209 -1.6126
 6844TIP3    H242168   5.369   4.393   3.448 -0.1042 -3.1943 -0.6417
 6845TIP3   OH242169   4.199   3.194   0.986 -0.2996 -0.2859 -0.4805
 6845TIP3    H142170   4.236   3.276   1.020  0.8521 -1.1146  0.3533
 6845TIP3    H242171   4.263   3.164   0.921 -0.2110 -1.0099 -0.0691
 6846TIP3   OH242172   0.924   0.948   3.289  0.3625  0.1179 -1.0808
 6846TIP3    H142173   1.001   0.894   3.312  1.9107  2.3666 -0.6759
 6846TIP3    H242174   0.893   0.981   3.374  0.6739  1.4162 -1.4537
 6847TIP3   OH242175   2.723   5.016   5.020  0.0521 -0.3544 -0.0370
 6847TIP3    H142176   2.686   5.097   4.986 -0.8061 -1.0115 -0.7161
 6847TIP3    H242177   2.787   5.044   5.086  0.3990  0.8875 -0.8688
 6848TIP3   OH242178   3.291   0.972   2.761  0.0675  0.4874  0.4190
 6848TIP3    H142179   3.362   0.978   2.825  2.1116 -2.2354 -1.3646
 6848TIP3    H242180   3.323   1.021   2.685 -0.7327  0.6493  0.1783
 6849TIP3   OH242181   3.893   3.005   2.973 -0.1862 -0.3645  0.0453
 6849TIP3    H142182   3.882   3.095   3.003 -0.1230 -0.5646  0.6820
 6849TIP3    H242183   3.935   2.960   3.046 -0.6860 -1.0351 -0.0724
 6850TIP3   OH242184   2.293   2.744   0.993 -0.3157  0.0690  0.4524
 6850TIP3    H142185   2.347   2.735   0.914  1.9865 -0.5624  2.0044
 6850TIP3    H242186   2.225   2.677   0.983 -0.6278  0.5899 -1.3516
 6851TIP3   OH242187   2.005   6.491   4.064 -0.6293  0.2581 -0.1644
 6851TIP3    H142188   2.052   6.566   4.027  1.8393 -0.9660  0.2645
 6851TIP3    H242189   1.956   6.454   3.990 -0.0952  0.9924 -0.9018
 6852TIP3   OH242190   0.516   5.853   2.216  0.2300 -0.4062 -0.0037
 6852TIP3    H142191   0.557   5.908   2.283 -1.9228  2.1715 -0.5849
 6852TIP3    H242192   0.431   5.830   2.254 -0.9224  0.8898 -1.6358
 6853TIP3   OH242193   5.801   6.098   5.089 -0.3896  0.2736 -0.1440
 6853TIP3    H142194   5.873   6.057   5.137 -0.2432  2.3091  1.5177
 6853TIP3    H242195   5.758   6.025   5.044  2.0028 -1.1617 -0.3063
 6854TIP3   OH242196   2.105   0.610   1.991  0.3252  0.0290 -0.2867
 6854TIP3    H142197   2.055   0.606   2.072  0.8600 -0.4713  0.0260
 6854TIP3    H242198   2.143   0.698   1.989  0.6007 -0.0783  0.1845
 6855TIP3   OH242199   6.145   4.071   1.787  0.2209  0.7902 -0.4078
 6855TIP3    H142200   6.050   4.079   1.784 -0.0703 -1.8390 -0.7803
 6855TIP3    H242201   6.173   4.081   1.696 -0.1186 -1.6500 -0.8445
 6856TIP3   OH242202   5.916   6.500   2.755 -1.0317 -0.3530 -0.4714
 6856TIP3    H142203   5.930   6.568   2.821 -0.7329  0.4389 -1.3340
 6856TIP3    H242204   5.996   6.500   2.703 -1.2847 -0.9349 -0.8718
 6857TIP3   OH242205   0.790   1.549   3.183  0.0879  0.2939 -0.8242
 6857TIP3    H142206   0.791   1.462   3.221  0.8168  1.0404  0.9643
 6857TIP3    H242207   0.878   1.560   3.146 -0.4774 -0.2591 -2.4499
 6858TIP3   OH242208   6.004   2.602   4.856 -0.5172  0.1674 -0.3653
 6858TIP3    H142209   6.037   2.648   4.779  0.3957  1.9929  1.0316
 6858TIP3    H242210   6.071   2.538   4.877 -0.3739  0.2391 -0.6058
 6859TIP3   OH242211   2.098   1.728   4.428  0.8235 -0.1097  0.4081
 6859TIP3    H142212   2.164   1.678   4.380  1.0583  0.4241  0.1575
 6859TIP3    H242213   2.040   1.762   4.360 -0.1188 -1.1395  0.6789
 6860TIP3   OH242214   4.635   5.345   0.790  0.2006 -0.5121 -0.5311
 6860TIP3    H142215   4.649   5.370   0.699 -1.1781  1.1388 -0.3495
 6860TIP3    H242216   4.546   5.309   0.791 -0.4059  0.9299  0.3829
 6861TIP3   OH242217   6.598   0.257   2.461  0.1583 -0.4987  0.1063
 6861TIP3    H142218   6.562   0.328   2.514 -2.1390 -1.4240 -0.1165
 6861TIP3    H242219   6.620   0.188   2.524  1.6807  0.0742  0.2453
 6862TIP3   OH242220   3.055   2.748   4.223 -0.0707 -0.2644  0.3125
 6862TIP3    H142221   3.039   2.808   4.150 -0.1351 -0.5859  0.0616
 6862TIP3    H242222   3.041   2.801   4.301 -2.4433 -0.5137  0.1297
 6863TIP3   OH242223   2.120   2.109   2.291  0.1313  0.4032 -0.5926
 6863TIP3    H142224   2.146   2.023   2.323 -0.8213 -0.7942 -2.7716
 6863TIP3    H242225   2.183   2.169   2.330  0.6953 -1.2309  1.1714
 6864TIP3   OH242226   4.229   3.491   2.119  0.2676 -0.0300 -0.4880
 6864TIP3    H142227   4.225   3.397   2.104 -1.6381  0.0428 -0.7180
 6864TIP3    H242228   4.308   3.520   2.073  0.0392 -1.2831 -1.7215
 6865TIP3   OH242229   0.401   1.157   5.241 -0.4688 -0.0687  0.3804
 6865TIP3    H142230   0.423   1.250   5.247  1.1251 -0.3757 -0.2835
 6865TIP3    H242231   0.470   1.112   5.289 -0.7745 -0.9615  0.0188
 6866TIP3   OH242232   3.319   2.966   3.606  0.0285 -0.5099 -0.2028
 6866TIP3    H142233   3.292   3.042   3.553  1.0002 -0.8368 -1.2019
 6866TIP3    H242234   3.303   2.993   3.696 -2.2466 -0.1527 -0.6549
 6867TIP3   OH242235   5.186   1.986   1.821  0.1870  0.3007  0.4479
 6867TIP3    H142236   5.192   1.965   1.728  1.2672 -0.0552  0.5847
 6867TIP3    H242237   5.215   2.077   1.827  0.4634  0.2124  0.4739
 6868TIP3   OH242238   3.274   2.871   3.047  0.2174  0.1698  0.2589
 6868TIP3    H142239   3.232   2.878   3.133 -1.6602 -1.3185 -0.4557
 6868TIP3    H242240   3.304   2.960   3.028  2.4539  0.1875  3.2318
 6869TIP3   OH242241   3.267   2.013   3.265  0.3980 -0.2579 -0.6643
 6869TIP3    H142242   3.269   1.921   3.237 -1.0607 -0.2967 -0.7318
 6869TIP3    H242243   3.182   2.023   3.307  1.1207  0.7198  0.6172
 6870TIP3   OH242244   4.094   1.605   0.903 -0.2682  0.5317 -0.0046
 6870TIP3    H142245   4.084   1.510   0.901  0.2850  0.4790 -0.8151
 6870TIP3    H242246   4.030   1.637   0.839 -0.2293  0.6791  0.0303
 6871TIP3   OH242247   5.147   2.864   4.187  0.0365 -0.2424  0.7746
 6871TIP3    H142248   5.082   2.925   4.152  0.7015 -0.0793 -0.2178
 6871TIP3    H242249   5.217   2.863   4.122  0.5655 -1.1985  1.3278
 6872TIP3   OH242250   5.758   6.424   1.926  0.0036 -0.9105 -0.4949
 6872TIP3    H142251   5.848   6.457   1.921  0.3018 -1.3140  1.4531
 6872TIP3    H242252   5.767   6.329   1.926  0.0520 -1.1084  4.0123
 6873TIP3   OH242253   3.282   2.214   3.082 -0.3415  0.6297  0.3077
 6873TIP3    H142254   3.293   2.127   3.119  1.3508  1.3567  1.6281
 6873TIP3    H242255   3.327   2.211   2.997 -0.8595  0.0522  0.0482
 6874TIP3   OH242256   1.574   5.538   2.151 -0.2132  0.2629  0.1077
 6874TIP3    H142257   1.535   5.474   2.210 -1.1646  1.2710  0.6058
 6874TIP3    H242258   1.550   5.623   2.189  0.9965  0.9161 -0.5481
 6875TIP3   OH242259   2.541   0.072   2.798 -0.2398  0.0808  0.9550
 6875TIP3    H142260   2.477   0.002   2.791  0.0170 -0.1595  1.0102
 6875TIP3    H242261   2.579   0.062   2.885  1.8125 -1.4635 -0.0386
 6876TIP3   OH242262   0.004   0.205   1.213 -0.3543  0.0404  0.5200
 6876TIP3    H142263  -0.045   0.212   1.296 -0.7770  2.3489  0.1278
 6876TIP3    H242264  -0.053   0.246   1.148  1.3341  1.1395 -0.3109
 6877TIP3   OH242265   3.298   5.984   3.516 -0.4119  0.1911  0.0094
 6877TIP3    H142266   3.263   6.060   3.469 -0.1833 -0.0624 -0.5698
 6877TIP3    H242267   3.291   6.008   3.609 -0.6158  0.7983 -0.1620
 6878TIP3   OH242268   5.104   5.215   2.835  0.1491 -0.2687  0.3296
 6878TIP3    H142269   5.126   5.203   2.927 -0.1017 -0.2021  0.3992
 6878TIP3    H242270   5.187   5.235   2.793  0.2569 -0.2481  0.5504
 6879TIP3   OH242271   3.043   6.352   3.234  0.2816 -0.3012  0.1086
 6879TIP3    H142272   3.118   6.393   3.190  0.2126 -0.2800  0.0105
 6879TIP3    H242273   2.988   6.319   3.163 -0.4547  0.8297  0.1295
 6880TIP3   OH242274   3.760   1.052   1.752  0.4343 -0.0721  0.5755
 6880TIP3    H142275   3.692   1.106   1.711 -1.7199 -1.0636  2.6098
 6880TIP3    H242276   3.790   0.995   1.681  0.3764  1.5053 -0.7809
 6881TIP3   OH242277   0.285   3.738   3.849 -0.0620 -0.4520 -0.0040
 6881TIP3    H142278   0.343   3.667   3.823 -0.1959 -0.4455 -0.3302
 6881TIP3    H242279   0.199   3.712   3.815 -0.3661 -0.7296  0.9498
 6882TIP3   OH242280   4.016   5.669   2.803 -0.3492 -0.2959 -0.8636
 6882TIP3    H142281   3.924   5.648   2.816 -0.0772 -1.3346 -0.5495
 6882TIP3    H242282   4.041   5.717   2.882 -0.5652 -0.1818 -0.8630
 6883TIP3   OH242283   1.026   6.424   1.849  0.2053 -0.3327  0.2722
 6883TIP3    H142284   0.936   6.402   1.876  0.2923 -0.9068  0.0911
 6883TIP3    H242285   1.077   6.418   1.930  0.0799  0.0042  0.3780
 6884TIP3   OH242286   0.362   5.895   0.415  0.4562 -0.3618  0.1856
 6884TIP3    H142287   0.457   5.889   0.413  0.4740 -0.3404  0.8252
 6884TIP3    H242288   0.344   5.971   0.470  0.0672 -0.4685  0.2088
 6885TIP3   OH242289   0.349   4.421   4.391  0.3799 -0.1327 -0.4928
 6885TIP3    H142290   0.307   4.487   4.446  1.3859  0.7728 -0.7657
 6885TIP3    H242291   0.389   4.360   4.452 -2.0289 -1.5495 -0.2039
 6886TIP3   OH242292   0.034   1.329   4.283  0.1350 -1.1018 -1.0119
 6886TIP3    H142293   0.058   1.324   4.190 -1.3942 -2.3863 -1.3840
 6886TIP3    H242294   0.033   1.238   4.312  1.4279 -0.6641  0.5264
 6887TIP3   OH242295   3.155   2.499   2.166  0.2816 -0.6516  0.4508
 6887TIP3    H142296   3.169   2.409   2.196  0.6494 -0.3648  1.1674
 6887TIP3    H242297   3.215   2.551   2.219  0.1134  0.0139 -0.0016
 6888TIP3   OH242298   5.409   1.342   3.634  0.8697 -0.3043 -0.5579
 6888TIP3    H142299   5.390   1.285   3.559  1.2678 -2.0233  0.5927
 6888TIP3    H242300   5.323   1.371   3.665  0.5246 -1.6866 -0.1419
 6889TIP3   OH242301   1.450   2.958   3.482 -0.1263  0.4331  0.2134
 6889TIP3    H142302   1.514   2.890   3.505 -1.1121 -0.4744  0.3732
 6889TIP3    H242303   1.394   2.917   3.416 -0.0886  1.4771 -0.4858
 6890TIP3   OH242304   4.069   0.490   3.492 -0.0655  0.4368 -0.0278
 6890TIP3    H142305   4.108   0.404   3.475 -0.0408  0.3708  0.3586
 6890TIP3    H242306   4.142   0.542   3.527 -0.3989  0.2036  1.0538
 6891TIP3   OH242307   3.209   4.189   5.222 -0.0711  0.4472  0.4618
 6891TIP3    H142308   3.242   4.201   5.311  0.3671 -0.1433  0.3824
 6891TIP3    H242309   3.115   4.175   5.234  0.2010 -1.1993  0.9867
 6892TIP3   OH242310   0.581   1.902   1.780 -0.0672 -0.0254 -0.4989
 6892TIP3    H142311   0.551   1.813   1.765  0.6306 -0.2133 -0.8648
 6892TIP3    H242312   0.521   1.957   1.730 -1.5892 -0.1179  1.1372
 6893TIP3   OH242313   5.768   1.246   2.557  0.0111  0.4398  0.3034
 6893TIP3    H142314   5.794   1.298   2.633 -0.0196  0.6058  0.2038
 6893TIP3    H242315   5.841   1.187   2.541 -0.4903 -0.4278  1.1895
 6894TIP3   OH242316   0.902   5.588   4.151 -0.9097 -0.4548 -1.2647
 6894TIP3    H142317   0.817   5.631   4.157 -1.2368 -1.2233 -0.0030
 6894TIP3    H242318   0.931   5.579   4.242 -0.4054 -1.9912 -1.5498
 6895TIP3   OH242319   3.037   5.326   0.563 -0.2886  0.2334  0.3648
 6895TIP3    H142320   3.099   5.398   0.578  0.3588 -0.7029  2.6941
 6895TIP3    H242321   3.090   5.253   0.535 -0.5699 -0.0693  0.6061
 6896TIP3   OH242322   2.334   3.868   1.676  0.5672 -0.3436  0.7790
 6896TIP3    H142323   2.264   3.806   1.659 -1.0417  1.6115 -0.0993
 6896TIP3    H242324   2.290   3.951   1.693  2.6504  1.2320 -0.8316
 6897TIP3   OH242325   1.607   4.118   2.338  0.1744  0.5281 -0.2084
 6897TIP3    H142326   1.672   4.180   2.306 -2.5764  3.4999 -0.5402
 6897TIP3    H242327   1.585   4.065   2.261  0.7198  0.8865 -0.6219
 6898TIP3   OH242328   5.995   2.763   1.048  0.5248  0.1189  0.7885
 6898TIP3    H142329   5.947   2.813   0.983 -0.5651 -0.4298  1.1580
 6898TIP3    H242330   5.998   2.674   1.013  0.7040  0.0112  1.0732
 6899TIP3   OH242331   6.592   6.535   1.315  0.1577 -0.4744  0.1037
 6899TIP3    H142332   6.523   6.504   1.374 -1.0168  0.4705 -0.7192
 6899TIP3    H242333   6.649   6.588   1.370 -1.3349  1.0202  0.3075
 6900TIP3   OH242334   4.008   3.751   1.493 -0.1365 -0.1385 -0.0960
 6900TIP3    H142335   3.994   3.764   1.400 -2.4007 -2.3044 -0.1418
 6900TIP3    H242336   4.099   3.777   1.508 -0.0535  1.2950 -2.6560
 6901TIP3   OH242337   0.375   4.577   1.739 -0.6716  0.3423 -0.5517
 6901TIP3    H142338   0.312   4.514   1.704 -0.2351 -0.2006 -0.3894
 6901TIP3    H242339   0.437   4.523   1.790  0.1174  0.8148 -0.9864
 6902TIP3   OH242340   5.408   3.566   4.519 -0.8466  0.5065  0.2713
 6902TIP3    H142341   5.404   3.472   4.507  0.1575  0.3578  0.9220
 6902TIP3    H242342   5.327   3.589   4.564 -0.7087 -0.1835  0.8935
 6903TIP3   OH242343   6.249   3.716   1.488  0.7158  0.3199  0.0865
 6903TIP3    H142344   6.170   3.670   1.518  0.9387  0.8389  1.5610
 6903TIP3    H242345   6.321   3.675   1.535  1.3755 -0.2545 -1.3708
 6904TIP3   OH242346   4.613   1.254   2.112  0.1677 -0.2091  0.9948
 6904TIP3    H142347   4.594   1.168   2.151 -0.1265 -0.7432 -0.2669
 6904TIP3    H242348   4.572   1.316   2.172 -0.6058 -1.0212  1.3502
 6905TIP3   OH242349   1.512   5.337   4.877 -0.4750  0.2073 -0.0586
 6905TIP3    H142350   1.581   5.391   4.913  0.0505  0.9463 -2.0325
 6905TIP3    H242351   1.443   5.338   4.943  0.8261  0.5830  1.3421
 6906TIP3   OH242352   5.184   3.101   2.268  0.0488 -0.1837 -0.8995
 6906TIP3    H142353   5.237   3.102   2.188  0.1543 -1.7192 -0.8789
 6906TIP3    H242354   5.248   3.091   2.339 -0.1475 -0.3256 -0.7399
 6907TIP3   OH242355   4.565   5.633   3.566  0.0369 -0.2543 -0.6560
 6907TIP3    H142356   4.605   5.615   3.651  0.4528  0.2524 -0.7399
 6907TIP3    H242357   4.559   5.728   3.562 -1.2764 -0.3204 -0.6104
 6908TIP3   OH242358   3.969   6.273   2.993 -0.1190  0.1086 -0.1434
 6908TIP3    H142359   3.972   6.205   3.061 -1.1747 -0.4299 -0.6023
 6908TIP3    H242360   3.876   6.285   2.976  0.1020  0.8969 -0.8514
 6909TIP3   OH242361   6.610   5.861   2.092  0.1892 -0.0517 -0.8648
 6909TIP3    H142362   6.600   5.768   2.071  1.4195 -0.0211 -1.6677
 6909TIP3    H242363   6.526   5.886   2.132 -0.3796 -1.3467 -1.2072
 6910TIP3   OH242364   6.329   3.735   2.628 -0.6170 -0.3369  0.1409
 6910TIP3    H142365   6.374   3.747   2.712 -0.1957 -1.2457  0.0563
 6910TIP3    H242366   6.368   3.655   2.591 -1.2578 -0.3072 -0.6183
 6911TIP3   OH242367   5.224   0.214   2.771  0.3834 -0.8043 -0.4267
 6911TIP3    H142368   5.200   0.145   2.710  1.0965  1.6212 -3.7674
 6911TIP3    H242369   5.305   0.184   2.811 -1.5690 -3.7403  1.8095
 6912TIP3   OH242370   4.509   5.751   0.919 -0.2596 -0.3008 -0.2220
 6912TIP3    H142371   4.506   5.659   0.947  0.8938 -0.4848 -0.6638
 6912TIP3    H242372   4.497   5.800   1.000  1.6702 -0.8378  0.4353
 6913TIP3   OH242373   3.894   1.253   2.151 -0.2249  0.2477 -0.5662
 6913TIP3    H142374   3.908   1.328   2.208 -0.6736 -0.9743  1.2324
 6913TIP3    H242375   3.966   1.193   2.171 -0.1566 -0.0536 -1.6055
 6914TIP3   OH242376   4.334   0.518   4.056 -0.2574  0.2579 -0.0451
 6914TIP3    H142377   4.262   0.539   3.997 -0.3743 -0.4687 -0.1805
 6914TIP3    H242378   4.372   0.438   4.019 -1.5490 -1.3607  1.8665
 6915TIP3   OH242379   5.416   0.090   3.479 -0.3231  0.3399  0.1458
 6915TIP3    H142380   5.372   0.150   3.539 -3.1123 -1.8832  0.5629
 6915TIP3    H242381   5.378   0.111   3.393 -1.9589 -1.1977  0.4171
 6916TIP3   OH242382   2.287   5.350   2.999 -0.3365 -0.0918 -0.0683
 6916TIP3    H142383   2.207   5.403   2.991 -0.5254 -0.3951 -0.1852
 6916TIP3    H242384   2.325   5.351   2.911 -0.7941 -0.8646 -0.2812
 6917TIP3   OH242385   4.906   0.129   3.596 -0.1530 -0.0741  0.2105
 6917TIP3    H142386   4.967   0.108   3.667 -1.4214 -2.0723  0.7823
 6917TIP3    H242387   4.842   0.188   3.636 -0.3187 -0.4222  0.4588
 6918TIP3   OH242388   3.587   5.047   3.862 -0.1102 -0.5270  0.4307
 6918TIP3    H142389   3.513   5.018   3.915  0.2657 -3.0687 -0.2970
 6918TIP3    H242390   3.577   5.000   3.780  1.0788  0.8751 -0.5716
 6919TIP3   OH242391   5.113   0.091   3.423  0.9368 -0.3512 -0.2715
 6919TIP3    H142392   5.058   0.140   3.484  1.9850 -0.2126  0.6170
 6919TIP3    H242393   5.140   0.156   3.358  2.1979  0.2936  0.8150
 6920TIP3   OH242394   6.347   5.812   4.053 -0.1298  0.1213 -0.1981
 6920TIP3    H142395   6.350   5.718   4.071 -0.7330  0.3860  1.4856
 6920TIP3    H242396   6.313   5.851   4.134 -2.6368  1.5288 -1.7770
 6921TIP3   OH242397   6.477   1.393   1.947 -0.4776  0.0196 -0.4662
 6921TIP3    H142398   6.410   1.327   1.933 -1.1181  0.9427 -1.9614
 6921TIP3    H242399   6.556   1.343   1.966 -1.5878 -1.0896  1.5932
 6922TIP3   OH242400   2.502   4.918   3.339 -0.4887  0.1724 -0.0373
 6922TIP3    H142401   2.454   4.963   3.269 -1.5375  0.6118  0.9220
 6922TIP3    H242402   2.490   4.825   3.319 -0.0398  0.2948 -0.9131
 6923TIP3   OH242403   4.290   5.160   4.900  0.1057  0.7628  0.0171
 6923TIP3    H142404   4.212   5.187   4.947 -0.5827 -1.0778  0.0043
 6923TIP3    H242405   4.362   5.173   4.962 -0.5806 -0.0663  1.0118
 6924TIP3   OH242406   6.168   4.940   3.299  0.0624 -0.0545 -0.1047
 6924TIP3    H142407   6.173   4.847   3.275  0.1780 -0.0227 -0.2061
 6924TIP3    H242408   6.233   4.950   3.368 -0.8959 -0.3413  0.8724
 6925TIP3   OH242409   2.318   0.107   3.241 -0.0638  0.7788 -0.0985
 6925TIP3    H142410   2.295   0.174   3.306  2.3014  1.2464  0.3584
 6925TIP3    H242411   2.364   0.156   3.172  2.0498 -0.3820  0.4288
 6926TIP3   OH242412   3.776   6.592   3.017  0.0894  0.4281 -0.0507
 6926TIP3    H142413   3.844   6.603   2.950  1.1377 -2.0856  0.5083
 6926TIP3    H242414   3.803   6.651   3.088  0.6191  0.8766 -0.6127
 6927TIP3   OH242415   3.188   6.181   3.045  0.7014 -0.2480 -0.3733
 6927TIP3    H142416   3.121   6.119   3.074 -0.1332 -0.0674 -1.8394
 6927TIP3    H242417   3.151   6.223   2.968  1.4649  1.7178  0.2726
 6928TIP3   OH242418   6.662   2.019   1.598 -0.4976  0.0055  0.9653
 6928TIP3    H142419   6.747   2.009   1.641  0.8496 -2.4765 -1.9346
 6928TIP3    H242420   6.669   2.101   1.549 -0.3191  0.4684  1.7355
 6929TIP3   OH242421   3.228   4.020   4.195 -0.2823  0.2043 -0.2719
 6929TIP3    H142422   3.320   4.006   4.214 -0.7793 -0.5804  1.9021
 6929TIP3    H242423   3.216   4.115   4.201  0.2565  0.2492  0.1444
 6930TIP3   OH242424   0.933   2.809   5.218  0.2740 -0.2153  0.7194
 6930TIP3    H142425   0.944   2.717   5.196 -1.1230 -0.3716  0.5748
 6930TIP3    H242426   1.005   2.853   5.173 -0.3734 -0.9645 -1.1562
 6931TIP3   OH242427   2.831   6.220   1.830 -0.2559  0.0311 -0.0206
 6931TIP3    H142428   2.757   6.226   1.889  0.3993  1.9722  0.6813
 6931TIP3    H242429   2.824   6.133   1.791 -1.3821 -0.8545  2.0151
 6932TIP3   OH242430   1.726   2.194   3.741 -0.1101 -0.1421 -0.4410
 6932TIP3    H142431   1.794   2.172   3.677 -0.3407  1.6221 -1.3449
 6932TIP3    H242432   1.741   2.133   3.813  2.9848  0.7173 -0.2118
 6933TIP3   OH242433   6.207   3.511   3.235 -0.0913 -0.0811 -0.3150
 6933TIP3    H142434   6.287   3.509   3.184 -0.1478  0.4066 -0.4322
 6933TIP3    H242435   6.235   3.539   3.323  0.0538 -1.2497  0.0199
 6934TIP3   OH242436   3.134   6.535   3.680  0.5293 -0.4933 -0.0527
 6934TIP3    H142437   3.162   6.464   3.737 -0.9874 -1.9478 -1.0190
 6934TIP3    H242438   3.199   6.537   3.610  1.3599  0.0556  0.7108
 6935TIP3   OH242439   1.389   0.591   2.312  0.2488  0.8763  0.0395
 6935TIP3    H142440   1.327   0.629   2.375 -0.8368  0.6763 -0.8633
 6935TIP3    H242441   1.452   0.543   2.366  0.8455  2.7608  1.1227
 6936TIP3   OH242442   6.594   5.622   5.340  0.0893 -1.5734 -0.6023
 6936TIP3    H142443   6.549   5.561   5.282 -1.1918 -0.3097 -0.9880
 6936TIP3    H242444   6.535   5.634   5.414  0.8238 -1.6378  0.0049
 6937TIP3   OH242445   2.844   1.369   3.533 -0.4983 -0.2789 -0.6126
 6937TIP3    H142446   2.820   1.411   3.450  2.0571  2.7346 -0.0311
 6937TIP3    H242447   2.797   1.418   3.600 -1.3785 -1.7219 -0.1286
 6938TIP3   OH242448   4.825   5.080   4.814  0.0200 -0.2340  0.3670
 6938TIP3    H142449   4.834   4.999   4.764 -0.2790  1.0688 -1.9967
 6938TIP3    H242450   4.869   5.146   4.760 -0.0864  1.2571  2.0034
 6939TIP3   OH242451   0.382   6.244   4.522 -0.1511  0.0766  0.2976
 6939TIP3    H142452   0.317   6.307   4.552 -0.3309  0.7139 -1.3352
 6939TIP3    H242453   0.344   6.206   4.443 -0.3973 -2.7072  1.6234
 6940TIP3   OH242454   5.221   0.506   2.314 -0.4250 -0.7392 -0.2512
 6940TIP3    H142455   5.288   0.524   2.380 -0.3735 -0.3657 -0.4072
 6940TIP3    H242456   5.141   0.491   2.365 -0.9217  1.8469 -0.1784
 6941TIP3   OH242457   5.119   5.737   1.757  0.1092 -0.0266  0.4135
 6941TIP3    H142458   5.118   5.797   1.832 -1.3047 -0.1987  0.5595
 6941TIP3    H242459   5.036   5.753   1.713  0.4589 -0.6979 -0.5083
 6942TIP3   OH242460   4.614   5.273   1.681 -0.0249 -0.3001  0.3841
 6942TIP3    H142461   4.625   5.353   1.732 -0.2516 -0.2277  0.3182
 6942TIP3    H242462   4.693   5.221   1.701 -1.3746 -1.5140  3.0596
 6943TIP3   OH242463   3.571   4.378   4.445  0.0291 -0.7514  0.2112
 6943TIP3    H142464   3.575   4.430   4.365 -0.2341 -1.2784 -0.1498
 6943TIP3    H242465   3.663   4.359   4.466  0.0896 -0.7555 -0.0574
 6944TIP3   OH242466   6.621   3.226   1.711 -0.1529  0.1053 -0.1101
 6944TIP3    H142467   6.596   3.314   1.740  0.0376  0.1604 -0.1104
 6944TIP3    H242468   6.619   3.173   1.790  1.1304  0.4265  0.1693
 6945TIP3   OH242469   1.880   4.688   3.083 -0.3357  0.2285  0.2879
 6945TIP3    H142470   1.918   4.671   2.996 -1.4902 -0.4310 -0.1012
 6945TIP3    H242471   1.857   4.781   3.081 -0.7558  0.1194 -0.2836
 6946TIP3   OH242472   3.293   2.706   2.317 -0.5027 -0.0183 -0.8689
 6946TIP3    H142473   3.336   2.746   2.393 -0.3343 -1.2281 -0.2928
 6946TIP3    H242474   3.345   2.733   2.242 -0.8148  1.4019 -0.5936
 6947TIP3   OH242475   3.795   2.084   4.094  0.4005 -0.1477  0.2736
 6947TIP3    H142476   3.841   2.106   4.013 -0.2363 -2.8699 -0.9473
 6947TIP3    H242477   3.740   2.009   4.070 -2.5785  1.1819  2.3481
 6948TIP3   OH242478   6.487   5.303   4.198 -0.0611  0.3831 -0.5161
 6948TIP3    H142479   6.515   5.217   4.168  2.7445  0.2067  2.1032
 6948TIP3    H242480   6.437   5.286   4.278  2.2820  1.1427  1.2119
 6949TIP3   OH242481   6.327   6.092   1.882  0.0024  0.1439  0.3046
 6949TIP3    H142482   6.407   6.133   1.915 -0.3924  0.4510  0.8942
 6949TIP3    H242483   6.357   6.016   1.832  0.8509  1.8540 -1.9661
 6950TIP3   OH242484   3.240   6.218   0.953  0.2027 -0.1533 -0.0851
 6950TIP3    H142485   3.200   6.266   0.881  0.7741 -1.3230 -1.2118
 6950TIP3    H242486   3.334   6.231   0.940  0.2855  0.5578  1.1175
 6951TIP3   OH242487   1.768   5.585   2.418 -0.5833  0.3121 -0.0566
 6951TIP3    H142488   1.747   5.656   2.357 -0.5093  0.0452 -0.3949
 6951TIP3    H242489   1.702   5.592   2.486 -0.8344  0.4426 -0.3108
 6952TIP3   OH242490   6.131   1.713   1.827  0.1503 -0.0684  0.5800
 6952TIP3    H142491   6.056   1.654   1.834  0.0637  0.0298  0.5083
 6952TIP3    H242492   6.130   1.742   1.735  1.1767 -1.2280  0.1815
 6953TIP3   OH242493   5.315   1.797   2.460  0.0161  0.1785  0.4254
 6953TIP3    H142494   5.342   1.817   2.550 -0.0759  0.4006  0.4049
 6953TIP3    H242495   5.387   1.831   2.406  0.6229 -0.9968  0.4730
 6954TIP3   OH242496   2.469   2.943   2.209  0.5538 -0.3309 -0.6083
 6954TIP3    H142497   2.433   3.006   2.271 -0.0648 -1.7058  0.5066
 6954TIP3    H242498   2.554   2.980   2.185  0.3733  0.7446  0.2895
 6955TIP3   OH242499   3.845   4.980   5.017 -0.0972 -0.3141  0.0421
 6955TIP3    H142500   3.932   4.962   5.052 -0.3396  0.4623  1.0938
 6955TIP3    H242501   3.812   5.052   5.070 -0.5682  0.8197 -1.7059
 6956TIP3   OH242502   3.940   0.920   2.686 -0.0781 -0.0973  0.4015
 6956TIP3    H142503   3.988   0.837   2.696 -0.7800 -0.4753  0.7114
 6956TIP3    H242504   3.910   0.919   2.595  0.5753  0.1847  0.1794
 6957TIP3   OH242505   5.032   1.600   2.397 -0.6164  0.0152  0.3129
 6957TIP3    H142506   5.020   1.600   2.491 -1.2536 -0.4300  0.2338
 6957TIP3    H242507   4.946   1.621   2.361 -0.7640 -1.4179 -0.2087
 6958TIP3   OH242508   0.441   0.277   1.455  0.4675  0.1655  0.3752
 6958TIP3    H142509   0.522   0.236   1.425 -0.2371 -0.4022 -0.7750
 6958TIP3    H242510   0.399   0.211   1.509 -0.5399 -0.5778 -1.2640
 6959TIP3   OH242511   4.341   6.706   2.655 -0.2707  0.2798  0.4722
 6959TIP3    H142512   4.368   6.701   2.747  0.4858  1.0250  0.3009
 6959TIP3    H242513   4.386   6.632   2.613 -4.6248 -3.4631  1.5714
 6960TIP3   OH242514   2.642   5.365   4.197  0.0414 -0.2396  0.0896
 6960TIP3    H142515   2.710   5.366   4.265  0.8414  0.9530 -0.7022
 6960TIP3    H242516   2.690   5.360   4.115 -0.8737 -0.4419 -0.4449
 6961TIP3   OH242517   6.146   6.615   2.973 -0.0469  0.1786  0.1187
 6961TIP3    H142518   6.191   6.531   2.969  0.3853  0.3649  0.8284
 6961TIP3    H242519   6.086   6.607   3.048 -0.2547  0.3802 -0.0234
 6962TIP3   OH242520   0.641   3.571   2.296 -0.4395  0.1626 -0.1841
 6962TIP3    H142521   0.735   3.560   2.288 -0.3862  1.3706 -1.8960
 6962TIP3    H242522   0.627   3.665   2.283 -1.7733  0.2254  1.4146
 6963TIP3   OH242523   6.030   2.878   5.078  0.2751  0.1830 -0.5274
 6963TIP3    H142524   5.980   2.947   5.122  0.1198 -0.6654  0.6595
 6963TIP3    H242525   5.970   2.805   5.069  1.2203 -0.7952  0.7722
 6964TIP3   OH242526   3.605   2.706   2.758  0.2246  0.6012 -0.3568
 6964TIP3    H142527   3.698   2.684   2.757  0.1175 -0.0937 -2.9867
 6964TIP3    H242528   3.574   2.681   2.845  1.9220 -1.7830 -0.3555
 6965TIP3   OH242529   2.065   0.839   3.405 -0.4538 -0.5962 -0.7347
 6965TIP3    H142530   1.995   0.810   3.463 -1.4486 -0.0240 -1.6249
 6965TIP3    H242531   2.137   0.863   3.465 -1.0259 -1.1293  0.1856
 6966TIP3   OH242532   3.155   1.429   4.152 -0.4744 -0.3933  0.1118
 6966TIP3    H142533   3.150   1.459   4.242 -0.6240  0.3431 -0.1342
 6966TIP3    H242534   3.078   1.373   4.141  0.7506 -2.3898  1.0978
 6967TIP3   OH242535   0.530   3.470   3.991 -0.4104 -0.0314 -0.0177
 6967TIP3    H142536   0.615   3.504   3.963 -0.7294  1.4575  0.6921
 6967TIP3    H242537   0.508   3.521   4.069 -0.9659 -1.9066  1.1233
 6968TIP3   OH242538   6.334   2.904   2.358 -0.3387  0.3104  0.0896
 6968TIP3    H142539   6.384   2.828   2.328  0.5301  1.6258 -1.9897
 6968TIP3    H242540   6.367   2.921   2.447  1.6945  0.0875 -0.5675
 6969TIP3   OH242541   5.084   6.168   1.836 -0.0723 -0.4917 -0.0811
 6969TIP3    H142542   4.998   6.209   1.828  0.2068  0.0158 -0.5750
 6969TIP3    H242543   5.137   6.232   1.884  0.4973 -0.0522 -1.2639
 6970TIP3   OH242544   1.173   2.809   1.951 -0.7298 -0.4755  0.8123
 6970TIP3    H142545   1.111   2.737   1.960 -1.9462  0.2298 -1.3429
 6970TIP3    H242546   1.255   2.768   1.923 -1.0132 -1.1234  0.9304
 6971TIP3   OH242547   3.992   5.406   2.946  0.1668  0.4753 -0.0020
 6971TIP3    H142548   3.975   5.486   2.896  0.6289  1.0635  0.7598
 6971TIP3    H242549   3.923   5.404   3.012 -1.4191 -1.1500 -1.6057
 6972TIP3   OH242550   0.686   5.193   4.380 -0.2202 -0.0273  0.3586
 6972TIP3    H142551   0.687   5.224   4.470  0.1428 -0.8379  0.6387
 6972TIP3    H242552   0.721   5.104   4.384  2.5281  0.8688 -0.9404
 6973TIP3   OH242553   3.665   4.164   1.350  0.1102 -0.1257 -0.3255
 6973TIP3    H142554   3.667   4.258   1.328 -0.9887 -0.5253 -2.3842
 6973TIP3    H242555   3.747   4.149   1.396  0.4937  1.7698 -0.2779
 6974TIP3   OH242556   5.505   0.065   1.912 -0.0595 -1.1344 -0.5462
 6974TIP3    H142557   5.502  -0.030   1.898 -0.5909 -0.9452 -1.7537
 6974TIP3    H242558   5.555   0.099   1.838  1.4386 -0.5930  0.6577
 6975TIP3   OH242559   2.805   5.345   0.728 -0.2282  0.6456  0.1115
 6975TIP3    H142560   2.856   5.365   0.807  2.4426  0.3331 -1.4261
 6975TIP3    H242561   2.869   5.346   0.657 -2.4491  0.4261 -2.0182
 6976TIP3   OH242562   6.383   2.364   3.022  0.8282 -0.7161 -0.7609
 6976TIP3    H142563   6.411   2.275   3.045  1.7244 -0.1211  0.6307
 6976TIP3    H242564   6.440   2.390   2.950  0.9368 -1.0839 -0.8074
 6977TIP3   OH242565   4.928   5.728   2.538  0.2420 -0.3793  0.0125
 6977TIP3    H142566   4.898   5.819   2.539 -1.4092 -0.8808  0.0610
 6977TIP3    H242567   5.001   5.726   2.599 -0.4149  0.7015  0.8728
 6978TIP3   OH242568   3.323   0.871   0.834 -0.2006  0.2805  0.5334
 6978TIP3    H142569   3.360   0.956   0.811  1.5438 -1.0411 -2.1489
 6978TIP3    H242570   3.386   0.807   0.800 -1.9576 -2.1238  1.4380
 6979TIP3   OH242571   4.305   3.531   2.872 -0.0529 -0.1278  0.4718
 6979TIP3    H142572   4.232   3.593   2.885  0.4948  0.2677  1.8094
 6979TIP3    H242573   4.379   3.586   2.848  0.0100 -0.4642 -0.1386
 6980TIP3   OH242574   4.992   1.740   4.424  0.2724  0.3780  0.1833
 6980TIP3    H142575   4.986   1.819   4.370  1.0737 -0.2712 -0.8791
 6980TIP3    H242576   5.085   1.725   4.436  0.1123  0.2822  1.4353
 6981TIP3   OH242577   4.126   2.172   4.913 -0.3552 -0.1674 -0.2804
 6981TIP3    H142578   4.138   2.208   5.001 -2.3948 -0.0929  0.0328
 6981TIP3    H242579   4.208   2.189   4.868  0.4857  0.4215  1.3965
 6982TIP3   OH242580   3.106   1.937   2.953 -0.2920 -0.2569 -0.7352
 6982TIP3    H142581   3.044   1.945   2.881 -0.5919 -0.7771 -0.5460
 6982TIP3    H242582   3.085   1.852   2.992 -2.3572  1.3248  2.0006
 6983TIP3   OH242583   3.668   1.218   3.622  0.4285  0.0771  0.3599
 6983TIP3    H142584   3.745   1.201   3.676  1.3922  1.7066 -0.4346
 6983TIP3    H242585   3.694   1.290   3.564 -1.7078  0.7270  0.1102
 6984TIP3   OH242586   0.158   4.950   3.804  0.2751  0.3528 -0.4767
 6984TIP3    H142587   0.118   4.873   3.846 -0.3551 -1.0154 -3.3170
 6984TIP3    H242588   0.108   5.024   3.837 -1.0507 -0.7763  0.1679
 6985TIP3   OH242589   5.965   4.315   1.679  0.1767 -0.1452 -0.0065
 6985TIP3    H142590   5.880   4.311   1.635  0.7934 -0.6150 -1.1968
 6985TIP3    H242591   5.943   4.327   1.771 -1.1507  1.2855 -0.4572
 6986TIP3   OH242592   6.256   3.638   3.469  0.0681 -0.8684  0.2351
 6986TIP3    H142593   6.332   3.599   3.513  0.2288  0.2007  0.9500
 6986TIP3    H242594   6.292   3.714   3.422 -0.7558  0.6610  1.9313
 6987TIP3   OH242595   5.236   2.843   0.346  0.2699 -0.3160 -0.7679
 6987TIP3    H142596   5.179   2.767   0.330  1.0207 -0.9473 -0.4985
 6987TIP3    H242597   5.222   2.900   0.271 -0.6334 -0.5148 -0.7611
 6988TIP3   OH242598   5.984   0.438   3.128 -0.1049 -0.0419 -0.1195
 6988TIP3    H142599   5.941   0.358   3.100  1.9041 -1.6713  1.1011
 6988TIP3    H242600   6.015   0.419   3.217 -0.0853  2.3288  0.4674
 6989TIP3   OH242601   1.137   1.451   0.949 -0.4244  0.3956 -0.2400
 6989TIP3    H142602   1.093   1.447   1.034 -0.1469 -0.8134 -0.1367
 6989TIP3    H242603   1.224   1.414   0.966  0.1580  1.4940 -0.7412
 6990TIP3   OH242604   5.539   1.112   3.859  0.1014 -0.9046  0.0068
 6990TIP3    H142605   5.585   1.082   3.780  2.0042  0.1361  0.6578
 6990TIP3    H242606   5.513   1.202   3.839  2.3412  0.0741  1.1943
 6991TIP3   OH242607   5.318   6.536   3.780  0.0293 -0.0413 -0.1088
 6991TIP3    H142608   5.355   6.575   3.701 -1.4196  2.1411  0.2040
 6991TIP3    H242609   5.235   6.583   3.794 -1.6545 -2.9783  0.6095
 6992TIP3   OH242610   2.670   3.917   1.949 -0.4625 -0.3933  0.1515
 6992TIP3    H142611   2.604   3.848   1.936 -0.6121 -0.2669  0.2427
 6992TIP3    H242612   2.620   3.992   1.982  0.0353 -1.0902  2.7259
 6993TIP3   OH242613   4.255   4.248   1.000 -0.5533  0.3511  0.4379
 6993TIP3    H142614   4.189   4.190   0.962 -0.5409  0.3180  0.4669
 6993TIP3    H242615   4.298   4.195   1.068 -1.1664  0.6838  1.1015
 6994TIP3   OH242616   4.825   1.964   4.508  0.4077 -0.2103  0.2987
 6994TIP3    H142617   4.775   1.896   4.463 -0.1328 -0.0736  0.6860
 6994TIP3    H242618   4.776   1.981   4.588 -0.4012  1.8249 -0.5581
 6995TIP3   OH242619   0.840   0.851   4.448  0.2079 -0.2473 -0.1548
 6995TIP3    H142620   0.750   0.838   4.477  0.1912  0.2041  0.0108
 6995TIP3    H242621   0.843   0.943   4.421  0.5810 -0.2995 -0.2936
 6996TIP3   OH242622   2.429   3.706   5.138  0.2053  0.2024  0.4858
 6996TIP3    H142623   2.395   3.629   5.184  1.1514  0.3221  1.4212
 6996TIP3    H242624   2.508   3.675   5.095 -0.1350  0.3410 -0.2583
 6997TIP3   OH242625   1.632   5.014   4.988  0.1180  0.0145  0.6053
 6997TIP3    H142626   1.595   5.102   4.998 -0.4281 -0.0351 -0.7629
 6997TIP3    H242627   1.556   4.956   4.992  0.3556 -0.3076  0.4596
 6998TIP3   OH242628   4.696   5.918   2.223 -0.2349 -0.0647  0.6098
 6998TIP3    H142629   4.789   5.895   2.231 -0.0469 -0.0210 -1.0013
 6998TIP3    H242630   4.679   5.917   2.128 -1.7662  0.3814  0.8430
 6999TIP3   OH242631   3.804   5.937   2.927  0.1593  0.1690 -0.0843
 6999TIP3    H142632   3.840   5.940   2.839 -2.0083 -0.8067 -1.0651
 6999TIP3    H242633   3.876   5.904   2.981  2.0938  2.4454 -1.0946
 7000TIP3   OH242634   0.616   2.197   1.303  0.0384  0.8818 -0.0054
 7000TIP3    H142635   0.582   2.256   1.236 -0.2849  0.3599 -0.3093
 7000TIP3    H242636   0.587   2.110   1.275  1.3638  0.4585 -0.0941
 7001TIP3   OH242637   2.769   5.548   4.661  0.6260  0.0175  0.7863
 7001TIP3    H142638   2.725   5.542   4.745 -0.4720 -0.0859  0.2197
 7001TIP3    H242639   2.701   5.530   4.596  0.6830  3.1455 -0.2976
 7002TIP3   OH242640   1.422   6.109   2.480 -0.3060 -0.7717  0.0849
 7002TIP3    H142641   1.332   6.078   2.488  0.1524 -2.0684  0.5325
 7002TIP3    H242642   1.425   6.190   2.531 -0.7739 -1.7030  1.6371
 7003TIP3   OH242643   1.299   3.232   4.024 -0.1776  0.0341  0.2280
 7003TIP3    H142644   1.225   3.273   3.980  0.7775  1.4633 -0.1264
 7003TIP3    H242645   1.259   3.173   4.088 -1.6192  0.6159 -0.0904
 7004TIP3   OH242646   1.699   6.322   1.831  0.7419 -0.4969  0.0875
 7004TIP3    H142647   1.668   6.257   1.893  2.2608 -1.2329  0.1140
 7004TIP3    H242648   1.652   6.402   1.854  0.1926 -1.1299  1.2156
 7005TIP3   OH242649   2.095   5.892   2.878 -0.0845 -0.3314 -0.2939
 7005TIP3    H142650   2.060   5.926   2.961 -1.4892 -1.1203 -0.5254
 7005TIP3    H242651   2.129   5.806   2.900 -0.1460 -0.4012 -0.4707
 7006TIP3   OH242652   5.778   2.565   2.427  0.5830 -0.4016  0.2101
 7006TIP3    H142653   5.858   2.606   2.394 -0.1094 -0.8886 -2.3119
 7006TIP3    H242654   5.807   2.482   2.465  1.4255  0.1620  0.8507
 7007TIP3   OH242655   2.839   2.633   2.678  0.0607 -0.6629  0.1402
 7007TIP3    H142656   2.923   2.650   2.635 -1.1348  0.4974 -1.8808
 7007TIP3    H242657   2.831   2.702   2.743 -0.6985  1.2638 -1.8791
 7008TIP3   OH242658   1.660   3.365   2.962 -0.6504  0.1605 -0.6408
 7008TIP3    H142659   1.700   3.452   2.967  1.6804 -0.8426 -0.5569
 7008TIP3    H242660   1.619   3.362   2.876  1.1787  0.5837 -1.5622
 7009TIP3   OH242661   1.069   3.751   4.306 -0.1065  0.1102  0.7633
 7009TIP3    H142662   1.057   3.691   4.379  0.0396 -0.6054  0.2116
 7009TIP3    H242663   1.092   3.694   4.232  1.4104  0.9566  0.5480
 7010TIP3   OH242664   4.490   5.080   1.901 -0.7612 -0.7081  0.5168
 7010TIP3    H142665   4.424   5.115   1.959 -1.6193 -0.0313 -0.8133
 7010TIP3    H242666   4.448   5.079   1.815  1.2012  0.5059 -0.5333
 7011TIP3   OH242667   4.218   0.743   1.843  0.0689  0.4342  0.0432
 7011TIP3    H142668   4.130   0.779   1.827 -0.5829 -2.3666 -4.4851
 7011TIP3    H242669   4.274   0.788   1.780  1.4120  0.3765  1.1351
 7012TIP3   OH242670   5.844   4.867   1.376  0.1805  0.0364 -0.0764
 7012TIP3    H142671   5.870   4.912   1.296  1.3626 -0.4210  0.0317
 7012TIP3    H242672   5.758   4.830   1.355 -0.7572  2.1764 -0.2053
 7013TIP3   OH242673   2.793   6.096   4.039 -0.0497 -0.4840 -0.4559
 7013TIP3    H142674   2.741   6.163   4.083  1.7457  0.4555  0.3393
 7013TIP3    H242675   2.728   6.037   4.000 -1.7800  2.2956 -2.1767
 7014TIP3   OH242676   3.701   6.416   2.483 -0.0331  0.0895 -0.3609
 7014TIP3    H142677   3.737   6.334   2.517  0.2558  1.1597  2.1587
 7014TIP3    H242678   3.776   6.462   2.447  0.3840  0.4515  0.9054
 7015TIP3   OH242679   4.131   1.987   4.072 -0.0097  0.2869 -1.3802
 7015TIP3    H142680   4.081   1.922   4.120  1.8549  0.3765  0.8536
 7015TIP3    H242681   4.099   2.071   4.105 -0.0088  0.4107 -1.6915
 7016TIP3   OH242682   1.502   1.177   1.315 -0.2114 -0.2454  0.0412
 7016TIP3    H142683   1.469   1.090   1.339 -0.3296 -0.0213  0.7242
 7016TIP3    H242684   1.461   1.236   1.378 -1.7205  0.5995 -1.6242
 7017TIP3   OH242685   3.428   2.290   2.841 -0.1980  0.0352 -0.3707
 7017TIP3    H142686   3.435   2.279   2.746  0.2687  0.9605 -0.4484
 7017TIP3    H242687   3.490   2.226   2.877 -1.8354 -1.7809 -0.5898
 7018TIP3   OH242688   3.599   0.967   4.833 -0.1553  0.0829  0.2272
 7018TIP3    H142689   3.520   1.001   4.875 -0.8017 -0.3144 -0.6284
 7018TIP3    H242690   3.651   0.932   4.904 -0.2382  1.3382  0.9356
 7019TIP3   OH242691   0.624   4.242   1.192 -0.4707 -0.0836  0.8349
 7019TIP3    H142692   0.700   4.215   1.243  0.8673  0.7117 -0.6677
 7019TIP3    H242693   0.583   4.310   1.246 -0.5585 -1.0150  1.9841
 7020TIP3   OH242694   2.291   2.567   3.169 -0.1614  0.4704 -0.3391
 7020TIP3    H142695   2.206   2.612   3.169  0.2594  1.2800 -0.4336
 7020TIP3    H242696   2.356   2.637   3.161  0.6840  0.2202  2.8931
 7021TIP3   OH242697   3.696   4.943   1.459  0.0416  0.1645  0.4808
 7021TIP3    H142698   3.722   4.880   1.392 -2.1394  1.0853 -1.3522
 7021TIP3    H242699   3.749   5.020   1.441 -0.3383  0.3111 -0.0566
 7022TIP3   OH242700   0.155   2.288   3.337  0.5589 -0.3223 -0.4316
 7022TIP3    H142701   0.222   2.272   3.270 -0.5147 -0.5425 -1.4978
 7022TIP3    H242702   0.073   2.268   3.293 -0.1339 -1.4030  1.2753
 7023TIP3   OH242703   1.297   6.218   4.743 -0.4420  0.6842 -0.5343
 7023TIP3    H142704   1.238   6.285   4.777 -1.5023 -1.4363  2.1474
 7023TIP3    H242705   1.359   6.201   4.814 -0.2616 -1.1855 -1.0760
 7024TIP3   OH242706   5.059   5.327   2.521 -0.1432  0.1717  0.1179
 7024TIP3    H142707   5.116   5.351   2.448 -1.1261  0.8874 -0.4205
 7024TIP3    H242708   4.995   5.267   2.483 -0.2248 -0.0247  0.5559
 7025TIP3   OH242709   0.936   4.116   3.578 -0.0352 -0.0809  0.2052
 7025TIP3    H142710   0.909   4.097   3.488  0.4430 -0.0213  0.0456
 7025TIP3    H242711   0.863   4.164   3.616 -0.0451  0.3096 -0.3000
 7026TIP3   OH242712   6.579   4.057   2.938  0.0454  0.5795  0.4033
 7026TIP3    H142713   6.547   4.143   2.910  0.0758  0.3392 -0.3811
 7026TIP3    H242714   6.598   4.068   3.031 -1.8643  0.8782  0.8062
 7027TIP3   OH242715   0.877   1.040   2.269 -0.4199 -0.3262  0.2856
 7027TIP3    H142716   0.822   1.117   2.285 -0.3316  0.0869 -1.2476
 7027TIP3    H242717   0.816   0.968   2.258 -0.6125 -0.0877 -0.2405
 7028TIP3   OH242718   6.633   3.827   2.228  0.3661 -0.4434  0.4033
 7028TIP3    H142719   6.698   3.838   2.297  0.3478 -1.2217  0.5564
 7028TIP3    H242720   6.579   3.753   2.257  0.0328 -0.4431 -0.1923
 7029TIP3   OH242721   3.519   5.832   0.384 -0.0221 -0.3818  0.5001
 7029TIP3    H142722   3.546   5.746   0.352 -1.8859 -0.7643 -0.1887
 7029TIP3    H242723   3.594   5.888   0.368  1.1533 -1.8302  0.7520
 7030TIP3   OH242724   5.186   5.845   4.587 -0.4645 -0.6697 -0.0207
 7030TIP3    H142725   5.275   5.816   4.571 -0.2980 -0.7272  0.9869
 7030TIP3    H242726   5.189   5.887   4.673 -1.0160  0.9756 -0.7604
 7031TIP3   OH242727   2.447   6.175   4.652 -0.4847  0.2313 -0.0020
 7031TIP3    H142728   2.471   6.147   4.564 -1.1922 -0.3157 -0.0331
 7031TIP3    H242729   2.421   6.094   4.697 -0.0426  0.4884  0.7427
 7032TIP3   OH242730   3.284   1.910   1.950  0.5931 -0.8259  0.7879
 7032TIP3    H142731   3.233   1.991   1.961 -2.0212 -2.1063 -0.8216
 7032TIP3    H242732   3.332   1.923   1.869  1.1649 -0.4281  1.1854
 7033TIP3   OH242733   2.632   3.288   4.897  0.6337 -0.3495  0.3544
 7033TIP3    H142734   2.724   3.311   4.892  0.6224 -0.3355  0.2138
 7033TIP3    H242735   2.629   3.196   4.870  0.3503  0.2201 -1.6831
 7034TIP3   OH242736   2.050   6.605   2.846  0.3523 -0.2163  0.1113
 7034TIP3    H142737   2.004   6.565   2.772  1.7075 -0.3431 -0.6969
 7034TIP3    H242738   2.076   6.531   2.901  0.0951 -0.1844  0.2810
 7035TIP3   OH242739   1.437   4.916   0.409  0.4566  0.1058  0.1547
 7035TIP3    H142740   1.524   4.915   0.368 -0.1103 -2.1629 -1.1724
 7035TIP3    H242741   1.455   4.930   0.502  2.0539  1.8525 -0.3587
 7036TIP3   OH242742   1.929   6.023   3.636  0.5878 -0.1706  0.0707
 7036TIP3    H142743   1.986   6.100   3.637  0.5329 -0.1162 -0.6340
 7036TIP3    H242744   1.950   5.978   3.554 -0.3063 -0.1972 -0.1538
 7037TIP3   OH242745   3.522   5.993   2.642 -0.2697  0.3790  0.4727
 7037TIP3    H142746   3.475   5.987   2.726  0.5932 -0.6200  0.9000
 7037TIP3    H242747   3.510   5.907   2.602 -0.7857  0.8902 -0.5179
 7038TIP3   OH242748   2.282   6.482   0.646 -0.2732 -0.2925 -0.1208
 7038TIP3    H142749   2.338   6.558   0.659  0.5277 -0.4767 -2.0904
 7038TIP3    H242750   2.339   6.407   0.662 -0.4720 -0.4811 -0.2803
 7039TIP3   OH242751   3.609   6.515   1.215  0.0365 -0.1105  0.1650
 7039TIP3    H142752   3.690   6.469   1.193 -0.0565 -1.2163  1.9495
 7039TIP3    H242753   3.631   6.568   1.291 -0.9961 -0.7858  0.9747
 7040TIP3   OH242754   1.173   1.683   5.105  0.5797  0.0150  0.2938
 7040TIP3    H142755   1.116   1.730   5.166 -1.0174 -0.9485 -0.3916
 7040TIP3    H242756   1.260   1.689   5.143 -0.0501  1.1758  1.6066
 7041TIP3   OH242757   0.680   3.744   4.983 -0.0018 -0.4443  0.0412
 7041TIP3    H142758   0.647   3.698   5.060  1.1324 -1.7164 -0.1949
 7041TIP3    H242759   0.767   3.775   5.008 -0.3772  0.7964 -0.1207
 7042TIP3   OH242760   4.680   5.704   2.380 -0.2396 -0.2061  0.3439
 7042TIP3    H142761   4.689   5.786   2.332 -0.1778 -0.0214  0.6683
 7042TIP3    H242762   4.764   5.695   2.427 -0.1617 -0.5618  0.1394
 7043TIP3   OH242763   1.170   6.130   0.047  0.1569 -0.2965 -0.0799
 7043TIP3    H142764   1.081   6.102   0.026  0.1325 -0.0054 -0.3901
 7043TIP3    H242765   1.226   6.060   0.014 -0.0080 -1.0467  1.1771
 7044TIP3   OH242766   2.725   3.538   8.876  0.0376  0.2028 -0.3496
 7044TIP3    H142767   2.804   3.484   8.879 -0.5383 -0.6384  0.1455
 7044TIP3    H242768   2.720   3.577   8.963  0.8919  1.7312 -0.9592
 7045TIP3   OH242769   1.724   0.987   2.240 -0.2907  0.3339 -0.9900
 7045TIP3    H142770   1.635   0.973   2.273  0.7451  0.7322  2.2705
 7045TIP3    H242771   1.781   0.950   2.306  2.0469  0.4395 -2.8097
 7046TIP3   OH242772   0.496   4.814   3.937 -0.1731  0.3729 -0.6519
 7046TIP3    H142773   0.523   4.905   3.945 -0.3549  0.7338 -3.1481
 7046TIP3    H242774   0.418   4.807   3.992  1.5856  0.8244  2.0552
 7047TIP3   OH242775   5.010   2.984   3.559  0.0156 -0.0503  0.7089
 7047TIP3    H142776   4.932   3.010   3.608 -0.0483 -0.2269  0.6998
 7047TIP3    H242777   5.082   2.994   3.623  0.0242  0.3733  0.6362
 7048TIP3   OH242778   2.325   4.533   2.348 -0.5462 -0.5448  0.1840
 7048TIP3    H142779   2.308   4.511   2.440  0.4582  0.2516  0.5755
 7048TIP3    H242780   2.408   4.489   2.328  0.3060  0.9527  0.3005
 7049TIP3   OH242781   5.984   5.682   3.606  0.3555  0.1949 -0.2685
 7049TIP3    H142782   6.000   5.704   3.697  0.8294  1.6111 -0.6687
 7049TIP3    H242783   5.896   5.714   3.588  0.1379 -0.3674 -0.2357
 7050TIP3   OH242784   4.198   1.383   3.904  0.2634 -0.1829 -0.5973
 7050TIP3    H142785   4.262   1.368   3.835 -0.2164  0.5161 -1.2069
 7050TIP3    H242786   4.113   1.382   3.859  0.0192  1.4837 -0.2405
 7051TIP3   OH242787   5.376   3.874   1.796 -0.1516 -0.1172  0.0025
 7051TIP3    H142788   5.301   3.822   1.825  0.1004 -0.3153  0.3156
 7051TIP3    H242789   5.427   3.888   1.876 -0.1871  0.5655 -0.0909
 7052TIP3   OH242790   1.279   6.378   0.426 -0.1934  0.0005 -0.5460
 7052TIP3    H142791   1.275   6.471   0.451 -2.0681 -0.4842  1.2041
 7052TIP3    H242792   1.218   6.372   0.352 -0.1537  0.1397 -0.5915
 7053TIP3   OH242793   1.053   2.285   5.163 -0.2282  0.1957  0.8193
 7053TIP3    H142794   1.143   2.317   5.174 -0.5980  0.9264  1.9361
 7053TIP3    H242795   1.062   2.191   5.149  0.8204  0.5237 -1.1845
 7054TIP3   OH242796   0.400   2.937   2.508  0.1597  0.0072 -0.4080
 7054TIP3    H142797   0.488   2.925   2.473  0.1786 -0.9645 -0.0665
 7054TIP3    H242798   0.365   3.012   2.460  0.4834 -0.7468 -1.9017
 7055TIP3   OH242799   1.274   2.340   3.347  0.0683  0.7232  0.5386
 7055TIP3    H142800   1.187   2.319   3.313 -1.2108  2.4408  2.4700
 7055TIP3    H242801   1.303   2.260   3.392 -0.8583  0.3666  0.5213
 7056TIP3   OH242802   1.407   1.098   2.853  0.1492 -0.6082  0.3171
 7056TIP3    H142803   1.371   1.171   2.902  2.3076  0.2028  0.7993
 7056TIP3    H242804   1.406   1.127   2.762  2.1749  0.6486  0.6230
 7057TIP3   OH242805   1.425   6.101   3.295  0.1477 -0.0096 -0.5044
 7057TIP3    H142806   1.355   6.042   3.322 -0.3564  1.4956  1.8279
 7057TIP3    H242807   1.489   6.097   3.366  0.1813  2.0293 -0.3462
 7058TIP3   OH242808   4.710   4.307   2.488  0.2161  0.1750  0.0217
 7058TIP3    H142809   4.619   4.320   2.512 -0.4168 -2.3294 -0.7195
 7058TIP3    H242810   4.711   4.307   2.392  1.6018  3.3978 -0.0844
 7059TIP3   OH242811   6.545   1.053   4.429 -0.1378  0.0189  0.2068
 7059TIP3    H142812   6.555   0.990   4.359 -1.0085 -0.1119  0.1888
 7059TIP3    H242813   6.458   1.035   4.466  0.6430 -0.4991  1.8932
 7060TIP3   OH242814   2.616   4.617   2.641  0.4186 -0.4091  0.5126
 7060TIP3    H142815   2.535   4.664   2.661  0.1999 -0.7951  0.5416
 7060TIP3    H242816   2.684   4.665   2.688  0.3512  0.4702 -0.2654
 7061TIP3   OH242817   6.293   0.793   1.917 -0.0192  0.1327  0.1745
 7061TIP3    H142818   6.360   0.746   1.867 -1.5395 -2.3846  0.3357
 7061TIP3    H242819   6.340   0.829   1.993  1.5153  0.3603 -0.8477
 7062TIP3   OH242820   5.768   2.769   1.754  0.4260  0.0315  0.2011
 7062TIP3    H142821   5.806   2.816   1.828  2.0334  1.5959 -1.4765
 7062TIP3    H242822   5.677   2.798   1.750  0.7832  1.2609  0.5850
 7063TIP3   OH242823   2.794   2.752   1.551  0.4144  0.0739 -0.2398
 7063TIP3    H142824   2.749   2.829   1.518 -0.7420 -0.0938  0.8608
 7063TIP3    H242825   2.860   2.732   1.484 -0.9137  0.5394 -1.7547
 7064TIP3   OH242826   6.717   2.248   3.136 -0.9375  0.1309 -0.0281
 7064TIP3    H142827   6.737   2.205   3.053 -1.6015 -0.7251  0.2413
 7064TIP3    H242828   6.725   2.342   3.117  0.4211 -0.0847 -0.6504
 7065TIP3   OH242829   0.279   4.040   1.307 -0.0306 -0.0814 -0.4804
 7065TIP3    H142830   0.336   4.015   1.380  0.4249 -1.7036 -1.3422
 7065TIP3    H242831   0.293   3.972   1.241 -1.9495  0.2262 -1.2746
 7066TIP3   OH242832   5.469   2.822   0.461 -0.4293  0.3020 -0.2859
 7066TIP3    H142833   5.380   2.837   0.431 -0.8138 -1.6821 -0.2937
 7066TIP3    H242834   5.495   2.739   0.420  0.7040 -0.1407  1.2051
 7067TIP3   OH242835   0.117   2.172   4.970  0.2784  0.4073 -0.0047
 7067TIP3    H142836   0.210   2.154   4.983  0.2370  0.1106 -0.1310
 7067TIP3    H242837   0.081   2.180   5.058  0.1562 -0.8196  0.0665
 7068TIP3   OH242838   4.672   3.548   4.145 -0.2812 -0.2418 -0.3046
 7068TIP3    H142839   4.749   3.490   4.148 -0.5325 -0.5503  0.2710
 7068TIP3    H242840   4.619   3.522   4.220 -1.4323 -0.6990 -1.2340
 7069TIP3   OH242841   6.029   4.182   4.718 -0.0747  0.0779  0.0066
 7069TIP3    H142842   6.005   4.252   4.779 -0.2109  0.5312 -0.5573
 7069TIP3    H242843   6.125   4.188   4.711 -0.1729  0.8826 -0.8228
 7070TIP3   OH242844   0.635   3.688   5.554  0.0027 -0.0755  0.2318
 7070TIP3    H142845   0.702   3.621   5.562 -1.7946 -1.7638  2.5772
 7070TIP3    H242846   0.560   3.643   5.515 -1.3774  0.3364  2.2196
 7071TIP3   OH242847   0.910   1.726   2.230 -0.1367 -0.0317  0.6696
 7071TIP3    H142848   1.000   1.756   2.222  0.7114 -2.4292  0.2841
 7071TIP3    H242849   0.857   1.803   2.210  1.8247  0.9567 -1.1477
 7072TIP3   OH242850   2.599   5.760   3.689  0.1694  0.2765 -0.1361
 7072TIP3    H142851   2.627   5.734   3.602  0.6106 -1.8706  0.5882
 7072TIP3    H242852   2.503   5.753   3.686  0.1278  0.9393 -0.6373
 7073TIP3   OH242853   2.826   0.282   2.047 -0.4691 -0.2502 -0.2361
 7073TIP3    H142854   2.910   0.308   2.011 -0.8698 -0.1130 -1.1022
 7073TIP3    H242855   2.799   0.355   2.103 -0.1519 -0.1644 -0.1967
 7074TIP3   OH242856   3.395   0.223   4.601 -0.4711  0.1180  0.0949
 7074TIP3    H142857   3.446   0.259   4.673 -2.2441  1.1085  0.9215
 7074TIP3    H242858   3.382   0.131   4.624 -2.1605  0.7315  1.7757
 7075TIP3   OH242859   3.814   1.316   2.895  0.6792 -0.3196 -0.1484
 7075TIP3    H142860   3.738   1.369   2.871  0.2166 -1.6519 -1.8600
 7075TIP3    H242861   3.860   1.368   2.961 -0.8845  1.2057 -0.1879
 7076TIP3   OH242862   3.064   0.578   5.013  0.1841 -0.4700  0.3623
 7076TIP3    H142863   3.122   0.533   5.075  0.5219 -0.6479 -0.0739
 7076TIP3    H242864   3.032   0.654   5.061  1.3577  0.0396  0.3879
 7077TIP3   OH242865   6.281   2.364   3.581  0.5672 -0.3413  0.4989
 7077TIP3    H142866   6.244   2.377   3.493  0.4472 -2.3904  0.1934
 7077TIP3    H242867   6.313   2.451   3.607 -0.5956  0.5883 -1.0051
 7078TIP3   OH242868   5.079   0.236   2.251  0.5642 -0.0115 -0.2780
 7078TIP3    H142869   5.041   0.153   2.221 -1.5931  0.6219  0.5413
 7078TIP3    H242870   5.049   0.301   2.187 -0.8562  0.7054  1.0572
 7079TIP3   OH242871   1.087   2.168   2.576  0.0619 -0.2200 -1.0621
 7079TIP3    H142872   1.132   2.216   2.506  0.6935  0.2074 -0.3778
 7079TIP3    H242873   1.075   2.080   2.541 -0.2909  0.1854 -1.9862
 7080TIP3   OH242874   0.019   0.657   1.897  0.0774  0.0082  0.0234
 7080TIP3    H142875   0.081   0.688   1.963  0.9191  1.5110 -1.3849
 7080TIP3    H242876  -0.067   0.679   1.932  0.3749 -0.9853  1.4568
 7081TIP3   OH242877   5.085   6.094   2.420  0.3626  0.1115 -0.0439
 7081TIP3    H142878   5.116   6.029   2.483  1.0848  1.2418  0.7962
 7081TIP3    H242879   5.164   6.127   2.377 -0.1306 -0.7953 -1.7369
 7082TIP3   OH242880   0.540   2.518   1.936  0.3495  0.1690 -0.1532
 7082TIP3    H142881   0.567   2.500   1.846  0.4252 -0.1429 -0.0707
 7082TIP3    H242882   0.612   2.484   1.989  0.7076  1.1313 -0.0044
 7083TIP3   OH242883   3.602   2.689   2.416 -0.4054  0.0636 -0.1120
 7083TIP3    H142884   3.625   2.629   2.345 -0.5217 -1.0664  0.7589
 7083TIP3    H242885   3.641   2.772   2.392  0.9614 -0.7187 -0.7012
 7084TIP3   OH242886   1.018   4.327   2.515  0.2913  0.5368 -0.1215
 7084TIP3    H142887   1.055   4.405   2.473  2.0577 -0.1392  0.1031
 7084TIP3    H242888   1.094   4.272   2.536 -0.7963 -0.6148  1.0119
 7085TIP3   OH242889   0.337   3.034   2.796  0.4318  0.5732  0.0180
 7085TIP3    H142890   0.370   3.081   2.719 -0.8391 -1.0512 -1.6152
 7085TIP3    H242891   0.407   2.972   2.817  0.3682  0.3250 -0.4848
 7086TIP3   OH242892   1.530   0.164   4.976 -0.5060  0.0973  0.0364
 7086TIP3    H142893   1.618   0.132   4.996 -0.4171  0.4188  0.1605
 7086TIP3    H242894   1.532   0.257   4.997 -1.3778 -0.2172  1.7559
 7087TIP3   OH242895   3.466   2.115   5.415  0.6983  0.1737  0.4563
 7087TIP3    H142896   3.558   2.139   5.417  0.1978  2.5192  3.1553
 7087TIP3    H242897   3.422   2.193   5.380 -0.3099 -0.7617 -0.4162
 7088TIP3   OH242898   5.245   6.293   3.856  0.0917 -0.0338  0.5328
 7088TIP3    H142899   5.282   6.374   3.822 -0.7486  0.2407  0.2431
 7088TIP3    H242900   5.155   6.317   3.881 -0.4022 -1.0483 -0.2346
 7089TIP3   OH242901   5.471   5.448   0.499 -0.5873  0.4709  0.0772
 7089TIP3    H142902   5.532   5.458   0.572 -0.3808  0.8944 -0.1457
 7089TIP3    H242903   5.510   5.381   0.443 -0.4352  0.5881  0.0435
 7090TIP3   OH242904   2.065   6.237   1.818  0.0336  0.0482  0.2994
 7090TIP3    H142905   1.990   6.293   1.840  0.1466 -0.5270  2.3665
 7090TIP3    H242906   2.033   6.148   1.828  0.3050 -0.2729 -1.4008
 7091TIP3   OH242907   0.269   3.970   5.003 -0.3235  0.5006 -0.4622
 7091TIP3    H142908   0.181   4.006   5.021 -0.3752 -0.6841  2.0762
 7091TIP3    H242909   0.298   4.018   4.925 -3.2409  0.8608 -1.4789
 7092TIP3   OH242910   2.047   2.674   1.167 -0.2002  0.0267  0.3028
 7092TIP3    H142911   2.040   2.755   1.116 -0.5375 -0.0600  0.2084
 7092TIP3    H242912   2.113   2.623   1.121  0.6690  0.6207  0.8770
 7093TIP3   OH242913   1.819   1.986   5.090 -0.1371 -0.1533  0.0765
 7093TIP3    H142914   1.759   2.054   5.122  0.2994  0.9362 -1.3014
 7093TIP3    H242915   1.762   1.923   5.044 -0.5362 -0.7052  1.3018
 7094TIP3   OH242916   0.150   5.720   4.424  0.0610  0.0269  0.6645
 7094TIP3    H142917   0.155   5.712   4.329  0.5414 -1.1343  0.7707
 7094TIP3    H242918   0.239   5.739   4.452 -0.3238  1.7925  0.7905
 7095TIP3   OH242919   1.457   2.365   4.353  0.7715  0.6922  0.3025
 7095TIP3    H142920   1.450   2.419   4.431 -0.8201 -0.6591  1.1612
 7095TIP3    H242921   1.397   2.404   4.290  1.0915  1.0331  0.2043
 7096TIP3   OH242922   1.536   5.878   2.515  0.8467 -0.2890 -0.0305
 7096TIP3    H142923   1.605   5.886   2.581 -0.1714  1.8830  0.8640
 7096TIP3    H242924   1.498   5.965   2.509 -0.7069 -1.0069 -1.7728
 7097TIP3   OH242925   4.129   5.426   2.536 -0.6935  0.5027  0.6177
 7097TIP3    H142926   4.096   5.337   2.544 -0.7807  0.4053 -0.6100
 7097TIP3    H242927   4.051   5.480   2.523 -0.4873  0.3359 -1.7746
 7098TIP3   OH242928   0.962   6.732   1.088  0.6630 -0.1030  0.2918
 7098TIP3    H142929   0.945   6.759   1.178  3.0545  0.3050  0.6834
 7098TIP3    H242930   0.927   6.643   1.082 -1.0924  0.4894  1.0444
 7099TIP3   OH242931   5.988   1.950   2.051  0.1469  0.4333 -0.2880
 7099TIP3    H142932   6.000   2.044   2.037  0.2368  0.2641 -1.4884
 7099TIP3    H242933   5.931   1.923   1.979  1.7420 -0.7750 -1.1583
 7100TIP3   OH242934   3.823   0.943   0.402 -0.4140 -0.0572 -0.0155
 7100TIP3    H142935   3.792   1.012   0.344 -1.5284  0.3102  0.9745
 7100TIP3    H242936   3.918   0.954   0.405 -0.5691  1.3985  0.0723
 7101TIP3   OH242937   0.115   3.663   1.245 -0.2781  0.0104 -0.3990
 7101TIP3    H142938   0.162   3.728   1.193  0.9677 -0.8913 -0.4375
 7101TIP3    H242939   0.081   3.601   1.180 -0.1799 -0.1968 -0.2509
 7102TIP3   OH242940   0.309   3.235   2.408  0.2323 -0.7499  0.5719
 7102TIP3    H142941   0.220   3.230   2.373 -0.0269 -1.4560  1.3051
 7102TIP3    H242942   0.300   3.285   2.489  0.8175  0.8159 -0.2784
 7103TIP3   OH242943   2.788   3.009   4.161  0.6881  0.4167  0.9101
 7103TIP3    H142944   2.804   3.089   4.211  2.0219  1.3726 -0.9535
 7103TIP3    H242945   2.741   3.038   4.083  1.7440 -0.5126 -0.1069
 7104TIP3   OH242946   1.798   5.844   1.002 -0.3580 -0.3365 -0.2096
 7104TIP3    H142947   1.790   5.837   1.097  0.6528  1.4238  0.0587
 7104TIP3    H242948   1.867   5.782   0.979  0.9310  0.7595  0.5503
 7105TIP3   OH242949   2.969   5.015   1.504  0.4207 -0.2079  0.3226
 7105TIP3    H142950   2.914   5.028   1.582  0.1935 -3.1030  0.7872
 7105TIP3    H242951   2.925   5.062   1.434 -0.5260  0.7087  1.5019
 7106TIP3   OH242952   2.525   6.363   1.563  0.3498 -0.0299  0.8049
 7106TIP3    H142953   2.513   6.317   1.647 -0.7485 -0.0283  0.6653
 7106TIP3    H242954   2.618   6.382   1.560  0.8052 -1.9874  1.0207
 7107TIP3   OH242955   0.292   3.710   3.482  0.2244  0.3820  0.4157
 7107TIP3    H142956   0.262   3.716   3.391  0.9662  2.3917  0.2497
 7107TIP3    H242957   0.246   3.781   3.527  1.3371  0.6591  1.1454
 7108TIP3   OH242958   3.024   3.016   4.034  0.1043 -0.2774 -0.1368
 7108TIP3    H142959   2.935   3.008   4.069  0.1933 -1.3302 -0.1096
 7108TIP3    H242960   3.065   3.085   4.087 -0.6757  0.1835 -0.1244
 7109TIP3   OH242961   0.774   3.887   0.264 -0.0577 -0.2485  0.1456
 7109TIP3    H142962   0.685   3.908   0.289 -0.1582 -0.6927  0.1752
 7109TIP3    H242963   0.771   3.794   0.240  0.6169 -0.5554  1.1764
 7110TIP3   OH242964   5.337   4.206   4.610  0.4594  0.3517 -0.3431
 7110TIP3    H142965   5.384   4.147   4.670 -0.4269 -0.9950 -0.9186
 7110TIP3    H242966   5.362   4.294   4.639  0.4632 -0.2511  1.6624
 7111TIP3   OH242967   2.094   2.530   4.566  0.0483  0.5517 -0.0430
 7111TIP3    H142968   2.108   2.571   4.481 -1.1084 -0.9718 -1.0313
 7111TIP3    H242969   2.026   2.582   4.608  1.5896  2.1426  0.6007
 7112TIP3   OH242970   5.074   3.799   4.212 -0.1094  0.0998  0.0316
 7112TIP3    H142971   5.091   3.889   4.182  0.9833 -0.5622 -1.4136
 7112TIP3    H242972   5.149   3.778   4.267  0.7929 -0.6787 -1.4356
 7113TIP3   OH242973   6.517   5.800   0.486 -0.1879  0.0483  0.6493
 7113TIP3    H142974   6.591   5.813   0.427 -0.8370 -0.1784 -0.2382
 7113TIP3    H242975   6.541   5.723   0.538  0.2478  0.0379  0.4375
 7114TIP3   OH242976   4.208   6.336   1.239  0.1350 -0.7758 -0.2266
 7114TIP3    H142977   4.232   6.289   1.319  1.6944  0.3968  0.0329
 7114TIP3    H242978   4.123   6.376   1.260  1.6183  1.6137  1.8666
 7115TIP3   OH242979   6.028   4.163   2.127 -0.3014 -0.1194 -0.8026
 7115TIP3    H142980   6.064   4.076   2.111 -0.5982 -0.3622 -0.2101
 7115TIP3    H242981   6.081   4.199   2.198 -0.4859 -0.0159 -0.7145
 7116TIP3   OH242982   4.756   0.652   5.480  0.4244 -0.0257 -0.0881
 7116TIP3    H142983   4.847   0.632   5.459  0.5736  1.0227 -0.5320
 7116TIP3    H242984   4.755   0.747   5.491 -0.0328 -0.2762  2.8854
 7117TIP3   OH242985   1.028   2.531   4.273 -1.0331 -0.8146 -0.0239
 7117TIP3    H142986   0.962   2.511   4.339 -1.3743  0.2763 -0.0209
 7117TIP3    H242987   0.981   2.579   4.205 -0.3886 -0.6438 -0.3593
 7118TIP3   OH242988   2.668   4.526   3.495 -0.1433  0.0307 -0.1236
 7118TIP3    H142989   2.594   4.562   3.543  0.4394  0.2107  0.6528
 7118TIP3    H242990   2.639   4.439   3.468 -0.4040 -0.1577  0.7439
 7119TIP3   OH242991   4.091   4.521   3.773 -0.5694  0.8591  0.1233
 7119TIP3    H142992   4.062   4.441   3.730  0.5763  0.7683 -0.5053
 7119TIP3    H242993   4.051   4.516   3.860  2.2934 -2.2363  1.5090
 7120TIP3   OH242994   0.001   2.381   2.015 -0.0344 -0.3776  0.6546
 7120TIP3    H142995   0.088   2.363   1.980 -0.4238 -2.4807  0.6196
 7120TIP3    H242996  -0.040   2.438   1.951  1.5292  1.2374  1.0168
 7121TIP3   OH242997   6.298   0.062   2.572 -0.3268 -0.2219 -0.2849
 7121TIP3    H142998   6.334   0.070   2.660 -0.5782 -3.1167  0.1792
 7121TIP3    H242999   6.203   0.073   2.584 -0.4701 -1.6170  0.0200
 7122TIP3   OH243000   4.992   5.956   4.438 -0.1121 -0.6246 -0.0283
 7122TIP3    H143001   5.054   5.906   4.491  0.6702 -1.3956 -1.6214
 7122TIP3    H243002   5.044   5.994   4.368 -1.0533  0.7326 -0.0373
 7123TIP3   OH243003   2.577   5.998   3.870  0.1096  0.1616 -0.3171
 7123TIP3    H143004   2.509   6.021   3.933 -0.5916  0.4759 -1.1721
 7123TIP3    H243005   2.550   5.912   3.836  1.5343 -0.9799  1.2160
 7124TIP3   OH243006   2.570   2.245   0.910 -0.3335  0.6120  0.1955
 7124TIP3    H143007   2.585   2.167   0.856 -0.4072  1.2501 -0.7743
 7124TIP3    H243008   2.533   2.211   0.991 -0.1582 -0.3822 -0.1222
 7125TIP3   OH243009   0.890   3.196   1.944  0.0234 -0.0146 -0.4250
 7125TIP3    H143010   0.848   3.122   1.900  0.9283 -0.6687 -0.2133
 7125TIP3    H243011   0.970   3.160   1.981 -1.2965  0.1417  2.9720
 7126TIP3   OH243012   6.405   0.132   3.983 -0.0032 -0.0035 -0.1030
 7126TIP3    H143013   6.470   0.177   4.036 -0.2067 -0.7675  0.8132
 7126TIP3    H243014   6.456   0.074   3.927  0.1828  0.4555 -0.4141
 7127TIP3   OH243015   1.227   0.352   2.377  0.4741  0.6193 -0.5527
 7127TIP3    H143016   1.187   0.374   2.461  2.0011 -1.9226  0.9867
 7127TIP3    H243017   1.321   0.358   2.393  0.8953 -2.3821 -1.1923
 7128TIP3   OH243018   5.282   5.005   3.291 -0.0254  0.0929  0.8681
 7128TIP3    H143019   5.288   4.913   3.315 -0.6609 -0.4502 -0.8827
 7128TIP3    H243020   5.371   5.029   3.265 -0.4910 -1.2835 -2.6181
 7129TIP3   OH243021   4.870   6.011   2.547  0.0058  0.0465 -0.1987
 7129TIP3    H143022   4.791   6.065   2.554  0.3628  0.5131  0.2878
 7129TIP3    H243023   4.922   6.054   2.479  0.2600  0.2768  0.1411
 7130TIP3   OH243024   3.593   5.474   4.078  0.4555  0.2465 -0.2312
 7130TIP3    H143025   3.640   5.480   3.995  1.0516 -0.4730  0.0370
 7130TIP3    H243026   3.606   5.559   4.120  0.4201  0.5040 -0.7380
 7131TIP3   OH243027   5.699   2.150   4.027  0.3122  0.1927  0.0869
 7131TIP3    H143028   5.727   2.059   4.031 -0.7444 -0.2077 -0.9581
 7131TIP3    H243029   5.603   2.147   4.029  0.2615  1.3038  0.4117
 7132TIP3   OH243030   1.181   5.220   3.613 -0.6059 -0.3230  0.7451
 7132TIP3    H143031   1.142   5.151   3.667  0.9996 -1.7786  0.1322
 7132TIP3    H243032   1.132   5.217   3.531 -1.0517 -0.1909  1.0026
 7133TIP3   OH243033   4.580   2.466   0.358 -0.2189 -0.0516  0.3870
 7133TIP3    H143034   4.545   2.402   0.419 -1.1402 -0.6242 -0.6974
 7133TIP3    H243035   4.548   2.551   0.390 -1.3971 -0.4275  0.2519
 7134TIP3   OH243036   6.641   0.788   1.043  0.3602 -0.6374 -0.0702
 7134TIP3    H143037   6.697   0.755   1.113  3.8308 -0.4626 -2.4632
 7134TIP3    H243038   6.589   0.712   1.016 -0.8670 -0.7659  2.3701
 7135TIP3   OH243039   0.568   3.137   1.051 -1.0376  0.0910  0.1634
 7135TIP3    H143040   0.501   3.142   1.119 -1.4055 -0.6595 -0.1318
 7135TIP3    H243041   0.601   3.047   1.057  0.0516  0.4863  0.4019
 7136TIP3   OH243042   3.694   2.061   1.719  0.3442 -0.0198 -0.4099
 7136TIP3    H143043   3.626   2.083   1.656  0.5724  0.0793 -0.6232
 7136TIP3    H243044   3.749   1.997   1.674 -0.5709 -1.4069  0.3575
 7137TIP3   OH243045   4.073   4.219   2.363  0.2995 -0.3140 -0.1431
 7137TIP3    H143046   4.077   4.132   2.324 -0.6367  0.2678 -1.6515
 7137TIP3    H243047   4.106   4.277   2.295  3.5883  0.3495  1.7857
 7138TIP3   OH243048   2.404   3.333   2.158 -0.9891  0.0838 -0.1489
 7138TIP3    H143049   2.475   3.314   2.097  1.4700  2.2335  1.8097
 7138TIP3    H243050   2.364   3.413   2.125 -0.5319  0.5085  0.3096
 7139TIP3   OH243051   1.547   4.272   2.082  0.1406 -0.6178  0.6225
 7139TIP3    H143052   1.563   4.261   1.988 -0.3485 -0.1482  0.4804
 7139TIP3    H243053   1.453   4.258   2.093 -0.1831  1.3619  0.7141
 7140TIP3   OH243054   4.662   6.433   3.292  0.1096  0.4344 -0.6818
 7140TIP3    H143055   4.580   6.445   3.244 -0.3035  0.9499  0.1414
 7140TIP3    H243056   4.656   6.493   3.366  0.3374 -0.9720  0.5206
 7141TIP3   OH243057   0.133   2.351   4.414  0.1981 -0.0661  0.6455
 7141TIP3    H143058   0.174   2.309   4.489  1.3768 -0.4310 -0.1605
 7141TIP3    H243059   0.160   2.297   4.339 -0.1243  0.8313 -0.1463
 7142TIP3   OH243060   3.165   5.542   2.715 -0.0360  0.0736 -0.0267
 7142TIP3    H143061   3.222   5.590   2.656  1.0600 -0.7126  0.3720
 7142TIP3    H243062   3.200   5.453   2.717 -0.2446 -0.0066  1.5376
 7143TIP3   OH243063   0.565   3.633   3.077 -0.2845  0.1658  0.2928
 7143TIP3    H143064   0.556   3.563   3.142 -0.6594 -0.0892 -0.0294
 7143TIP3    H243065   0.621   3.595   3.009 -1.5433 -0.2875 -0.5148
 7144TIP3   OH243066   5.072   6.622   3.195  0.2826 -0.1681  0.0536
 7144TIP3    H143067   5.164   6.649   3.189  0.1858  0.6630  1.6501
 7144TIP3    H243068   5.025   6.682   3.137  0.5655  0.5306  0.5259
 7145TIP3   OH243069   3.739   4.163   4.915 -0.2385 -0.1923  0.2430
 7145TIP3    H143070   3.741   4.132   5.005 -1.8565 -0.9736  0.0415
 7145TIP3    H243071   3.819   4.127   4.875 -0.1260 -0.8356  1.0400
 7146TIP3   OH243072   4.383   1.856   4.085 -0.6339  0.2653  0.2156
 7146TIP3    H143073   4.291   1.881   4.079  0.0583  2.6872 -3.5769
 7146TIP3    H243074   4.396   1.796   4.012  0.2838 -2.5804  2.5296
 7147LIG     O143075   4.124   4.368   5.964  0.0955 -1.2329 -0.4222
 7147LIG     O243076   4.318   4.206   5.981 -0.3755 -0.5086  0.0517
 7147LIG     O343077   4.315   4.523   5.792  0.0040  0.0511  0.3875
 7147LIG     O443078   4.497   4.101   5.887 -0.0450 -0.4946 -0.1620
 7147LIG     O543079   4.171   3.946   5.971 -0.1766  0.1544  0.3307
 7147LIG     O643080   4.272   3.787   5.739 -0.2536  0.2024  0.3377
 7147LIG     O743081   4.567   3.759   5.775 -0.6832  0.2812  0.1769
 7147LIG     O843082   4.810   4.050   5.914  0.1274 -0.4920  0.0689
 7147LIG     O943083   4.751   3.986   5.704 -0.1710 -0.3264 -0.1900
 7147LIG      N43084   3.993   4.505   6.439  0.1141 -0.0031 -0.0463
 7147LIG     C143085   4.088   4.399   6.190  0.8861 -0.1995  0.7535
 7147LIG     C243086   4.167   4.376   6.320  0.2137  0.7735 -0.3758
 7147LIG     C343087   4.105   4.296   6.081 -0.8030  0.1735 -0.5914
 7147LIG     C443088   4.142   4.494   6.410  0.0114 -0.1549  0.4642
 7147LIG     C543089   3.933   4.443   6.204 -0.0399  0.4931 -0.2779
 7147LIG     C643090   4.150   4.525   6.133 -0.3796  0.0687  0.0217
 7147LIG     C743091   4.224   4.616   6.347 -0.1566 -0.0345  0.3030
 7147LIG     C843092   3.910   4.542   6.321  0.4347 -0.0884  0.5981
 7147LIG     C943093   4.237   4.209   6.096 -0.3950  0.6314 -0.5115
 7147LIG    C1043094   4.221   4.623   6.200 -0.9768  0.6710  1.0099
 7147LIG    C1143095   4.301   4.319   6.306 -0.8846 -0.1738 -0.1270
 7147LIG    C1243096   4.182   4.490   5.999 -1.1868 -0.6973  0.2521
 7147LIG    C1343097   4.337   4.256   6.196 -0.1444  0.7279  0.1181
 7147LIG    C1443098   3.931   4.403   6.529  0.2916 -0.4812  0.3184
 7147LIG    C1543099   4.322   4.695   6.128 -0.1278  0.0068  0.0498
 7147LIG    C1643100   4.280   4.565   5.927  0.1736 -0.3184 -0.2368
 7147LIG    C1743101   4.346   4.666   5.995 -0.1319  0.2833  0.9478
 7147LIG    C1843102   4.381   4.077   5.964  0.2260 -0.4264  0.4885
 7147LIG    C1943103   4.279   3.991   5.883  0.7056 -0.4274 -0.4317
 7147LIG    C2043104   4.347   3.861   5.841 -0.7016 -1.0881  0.0022
 7147LIG    C2143105   4.497   3.886   5.789 -0.0929  0.4945  0.2521
 7147LIG    C2243106   4.574   3.991   5.881  0.8301  0.3419  0.5227
 7147LIG    C2343107   4.717   4.005   5.824 -0.1469  0.3259  0.3857
 7147LIG     H143108   4.123   4.290   6.375  3.6891  0.9804  3.1675
 7147LIG     H243109   4.012   4.236   6.076  0.7899 -2.4127 -1.5425
 7147LIG     H343110   4.186   4.473   6.509 -1.0550 -3.0864  0.3980
 7147LIG     H443111   3.871   4.351   6.212 -0.0055  0.4551 -0.4368
 7147LIG     H543112   3.896   4.492   6.112  0.9293 -1.2796 -1.6737
 7147LIG     H643113   4.328   4.593   6.377 -1.3611 -1.5640  3.8939
 7147LIG     H743114   4.180   4.711   6.385  0.2642  0.1317  0.3825
 7147LIG     H843115   3.935   4.646   6.292 -0.0159 -0.0677  0.2784
 7147LIG     H943116   3.800   4.531   6.335  0.5368  0.1360  1.7427
 7147LIG    H1043117   4.207   4.107   6.126  0.9659  0.4780  0.4024
 7147LIG    H1143118   4.379   4.345   6.379 -1.7605  1.7048  0.2014
 7147LIG    H1243119   4.428   4.196   6.209  0.0297  1.0063  0.1819
 7147LIG    H1343120   4.004   4.379   6.610 -0.4323  1.8901  1.7910
 7147LIG    H1443121   3.897   4.313   6.474  0.1659 -0.4094  0.2784
 7147LIG    H1543122   3.845   4.443   6.587 -2.3258  0.9947 -4.1495
 7147LIG    H1643123   4.395   4.759   6.177  2.4063 -0.6810 -2.5277
 7147LIG    H1743124   4.431   4.715   5.949 -0.5132 -1.5042 -1.8697
 7147LIG    H1843125   4.400   4.034   6.065 -0.2259  0.0580  0.7845
 7147LIG    H1943126   4.243   4.047   5.794 -1.3135  1.5079  1.5115
 7147LIG    H2043127   4.362   3.799   5.931  0.9058 -0.9986 -0.1774
 7147LIG    H2143128   4.265   4.446   5.767 -0.8867  1.5533 -2.9272
 7147LIG    H2243129   4.503   3.926   5.686 -0.1906  1.1356  0.4852
 7147LIG    H2343130   4.583   3.942   5.981  2.0240 -0.1613  0.1888
 7147LIG    H2443131   4.103   3.913   5.912 -0.5923  2.6682 -0.7023
 7147LIG    H2543132   4.184   3.778   5.776 -1.1041  0.6409 -1.4484
 7147LIG    H2643133   4.497   3.698   5.752 -3.4052  3.1384  0.2334
 7147LIG    H2743134   4.899   4.059   5.878  0.9468 -0.4181  1.9732
   6.76574   6.76574   9.03622
